CNT in water
33518
    1C        C    1   2.846   2.769   4.750  0.3920  0.0047 -0.1183
    1C        C    2   2.901   2.718   4.870  0.1542  0.1992  0.0743
    1C        C    3   2.852   2.775   4.989 -0.0048 -0.0888  0.1472
    1C        C    4   2.851   2.774   4.261  0.0002 -0.1991  0.3073
    1C        C    5   2.901   2.727   4.385  0.0164 -0.0402  0.3633
    1C        C    6   2.848   2.773   4.507 -0.0037  0.6341  0.1051
    1C        C    7   3.016   2.644   4.625  0.2039 -0.0466  0.2460
    1C        C    8   2.899   2.723   4.628  0.3963  0.2638 -0.2142
    1C        C    9   3.080   2.607   4.745 -0.1151 -0.2794  0.3453
    1C        C   10   3.014   2.633   4.867  0.0364  0.0311  0.3591
    1C        C   11   3.177   2.486   4.974 -0.0729 -0.0136 -0.1765
    1C        C   12   3.054   2.554   4.975 -0.0965 -0.0561  0.3441
    1C        C   13   2.842   2.761   3.774 -0.7063 -0.9413  0.3679
    1C        C   14   2.902   2.718   3.894  0.6524  0.1004  0.0918
    1C        C   15   2.846   2.763   4.016  0.3305  0.0608 -0.0387
    1C        C   16   3.019   2.645   4.138 -0.1543  0.0453 -0.0990
    1C        C   17   2.902   2.724   4.140 -0.3538 -0.2559  0.1782
    1C        C   18   3.079   2.609   4.261 -0.1803  0.0410 -0.0859
    1C        C   19   3.020   2.651   4.382  0.0192 -0.0293  0.0361
    1C        C   20   3.211   2.556   4.504 -0.2830 -0.3400  0.0870
    1C        C   21   3.081   2.612   4.503 -0.3983 -0.6064  0.0636
    1C        C   22   3.279   2.532   4.625  0.1728  0.4226 -0.0101
    1C        C   23   3.211   2.553   4.748  0.0362  0.0703 -0.0243
    1C        C   24   3.412   2.486   4.867  0.0661  0.1723 -0.3415
    1C        C   25   3.269   2.499   4.866  0.0484 -0.0172 -0.0715
    1C        C   26   3.487   2.482   4.985 -0.2166  0.3929 -0.1515
    1C        C   27   2.838   2.755   3.280  0.1495 -0.0111 -0.2767
    1C        C   28   2.900   2.719   3.402 -0.4934 -0.3813 -0.0555
    1C        C   29   2.852   2.767   3.526 -0.4971 -0.6351  0.0410
    1C        C   30   3.016   2.642   3.650 -0.6868 -0.4894 -0.3098
    1C        C   31   2.899   2.720   3.651 -0.4263 -0.1020  0.2156
    1C        C   32   3.079   2.605   3.771 -0.1467 -0.7339 -0.6563
    1C        C   33   3.016   2.634   3.894  0.1783 -0.5610 -0.5275
    1C        C   34   3.206   2.543   4.017  0.0069  0.6346  0.0202
    1C        C   35   3.079   2.604   4.017 -0.4217 -0.2471 -0.1353
    1C        C   36   3.272   2.521   4.140 -0.1019  0.3166  0.0223
    1C        C   37   3.208   2.553   4.262 -0.0325  0.3788  0.0438
    1C        C   38   3.415   2.497   4.379 -0.0324  0.2788  0.1009
    1C        C   39   3.277   2.527   4.382  0.0058  0.4676  0.0427
    1C        C   40   3.485   2.488   4.501  0.1739 -0.0466 -0.0394
    1C        C   41   3.416   2.498   4.624  0.0530 -0.0703 -0.1055
    1C        C   42   3.628   2.490   4.744  0.2014  1.1047  0.1214
    1C        C   43   3.486   2.482   4.745  0.2521 -0.0596 -0.2188
    1C        C   44   3.702   2.492   4.865  0.3226  0.4071  0.0595
    1C        C   45   3.626   2.478   4.982 -0.2289  0.0027 -0.3377
    1C        C   46   2.836   2.755   2.794 -0.0122  0.6065 -0.0752
    1C        C   47   2.896   2.715   2.915  0.0177  0.3714 -0.1708
    1C        C   48   2.836   2.751   3.038  0.0097 -0.0379 -0.0551
    1C        C   49   3.014   2.636   3.161  0.1141 -0.0676 -0.1889
    1C        C   50   2.891   2.704   3.159 -0.1739 -0.5840 -0.1804
    1C        C   51   3.078   2.606   3.284 -0.1559  0.1681  0.0113
    1C        C   52   3.019   2.645   3.406  0.0044  0.4057  0.0146
    1C        C   53   3.206   2.546   3.528  0.0670  0.1866  0.0289
    1C        C   54   3.079   2.607   3.528 -0.1386 -0.2302 -0.1049
    1C        C   55   3.272   2.515   3.650  0.0797  0.4171  0.0849
    1C        C   56   3.207   2.546   3.771  0.1451 -0.1239  0.2627
    1C        C   57   3.412   2.499   3.894  0.3050  0.4281  0.1723
    1C        C   58   3.273   2.523   3.894  0.2160 -0.0650  0.2394
    1C        C   59   3.483   2.488   4.016  0.3252  0.1232  0.1330
    1C        C   60   3.412   2.499   4.137 -0.0077  0.9161 -0.1263
    1C        C   61   3.627   2.496   4.257 -0.2303  0.9699 -0.3128
    1C        C   62   3.486   2.492   4.257 -0.2205  0.4626 -0.0170
    1C        C   63   3.696   2.507   4.379 -0.0472  0.8543 -0.4056
    1C        C   64   3.625   2.499   4.501  0.1649  0.0754 -0.3242
    1C        C   65   3.833   2.545   4.620 -0.0287  0.2318  0.0051
    1C        C   66   3.697   2.505   4.623 -0.1806  0.7351 -0.1431
    1C        C   67   3.899   2.568   4.742  0.0291  0.2577 -0.0315
    1C        C   68   3.839   2.526   4.863  0.3479  0.3070  0.1465
    1C        C   69   4.049   2.584   4.974 -0.2775 -0.1684  0.1951
    1C        C   70   3.920   2.529   4.977 -0.0894 -0.6035  0.4991
    1C        C   71   2.829   2.739   2.308  0.0058 -0.0642  0.1204
    1C        C   72   2.888   2.703   2.431  0.0273 -0.0143  0.1219
    1C        C   73   2.838   2.752   2.553 -0.2687 -0.0040 -0.0084
    1C        C   74   3.006   2.621   2.672  0.0066  0.4186  0.0413
    1C        C   75   2.895   2.708   2.674  0.0405  0.4581  0.0123
    1C        C   76   3.072   2.594   2.794  0.3376  0.1774 -0.1952
    1C        C   77   3.013   2.635   2.915  0.2609  0.7241 -0.4161
    1C        C   78   3.205   2.549   3.038  0.0534  0.4540  0.1391
    1C        C   79   3.074   2.602   3.038  0.0956  0.5652 -0.3764
    1C        C   80   3.274   2.528   3.160  0.1021  0.1937  0.0684
    1C        C   81   3.208   2.551   3.282 -0.1775  0.1159 -0.0652
    1C        C   82   3.411   2.499   3.404 -0.0145  0.7875 -0.1668
    1C        C   83   3.272   2.524   3.405 -0.1226  0.1894 -0.0754
    1C        C   84   3.481   2.493   3.526 -0.1394  0.3618 -0.1139
    1C        C   85   3.411   2.492   3.649  0.0103 -0.0254 -0.0267
    1C        C   86   3.621   2.501   3.768 -0.0591  0.6186 -0.2482
    1C        C   87   3.481   2.488   3.771 -0.0226  0.2389  0.0025
    1C        C   88   3.690   2.521   3.890  0.2964  0.6983 -0.4613
    1C        C   89   3.623   2.505   4.013  0.2367  0.8027 -0.4800
    1C        C   90   3.831   2.548   4.134  0.1165  0.0048 -0.1874
    1C        C   91   3.695   2.508   4.134 -0.1146  0.7662 -0.2692
    1C        C   92   3.900   2.567   4.256 -0.0066  0.5712 -0.2038
    1C        C   93   3.832   2.546   4.378 -0.0402  0.8397 -0.1787
    1C        C   94   4.024   2.640   4.499  0.0072  0.1044  0.3695
    1C        C   95   3.897   2.579   4.499 -0.0412  0.2094 -0.0060
    1C        C   96   4.082   2.680   4.621  0.3988 -0.0973  0.2475
    1C        C   97   4.021   2.641   4.743 -0.1491  0.5510  0.1818
    1C        C   98   4.183   2.774   4.862 -0.5106  0.3890  0.2150
    1C        C   99   4.094   2.662   4.863 -0.6778  0.5246  0.5096
    1C        C  100   4.207   2.852   4.976  0.4339 -0.3553  0.5364
    1C        C  101   2.831   2.738   2.069  0.0277 -0.4130  0.0163
    1C        C  102   2.989   2.591   2.188  0.1140 -0.0595  0.0401
    1C        C  103   2.877   2.680   2.187  0.1251 -0.0470  0.1606
    1C        C  104   3.066   2.583   2.307  0.4939  0.5794 -0.1594
    1C        C  105   3.006   2.625   2.428  0.0976  0.1068 -0.1916
    1C        C  106   3.202   2.543   2.549 -0.0989  0.4287 -0.1085
    1C        C  107   3.071   2.596   2.550 -0.0649  0.5040 -0.0114
    1C        C  108   3.269   2.518   2.670  0.2099  0.5421 -0.2554
    1C        C  109   3.203   2.541   2.793  0.2888  0.0581 -0.1185
    1C        C  110   3.409   2.501   2.916 -0.0902  0.3306 -0.1150
    1C        C  111   3.270   2.522   2.915 -0.1245  0.1206  0.1172
    1C        C  112   3.482   2.493   3.037 -0.2325  0.1118 -0.0414
    1C        C  113   3.412   2.501   3.160  0.0699  0.0127  0.1407
    1C        C  114   3.622   2.500   3.281  0.3243  0.2985  0.1024
    1C        C  115   3.482   2.489   3.282  0.3115  0.4158  0.0500
    1C        C  116   3.693   2.511   3.403  0.3940  0.2949  0.0649
    1C        C  117   3.622   2.499   3.524 -0.1306  0.1925 -0.2463
    1C        C  118   3.828   2.547   3.645  0.1041 -0.1447 -0.3013
    1C        C  119   3.691   2.510   3.646 -0.1360  0.7174 -0.2869
    1C        C  120   3.894   2.574   3.767 -0.3181  0.3696 -0.1812
    1C        C  121   3.827   2.556   3.890  0.2987  0.6951  0.2054
    1C        C  122   4.015   2.653   4.014  0.4036  0.7094  0.1828
    1C        C  123   3.892   2.583   4.012  0.3510  0.8065  0.1519
    1C        C  124   4.080   2.683   4.135  0.2020  0.6268  0.3082
    1C        C  125   4.023   2.636   4.255  0.0058  0.5477  0.1797
    1C        C  126   4.189   2.770   4.378 -0.0691 -0.0638  0.0241
    1C        C  127   4.084   2.676   4.377  0.3830 -0.5711  0.3587
    1C        C  128   4.242   2.820   4.499 -0.3398  0.1636  0.0428
    1C        C  129   4.190   2.770   4.621  0.1850  0.1524  0.2587
    1C        C  130   4.327   2.936   4.741 -0.1040  0.2668  0.0385
    1C        C  131   4.239   2.825   4.741 -0.3269  0.4500  0.3281
    1C        C  132   4.359   3.002   4.861 -0.1602 -0.1189  0.2624
    1C        C  133   4.298   2.957   4.979  0.3748 -0.3033  0.4722
    1C        C  134   3.176   2.473   2.079  0.2859  0.0100 -0.1727
    1C        C  135   3.041   2.512   2.080  0.1894 -0.3302  0.2748
    1C        C  136   3.260   2.483   2.190  0.0846  0.3870 -0.0533
    1C        C  137   3.198   2.532   2.307  0.5177  0.6439  0.0672
    1C        C  138   3.407   2.484   2.427  0.2887  0.2216 -0.0842
    1C        C  139   3.270   2.518   2.427  0.2239 -0.0383  0.1660
    1C        C  140   3.478   2.481   2.550  0.1511 -0.2373 -0.0139
    1C        C  141   3.408   2.492   2.672  0.0926 -0.0838 -0.0606
    1C        C  142   3.620   2.503   2.791  0.0957  0.0477  0.1726
    1C        C  143   3.479   2.493   2.794  0.0564  0.5243 -0.0446
    1C        C  144   3.692   2.507   2.913  0.1398 -0.5075  0.1719
    1C        C  145   3.623   2.499   3.036 -0.2280  0.0694  0.0121
    1C        C  146   3.828   2.540   3.158 -0.1326  0.3274 -0.3291
    1C        C  147   3.693   2.500   3.158 -0.0223 -0.0595 -0.1005
    1C        C  148   3.893   2.575   3.278 -0.1676  0.3993 -0.3275
    1C        C  149   3.829   2.550   3.401  0.5629 -0.2826 -0.0710
    1C        C  150   4.020   2.637   3.522  0.1728  0.6445  0.1463
    1C        C  151   3.895   2.573   3.523  0.4125  0.1635 -0.0706
    1C        C  152   4.074   2.683   3.644 -0.0827  0.5240  0.3040
    1C        C  153   4.013   2.649   3.767 -0.4029  0.5053  0.1399
    1C        C  154   4.192   2.761   3.890  0.3087  0.0072 -0.0347
    1C        C  155   4.072   2.687   3.889  0.0702  0.3947 -0.0542
    1C        C  156   4.249   2.809   4.010  0.6739 -0.5178 -0.0040
    1C        C  157   4.193   2.768   4.133  0.5523  0.1534  0.1592
    1C        C  158   4.331   2.928   4.252  0.5601 -0.1152  0.1223
    1C        C  159   4.237   2.822   4.256  0.2996  0.1266  0.2561
    1C        C  160   4.377   2.983   4.373  0.3948 -0.2926  0.2575
    1C        C  161   4.333   2.927   4.496 -0.0976 -0.0443  0.1900
    1C        C  162   4.435   3.114   4.615 -0.0256  0.1482  0.4851
    1C        C  163   4.372   2.988   4.617  0.1884  0.0374  0.0528
    1C        C  164   4.464   3.184   4.735  0.7697  0.0007  0.3832
    1C        C  165   4.437   3.119   4.857  0.8741 -0.8126 -0.0193
    1C        C  166   4.512   3.320   4.974  0.3645 -0.0896  0.4323
    1C        C  167   4.488   3.183   4.972  0.5092 -0.1088 -0.2466
    1C        C  168   3.476   2.438   2.073  0.1051  0.3644  0.1158
    1C        C  169   3.399   2.456   2.188  0.0223  0.0571  0.1084
    1C        C  170   3.618   2.476   2.305  0.2861 -0.0279 -0.0895
    1C        C  171   3.476   2.468   2.305  0.2831  0.0530 -0.0647
    1C        C  172   3.689   2.496   2.425  0.1310  0.7954 -0.1350
    1C        C  173   3.618   2.493   2.547  0.0724  0.7603 -0.1705
    1C        C  174   3.826   2.545   2.668  0.0387 -0.5628  0.0221
    1C        C  175   3.689   2.514   2.668 -0.0522 -0.1724  0.0687
    1C        C  176   3.896   2.564   2.789  0.0545  0.2843 -0.1136
    1C        C  177   3.827   2.546   2.911 -0.0315  0.0935 -0.1862
    1C        C  178   4.014   2.638   3.034  0.3920 -0.4575  0.2388
    1C        C  179   3.892   2.568   3.035  0.2198 -0.1725 -0.2667
    1C        C  180   4.082   2.669   3.154  0.2702 -0.1080  0.2200
    1C        C  181   4.020   2.638   3.277 -0.1023  0.2788  0.1368
    1C        C  182   4.198   2.752   3.401  0.2601  0.0500  0.1949
    1C        C  183   4.082   2.672   3.399  0.2876  0.0112  0.0186
    1C        C  184   4.249   2.803   3.522  0.4766 -0.0705  0.1534
    1C        C  185   4.189   2.764   3.644  0.0787  0.2940  0.0731
    1C        C  186   4.330   2.920   3.763  0.3055  0.1582  0.0247
    1C        C  187   4.240   2.812   3.767  0.2520  0.2092  0.0314
    1C        C  188   4.368   2.982   3.884  0.2091 -0.1594  0.2102
    1C        C  189   4.328   2.926   4.007  0.4473 -0.3687  0.1871
    1C        C  190   4.444   3.104   4.128  0.4892 -0.1699 -0.1523
    1C        C  191   4.373   2.983   4.129  0.3872 -0.1005  0.0770
    1C        C  192   4.468   3.174   4.248  0.4118 -0.5248  0.0608
    1C        C  193   4.438   3.110   4.370  0.6646 -0.4327  0.1638
    1C        C  194   4.496   3.315   4.491  0.0467 -0.3364  0.3702
    1C        C  195   4.462   3.178   4.492 -0.1771 -0.2765  0.2382
    1C        C  196   4.514   3.387   4.611  0.1166 -0.0522  0.1864
    1C        C  197   4.503   3.321   4.736  0.9604 -0.0553  0.2652
    1C        C  198   4.551   3.534   4.855  0.4453 -0.1354 -0.3239
    1C        C  199   4.528   3.393   4.855  0.4958 -0.1446  0.4168
    1C        C  200   4.587   3.622   4.962 -0.1193 -0.2811 -0.0187
    1C        C  201   3.615   2.422   2.075  0.0837  0.0693 -0.3981
    1C        C  202   3.828   2.520   2.181 -0.1421  0.2660 -0.3974
    1C        C  203   3.693   2.471   2.185  0.0468 -0.2490 -0.2297
    1C        C  204   3.894   2.549   2.303  0.0097 -0.0123 -0.4133
    1C        C  205   3.828   2.525   2.425  0.2710  0.1174 -0.2443
    1C        C  206   4.020   2.624   2.546 -0.2541  0.2546  0.0119
    1C        C  207   3.892   2.565   2.544 -0.1614  0.0534  0.0110
    1C        C  208   4.083   2.658   2.667 -0.3122  0.5385 -0.0334
    1C        C  209   4.022   2.627   2.791  0.3505 -0.2965  0.0975
    1C        C  210   4.194   2.751   2.909  0.0251 -0.0191  0.0423
    1C        C  211   4.077   2.672   2.913 -0.2340  0.3564  0.1324
    1C        C  212   4.251   2.793   3.032 -0.2190  0.1535  0.1017
    1C        C  213   4.198   2.749   3.155 -0.0737  0.3969  0.2540
    1C        C  214   4.332   2.913   3.276  0.6904 -0.1801  0.1064
    1C        C  215   4.247   2.801   3.277  0.2700  0.1336  0.2306
    1C        C  216   4.373   2.972   3.397  0.6521  0.0828 -0.0074
    1C        C  217   4.335   2.915   3.520  0.4441 -0.0520 -0.1358
    1C        C  218   4.428   3.107   3.640  0.8255 -0.3048  0.1548
    1C        C  219   4.373   2.978   3.641  0.3343 -0.0961 -0.0809
    1C        C  220   4.457   3.171   3.763  0.8533 -0.2985  0.1410
    1C        C  221   4.434   3.106   3.886  0.9219 -0.5403  0.0223
    1C        C  222   4.507   3.308   4.003  0.5571 -0.1392 -0.1294
    1C        C  223   4.470   3.172   4.006  0.6145 -0.1482 -0.1065
    1C        C  224   4.510   3.378   4.125 -0.1270 -0.5653  0.1330
    1C        C  225   4.496   3.312   4.249 -0.4048 -0.3645  0.2044
    1C        C  226   4.507   3.526   4.366 -0.0514 -0.5439 -0.1691
    1C        C  227   4.512   3.385   4.369 -0.0335 -0.5315  0.2525
    1C        C  228   4.510   3.597   4.488 -0.2480 -0.3473 -0.2795
    1C        C  229   4.523   3.527   4.611 -0.0736 -0.0444 -0.1268
    1C        C  230   4.496   3.738   4.730 -0.9307 -0.2481 -0.3134
    1C        C  231   4.533   3.601   4.731  0.1188  0.0256 -0.1877
    1C        C  232   4.492   3.820   4.844 -0.2368 -0.0369 -0.4399
    1C        C  233   4.539   3.754   4.958 -0.0407 -0.2701 -0.6561
    1C        C  234   4.019   2.615   2.065 -0.2036  0.4513  0.0792
    1C        C  235   3.900   2.544   2.063 -0.2465  0.5356 -0.4051
    1C        C  236   4.086   2.653   2.183 -0.1884  0.6754 -0.0028
    1C        C  237   4.021   2.614   2.302 -0.1329  0.2759 -0.1058
    1C        C  238   4.197   2.737   2.425 -0.1001  0.0432 -0.1388
    1C        C  239   4.081   2.655   2.422 -0.5123  0.6141 -0.0312
    1C        C  240   4.253   2.788   2.544  0.1530 -0.0024 -0.2348
    1C        C  241   4.195   2.744   2.665  0.4312 -0.4094 -0.2428
    1C        C  242   4.345   2.897   2.789 -0.2820  0.0727 -0.1144
    1C        C  243   4.251   2.791   2.786 -0.3048  0.0854 -0.0831
    1C        C  244   4.381   2.961   2.909  0.5918 -0.7102  0.0529
    1C        C  245   4.337   2.904   3.031  0.2148 -0.1784  0.1723
    1C        C  246   4.432   3.096   3.151  0.9852 -0.3719  0.1135
    1C        C  247   4.367   2.970   3.152  1.1040 -0.4358  0.1046
    1C        C  248   4.454   3.165   3.272  0.4191 -0.0584  0.0423
    1C        C  249   4.437   3.098   3.396  0.9334 -0.0577  0.1159
    1C        C  250   4.499   3.304   3.516  0.5001 -0.1437  0.3124
    1C        C  251   4.460   3.168   3.516  1.1982 -0.3461  0.2318
    1C        C  252   4.517   3.374   3.637  0.4940  0.2628  0.0785
    1C        C  253   4.501   3.304   3.759  0.5448 -0.2075 -0.1829
    1C        C  254   4.528   3.516   3.878  0.7721 -0.2663  0.3657
    1C        C  255   4.520   3.375   3.880  0.7265 -0.2678 -0.1777
    1C        C  256   4.518   3.589   3.999 -0.1432 -0.2498  0.2822
    1C        C  257   4.510   3.519   4.121  0.0983 -0.5699  0.1134
    1C        C  258   4.486   3.732   4.241 -0.0628 -0.3554 -0.2037
    1C        C  259   4.504   3.592   4.242  0.5080 -0.2834 -0.0402
    1C        C  260   4.477   3.804   4.363 -0.0041 -0.4837 -0.1233
    1C        C  261   4.489   3.736   4.487  0.3869 -0.2440 -0.0298
    1C        C  262   4.418   3.936   4.605 -0.5579 -0.0478 -0.0726
    1C        C  263   4.474   3.807   4.608 -0.4375  0.0002 -0.2614
    1C        C  264   4.395   4.011   4.723 -0.2138  0.0467 -0.0635
    1C        C  265   4.436   3.950   4.844 -0.4454 -0.1252 -0.0728
    1C        C  266   4.311   4.131   4.959  0.2133 -0.1539  0.0980
    1C        C  267   4.393   4.019   4.958 -0.4305 -0.6289  0.2403
    1C        C  268   4.256   2.784   2.066 -0.0761  0.1349  0.1359
    1C        C  269   4.201   2.736   2.185 -0.1053  0.5502  0.2919
    1C        C  270   4.347   2.893   2.304 -0.1641  0.6915  0.1512
    1C        C  271   4.257   2.784   2.305  0.4480  0.1798  0.1845
    1C        C  272   4.387   2.954   2.425 -0.1718  0.4878  0.2584
    1C        C  273   4.344   2.896   2.546  0.7163 -0.4708  0.1362
    1C        C  274   4.442   3.086   2.665  0.5925 -0.0477  0.1361
    1C        C  275   4.382   2.958   2.667 -0.0681  0.2500  0.0343
    1C        C  276   4.469   3.154   2.786 -0.1863 -0.0711  0.3301
    1C        C  277   4.443   3.088   2.908 -0.0577 -0.3841  0.1942
    1C        C  278   4.506   3.292   3.028 -0.0144 -0.1036  0.0506
    1C        C  279   4.467   3.157   3.029  0.4594 -0.2462  0.0227
    1C        C  280   4.518   3.364   3.149  0.6728 -0.0304 -0.0550
    1C        C  281   4.498   3.299   3.272  0.5462 -0.0996 -0.1101
    1C        C  282   4.519   3.513   3.389  0.1558 -0.4040  0.0258
    1C        C  283   4.512   3.372   3.393  0.0949 -0.3986  0.1263
    1C        C  284   4.517   3.583   3.512 -0.4397 -0.1631 -0.1179
    1C        C  285   4.522   3.515   3.635  0.5418  0.2608  0.0834
    1C        C  286   4.498   3.726   3.754  0.0965 -0.3004  0.0375
    1C        C  287   4.521   3.587   3.757  0.3253 -0.2577  0.3941
    1C        C  288   4.475   3.796   3.875 -0.0283 -0.6172  0.1985
    1C        C  289   4.489   3.728   3.998 -0.0565 -0.2298  0.4196
    1C        C  290   4.432   3.935   4.115 -0.5248  0.1453  0.0539
    1C        C  291   4.473   3.800   4.118 -0.2870  0.2158  0.1271
    1C        C  292   4.405   3.999   4.238 -0.5382 -0.1864  0.2302
    1C        C  293   4.435   3.939   4.362 -0.3221 -0.5783 -0.0100
    1C        C  294   4.321   4.121   4.480 -0.4357 -0.2102  0.2551
    1C        C  295   4.396   4.001   4.482 -0.7008 -0.3893 -0.2284
    1C        C  296   4.276   4.183   4.599 -0.6301 -0.4233  0.2971
    1C        C  297   4.318   4.130   4.722 -0.1693  0.0805  0.3573
    1C        C  298   4.193   4.314   4.837  0.1528  0.3583 -0.1969
    1C        C  299   4.277   4.198   4.840 -0.3399  0.0064  0.3419
    1C        C  300   4.163   4.395   4.951  0.6792  0.0520  0.1663
    1C        C  301   4.349   2.887   2.062 -0.2086  0.2624  0.2902
    1C        C  302   4.464   3.072   2.179  0.2493  0.2979  0.1072
    1C        C  303   4.390   2.949   2.180  0.4053  0.2005  0.1174
    1C        C  304   4.477   3.146   2.299  0.3447  0.2784  0.1112
    1C        C  305   4.443   3.084   2.421  0.0422  0.3959  0.0889
    1C        C  306   4.502   3.288   2.539  1.0067 -0.0328  0.0162
    1C        C  307   4.467   3.152   2.542  0.3609  0.1305  0.1792
    1C        C  308   4.514   3.360   2.660  1.0105 -0.0322  0.0200
    1C        C  309   4.502   3.291   2.782  0.2076 -0.1698 -0.1286
    1C        C  310   4.520   3.501   2.901  0.4188 -0.2813 -0.1110
    1C        C  311   4.515   3.360   2.905  0.0123 -0.2714 -0.0445
    1C        C  312   4.516   3.575   3.022  0.3163 -0.2971 -0.1022
    1C        C  313   4.517   3.505   3.145  0.1641 -0.0289  0.0529
    1C        C  314   4.494   3.719   3.264 -0.9187 -0.2947  0.1532
    1C        C  315   4.509   3.579   3.265 -0.8505 -0.2884  0.1597
    1C        C  316   4.474   3.786   3.387 -0.6025  0.0038  0.0432
    1C        C  317   4.487   3.721   3.511 -0.4715 -0.1683 -0.0601
    1C        C  318   4.426   3.925   3.626 -0.8350 -0.5899  0.1798
    1C        C  319   4.478   3.793   3.631 -0.1129 -0.3179  0.0607
    1C        C  320   4.395   3.988   3.748 -1.1077 -0.7226  0.1834
    1C        C  321   4.430   3.929   3.871 -0.9457 -0.9231  0.0456
    1C        C  322   4.314   4.108   3.993 -0.1492  0.0711  0.0835
    1C        C  323   4.399   3.995   3.992 -0.8657 -0.4795 -0.1686
    1C        C  324   4.268   4.160   4.115  0.3238  0.1757  0.2230
    1C        C  325   4.321   4.113   4.238 -0.7984 -0.3734  0.5146
    1C        C  326   4.185   4.281   4.351 -0.2171  0.3087 -0.1803
    1C        C  327   4.276   4.173   4.357 -0.6178 -0.0093  0.4041
    1C        C  328   4.135   4.336   4.471 -0.2553 -0.1114  0.0043
    1C        C  329   4.185   4.291   4.595 -0.3539 -0.1983  0.0156
    1C        C  330   4.021   4.436   4.717  0.0391  0.4478  0.3327
    1C        C  331   4.138   4.354   4.712 -0.1165  0.2429 -0.1193
    1C        C  332   3.970   4.497   4.833 -0.0349  0.2676  0.3993
    1C        C  333   4.053   4.481   4.945  0.0509 -0.7397  0.2037
    1C        C  334   4.558   3.268   2.063  0.2716  0.5329 -0.5348
    1C        C  335   4.532   3.130   2.068  0.4228  0.5257  0.3308
    1C        C  336   4.540   3.351   2.175  0.1232 -0.0196 -0.1377
    1C        C  337   4.511   3.284   2.295  0.7832  0.1762  0.1395
    1C        C  338   4.520   3.497   2.414  0.3569  0.2733 -0.0402
    1C        C  339   4.516   3.356   2.416  0.3221  0.2734  0.1034
    1C        C  340   4.521   3.571   2.534  0.9761 -0.0428  0.1528
    1C        C  341   4.519   3.501   2.657  0.1496  0.0081  0.1725
    1C        C  342   4.495   3.712   2.775  0.3366  0.1353  0.0550
    1C        C  343   4.515   3.572   2.779  0.1514  0.1073  0.1186
    1C        C  344   4.483   3.783   2.897 -0.0966 -0.1111  0.1611
    1C        C  345   4.496   3.714   3.019 -0.5883 -0.4157  0.0476
    1C        C  346   4.426   3.916   3.136 -0.9188 -0.5418  0.0552
    1C        C  347   4.478   3.785   3.140 -0.5959 -0.4143  0.0470
    1C        C  348   4.396   3.980   3.258 -0.4985 -0.3768  0.0748
    1C        C  349   4.422   3.917   3.382 -0.2960  0.1358  0.2931
    1C        C  350   4.328   4.110   3.503 -0.6384 -0.1112  0.4169
    1C        C  351   4.401   3.989   3.502 -0.6388 -0.1127  0.3828
    1C        C  352   4.284   4.166   3.624 -0.4709  0.1957  0.3396
    1C        C  353   4.321   4.108   3.748 -0.2947 -0.2047  0.1047
    1C        C  354   4.174   4.263   3.864 -0.0310  0.1023  0.1259
    1C        C  355   4.274   4.163   3.869  0.1137  0.2401  0.0678
    1C        C  356   4.120   4.308   3.986 -0.1497  0.4142 -0.0384
    1C        C  357   4.171   4.262   4.109  0.7936  0.5998 -0.3502
    1C        C  358   4.013   4.406   4.230  0.4716  0.5866 -0.0405
    1C        C  359   4.124   4.318   4.230  0.3175  0.3864 -0.4320
    1C        C  360   3.956   4.451   4.351  0.7922  0.7874  0.0437
    1C        C  361   4.022   4.421   4.473  0.3694  0.7334  0.2664
    1C        C  362   3.825   4.506   4.595 -0.0129 -0.0956 -0.0180
    1C        C  363   3.957   4.458   4.593  0.2810  0.6703  0.2436
    1C        C  364   3.760   4.538   4.717 -0.0431 -0.2100  0.0016
    1C        C  365   3.835   4.539   4.836 -0.2225 -0.2976  0.1189
    1C        C  366   3.627   4.608   4.948  0.0438  0.3092  0.2452
    1C        C  367   3.764   4.581   4.949 -0.0537 -0.2031  0.1926
    1C        C  368   4.531   3.566   2.053  0.2544  0.1390 -0.2172
    1C        C  369   4.532   3.492   2.172 -0.1424 -0.0374 -0.3222
    1C        C  370   4.492   3.705   2.289  0.5905  0.0173 -0.0470
    1C        C  371   4.517   3.567   2.291 -0.1902 -0.1339 -0.2653
    1C        C  372   4.483   3.778   2.410 -0.2067 -0.2109  0.0366
    1C        C  373   4.510   3.712   2.532  0.3347 -0.0901 -0.0157
    1C        C  374   4.431   3.910   2.650  0.1314 -0.0297 -0.0752
    1C        C  375   4.486   3.781   2.652 -0.1100 -0.1369 -0.0729
    1C        C  376   4.399   3.975   2.771 -0.2885 -0.1846 -0.0990
    1C        C  377   4.433   3.915   2.894  0.0834 -0.0466 -0.1331
    1C        C  378   4.325   4.102   3.015 -0.1525 -0.2658  0.0838
    1C        C  379   4.401   3.982   3.014 -0.6650 -0.5910 -0.0246
    1C        C  380   4.279   4.158   3.136 -0.7536 -0.6178  0.0221
    1C        C  381   4.326   4.102   3.257 -0.9073 -0.6096  0.0836
    1C        C  382   4.179   4.253   3.375  0.5138  0.3701 -0.0492
    1C        C  383   4.287   4.163   3.379  0.1205 -0.0975  0.1645
    1C        C  384   4.121   4.298   3.496  0.1559  0.7379 -0.3522
    1C        C  385   4.178   4.260   3.619 -0.1553  0.5241 -0.2708
    1C        C  386   4.005   4.384   3.742  0.5641  0.6746  0.1157
    1C        C  387   4.124   4.308   3.740  0.3113  0.2714  0.0464
    1C        C  388   3.947   4.427   3.863  0.2144  0.6375 -0.0321
    1C        C  389   4.006   4.391   3.987  0.3292  1.0917  0.0508
    1C        C  390   3.816   4.484   4.107 -0.1208 -0.0458  0.0111
    1C        C  391   3.948   4.433   4.108  0.1233  0.5754  0.1391
    1C        C  392   3.751   4.506   4.230  0.2345 -0.1552  0.2260
    1C        C  393   3.821   4.493   4.352  0.3951 -0.4362  0.1091
    1C        C  394   3.615   4.539   4.475  0.3282  0.5659 -0.3165
    1C        C  395   3.755   4.518   4.474  0.3991  0.9854 -0.1643
    1C        C  396   3.545   4.558   4.597  0.3929 -0.6696 -0.0709
    1C        C  397   3.621   4.562   4.716 -0.0875 -0.4292  0.2341
    1C        C  398   3.410   4.553   4.839  0.0288  0.2195 -0.2899
    1C        C  399   3.549   4.577   4.836  0.1065 -0.1314  0.3185
    1C        C  400   3.344   4.522   4.958  0.1553 -0.1537 -0.3135
    1C        C  401   4.505   3.703   2.052  0.8610  0.2632  0.1390
    1C        C  402   4.449   3.915   2.166  0.3611  0.1987  0.0048
    1C        C  403   4.482   3.778   2.168  0.6799  0.2747  0.0980
    1C        C  404   4.422   3.983   2.287  0.2161 -0.2098  0.2034
    1C        C  405   4.447   3.914   2.408  0.1493 -0.1105  0.2752
    1C        C  406   4.333   4.097   2.528  0.2335  0.2737 -0.1259
    1C        C  407   4.408   3.978   2.528  0.4551  0.4099  0.1033
    1C        C  408   4.284   4.151   2.649  0.6632  0.3083  0.0355
    1C        C  409   4.325   4.096   2.772  0.3533  0.2151  0.0969
    1C        C  410   4.171   4.244   2.892  0.2427  0.0905  0.1992
    1C        C  411   4.280   4.154   2.892  0.3047  0.1683  0.1016
    1C        C  412   4.115   4.290   3.013 -0.3096  0.1545 -0.0801
    1C        C  413   4.179   4.258   3.134  0.0803  0.2235 -0.2694
    1C        C  414   4.005   4.380   3.253  0.2249 -0.0090 -0.1576
    1C        C  415   4.123   4.303   3.255  0.0886 -0.2167 -0.1019
    1C        C  416   3.940   4.409   3.376  0.1050  0.6693 -0.3815
    1C        C  417   4.001   4.371   3.497  0.0719  0.6024 -0.3863
    1C        C  418   3.812   4.468   3.617  0.6492  0.3660 -0.0512
    1C        C  419   3.938   4.405   3.619  0.8098  0.6824 -0.0189
    1C        C  420   3.750   4.500   3.740  0.2602  0.5271 -0.2869
    1C        C  421   3.816   4.479   3.862  0.0027  0.1168 -0.2127
    1C        C  422   3.610   4.530   3.986  0.0821 -0.1814 -0.2701
    1C        C  423   3.748   4.500   3.984  0.1380  0.0536 -0.1231
    1C        C  424   3.542   4.538   4.109  0.5365 -0.2604 -0.0056
    1C        C  425   3.611   4.528   4.231  0.3756  0.8119  0.1864
    1C        C  426   3.402   4.551   4.355 -0.1525 -0.0172 -0.4454
    1C        C  427   3.543   4.547   4.354 -0.1236  0.6234 -0.0541
    1C        C  428   3.332   4.548   4.478  0.3468  0.2385 -0.1475
    1C        C  429   3.404   4.558   4.599  0.3810  0.3521 -0.1727
    1C        C  430   3.196   4.512   4.720  0.1934 -0.1027 -0.3886
    1C        C  431   3.333   4.548   4.720  0.1006  0.2547 -0.3406
    1C        C  432   3.128   4.493   4.844 -0.0381 -0.2069 -0.5284
    1C        C  433   3.208   4.495   4.959  0.1525 -0.1490 -0.6597
    1C        C  434   4.389   4.123   2.055  0.1895  0.1160 -0.1648
    1C        C  435   4.452   3.998   2.053 -0.1115 -0.0366 -0.1819
    1C        C  436   4.308   4.165   2.165  0.0704 -0.4816 -0.0232
    1C        C  437   4.341   4.099   2.287  0.3557 -0.1112  0.1003
    1C        C  438   4.179   4.242   2.404  0.1228  0.1730  0.1476
    1C        C  439   4.288   4.152   2.407  0.1804  0.2315 -0.1250
    1C        C  440   4.122   4.287   2.524  0.2964  0.2755  0.1935
    1C        C  441   4.176   4.242   2.647  0.8809  0.5714  0.0482
    1C        C  442   4.003   4.368   2.768  0.2492 -0.3314 -0.3581
    1C        C  443   4.118   4.286   2.768  0.6004  0.1552  0.0688
    1C        C  444   3.938   4.399   2.889  0.4060  0.1577 -0.3968
    1C        C  445   4.001   4.373   3.012 -0.2216  0.2720 -0.0494
    1C        C  446   3.810   4.467   3.131  0.2169  0.4435 -0.0246
    1C        C  447   3.943   4.419   3.132  0.3203  0.7378  0.0353
    1C        C  448   3.742   4.492   3.252  0.1267  0.9298 -0.1751
    1C        C  449   3.812   4.467   3.373  0.1974  0.8810 -0.2278
    1C        C  450   3.608   4.523   3.496  0.1532 -0.8936 -0.0313
    1C        C  451   3.747   4.497   3.495  0.3433  0.0989  0.0473
    1C        C  452   3.540   4.527   3.619 -0.0116 -0.4696 -0.1375
    1C        C  453   3.611   4.525   3.741  0.2594  0.5250 -0.2716
    1C        C  454   3.400   4.533   3.863  0.1259 -0.6978 -0.0651
    1C        C  455   3.541   4.534   3.863  0.1268 -0.1446 -0.2961
    1C        C  456   3.331   4.535   3.986  0.4438 -0.2172  0.1085
    1C        C  457   3.400   4.540   4.109  0.5364  0.0074  0.0491
    1C        C  458   3.194   4.512   4.234 -0.2034 -0.3366 -0.1232
    1C        C  459   3.334   4.532   4.233 -0.1562 -0.6551 -0.3527
    1C        C  460   3.126   4.494   4.356  0.1145  0.1008  0.1254
    1C        C  461   3.195   4.515   4.478  0.3610  0.1670 -0.0233
    1C        C  462   2.998   4.433   4.599 -0.0102  0.0744 -0.0264
    1C        C  463   3.126   4.493   4.599 -0.1535  0.3857 -0.2696
    1C        C  464   2.938   4.398   4.722 -0.0787  0.2277 -0.0136
    1C        C  465   2.995   4.441   4.844 -0.3501  0.5700 -0.0028
    1C        C  466   2.801   4.340   4.955  0.4549 -0.2059 -0.1185
    1C        C  467   2.907   4.431   4.957  0.3964 -0.1430  0.5327
    1C        C  468   4.123   4.288   2.045 -0.1674  0.3028  0.4324
    1C        C  469   4.187   4.242   2.160 -0.2568 -0.9868 -0.0238
    1C        C  470   4.006   4.362   2.281  0.0482 -0.4872  0.2256
    1C        C  471   4.125   4.284   2.280  0.1457 -0.3384 -0.0385
    1C        C  472   3.942   4.397   2.402  0.1565  0.1300  0.1126
    1C        C  473   4.002   4.361   2.525 -0.0635 -0.2975  0.0993
    1C        C  474   3.812   4.459   2.644 -0.0386  0.3409 -0.2569
    1C        C  475   3.940   4.401   2.646 -0.2685 -0.1621 -0.0481
    1C        C  476   3.743   4.487   2.764 -0.1421 -0.6746 -0.0718
    1C        C  477   3.809   4.456   2.885  0.0739 -0.5662 -0.1606
    1C        C  478   3.609   4.521   3.008  0.5325  0.6522 -0.2597
    1C        C  479   3.745   4.483   3.008  0.4366  0.3115 -0.1572
    1C        C  480   3.538   4.540   3.129  0.3202  0.2578 -0.3200
    1C        C  481   3.606   4.528   3.253  0.0135  0.5000 -0.1276
    1C        C  482   3.395   4.535   3.377  0.2561  0.1974  0.1445
    1C        C  483   3.536   4.537   3.375  0.2528  0.2117  0.0284
    1C        C  484   3.325   4.528   3.500  0.0344 -0.1236 -0.0026
    1C        C  485   3.398   4.529   3.620 -0.0148 -0.8110  0.0340
    1C        C  486   3.188   4.508   3.742  0.0914 -0.4528 -0.0383
    1C        C  487   3.327   4.531   3.742 -0.0364  0.3413  0.0072
    1C        C  488   3.125   4.485   3.867  0.1580 -0.7215 -0.0536
    1C        C  489   3.193   4.504   3.989  0.5257 -0.6357 -0.2680
    1C        C  490   3.008   4.410   4.114  0.0817 -0.4464 -0.3429
    1C        C  491   3.127   4.485   4.112  0.5111 -1.1232 -0.3490
    1C        C  492   2.944   4.381   4.237  0.4180 -0.0362 -0.0657
    1C        C  493   3.004   4.423   4.358 -0.0274  0.3382  0.0271
    1C        C  494   2.829   4.303   4.481  0.5274 -0.5354  0.0882
    1C        C  495   2.936   4.395   4.478 -0.0468  0.1356 -0.0285
    1C        C  496   2.777   4.256   4.604  0.0790 -0.1742  0.0404
    1C        C  497   2.825   4.312   4.724  0.1774 -0.1131 -0.0252
    1C        C  498   2.666   4.163   4.844  0.0651 -0.0497  0.3608
    1C        C  499   2.759   4.269   4.842 -0.0203  0.0204 -0.0851
    1C        C  500   2.595   4.120   4.956  0.2883 -0.0597  0.4994
    1C        C  501   4.000   4.354   2.042 -0.3386 -0.0324  0.0431
    1C        C  502   3.817   4.465   2.157 -0.0822 -0.4842  0.1793
    1C        C  503   3.940   4.397   2.161  0.2083  0.0432  0.2902
    1C        C  504   3.746   4.484   2.278 -0.4181 -0.2624 -0.0504
    1C        C  505   3.812   4.453   2.399 -0.0022 -0.2495 -0.2712
    1C        C  506   3.609   4.510   2.521 -0.1374  0.0275 -0.2374
    1C        C  507   3.747   4.483   2.520 -0.2442 -0.5327 -0.3266
    1C        C  508   3.536   4.525   2.641  0.1105 -0.0542 -0.0753
    1C        C  509   3.606   4.519   2.764  0.1074  0.4334 -0.0506
    1C        C  510   3.397   4.528   2.887  0.0327  0.5502 -0.1739
    1C        C  511   3.538   4.533   2.887  0.0504  0.0455 -0.0394
    1C        C  512   3.328   4.513   3.010  0.8502 -0.0614  0.2195
    1C        C  513   3.397   4.531   3.131  0.3569 -0.1527  0.5162
    1C        C  514   3.191   4.486   3.254  0.0868 -0.4893 -0.0790
    1C        C  515   3.328   4.520   3.254  0.0369 -0.2867  0.3240
    1C        C  516   3.122   4.470   3.376  0.0646  0.0315 -0.0249
    1C        C  517   3.187   4.499   3.498 -0.0070  0.0740  0.0029
    1C        C  518   2.997   4.414   3.623  0.2877 -0.6242 -0.3249
    1C        C  519   3.120   4.484   3.621 -0.0740  0.0269 -0.0403
    1C        C  520   2.942   4.379   3.748  0.1164 -0.5544 -0.3806
    1C        C  521   3.001   4.420   3.870  0.0353 -0.5063 -0.3572
    1C        C  522   2.834   4.289   3.993 -0.0830 -0.2261  0.0174
    1C        C  523   2.945   4.376   3.992 -0.1758 -0.1089 -0.3085
    1C        C  524   2.784   4.242   4.116  0.1242  0.1170  0.2366
    1C        C  525   2.834   4.293   4.238  0.4008 -0.0145  0.1805
    1C        C  526   2.703   4.129   4.363 -0.0856 -0.0496 -0.2823
    1C        C  527   2.783   4.245   4.361  0.4628 -0.4160  0.0538
    1C        C  528   2.666   4.070   4.486  0.3241  0.0697 -0.0990
    1C        C  529   2.696   4.140   4.605  0.4441 -0.4301  0.1697
    1C        C  530   2.585   3.959   4.727  0.6033 -0.1207 -0.1622
    1C        C  531   2.644   4.089   4.726  0.0480  0.1385  0.2435
    1C        C  532   2.546   3.902   4.851  0.4934 -0.1405 -0.2060
    1C        C  533   2.531   3.995   4.959 -0.1686  0.1454 -0.5388
    1C        C  534   3.617   4.545   2.037  0.0941 -0.5801 -0.3901
    1C        C  535   3.752   4.508   2.041  0.1108 -0.4829  0.0716
    1C        C  536   3.538   4.529   2.156 -0.2150 -0.1591 -0.5383
    1C        C  537   3.606   4.508   2.279 -0.4575 -0.4717 -0.4569
    1C        C  538   3.395   4.517   2.400 -0.0806  0.1942  0.0652
    1C        C  539   3.536   4.520   2.401 -0.0738 -0.0076 -0.2795
    1C        C  540   3.325   4.508   2.522  0.0529  0.2720  0.1488
    1C        C  541   3.395   4.515   2.644  0.0529  0.7472  0.1263
    1C        C  542   3.188   4.482   2.767 -0.2841  0.6709  0.1058
    1C        C  543   3.325   4.516   2.767 -0.2034  0.3529 -0.0141
    1C        C  544   3.120   4.459   2.889  0.2696 -0.6768  0.1742
    1C        C  545   3.190   4.485   3.009  0.8827 -0.2088 -0.2727
    1C        C  546   3.000   4.395   3.134  0.3283  0.3016 -0.1815
    1C        C  547   3.125   4.460   3.132  0.6394 -0.3055 -0.4205
    1C        C  548   2.937   4.366   3.257  0.2451  0.4104 -0.1984
    1C        C  549   2.995   4.408   3.378 -0.2450  0.6565 -0.0470
    1C        C  550   2.832   4.280   3.505 -0.2502 -0.2805 -0.3429
    1C        C  551   2.936   4.375   3.502  0.0977 -0.6548 -0.2193
    1C        C  552   2.784   4.234   3.629 -0.2546  0.0645 -0.2148
    1C        C  553   2.834   4.288   3.749 -0.4931  0.1622 -0.1572
    1C        C  554   2.700   4.124   3.876 -0.4258  0.2639  0.1338
    1C        C  555   2.786   4.236   3.872 -0.2211  0.1023 -0.0733
    1C        C  556   2.665   4.064   3.999 -0.5363  0.0385 -0.0023
    1C        C  557   2.703   4.126   4.120 -0.3013  0.3904 -0.2494
    1C        C  558   2.595   3.945   4.244  0.6248 -0.1543  0.1484
    1C        C  559   2.657   4.072   4.242 -0.6666  0.4995 -0.3327
    1C        C  560   2.575   3.877   4.366 -0.2246  0.1706  0.2043
    1C        C  561   2.604   3.943   4.487  0.2075  0.1254  0.1303
    1C        C  562   2.538   3.744   4.616 -0.7524  0.1182 -0.2091
    1C        C  563   2.570   3.882   4.610 -1.0958  0.2018 -0.1777
    1C        C  564   2.522   3.679   4.739  0.2089 -0.1584 -0.2180
    1C        C  565   2.527   3.760   4.856  1.0601 -0.2205 -0.2053
    1C        C  566   2.543   3.548   4.978  0.1154  0.0496 -0.1351
    1C        C  567   2.536   3.687   4.975 -0.6721  0.0213  0.1036
    1C        C  568   3.328   4.472   2.038  0.0811 -0.2027  0.0538
    1C        C  569   3.398   4.504   2.156 -0.2721  0.1276  0.1761
    1C        C  570   3.188   4.469   2.280 -0.3292  0.4142  0.1248
    1C        C  571   3.326   4.501   2.278 -0.2781  0.1997  0.1746
    1C        C  572   3.120   4.452   2.402  0.1269  0.3253  0.3675
    1C        C  573   3.187   4.477   2.524  0.2309 -0.5173  0.4904
    1C        C  574   2.993   4.395   2.645 -0.2206 -0.1325 -0.0996
    1C        C  575   3.117   4.462   2.646 -0.3583  0.1239  0.2372
    1C        C  576   2.931   4.361   2.768  0.3743 -0.5764  0.0773
    1C        C  577   2.997   4.390   2.889  0.4403 -0.9841  0.1426
    1C        C  578   2.823   4.276   3.016  0.1379 -0.4435 -0.2255
    1C        C  579   2.938   4.358   3.013  0.0993 -0.3776  0.1400
    1C        C  580   2.776   4.224   3.138  0.0318 -0.0912 -0.1164
    1C        C  581   2.829   4.275   3.258  0.4920  0.1124 -0.4033
    1C        C  582   2.696   4.116   3.388 -0.3812  0.3695  0.0416
    1C        C  583   2.784   4.227   3.383  0.1854 -0.1030 -0.5950
    1C        C  584   2.665   4.055   3.511 -0.4904  0.2435 -0.0470
    1C        C  585   2.702   4.119   3.632  0.2580 -0.3004  0.0222
    1C        C  586   2.598   3.937   3.757 -0.3356  0.1943  0.0754
    1C        C  587   2.659   4.064   3.755  0.0393  0.0201  0.0931
    1C        C  588   2.572   3.873   3.880 -0.4274  0.2136  0.0696
    1C        C  589   2.606   3.936   4.001 -0.5928  0.0634  0.2011
    1C        C  590   2.541   3.737   4.127  0.5515 -0.3738 -0.1252
    1C        C  591   2.574   3.874   4.124  0.4045 -0.3236  0.2812
    1C        C  592   2.530   3.668   4.249  0.0748 -0.1220 -0.0155
    1C        C  593   2.539   3.740   4.370 -0.1906  0.1468 -0.1522
    1C        C  594   2.521   3.533   4.497  0.3370 -0.0076 -0.1436
    1C        C  595   2.527   3.674   4.494 -0.1133  0.0147 -0.2125
    1C        C  596   2.526   3.464   4.620  0.3961 -0.0334 -0.1593
    1C        C  597   2.519   3.536   4.741  0.0669 -0.1552 -0.1041
    1C        C  598   2.536   3.327   4.862  0.9837 -0.0159  0.2014
    1C        C  599   2.527   3.468   4.864  0.1008 -0.0619 -0.0547
    1C        C  600   2.528   3.247   4.977  0.2312  0.0271  0.1808
    1C        C  601   3.192   4.447   2.043  0.1257 -0.5083 -0.2120
    1C        C  602   2.981   4.396   2.161  0.0379  0.8898  0.6390
    1C        C  603   3.116   4.444   2.160  0.0450  0.8738 -0.2034
    1C        C  604   2.925   4.355   2.285 -0.2762 -0.0317  0.2042
    1C        C  605   2.991   4.394   2.404 -0.0976  0.8030 -0.1622
    1C        C  606   2.822   4.268   2.528 -0.0221  0.5954 -0.1351
    1C        C  607   2.926   4.363   2.525 -0.4967  1.1150 -0.2938
    1C        C  608   2.779   4.212   2.650  0.2539 -0.2166 -0.4016
    1C        C  609   2.825   4.268   2.771 -0.1267 -0.0273 -0.3409
    1C        C  610   2.687   4.112   2.898 -0.5556  0.4207  0.2207
    1C        C  611   2.774   4.223   2.895 -0.3385  0.2338 -0.3333
    1C        C  612   2.648   4.054   3.021 -0.7978  0.1596  0.0219
    1C        C  613   2.686   4.115   3.143 -0.1649  0.0689 -0.1282
    1C        C  614   2.590   3.931   3.270  0.1685  0.0550  0.1421
    1C        C  615   2.652   4.058   3.267  0.3584 -0.0401 -0.0323
    1C        C  616   2.570   3.866   3.393 -0.0091  0.3134  0.2509
    1C        C  617   2.603   3.928   3.515 -0.1028  0.0626  0.4073
    1C        C  618   2.538   3.728   3.642  0.1908 -0.3197 -0.1986
    1C        C  619   2.581   3.863   3.639 -0.4896 -0.0843  0.2669
    1C        C  620   2.522   3.662   3.765 -0.2047  0.2107  0.0396
    1C        C  621   2.544   3.734   3.885 -0.6965  0.2628  0.1080
    1C        C  622   2.518   3.524   4.010  0.5051 -0.3094 -0.0824
    1C        C  623   2.525   3.665   4.006 -0.1984 -0.2654 -0.1029
    1C        C  624   2.522   3.454   4.132 -0.0349 -0.3802 -0.0963
    1C        C  625   2.525   3.527   4.254 -0.0503 -0.1286 -0.2415
    1C        C  626   2.546   3.318   4.379  0.2775  0.0403  0.1986
    1C        C  627   2.528   3.458   4.377 -0.1275 -0.0141 -0.1721
    1C        C  628   2.558   3.251   4.503  0.2228 -0.1886  0.0814
    1C        C  629   2.543   3.324   4.623  0.3275 -0.0390  0.0040
    1C        C  630   2.611   3.121   4.745  0.0425 -0.0807  0.1515
    1C        C  631   2.562   3.254   4.744 -0.0034 -0.0983  0.0252
    1C        C  632   2.620   3.049   4.867 -0.5068 -0.4887 -0.0440
    1C        C  633   2.554   3.109   4.978 -0.3529 -0.0895 -0.1680
    1C        C  634   2.780   4.305   2.056  0.0582  0.0854  0.4586
    1C        C  635   2.887   4.396   2.052  0.0859  0.0592  0.5967
    1C        C  636   2.749   4.228   2.169 -0.6466  0.0850  0.2698
    1C        C  637   2.815   4.265   2.288 -0.3867  0.0977  0.1236
    1C        C  638   2.674   4.108   2.410 -0.2388  0.1467 -0.1207
    1C        C  639   2.763   4.217   2.410 -0.4090  0.2853  0.1880
    1C        C  640   2.645   4.044   2.532  0.1708  0.0427 -0.0754
    1C        C  641   2.690   4.102   2.653 -0.0617  0.0467  0.0101
    1C        C  642   2.588   3.922   2.778 -0.2530  0.4132  0.2226
    1C        C  643   2.650   4.049   2.777 -0.0997  0.3381  0.1256
    1C        C  644   2.566   3.860   2.903  0.1190  0.0602  0.1139
    1C        C  645   2.595   3.923   3.026 -0.2613 -0.0519  0.2647
    1C        C  646   2.539   3.722   3.151  0.6199 -0.2754 -0.1578
    1C        C  647   2.572   3.860   3.150 -0.1325 -0.0882  0.2720
    1C        C  648   2.516   3.659   3.275  0.4553 -0.3686 -0.2339
    1C        C  649   2.532   3.730   3.395 -0.1954  0.3433 -0.5532
    1C        C  650   2.519   3.520   3.523 -0.2882  0.3596  0.0693
    1C        C  651   2.528   3.660   3.518  0.0676  0.3243 -0.5509
    1C        C  652   2.520   3.450   3.646 -0.3168  0.1805 -0.0283
    1C        C  653   2.519   3.521   3.767 -0.2449  0.2060 -0.0386
    1C        C  654   2.540   3.312   3.891  0.1694 -0.1339 -0.2027
    1C        C  655   2.515   3.451   3.890  0.2453 -0.1165 -0.2012
    1C        C  656   2.562   3.245   4.014  0.2608 -0.0279 -0.1556
    1C        C  657   2.544   3.315   4.135  0.1846 -0.3484  0.0247
    1C        C  658   2.603   3.113   4.258  0.5107  0.0950 -0.1439
    1C        C  659   2.562   3.248   4.258 -0.1844 -0.1078  0.2174
    1C        C  660   2.632   3.050   4.381  0.2582 -0.3789 -0.3230
    1C        C  661   2.603   3.117   4.502  0.4212 -0.1226 -0.4229
    1C        C  662   2.716   2.937   4.629  0.2215  0.4425  0.6514
    1C        C  663   2.635   3.052   4.623  0.1721  0.3791 -0.0856
    1C        C  664   2.749   2.873   4.750 -0.1439 -0.4829  0.2737
    1C        C  665   2.700   2.930   4.871 -0.6581 -0.5856  0.1120
    1C        C  666   2.743   2.861   4.985 -0.2778 -0.4367  0.0575
    1C        C  667   2.673   4.024   2.054  0.1030  0.2964 -0.6261
    1C        C  668   2.680   4.105   2.168 -0.2966 -0.1127 -0.3059
    1C        C  669   2.578   3.917   2.289  0.1779 -0.0274  0.0245
    1C        C  670   2.634   4.047   2.288 -0.1416  0.1134 -0.1380
    1C        C  671   2.558   3.850   2.412 -0.4923  0.2624  0.0831
    1C        C  672   2.591   3.914   2.533 -0.1278  0.1675  0.0385
    1C        C  673   2.526   3.717   2.661 -0.4624  0.5199  0.0300
    1C        C  674   2.562   3.853   2.657 -0.0824  0.4252  0.1779
    1C        C  675   2.524   3.649   2.785  0.0247 -0.3249 -0.4190
    1C        C  676   2.538   3.722   2.905  0.5328 -0.0426 -0.6434
    1C        C  677   2.514   3.514   3.034 -0.0758  0.3350  0.0322
    1C        C  678   2.523   3.654   3.028  0.5567  0.2797 -0.4619
    1C        C  679   2.517   3.447   3.158  0.0466 -0.0447 -0.1700
    1C        C  680   2.511   3.518   3.280  0.7541 -0.3704  0.0596
    1C        C  681   2.544   3.309   3.401 -0.2652 -0.1376  0.0222
    1C        C  682   2.516   3.447   3.402  0.2319 -0.0323  0.2813
    1C        C  683   2.564   3.243   3.524  0.0603  0.1685  0.1360
    1C        C  684   2.541   3.310   3.646 -0.0602  0.2170  0.0905
    1C        C  685   2.608   3.111   3.771 -0.0036 -0.2587  0.1647
    1C        C  686   2.561   3.244   3.769 -0.0180 -0.2625 -0.1678
    1C        C  687   2.638   3.047   3.893 -0.4167 -0.3995  0.1984
    1C        C  688   2.612   3.113   4.016 -0.1279 -0.1773  0.1460
    1C        C  689   2.710   2.926   4.137  0.3600 -0.2421 -0.3870
    1C        C  690   2.632   3.045   4.138  0.2701 -0.2995  0.0171
    1C        C  691   2.751   2.873   4.261  0.0037 -0.1926 -0.2437
    1C        C  692   2.711   2.934   4.382  0.2105 -0.4106 -0.0650
    1C        C  693   2.758   2.882   4.505 -0.6116  0.1468  0.4946
    1C        C  694   2.637   3.889   2.062 -0.1216  0.4149  0.4978
    1C        C  695   2.523   3.703   2.174  0.5381 -0.5197  0.4402
    1C        C  696   2.576   3.834   2.175  0.0278 -0.3109  0.2332
    1C        C  697   2.512   3.639   2.299  0.3311 -0.2781  0.5457
    1C        C  698   2.522   3.714   2.418  0.3919  0.0327  0.3471
    1C        C  699   2.494   3.504   2.547  0.6736 -0.1340 -0.1648
    1C        C  700   2.510   3.645   2.541  0.2371 -0.0621  0.2785
    1C        C  701   2.503   3.436   2.670  0.0638  0.0597 -0.0063
    1C        C  702   2.519   3.508   2.790  0.4593 -0.3219  0.1718
    1C        C  703   2.531   3.300   2.913  0.2323 -0.0379  0.5181
    1C        C  704   2.510   3.440   2.914 -0.0191 -0.0732  0.2792
    1C        C  705   2.555   3.237   3.038 -0.2192 -0.5873  0.3305
    1C        C  706   2.535   3.307   3.159  0.3830 -0.0030  0.0957
    1C        C  707   2.604   3.105   3.282  0.0178 -0.1447 -0.0740
    1C        C  708   2.555   3.238   3.280 -0.1772 -0.2128  0.0726
    1C        C  709   2.639   3.044   3.404  0.2117  0.1716  0.0312
    1C        C  710   2.613   3.110   3.526 -0.2264  0.0598  0.0011
    1C        C  711   2.716   2.928   3.649  0.1168  0.2304 -0.2151
    1C        C  712   2.641   3.047   3.649 -0.4339 -0.1081 -0.0351
    1C        C  713   2.748   2.866   3.772  0.0226 -0.2908 -0.4450
    1C        C  714   2.710   2.926   3.894 -0.0617 -0.2048 -0.5113
    1C        C  715   2.751   2.867   4.016  0.1299 -0.1183 -0.5302
    1C        C  716   2.436   3.503   2.068  0.4801  0.0738 -0.6288
    1C        C  717   2.486   3.634   2.058  0.1088  0.2749  0.0983
    1C        C  718   2.462   3.425   2.185  0.1054  0.1802 -0.4759
    1C        C  719   2.488   3.499   2.303 -0.1553 -0.2180 -0.1659
    1C        C  720   2.517   3.292   2.427  0.5633 -0.1194 -0.1566
    1C        C  721   2.490   3.430   2.427  0.3676 -0.1587 -0.1420
    1C        C  722   2.539   3.226   2.550 -0.0890  0.0630  0.0561
    1C        C  723   2.528   3.297   2.671 -0.0705  0.0367  0.0725
    1C        C  724   2.602   3.098   2.794  0.1361  0.4055 -0.1415
    1C        C  725   2.549   3.229   2.793  0.0692  0.3809  0.2440
    1C        C  726   2.632   3.037   2.917  0.3020  0.0725 -0.3458
    1C        C  727   2.607   3.106   3.038 -0.0850 -0.5363 -0.0716
    1C        C  728   2.701   2.916   3.160 -0.2383 -0.4833  0.1468
    1C        C  729   2.637   3.042   3.160  0.7135  0.0067  0.0283
    1C        C  730   2.746   2.862   3.282 -0.1940 -0.3130  0.2036
    1C        C  731   2.704   2.919   3.405 -0.2376 -0.0640  0.0743
    1C        C  732   2.758   2.871   3.527  0.5534  0.3320 -0.1143
    1C        C  733   2.499   3.204   2.070 -0.0532  0.4082 -0.5070
    1C        C  734   2.496   3.286   2.184  0.4616  0.2670 -0.3907
    1C        C  735   2.585   3.089   2.309 -0.5373 -0.1179  0.0988
    1C        C  736   2.533   3.221   2.305  0.0778  0.1133 -0.3543
    1C        C  737   2.616   3.024   2.430 -0.2878 -0.2002 -0.0124
    1C        C  738   2.587   3.093   2.549 -0.7404 -0.1772 -0.1359
    1C        C  739   2.693   2.909   2.671 -0.2658  0.2140 -0.1787
    1C        C  740   2.624   3.031   2.671 -0.5086  0.0733 -0.0794
    1C        C  741   2.737   2.855   2.794 -0.5121  0.1165 -0.1363
    1C        C  742   2.699   2.913   2.917 -0.5567 -0.4021  0.0911
    1C        C  743   2.748   2.861   3.039 -0.3112 -0.2988  0.0362
    1C        C  744   2.550   3.075   2.075  0.1515  0.5111  0.1692
    1C        C  745   2.692   2.905   2.186 -0.0281  0.1131 -0.0223
    1C        C  746   2.613   3.021   2.189 -0.1420  0.0311  0.1073
    1C        C  747   2.736   2.846   2.306  0.2373  0.1330 -0.1092
    1C        C  748   2.692   2.905   2.427 -0.1233 -0.0903 -0.1329
    1C        C  749   2.736   2.850   2.549 -0.3604 -0.1051 -0.0561
    1C        C  750   2.744   2.847   2.069  0.6675  0.1052  0.2837
    1C        C  751   3.660   2.302   2.002  0.6946 -0.0781  0.2030
    1C        O  752   3.678   2.184   2.042 -0.3769 -0.2385  0.2600
    1C        O  753   3.640   2.302   1.863  0.1012 -0.3014  0.2832
    1C        C  754   4.647   3.066   1.999  0.0428  0.1121  0.0793
    1C        O  755   4.632   3.008   1.888 -0.4216  0.4156 -0.0185
    1C        O  756   4.740   2.996   2.077 -0.0789  0.4075  0.4932
    1C        C  757   4.461   4.225   1.975  0.2510  0.1353 -0.0844
    1C        O  758   4.550   4.298   2.026  0.2453  0.3225 -0.3432
    1C        O  759   4.417   4.238   1.843  0.2727 -0.4417 -0.1515
    1C        C  760   3.569   4.619   1.918 -0.2228 -0.1503  0.0027
    1C        O  761   3.493   4.718   1.931  0.4918  0.4131 -0.0176
    1C        O  762   3.532   4.570   1.793 -0.6020 -0.7836  0.3602
    1C        C  763   2.860   4.522   1.981  0.3246 -0.2072  0.0247
    1C        O  764   2.928   4.553   1.880  0.3764 -0.1080  0.0894
    1C        O  765   2.818   4.637   2.050  0.3912 -0.2237  0.0922
    1C        C  766   2.312   3.478   1.991 -0.0464 -0.2784  0.3193
    1C        O  767   2.329   3.442   1.871 -0.0753 -0.3223  0.3289
    1C        O  768   2.201   3.562   2.006 -0.1313 -0.4122  0.4361
    1C        C  769   4.682   3.586   5.069 -0.2298 -0.1546  0.1231
    1C        O  770   4.638   3.586   5.187 -0.4592  0.0834  0.0372
    1C        O  771   4.820   3.603   5.053 -0.2326  0.2796  0.5441
    1C        C  772   4.250   4.403   5.071  0.3587 -0.1269  0.4126
    1C        O  773   4.225   4.371   5.190 -0.7346 -0.0301  0.2276
    1C        O  774   4.341   4.509   5.076  0.2342  0.0066 -0.1033
    1C        C  775   4.152   2.522   5.061  0.0052  0.1084  0.0594
    1C        O  776   4.232   2.432   5.026  0.1597  0.4895 -0.5686
    1C        O  777   4.181   2.567   5.191 -0.0258  0.0485  0.0872
    1C        C  778   2.899   4.538   5.059 -0.1914  0.4767 -0.1539
    1C        O  779   2.838   4.647   5.042  0.3543  0.8226  0.0965
    1C        O  780   2.950   4.515   5.187  0.2665 -0.4797 -0.4925
    1C        C  781   2.500   3.043   5.099 -0.0413 -0.2956 -0.1409
    1C        O  782   2.540   3.086   5.211  0.2780 -0.0157 -0.3608
    1C        O  783   2.430   2.923   5.102 -0.1430 -0.2295  0.2672
    1C        C  784   2.410   3.994   5.044  0.0896 -0.5126 -0.1732
    1C        O  785   2.293   4.004   4.998  0.0629 -0.7091 -0.1475
    1C        O  786   2.413   4.060   5.168 -0.1996 -0.8354  0.0043
    1C        C  787   2.963   2.402   2.020  0.5510 -0.0136 -0.8035
    1C        O  788   2.890   2.415   1.918 -0.5412  0.0150 -0.0381
    1C        O  789   2.923   2.296   2.101  0.4693  0.2443 -0.5025
    1C        C  790   3.194   2.386   5.083  0.0033  0.0054 -0.1727
    1C        O  791   3.199   2.264   5.051 -0.3206  0.0466 -0.3912
    1C        O  792   3.189   2.417   5.219 -0.4447  0.3924 -0.2755
    1C        H  793   4.323   3.003   5.072  0.3573  0.8885 -0.0916
    1C        H  794   4.151   2.835   5.065 -0.0173 -0.1829  0.2910
    1C        H  795   4.474   3.136   5.067  0.2325  0.0056 -0.2287
    1C        H  796   4.496   3.364   5.070 -0.9815  0.0957  0.1408
    1C        H  797   4.539   3.806   5.052 -3.4185 -0.8071 -0.2528
    1C        H  798   4.444   3.998   5.049 -0.4351 -0.2706  0.3273
    1C        H  799   4.235   4.136   5.033  0.3238  0.1016  0.1974
    1C        H  800   4.046   4.558   5.019  0.1148  0.6428 -1.1691
    1C        H  801   3.810   4.579   5.046  0.7166  1.0898 -0.1211
    1C        H  802   3.579   4.667   5.023 -1.4675 -2.5210  1.6784
    1C        H  803   3.394   4.494   5.049 -2.1305  0.8000  1.3382
    1C        H  804   3.168   4.459   5.051 -0.9965  0.7153 -0.7973
    1C        H  805   3.890   2.487   5.070  0.0673 -0.4108  0.6368
    1C        H  806   3.674   2.461   5.075 -0.6927  1.3425  0.1805
    1C        H  807   2.980   2.530   5.048 -0.1775 -1.9687 -0.3137
    1C        H  808   3.439   2.491   5.080 -2.4101  1.8178 -1.3093
    1C        H  809   2.874   2.732   5.084  0.4879 -0.2736 -0.0488
    1C        H  810   2.668   2.843   5.059  0.6559 -0.6838  0.9695
    1C        H  811   2.504   3.297   5.068  1.2828 -1.1321  1.1373
    1C        H  812   2.544   3.499   5.073 -1.1342 -0.7862 -0.5167
    1C        H  813   2.590   3.740   5.050  0.6713 -0.9662 -0.1299
    1C        H  814   2.550   4.198   5.013  0.5365  0.3064  0.1974
    1C        H  815   2.790   4.290   5.049  0.0110 -1.4310 -0.7979
    1C        H  816   2.705   2.880   1.975 -0.7725 -0.8267  0.5236
    1C        H  817   2.832   2.677   1.981 -1.4504  0.3715 -0.5909
    1C        H  818   3.209   2.416   1.994 -1.0460 -0.3879 -0.4598
    1C        H  819   3.428   2.452   1.978 -0.5775  0.4623  0.4726
    1C        H  820   3.871   2.503   1.969 -0.5564  2.1331 -1.0348
    1C        H  821   4.069   2.627   1.972 -1.2947  0.2432 -0.5462
    1C        H  822   4.187   2.786   1.984 -0.7955 -1.5580  0.6444
    1C        H  823   4.388   2.920   1.968  0.1060 -0.7964  0.0266
    1C        H  824   4.578   3.311   1.967 -2.4007  0.2379 -1.3103
    1C        H  825   4.580   3.526   1.966 -1.4789 -0.6302 -0.8867
    1C        H  826   4.531   3.755   1.963  0.1686  0.3778 -0.0056
    1C        H  827   3.804   4.534   1.951 -0.7059  2.9561  0.4362
    1C        H  828   3.937   4.333   1.958  1.4616  1.0709 -1.6605
    1C        H  829   4.185   4.293   1.958  0.5367 -1.2281  0.8177
    1C        H  830   4.518   3.977   1.972  0.7804  0.2645  0.4500
    1C        H  831   2.686   3.823   1.992  0.2589  0.8082  0.3897
    1C        H  832   2.673   4.069   1.957 -0.6953  0.3004 -0.6348
    1C        H  833   2.731   4.283   1.964 -1.3692  0.7718  1.0302
    1C        H  834   3.383   4.399   1.981 -0.5505 -1.2914  0.7882
    1C        H  835   3.144   4.431   1.949  0.8136  2.5409 -1.2145
    1C        H  836   2.515   3.009   1.998  0.2596  0.3196  0.2825
    1C        H  837   2.466   3.241   1.975  0.3858  0.6858 -0.5512
    1C        H  838   2.470   3.687   1.966 -0.6774  0.3276  0.2580
    2V3OU   H29  839   2.815   3.550   0.999 -1.8484  3.8962  1.7285
    2V3OU   C27  840   2.783   3.498   1.093 -0.4157 -0.2492  0.1709
    2V3OU   H27  841   2.725   3.562   1.164  2.0907 -0.1716  2.3196
    2V3OU   H28  842   2.731   3.402   1.072 -2.4008  0.0330  3.1949
    2V3OU   O11  843   2.907   3.481   1.162 -0.3265  0.1464  0.1106
    2V3OU   C15  844   2.921   3.397   1.270  0.2457  0.2994  0.1571
    2V3OU   C13  845   3.053   3.374   1.316  0.1786  0.0993  0.2466
    2V3OU   C14  846   3.075   3.267   1.404  0.4610  0.0613  0.1287
    2V3OU   C16  847   2.975   3.182   1.449  0.6144 -0.1734  0.0257
    2V3OU    H6  848   2.998   3.102   1.522  0.1839 -0.1372  0.2022
    2V3OU   C12  849   3.213   3.230   1.443  0.4267 -0.2927 -0.0834
    2V3OU    O2  850   3.241   3.120   1.495 -0.3692 -0.5877 -0.2682
    2V3OU   C10  851   3.325   3.311   1.393  0.2707 -0.0870 -0.1007
    2V3OU    C8  852   3.456   3.266   1.413  0.0087 -0.9085 -0.1808
    2V3OU   O10  853   3.486   3.149   1.475 -0.5813 -0.9232  0.0903
    2V3OU   H26  854   3.404   3.118   1.516 -0.5578  0.2816  1.1330
    2V3OU    C6  855   3.563   3.347   1.363 -0.2512 -0.3468  0.1530
    2V3OU    C5  856   3.538   3.464   1.294 -0.1744 -0.4779 -0.1005
    2V3OU    C4  857   3.703   3.295   1.368 -0.1377 -0.0074  0.5249
    2V3OU    H4  858   3.716   3.221   1.452 -0.2201 -0.1386  0.4225
    2V3OU    H5  859   3.719   3.231   1.277 -0.2042  0.9825 -0.1897
    2V3OU    C2  860   3.817   3.396   1.379  0.0710 -0.2038  0.1543
    2V3OU    O6  861   3.814   3.473   1.499  0.8247 -0.4291  0.3276
    2V3OU   H21  862   3.764   3.548   1.463  0.6489 -1.3579 -1.4838
    2V3OU    C3  863   3.783   3.496   1.268 -0.6547 -0.5775  0.0380
    2V3OU    H2  864   3.854   3.582   1.271 -2.2774  0.8136  0.3370
    2V3OU    H3  865   3.791   3.440   1.171  1.1816  1.9518 -1.3787
    2V3OU   C25  866   3.953   3.327   1.366 -0.2524 -0.8249  0.0125
    2V3OU    O7  867   3.999   3.294   1.256 -0.1728  0.0877 -0.2352
    2V3OU   C26  868   4.034   3.288   1.489 -0.1751  0.5860  0.4269
    2V3OU   H22  869   4.065   3.381   1.543 -1.8263  0.2566  2.0303
    2V3OU   H23  870   4.126   3.231   1.458  0.9006  2.0450  0.8216
    2V3OU    O8  871   3.962   3.210   1.582  0.0785  0.0343  0.1693
    2V3OU   H24  872   3.924   3.264   1.653 -1.3747 -1.0018  0.2082
    2V3OU    C1  873   3.648   3.565   1.276 -0.3520 -0.0802  0.9739
    2V3OU    H1  874   3.633   3.621   1.179 -0.0069 -0.3216  0.7807
    2V3OU    O3  875   3.655   3.649   1.392  0.1701  0.2388  0.7142
    2V3OU   C19  876   3.617   3.787   1.382 -0.5359 -0.0280 -0.5336
    2V3OU    H9  877   3.523   3.797   1.320 -1.1624  0.1796  0.4349
    2V3OU    O4  878   3.716   3.844   1.299  0.2677 -0.0174  0.4147
    2V3OU   C20  879   3.849   3.879   1.339  0.4039  0.3242 -0.3085
    2V3OU   H10  880   3.901   3.780   1.355 -1.5320 -0.6398  0.4383
    2V3OU   C24  881   3.606   3.861   1.515 -0.1395 -0.3832 -0.2994
    2V3OU   H16  882   3.540   3.801   1.582 -1.5077  0.4100 -0.8936
    2V3OU   H17  883   3.557   3.959   1.493 -0.0491 -0.3002 -0.1322
    2V3OU   C23  884   3.748   3.876   1.570 -0.2352  0.2304 -0.2104
    2V3OU   H15  885   3.787   3.771   1.595 -1.4799  0.1032  1.4040
    2V3OU    N1  886   3.738   3.955   1.691 -0.5142  0.0328 -0.1023
    2V3OU   H19  887   3.803   3.920   1.759 -2.9552 -0.7632  2.0072
    2V3OU   H20  888   3.647   3.925   1.720  0.2885 -2.9160 -0.3019
    2V3OU   C21  889   3.853   3.944   1.477 -0.1445  0.1162 -0.1917
    2V3OU   H11  890   3.951   3.928   1.531 -0.9448 -2.2277  0.7251
    2V3OU    O5  891   3.830   4.084   1.464 -0.4644  0.1008  0.1672
    2V3OU   H18  892   3.780   4.106   1.544  0.9109  2.4858  0.4498
    2V3OU   C22  893   3.917   3.952   1.225  0.2058  0.2175 -0.4948
    2V3OU   H12  894   3.862   4.047   1.205 -0.8552 -0.0525  0.9820
    2V3OU   H13  895   3.905   3.890   1.132  0.9024 -0.6070 -0.0491
    2V3OU   H14  896   4.026   3.961   1.247 -0.0071 -1.7994  1.8416
    2V3OU   C11  897   3.160   3.474   1.307  0.0674  0.1933 -0.0218
    2V3OU    O1  898   3.131   3.586   1.261 -0.4450  0.2423  0.4161
    2V3OU    C9  899   3.300   3.425   1.314 -0.0482 -0.1522 -0.0929
    2V3OU    C7  900   3.404   3.499   1.258 -0.0954  0.0832  0.1290
    2V3OU    O9  901   3.387   3.608   1.176  0.1379  0.3555  0.4416
    2V3OU   H25  902   3.292   3.627   1.180 -0.0145 -0.4597  0.7687
    2V3OU   C17  903   2.822   3.315   1.327  0.1565  0.1396 -0.2244
    2V3OU    H7  904   2.718   3.342   1.310 -0.0706 -0.6534 -0.1205
    2V3OU   C18  905   2.844   3.208   1.413  0.6936  0.6660  0.3128
    2V3OU    H8  906   2.758   3.148   1.448  0.9403 -0.1610 -0.4452
    3SOL     OW  907   5.642   5.276   2.457 -0.0292 -0.0701 -0.6957
    3SOL    HW1  908   5.569   5.314   2.514  0.2773 -0.3956 -0.0759
    3SOL    HW2  909   5.731   5.305   2.493  0.1511  0.6382 -1.6711
    4SOL     OW  910   5.711   1.750   3.283  0.0778  0.0093 -0.1747
    4SOL    HW1  911   5.783   1.770   3.350  0.4390 -0.9053 -0.2679
    4SOL    HW2  912   5.639   1.695   3.327 -0.0736  0.0804 -0.3332
    5SOL     OW  913   1.770   2.125   4.629 -0.0047 -0.0158 -0.0675
    5SOL    HW1  914   1.684   2.134   4.580 -0.0243  0.4704  0.0405
    5SOL    HW2  915   1.834   2.195   4.596 -0.0638  0.4051  0.6701
    6SOL     OW  916   4.146   0.246   6.827  0.8256 -0.0901 -0.2595
    6SOL    HW1  917   4.072   0.187   6.794 -0.0514  0.5877  0.4521
    6SOL    HW2  918   4.226   0.236   6.768  0.5802 -1.7301 -0.3511
    7SOL     OW  919   6.434   3.528   4.556 -0.3185  0.2009  0.1886
    7SOL    HW1  920   6.491   3.550   4.635 -0.7671 -0.0874  0.6029
    7SOL    HW2  921   6.438   3.603   4.490  0.3120  0.3045  0.3383
    8SOL     OW  922   1.131   0.740   4.103  0.1792  0.2868 -0.1026
    8SOL    HW1  923   1.219   0.717   4.062  0.2586 -0.6361  0.5618
    8SOL    HW2  924   1.087   0.657   4.136 -0.9333  0.7415 -0.4010
    9SOL     OW  925   5.632   4.249   3.865 -0.0601  0.4960  0.6206
    9SOL    HW1  926   5.657   4.237   3.769  1.6463 -0.1850  1.1102
    9SOL    HW2  927   5.643   4.345   3.890 -0.1025  0.5987  0.2562
   10SOL     OW  928   0.680   3.403   4.074  0.8021  0.1797  0.7562
   10SOL    HW1  929   0.723   3.313   4.084  1.9519  0.5079 -0.9108
   10SOL    HW2  930   0.743   3.465   4.027 -1.0333  1.0513 -0.6774
   11SOL     OW  931   2.444   5.205   0.040  0.1938 -0.1911  0.5595
   11SOL    HW1  932   2.437   5.123   0.096 -1.2910 -0.2177  0.3638
   11SOL    HW2  933   2.540   5.221   0.018  0.7255 -0.6993  2.3114
   12SOL     OW  934   4.102   6.999   5.205  0.1485 -0.8583 -0.1865
   12SOL    HW1  935   4.023   6.986   5.145  0.1623  0.0368 -0.4270
   12SOL    HW2  936   4.171   6.929   5.185  0.3232 -0.3480 -1.5248
   13SOL     OW  937   3.174   6.918   4.660  0.2456  0.2049  0.4201
   13SOL    HW1  938   3.145   6.980   4.733 -1.6940 -0.4894  0.2851
   13SOL    HW2  939   3.156   6.824   4.687  0.7670 -0.1519 -0.4247
   14SOL     OW  940   2.894   2.042   4.554  0.5696 -0.0562 -0.2066
   14SOL    HW1  941   2.907   2.107   4.629  0.5485 -1.0551  0.6795
   14SOL    HW2  942   2.975   1.983   4.547 -0.1127 -1.0437  0.1034
   15SOL     OW  943   1.742   0.135   3.018 -0.2111 -0.3248  0.8416
   15SOL    HW1  944   1.713   0.043   3.045  0.9104 -0.3392  2.0731
   15SOL    HW2  945   1.731   0.146   2.919 -1.9249 -1.1945  0.9013
   16SOL     OW  946   1.819   6.163   5.095 -0.5384 -0.3451  0.0927
   16SOL    HW1  947   1.918   6.173   5.097 -0.5830  1.2765 -2.0260
   16SOL    HW2  948   1.796   6.069   5.067  0.3095 -1.1986  2.0766
   17SOL     OW  949   5.479   0.041   1.708  0.8029  0.2793  0.5937
   17SOL    HW1  950   5.394   0.009   1.750  0.4939 -0.9064 -0.8244
   17SOL    HW2  951   5.464   0.054   1.610  1.3876  3.3524  0.8313
   18SOL     OW  952   1.410   4.457   0.916  0.1895  0.0697 -0.4293
   18SOL    HW1  953   1.312   4.444   0.928  0.1211  0.2726 -0.7576
   18SOL    HW2  954   1.443   4.525   0.982  0.0453  0.2537 -0.5443
   19SOL     OW  955   4.801   3.999   4.889  0.2739 -0.1280 -0.1581
   19SOL    HW1  956   4.760   3.913   4.858 -1.4426  0.5407  0.1651
   19SOL    HW2  957   4.845   3.984   4.978  1.0676 -0.9277 -0.6578
   20SOL     OW  958   3.185   0.601   5.575 -0.2406  0.3459  0.5132
   20SOL    HW1  959   3.271   0.600   5.626 -0.4348 -0.5476  0.8575
   20SOL    HW2  960   3.158   0.695   5.556 -0.6465  0.7775  2.8986
   21SOL     OW  961   4.620   0.435   0.104  0.4261  0.6077  0.5649
   21SOL    HW1  962   4.578   0.475   0.185 -0.1648 -0.4885  0.8111
   21SOL    HW2  963   4.593   0.487   0.023 -1.2803  0.0267  0.7362
   22SOL     OW  964   4.206   0.357   1.469 -0.8112 -0.6619 -0.2143
   22SOL    HW1  965   4.279   0.290   1.460 -0.1978  0.2059 -2.0590
   22SOL    HW2  966   4.217   0.406   1.556  0.9047 -0.4388 -0.5267
   23SOL     OW  967   6.650   5.603   1.148 -0.0114 -0.2625  0.1137
   23SOL    HW1  968   6.729   5.659   1.125  0.6212 -1.0887  0.2154
   23SOL    HW2  969   6.609   5.636   1.234  0.4269 -0.0340  0.2343
   24SOL     OW  970   3.972   0.972   2.106  0.0722  0.5878  0.0828
   24SOL    HW1  971   4.042   1.003   2.042  1.4631 -0.4568  1.0207
   24SOL    HW2  972   3.988   1.013   2.196 -0.4146  0.2007  0.3564
   25SOL     OW  973   6.274   4.300   6.764 -0.8655 -0.1263  0.2648
   25SOL    HW1  974   6.324   4.242   6.828 -0.0653  1.6956  1.3726
   25SOL    HW2  975   6.285   4.265   6.671  0.0142 -1.4200  0.8336
   26SOL     OW  976   0.602   4.842   0.716 -0.1313  0.1824  0.1196
   26SOL    HW1  977   0.570   4.914   0.655  0.8145  1.4234  1.0574
   26SOL    HW2  978   0.547   4.841   0.799 -1.5634 -1.6537 -0.7765
   27SOL     OW  979   3.084   6.473   3.581 -0.1205 -0.0032 -0.2533
   27SOL    HW1  980   3.040   6.392   3.620 -1.8677  0.9645 -0.1040
   27SOL    HW2  981   3.079   6.549   3.647 -0.4993  0.8336 -1.2201
   28SOL     OW  982   6.443   6.786   3.253 -0.1501  0.0681 -0.1583
   28SOL    HW1  983   6.486   6.847   3.187  0.6598 -2.5214 -2.1936
   28SOL    HW2  984   6.494   6.788   3.339  1.9750 -0.3302 -1.3614
   29SOL     OW  985   5.698   4.460   0.927 -0.0196 -0.5372 -0.2370
   29SOL    HW1  986   5.697   4.550   0.969  0.1616 -0.6652  0.0395
   29SOL    HW2  987   5.789   4.421   0.933 -0.2445 -0.9999  0.1926
   30SOL     OW  988   5.396   5.113   2.164 -0.0506 -0.1945  0.0461
   30SOL    HW1  989   5.484   5.142   2.127  0.2460  3.9830  3.2623
   30SOL    HW2  990   5.407   5.084   2.259 -2.0212 -0.7552  0.1548
   31SOL     OW  991   0.127   0.613   3.018  0.3521  0.1343 -0.7454
   31SOL    HW1  992   0.222   0.591   2.996 -0.1939 -1.3940 -1.7325
   31SOL    HW2  993   0.097   0.558   3.096  1.0981  2.7373  1.5410
   32SOL     OW  994   3.127   0.382   6.899  0.1884  0.7940  0.2184
   32SOL    HW1  995   3.144   0.353   6.805  0.3476 -0.4139  0.6080
   32SOL    HW2  996   3.029   0.400   6.910  0.2768  1.7610 -0.3802
   33SOL     OW  997   1.871   1.203   1.898 -0.4396  0.3779 -0.5096
   33SOL    HW1  998   1.947   1.202   1.834 -0.2893 -5.1142 -0.6883
   33SOL    HW2  999   1.902   1.235   1.988  1.8240 -0.6577 -0.8711
   34SOL     OW 1000   2.220   2.573   5.545  0.1543  0.0551 -0.0973
   34SOL    HW1 1001   2.251   2.480   5.565 -0.4269 -0.0342  0.4427
   34SOL    HW2 1002   2.208   2.624   5.630 -1.8112 -0.1407 -0.1961
   35SOL     OW 1003   0.642   6.169   0.323 -0.2818  0.0629 -0.2611
   35SOL    HW1 1004   0.659   6.076   0.291 -0.4407 -0.8598  2.1009
   35SOL    HW2 1005   0.566   6.168   0.388 -0.1016  1.8096  0.0298
   36SOL     OW 1006   3.664   2.045   4.730 -0.3974 -0.0132 -0.5163
   36SOL    HW1 1007   3.689   1.949   4.723 -1.0156 -0.2278  0.2190
   36SOL    HW2 1008   3.591   2.057   4.797  0.1070  1.0488 -0.1233
   37SOL     OW 1009   5.532   1.690   2.191  0.0766  0.0647 -0.1747
   37SOL    HW1 1010   5.575   1.631   2.259 -0.6202  0.1825  0.3770
   37SOL    HW2 1011   5.577   1.779   2.190  2.0712 -0.8616 -1.9918
   38SOL     OW 1012   3.447   0.209   5.378  0.0243 -0.3940  0.8675
   38SOL    HW1 1013   3.527   0.149   5.378 -0.2747 -0.7938  0.8909
   38SOL    HW2 1014   3.412   0.218   5.285  1.9792  2.3327  0.2625
   39SOL     OW 1015   4.598   0.701   1.012 -0.4846 -0.0805  0.7418
   39SOL    HW1 1016   4.571   0.703   1.108 -1.2206 -2.0069  0.6183
   39SOL    HW2 1017   4.600   0.607   0.980 -2.2893  0.6084 -1.7119
   40SOL     OW 1018   0.854   4.740   0.700  0.2189  0.3438 -0.1373
   40SOL    HW1 1019   0.767   4.782   0.722 -0.0133  0.4110 -1.1373
   40SOL    HW2 1020   0.841   4.668   0.632  0.2935 -2.7992  2.8546
   41SOL     OW 1021   3.158   3.060   3.681  0.4310  0.1975  0.2574
   41SOL    HW1 1022   3.128   3.096   3.769  0.9111  2.0330 -0.2827
   41SOL    HW2 1023   3.098   3.094   3.608  0.8771 -0.1354 -0.2824
   42SOL     OW 1024   3.196   1.691   4.183  0.6888  0.6282 -0.1091
   42SOL    HW1 1025   3.150   1.779   4.170 -0.8803 -0.0556  0.5737
   42SOL    HW2 1026   3.281   1.705   4.233 -0.2579  1.6285  1.3048
   43SOL     OW 1027   5.664   0.277   5.300 -0.1978  0.1018 -0.1430
   43SOL    HW1 1028   5.565   0.282   5.316 -0.2271 -0.1374 -0.2385
   43SOL    HW2 1029   5.689   0.183   5.277  0.0284  0.1964 -0.2850
   44SOL     OW 1030   3.446   6.762   3.860 -0.2389 -0.5283  0.2094
   44SOL    HW1 1031   3.387   6.692   3.899  1.6780 -0.7760  2.9211
   44SOL    HW2 1032   3.438   6.846   3.913 -0.4215  0.4762 -1.3164
   45SOL     OW 1033   2.750   5.548   0.937 -0.4272  0.5116  0.4380
   45SOL    HW1 1034   2.673   5.535   1.000 -0.1963 -0.1709  0.5866
   45SOL    HW2 1035   2.739   5.636   0.889 -0.8122  0.8558  1.1319
   46SOL     OW 1036   2.139   1.165   4.389 -0.1869  0.4517 -0.1855
   46SOL    HW1 1037   2.234   1.191   4.371 -0.9733  2.2368 -2.2434
   46SOL    HW2 1038   2.117   1.181   4.485  1.6675 -0.3686  0.4144
   47SOL     OW 1039   4.177   0.324   0.648 -0.1289  0.6757 -0.0304
   47SOL    HW1 1040   4.127   0.409   0.630  0.9980  1.4976  0.6194
   47SOL    HW2 1041   4.271   0.333   0.614  0.4027  0.2037  1.2598
   48SOL     OW 1042   4.483   1.514   1.465 -0.2447  0.0364 -0.2159
   48SOL    HW1 1043   4.564   1.547   1.418 -0.0997  1.0615  0.7312
   48SOL    HW2 1044   4.409   1.502   1.399  0.6094 -0.7709 -1.0613
   49SOL     OW 1045   5.816   6.688   3.197 -0.0411 -0.2303  0.3510
   49SOL    HW1 1046   5.877   6.632   3.255 -0.4140 -1.1400 -0.1163
   49SOL    HW2 1047   5.786   6.634   3.118 -0.8402  0.4623  0.1665
   50SOL     OW 1048   6.896   5.740   1.129 -0.1782 -0.3860  0.2763
   50SOL    HW1 1049   6.940   5.823   1.164  0.0184  0.4480 -1.8036
   50SOL    HW2 1050   6.967   5.674   1.103 -0.2350 -0.2452 -0.2553
   51SOL     OW 1051   7.021   6.941   6.546 -0.1763  0.8894  0.3767
   51SOL    HW1 1052   6.960   6.877   6.500 -0.5900  0.5421  1.3894
   51SOL    HW2 1053   6.969   7.000   6.608  0.3384  1.4964  0.2502
   52SOL     OW 1054   1.667   3.311   5.131 -0.6793  0.3135  0.1246
   52SOL    HW1 1055   1.747   3.347   5.179  0.2483  1.7728 -2.3160
   52SOL    HW2 1056   1.685   3.215   5.105 -1.4661 -0.7238  3.0610
   53SOL     OW 1057   5.365   0.035   5.264  0.2122  0.2290  0.3154
   53SOL    HW1 1058   5.397  -0.013   5.345 -0.0543 -2.2270 -0.9511
   53SOL    HW2 1059   5.415   0.004   5.183 -0.5338  1.5117 -0.6987
   54SOL     OW 1060   1.417   5.062   4.400 -0.0634  0.7744  0.1147
   54SOL    HW1 1061   1.407   5.137   4.466  0.6730  0.2241  0.8699
   54SOL    HW2 1062   1.494   5.082   4.339  1.1586 -0.0923  1.3393
   55SOL     OW 1063   6.234   2.674   2.316 -0.3356 -0.0888 -0.8061
   55SOL    HW1 1064   6.228   2.577   2.339 -0.4812 -0.0163 -0.5249
   55SOL    HW2 1065   6.266   2.685   2.222  0.8471 -0.3872 -0.4476
   56SOL     OW 1066   3.930   1.911   0.007  0.4143  0.6161 -0.0835
   56SOL    HW1 1067   3.918   1.838   0.075 -2.1869  0.4822 -0.5913
   56SOL    HW2 1068   4.020   1.953   0.020  1.0194 -1.0557  1.7846
   57SOL     OW 1069   3.113   6.096   3.609 -0.1895  0.2792  0.0440
   57SOL    HW1 1070   3.134   6.192   3.624 -2.4343  0.9904 -0.8571
   57SOL    HW2 1071   3.109   6.078   3.510  0.2746 -0.7744  0.2000
   58SOL     OW 1072   1.807   5.075   7.002 -0.1220  0.1773 -0.3098
   58SOL    HW1 1073   1.723   5.090   6.949  0.0687  0.1978 -0.6109
   58SOL    HW2 1074   1.854   4.994   6.967 -0.4148 -0.2937  0.3728
   59SOL     OW 1075   4.951   4.379   5.033  0.3754 -0.4323  0.2044
   59SOL    HW1 1076   4.892   4.340   4.962 -0.5001  1.4277 -0.1650
   59SOL    HW2 1077   5.017   4.441   4.990  1.1246 -0.7561  0.8580
   60SOL     OW 1078   1.873   3.210   5.322  0.1088 -0.0429  0.3827
   60SOL    HW1 1079   1.880   3.111   5.322  0.6187 -0.0090  0.1968
   60SOL    HW2 1080   1.799   3.238   5.383  0.3749 -0.5056  0.9278
   61SOL     OW 1081   2.608   4.192   6.255  1.2356  0.4364  0.0522
   61SOL    HW1 1082   2.552   4.263   6.297 -0.0998 -0.4126 -0.2078
   61SOL    HW2 1083   2.643   4.130   6.325  0.2614 -0.1139  0.0658
   62SOL     OW 1084   5.623   2.604   2.941  0.0083 -0.1463 -0.1765
   62SOL    HW1 1085   5.555   2.583   3.010  0.5363 -0.4001  0.2751
   62SOL    HW2 1086   5.714   2.602   2.982  0.1643  2.5928 -0.1916
   63SOL     OW 1087   6.409   4.143   2.650 -0.0875  0.4440 -0.7280
   63SOL    HW1 1088   6.338   4.073   2.654 -2.5616  2.7490 -1.1862
   63SOL    HW2 1089   6.493   4.109   2.693 -1.2576 -2.6050 -0.6621
   64SOL     OW 1090   0.379   3.187   0.539 -0.2620  0.3106 -0.2065
   64SOL    HW1 1091   0.290   3.154   0.572 -0.5025  1.6327  0.5628
   64SOL    HW2 1092   0.377   3.192   0.439 -0.7596 -0.4615 -0.2419
   65SOL     OW 1093   4.565   0.373   6.212 -0.5064 -0.2996 -0.4043
   65SOL    HW1 1094   4.466   0.365   6.224 -0.2883 -1.0159  1.3361
   65SOL    HW2 1095   4.585   0.405   6.120 -2.4196  1.7785 -0.1947
   66SOL     OW 1096   5.808   2.428   5.213 -0.3598 -0.6544  0.2958
   66SOL    HW1 1097   5.720   2.437   5.167 -0.6313 -0.4889  0.8351
   66SOL    HW2 1098   5.880   2.472   5.158 -1.0391  1.5683  1.0807
   67SOL     OW 1099   0.258   3.743   4.296 -0.1025 -0.3270 -0.3950
   67SOL    HW1 1100   0.344   3.769   4.252 -0.7200  0.2755 -1.3036
   67SOL    HW2 1101   0.195   3.706   4.227 -1.5442  1.7786 -0.3208
   68SOL     OW 1102   5.358   4.866   2.626 -0.2318 -0.0766  0.2914
   68SOL    HW1 1103   5.407   4.782   2.602 -0.4865  0.2913 -1.6771
   68SOL    HW2 1104   5.260   4.852   2.615 -0.2971  0.3999  0.2697
   69SOL     OW 1105   6.861   6.018   1.714  0.3361 -0.1333 -0.1133
   69SOL    HW1 1106   6.923   5.975   1.647  1.5786  1.0472  0.2388
   69SOL    HW2 1107   6.904   6.018   1.804  0.5905  2.2212 -0.1852
   70SOL     OW 1108   6.916   4.531   6.720 -0.1144 -0.0383  0.9947
   70SOL    HW1 1109   6.832   4.495   6.760 -0.1595 -1.0673  0.0181
   70SOL    HW2 1110   6.977   4.563   6.792 -1.0416  0.0420  1.7485
   71SOL     OW 1111   5.415   5.848   6.044  0.0166  0.3516 -0.2919
   71SOL    HW1 1112   5.346   5.814   6.108 -1.1112 -0.5513 -1.9176
   71SOL    HW2 1113   5.422   5.947   6.052 -2.3527  0.6177 -0.8791
   72SOL     OW 1114   4.038   5.231   2.511  0.6056  0.1778  0.3854
   72SOL    HW1 1115   4.089   5.152   2.545  3.3922  1.6917  0.0930
   72SOL    HW2 1116   4.054   5.309   2.572 -3.9154  0.1395  1.9916
   73SOL     OW 1117   1.289   0.503   1.221 -0.1413  0.1932 -0.3683
   73SOL    HW1 1118   1.332   0.544   1.141 -0.8213  0.4620 -0.6053
   73SOL    HW2 1119   1.262   0.575   1.285  1.3611 -0.0779  0.6202
   74SOL     OW 1120   3.622   0.418   5.180  0.3013  0.1629  0.6227
   74SOL    HW1 1121   3.639   0.382   5.088  2.1367  0.6814  0.7234
   74SOL    HW2 1122   3.568   0.501   5.173  2.1725  1.3909 -0.2251
   75SOL     OW 1123   2.351   5.777   5.908 -0.2264  0.1766 -0.2331
   75SOL    HW1 1124   2.418   5.789   5.835 -0.3235  0.6959 -0.2404
   75SOL    HW2 1125   2.397   5.779   5.996 -0.0910 -0.5851 -0.2792
   76SOL     OW 1126   6.608   0.175   3.326  0.1697  0.2277 -0.2680
   76SOL    HW1 1127   6.619   0.204   3.231  1.7752  1.5583  0.2665
   76SOL    HW2 1128   6.605   0.076   3.331 -1.0120  0.1429 -1.7812
   77SOL     OW 1129   4.194   2.336   1.719 -0.0236  0.6377 -0.3615
   77SOL    HW1 1130   4.204   2.410   1.785  1.1346  1.2053 -1.1543
   77SOL    HW2 1131   4.109   2.287   1.737 -0.5983  1.8868  0.4395
   78SOL     OW 1132   1.574   5.415   6.198 -0.6092 -0.5115  0.3440
   78SOL    HW1 1133   1.529   5.467   6.270 -2.2337 -0.0830 -0.9081
   78SOL    HW2 1134   1.573   5.468   6.113  1.7079 -0.7892  0.0976
   79SOL     OW 1135   2.257   4.799   2.843 -0.0305 -0.5457 -0.2422
   79SOL    HW1 1136   2.338   4.837   2.800  1.1411 -0.3137  2.0538
   79SOL    HW2 1137   2.249   4.832   2.937 -0.0616 -4.2933  1.2553
   80SOL     OW 1138   0.310   1.717   6.871  0.1588 -0.0749 -0.1818
   80SOL    HW1 1139   0.269   1.802   6.840  0.9886  0.2462 -0.4090
   80SOL    HW2 1140   0.346   1.729   6.964  1.4468  0.2288 -0.7005
   81SOL     OW 1141   0.636   1.078   1.500 -0.1870 -0.3715  0.0678
   81SOL    HW1 1142   0.670   0.984   1.500  1.5787  0.2239 -0.0864
   81SOL    HW2 1143   0.669   1.124   1.417  0.8127  0.9849  1.1779
   82SOL     OW 1144   4.144   0.373   3.257 -0.1292  0.0780 -0.5083
   82SOL    HW1 1145   4.088   0.355   3.175 -1.0636  0.1650  0.0966
   82SOL    HW2 1146   4.185   0.464   3.249 -0.1463  0.0538 -0.9208
   83SOL     OW 1147   0.091   0.252   2.398 -0.7758 -0.3029  0.0744
   83SOL    HW1 1148   0.002   0.282   2.363 -0.8383 -0.4005  0.1468
   83SOL    HW2 1149   0.076   0.187   2.472 -0.6387 -0.6535 -0.2072
   84SOL     OW 1150   1.060   4.894   6.654 -0.3440 -0.0944 -0.3289
   84SOL    HW1 1151   1.079   4.796   6.666  0.8714  0.0462 -0.8436
   84SOL    HW2 1152   1.002   4.906   6.574 -2.5062 -0.5289  1.0965
   85SOL     OW 1153   5.746   5.789   5.278 -0.0776  0.2052  0.2014
   85SOL    HW1 1154   5.650   5.816   5.272  0.0816  1.1046  1.3614
   85SOL    HW2 1155   5.753   5.691   5.297 -0.7048 -0.3965 -2.2887
   86SOL     OW 1156   5.549   4.863   4.944  0.4838  0.6416  0.1561
   86SOL    HW1 1157   5.526   4.959   4.961  1.7694  0.8633  0.8195
   86SOL    HW2 1158   5.504   4.806   5.012  2.0950  1.1055  1.7023
   87SOL     OW 1159   6.262   0.188   0.406  0.4642 -0.6031  0.7486
   87SOL    HW1 1160   6.296   0.256   0.472  0.1322 -0.0944  0.3976
   87SOL    HW2 1161   6.338   0.156   0.349  0.2154  1.3104 -0.7384
   88SOL     OW 1162   1.257   4.048   2.613 -0.5313  0.3550  0.5785
   88SOL    HW1 1163   1.258   4.136   2.566  2.3458 -0.7241 -1.7612
   88SOL    HW2 1164   1.343   4.036   2.662 -1.2930 -0.7702  1.6895
   89SOL     OW 1165   5.595   3.993   1.800 -0.0865 -0.5698 -0.0855
   89SOL    HW1 1166   5.635   3.905   1.774 -0.6865 -0.9359  0.2004
   89SOL    HW2 1167   5.634   4.065   1.743 -0.4447 -1.1787 -1.1308
   90SOL     OW 1168   5.919   0.802   3.422  0.1580  0.6229 -0.4188
   90SOL    HW1 1169   5.871   0.801   3.334  0.7739  0.8656 -0.7608
   90SOL    HW2 1170   5.895   0.885   3.473  1.2760  1.4283 -1.1851
   91SOL     OW 1171   6.835   2.533   0.417  0.3353  0.2183 -0.2394
   91SOL    HW1 1172   6.796   2.547   0.326  2.7866 -0.0103 -1.3944
   91SOL    HW2 1173   6.787   2.593   0.482 -1.2997  0.5854 -1.6885
   92SOL     OW 1174   4.187   2.994   1.330  0.1036  0.0375 -0.0521
   92SOL    HW1 1175   4.235   3.057   1.269  1.9494 -1.1802  0.0640
   92SOL    HW2 1176   4.207   3.019   1.425  0.5015 -0.4436 -0.0042
   93SOL     OW 1177   1.671   1.556   0.694  0.1063  0.5449 -0.0145
   93SOL    HW1 1178   1.604   1.618   0.735 -1.3845 -1.5531  0.9350
   93SOL    HW2 1179   1.758   1.566   0.741  0.0579  2.2079 -0.2007
   94SOL     OW 1180   2.339   2.972   0.953 -0.5289  0.1884  0.1477
   94SOL    HW1 1181   2.250   2.943   0.918 -0.3990 -2.8088  1.9478
   94SOL    HW2 1182   2.349   2.942   1.047  2.1291  1.1461  0.2551
   95SOL     OW 1183   2.278   0.447   1.358 -0.2862  0.6207 -0.2966
   95SOL    HW1 1184   2.274   0.364   1.413 -0.1777 -1.8107 -3.6317
   95SOL    HW2 1185   2.374   0.470   1.341 -0.2917  0.1544 -1.0295
   96SOL     OW 1186   5.646   1.228   1.924  0.2272  0.2688  0.5309
   96SOL    HW1 1187   5.620   1.309   1.871 -2.7840  0.0541  1.5015
   96SOL    HW2 1188   5.706   1.256   2.000  1.8502  1.0425 -0.9660
   97SOL     OW 1189   4.351   4.525   0.706 -0.0901 -0.1638  0.3200
   97SOL    HW1 1190   4.280   4.591   0.731  1.5274  1.2671  1.3659
   97SOL    HW2 1191   4.371   4.465   0.783 -1.2257 -1.6625 -0.4809
   98SOL     OW 1192   0.597   3.132   5.429  0.4951 -0.0967  0.1447
   98SOL    HW1 1193   0.524   3.197   5.446  0.6619  0.4004 -0.9992
   98SOL    HW2 1194   0.660   3.169   5.361 -0.2912 -2.1046 -1.7783
   99SOL     OW 1195   0.529   1.598   1.040  0.4442 -0.4562  0.2613
   99SOL    HW1 1196   0.505   1.617   1.135  0.2813 -0.0952  0.1468
   99SOL    HW2 1197   0.614   1.645   1.017  1.7686 -2.3693  0.9105
  100SOL     OW 1198   6.394   4.040   6.137  0.3548 -0.4782 -0.1785
  100SOL    HW1 1199   6.317   3.988   6.174 -0.6554 -0.2204 -1.8263
  100SOL    HW2 1200   6.468   3.976   6.113  0.2071 -0.8459  0.3121
  101SOL     OW 1201   5.414   2.732   1.324  0.2256 -0.4974  0.2117
  101SOL    HW1 1202   5.387   2.827   1.342 -1.2696 -0.9519  0.5086
  101SOL    HW2 1203   5.362   2.671   1.384  0.1279 -1.5976 -0.9643
  102SOL     OW 1204   0.432   2.269   4.311 -0.1876 -0.5019  0.3007
  102SOL    HW1 1205   0.462   2.250   4.217  1.4973  1.6169  0.3173
  102SOL    HW2 1206   0.513   2.281   4.369 -1.1767  0.2655  1.5587
  103SOL     OW 1207   2.719   5.916   2.821  0.0700  0.2787 -0.7676
  103SOL    HW1 1208   2.719   5.899   2.919  0.3682 -0.4447 -0.8857
  103SOL    HW2 1209   2.711   6.015   2.804  0.0628  0.4115 -0.0214
  104SOL     OW 1210   1.687   1.497   5.245  0.4695 -0.1154 -0.4450
  104SOL    HW1 1211   1.763   1.554   5.276  1.2835  0.4272 -3.1699
  104SOL    HW2 1212   1.645   1.451   5.324  1.3418  2.3001  1.5615
  105SOL     OW 1213   5.095   2.717   1.595 -0.0653 -0.3827 -0.3127
  105SOL    HW1 1214   4.998   2.700   1.610 -0.0347 -0.3050 -0.0319
  105SOL    HW2 1215   5.122   2.803   1.639  0.4030 -1.0178  0.6927
  106SOL     OW 1216   4.880   5.684   3.979  1.1735 -0.1760  0.0326
  106SOL    HW1 1217   4.832   5.607   4.021  1.5815 -0.7503 -0.5473
  106SOL    HW2 1218   4.820   5.729   3.914  1.1010 -0.3084  0.0078
  107SOL     OW 1219   4.015   5.128   5.723 -0.3763 -0.4928  0.6085
  107SOL    HW1 1220   4.033   5.081   5.809  0.5637  1.5114  1.5814
  107SOL    HW2 1221   3.916   5.126   5.704 -0.4766 -1.8231  1.1803
  108SOL     OW 1222   3.711   1.334   6.819 -0.0668  0.0198  0.1297
  108SOL    HW1 1223   3.782   1.265   6.833  0.3999  0.3454 -0.6057
  108SOL    HW2 1224   3.621   1.294   6.840  0.1615 -0.9271 -0.6453
  109SOL     OW 1225   7.015   0.967   0.096  0.0560 -0.1064 -0.1374
  109SOL    HW1 1226   6.951   0.896   0.071  0.6145  0.1157 -2.3836
  109SOL    HW2 1227   7.096   0.926   0.139 -1.2425 -0.4263  2.1768
  110SOL     OW 1228   6.300   0.499   6.825 -0.0889 -0.0676 -0.2354
  110SOL    HW1 1229   6.330   0.405   6.838 -0.2523 -0.3139 -1.5352
  110SOL    HW2 1230   6.235   0.504   6.750 -0.8085  0.9551  0.4190
  111SOL     OW 1231   2.032   6.428   1.690  0.2075  0.5362 -0.2577
  111SOL    HW1 1232   1.932   6.421   1.697  0.0274  0.7416 -2.2001
  111SOL    HW2 1233   2.070   6.339   1.665  0.6403  0.2186  1.4216
  112SOL     OW 1234   4.084   4.400   6.239 -0.2265  0.1717 -0.3920
  112SOL    HW1 1235   4.057   4.389   6.335  2.5142  1.1252  0.5893
  112SOL    HW2 1236   4.138   4.320   6.210 -1.1883 -0.1943 -1.2353
  113SOL     OW 1237   0.340   2.273   3.798  0.1483 -0.2204 -0.1470
  113SOL    HW1 1238   0.294   2.354   3.763  1.3930  0.3001 -0.6461
  113SOL    HW2 1239   0.420   2.252   3.741  0.9484 -0.6648  1.0793
  114SOL     OW 1240   4.366   0.836   6.767  0.5063  0.3359 -0.2452
  114SOL    HW1 1241   4.315   0.850   6.852  2.2481 -0.6012  1.0245
  114SOL    HW2 1242   4.361   0.740   6.741 -0.5250  0.7273 -1.5905
  115SOL     OW 1243   6.660   3.145   3.917  0.1814  0.5565 -0.6188
  115SOL    HW1 1244   6.696   3.221   3.864  2.1552 -1.0098 -1.6604
  115SOL    HW2 1245   6.634   3.071   3.855  0.8026 -0.6294  0.5006
  116SOL     OW 1246   6.019   5.514   4.721 -0.5363  0.8627 -0.2704
  116SOL    HW1 1247   6.096   5.496   4.783 -1.1134 -0.1865  0.1541
  116SOL    HW2 1248   5.954   5.439   4.726 -0.8141  0.9700 -1.8358
  117SOL     OW 1249   3.104   6.895   2.403  0.0553  0.3302 -0.3582
  117SOL    HW1 1250   3.148   6.805   2.403 -0.1473  0.2276  0.0734
  117SOL    HW2 1251   3.017   6.889   2.452 -1.2348  0.1347 -2.5083
  118SOL     OW 1252   5.064   4.289   3.340  0.3218  0.6239 -0.1381
  118SOL    HW1 1253   5.145   4.243   3.374 -0.7906 -0.7311  0.7943
  118SOL    HW2 1254   4.985   4.229   3.350 -1.1905  2.6615  0.9830
  119SOL     OW 1255   4.654   2.289   0.094  0.3614 -0.6869  0.2189
  119SOL    HW1 1256   4.615   2.236   0.169 -0.0840 -0.4213  0.1818
  119SOL    HW2 1257   4.588   2.295   0.019  1.3608 -2.2390 -0.8432
  120SOL     OW 1258   1.494   2.947   5.428  0.8331 -0.0397 -0.6184
  120SOL    HW1 1259   1.422   2.877   5.421  1.2093 -0.4402 -0.5302
  120SOL    HW2 1260   1.580   2.903   5.455  0.9689  0.5210 -0.1143
  121SOL     OW 1261   0.561   4.158   4.398 -0.6095 -0.2591  0.6582
  121SOL    HW1 1262   0.598   4.157   4.491 -1.6522  1.4710  1.1285
  121SOL    HW2 1263   0.631   4.126   4.334  1.0423  1.0432  1.7284
  122SOL     OW 1264   4.563   1.365   3.562 -0.1606  0.0599 -0.3192
  122SOL    HW1 1265   4.603   1.342   3.473 -1.0216 -2.9873 -0.0252
  122SOL    HW2 1266   4.464   1.368   3.554 -0.2582 -0.5128  0.6054
  123SOL     OW 1267   5.959   2.631   6.957  0.0096 -0.3171  0.1987
  123SOL    HW1 1268   5.870   2.667   6.930  1.1659  1.5845 -1.3404
  123SOL    HW2 1269   5.988   2.673   7.043  0.3194  0.6735 -0.3815
  124SOL     OW 1270   5.270   0.364   5.583 -0.3137 -0.0620  0.7897
  124SOL    HW1 1271   5.249   0.267   5.594  1.2407 -0.5201  0.0418
  124SOL    HW2 1272   5.189   0.413   5.553 -0.4294 -1.6935 -1.8635
  125SOL     OW 1273   3.968   6.706   1.280 -0.1307 -0.6493  0.0991
  125SOL    HW1 1274   4.014   6.742   1.199 -1.6024  0.5177 -0.2768
  125SOL    HW2 1275   3.916   6.780   1.324 -0.7278 -1.6543  1.1298
  126SOL     OW 1276   2.287   1.956   1.652 -0.4380 -0.3012  0.2715
  126SOL    HW1 1277   2.189   1.960   1.667 -0.4752 -0.9862  0.2678
  126SOL    HW2 1278   2.334   2.019   1.714 -0.9867  1.3548 -0.9487
  127SOL     OW 1279   3.964   5.657   6.770  0.3011  0.4709 -0.5361
  127SOL    HW1 1280   3.951   5.558   6.767 -0.6164  0.4941  1.3704
  127SOL    HW2 1281   4.050   5.681   6.725  0.5890 -1.1806 -0.9211
  128SOL     OW 1282   3.581   3.328   4.948 -0.0439 -0.1703  0.1864
  128SOL    HW1 1283   3.629   3.263   4.890  1.4278 -0.5768  1.7873
  128SOL    HW2 1284   3.490   3.292   4.970 -1.5692  0.9370 -3.4699
  129SOL     OW 1285   6.675   2.476   1.213 -0.6402 -0.2024 -0.0095
  129SOL    HW1 1286   6.772   2.460   1.232 -1.0772 -2.2463  0.7524
  129SOL    HW2 1287   6.647   2.418   1.137 -0.6986  2.3690 -2.1018
  130SOL     OW 1288   1.758   4.440   6.423  0.2056  0.3001 -0.6073
  130SOL    HW1 1289   1.745   4.371   6.494 -0.9678  1.5014  0.4017
  130SOL    HW2 1290   1.676   4.446   6.366 -0.0242  1.3570 -0.1991
  131SOL     OW 1291   2.666   4.625   3.466  0.1127 -0.0364 -0.1257
  131SOL    HW1 1292   2.751   4.672   3.492 -0.4011  2.0715 -1.9661
  131SOL    HW2 1293   2.598   4.692   3.436 -0.6603 -1.9167 -2.9856
  132SOL     OW 1294   0.626   0.884   4.048 -0.6067  0.1436  0.3189
  132SOL    HW1 1295   0.724   0.870   4.030 -0.8618 -0.9309 -0.3135
  132SOL    HW2 1296   0.577   0.894   3.961 -1.0588  0.7648  0.6353
  133SOL     OW 1297   5.414   5.251   1.152  0.1691 -0.0443 -0.1229
  133SOL    HW1 1298   5.336   5.296   1.193 -0.1261 -0.1698 -0.5323
  133SOL    HW2 1299   5.437   5.168   1.203 -0.1329 -0.1464 -0.1540
  134SOL     OW 1300   4.522   1.554   5.782 -0.0878  0.0266  0.1100
  134SOL    HW1 1301   4.488   1.489   5.849  1.2107  0.1087  0.8832
  134SOL    HW2 1302   4.466   1.636   5.783 -0.8964 -0.5074  0.1059
  135SOL     OW 1303   2.445   4.901   0.128  1.0092 -0.2932  0.7008
  135SOL    HW1 1304   2.524   4.861   0.083  1.9459  0.0702  1.9624
  135SOL    HW2 1305   2.446   4.877   0.225 -0.2260  0.0323  0.8093
  136SOL     OW 1306   6.658   6.609   1.496 -0.1087 -0.0518  0.1885
  136SOL    HW1 1307   6.738   6.572   1.449  0.3527 -0.5890  1.3805
  136SOL    HW2 1308   6.682   6.633   1.590 -0.9892  1.1295  0.1347
  137SOL     OW 1309   5.004   5.826   2.964 -0.0100 -0.1608  0.3623
  137SOL    HW1 1310   5.090   5.855   2.921 -0.7127  0.7758 -0.4576
  137SOL    HW2 1311   4.972   5.897   3.026 -1.1244  0.3521 -0.7441
  138SOL     OW 1312   4.652   6.129   6.438  0.5887  0.0495  0.3087
  138SOL    HW1 1313   4.615   6.222   6.433  0.8969  0.1428 -0.3738
  138SOL    HW2 1314   4.615   6.083   6.518  0.3031  0.7064  0.5657
  139SOL     OW 1315   6.639   4.348   1.982  0.4638  0.1416  0.3531
  139SOL    HW1 1316   6.574   4.395   1.922 -0.0372  0.8201  1.4006
  139SOL    HW2 1317   6.655   4.255   1.947 -1.4437 -0.2176  0.3301
  140SOL     OW 1318   3.341   0.488   2.302 -0.1427  0.0378  0.1097
  140SOL    HW1 1319   3.273   0.446   2.363  0.1608 -2.8516 -1.4051
  140SOL    HW2 1320   3.297   0.517   2.217 -0.1216  1.8947  0.6702
  141SOL     OW 1321   2.075   3.999   3.082 -1.1008 -0.1773  0.5549
  141SOL    HW1 1322   1.980   3.994   3.051 -1.4112 -1.1617  1.6078
  141SOL    HW2 1323   2.108   3.907   3.104  0.1978  0.1185 -0.0745
  142SOL     OW 1324   6.169   0.432   2.564  0.0583  0.1189  0.1939
  142SOL    HW1 1325   6.126   0.518   2.538 -2.3215 -0.4604  1.8383
  142SOL    HW2 1326   6.125   0.356   2.516  0.1700 -0.3899  0.8698
  143SOL     OW 1327   6.247   1.510   1.166  0.4149  0.7626  0.3557
  143SOL    HW1 1328   6.305   1.572   1.113  0.5816  0.6829  0.4424
  143SOL    HW2 1329   6.211   1.438   1.107 -0.2300  1.2565  0.1379
  144SOL     OW 1330   1.113   4.045   3.827 -0.0666  0.2368 -0.1918
  144SOL    HW1 1331   1.182   4.065   3.897 -1.1730  1.0486  0.7138
  144SOL    HW2 1332   1.158   4.025   3.740  1.4767 -2.6687  1.1143
  145SOL     OW 1333   6.460   4.822   3.891 -0.6978 -0.0242 -0.9111
  145SOL    HW1 1334   6.515   4.832   3.974 -0.5985  0.6327 -1.0522
  145SOL    HW2 1335   6.421   4.730   3.888 -1.4222  0.2177  0.3097
  146SOL     OW 1336   0.588   5.336   2.011  0.1376 -0.7211  0.5193
  146SOL    HW1 1337   0.525   5.297   2.078  1.3071 -2.2893  0.7859
  146SOL    HW2 1338   0.622   5.263   1.951 -0.2617  0.5120 -1.2815
  147SOL     OW 1339   5.177   3.527   0.655  0.6432  0.1678  0.1147
  147SOL    HW1 1340   5.167   3.490   0.747 -1.7318 -0.8539 -0.4897
  147SOL    HW2 1341   5.143   3.622   0.653  0.4613  0.1053  0.2332
  148SOL     OW 1342   6.527   4.509   4.998  0.1801  0.2357 -0.1079
  148SOL    HW1 1343   6.513   4.411   5.010  1.4471 -0.1717 -1.5428
  148SOL    HW2 1344   6.451   4.548   4.946 -0.2812 -0.0082  0.3858
  149SOL     OW 1345   3.535   3.288   6.474 -0.3073  0.3543 -0.0072
  149SOL    HW1 1346   3.440   3.262   6.457 -0.7376  1.0594  1.1630
  149SOL    HW2 1347   3.556   3.275   6.571  0.0275  2.4708  0.2674
  150SOL     OW 1348   1.995   3.959   6.662 -0.5051  0.4688  0.4071
  150SOL    HW1 1349   2.015   4.057   6.670  4.6498  0.1731 -3.4045
  150SOL    HW2 1350   2.057   3.908   6.723 -0.2341 -0.4148 -0.5814
  151SOL     OW 1351   5.889   6.344   5.133  0.5703 -0.2643  0.0534
  151SOL    HW1 1352   5.950   6.315   5.207 -0.8259 -0.1914  1.2756
  151SOL    HW2 1353   5.941   6.351   5.048  1.8307 -2.2968  0.5806
  152SOL     OW 1354   5.517   6.862   6.433  0.1338  0.3590 -0.2592
  152SOL    HW1 1355   5.548   6.957   6.428  2.2249 -0.0496  2.7114
  152SOL    HW2 1356   5.437   6.856   6.492  1.3810  0.0904  1.4868
  153SOL     OW 1357   0.578   4.056   5.091  0.5466  0.1770 -0.1222
  153SOL    HW1 1358   0.622   4.118   5.155  1.5860  0.1694 -0.8050
  153SOL    HW2 1359   0.507   4.003   5.139 -0.4214  1.9137  0.4486
  154SOL     OW 1360   2.783   5.489   5.031 -0.4241 -0.3550 -0.1817
  154SOL    HW1 1361   2.877   5.464   5.054 -0.2635 -0.5457 -1.0112
  154SOL    HW2 1362   2.780   5.581   4.993 -0.4359 -0.6935 -1.0216
  155SOL     OW 1363   6.291   4.111   3.588 -0.3736 -0.0182 -0.2949
  155SOL    HW1 1364   6.333   4.116   3.497  0.2407 -0.3988 -0.0393
  155SOL    HW2 1365   6.223   4.038   3.589  2.2026 -2.5907  0.5424
  156SOL     OW 1366   0.392   1.492   3.152  0.7059  0.1149  0.2653
  156SOL    HW1 1367   0.370   1.395   3.160  2.8215 -0.5342 -1.0288
  156SOL    HW2 1368   0.487   1.502   3.122  0.2994  2.5851 -0.3930
  157SOL     OW 1369   6.081   1.059   2.437 -0.5257  0.1647  0.2028
  157SOL    HW1 1370   6.127   1.143   2.406 -0.4770  0.7063  1.6493
  157SOL    HW2 1371   6.090   0.988   2.367  0.9761  0.8047 -0.3002
  158SOL     OW 1372   2.413   5.314   3.827  0.3470  0.3937  0.2165
  158SOL    HW1 1373   2.482   5.381   3.854 -0.1629  0.1339  2.3678
  158SOL    HW2 1374   2.435   5.225   3.869 -0.0357 -0.3104 -1.0151
  159SOL     OW 1375   5.485   5.049   2.432 -0.3689 -0.2315 -0.0584
  159SOL    HW1 1376   5.431   5.030   2.514 -1.7043 -0.8352 -1.0475
  159SOL    HW2 1377   5.530   5.138   2.443  2.0375 -1.6043  2.6089
  160SOL     OW 1378   0.163   2.866   4.779  0.5200  0.6270  1.0101
  160SOL    HW1 1379   0.188   2.778   4.819 -1.4741 -0.4124  0.1116
  160SOL    HW2 1380   0.206   2.875   4.690 -1.5031 -0.8180 -0.2006
  161SOL     OW 1381   5.601   0.764   1.532  0.4300  0.2913  0.2192
  161SOL    HW1 1382   5.543   0.828   1.582  2.0156  2.8117 -0.9253
  161SOL    HW2 1383   5.620   0.684   1.589 -1.4962  0.8884  1.8067
  162SOL     OW 1384   3.288   6.623   6.576  0.4999  0.4196  0.3615
  162SOL    HW1 1385   3.284   6.604   6.478 -0.5156 -1.8030  0.7567
  162SOL    HW2 1386   3.379   6.598   6.611  0.2408 -0.7250  0.2807
  163SOL     OW 1387   0.646   0.680   6.466 -0.3146 -0.4453  0.7931
  163SOL    HW1 1388   0.687   0.757   6.515  0.9162  0.2506 -1.2022
  163SOL    HW2 1389   0.658   0.596   6.519  1.3006  0.2055  1.5049
  164SOL     OW 1390   1.202   5.760   2.953 -0.3636 -0.1775 -0.4839
  164SOL    HW1 1391   1.260   5.818   3.010 -0.7488  0.2476 -0.5199
  164SOL    HW2 1392   1.259   5.696   2.901  0.2148  1.2648 -1.7043
  165SOL     OW 1393   1.436   4.797   3.312  0.1008 -0.2167 -0.0751
  165SOL    HW1 1394   1.376   4.861   3.264 -0.5719  0.6785  1.8579
  165SOL    HW2 1395   1.410   4.792   3.408  1.7719 -1.4819  0.3708
  166SOL     OW 1396   3.089   1.585   6.857  0.5065 -0.7958 -0.4521
  166SOL    HW1 1397   3.165   1.640   6.822  0.0948  0.6875  0.8530
  166SOL    HW2 1398   3.120   1.492   6.875  1.6214 -0.6075 -1.3197
  167SOL     OW 1399   3.534   6.730   5.219 -0.4899  0.2746  0.2529
  167SOL    HW1 1400   3.570   6.652   5.169 -0.6223  1.4931 -1.8368
  167SOL    HW2 1401   3.527   6.707   5.316  2.8845 -1.0616  0.2810
  168SOL     OW 1402   5.571   6.117   5.300  0.1717  0.1325 -0.8931
  168SOL    HW1 1403   5.503   6.174   5.253 -1.2864  0.4900  1.4854
  168SOL    HW2 1404   5.656   6.117   5.247 -0.4650  2.7447 -2.1159
  169SOL     OW 1405   3.099   0.248   0.270 -0.3606 -0.1346 -0.4457
  169SOL    HW1 1406   3.011   0.242   0.223 -0.2599  1.1546 -0.8498
  169SOL    HW2 1407   3.111   0.340   0.307 -0.2276 -0.9718  1.7659
  170SOL     OW 1408   6.363   1.905   0.877  0.7577 -0.7442 -0.3231
  170SOL    HW1 1409   6.265   1.906   0.854  0.0938 -0.3759  2.1618
  170SOL    HW2 1410   6.394   1.998   0.895  1.0725 -1.0365  0.6962
  171SOL     OW 1411   3.238   6.143   5.960  0.1090 -0.4359 -0.2136
  171SOL    HW1 1412   3.321   6.135   5.905  0.7679 -1.0712  0.8266
  171SOL    HW2 1413   3.168   6.194   5.909  0.7263 -0.9012 -1.5634
  172SOL     OW 1414   5.109   2.962   5.444 -0.2698 -0.2581  0.0984
  172SOL    HW1 1415   5.187   2.998   5.394 -0.7890 -0.2334 -0.7156
  172SOL    HW2 1416   5.025   2.984   5.395 -0.7415 -0.8981  0.5908
  173SOL     OW 1417   1.030   1.230   1.213 -0.2301  0.1737 -0.4410
  173SOL    HW1 1418   1.062   1.324   1.222  0.9059 -0.0739 -1.5351
  173SOL    HW2 1419   1.071   1.189   1.131 -1.4706 -0.9670 -0.5191
  174SOL     OW 1420   0.194   3.692   1.130 -0.0325  0.8773  0.3038
  174SOL    HW1 1421   0.190   3.605   1.180  1.5074 -0.0043 -0.9847
  174SOL    HW2 1422   0.165   3.677   1.036  0.6036  1.6774 -0.0305
  175SOL     OW 1423   6.332   4.112   3.062 -0.0496  0.4114 -0.2646
  175SOL    HW1 1424   6.269   4.085   3.135  0.4220  0.8860  0.3236
  175SOL    HW2 1425   6.395   4.182   3.096  1.2036 -0.4970 -0.6617
  176SOL     OW 1426   5.653   0.766   6.774 -0.5507 -0.0352 -0.5275
  176SOL    HW1 1427   5.652   0.774   6.674 -2.8005 -3.2016 -0.9111
  176SOL    HW2 1428   5.591   0.693   6.802  0.5544  0.2603  3.2088
  177SOL     OW 1429   5.257   0.704   6.571 -0.0634 -0.1505 -0.4717
  177SOL    HW1 1430   5.289   0.781   6.627 -1.0401 -1.2606  1.7569
  177SOL    HW2 1431   5.241   0.735   6.478  3.0584  1.4651 -0.5941
  178SOL     OW 1432   0.469   0.071   5.595 -0.2257  0.0246  0.1352
  178SOL    HW1 1433   0.388   0.013   5.599  0.2936 -0.7155  0.1731
  178SOL    HW2 1434   0.508   0.080   5.687 -0.0892  0.1326  0.0668
  179SOL     OW 1435   3.029   1.405   3.900  0.6161  0.3834  0.1781
  179SOL    HW1 1436   3.114   1.435   3.944  1.6112 -0.2161 -1.2614
  179SOL    HW2 1437   3.044   1.395   3.802 -1.6373  2.0559 -0.4317
  180SOL     OW 1438   5.042   0.934   6.848 -0.2553  0.8659  0.2391
  180SOL    HW1 1439   4.989   0.868   6.796 -0.9727  0.5994  1.2612
  180SOL    HW2 1440   5.035   0.913   6.946  1.6446  0.9036  0.4265
  181SOL     OW 1441   5.054   4.167   6.398 -0.2316 -0.2429  0.0486
  181SOL    HW1 1442   4.959   4.197   6.398  1.0826  4.8017  2.2558
  181SOL    HW2 1443   5.089   4.167   6.304 -2.0664 -1.2764 -0.6853
  182SOL     OW 1444   5.606   4.531   4.321 -0.2445 -0.7117 -0.1682
  182SOL    HW1 1445   5.578   4.606   4.381 -0.9965  1.4236 -2.9859
  182SOL    HW2 1446   5.532   4.465   4.314 -0.0567 -1.1345  1.3480
  183SOL     OW 1447   5.792   1.468   5.339 -0.4425 -0.4869  0.1967
  183SOL    HW1 1448   5.727   1.544   5.339 -0.9690 -0.9272  0.2484
  183SOL    HW2 1449   5.798   1.429   5.431 -0.7880 -1.0147  0.0002
  184SOL     OW 1450   6.465   0.309   0.041  0.0167  0.0530 -0.7654
  184SOL    HW1 1451   6.372   0.300   0.005  0.4940 -0.1181 -2.0076
  184SOL    HW2 1452   6.531   0.293  -0.033  1.0464 -0.4805  0.2405
  185SOL     OW 1453   0.125   0.947   0.727 -0.1222 -0.2250  0.3566
  185SOL    HW1 1454   0.109   0.901   0.814  2.4621  0.1828  1.1158
  185SOL    HW2 1455   0.054   1.016   0.712 -1.3032 -1.1369  1.5014
  186SOL     OW 1456   0.615   0.450   3.374 -0.5145  0.3515  0.4596
  186SOL    HW1 1457   0.580   0.543   3.386  0.5615  1.1707 -2.0397
  186SOL    HW2 1458   0.558   0.400   3.309  0.6447  0.3707 -0.6181
  187SOL     OW 1459   1.266   5.384   3.193 -0.2874  0.7124  0.0934
  187SOL    HW1 1460   1.218   5.457   3.145  1.3529  0.5680 -1.9218
  187SOL    HW2 1461   1.365   5.400   3.187  0.0182  0.0450  2.4875
  188SOL     OW 1462   2.675   6.523   4.492  0.7518  0.4055  0.0776
  188SOL    HW1 1463   2.613   6.530   4.570  0.0373  1.3624 -0.5550
  188SOL    HW2 1464   2.708   6.614   4.467  1.8770 -0.0095 -0.0402
  189SOL     OW 1465   2.850   0.582   4.333  0.3854 -0.2702  0.3969
  189SOL    HW1 1466   2.785   0.581   4.409  0.7853 -1.2236  0.7458
  189SOL    HW2 1467   2.936   0.624   4.363 -0.0831  1.0765 -0.0911
  190SOL     OW 1468   3.506   6.366   3.220  0.0413  0.0647 -0.0496
  190SOL    HW1 1469   3.547   6.453   3.192  1.3979 -0.4177  0.3363
  190SOL    HW2 1470   3.497   6.306   3.140 -0.3063  0.3273 -0.2086
  191SOL     OW 1471   4.132   5.180   1.197  0.1739 -0.1263  0.3868
  191SOL    HW1 1472   4.184   5.256   1.236  0.5747 -0.0323 -0.3222
  191SOL    HW2 1473   4.163   5.094   1.237  1.0416 -0.0930 -0.1890
  192SOL     OW 1474   5.982   4.562   4.113 -0.8183  0.1296  0.2726
  192SOL    HW1 1475   6.030   4.629   4.170 -0.2015 -1.6260  1.9293
  192SOL    HW2 1476   5.888   4.593   4.097 -0.2417  1.8727  0.0808
  193SOL     OW 1477   1.587   6.359   0.163  0.1170 -0.4505 -0.4095
  193SOL    HW1 1478   1.624   6.357   0.256 -1.0685 -0.7310  0.0751
  193SOL    HW2 1479   1.579   6.265   0.129  0.3917 -0.3579 -0.7455
  194SOL     OW 1480   2.198   3.356   4.099  0.2024  0.1767  0.2218
  194SOL    HW1 1481   2.234   3.356   4.006 -1.1030  1.4731 -0.3190
  194SOL    HW2 1482   2.199   3.449   4.136 -1.5630  0.0950  0.5581
  195SOL     OW 1483   2.315   5.760   6.798 -0.7145 -0.3998  0.2108
  195SOL    HW1 1484   2.396   5.710   6.829  1.2165  3.2409  1.6530
  195SOL    HW2 1485   2.260   5.787   6.877 -1.7846 -0.3731 -0.5230
  196SOL     OW 1486   3.412   6.237   2.943 -0.0479 -0.1621 -0.4715
  196SOL    HW1 1487   3.353   6.280   2.875 -1.7213 -1.4540  0.1031
  196SOL    HW2 1488   3.508   6.247   2.916 -0.5763  1.0232 -1.9937
  197SOL     OW 1489   6.746   3.915   3.691 -0.0001  0.0852  0.5127
  197SOL    HW1 1490   6.655   3.955   3.701 -0.9103 -1.4361 -1.1136
  197SOL    HW2 1491   6.812   3.988   3.674 -1.6135  1.0400 -2.4990
  198SOL     OW 1492   2.335   0.848   1.139  0.3215 -0.0897 -0.2199
  198SOL    HW1 1493   2.278   0.930   1.150 -1.3825 -1.1570 -0.7420
  198SOL    HW2 1494   2.300   0.775   1.197  0.2577 -1.2079 -1.6048
  199SOL     OW 1495   1.362   2.753   2.639  0.2250  0.0961  0.2293
  199SOL    HW1 1496   1.340   2.823   2.571  1.2906 -0.0186 -0.2465
  199SOL    HW2 1497   1.374   2.795   2.728 -2.4769  0.1073  0.6741
  200SOL     OW 1498   2.723   6.570   3.096  0.3364 -0.2752  0.3248
  200SOL    HW1 1499   2.699   6.475   3.119  2.9259 -0.7186  1.5240
  200SOL    HW2 1500   2.812   6.593   3.136  0.2177  2.3909 -0.7277
  201SOL     OW 1501   2.482   6.314   2.122  0.5058 -0.5159 -0.0560
  201SOL    HW1 1502   2.560   6.362   2.082 -0.1489 -0.7285 -1.6764
  201SOL    HW2 1503   2.508   6.276   2.210  1.6392  1.0661  0.3388
  202SOL     OW 1504   1.200   0.135   4.296  0.1490  0.0216 -0.3514
  202SOL    HW1 1505   1.252   0.135   4.381 -2.6043  0.3471  1.4386
  202SOL    HW2 1506   1.216   0.220   4.247  1.1601  0.1703  0.2115
  203SOL     OW 1507   6.612   5.318   5.754  0.4347  0.0814  0.6244
  203SOL    HW1 1508   6.530   5.346   5.704 -0.0585 -2.5975 -0.2248
  203SOL    HW2 1509   6.685   5.384   5.738 -0.2744  0.3279 -2.1459
  204SOL     OW 1510   4.865   3.735   2.067  0.3761  0.0776 -0.3192
  204SOL    HW1 1511   4.949   3.787   2.052  1.6561 -1.4890  1.0351
  204SOL    HW2 1512   4.793   3.797   2.100  0.3868  1.7696 -3.1499
  205SOL     OW 1513   4.927   5.625   4.318  0.0420  0.3290  0.1790
  205SOL    HW1 1514   4.925   5.725   4.305 -1.3605  0.4225  0.8481
  205SOL    HW2 1515   4.847   5.585   4.274  0.7304 -0.5518 -0.2968
  206SOL     OW 1516   6.499   0.802   2.852  0.1370 -0.6136  0.4025
  206SOL    HW1 1517   6.597   0.779   2.853  0.9915  2.4728  2.3193
  206SOL    HW2 1518   6.473   0.838   2.942 -3.2027 -2.6293  0.4167
  207SOL     OW 1519   3.526   0.357   6.930  0.1605  0.1669  0.1337
  207SOL    HW1 1520   3.592   0.282   6.933 -0.6678 -0.9081 -3.5545
  207SOL    HW2 1521   3.445   0.333   6.983  0.3869 -1.0441 -0.0564
  208SOL     OW 1522   2.116   0.328   1.159 -0.5083 -0.0595 -0.3966
  208SOL    HW1 1523   2.163   0.249   1.122 -0.0851  0.2205 -0.4686
  208SOL    HW2 1524   2.179   0.380   1.217 -1.0544 -0.3050  0.4470
  209SOL     OW 1525   4.946   4.095   0.088 -0.1253  0.0646  0.1687
  209SOL    HW1 1526   4.942   4.184   0.132 -2.3592  0.6434 -1.0738
  209SOL    HW2 1527   4.944   4.107  -0.012  1.0877 -1.3413 -0.0654
  210SOL     OW 1528   1.593   0.326   3.109 -0.9824 -0.4674  0.4036
  210SOL    HW1 1529   1.655   0.254   3.077 -2.0929 -2.0777  1.6938
  210SOL    HW2 1530   1.614   0.347   3.205 -0.9338  0.6743  0.1571
  211SOL     OW 1531   0.124   2.681   5.115 -0.6128  0.0203 -0.0884
  211SOL    HW1 1532   0.166   2.761   5.156 -0.9314  0.8958 -1.4163
  211SOL    HW2 1533   0.039   2.659   5.164 -1.1335  1.2081 -0.4179
  212SOL     OW 1534   3.719   4.896   3.798  0.8674 -0.3166 -0.1611
  212SOL    HW1 1535   3.667   4.981   3.813 -0.8302 -1.5249  1.2206
  212SOL    HW2 1536   3.774   4.905   3.715 -1.5495  1.0723 -1.7436
  213SOL     OW 1537   4.688   1.805   0.281  0.0279 -0.4918 -0.1223
  213SOL    HW1 1538   4.724   1.717   0.248 -0.3490 -0.8133  0.3061
  213SOL    HW2 1539   4.760   1.874   0.277  0.3662 -0.8515 -0.3487
  214SOL     OW 1540   3.636   0.502   4.802 -0.7004  0.0846  0.1380
  214SOL    HW1 1541   3.556   0.559   4.785  0.2830  0.9669 -1.9237
  214SOL    HW2 1542   3.686   0.489   4.716  1.4560 -0.2939  1.3785
  215SOL     OW 1543   0.627   2.870   7.012  0.8821 -0.0053  0.1707
  215SOL    HW1 1544   0.725   2.848   7.009  0.7247 -0.5474 -1.3887
  215SOL    HW2 1545   0.611   2.936   7.086  2.7114  1.4393 -0.6332
  216SOL     OW 1546   2.062   6.792   1.932 -0.3063  0.2369 -0.6389
  216SOL    HW1 1547   2.079   6.755   2.024 -0.1067 -0.0289 -0.7821
  216SOL    HW2 1548   1.967   6.777   1.907 -0.2068 -0.2558 -0.7302
  217SOL     OW 1549   2.664   0.305   1.256  0.1087 -0.3771 -0.1815
  217SOL    HW1 1550   2.624   0.396   1.273 -0.6587 -0.7579  0.0732
  217SOL    HW2 1551   2.741   0.291   1.318 -1.3602 -0.9043  1.5938
  218SOL     OW 1552   5.117   5.726   6.275 -0.1521  0.3783  0.5069
  218SOL    HW1 1553   5.084   5.805   6.224 -0.7723  0.9985  1.8404
  218SOL    HW2 1554   5.170   5.756   6.354  0.9760 -0.5709  0.1439
  219SOL     OW 1555   1.986   6.092   0.971  0.1913  0.6110  0.3469
  219SOL    HW1 1556   2.052   6.155   1.010 -0.1094  0.7755  0.6007
  219SOL    HW2 1557   1.931   6.138   0.901 -0.1269  0.6754  0.6359
  220SOL     OW 1558   5.160   5.424   3.185  0.1619 -0.5887  0.5036
  220SOL    HW1 1559   5.074   5.374   3.189 -0.4653  0.4843  0.8102
  220SOL    HW2 1560   5.215   5.388   3.110 -1.4192  0.0336 -1.0238
  221SOL     OW 1561   2.626   2.951   6.132 -0.5132 -0.0255  0.4692
  221SOL    HW1 1562   2.671   2.908   6.209  0.0483 -0.5226 -0.1265
  221SOL    HW2 1563   2.528   2.930   6.134 -0.3728 -0.6747  0.6216
  222SOL     OW 1564   5.223   3.015   3.070  0.2863 -0.1205 -0.1437
  222SOL    HW1 1565   5.249   3.104   3.108  1.8988 -0.2223 -0.9137
  222SOL    HW2 1566   5.264   2.942   3.125 -0.1766 -0.3598 -0.1129
  223SOL     OW 1567   0.351   6.652   6.223  0.0186  0.1107  0.4776
  223SOL    HW1 1568   0.390   6.574   6.174  1.1474 -0.3973  2.0771
  223SOL    HW2 1569   0.410   6.732   6.209 -0.3863  0.3255 -0.0419
  224SOL     OW 1570   0.662   6.835   0.753  0.1688 -0.6678 -0.1398
  224SOL    HW1 1571   0.566   6.860   0.757  0.4592  0.4727  0.1718
  224SOL    HW2 1572   0.688   6.786   0.837  0.2078  0.3813  0.4727
  225SOL     OW 1573   3.415   3.925   0.837  0.2170  0.4603 -0.0392
  225SOL    HW1 1574   3.381   3.979   0.760  2.2067 -1.8525 -2.7697
  225SOL    HW2 1575   3.482   3.859   0.804 -0.2483 -2.0337  3.4494
  226SOL     OW 1576   6.164   1.243   6.988 -0.3299 -0.6269 -0.2154
  226SOL    HW1 1577   6.164   1.271   6.893  0.5169 -0.9975 -0.3382
  226SOL    HW2 1578   6.194   1.319   7.046 -1.8775 -0.0693 -0.1218
  227SOL     OW 1579   5.820   4.515   5.314 -0.3284 -0.2510 -0.1219
  227SOL    HW1 1580   5.876   4.498   5.395 -0.9239  0.4026  0.4310
  227SOL    HW2 1581   5.834   4.609   5.282 -0.4734 -0.3498 -0.4859
  228SOL     OW 1582   4.997   2.460   2.267 -0.2952  0.2982 -0.1566
  228SOL    HW1 1583   4.900   2.458   2.295 -0.7271  1.8613 -1.4049
  228SOL    HW2 1584   5.003   2.454   2.168  1.0894 -2.5977 -0.0211
  229SOL     OW 1585   5.318   2.425   2.016 -0.3901  0.3995  0.3370
  229SOL    HW1 1586   5.236   2.474   1.988 -0.9649 -0.7382 -0.0200
  229SOL    HW2 1587   5.371   2.399   1.935  0.4390  1.2938  0.5731
  230SOL     OW 1588   6.113   5.357   2.936 -0.3147  0.0315  0.1966
  230SOL    HW1 1589   6.076   5.292   3.003  0.7625 -0.0896  0.7037
  230SOL    HW2 1590   6.038   5.399   2.885 -1.2038  0.4922  1.8062
  231SOL     OW 1591   2.818   6.711   0.870  0.0844 -0.1633  0.1794
  231SOL    HW1 1592   2.795   6.684   0.963  0.0669 -0.1512  0.1785
  231SOL    HW2 1593   2.909   6.753   0.869  0.8080 -1.6607 -0.0547
  232SOL     OW 1594   5.411   2.548   6.450  0.0995  0.0252  0.0013
  232SOL    HW1 1595   5.351   2.581   6.377 -0.1940 -0.5123 -0.0037
  232SOL    HW2 1596   5.356   2.526   6.531  0.5484  1.9295  0.8924
  233SOL     OW 1597   3.930   3.725   0.269 -0.2550 -0.2845 -0.3871
  233SOL    HW1 1598   3.894   3.696   0.358  0.5987  1.6245  0.6361
  233SOL    HW2 1599   4.001   3.660   0.240 -1.0487 -1.3344 -0.0573
  234SOL     OW 1600   5.963   6.909   0.593 -0.0842 -0.3013  0.3196
  234SOL    HW1 1601   5.899   6.871   0.661  0.8564 -2.7781 -0.0610
  234SOL    HW2 1602   5.934   6.882   0.501  0.6436 -0.1436  0.0364
  235SOL     OW 1603   6.842   2.053   2.676  0.1710  0.0110 -0.2373
  235SOL    HW1 1604   6.856   2.102   2.762  0.6479 -0.8108  0.1620
  235SOL    HW2 1605   6.911   2.083   2.610  0.9518 -0.6703  0.2550
  236SOL     OW 1606   6.874   4.158   1.709 -0.3615 -0.2061  0.1878
  236SOL    HW1 1607   6.825   4.171   1.795 -0.9173 -0.3064 -0.1126
  236SOL    HW2 1608   6.809   4.142   1.635  0.1060  0.0129 -0.2798
  237SOL     OW 1609   6.345   5.653   1.978  0.9043  0.3154  0.4938
  237SOL    HW1 1610   6.286   5.595   2.035  0.3918 -0.3528 -0.6647
  237SOL    HW2 1611   6.430   5.603   1.957  0.5057 -0.0005 -0.4237
  238SOL     OW 1612   4.682   3.780   1.140 -0.0132  0.2599  0.2527
  238SOL    HW1 1613   4.668   3.813   1.233 -0.7300 -0.6667  0.4889
  238SOL    HW2 1614   4.760   3.718   1.137 -1.8129 -2.1963  0.9246
  239SOL     OW 1615   0.366   0.177   4.105 -0.5479 -0.2055 -0.5747
  239SOL    HW1 1616   0.387   0.179   4.008 -1.1636 -1.8268 -0.7754
  239SOL    HW2 1617   0.270   0.201   4.119 -0.0490  1.7537 -0.1665
  240SOL     OW 1618   1.209   3.562   0.390 -0.5505 -0.1880  0.2873
  240SOL    HW1 1619   1.113   3.536   0.396 -1.0220  1.3229 -0.4467
  240SOL    HW2 1620   1.224   3.621   0.311  0.7632  0.5530  1.0411
  241SOL     OW 1621   7.021   5.937   0.560 -0.1260  0.2052  0.2051
  241SOL    HW1 1622   6.943   5.998   0.549 -0.4814 -0.2727  0.0538
  241SOL    HW2 1623   7.009   5.856   0.501 -0.9446 -1.2998  2.3058
  242SOL     OW 1624   3.272   3.818   4.715 -0.7389  0.0742  0.0303
  242SOL    HW1 1625   3.221   3.898   4.749  0.7102  0.9652  0.1839
  242SOL    HW2 1626   3.364   3.846   4.689 -0.7022 -1.2547 -1.4425
  243SOL     OW 1627   1.448   4.580   6.555  0.4765 -0.2127 -0.1555
  243SOL    HW1 1628   1.353   4.553   6.538  0.4395  0.5436 -1.2509
  243SOL    HW2 1629   1.484   4.527   6.632 -0.2660 -1.7966 -0.8412
  244SOL     OW 1630   1.353   6.210   2.906 -0.3406  0.0370 -0.1860
  244SOL    HW1 1631   1.342   6.289   2.845  0.1582  0.6658  0.5111
  244SOL    HW2 1632   1.264   6.167   2.922 -0.8107  1.1425  0.2978
  245SOL     OW 1633   0.248   0.313   0.606 -0.0013  0.2739 -0.0703
  245SOL    HW1 1634   0.198   0.329   0.692 -1.9688 -0.7814 -0.9472
  245SOL    HW2 1635   0.187   0.331   0.529  1.7706  1.3264 -1.2823
  246SOL     OW 1636   5.043   0.906   4.825  0.1420  0.2761  0.2616
  246SOL    HW1 1637   5.090   0.818   4.835 -2.2486 -1.1743 -0.5792
  246SOL    HW2 1638   5.105   0.971   4.780  1.6430 -1.2501 -0.0177
  247SOL     OW 1639   0.121   2.831   3.001  0.5539 -0.2300 -0.1621
  247SOL    HW1 1640   0.187   2.768   2.958  0.4712 -0.1466 -0.4134
  247SOL    HW2 1641   0.039   2.836   2.945  0.0142 -0.9357  0.5529
  248SOL     OW 1642   5.926   3.669   5.922  0.5681  0.6431  0.1163
  248SOL    HW1 1643   5.981   3.675   6.005 -0.1943  2.9205  0.5318
  248SOL    HW2 1644   5.978   3.707   5.845  0.7425 -0.1600 -0.1729
  249SOL     OW 1645   4.951   6.865   2.584 -0.2749 -0.5137 -0.0374
  249SOL    HW1 1646   5.009   6.931   2.535 -0.1204 -0.4011  0.2965
  249SOL    HW2 1647   4.928   6.901   2.674 -0.4577 -0.7782  0.0235
  250SOL     OW 1648   0.188   2.934   5.177 -0.4912 -0.2510  0.3132
  250SOL    HW1 1649   0.127   2.900   5.106 -1.7385  1.6585  0.4095
  250SOL    HW2 1650   0.215   3.028   5.156  0.4584 -0.2215  1.5397
  251SOL     OW 1651   1.329   2.009   4.529  0.5915  0.5975 -0.2223
  251SOL    HW1 1652   1.301   2.059   4.610  1.6013  0.7229  0.0685
  251SOL    HW2 1653   1.411   2.052   4.490 -0.8676  1.6534 -2.3669
  252SOL     OW 1654   5.159   5.407   5.264 -0.7353 -1.0575  0.3467
  252SOL    HW1 1655   5.152   5.440   5.170 -0.0422 -0.2231  0.5819
  252SOL    HW2 1656   5.150   5.484   5.328 -2.7443 -1.7888  1.0403
  253SOL     OW 1657   6.541   6.318   6.654  0.0320 -0.7005 -0.3591
  253SOL    HW1 1658   6.600   6.257   6.602 -0.3957 -0.0170 -1.6957
  253SOL    HW2 1659   6.499   6.384   6.592 -0.1677  0.4219  0.9221
  254SOL     OW 1660   3.285   2.926   6.348 -0.1074 -0.1935  0.0026
  254SOL    HW1 1661   3.334   2.971   6.273 -0.0934  1.0643  0.7352
  254SOL    HW2 1662   3.257   2.834   6.319 -1.7458  0.9127 -2.2148
  255SOL     OW 1663   2.328   4.204   2.658 -0.6499  0.5307 -0.0191
  255SOL    HW1 1664   2.355   4.245   2.746 -1.3520  0.0919  0.4141
  255SOL    HW2 1665   2.270   4.125   2.676 -0.9723  0.5675 -0.8943
  256SOL     OW 1666   3.502   2.483   1.298 -0.1749 -0.2049  0.5094
  256SOL    HW1 1667   3.457   2.395   1.282 -0.0816 -0.1351 -0.1658
  256SOL    HW2 1668   3.448   2.536   1.363 -0.1258 -0.8409  1.0862
  257SOL     OW 1669   6.056   3.325   3.726 -0.1072 -0.0691  0.4640
  257SOL    HW1 1670   6.111   3.359   3.649  1.0871 -1.2403  0.7636
  257SOL    HW2 1671   6.030   3.402   3.784  0.7647  0.5920  0.0142
  258SOL     OW 1672   1.825   5.763   0.055 -0.2239 -0.5975 -0.1174
  258SOL    HW1 1673   1.737   5.716   0.055 -0.0394 -0.9432 -0.0256
  258SOL    HW2 1674   1.898   5.697   0.040  0.0316 -0.3278 -0.0680
  259SOL     OW 1675   1.709   4.894   5.361  0.3325 -0.1683 -0.2888
  259SOL    HW1 1676   1.659   4.816   5.323 -0.3035  0.7410 -1.4107
  259SOL    HW2 1677   1.785   4.917   5.301 -0.7917  1.4018 -1.2144
  260SOL     OW 1678   3.500   1.891   2.993  0.1760  0.4401  0.3166
  260SOL    HW1 1679   3.474   1.985   2.974  0.2185  0.4914  0.5148
  260SOL    HW2 1680   3.582   1.867   2.941  0.7582  0.8316  1.0377
  261SOL     OW 1681   2.330   4.609   6.659 -0.3321 -0.0776 -0.5654
  261SOL    HW1 1682   2.281   4.691   6.688 -0.4651 -0.1381 -0.6177
  261SOL    HW2 1683   2.426   4.615   6.688 -0.7612 -0.7579  1.1695
  262SOL     OW 1684   2.875   0.284   1.425 -0.3440  0.5282  0.6705
  262SOL    HW1 1685   2.966   0.298   1.464  0.9315 -0.6488 -1.6366
  262SOL    HW2 1686   2.808   0.335   1.478  1.3875  0.1388  3.4479
  263SOL     OW 1687   0.767   0.537   4.642  0.2002 -0.3025 -0.6060
  263SOL    HW1 1688   0.845   0.541   4.580  1.1295 -0.8411  0.4734
  263SOL    HW2 1689   0.797   0.500   4.730 -0.7037  1.8714  0.7080
  264SOL     OW 1690   3.209   5.788   2.895 -0.2172  0.4647 -0.0449
  264SOL    HW1 1691   3.232   5.803   2.799 -0.5005 -0.5097 -0.2793
  264SOL    HW2 1692   3.160   5.702   2.904 -1.4495  1.2138  0.7805
  265SOL     OW 1693   6.264   0.202   5.052 -0.0890 -0.1104  0.2242
  265SOL    HW1 1694   6.198   0.133   5.083 -1.2179 -0.1019 -1.9445
  265SOL    HW2 1695   6.355   0.179   5.085 -0.7526 -1.6031  1.1010
  266SOL     OW 1696   6.218   2.107   0.552  0.2538  0.2021  0.1052
  266SOL    HW1 1697   6.237   2.104   0.454  1.3407 -0.0239  0.3111
  266SOL    HW2 1698   6.121   2.126   0.566  0.3450  1.6365 -0.9943
  267SOL     OW 1699   4.127   4.641   6.119  0.2078 -0.1455  0.2319
  267SOL    HW1 1700   4.085   4.665   6.032  2.2053 -2.9815 -1.6512
  267SOL    HW2 1701   4.085   4.557   6.155  2.5197 -1.6765 -0.4920
  268SOL     OW 1702   0.401   1.351   1.420 -0.1491 -0.5409  0.0863
  268SOL    HW1 1703   0.385   1.262   1.377 -3.0243  0.0293 -0.1894
  268SOL    HW2 1704   0.447   1.338   1.508  2.4754 -1.9933 -1.3646
  269SOL     OW 1705   6.852   1.021   3.380  0.0339  0.1861 -0.1849
  269SOL    HW1 1706   6.886   0.972   3.460 -1.4743 -0.9135 -0.1716
  269SOL    HW2 1707   6.925   1.078   3.342  1.8590 -1.9609 -0.1107
  270SOL     OW 1708   2.316   4.793   3.865  0.0152  0.8431  0.6645
  270SOL    HW1 1709   2.412   4.815   3.843  0.2293 -0.0172  0.6719
  270SOL    HW2 1710   2.314   4.727   3.940 -0.6681  2.4485  2.1141
  271SOL     OW 1711   0.837   4.818   1.131  0.9456 -0.5322  0.0926
  271SOL    HW1 1712   0.829   4.819   1.230 -1.1282 -2.4017  0.0405
  271SOL    HW2 1713   0.836   4.723   1.099 -2.4811 -0.0088 -1.8721
  272SOL     OW 1714   1.822   3.584   2.190 -0.5555  0.3074  0.2311
  272SOL    HW1 1715   1.730   3.619   2.170 -0.8209 -0.6466 -0.2452
  272SOL    HW2 1716   1.816   3.510   2.257 -0.0620  0.6881  0.7031
  273SOL     OW 1717   6.306   1.236   4.956 -0.0778 -0.2275 -0.0931
  273SOL    HW1 1718   6.362   1.318   4.968 -1.0653  0.5074 -0.3017
  273SOL    HW2 1719   6.284   1.226   4.859 -1.5301  0.3671  0.1482
  274SOL     OW 1720   6.518   4.143   0.656 -0.1917  0.4207 -0.1565
  274SOL    HW1 1721   6.567   4.223   0.620  0.6718  0.2245  0.5479
  274SOL    HW2 1722   6.432   4.132   0.607 -0.2664  1.7130 -0.3613
  275SOL     OW 1723   4.313   5.474   3.928  0.4341 -0.2930 -0.2445
  275SOL    HW1 1724   4.250   5.517   3.993 -0.8621 -2.0181 -0.2708
  275SOL    HW2 1725   4.405   5.509   3.942 -0.0393  0.2897  1.6722
  276SOL     OW 1726   3.326   5.367   0.671  0.3209 -0.0506 -1.3801
  276SOL    HW1 1727   3.232   5.373   0.706  0.6865  0.0295 -0.3841
  276SOL    HW2 1728   3.367   5.458   0.672  1.7279 -0.5843  2.0049
  277SOL     OW 1729   5.087   4.141   3.040  0.0139  0.0234  0.0706
  277SOL    HW1 1730   5.057   4.218   3.096 -0.5430  1.5570 -2.2046
  277SOL    HW2 1731   5.183   4.121   3.060  0.4496  1.9259  0.0876
  278SOL     OW 1732   3.919   0.191   2.684  0.2416 -0.4625  0.5335
  278SOL    HW1 1733   4.011   0.177   2.720  1.7159  0.0490 -2.7187
  278SOL    HW2 1734   3.924   0.215   2.587 -3.1491  2.7331  0.9134
  279SOL     OW 1735   3.947   0.879   4.056 -0.0308 -0.2869  0.4250
  279SOL    HW1 1736   4.005   0.898   3.976 -0.8794  0.1071 -0.1147
  279SOL    HW2 1737   3.971   0.942   4.130 -1.7147  1.9698 -0.7977
  280SOL     OW 1738   6.529   6.776   4.873  0.5425 -0.0200 -0.2537
  280SOL    HW1 1739   6.557   6.680   4.862 -0.4407 -0.3962  0.4527
  280SOL    HW2 1740   6.434   6.780   4.901  0.4514  1.1938 -0.6928
  281SOL     OW 1741   2.696   6.503   6.401 -0.2223  0.1392 -0.2375
  281SOL    HW1 1742   2.645   6.417   6.402 -0.6503  0.3860 -0.4231
  281SOL    HW2 1743   2.792   6.484   6.382 -0.4572 -0.2387 -1.1422
  282SOL     OW 1744   6.027   5.087   3.495  0.8823 -0.3256 -0.1413
  282SOL    HW1 1745   6.065   5.136   3.417 -0.1820 -3.8498 -3.1422
  282SOL    HW2 1746   6.100   5.037   3.541  1.0189 -1.1021 -1.1772
  283SOL     OW 1747   6.695   3.498   2.883 -0.3364 -0.3703 -0.4441
  283SOL    HW1 1748   6.664   3.404   2.897  1.5728 -0.9089  0.5584
  283SOL    HW2 1749   6.738   3.531   2.967  0.5306  0.7851 -1.3180
  284SOL     OW 1750   2.962   3.026   0.641 -0.0788 -0.3330  0.4005
  284SOL    HW1 1751   2.929   3.024   0.547  0.6945  1.9024  0.0285
  284SOL    HW2 1752   2.940   2.939   0.686 -1.8173 -0.8662 -1.3548
  285SOL     OW 1753   4.278   5.137   6.011 -0.4888 -0.2543  0.1933
  285SOL    HW1 1754   4.189   5.098   6.037 -0.4385  0.1340  0.9721
  285SOL    HW2 1755   4.349   5.068   6.025 -0.7212 -0.7216 -0.8796
  286SOL     OW 1756   2.178   1.901   2.781  1.0249  0.3322 -0.2103
  286SOL    HW1 1757   2.249   1.914   2.711  2.5539  1.1706  1.4002
  286SOL    HW2 1758   2.155   1.804   2.788  2.6781 -0.0922 -0.2026
  287SOL     OW 1759   6.990   0.619   2.132 -0.3109 -0.0032  0.0436
  287SOL    HW1 1760   7.046   0.611   2.214  0.6902  1.8150 -0.3943
  287SOL    HW2 1761   6.894   0.602   2.155 -0.1485  1.1931  1.7692
  288SOL     OW 1762   1.801   1.122   1.382 -0.2196  0.5353  0.0982
  288SOL    HW1 1763   1.845   1.038   1.351 -2.2030 -0.0961 -1.2226
  288SOL    HW2 1764   1.868   1.196   1.384  0.7883 -0.1930 -2.5329
  289SOL     OW 1765   5.859   3.303   0.668  0.6645  0.1258 -0.6330
  289SOL    HW1 1766   5.764   3.326   0.686  0.5159 -0.3362 -0.8142
  289SOL    HW2 1767   5.917   3.339   0.742 -0.0354 -2.6460  1.4410
  290SOL     OW 1768   6.769   4.239   3.584 -0.0556  0.2659 -0.1005
  290SOL    HW1 1769   6.794   4.266   3.677 -1.2872  2.6059 -0.3680
  290SOL    HW2 1770   6.829   4.165   3.554  0.6225 -0.3122  2.3889
  291SOL     OW 1771   6.662   1.059   5.601  0.3941 -0.4238 -0.4282
  291SOL    HW1 1772   6.673   1.154   5.573 -2.7997  0.2404  0.2104
  291SOL    HW2 1773   6.642   1.002   5.521 -2.3682  0.3470 -0.3688
  292SOL     OW 1774   0.063   6.409   4.571 -0.1038 -0.1489  0.1490
  292SOL    HW1 1775   0.127   6.405   4.648  0.3802 -0.1214 -0.2412
  292SOL    HW2 1776   0.104   6.465   4.498 -0.0943 -1.0444 -0.5464
  293SOL     OW 1777   0.879   0.582   1.502 -0.3823  0.1707 -0.1281
  293SOL    HW1 1778   0.860   0.654   1.436  0.4691  2.0396  1.5788
  293SOL    HW2 1779   0.978   0.576   1.518 -0.5810 -0.1279  1.0989
  294SOL     OW 1780   2.438   4.688   0.370  0.0651 -0.5558  0.3728
  294SOL    HW1 1781   2.491   4.603   0.373 -0.7216 -1.0380  1.9943
  294SOL    HW2 1782   2.455   4.741   0.453 -0.3477  0.3228 -0.0867
  295SOL     OW 1783   0.904   2.648   6.692 -0.2802 -0.2653  0.5691
  295SOL    HW1 1784   0.844   2.571   6.672 -1.7801  0.6568  1.3601
  295SOL    HW2 1785   0.888   2.680   6.785  1.5918 -0.0902  0.8777
  296SOL     OW 1786   1.147   5.031   0.101  0.2873  0.3378  0.1000
  296SOL    HW1 1787   1.139   5.109   0.040 -0.8946  0.8411  0.8692
  296SOL    HW2 1788   1.071   4.968   0.086 -0.4802  0.8714  1.5879
  297SOL     OW 1789   3.704   5.219   2.533 -0.4392  0.1112 -0.5756
  297SOL    HW1 1790   3.800   5.195   2.518 -0.4154 -0.4276  0.3488
  297SOL    HW2 1791   3.664   5.252   2.447  0.3844 -0.2886 -1.1271
  298SOL     OW 1792   5.407   1.972   2.038 -0.4772 -0.1717 -0.1982
  298SOL    HW1 1793   5.362   1.900   2.090 -0.0349 -0.1364  0.2392
  298SOL    HW2 1794   5.500   1.984   2.072 -0.2839  0.0507 -0.8099
  299SOL     OW 1795   4.034   4.885   5.073 -0.1124 -0.3045 -0.4272
  299SOL    HW1 1796   4.093   4.869   4.995  0.7505  1.3416 -0.1670
  299SOL    HW2 1797   3.941   4.905   5.041  0.5352  1.7470 -1.1782
  300SOL     OW 1798   0.136   5.515   0.395  0.1243  0.7144 -0.0043
  300SOL    HW1 1799   0.236   5.512   0.393  0.1060 -1.0755  0.4917
  300SOL    HW2 1800   0.106   5.563   0.478  0.6303 -2.5559  2.2543
  301SOL     OW 1801   1.532   3.168   6.408 -0.5073 -0.7152 -0.2894
  301SOL    HW1 1802   1.612   3.224   6.388 -1.7367  1.2623  0.0779
  301SOL    HW2 1803   1.561   3.085   6.456  1.5130 -1.1740 -2.1604
  302SOL     OW 1804   1.951   5.435   3.462 -0.0576 -0.7101  0.6051
  302SOL    HW1 1805   2.012   5.372   3.414  3.1968  1.6874  1.2323
  302SOL    HW2 1806   1.887   5.476   3.396  1.0344 -1.0745 -0.7291
  303SOL     OW 1807   2.341   4.399   6.109  0.6802  0.2031  0.2060
  303SOL    HW1 1808   2.300   4.312   6.081  0.8237  0.1858  0.0481
  303SOL    HW2 1809   2.305   4.425   6.199  0.9262 -0.2105  0.4317
  304SOL     OW 1810   2.012   4.695   5.875  0.4473 -0.5564  0.1632
  304SOL    HW1 1811   1.997   4.752   5.794  0.7526  0.8290  1.0350
  304SOL    HW2 1812   2.030   4.601   5.848  1.0210 -0.0245 -1.3958
  305SOL     OW 1813   1.758   0.925   6.677  0.2255 -0.1226  0.6939
  305SOL    HW1 1814   1.673   0.977   6.675 -0.0268 -0.4656  1.6845
  305SOL    HW2 1815   1.827   0.970   6.620 -0.5630  0.2522  0.0265
  306SOL     OW 1816   0.053   3.701   2.933 -0.4614 -0.3694  0.2706
  306SOL    HW1 1817   0.150   3.699   2.957 -0.5724 -2.3956  0.7276
  306SOL    HW2 1818   0.028   3.616   2.886 -1.7292  0.6997 -1.0938
  307SOL     OW 1819   4.780   1.503   2.015 -0.8827 -0.2463  0.0616
  307SOL    HW1 1820   4.710   1.521   2.084 -1.0378  1.1305 -0.4287
  307SOL    HW2 1821   4.754   1.547   1.929  0.5825  0.2920 -0.1319
  308SOL     OW 1822   1.457   4.961   0.317  0.3262  0.5545  0.1831
  308SOL    HW1 1823   1.530   5.020   0.281  0.6008  0.8270  1.1543
  308SOL    HW2 1824   1.461   4.961   0.417  0.1923 -0.9421  0.2093
  309SOL     OW 1825   2.464   0.074   2.103 -0.1060 -0.0426  0.2463
  309SOL    HW1 1826   2.364   0.067   2.104 -0.2163  1.2634  0.7659
  309SOL    HW2 1827   2.500   0.031   2.020 -1.2115  0.6446 -0.6138
  310SOL     OW 1828   5.482   6.599   1.535  0.1147 -0.2906  0.0342
  310SOL    HW1 1829   5.574   6.562   1.546  0.7643  1.1082 -0.5430
  310SOL    HW2 1830   5.467   6.673   1.601  1.3747  3.0835 -3.1240
  311SOL     OW 1831   5.952   2.648   3.003 -0.0127 -0.3085  0.6640
  311SOL    HW1 1832   6.015   2.593   3.059  1.0793  0.4415  0.1954
  311SOL    HW2 1833   6.001   2.684   2.924 -1.2903 -0.5058 -0.2381
  312SOL     OW 1834   5.079   1.945   0.820 -0.7281  0.0136  0.1670
  312SOL    HW1 1835   5.094   2.005   0.899  1.1021  0.8600 -0.7402
  312SOL    HW2 1836   5.101   1.851   0.845  1.1852  0.4695  0.3491
  313SOL     OW 1837   5.196   0.220   1.567 -0.3970  0.2390 -0.4248
  313SOL    HW1 1838   5.266   0.158   1.531  0.8875  1.3627  0.0735
  313SOL    HW2 1839   5.121   0.165   1.605  1.0544 -1.0695  0.7162
  314SOL     OW 1840   2.868   6.841   2.525  0.2870  0.2232 -0.1882
  314SOL    HW1 1841   2.873   6.817   2.622 -0.9616  1.2053  0.1438
  314SOL    HW2 1842   2.775   6.868   2.502  1.1369  2.6858 -1.0182
  315SOL     OW 1843   4.983   6.531   2.026 -0.3930 -0.2121 -0.0620
  315SOL    HW1 1844   5.062   6.475   2.052  0.8583  1.5392  0.0825
  315SOL    HW2 1845   4.919   6.536   2.103 -0.0504 -0.6533  0.2566
  316SOL     OW 1846   1.889   3.783   0.555  0.2768 -0.8860  0.6367
  316SOL    HW1 1847   1.853   3.754   0.466  2.3667 -1.6551 -0.0145
  316SOL    HW2 1848   1.814   3.791   0.620 -1.3361 -0.2244 -1.1887
  317SOL     OW 1849   5.923   2.480   0.453 -0.2081  0.7432  0.4487
  317SOL    HW1 1850   5.840   2.529   0.480 -1.2004  0.4857 -1.9593
  317SOL    HW2 1851   5.994   2.546   0.430 -0.4266  1.0009  0.5032
  318SOL     OW 1852   3.621   2.010   3.708  0.3808 -0.5519 -0.0517
  318SOL    HW1 1853   3.559   1.940   3.673 -0.5572  0.5669 -0.6533
  318SOL    HW2 1854   3.577   2.060   3.782  0.6982  0.0328 -0.2555
  319SOL     OW 1855   1.879   5.285   6.058  0.2402  0.0495 -0.0219
  319SOL    HW1 1856   1.815   5.299   5.982 -1.0288  0.6813  1.1251
  319SOL    HW2 1857   1.883   5.188   6.081  1.0336 -0.2199 -1.2075
  320SOL     OW 1858   1.629   3.180   0.109 -0.2598  0.4272  0.6158
  320SOL    HW1 1859   1.580   3.262   0.078  0.1958  0.8065  0.9046
  320SOL    HW2 1860   1.721   3.204   0.137  0.4939 -0.4489 -0.9751
  321SOL     OW 1861   5.405   3.112   0.028 -0.1437  0.4379 -0.0860
  321SOL    HW1 1862   5.349   3.185  -0.011  0.0678  0.5102 -0.2555
  321SOL    HW2 1863   5.348   3.053   0.086 -0.2612  0.8942  0.2700
  322SOL     OW 1864   2.458   4.239   0.019 -0.5855  0.3485  0.2320
  322SOL    HW1 1865   2.409   4.222   0.104 -1.5124 -2.9969 -0.8106
  322SOL    HW2 1866   2.393   4.245  -0.057  0.3754 -1.5845 -0.8364
  323SOL     OW 1867   0.217   3.601   2.478 -0.0212  0.0198 -0.1946
  323SOL    HW1 1868   0.221   3.518   2.534  2.3301 -0.1108 -0.4886
  323SOL    HW2 1869   0.248   3.679   2.531 -1.2614  0.5626 -0.2373
  324SOL     OW 1870   5.160   3.221   3.541  0.1999  0.1279  0.2413
  324SOL    HW1 1871   5.111   3.262   3.618  1.2133  1.1116  0.3797
  324SOL    HW2 1872   5.102   3.224   3.460  0.4725  2.4677  0.0752
  325SOL     OW 1873   0.966   0.286   3.937 -0.2903 -0.1809 -0.0365
  325SOL    HW1 1874   0.915   0.275   4.022  0.0495 -0.6402  0.1096
  325SOL    HW2 1875   0.916   0.243   3.862 -1.5438  1.8416 -0.4587
  326SOL     OW 1876   5.331   4.552   3.070 -0.1612  0.2147 -0.5057
  326SOL    HW1 1877   5.347   4.651   3.065  0.0266  0.3079  1.3198
  326SOL    HW2 1878   5.241   4.534   3.109  0.7557 -0.2816  1.5274
  327SOL     OW 1879   6.956   3.538   2.456 -0.2741  0.3439 -0.0273
  327SOL    HW1 1880   7.046   3.554   2.496  1.7956 -1.1423 -3.6084
  327SOL    HW2 1881   6.914   3.626   2.432  0.8657  1.0196  0.4025
  328SOL     OW 1882   1.972   6.464   2.373  0.0095 -0.7334 -0.1815
  328SOL    HW1 1883   2.030   6.429   2.300  2.5948 -0.0857  1.4124
  328SOL    HW2 1884   1.942   6.389   2.431  0.6320 -0.9489 -0.1262
  329SOL     OW 1885   3.295   2.972   4.090  0.5371 -0.4460 -0.0201
  329SOL    HW1 1886   3.329   2.970   3.996  1.5131 -0.5364  0.3235
  329SOL    HW2 1887   3.368   2.942   4.153 -0.5300 -1.7571  0.6435
  330SOL     OW 1888   0.247   3.390   0.126  0.3520  0.0089  0.4619
  330SOL    HW1 1889   0.303   3.451   0.182 -0.4544  2.8590 -1.5720
  330SOL    HW2 1890   0.291   3.376   0.037  0.6436 -2.7267  0.9591
  331SOL     OW 1891   6.594   5.847   5.410 -0.1710 -0.1059  0.1066
  331SOL    HW1 1892   6.616   5.823   5.315 -0.1079 -2.1481  0.5978
  331SOL    HW2 1893   6.676   5.883   5.455  0.4846 -1.4565  0.0523
  332SOL     OW 1894   3.787   1.628   1.873 -0.4077  0.3873  0.0985
  332SOL    HW1 1895   3.815   1.623   1.777 -1.4093  0.0029 -0.1938
  332SOL    HW2 1896   3.760   1.722   1.895  2.7220  1.2085  0.9024
  333SOL     OW 1897   4.668   5.019   4.488 -0.0223  0.3875  0.4619
  333SOL    HW1 1898   4.642   5.044   4.394 -1.6250 -0.7235  0.5698
  333SOL    HW2 1899   4.615   5.074   4.553  0.2653  0.3700  0.7122
  334SOL     OW 1900   4.218   5.938   5.247  0.2666 -0.4586  0.4612
  334SOL    HW1 1901   4.138   5.966   5.194  0.6757  0.6511  0.4053
  334SOL    HW2 1902   4.201   5.954   5.344  0.9176  1.1420  0.3459
  335SOL     OW 1903   3.029   0.131   6.308 -0.3125 -0.2765 -0.3226
  335SOL    HW1 1904   3.123   0.166   6.300  0.0598 -1.4474 -1.3568
  335SOL    HW2 1905   3.019   0.049   6.253 -1.5369 -1.0580  0.9794
  336SOL     OW 1906   6.371   4.530   5.420 -0.2450  0.4838 -0.2302
  336SOL    HW1 1907   6.389   4.609   5.479  0.5981  0.3702 -0.3195
  336SOL    HW2 1908   6.445   4.522   5.352 -0.4770 -0.2098 -0.4105
  337SOL     OW 1909   6.041   0.165   6.799 -0.4142 -0.2870  0.3340
  337SOL    HW1 1910   5.977   0.205   6.734  0.3597  1.4211  0.5863
  337SOL    HW2 1911   6.124   0.137   6.751  0.0389  0.7064  0.5170
  338SOL     OW 1912   2.728   5.436   1.379 -0.3798 -0.5700  0.2991
  338SOL    HW1 1913   2.699   5.517   1.431 -0.0416 -0.9651  1.1188
  338SOL    HW2 1914   2.686   5.438   1.288 -1.1927 -0.0043  0.6786
  339SOL     OW 1915   3.364   6.313   5.618 -0.0940 -0.0895 -0.2762
  339SOL    HW1 1916   3.335   6.376   5.690 -2.3808  1.8238 -2.6871
  339SOL    HW2 1917   3.407   6.363   5.544 -2.8687 -1.0121 -2.7318
  340SOL     OW 1918   3.387   4.227   0.369  0.1237 -0.1673  0.0524
  340SOL    HW1 1919   3.470   4.180   0.400  0.0076  0.2688  1.0621
  340SOL    HW2 1920   3.343   4.271   0.447 -0.6683  0.2193 -0.6029
  341SOL     OW 1921   5.267   4.395   1.249  0.9044 -0.1997  0.2634
  341SOL    HW1 1922   5.230   4.392   1.342  0.5300  0.2943  0.1379
  341SOL    HW2 1923   5.199   4.362   1.185  0.9428  0.0219  0.1059
  342SOL     OW 1924   0.202   0.226   5.731 -0.2209 -0.3894  0.3122
  342SOL    HW1 1925   0.220   0.171   5.812  1.5748  0.8188  0.7968
  342SOL    HW2 1926   0.194   0.167   5.651  0.3966 -1.4287  1.0057
  343SOL     OW 1927   1.717   0.122   6.569 -0.5480 -0.1260  0.1046
  343SOL    HW1 1928   1.698   0.148   6.475 -0.3389 -0.0171  0.0909
  343SOL    HW2 1929   1.741   0.203   6.622  0.9377 -0.3682 -0.1391
  344SOL     OW 1930   2.901   4.995   5.331  0.2069 -0.0132  0.0232
  344SOL    HW1 1931   2.941   4.906   5.309  1.0572 -0.0770  1.6059
  344SOL    HW2 1932   2.850   5.029   5.253 -0.0135 -1.8146 -0.6743
  345SOL     OW 1933   5.737   0.957   2.695 -0.1339 -0.0968 -0.2663
  345SOL    HW1 1934   5.722   0.981   2.599 -0.3908 -0.1113 -0.2318
  345SOL    HW2 1935   5.661   0.991   2.750  0.3358  0.4815  0.0282
  346SOL     OW 1936   5.613   6.091   5.918  0.5316  0.4116  0.4695
  346SOL    HW1 1937   5.694   6.040   5.946  0.4031  0.4948  1.0046
  346SOL    HW2 1938   5.605   6.090   5.818  1.0426  0.1783  0.4302
  347SOL     OW 1939   5.382   6.686   6.738 -0.0255 -0.1439 -0.2163
  347SOL    HW1 1940   5.464   6.630   6.740 -0.4218 -0.7422 -0.4768
  347SOL    HW2 1941   5.308   6.640   6.787 -0.1511  0.4900  0.2114
  348SOL     OW 1942   5.788   3.995   2.037  0.1411 -0.1303 -0.4451
  348SOL    HW1 1943   5.776   4.043   1.950 -0.8243 -0.3442 -0.4398
  348SOL    HW2 1944   5.704   4.002   2.090  0.3588 -0.9143  0.0131
  349SOL     OW 1945   2.339   5.164   6.368 -0.0323 -0.8483  0.0676
  349SOL    HW1 1946   2.425   5.120   6.344  0.0413  0.0798 -1.5304
  349SOL    HW2 1947   2.341   5.260   6.340 -2.0370 -1.1161 -1.2236
  350SOL     OW 1948   1.308   4.223   1.402 -0.6002  0.6763  0.5911
  350SOL    HW1 1949   1.362   4.166   1.465 -2.8101 -1.5567  0.6028
  350SOL    HW2 1950   1.340   4.209   1.309  0.5146  1.4363  0.8342
  351SOL     OW 1951   6.331   5.579   6.077  0.2195 -0.4971  0.8986
  351SOL    HW1 1952   6.376   5.495   6.046  1.0797  0.5171 -0.7517
  351SOL    HW2 1953   6.303   5.633   5.998 -2.7169 -0.3970  1.8915
  352SOL     OW 1954   4.161   4.813   1.585 -0.0517  0.1491 -0.5974
  352SOL    HW1 1955   4.118   4.809   1.675 -0.5012 -0.8618 -0.8381
  352SOL    HW2 1956   4.096   4.781   1.516  1.4567 -2.7026 -0.8348
  353SOL     OW 1957   4.806   2.683   1.619 -0.3600 -0.2572 -0.0636
  353SOL    HW1 1958   4.734   2.721   1.677 -0.0697  0.2051 -0.0028
  353SOL    HW2 1959   4.795   2.717   1.526  2.1521  3.2108  0.7277
  354SOL     OW 1960   5.187   1.677   6.469  0.2847 -0.0040  0.2146
  354SOL    HW1 1961   5.128   1.749   6.432  0.5937  0.0755 -0.1251
  354SOL    HW2 1962   5.131   1.597   6.492  0.2847 -0.7941 -2.1918
  355SOL     OW 1963   0.151   6.290   1.296  0.2679 -0.7713 -0.1769
  355SOL    HW1 1964   0.222   6.360   1.309  0.2405 -0.9207  0.9095
  355SOL    HW2 1965   0.174   6.233   1.218  0.2727  0.4645 -1.1142
  356SOL     OW 1966   5.128   6.821   2.918 -0.5101 -0.1082  0.4207
  356SOL    HW1 1967   5.196   6.759   2.880 -1.6576 -0.8200 -0.5317
  356SOL    HW2 1968   5.056   6.769   2.963 -1.6727  0.4745 -0.7037
  357SOL     OW 1969   2.330   6.664   4.900  0.0361  0.1309 -0.5064
  357SOL    HW1 1970   2.239   6.623   4.901  0.3837 -0.6448  0.0317
  357SOL    HW2 1971   2.322   6.763   4.894 -0.8673  0.1310  0.4560
  358SOL     OW 1972   3.175   4.875   5.043 -0.1398  0.0449  0.0740
  358SOL    HW1 1973   3.156   4.894   4.946 -1.1783  1.5920  0.5576
  358SOL    HW2 1974   3.218   4.954   5.085  2.1671 -1.3224  0.4582
  359SOL     OW 1975   1.211   5.864   3.399 -0.4787 -0.6823 -0.0610
  359SOL    HW1 1976   1.197   5.862   3.498  0.7063  1.3032  0.1962
  359SOL    HW2 1977   1.293   5.812   3.375  0.0791  0.0643  0.1962
  360SOL     OW 1978   3.953   0.917   4.341  0.3286  0.5408  0.1162
  360SOL    HW1 1979   4.016   0.907   4.419  2.7406 -0.9786 -1.8932
  360SOL    HW2 1980   3.927   0.827   4.307 -2.1927  1.1546  0.1919
  361SOL     OW 1981   0.370   5.119   5.725 -0.7090  0.1380  0.3383
  361SOL    HW1 1982   0.395   5.216   5.718  2.5484 -0.5612  0.9018
  361SOL    HW2 1983   0.308   5.095   5.650 -0.9404  2.4316 -0.2888
  362SOL     OW 1984   5.431   5.921   1.771  0.0632  0.1578  0.0172
  362SOL    HW1 1985   5.482   5.941   1.687  0.7014  0.9313  0.5684
  362SOL    HW2 1986   5.348   5.975   1.773 -0.9829 -1.3407 -1.0340
  363SOL     OW 1987   5.658   2.775   1.489  0.2604 -0.2967  0.3421
  363SOL    HW1 1988   5.666   2.858   1.434 -0.0025  0.9712  2.1355
  363SOL    HW2 1989   5.623   2.701   1.433 -1.9374  1.4529 -0.7435
  364SOL     OW 1990   3.195   3.599   6.026  0.1360 -0.3425  0.9767
  364SOL    HW1 1991   3.233   3.627   6.114  3.7405 -2.1234  0.1761
  364SOL    HW2 1992   3.202   3.500   6.017 -1.2198 -0.3233 -0.8853
  365SOL     OW 1993   5.167   6.843   6.375  0.4955 -0.4052  0.1297
  365SOL    HW1 1994   5.217   6.756   6.367  0.3882 -0.3430 -1.6136
  365SOL    HW2 1995   5.226   6.918   6.345 -0.2051 -0.1875 -0.7574
  366SOL     OW 1996   0.965   3.096   3.938  0.2637  0.1211  0.1043
  366SOL    HW1 1997   0.895   3.123   3.872 -0.5960 -3.2320 -0.5454
  366SOL    HW2 1998   0.983   2.998   3.929  2.4422  0.1663  2.7475
  367SOL     OW 1999   5.102   3.732   1.282 -0.3525  0.4566 -0.1223
  367SOL    HW1 2000   5.055   3.661   1.334  1.2274 -0.7763 -0.2920
  367SOL    HW2 2001   5.104   3.817   1.335 -2.4046  0.4674  0.0215
  368SOL     OW 2002   2.302   1.437   3.426  0.3342 -0.0737 -0.6477
  368SOL    HW1 2003   2.364   1.498   3.475 -0.7813  0.8538 -0.3293
  368SOL    HW2 2004   2.247   1.386   3.492 -0.2271  0.1792 -0.9067
  369SOL     OW 2005   4.090   3.604   2.309 -0.5023  0.1972 -0.2648
  369SOL    HW1 2006   4.173   3.630   2.260 -1.0699  1.2023 -0.7296
  369SOL    HW2 2007   4.020   3.675   2.296 -1.5921 -0.8419 -0.2772
  370SOL     OW 2008   1.165   0.078   0.252 -0.3353 -0.5230  0.6422
  370SOL    HW1 2009   1.165   0.167   0.298 -0.8490 -1.1569  1.9099
  370SOL    HW2 2010   1.222   0.083   0.170 -0.6266  1.0658  0.5046
  371SOL     OW 2011   2.530   4.263   5.310 -0.9942 -0.5218  0.3396
  371SOL    HW1 2012   2.481   4.188   5.267 -0.0310 -0.6324 -0.6221
  371SOL    HW2 2013   2.629   4.249   5.299 -0.7938  0.7691  0.3280
  372SOL     OW 2014   4.941   4.325   0.234 -0.0225  0.1609 -0.1740
  372SOL    HW1 2015   4.862   4.359   0.183  0.6711  0.0381 -1.3541
  372SOL    HW2 2016   5.012   4.396   0.238  0.9589 -0.6747 -1.6408
  373SOL     OW 2017   3.270   0.230   4.052 -0.3476  0.0539  0.1329
  373SOL    HW1 2018   3.180   0.266   4.075 -1.2983 -1.4657 -1.0209
  373SOL    HW2 2019   3.295   0.158   4.116 -0.8520 -0.8768 -0.6964
  374SOL     OW 2020   2.608   5.067   4.920  0.4045  0.6766  0.3511
  374SOL    HW1 2021   2.605   5.167   4.916 -2.0797  0.6317 -0.9031
  374SOL    HW2 2022   2.556   5.029   4.843 -0.1724 -1.5444  1.7308
  375SOL     OW 2023   5.465   3.908   1.029 -0.1795 -0.3149  0.4852
  375SOL    HW1 2024   5.403   3.919   1.107 -2.7152 -0.2828 -1.4054
  375SOL    HW2 2025   5.537   3.977   1.034 -1.1370  0.6502  2.0140
  376SOL     OW 2026   5.489   2.653   0.755 -0.1441 -0.4478 -0.2205
  376SOL    HW1 2027   5.391   2.655   0.733 -0.5093 -1.3715  1.2027
  376SOL    HW2 2028   5.513   2.736   0.806 -0.6681 -1.1621  1.2349
  377SOL     OW 2029   5.629   0.617   4.402  0.6087 -0.4773 -0.7322
  377SOL    HW1 2030   5.610   0.640   4.497  1.3191 -1.8732 -0.2159
  377SOL    HW2 2031   5.662   0.698   4.354 -0.4095  0.4016  0.0247
  378SOL     OW 2032   1.185   5.751   4.445 -0.0895 -0.0720  0.3612
  378SOL    HW1 2033   1.159   5.742   4.541 -2.5325  1.3107 -0.0871
  378SOL    HW2 2034   1.279   5.782   4.439  0.4966 -1.2808  2.2496
  379SOL     OW 2035   6.289   0.752   2.284  0.5969 -0.0390 -0.4835
  379SOL    HW1 2036   6.357   0.684   2.257  1.5677  0.0461  1.5435
  379SOL    HW2 2037   6.304   0.778   2.380 -0.6760  1.9285 -0.7562
  380SOL     OW 2038   6.583   2.465   5.183  0.1455  0.3191  0.0060
  380SOL    HW1 2039   6.621   2.373   5.183 -0.2044  0.1567 -1.0528
  380SOL    HW2 2040   6.635   2.522   5.119  0.0102  0.7078  0.2379
  381SOL     OW 2041   5.196   3.478   5.332  0.4565 -0.5003 -0.4046
  381SOL    HW1 2042   5.107   3.521   5.348  1.4138  1.3279  0.3361
  381SOL    HW2 2043   5.255   3.493   5.411  1.7469 -0.8476 -1.2620
  382SOL     OW 2044   6.089   3.925   3.650 -0.1672  0.3690 -0.3766
  382SOL    HW1 2045   6.106   3.826   3.649 -0.3683  0.3294  0.0809
  382SOL    HW2 2046   6.024   3.948   3.577  1.0474  0.3845 -1.4901
  383SOL     OW 2047   5.114   0.007   3.434  0.3733 -0.2820 -0.5122
  383SOL    HW1 2048   5.035  -0.014   3.376  0.4379  1.0114 -1.1055
  383SOL    HW2 2049   5.181  -0.068   3.427 -0.3999 -0.9658 -0.7068
  384SOL     OW 2050   5.197   0.290   6.479  0.1634  0.3716  0.6089
  384SOL    HW1 2051   5.105   0.295   6.518 -0.0586 -0.4498  0.2076
  384SOL    HW2 2052   5.224   0.194   6.470  1.5019  0.6128  1.7373
  385SOL     OW 2053   0.651   1.826   6.242  0.6131 -0.2119 -0.2436
  385SOL    HW1 2054   0.710   1.824   6.323 -0.0877 -0.8212  0.2608
  385SOL    HW2 2055   0.676   1.904   6.185  3.5453 -1.7594 -1.2721
  386SOL     OW 2056   2.624   1.171   6.764 -0.3146  0.0753  0.0769
  386SOL    HW1 2057   2.593   1.262   6.736 -2.0046 -0.4755  0.0306
  386SOL    HW2 2058   2.664   1.175   6.855 -0.9522  0.7663  0.3321
  387SOL     OW 2059   0.816   6.998   2.806  0.3724 -0.0567  0.0622
  387SOL    HW1 2060   0.738   7.058   2.821 -0.2090 -0.7615 -0.0698
  387SOL    HW2 2061   0.895   7.052   2.778 -0.6028  0.4850 -1.7829
  388SOL     OW 2062   5.863   1.626   4.865  0.5318  0.0163 -0.6175
  388SOL    HW1 2063   5.808   1.699   4.824 -0.6644 -0.7235 -0.3699
  388SOL    HW2 2064   5.876   1.646   4.962  0.0360 -0.1893 -0.5052
  389SOL     OW 2065   5.705   2.484   1.112 -0.0910 -0.0701 -0.5961
  389SOL    HW1 2066   5.697   2.556   1.181  1.0893  0.8085 -1.3500
  389SOL    HW2 2067   5.675   2.397   1.151  3.8642 -0.3982  2.2928
  390SOL     OW 2068   1.622   5.949   6.266 -0.1605 -0.8437 -0.2641
  390SOL    HW1 2069   1.559   5.880   6.303  0.1629 -1.5155 -0.9426
  390SOL    HW2 2070   1.714   5.912   6.262  0.1469 -0.1270  0.0058
  391SOL     OW 2071   4.594   0.431   0.886 -0.0829 -0.4009 -0.0956
  391SOL    HW1 2072   4.511   0.386   0.918 -1.3593  1.3139 -0.9122
  391SOL    HW2 2073   4.644   0.368   0.825 -0.6622 -1.5036  0.5333
  392SOL     OW 2074   3.664   5.989   2.006  0.0747 -0.4612 -0.3629
  392SOL    HW1 2075   3.642   5.991   1.909 -2.9925  0.4540  0.2379
  392SOL    HW2 2076   3.579   5.989   2.059  1.6446 -1.3841  2.3371
  393SOL     OW 2077   6.406   1.382   5.914 -0.3340 -0.8027  0.2990
  393SOL    HW1 2078   6.335   1.323   5.952 -1.0191 -0.7461 -0.8764
  393SOL    HW2 2079   6.364   1.454   5.859  0.5752 -0.0284  0.5827
  394SOL     OW 2080   4.980   0.840   0.553 -0.6000  0.5004 -0.3123
  394SOL    HW1 2081   4.944   0.766   0.611 -1.6597 -0.0150 -1.5964
  394SOL    HW2 2082   4.973   0.927   0.603 -2.1462  0.1763  0.0861
  395SOL     OW 2083   2.494   5.359   2.344  0.7126  0.7212 -0.5931
  395SOL    HW1 2084   2.548   5.343   2.261  0.4262 -1.2745 -0.4493
  395SOL    HW2 2085   2.440   5.442   2.333  3.7113  2.8138 -0.7664
  396SOL     OW 2086   4.872   3.499   3.752 -0.5504  0.0841  0.5373
  396SOL    HW1 2087   4.887   3.500   3.654  0.2212  0.5735  0.6473
  396SOL    HW2 2088   4.860   3.405   3.784 -1.7116 -0.0127 -0.1455
  397SOL     OW 2089   3.051   5.186   3.514 -0.4437 -0.7055  0.2376
  397SOL    HW1 2090   3.118   5.146   3.452  0.0757  0.0451  0.2981
  397SOL    HW2 2091   3.003   5.261   3.468 -2.1292 -1.9972 -0.2179
  398SOL     OW 2092   6.186   1.036   5.783  0.4860 -0.7358  0.2865
  398SOL    HW1 2093   6.275   1.061   5.822  0.8746  0.3337 -1.1982
  398SOL    HW2 2094   6.197   1.016   5.685 -1.1781  1.4694 -0.4457
  399SOL     OW 2095   0.016   1.502   3.285 -0.1241 -0.2685  0.0356
  399SOL    HW1 2096   0.029   1.593   3.243  1.2592 -0.2076  0.5170
  399SOL    HW2 2097   0.029   1.432   3.215 -1.5340 -0.0984 -0.4116
  400SOL     OW 2098   3.533   1.197   0.411  0.2015 -0.3002 -0.3450
  400SOL    HW1 2099   3.456   1.218   0.350  1.2607  1.6458 -1.1123
  400SOL    HW2 2100   3.515   1.112   0.460 -2.4210  0.0986 -0.4879
  401SOL     OW 2101   5.321   4.622   3.796 -0.1132  0.0520 -0.2726
  401SOL    HW1 2102   5.269   4.571   3.728 -0.6077  0.9137 -0.5673
  401SOL    HW2 2103   5.383   4.686   3.750  0.4736 -0.2518  0.0830
  402SOL     OW 2104   2.308   0.376   4.063  0.3413 -0.0080  0.0215
  402SOL    HW1 2105   2.352   0.465   4.048  0.1956 -0.0380 -0.5816
  402SOL    HW2 2106   2.297   0.362   4.161  1.7853 -0.0512  0.2076
  403SOL     OW 2107   1.932   1.075   3.765 -0.2822  0.1978 -0.1057
  403SOL    HW1 2108   1.987   1.128   3.699 -0.1368  0.1189 -0.0469
  403SOL    HW2 2109   1.853   1.036   3.717 -1.5921  2.2424  0.2724
  404SOL     OW 2110   4.789   1.586   6.106 -0.0026  0.2878 -0.0562
  404SOL    HW1 2111   4.803   1.537   6.020  0.1146  0.8450 -0.3584
  404SOL    HW2 2112   4.778   1.684   6.088 -1.7746  0.2171  0.3917
  405SOL     OW 2113   0.864   4.108   6.536  0.9210 -0.1295  0.6667
  405SOL    HW1 2114   0.846   4.118   6.439 -0.3265 -0.2093  0.8781
  405SOL    HW2 2115   0.918   4.025   6.552  1.6364  0.1984  0.0034
  406SOL     OW 2116   6.388   1.717   1.584  0.1874  0.9795 -0.5791
  406SOL    HW1 2117   6.358   1.727   1.679 -1.8769  1.1348 -1.2003
  406SOL    HW2 2118   6.460   1.784   1.566  2.7557 -0.9455  1.6102
  407SOL     OW 2119   0.215   3.266   1.834  0.3450  0.3549 -0.1420
  407SOL    HW1 2120   0.219   3.365   1.816 -0.1819  0.4201  0.0886
  407SOL    HW2 2121   0.292   3.241   1.893  0.9918  0.4677 -0.9177
  408SOL     OW 2122   2.499   6.208   3.667 -0.3496 -0.2708  0.3577
  408SOL    HW1 2123   2.594   6.236   3.679 -0.3258  0.6301 -1.5293
  408SOL    HW2 2124   2.442   6.249   3.738  0.7920 -1.7741  2.2326
  409SOL     OW 2125   0.882   4.119   2.725 -0.3778 -0.2996  0.6795
  409SOL    HW1 2126   0.787   4.122   2.756 -0.4050  0.7302  0.5145
  409SOL    HW2 2127   0.906   4.206   2.682  0.1184 -1.1480 -0.8364
  410SOL     OW 2128   6.471   4.510   1.776 -0.3470 -0.0655  0.0689
  410SOL    HW1 2129   6.527   4.592   1.790 -0.3001  0.0961 -1.0151
  410SOL    HW2 2130   6.376   4.532   1.794 -0.3887  0.3460 -0.6167
  411SOL     OW 2131   4.229   6.285   5.139  0.2351  0.2141  0.7637
  411SOL    HW1 2132   4.255   6.194   5.106 -0.7860  0.4463 -0.8039
  411SOL    HW2 2133   4.288   6.354   5.098  0.7574  0.3167  1.6524
  412SOL     OW 2134   1.542   3.769   4.504  0.8211  0.4475 -0.1144
  412SOL    HW1 2135   1.470   3.707   4.535 -0.4828  0.5320 -2.7093
  412SOL    HW2 2136   1.630   3.723   4.506  0.1805 -0.7993 -0.1231
  413SOL     OW 2137   6.283   2.979   5.150 -0.4445  0.3265 -0.3896
  413SOL    HW1 2138   6.201   2.999   5.202 -0.1278 -1.3119  0.8211
  413SOL    HW2 2139   6.361   3.028   5.189 -0.2517 -0.7169  0.5765
  414SOL     OW 2140   6.023   3.105   5.532  0.7090 -0.0046 -0.2652
  414SOL    HW1 2141   5.938   3.098   5.584  0.3737  1.1545 -0.6331
  414SOL    HW2 2142   6.068   3.015   5.530  0.5785 -0.1690  1.7520
  415SOL     OW 2143   6.853   3.666   0.852 -0.1960  0.2362  0.0701
  415SOL    HW1 2144   6.944   3.635   0.880 -0.3043 -1.0242 -0.8520
  415SOL    HW2 2145   6.838   3.641   0.756 -2.3434 -1.6182  0.8035
  416SOL     OW 2146   0.989   6.041   5.968  1.0302 -0.5475 -0.2038
  416SOL    HW1 2147   1.045   6.072   5.892  0.4911  0.1042 -0.3414
  416SOL    HW2 2148   0.894   6.029   5.938  1.0207 -1.3442  0.0999
  417SOL     OW 2149   2.730   5.767   0.812  0.2027  0.0613  0.8004
  417SOL    HW1 2150   2.820   5.802   0.788  0.2002  1.9992  3.1804
  417SOL    HW2 2151   2.660   5.835   0.788 -0.4489 -0.6384  0.6436
  418SOL     OW 2152   0.405   5.932   1.707  0.1274  0.7983  0.2996
  418SOL    HW1 2153   0.362   5.961   1.792  1.3373 -0.2792  1.3182
  418SOL    HW2 2154   0.360   5.850   1.672  0.0650  0.8471  0.2653
  419SOL     OW 2155   1.060   4.489   4.309  0.0474  0.5723 -0.1142
  419SOL    HW1 2156   0.970   4.448   4.325  0.0594  0.8333  0.6892
  419SOL    HW2 2157   1.087   4.541   4.390  0.0438  2.1450 -1.0957
  420SOL     OW 2158   6.697   3.908   6.175 -0.7831  0.0357 -0.4297
  420SOL    HW1 2159   6.701   3.829   6.236  0.8869  0.6099  0.2560
  420SOL    HW2 2160   6.744   3.886   6.089 -0.0103  0.3820 -0.1019
  421SOL     OW 2161   0.603   0.938   1.188  0.6276  0.4412 -0.1477
  421SOL    HW1 2162   0.653   0.860   1.152  0.6985  1.1606 -1.7026
  421SOL    HW2 2163   0.668   1.012   1.208  0.4666  0.4294  0.4150
  422SOL     OW 2164   5.006   0.922   5.174 -0.9263  0.3699 -0.0577
  422SOL    HW1 2165   4.935   0.860   5.142 -1.4682  0.6441  0.5805
  422SOL    HW2 2166   5.065   0.949   5.098 -2.0811  0.8953 -0.7915
  423SOL     OW 2167   3.087   4.812   1.887 -0.1621  0.2829  0.2131
  423SOL    HW1 2168   3.016   4.747   1.860 -0.1930  1.0548 -1.7268
  423SOL    HW2 2169   3.070   4.900   1.842  1.9489  0.5276 -0.1834
  424SOL     OW 2170   5.346   4.193   3.908 -0.5878  0.0129  0.0438
  424SOL    HW1 2171   5.446   4.195   3.901 -0.3529  1.5057  2.6055
  424SOL    HW2 2172   5.307   4.166   3.820  2.0661 -1.4365 -0.8071
  425SOL     OW 2173   1.131   3.100   6.527  0.2469 -0.3634  0.2742
  425SOL    HW1 2174   1.225   3.098   6.561  0.7976  0.7530 -1.0638
  425SOL    HW2 2175   1.121   3.037   6.450 -0.9323 -2.7102  2.2160
  426SOL     OW 2176   6.698   3.343   0.006 -0.4050  0.6549 -0.3298
  426SOL    HW1 2177   6.619   3.381   0.055 -0.4024 -0.2644  0.4188
  426SOL    HW2 2178   6.729   3.408  -0.063 -0.3753  2.0210  0.9301
  427SOL     OW 2179   1.592   2.620   6.483 -0.1379  0.2761 -0.1152
  427SOL    HW1 2180   1.662   2.686   6.454  0.4192 -0.7159 -1.0976
  427SOL    HW2 2181   1.609   2.593   6.577  1.1130 -0.3077 -0.4837
  428SOL     OW 2182   1.237   0.205   3.774 -0.0056 -0.3943 -0.2917
  428SOL    HW1 2183   1.189   0.240   3.854  0.2752 -1.2982  0.2863
  428SOL    HW2 2184   1.171   0.170   3.708 -0.1847 -1.3286  0.3557
  429SOL     OW 2185   0.661   0.873   5.658 -0.3854 -0.0074  0.7163
  429SOL    HW1 2186   0.573   0.902   5.620  0.6990  0.3736 -1.6703
  429SOL    HW2 2187   0.726   0.949   5.656 -0.0207 -0.2095  2.6826
  430SOL     OW 2188   5.217   3.568   1.852  0.2221 -0.1852 -0.2009
  430SOL    HW1 2189   5.290   3.507   1.820  0.5394 -0.4186  0.9113
  430SOL    HW2 2190   5.163   3.521   1.921 -0.7733  0.1155 -0.7639
  431SOL     OW 2191   0.325   0.860   1.175 -0.3912 -0.0787 -0.5207
  431SOL    HW1 2192   0.257   0.841   1.246 -1.8466  0.3498 -1.7460
  431SOL    HW2 2193   0.417   0.845   1.212 -1.0433  0.9073  1.6960
  432SOL     OW 2194   5.884   1.163   4.906  0.0632 -0.7309  0.1795
  432SOL    HW1 2195   5.885   1.066   4.928  1.5921 -1.1298 -1.4309
  432SOL    HW2 2196   5.956   1.210   4.958  2.2256 -1.2956 -2.0956
  433SOL     OW 2197   2.012   6.795   5.679 -0.1883 -0.5024  0.1823
  433SOL    HW1 2198   2.070   6.823   5.602  0.2105 -1.1597  0.2353
  433SOL    HW2 2199   1.945   6.728   5.648 -2.8082  2.2104 -0.5163
  434SOL     OW 2200   4.762   2.920   4.116 -0.5673  0.3768 -0.3883
  434SOL    HW1 2201   4.848   2.956   4.081 -0.0516 -0.5506 -0.0974
  434SOL    HW2 2202   4.730   2.846   4.055 -0.1769 -0.5663  0.5252
  435SOL     OW 2203   2.308   4.922   3.620 -0.1623 -0.1666 -0.0600
  435SOL    HW1 2204   2.215   4.958   3.622  0.2502  0.9373  1.3181
  435SOL    HW2 2205   2.319   4.853   3.691  0.3341  0.4568  0.4828
  436SOL     OW 2206   3.138   5.081   2.777 -0.0336  0.8021  0.7553
  436SOL    HW1 2207   3.126   5.169   2.730 -1.6622  1.0128  1.4772
  436SOL    HW2 2208   3.190   5.096   2.862 -0.6987  1.1790  1.1109
  437SOL     OW 2209   6.691   5.960   2.740  0.5237 -0.1161 -0.1990
  437SOL    HW1 2210   6.729   5.955   2.648  3.5798 -1.3605  0.9834
  437SOL    HW2 2211   6.759   6.000   2.802 -1.6152  1.1577  1.4859
  438SOL     OW 2212   4.910   4.501   2.181 -0.4833 -0.5406 -0.3952
  438SOL    HW1 2213   4.977   4.496   2.256  0.9901  0.0978 -1.6095
  438SOL    HW2 2214   4.939   4.571   2.115 -2.5566 -0.0037 -0.8143
  439SOL     OW 2215   1.846   4.286   2.705  0.9785  0.3625  0.4390
  439SOL    HW1 2216   1.885   4.330   2.786  0.6777  0.3233  0.6095
  439SOL    HW2 2217   1.749   4.308   2.699  0.2539 -1.9907  1.7801
  440SOL     OW 2218   0.529   0.732   3.392 -0.8485  0.1019 -0.4690
  440SOL    HW1 2219   0.459   0.803   3.389  0.7114  1.7830  1.0940
  440SOL    HW2 2220   0.609   0.762   3.341  0.4160  0.2002  1.4818
  441SOL     OW 2221   0.021   0.016   6.035  0.5666  0.5243 -0.1722
  441SOL    HW1 2222   0.010   0.102   5.985  1.3799  1.6444  1.4635
  441SOL    HW2 2223  -0.031   0.021   6.121  1.5977 -0.1026  0.5088
  442SOL     OW 2224   3.381   6.788   0.122 -0.1272  0.0113  0.5939
  442SOL    HW1 2225   3.380   6.774   0.023 -1.8525  0.7081  0.4714
  442SOL    HW2 2226   3.378   6.886   0.142 -0.5462 -0.1378  1.3178
  443SOL     OW 2227   6.806   6.828   5.960  0.6961  0.2426  0.4125
  443SOL    HW1 2228   6.888   6.884   5.970  0.9314 -0.2036  1.0738
  443SOL    HW2 2229   6.802   6.762   6.034 -1.0023  1.1766  1.2032
  444SOL     OW 2230   3.313   1.228   0.251  0.5434 -0.1184 -0.0236
  444SOL    HW1 2231   3.264   1.312   0.226 -0.1744 -0.6407 -0.3905
  444SOL    HW2 2232   3.281   1.152   0.195 -0.2925 -1.0851  1.6749
  445SOL     OW 2233   6.566   2.774   2.842  0.3625  0.0850 -0.7267
  445SOL    HW1 2234   6.522   2.856   2.805  1.4451  0.5006 -1.1461
  445SOL    HW2 2235   6.496   2.711   2.875 -0.6852 -0.2462 -3.3085
  446SOL     OW 2236   3.794   4.815   0.707 -0.4098  0.0192  0.6370
  446SOL    HW1 2237   3.747   4.742   0.657  1.2328  0.3114 -1.4693
  446SOL    HW2 2238   3.727   4.879   0.744 -1.7244 -0.2228 -1.2219
  447SOL     OW 2239   5.322   1.918   6.096 -0.1185  0.3002 -0.4945
  447SOL    HW1 2240   5.236   1.867   6.096 -1.2142  2.0245 -1.3112
  447SOL    HW2 2241   5.337   1.959   6.186 -0.5141  0.5559 -0.5438
  448SOL     OW 2242   2.033   0.212   1.426 -0.4573 -0.5412  0.2952
  448SOL    HW1 2243   2.025   0.228   1.328 -0.7888  3.3938  0.8006
  448SOL    HW2 2244   2.126   0.182   1.448 -0.0612 -0.3899 -1.0870
  449SOL     OW 2245   4.142   4.971   1.346 -0.6035 -0.2840  0.2675
  449SOL    HW1 2246   4.145   4.985   1.445 -0.1498  0.5847  0.1436
  449SOL    HW2 2247   4.185   4.884   1.324 -0.9538 -0.6103  0.8588
  450SOL     OW 2248   0.909   0.573   1.824  0.3090 -0.2529 -0.3859
  450SOL    HW1 2249   0.913   0.670   1.849  0.2464  0.0134 -1.3646
  450SOL    HW2 2250   0.819   0.552   1.786  0.8556 -0.2841 -1.7168
  451SOL     OW 2251   5.526   3.196   3.144 -0.6162 -0.1848  0.3208
  451SOL    HW1 2252   5.574   3.110   3.126  1.7887  1.1576 -0.0407
  451SOL    HW2 2253   5.486   3.192   3.236 -2.2044 -2.3433 -0.3708
  452SOL     OW 2254   6.771   1.549   2.754 -0.2876  0.0656 -0.1177
  452SOL    HW1 2255   6.791   1.643   2.725 -0.1658 -0.4052 -1.6090
  452SOL    HW2 2256   6.787   1.541   2.853  1.0849  1.2481 -0.2077
  453SOL     OW 2257   4.847   2.524   5.386 -0.9283 -0.0685 -0.3491
  453SOL    HW1 2258   4.832   2.475   5.300 -3.7008  0.1677 -0.0914
  453SOL    HW2 2259   4.884   2.615   5.367  0.6151 -0.8060 -1.0802
  454SOL     OW 2260   2.669   1.690   1.553 -0.2932  0.1076  0.5685
  454SOL    HW1 2261   2.611   1.681   1.635 -2.0318 -0.0869 -0.6307
  454SOL    HW2 2262   2.704   1.601   1.527  1.2645  0.3280  1.7422
  455SOL     OW 2263   6.113   6.980   3.226  0.4950 -0.0567 -0.3267
  455SOL    HW1 2264   6.073   6.981   3.318 -0.1841  0.7117 -0.6182
  455SOL    HW2 2265   6.134   6.886   3.200  1.6806 -0.2028  1.0205
  456SOL     OW 2266   2.160   6.972   6.028  0.2989 -0.0548  0.1199
  456SOL    HW1 2267   2.133   7.030   5.951  0.6975  0.5420  0.4258
  456SOL    HW2 2268   2.078   6.944   6.077  0.1908  2.5859  1.6515
  457SOL     OW 2269   4.629   3.056   5.617 -0.4982 -0.0553 -0.1927
  457SOL    HW1 2270   4.606   3.095   5.527  1.2711 -0.2640 -0.7809
  457SOL    HW2 2271   4.685   3.122   5.668 -1.3148 -0.0267  0.6928
  458SOL     OW 2272   5.539   6.907   4.617  0.0420  0.6878  0.0872
  458SOL    HW1 2273   5.497   6.952   4.696  0.9667  0.0528  0.9607
  458SOL    HW2 2274   5.635   6.934   4.610  0.1361  0.2362 -0.4342
  459SOL     OW 2275   5.682   2.178   0.809 -0.4941  0.4142 -0.3526
  459SOL    HW1 2276   5.775   2.142   0.809 -1.4945 -2.3908  0.3936
  459SOL    HW2 2277   5.685   2.278   0.815  2.4488  0.3391  0.9997
  460SOL     OW 2278   5.257   3.544   1.120 -0.5523  0.0218 -0.1299
  460SOL    HW1 2279   5.283   3.601   1.198 -1.8659  0.8197 -0.2547
  460SOL    HW2 2280   5.224   3.455   1.152 -0.5564  0.1388  0.1843
  461SOL     OW 2281   1.469   2.749   4.702  0.3244  0.3847  0.1493
  461SOL    HW1 2282   1.521   2.731   4.786 -0.4140  0.5111  0.6356
  461SOL    HW2 2283   1.372   2.759   4.724 -0.0194 -0.5420 -0.8326
  462SOL     OW 2284   4.817   2.734   5.957 -0.1529 -0.2246  0.0419
  462SOL    HW1 2285   4.776   2.807   6.011  0.7015  0.5757 -0.3673
  462SOL    HW2 2286   4.799   2.750   5.860  3.7638  1.9993 -0.5209
  463SOL     OW 2287   1.853   4.009   4.060 -0.0655  0.1957  0.6037
  463SOL    HW1 2288   1.860   3.910   4.064  1.1200  0.2925  1.1862
  463SOL    HW2 2289   1.776   4.034   4.001  1.2105 -1.0551 -1.7537
  464SOL     OW 2290   5.567   4.969   0.846  0.3356 -0.8077  0.0268
  464SOL    HW1 2291   5.535   5.063   0.855  0.0591 -0.8909 -0.0670
  464SOL    HW2 2292   5.580   4.929   0.937 -0.4449 -0.9764  0.0697
  465SOL     OW 2293   6.774   4.134   3.062 -0.4013  0.0125  0.6008
  465SOL    HW1 2294   6.864   4.089   3.068 -0.8684 -1.2123 -0.9384
  465SOL    HW2 2295   6.765   4.200   3.137  0.9392 -1.3412  2.0285
  466SOL     OW 2296   1.368   5.700   4.840  0.1747  0.0035  0.3301
  466SOL    HW1 2297   1.283   5.729   4.796 -0.6069 -1.5405  0.7677
  466SOL    HW2 2298   1.434   5.775   4.838 -1.3416  1.3789  0.3763
  467SOL     OW 2299   6.062   6.615   0.537 -0.1539 -0.0310 -0.1130
  467SOL    HW1 2300   6.008   6.638   0.618 -0.1390 -1.1134  0.2240
  467SOL    HW2 2301   6.138   6.679   0.528  0.1996 -0.2570  1.0837
  468SOL     OW 2302   2.254   4.631   3.503  0.4742 -0.2187 -0.4987
  468SOL    HW1 2303   2.353   4.618   3.499  0.2990 -1.9294  0.1680
  468SOL    HW2 2304   2.219   4.592   3.588 -0.5261  2.3430  0.3706
  469SOL     OW 2305   5.722   3.116   5.575  0.2594  0.1752 -0.1753
  469SOL    HW1 2306   5.646   3.100   5.639  0.7159  1.0839  0.6061
  469SOL    HW2 2307   5.709   3.204   5.530  1.8577  1.2951  1.4459
  470SOL     OW 2308   1.615   3.640   2.824 -0.8683  0.1230  0.0714
  470SOL    HW1 2309   1.537   3.686   2.782  0.0920  0.1536 -1.7602
  470SOL    HW2 2310   1.685   3.621   2.755  0.0428 -1.4263  1.3361
  471SOL     OW 2311   3.853   3.930   0.650 -0.0694 -0.2550 -0.4332
  471SOL    HW1 2312   3.930   3.957   0.593  1.5666 -2.7765  0.4351
  471SOL    HW2 2313   3.839   3.999   0.721  1.8188 -0.0384 -0.2278
  472SOL     OW 2314   5.912   5.091   4.669  0.0530  0.6756  0.1739
  472SOL    HW1 2315   5.856   5.011   4.690  1.2294 -0.5515 -1.0938
  472SOL    HW2 2316   5.901   5.115   4.572  0.4273  1.4703  0.3166
  473SOL     OW 2317   1.058   2.563   3.890  0.3124  0.0708 -0.3911
  473SOL    HW1 2318   1.033   2.479   3.939 -0.1767  0.9856  0.9905
  473SOL    HW2 2319   0.997   2.575   3.812 -0.3437 -0.2811  0.0573
  474SOL     OW 2320   3.084   0.980   2.337 -0.0844  0.6067 -0.6007
  474SOL    HW1 2321   2.989   0.980   2.305 -0.1129  1.4134 -0.5275
  474SOL    HW2 2322   3.124   1.071   2.325  0.2055  0.6878  0.7825
  475SOL     OW 2323   2.937   3.293   4.898  0.3053 -0.4121  0.1075
  475SOL    HW1 2324   3.013   3.350   4.868  0.5633 -0.3434  0.8780
  475SOL    HW2 2325   2.855   3.317   4.847  0.4369  0.5667  0.3481
  476SOL     OW 2326   1.194   2.718   1.742  0.2039 -0.4049 -0.5376
  476SOL    HW1 2327   1.124   2.665   1.693  1.4571 -1.4475 -1.2375
  476SOL    HW2 2328   1.264   2.748   1.677  1.1291 -0.5500  0.3713
  477SOL     OW 2329   5.269   5.568   1.639  0.3408 -0.1490  0.1513
  477SOL    HW1 2330   5.288   5.477   1.600  1.7862  0.5435 -0.8355
  477SOL    HW2 2331   5.331   5.586   1.715  0.4227  0.2269 -0.0029
  478SOL     OW 2332   5.677   6.511   4.658  0.0481  0.4419 -0.9615
  478SOL    HW1 2333   5.584   6.488   4.685  0.4030  1.1459  0.9954
  478SOL    HW2 2334   5.674   6.564   4.573 -1.2008 -0.7751 -1.7213
  479SOL     OW 2335   2.196   4.174   3.419 -0.2682  0.1673  0.5968
  479SOL    HW1 2336   2.160   4.081   3.411  1.2528 -0.3026 -1.3297
  479SOL    HW2 2337   2.123   4.239   3.398 -0.5180 -0.7202 -1.5663
  480SOL     OW 2338   0.955   0.161   0.013 -0.3451 -0.0328 -0.3288
  480SOL    HW1 2339   0.954   0.243   0.071  1.5481 -0.0810 -0.1438
  480SOL    HW2 2340   0.944   0.188  -0.082 -0.1563  0.4058 -0.2304
  481SOL     OW 2341   4.559   0.504   4.832 -0.0211  0.8995  0.9830
  481SOL    HW1 2342   4.601   0.591   4.856 -0.5216  1.6700 -0.7806
  481SOL    HW2 2343   4.494   0.477   4.903  0.6704  1.5694  1.8976
  482SOL     OW 2344   4.565   0.876   5.336  0.3534  0.9526  0.4092
  482SOL    HW1 2345   4.614   0.801   5.293  2.2663  2.8743 -0.9862
  482SOL    HW2 2346   4.487   0.902   5.279 -1.3182 -0.9292  1.7141
  483SOL     OW 2347   1.268   6.837   0.926 -0.5524  0.3284  0.0101
  483SOL    HW1 2348   1.362   6.871   0.915  0.0083 -1.0419  0.3253
  483SOL    HW2 2349   1.237   6.854   1.019  1.2426 -3.4215  1.4843
  484SOL     OW 2350   3.026   4.911   3.087 -0.3721  0.8555 -0.2349
  484SOL    HW1 2351   2.955   4.862   3.136 -0.5668 -0.0439 -1.3989
  484SOL    HW2 2352   3.016   5.009   3.104  0.2812  0.5512  2.4644
  485SOL     OW 2353   3.930   3.727   3.175 -0.0705 -0.3011  0.1937
  485SOL    HW1 2354   3.984   3.750   3.256  1.0227 -0.9052 -0.3361
  485SOL    HW2 2355   3.905   3.812   3.127  3.5725  0.0164 -1.5234
  486SOL     OW 2356   3.164   0.938   1.954  0.0501  0.1589 -0.4726
  486SOL    HW1 2357   3.117   1.002   1.894 -1.1112 -0.5418 -0.3477
  486SOL    HW2 2358   3.102   0.862   1.976  0.7246 -0.0010  0.9543
  487SOL     OW 2359   5.913   0.222   4.721 -0.0540  0.5091  0.2497
  487SOL    HW1 2360   6.002   0.186   4.749  0.2911  1.3375  0.2547
  487SOL    HW2 2361   5.847   0.209   4.795 -0.0944 -0.6422  0.0208
  488SOL     OW 2362   2.633   5.741   4.339 -0.1609 -0.3500  0.1627
  488SOL    HW1 2363   2.560   5.806   4.360  2.1555  2.7240 -0.5582
  488SOL    HW2 2364   2.652   5.684   4.419 -1.1604  1.0529  1.4477
  489SOL     OW 2365   3.582   3.281   0.470  0.3006  0.0451  0.1320
  489SOL    HW1 2366   3.615   3.372   0.445  0.3978  0.2693  1.0569
  489SOL    HW2 2367   3.597   3.218   0.393  1.8660  0.3915  0.1223
  490SOL     OW 2368   3.167   0.615   1.603  0.0981  0.3475 -1.0894
  490SOL    HW1 2369   3.086   0.649   1.651 -0.1201 -0.2424 -1.0330
  490SOL    HW2 2370   3.166   0.646   1.508  1.8124  3.7180 -0.1634
  491SOL     OW 2371   6.060   6.955   3.509 -0.4085  0.7633 -0.4298
  491SOL    HW1 2372   6.121   7.014   3.562 -0.5282  1.7697 -1.3748
  491SOL    HW2 2373   5.965   6.977   3.532 -0.4828 -1.6187  1.9269
  492SOL     OW 2374   0.801   0.747   0.275  0.1277  0.3440 -0.0747
  492SOL    HW1 2375   0.865   0.682   0.233 -1.9599 -2.2295  0.4512
  492SOL    HW2 2376   0.724   0.762   0.213 -0.3797  0.7448  0.6410
  493SOL     OW 2377   5.781   0.831   0.908  0.5353  0.2410  0.0858
  493SOL    HW1 2378   5.829   0.909   0.949 -0.5635  1.1417 -0.2940
  493SOL    HW2 2379   5.692   0.820   0.952  0.3579 -0.3071 -0.4050
  494SOL     OW 2380   6.466   2.933   5.920  0.0848 -0.1105  0.1141
  494SOL    HW1 2381   6.518   2.988   5.854  0.6743 -0.5890  0.1675
  494SOL    HW2 2382   6.429   2.992   5.991  0.1095  0.3075 -0.2194
  495SOL     OW 2383   5.177   5.124   6.644  0.0227  0.0211 -0.4967
  495SOL    HW1 2384   5.123   5.067   6.583 -1.6242  2.6941 -1.7431
  495SOL    HW2 2385   5.135   5.215   6.651  2.6455  1.2579  1.0750
  496SOL     OW 2386   2.611   2.206   4.630  0.3392  0.6764 -0.0323
  496SOL    HW1 2387   2.708   2.194   4.611  0.0873  0.1834 -1.0588
  496SOL    HW2 2388   2.587   2.155   4.713  0.5273 -1.0503 -0.9813
  497SOL     OW 2389   6.949   3.285   2.512 -0.5586 -0.4631 -0.3486
  497SOL    HW1 2390   6.936   3.380   2.483 -1.4774 -0.2940  0.5481
  497SOL    HW2 2391   6.994   3.234   2.439  0.6986  0.8496 -0.5272
  498SOL     OW 2392   5.924   6.247   0.634  0.1183  0.2146  0.1237
  498SOL    HW1 2393   5.922   6.220   0.538  2.2084  0.7905 -0.1204
  498SOL    HW2 2394   5.889   6.340   0.644  0.4107  0.3586 -0.1744
  499SOL     OW 2395   1.053   5.551   1.118  0.0558 -0.0414 -0.3193
  499SOL    HW1 2396   1.142   5.539   1.163 -0.1479  0.0578  0.1122
  499SOL    HW2 2397   1.057   5.633   1.060 -0.0219  0.4590  0.3739
  500SOL     OW 2398   1.519   1.067   6.572  0.3742  0.2410  0.4590
  500SOL    HW1 2399   1.521   1.166   6.560  1.1184  0.0826 -0.9626
  500SOL    HW2 2400   1.514   1.023   6.482 -2.5478 -1.0071  1.1095
  501SOL     OW 2401   0.866   4.336   6.697  0.7190 -0.0071 -0.0789
  501SOL    HW1 2402   0.958   4.350   6.734  0.5621 -0.1039  0.3643
  501SOL    HW2 2403   0.861   4.245   6.655  0.8317  0.0071 -0.1238
  502SOL     OW 2404   4.046   3.111   6.961  0.5303 -0.2225 -0.0981
  502SOL    HW1 2405   4.089   3.040   7.018  0.0141  0.2275  0.8881
  502SOL    HW2 2406   4.103   3.129   6.881  1.7926 -0.1778  0.7857
  503SOL     OW 2407   6.446   6.000   3.728  0.3875  0.3179  0.4099
  503SOL    HW1 2408   6.371   6.041   3.778 -1.3427 -0.5446 -1.3346
  503SOL    HW2 2409   6.461   6.050   3.643 -0.6522 -1.5585 -0.9600
  504SOL     OW 2410   2.179   4.937   2.201  0.3198  0.2763 -0.2600
  504SOL    HW1 2411   2.106   4.957   2.266  0.5094 -0.0134  0.0429
  504SOL    HW2 2412   2.265   4.977   2.234  0.1447  1.2886 -1.0018
  505SOL     OW 2413   3.945   5.374   6.669 -0.4742 -0.2044 -0.7823
  505SOL    HW1 2414   3.876   5.403   6.604 -0.4972  0.0095 -0.6610
  505SOL    HW2 2415   3.948   5.274   6.673 -1.1477 -0.2109 -0.3875
  506SOL     OW 2416   3.439   5.969   2.893 -0.2351  0.2900 -0.3168
  506SOL    HW1 2417   3.423   6.067   2.879  0.7386  0.3404 -1.1889
  506SOL    HW2 2418   3.351   5.922   2.898 -0.8041  1.4480  2.1999
  507SOL     OW 2419   4.041   0.477   6.262  0.0655 -0.4172 -0.1813
  507SOL    HW1 2420   4.029   0.429   6.349 -0.4017 -1.1548 -0.6397
  507SOL    HW2 2421   3.953   0.483   6.215  0.1808  0.6278 -0.2751
  508SOL     OW 2422   1.636   2.038   1.693  0.7387 -0.1354  0.0096
  508SOL    HW1 2423   1.591   1.976   1.628  0.4944 -1.7324  1.6091
  508SOL    HW2 2424   1.612   2.132   1.671 -1.3639 -0.7663 -0.7171
  509SOL     OW 2425   0.551   1.273   1.088 -0.5712  0.2928 -0.3838
  509SOL    HW1 2426   0.581   1.350   1.031 -1.0787  0.3411 -0.5926
  509SOL    HW2 2427   0.486   1.306   1.157  0.5918  0.3694  0.7218
  510SOL     OW 2428   3.737   0.808   3.745 -0.2866  0.0507  0.1995
  510SOL    HW1 2429   3.774   0.869   3.815 -1.7843 -0.2856  1.3456
  510SOL    HW2 2430   3.710   0.722   3.787  1.2621 -1.2223 -1.2990
  511SOL     OW 2431   0.046   5.643   0.654 -0.0558  0.1380 -0.0580
  511SOL    HW1 2432   0.111   5.693   0.711 -0.0273 -1.9491  1.9091
  511SOL    HW2 2433  -0.040   5.633   0.703 -0.8330  0.2372 -1.3647
  512SOL     OW 2434   1.130   0.727   0.542  0.1619  0.1121  0.3856
  512SOL    HW1 2435   1.203   0.731   0.474  0.4454  0.9802  0.7167
  512SOL    HW2 2436   1.082   0.640   0.535  1.2185 -0.4639  0.1555
  513SOL     OW 2437   2.662   2.280   5.567  0.0707 -0.5886  0.3807
  513SOL    HW1 2438   2.711   2.343   5.627  0.8261 -1.4836  0.7301
  513SOL    HW2 2439   2.728   2.223   5.518 -0.5275 -0.0070 -1.1905
  514SOL     OW 2440   1.578   5.217   0.883  0.4702 -0.5438 -0.4995
  514SOL    HW1 2441   1.587   5.254   0.790  0.1076  0.0710 -0.2970
  514SOL    HW2 2442   1.488   5.242   0.920  1.7919  2.0817  1.2448
  515SOL     OW 2443   3.860   3.631   0.716 -0.2424  0.0080  0.4752
  515SOL    HW1 2444   3.908   3.713   0.687 -2.0790  0.7351 -0.6809
  515SOL    HW2 2445   3.925   3.567   0.759  2.0116  0.3316 -2.2080
  516SOL     OW 2446   2.408   1.045   4.585 -0.2784 -0.4110 -0.1324
  516SOL    HW1 2447   2.406   1.016   4.489  1.1319  0.2780 -0.3999
  516SOL    HW2 2448   2.332   1.107   4.602 -0.5228 -0.5076 -0.8112
  517SOL     OW 2449   3.625   2.638   0.086 -0.5595 -0.5540  0.1526
  517SOL    HW1 2450   3.557   2.689   0.139 -0.8443  0.1815 -0.8862
  517SOL    HW2 2451   3.624   2.670  -0.009  0.1220 -1.6561 -0.2447
  518SOL     OW 2452   2.048   1.889   0.792 -0.1347 -0.5083  0.4610
  518SOL    HW1 2453   2.059   1.884   0.693  0.1193 -0.4060  0.4831
  518SOL    HW2 2454   2.069   1.801   0.833 -1.8145 -1.0208  0.2823
  519SOL     OW 2455   3.221   3.313   6.097 -0.3462 -0.0773 -0.1694
  519SOL    HW1 2456   3.240   3.215   6.100 -0.7614 -0.1381  0.5907
  519SOL    HW2 2457   3.131   3.331   6.136 -0.5615  0.5402 -0.9240
  520SOL     OW 2458   1.005   2.850   3.854  0.2269 -0.4546 -0.4824
  520SOL    HW1 2459   0.965   2.773   3.805  1.0113 -1.3239  0.1914
  520SOL    HW2 2460   1.048   2.817   3.938 -1.2238  0.9961  0.9043
  521SOL     OW 2461   1.743   4.013   4.307 -0.1937  0.1534 -0.1429
  521SOL    HW1 2462   1.647   4.042   4.312 -0.7661 -1.5077 -0.7281
  521SOL    HW2 2463   1.775   4.022   4.213 -0.1718 -0.4076 -0.1962
  522SOL     OW 2464   3.039   4.206   6.729  0.2735 -0.4448 -0.0055
  522SOL    HW1 2465   3.111   4.230   6.793 -0.5580  0.0755  0.7641
  522SOL    HW2 2466   3.078   4.161   6.649  1.5192  0.5066  0.0514
  523SOL     OW 2467   3.530   6.657   1.555 -0.7644 -1.3473 -0.2423
  523SOL    HW1 2468   3.571   6.675   1.645 -0.2431 -0.4349 -0.6511
  523SOL    HW2 2469   3.601   6.623   1.493 -0.7195 -0.3035 -0.7937
  524SOL     OW 2470   0.651   4.180   2.006 -0.0341 -0.4803 -0.3749
  524SOL    HW1 2471   0.583   4.134   2.064  1.8551  1.5576  3.9216
  524SOL    HW2 2472   0.713   4.112   1.967 -0.7150 -1.9587  0.9861
  525SOL     OW 2473   3.425   0.981   1.932 -0.2928  1.2623 -0.2946
  525SOL    HW1 2474   3.476   0.979   2.018 -0.2456  1.4073 -0.3181
  525SOL    HW2 2475   3.327   0.985   1.951 -0.2579  2.0750 -0.2368
  526SOL     OW 2476   3.740   6.510   4.642  0.4466  0.7711 -0.6859
  526SOL    HW1 2477   3.643   6.490   4.648  0.2025  2.1800  1.1820
  526SOL    HW2 2478   3.756   6.604   4.674  2.5566  0.1117  0.3645
  527SOL     OW 2479   6.077   4.436   2.957  0.3284  0.4800  0.5990
  527SOL    HW1 2480   6.130   4.462   3.038  0.1515  1.5633  0.3901
  527SOL    HW2 2481   5.979   4.446   2.978  0.2467 -0.3458  0.6094
  528SOL     OW 2482   6.560   2.586   1.457  0.0371  0.1330 -0.4332
  528SOL    HW1 2483   6.528   2.680   1.464  0.8127  0.3862 -0.2393
  528SOL    HW2 2484   6.617   2.576   1.375  0.7129  0.0635  0.0378
  529SOL     OW 2485   1.763   4.552   4.993 -0.1524  0.3468  0.1845
  529SOL    HW1 2486   1.841   4.596   5.040  1.3993  0.6205 -2.4684
  529SOL    HW2 2487   1.767   4.454   5.009  1.5005  0.1982 -0.8386
  530SOL     OW 2488   2.335   5.441   2.573 -0.1816 -0.3170  0.2656
  530SOL    HW1 2489   2.275   5.389   2.512  1.4168 -0.8063 -0.9315
  530SOL    HW2 2490   2.356   5.530   2.533  1.1760 -0.7853 -0.1110
  531SOL     OW 2491   1.373   5.106   2.557 -0.2269  0.1424  0.6140
  531SOL    HW1 2492   1.292   5.160   2.534 -0.7623 -0.4936  0.9634
  531SOL    HW2 2493   1.407   5.133   2.647 -0.5633 -0.1812  0.8387
  532SOL     OW 2494   4.145   6.807   4.841 -0.2130  0.5173  0.0227
  532SOL    HW1 2495   4.092   6.847   4.766  0.4573  0.6910 -0.3624
  532SOL    HW2 2496   4.083   6.757   4.902 -0.6366 -0.5684 -1.2365
  533SOL     OW 2497   6.576   7.015   0.798 -0.1518 -0.5569 -0.2898
  533SOL    HW1 2498   6.524   6.937   0.833 -1.0093  0.4076  0.6773
  533SOL    HW2 2499   6.672   6.991   0.792 -0.2858 -1.4391  0.7756
  534SOL     OW 2500   2.779   4.903   6.710  0.2805  0.8668  0.6142
  534SOL    HW1 2501   2.862   4.894   6.764  0.7491  1.1875 -0.0370
  534SOL    HW2 2502   2.729   4.985   6.738  0.4650  0.9720  0.6330
  535SOL     OW 2503   3.333   0.326   3.810 -0.0269 -0.0508 -0.3575
  535SOL    HW1 2504   3.278   0.409   3.804  0.5410  0.2855 -1.2471
  535SOL    HW2 2505   3.311   0.277   3.894 -1.7791 -0.0140 -0.7564
  536SOL     OW 2506   5.943   0.461   1.418  0.0972  0.0325  0.3130
  536SOL    HW1 2507   6.010   0.407   1.367  0.2257  0.0157  0.5011
  536SOL    HW2 2508   5.906   0.533   1.359  0.9959  0.6638  0.5051
  537SOL     OW 2509   0.783   5.671   3.554 -0.2730 -0.0107 -0.3771
  537SOL    HW1 2510   0.716   5.596   3.555 -1.8365  1.3354 -0.9777
  537SOL    HW2 2511   0.855   5.651   3.487 -1.7857 -0.0693 -2.0446
  538SOL     OW 2512   0.317   3.305   4.750  0.6823 -0.3647 -0.1640
  538SOL    HW1 2513   0.245   3.261   4.695  1.9195  0.9622 -3.0352
  538SOL    HW2 2514   0.399   3.249   4.749  0.3685 -0.9237  1.4818
  539SOL     OW 2515   1.611   1.526   0.166  0.1482  0.2621  0.6845
  539SOL    HW1 2516   1.557   1.520   0.250  0.4792  0.3372  0.9055
  539SOL    HW2 2517   1.708   1.533   0.189  0.2189  0.6069  0.3078
  540SOL     OW 2518   4.027   0.230   3.722 -0.3212 -0.3094 -0.6028
  540SOL    HW1 2519   4.067   0.138   3.714 -1.9982 -1.0722 -0.7688
  540SOL    HW2 2520   3.968   0.247   3.643 -0.3847  0.7387 -0.3408
  541SOL     OW 2521   4.512   0.165   2.869  0.0456  0.9460 -0.0283
  541SOL    HW1 2522   4.489   0.082   2.817  1.7380  0.2984  0.1629
  541SOL    HW2 2523   4.431   0.222   2.878 -0.9043 -0.1375 -1.1660
  542SOL     OW 2524   2.167   6.352   2.183 -0.5011  0.0485 -0.0720
  542SOL    HW1 2525   2.190   6.257   2.160 -1.9291 -0.0911 -1.0047
  542SOL    HW2 2526   2.181   6.410   2.102 -1.0506  0.3797  0.0709
  543SOL     OW 2527   5.955   3.626   3.808 -0.3765  0.4292  0.1069
  543SOL    HW1 2528   5.936   3.628   3.906  2.2201 -0.0481  0.6909
  543SOL    HW2 2529   5.904   3.699   3.763 -0.9382  1.2283  1.9354
  544SOL     OW 2530   6.974   6.320   2.036 -0.2064  0.0314 -0.3448
  544SOL    HW1 2531   7.050   6.385   2.038 -0.5649  0.4573 -0.3634
  544SOL    HW2 2532   6.928   6.320   2.125  0.1790 -0.6678 -0.1382
  545SOL     OW 2533   5.437   2.086   6.317 -1.0820  0.0356 -0.4337
  545SOL    HW1 2534   5.491   2.167   6.299 -0.5435  0.0749  1.2662
  545SOL    HW2 2535   5.343   2.113   6.339 -0.6331  0.3015  1.2455
  546SOL     OW 2536   0.219   5.379   3.476  0.1617 -0.2545  0.2737
  546SOL    HW1 2537   0.303   5.411   3.433 -0.0522 -0.1232 -0.0524
  546SOL    HW2 2538   0.189   5.446   3.545  0.0353 -0.0391  0.0115
  547SOL     OW 2539   6.778   0.814   6.525 -0.1762  0.0375 -0.1831
  547SOL    HW1 2540   6.848   0.790   6.592  0.0988 -1.2834 -0.9115
  547SOL    HW2 2541   6.714   0.880   6.566  1.5380  1.3866  0.4395
  548SOL     OW 2542   2.307   5.614   3.226 -0.0324 -0.5387  0.0885
  548SOL    HW1 2543   2.235   5.681   3.205 -1.5583 -2.5262 -1.4745
  548SOL    HW2 2544   2.307   5.595   3.324 -0.2924  0.9338  0.3944
  549SOL     OW 2545   1.924   5.020   6.058  1.0253  0.4635  0.2174
  549SOL    HW1 2546   1.975   4.935   6.071 -0.5228 -0.9851 -2.2510
  549SOL    HW2 2547   1.836   5.014   6.104  0.1355 -0.1282 -1.4624
  550SOL     OW 2548   0.473   6.955   4.187  0.0689  0.4444  0.2094
  550SOL    HW1 2549   0.414   7.031   4.159 -0.1604 -0.1814 -1.0683
  550SOL    HW2 2550   0.542   6.939   4.117  1.0586  0.4099  1.1545
  551SOL     OW 2551   3.327   1.269   6.118 -0.5569 -0.4746  0.3198
  551SOL    HW1 2552   3.302   1.360   6.148  1.6313 -0.0013  0.8626
  551SOL    HW2 2553   3.422   1.250   6.143 -0.5703 -2.4244 -0.8844
  552SOL     OW 2554   0.583   2.065   3.158  0.6207 -0.0953 -0.4529
  552SOL    HW1 2555   0.544   2.024   3.076  0.7698 -1.0910 -0.0344
  552SOL    HW2 2556   0.671   2.107   3.135  0.5061 -0.0756 -0.8692
  553SOL     OW 2557   4.496   2.588   6.157  0.1687  0.4174  0.2750
  553SOL    HW1 2558   4.576   2.548   6.201  0.3267  0.9755  0.5099
  553SOL    HW2 2559   4.486   2.683   6.186  1.4301  1.4576 -2.3672
  554SOL     OW 2560   3.751   5.981   4.838 -0.6014 -0.1863  0.3523
  554SOL    HW1 2561   3.678   6.039   4.801 -1.1520 -0.5173  0.8984
  554SOL    HW2 2562   3.821   6.038   4.880 -1.1171  0.0901  0.8479
  555SOL     OW 2563   1.556   4.926   4.747 -0.3012 -0.5235 -0.2679
  555SOL    HW1 2564   1.472   4.927   4.692 -0.2477 -0.1914 -0.3462
  555SOL    HW2 2565   1.547   4.992   4.821 -1.1311 -2.2883  1.2872
  556SOL     OW 2566   3.939   4.792   1.429  0.7150  0.3742 -0.0595
  556SOL    HW1 2567   3.932   4.840   1.341 -0.3309  1.0676  0.3893
  556SOL    HW2 2568   3.851   4.794   1.476  0.8630 -1.2976  0.3506
  557SOL     OW 2569   0.372   6.971   3.677  0.4988 -0.1807  0.6303
  557SOL    HW1 2570   0.338   6.893   3.730  0.1627  1.2586  2.6569
  557SOL    HW2 2571   0.450   6.942   3.621 -1.7931 -2.7477 -1.4644
  558SOL     OW 2572   3.869   4.013   3.932  0.1922 -0.5377 -0.4007
  558SOL    HW1 2573   3.869   4.104   3.975  2.0205  0.3843 -2.2183
  558SOL    HW2 2574   3.910   3.947   3.995  0.6918  0.3085  0.1889
  559SOL     OW 2575   5.689   1.890   6.189 -0.2324 -0.8668  0.1484
  559SOL    HW1 2576   5.612   1.953   6.191 -0.1080 -0.6980 -0.2090
  559SOL    HW2 2577   5.730   1.891   6.098  1.3700  0.4915  0.8345
  560SOL     OW 2578   2.754   0.791   1.425 -0.2952  0.0953 -0.3749
  560SOL    HW1 2579   2.656   0.798   1.443 -0.7308 -0.9230 -2.1280
  560SOL    HW2 2580   2.790   0.882   1.403 -0.7308  0.5460  0.6884
  561SOL     OW 2581   0.306   2.956   6.725  0.4333 -0.2602 -0.3050
  561SOL    HW1 2582   0.267   2.876   6.771 -0.9769 -0.5533 -1.9063
  561SOL    HW2 2583   0.406   2.948   6.723  0.3352 -1.8819 -0.2776
  562SOL     OW 2584   1.052   2.494   5.109 -0.1671 -0.4087  0.2631
  562SOL    HW1 2585   1.000   2.458   5.186  0.9966 -0.6196  0.9840
  562SOL    HW2 2586   1.112   2.423   5.072 -2.2381 -0.9809 -2.2835
  563SOL     OW 2587   2.813   5.620   3.797 -0.6574 -0.4116 -0.2164
  563SOL    HW1 2588   2.740   5.568   3.841 -0.3311 -1.0228 -0.3983
  563SOL    HW2 2589   2.898   5.610   3.849 -0.7266  0.3942  0.0625
  564SOL     OW 2590   2.980   3.492   3.433 -0.2482  0.5518 -0.2981
  564SOL    HW1 2591   3.031   3.567   3.474  1.7004 -0.3956 -0.8562
  564SOL    HW2 2592   3.023   3.466   3.346 -0.9815 -1.0524 -0.2200
  565SOL     OW 2593   1.208   2.147   4.739  0.2843  0.8910  0.3683
  565SOL    HW1 2594   1.141   2.218   4.719 -1.2085 -0.7293 -0.6846
  565SOL    HW2 2595   1.172   2.085   4.810  0.8151  0.2007  0.0526
  566SOL     OW 2596   6.737   6.605   1.795 -0.5058  0.1112  0.6182
  566SOL    HW1 2597   6.730   6.510   1.824  0.1866 -0.6985 -1.6481
  566SOL    HW2 2598   6.647   6.648   1.796 -0.8528 -0.6151  1.4441
  567SOL     OW 2599   5.394   6.274   5.166 -0.4713 -0.1262  0.2024
  567SOL    HW1 2600   5.405   6.336   5.088 -2.9667  1.4225  0.9337
  567SOL    HW2 2601   5.316   6.213   5.150 -0.0492 -0.8592  0.8547
  568SOL     OW 2602   5.002   2.344   0.809 -0.2046 -0.4269  0.0791
  568SOL    HW1 2603   5.083   2.298   0.774 -0.0215 -1.4953  1.7616
  568SOL    HW2 2604   4.986   2.315   0.904 -1.6616  0.9480  0.2968
  569SOL     OW 2605   5.822   2.689   2.592  0.3476 -0.0879 -0.3821
  569SOL    HW1 2606   5.865   2.769   2.551 -0.4500 -0.1242 -1.3057
  569SOL    HW2 2607   5.723   2.697   2.586  0.2519 -0.9773 -0.1656
  570SOL     OW 2608   2.937   4.004   1.438 -0.2893  0.3077 -0.5765
  570SOL    HW1 2609   2.948   3.943   1.516  1.9715  3.1018  1.4885
  570SOL    HW2 2610   2.985   3.967   1.359  1.2956 -0.4881  0.7091
  571SOL     OW 2611   0.185   2.286   1.684  0.4497  0.2283 -0.3367
  571SOL    HW1 2612   0.146   2.321   1.768 -0.0054  3.3931 -1.7407
  571SOL    HW2 2613   0.130   2.209   1.651 -1.0966  0.8181  0.7676
  572SOL     OW 2614   2.700   0.688   5.900  0.1176  0.1687  0.7204
  572SOL    HW1 2615   2.753   0.684   5.816 -0.4491 -0.0706  0.3744
  572SOL    HW2 2616   2.757   0.728   5.973  0.7707 -0.0832  0.3590
  573SOL     OW 2617   1.542   2.321   4.946  0.3618  0.1586  0.5054
  573SOL    HW1 2618   1.546   2.340   4.848 -2.6230  0.2006  0.3035
  573SOL    HW2 2619   1.616   2.259   4.971  0.5871 -0.6956 -2.0015
  574SOL     OW 2620   4.518   6.657   2.188  0.1261  0.0718  0.1909
  574SOL    HW1 2621   4.474   6.724   2.128 -1.1034  0.5651  1.5841
  574SOL    HW2 2622   4.544   6.702   2.273  0.8077 -0.8634  0.4825
  575SOL     OW 2623   1.357   4.270   0.666 -0.4355  0.0961  0.1415
  575SOL    HW1 2624   1.358   4.338   0.593 -0.4156 -0.5419 -0.4559
  575SOL    HW2 2625   1.274   4.215   0.659  0.1855 -0.8033 -0.1765
  576SOL     OW 2626   6.134   4.224   4.735  0.0370  0.5123 -0.5891
  576SOL    HW1 2627   6.120   4.185   4.826 -0.0315  1.2232 -0.2851
  576SOL    HW2 2628   6.198   4.167   4.683  0.3091  0.2652  0.0092
  577SOL     OW 2629   6.869   6.165   6.142 -0.3750  0.0256  0.0877
  577SOL    HW1 2630   6.881   6.258   6.106 -0.7634  1.0917  2.5208
  577SOL    HW2 2631   6.772   6.150   6.163 -0.2515 -0.7769  0.0967
  578SOL     OW 2632   4.951   3.243   3.823 -0.1336 -0.2639  0.2324
  578SOL    HW1 2633   4.951   3.219   3.920  1.7299 -0.5019  0.2158
  578SOL    HW2 2634   5.027   3.305   3.804  1.4160 -2.5333 -1.5831
  579SOL     OW 2635   2.454   1.600   0.908 -0.4168  0.1339  0.0089
  579SOL    HW1 2636   2.539   1.651   0.897 -0.8065  1.2578  1.7574
  579SOL    HW2 2637   2.382   1.662   0.939 -0.6635 -1.5847  3.2595
  580SOL     OW 2638   2.570   6.879   0.842 -0.3235  0.0626  0.0024
  580SOL    HW1 2639   2.653   6.829   0.865  0.1413  1.2510  1.0170
  580SOL    HW2 2640   2.546   6.940   0.917 -2.1499 -0.2735 -0.2571
  581SOL     OW 2641   4.425   6.958   4.410 -0.1128  1.0264  0.5442
  581SOL    HW1 2642   4.420   6.975   4.509 -0.0452  2.2918  0.3402
  581SOL    HW2 2643   4.350   7.006   4.365 -0.9251 -0.5866  0.0851
  582SOL     OW 2644   1.161   1.773   6.130  0.2060  0.1795  0.0338
  582SOL    HW1 2645   1.061   1.777   6.127  0.2018 -0.1734 -0.5116
  582SOL    HW2 2646   1.191   1.680   6.110  0.6196  0.0429  1.1683
  583SOL     OW 2647   0.702   6.316   0.122  0.0238  0.0253 -0.8144
  583SOL    HW1 2648   0.791   6.278   0.095 -1.3076 -2.1122 -2.5056
  583SOL    HW2 2649   0.667   6.267   0.202 -0.7381 -0.9201 -1.7021
  584SOL     OW 2650   3.408   3.562   4.041  0.0940  0.5480 -0.0303
  584SOL    HW1 2651   3.457   3.546   4.127 -0.1506  1.0917  0.2117
  584SOL    HW2 2652   3.376   3.474   4.005  1.6832  0.0984 -0.4660
  585SOL     OW 2653   3.806   1.829   2.835 -0.1206  0.1467  0.1316
  585SOL    HW1 2654   3.820   1.753   2.772 -1.3422 -1.2969  1.5321
  585SOL    HW2 2655   3.796   1.914   2.782  0.5755 -0.7398 -1.5070
  586SOL     OW 2656   0.779   2.857   2.624  0.7569 -0.7352  0.4063
  586SOL    HW1 2657   0.814   2.950   2.637 -0.5176  0.4751 -3.5285
  586SOL    HW2 2658   0.846   2.803   2.572 -0.0463 -0.7839 -0.6000
  587SOL     OW 2659   0.989   0.499   0.564 -0.2034 -0.3938 -0.2548
  587SOL    HW1 2660   0.891   0.500   0.581  0.0768  1.4310  1.7120
  587SOL    HW2 2661   1.022   0.404   0.567 -1.9926 -1.1490 -2.0491
  588SOL     OW 2662   0.518   4.872   3.654 -0.3904 -0.4469  0.5526
  588SOL    HW1 2663   0.483   4.953   3.701  0.7120 -0.5608  1.6353
  588SOL    HW2 2664   0.474   4.790   3.689 -1.2326 -0.3597 -0.2747
  589SOL     OW 2665   2.993   5.276   4.509 -0.0862 -0.0105 -0.3709
  589SOL    HW1 2666   2.957   5.324   4.589  0.4054 -1.5923  0.8244
  589SOL    HW2 2667   2.927   5.285   4.433 -1.4988 -0.1461  0.7971
  590SOL     OW 2668   1.248   1.795   2.266  0.0148  0.6825 -0.2080
  590SOL    HW1 2669   1.298   1.764   2.347 -0.2357  1.5072  0.2701
  590SOL    HW2 2670   1.271   1.736   2.188 -0.0760 -0.3887  0.5541
  591SOL     OW 2671   0.722   4.143   4.624 -0.1122  0.1618 -0.1805
  591SOL    HW1 2672   0.776   4.066   4.658  0.2136  0.4744  0.0179
  591SOL    HW2 2673   0.764   4.229   4.653 -0.4240  0.4179 -0.4750
  592SOL     OW 2674   4.887   6.339   4.497 -0.0050  0.1763  0.2629
  592SOL    HW1 2675   4.840   6.413   4.449 -0.9690 -0.5088  0.1128
  592SOL    HW2 2676   4.978   6.326   4.458 -0.3642  0.3520 -0.6560
  593SOL     OW 2677   2.212   4.641   2.219 -0.0969 -0.5263 -0.3150
  593SOL    HW1 2678   2.269   4.601   2.148  0.2924 -0.2606 -0.1536
  593SOL    HW2 2679   2.198   4.738   2.200 -0.5935 -0.6134 -0.4152
  594SOL     OW 2680   5.919   3.687   6.397  0.1561  0.4003 -0.3675
  594SOL    HW1 2681   6.014   3.684   6.427  0.4747  0.1138 -1.3450
  594SOL    HW2 2682   5.899   3.777   6.359  0.1874  0.3172 -0.5875
  595SOL     OW 2683   3.257   5.197   4.218  0.2756 -0.3348  0.0174
  595SOL    HW1 2684   3.271   5.148   4.132  0.3233 -1.2664  0.5432
  595SOL    HW2 2685   3.298   5.145   4.293 -1.3729 -0.4933  0.8717
  596SOL     OW 2686   6.159   6.519   2.815 -0.3284 -0.6623 -0.0339
  596SOL    HW1 2687   6.177   6.541   2.910  0.4885  0.9636 -0.5354
  596SOL    HW2 2688   6.115   6.597   2.770 -0.0420 -1.1262 -1.1611
  597SOL     OW 2689   3.650   2.073   1.693 -0.1841 -0.0167  0.2580
  597SOL    HW1 2690   3.640   1.991   1.750 -2.2823  0.7513  1.0833
  597SOL    HW2 2691   3.619   2.153   1.744  0.6823  1.1436 -0.9716
  598SOL     OW 2692   0.188   1.218   5.896 -0.4420  0.5254 -0.5602
  598SOL    HW1 2693   0.157   1.126   5.917 -0.2567  0.3648 -0.9888
  598SOL    HW2 2694   0.273   1.214   5.844  0.5710  0.9654  0.9950
  599SOL     OW 2695   6.815   3.214   1.587 -0.4188  0.3013  0.5245
  599SOL    HW1 2696   6.783   3.234   1.495 -0.4034  0.6088  0.5865
  599SOL    HW2 2697   6.887   3.144   1.583  0.0935  0.8355  0.2401
  600SOL     OW 2698   3.369   5.731   2.213 -0.8036 -0.0846  0.4697
  600SOL    HW1 2699   3.321   5.818   2.225  0.2076  0.6956 -0.8803
  600SOL    HW2 2700   3.425   5.735   2.130  0.6731 -1.3766  1.3428
  601SOL     OW 2701   4.731   2.193   5.012 -0.2288 -0.0684  0.4675
  601SOL    HW1 2702   4.639   2.233   5.013 -0.7253 -1.1792  1.3807
  601SOL    HW2 2703   4.757   2.165   5.105  0.2835 -1.3970 -0.0413
  602SOL     OW 2704   4.267   0.203   0.049  0.0996 -0.0325 -0.1936
  602SOL    HW1 2705   4.202   0.186  -0.025 -0.1077  0.1279 -0.0506
  602SOL    HW2 2706   4.275   0.301   0.066  0.0227 -0.0738  0.1016
  603SOL     OW 2707   0.719   2.042   6.105 -0.6092 -0.4736  0.2440
  603SOL    HW1 2708   0.729   2.117   6.170 -0.4221 -0.6205  0.3849
  603SOL    HW2 2709   0.715   2.078   6.012 -0.9370 -0.2575  0.3398
  604SOL     OW 2710   5.515   6.119   0.945 -0.0775  0.1252 -0.3853
  604SOL    HW1 2711   5.549   6.045   1.004  1.7142  0.4223 -0.9841
  604SOL    HW2 2712   5.445   6.171   0.993 -0.1089 -0.8789  0.7013
  605SOL     OW 2713   5.678   2.105   2.749  0.6174  0.0283  0.5913
  605SOL    HW1 2714   5.676   2.176   2.820  1.9048  1.8879 -1.1236
  605SOL    HW2 2715   5.594   2.110   2.694  1.1913  1.0581 -0.2359
  606SOL     OW 2716   0.354   6.107   2.007  0.0711  0.4681  0.6983
  606SOL    HW1 2717   0.279   6.084   1.945  0.1652  1.6629  0.1111
  606SOL    HW2 2718   0.386   6.200   1.988  2.9980 -0.6205 -0.4180
  607SOL     OW 2719   5.591   6.957   3.749 -0.0468 -0.4076  0.5061
  607SOL    HW1 2720   5.576   7.001   3.838 -1.3003  1.5136 -0.5973
  607SOL    HW2 2721   5.503   6.935   3.707  0.3764  1.6368 -1.6204
  608SOL     OW 2722   4.265   0.578   1.309  0.0148  0.2715  0.5609
  608SOL    HW1 2723   4.363   0.586   1.293 -0.1523 -1.1917 -1.7921
  608SOL    HW2 2724   4.245   0.490   1.353 -0.2766  0.4164  0.7269
  609SOL     OW 2725   2.931   3.740   2.092 -0.2415 -0.0872 -0.2620
  609SOL    HW1 2726   2.842   3.755   2.134  0.1745 -1.0509  1.0581
  609SOL    HW2 2727   2.957   3.644   2.104  0.9917  0.1962 -0.5541
  610SOL     OW 2728   1.796   2.534   2.440  0.4546  0.2746 -0.5128
  610SOL    HW1 2729   1.825   2.545   2.535  1.4301  0.7855 -0.8549
  610SOL    HW2 2730   1.697   2.543   2.434  0.3275 -0.3211  0.5283
  611SOL     OW 2731   2.654   2.484   5.064  0.4966  0.1264 -0.1703
  611SOL    HW1 2732   2.557   2.490   5.088  0.2994 -1.1786 -0.5977
  611SOL    HW2 2733   2.709   2.501   5.145 -0.0450  1.7090 -0.0837
  612SOL     OW 2734   0.345   4.017   1.130 -0.1971 -0.3314  0.0201
  612SOL    HW1 2735   0.259   4.012   1.182 -0.8729 -0.0887 -1.0328
  612SOL    HW2 2736   0.359   3.930   1.082 -0.6988  0.1642 -1.0681
  613SOL     OW 2737   4.311   1.370   2.877 -0.2457 -0.5788  0.0528
  613SOL    HW1 2738   4.336   1.309   2.802 -1.2302 -0.2616 -0.5543
  613SOL    HW2 2739   4.218   1.405   2.862 -0.0762  0.2781  0.9095
  614SOL     OW 2740   2.523   1.707   6.497  0.2603 -0.7485  0.2845
  614SOL    HW1 2741   2.474   1.650   6.430 -0.2516  0.9990 -0.9049
  614SOL    HW2 2742   2.459   1.742   6.565 -0.3460  1.6791 -1.3706
  615SOL     OW 2743   6.545   1.880   4.454  0.4101 -0.1245  0.9534
  615SOL    HW1 2744   6.542   1.780   4.454 -2.1071 -0.1205  0.2753
  615SOL    HW2 2745   6.599   1.912   4.533  1.6932 -1.9803  0.8830
  616SOL     OW 2746   4.461   0.663   2.411 -0.1234  0.0436  0.4039
  616SOL    HW1 2747   4.489   0.568   2.425  0.3619  0.0473 -0.4715
  616SOL    HW2 2748   4.538   0.724   2.428 -0.5533  0.3351  1.4110
  617SOL     OW 2749   5.194   3.232   2.186  0.9531 -0.1486  0.0094
  617SOL    HW1 2750   5.110   3.200   2.229  1.3007 -1.6441 -0.3728
  617SOL    HW2 2751   5.258   3.262   2.257  1.9248 -3.5575  0.7508
  618SOL     OW 2752   0.654   0.686   5.884 -0.1861  0.0248 -0.4365
  618SOL    HW1 2753   0.576   0.727   5.930 -1.2030 -2.0825 -0.1648
  618SOL    HW2 2754   0.697   0.754   5.823 -0.4267  2.0618  1.5430
  619SOL     OW 2755   0.778   5.052   5.316  0.2756 -0.1105  0.3322
  619SOL    HW1 2756   0.814   5.131   5.267 -1.9977  0.7146 -0.1092
  619SOL    HW2 2757   0.787   5.067   5.414 -0.7868  1.0631  0.2767
  620SOL     OW 2758   5.018   6.926   0.905  0.3920  0.0588 -0.2534
  620SOL    HW1 2759   4.957   6.898   0.831 -1.5023 -0.0644  1.2743
  620SOL    HW2 2760   4.997   7.020   0.933 -0.5113 -0.6443  1.5927
  621SOL     OW 2761   0.073   2.342   6.376 -0.6842 -0.2894  0.2329
  621SOL    HW1 2762  -0.003   2.277   6.363 -1.3948  0.6507 -0.4232
  621SOL    HW2 2763   0.040   2.420   6.429  0.3834 -0.8266  1.7524
  622SOL     OW 2764   6.442   3.141   4.913  0.2163 -0.6642 -0.2354
  622SOL    HW1 2765   6.450   3.050   4.956 -1.5502 -0.0096  1.6684
  622SOL    HW2 2766   6.409   3.130   4.819  0.5506 -2.0267 -0.2230
  623SOL     OW 2767   4.698   0.643   6.592  0.2503 -0.4288  0.2395
  623SOL    HW1 2768   4.603   0.610   6.585  0.0387 -0.2683  2.0364
  623SOL    HW2 2769   4.744   0.627   6.505 -1.1589 -1.3466 -0.3856
  624SOL     OW 2770   4.207   1.538   6.109  0.1160  0.2882  0.3809
  624SOL    HW1 2771   4.115   1.507   6.084 -0.0105  0.4534  0.6404
  624SOL    HW2 2772   4.203   1.589   6.195  0.7689 -1.5108  1.5353
  625SOL     OW 2773   5.304   1.865   5.303 -0.1827 -0.6570  0.6011
  625SOL    HW1 2774   5.241   1.923   5.356 -0.8245 -0.1565 -0.6728
  625SOL    HW2 2775   5.251   1.796   5.253  0.5770 -2.5990  2.3098
  626SOL     OW 2776   3.107   4.208   1.595  0.6418 -0.0632 -0.1210
  626SOL    HW1 2777   3.057   4.193   1.680  0.4166 -2.8155 -0.6317
  626SOL    HW2 2778   3.043   4.211   1.519  0.9356  1.1247 -0.3326
  627SOL     OW 2779   3.190   0.036   4.934  0.8629 -0.0661 -0.7850
  627SOL    HW1 2780   3.242  -0.048   4.948  2.3232  0.4697 -2.5914
  627SOL    HW2 2781   3.116   0.041   5.001  1.3525 -2.2760  0.0030
  628SOL     OW 2782   4.541   3.180   5.395 -0.2175 -0.3197  0.1449
  628SOL    HW1 2783   4.545   3.100   5.336 -1.2051 -0.3124  0.0510
  628SOL    HW2 2784   4.458   3.233   5.375  1.2364  1.6714 -1.0047
  629SOL     OW 2785   2.833   0.153   6.036  0.1828 -0.3878 -0.3841
  629SOL    HW1 2786   2.911   0.213   6.052 -0.8026  0.6207  0.8678
  629SOL    HW2 2787   2.770   0.159   6.113 -1.2745 -0.9480 -1.4836
  630SOL     OW 2788   3.859   3.036   3.131 -0.8077 -0.3156 -0.7648
  630SOL    HW1 2789   3.821   2.961   3.076 -2.2003 -0.1639 -0.0604
  630SOL    HW2 2790   3.916   3.094   3.073  1.9406 -2.9285 -0.9518
  631SOL     OW 2791   6.526   2.405   1.932  0.1370  0.2659  0.3689
  631SOL    HW1 2792   6.565   2.469   1.865  0.2049 -0.1137  0.0462
  631SOL    HW2 2793   6.474   2.334   1.884 -1.0530  0.8170  0.7894
  632SOL     OW 2794   4.922   0.104   1.673  0.0999 -0.1163  0.4743
  632SOL    HW1 2795   4.960   0.012   1.670  1.7960  0.5692 -0.0049
  632SOL    HW2 2796   4.832   0.101   1.717 -0.8986 -2.3056 -1.5172
  633SOL     OW 2797   0.315   6.830   2.247 -0.1554 -0.0008 -0.5403
  633SOL    HW1 2798   0.308   6.864   2.153 -1.2597  1.2920 -0.0225
  633SOL    HW2 2799   0.281   6.899   2.310  0.8645 -0.7248  0.8592
  634SOL     OW 2800   5.499   6.780   1.739 -0.4953  0.0960  0.6437
  634SOL    HW1 2801   5.442   6.862   1.741  0.2781  0.7078 -0.8704
  634SOL    HW2 2802   5.595   6.805   1.744 -0.2757 -0.8363  1.6621
  635SOL     OW 2803   5.371   0.930   1.298 -0.2797 -1.0807 -0.7030
  635SOL    HW1 2804   5.454   0.942   1.243  0.2695  0.1290  0.3470
  635SOL    HW2 2805   5.335   0.838   1.283 -0.1095 -0.8446 -3.0022
  636SOL     OW 2806   2.785   5.298   3.858 -0.3040  0.2125  0.1185
  636SOL    HW1 2807   2.769   5.206   3.823  0.7647 -0.5613  1.5525
  636SOL    HW2 2808   2.699   5.349   3.859 -0.8099 -0.5753 -1.1958
  637SOL     OW 2809   6.477   0.184   1.292  0.0398 -0.5890 -0.2524
  637SOL    HW1 2810   6.507   0.260   1.234 -0.4578 -0.4905 -0.3881
  637SOL    HW2 2811   6.448   0.219   1.381  2.1582 -0.8813  0.6157
  638SOL     OW 2812   5.591   2.294   6.818  0.1082  0.6504 -0.4466
  638SOL    HW1 2813   5.516   2.341   6.864 -0.9403  2.1097 -3.3258
  638SOL    HW2 2814   5.676   2.309   6.869 -1.3264 -0.2930  2.4217
  639SOL     OW 2815   5.944   3.477   1.132  0.1854  0.2432  0.1409
  639SOL    HW1 2816   5.991   3.445   1.214  1.5443  0.6195 -0.4672
  639SOL    HW2 2817   5.859   3.522   1.158  1.3544  1.7970  1.5069
  640SOL     OW 2818   2.802   1.621   6.508 -0.0192  0.2881 -0.3901
  640SOL    HW1 2819   2.856   1.657   6.431  0.6112  3.9169  1.5447
  640SOL    HW2 2820   2.705   1.641   6.494 -0.2910 -1.5565 -1.4380
  641SOL     OW 2821   0.832   1.628   1.174  0.0852 -0.0203 -0.0732
  641SOL    HW1 2822   0.826   1.712   1.228  0.2744 -0.8345  1.2626
  641SOL    HW2 2823   0.791   1.643   1.084  0.7363  1.6960 -0.1203
  642SOL     OW 2824   4.256   4.076   5.797 -0.3105 -0.0725  0.3815
  642SOL    HW1 2825   4.166   4.114   5.815 -0.2842  1.7564 -2.5715
  642SOL    HW2 2826   4.251   4.012   5.720  0.7915 -0.6719  0.7752
  643SOL     OW 2827   5.073   4.697   4.943  0.2530  0.2837  0.3958
  643SOL    HW1 2828   5.077   4.618   4.882 -1.4864 -0.3665  1.0556
  643SOL    HW2 2829   5.009   4.765   4.907 -1.4339 -0.4690  1.8205
  644SOL     OW 2830   3.298   1.279   4.262 -0.7106 -0.0138  0.5817
  644SOL    HW1 2831   3.305   1.200   4.324 -1.6789 -0.1496  0.5356
  644SOL    HW2 2832   3.238   1.348   4.303 -0.3515  0.4436  0.3469
  645SOL     OW 2833   3.589   4.583   1.054 -0.1164  0.1789 -0.3722
  645SOL    HW1 2834   3.687   4.603   1.058 -0.3244  1.4570 -0.9508
  645SOL    HW2 2835   3.575   4.484   1.055  1.1963 -0.0361 -0.6854
  646SOL     OW 2836   4.658   5.212   5.752 -0.2709  0.7368 -1.0731
  646SOL    HW1 2837   4.751   5.217   5.790  0.1232  0.7889 -2.0267
  646SOL    HW2 2838   4.631   5.116   5.746 -0.0866  0.6933 -1.2400
  647SOL     OW 2839   4.429   6.768   5.764 -0.4133 -0.0638  0.0688
  647SOL    HW1 2840   4.373   6.833   5.713 -0.6499  0.0820  0.5077
  647SOL    HW2 2841   4.402   6.675   5.741  0.4048 -0.0296 -1.1009
  648SOL     OW 2842   1.341   0.622   0.974 -0.3050 -0.0857  0.1120
  648SOL    HW1 2843   1.261   0.586   0.925  1.4876 -0.8042 -2.5260
  648SOL    HW2 2844   1.342   0.722   0.967 -0.4894 -0.1306 -0.6623
  649SOL     OW 2845   5.891   5.275   5.000 -0.0418  0.0296 -0.1175
  649SOL    HW1 2846   5.830   5.269   5.079 -2.1707 -0.9231 -1.7505
  649SOL    HW2 2847   5.865   5.353   4.944 -0.4107 -0.9367 -1.3272
  650SOL     OW 2848   1.301   2.088   1.059 -0.1191 -0.6504 -0.5936
  650SOL    HW1 2849   1.313   1.990   1.043  0.7585 -1.0056  1.7759
  650SOL    HW2 2850   1.275   2.104   1.155 -0.2327  1.4345 -0.9079
  651SOL     OW 2851   1.889   3.708   6.964 -0.0328  0.4461  0.1953
  651SOL    HW1 2852   1.886   3.667   7.055 -0.6929 -0.1288 -0.0765
  651SOL    HW2 2853   1.859   3.641   6.896  0.7004  0.7895 -0.4787
  652SOL     OW 2854   0.277   3.687   2.213  0.4430  0.1362 -0.2656
  652SOL    HW1 2855   0.248   3.662   2.306  0.2200  0.0568 -0.3560
  652SOL    HW2 2856   0.247   3.616   2.149 -2.1368  1.6608 -0.8713
  653SOL     OW 2857   4.273   2.824   5.306 -0.2424  0.0613  0.0306
  653SOL    HW1 2858   4.190   2.879   5.308 -0.9815 -0.9495 -0.9696
  653SOL    HW2 2859   4.255   2.740   5.254  0.7464 -1.2770  1.7532
  654SOL     OW 2860   0.458   0.132   6.135  0.1099  0.0126 -0.1365
  654SOL    HW1 2861   0.364   0.158   6.158  0.2029  1.2123 -1.0341
  654SOL    HW2 2862   0.483   0.170   6.046  1.2233 -0.8719 -0.2292
  655SOL     OW 2863   4.548   2.561   3.139 -0.7239  0.1253 -0.2055
  655SOL    HW1 2864   4.589   2.561   3.048 -1.4803 -0.7394 -0.5570
  655SOL    HW2 2865   4.568   2.648   3.185  1.8325 -0.3705 -0.2045
  656SOL     OW 2866   4.347   2.043   4.561  0.1713  0.1630  0.1699
  656SOL    HW1 2867   4.439   2.043   4.523  0.0233  0.9589 -0.1963
  656SOL    HW2 2868   4.331   2.128   4.611 -0.8322  0.6626 -0.9373
  657SOL     OW 2869   2.164   1.460   4.198  0.0387 -0.2077  0.3700
  657SOL    HW1 2870   2.081   1.407   4.215  0.7045 -1.7951 -1.0539
  657SOL    HW2 2871   2.201   1.491   4.286 -1.1224 -0.9493  1.1622
  658SOL     OW 2872   5.840   6.549   1.345 -0.1327  0.4646  0.8653
  658SOL    HW1 2873   5.796   6.561   1.434 -0.2955  0.4532  0.7887
  658SOL    HW2 2874   5.898   6.468   1.347  1.2628  1.4359  1.4983
  659SOL     OW 2875   6.769   2.411   2.626 -0.1043  0.1817 -0.4473
  659SOL    HW1 2876   6.735   2.439   2.536 -0.7029 -0.0436 -0.2962
  659SOL    HW2 2877   6.704   2.348   2.668  0.4880 -0.2307 -0.1306
  660SOL     OW 2878   1.858   1.156   4.697 -0.2318  0.1035  0.0326
  660SOL    HW1 2879   1.771   1.158   4.647  0.6062 -1.3003 -1.6327
  660SOL    HW2 2880   1.862   1.073   4.753  0.1047  0.0596 -0.0538
  661SOL     OW 2881   1.505   6.891   1.952  0.3500  0.0301 -0.5290
  661SOL    HW1 2882   1.511   6.896   1.852 -1.6217  0.8091 -0.6603
  661SOL    HW2 2883   1.510   6.983   1.990  0.5752 -0.2183  0.0463
  662SOL     OW 2884   0.310   3.753   0.024 -0.4987 -0.1234  0.1573
  662SOL    HW1 2885   0.242   3.812  -0.019  0.1113  1.1139  0.8291
  662SOL    HW2 2886   0.319   3.777   0.121  0.4758 -0.6603  0.2131
  663SOL     OW 2887   3.841   3.570   0.458 -0.4294 -0.2569 -0.0788
  663SOL    HW1 2888   3.932   3.540   0.429  0.6423  1.7090  1.0359
  663SOL    HW2 2889   3.840   3.581   0.558 -1.7276  0.3065 -0.1323
  664SOL     OW 2890   2.198   0.222   6.143 -0.1324 -0.2115  0.5140
  664SOL    HW1 2891   2.172   0.128   6.119 -0.3028  0.0181 -0.2092
  664SOL    HW2 2892   2.124   0.285   6.117  1.3497  0.5480 -2.2036
  665SOL     OW 2893   6.144   6.478   3.958  0.7247  0.8893  0.2180
  665SOL    HW1 2894   6.071   6.418   3.993  2.1460 -1.9264 -1.2947
  665SOL    HW2 2895   6.125   6.502   3.863  0.9822  1.5247  0.3228
  666SOL     OW 2896   2.213   0.273   6.411  0.1620  0.8929 -0.3468
  666SOL    HW1 2897   2.220   0.240   6.317 -0.5303 -0.2146 -0.0255
  666SOL    HW2 2898   2.167   0.205   6.468  2.4548  0.5698  1.2860
  667SOL     OW 2899   2.548   4.839   1.145 -0.3357 -0.2801 -0.2653
  667SOL    HW1 2900   2.618   4.901   1.109 -0.2459 -0.4215 -0.3315
  667SOL    HW2 2901   2.590   4.770   1.203 -0.6437  0.9114  1.4708
  668SOL     OW 2902   0.958   2.767   4.471 -0.5610  0.4607 -0.0330
  668SOL    HW1 2903   1.005   2.768   4.560  0.0770 -1.3561 -0.3138
  668SOL    HW2 2904   0.859   2.755   4.486 -0.5344  0.8509  0.4586
  669SOL     OW 2905   1.156   4.010   6.290 -0.5520  0.4086  0.3620
  669SOL    HW1 2906   1.186   4.101   6.319  0.4383  0.4672 -0.7376
  669SOL    HW2 2907   1.108   4.017   6.202  0.6860 -0.2479 -0.3999
  670SOL     OW 2908   2.851   5.014   1.349  0.2558  0.7686 -0.4714
  670SOL    HW1 2909   2.936   5.035   1.397  0.3490 -1.5762  0.4775
  670SOL    HW2 2910   2.778   4.997   1.415  0.2859 -2.0948 -1.0494
  671SOL     OW 2911   1.279   4.829   2.625  0.4659 -0.5869  0.2994
  671SOL    HW1 2912   1.325   4.918   2.617  1.1103 -0.9789 -0.4769
  671SOL    HW2 2913   1.181   4.841   2.612  0.6738 -0.1489 -0.9439
  672SOL     OW 2914   6.378   5.527   5.642 -0.0136 -0.2117 -0.1397
  672SOL    HW1 2915   6.378   5.557   5.547  1.2547 -1.4374 -0.5596
  672SOL    HW2 2916   6.390   5.606   5.702 -1.1433  0.6166 -0.9564
  673SOL     OW 2917   1.858   2.160   7.023  0.1197 -0.4003  0.7587
  673SOL    HW1 2918   1.879   2.126   7.114  1.0202  1.1968  1.1979
  673SOL    HW2 2919   1.762   2.144   7.001  0.6949 -4.1786  0.4285
  674SOL     OW 2920   1.133   0.965   5.698  0.3894 -0.5031  0.2185
  674SOL    HW1 2921   1.041   0.983   5.663  0.6346  0.6498  0.0972
  674SOL    HW2 2922   1.130   0.891   5.765 -1.0226  1.0059  1.9266
  675SOL     OW 2923   4.949   0.159   0.951 -0.2984 -0.5836  0.3948
  675SOL    HW1 2924   5.007   0.238   0.969  0.6372 -1.0389 -0.5571
  675SOL    HW2 2925   4.870   0.162   1.012 -1.4176  2.2037 -0.9951
  676SOL     OW 2926   2.200   4.995   0.077  0.0275  0.1280 -0.1956
  676SOL    HW1 2927   2.174   5.066   0.143 -0.9124  0.7539 -1.2201
  676SOL    HW2 2928   2.287   4.954   0.106  2.3527  3.8840 -1.2108
  677SOL     OW 2929   4.774   6.070   0.810  0.1515  0.3980  0.1233
  677SOL    HW1 2930   4.723   6.046   0.892 -1.4068  2.0612 -0.2909
  677SOL    HW2 2931   4.829   6.152   0.828 -2.0206  2.2165 -1.0644
  678SOL     OW 2932   5.109   2.681   3.225  0.2508 -0.3671  0.0617
  678SOL    HW1 2933   5.150   2.748   3.287 -1.0348  0.9926 -0.4940
  678SOL    HW2 2934   5.116   2.715   3.131 -0.5673 -0.9404 -0.2136
  679SOL     OW 2935   2.503   2.419   1.538 -0.2873  0.3032  0.1653
  679SOL    HW1 2936   2.576   2.473   1.497 -0.2170 -0.2564 -0.4548
  679SOL    HW2 2937   2.415   2.451   1.503 -0.2157 -0.3020 -0.5864
  680SOL     OW 2938   6.435   5.825   0.808 -0.1255  0.2048 -0.0572
  680SOL    HW1 2939   6.430   5.736   0.853 -1.4387 -0.3635 -1.2601
  680SOL    HW2 2940   6.529   5.840   0.776  0.4121 -0.1475  1.2644
  681SOL     OW 2941   4.978   4.764   2.399  0.0275 -0.1143 -0.4906
  681SOL    HW1 2942   5.001   4.667   2.406 -2.2321 -0.7472 -0.9922
  681SOL    HW2 2943   4.994   4.796   2.306  3.1244  0.7166  0.2398
  682SOL     OW 2944   0.939   0.246   2.484 -0.1820  0.0243 -0.4111
  682SOL    HW1 2945   0.993   0.289   2.556  0.8342 -1.7644 -0.0598
  682SOL    HW2 2946   0.997   0.183   2.432 -1.5092 -0.5679 -1.2163
  683SOL     OW 2947   0.627   1.851   1.942  0.5822  0.2874 -0.0459
  683SOL    HW1 2948   0.551   1.887   1.886  0.1328  0.7832  0.8627
  683SOL    HW2 2949   0.710   1.847   1.886  0.0167  0.2633 -0.9028
  684SOL     OW 2950   4.306   4.833   0.631 -0.3888  0.6034  0.0568
  684SOL    HW1 2951   4.317   4.837   0.730  0.8419 -1.3449  0.0471
  684SOL    HW2 2952   4.208   4.835   0.608 -0.9223 -2.3077  1.5795
  685SOL     OW 2953   1.232   0.401   4.177  0.1096 -0.3998 -0.1955
  685SOL    HW1 2954   1.308   0.466   4.185 -0.5547  0.4118 -0.4183
  685SOL    HW2 2955   1.147   0.446   4.202 -0.0997 -1.8030  1.8976
  686SOL     OW 2956   4.624   4.117   0.997 -0.0042  0.4521 -0.1940
  686SOL    HW1 2957   4.611   4.099   1.095 -1.0500  0.8391 -0.2417
  686SOL    HW2 2958   4.652   4.212   0.984 -1.6999  0.9738 -0.3481
  687SOL     OW 2959   0.817   0.472   6.708 -0.4581  0.3153  0.5413
  687SOL    HW1 2960   0.777   0.438   6.622  1.1711  0.9308 -0.5063
  687SOL    HW2 2961   0.743   0.503   6.768 -1.6746 -0.5474 -0.4366
  688SOL     OW 2962   6.473   0.332   2.244  0.2275  0.2596 -0.4342
  688SOL    HW1 2963   6.474   0.414   2.186  0.0364 -0.1001 -0.9601
  688SOL    HW2 2964   6.505   0.355   2.335 -3.6480  1.8545  0.7176
  689SOL     OW 2965   0.155   0.647   6.211  0.1296 -0.1253  0.1584
  689SOL    HW1 2966   0.225   0.672   6.143  1.5462  2.3630  2.3391
  689SOL    HW2 2967   0.072   0.700   6.194  0.3330  0.1755  0.0729
  690SOL     OW 2968   6.809   6.053   0.413 -0.0721  0.2935 -0.2910
  690SOL    HW1 2969   6.882   6.070   0.347 -0.1712  0.5721 -0.3298
  690SOL    HW2 2970   6.734   6.116   0.396 -1.0827 -1.1475 -1.3887
  691SOL     OW 2971   1.450   2.570   0.403  0.2066  0.1480  0.8889
  691SOL    HW1 2972   1.395   2.535   0.328  2.3100 -2.4849  0.4551
  691SOL    HW2 2973   1.389   2.606   0.475 -1.9314 -0.3796 -0.5681
  692SOL     OW 2974   0.532   2.154   6.773 -0.0486 -0.3312 -0.5363
  692SOL    HW1 2975   0.473   2.151   6.854 -0.1428  0.5157 -0.5735
  692SOL    HW2 2976   0.487   2.207   6.701  1.7108  2.3269  0.2100
  693SOL     OW 2977   3.930   5.018   0.303  0.3322  0.0160  0.1402
  693SOL    HW1 2978   3.955   4.955   0.376  0.0583 -0.3558 -0.0870
  693SOL    HW2 2979   4.005   5.083   0.288  0.0922  0.5908  1.2730
  694SOL     OW 2980   3.355   0.270   3.215 -0.6083 -0.1106  0.4404
  694SOL    HW1 2981   3.361   0.314   3.125  0.1493 -0.2179  0.4286
  694SOL    HW2 2982   3.259   0.260   3.241 -0.9282 -1.6151 -1.1161
  695SOL     OW 2983   6.770   6.996   2.474 -0.1246 -0.2152  0.0466
  695SOL    HW1 2984   6.674   7.022   2.467 -0.6108 -2.0572 -0.6339
  695SOL    HW2 2985   6.819   7.065   2.527 -2.1630 -0.1403  1.9719
  696SOL     OW 2986   3.514   5.887   1.350  0.1151 -0.0379  0.4394
  696SOL    HW1 2987   3.553   5.946   1.278  1.5824  0.1274  1.3280
  696SOL    HW2 2988   3.474   5.806   1.308 -0.2960  0.7063 -0.6632
  697SOL     OW 2989   6.815   5.759   4.950 -0.2423 -0.5839  0.2120
  697SOL    HW1 2990   6.808   5.727   4.855  1.0887  0.4127 -0.2688
  697SOL    HW2 2991   6.841   5.683   5.009 -1.1114 -1.2224 -0.2096
  698SOL     OW 2992   1.477   0.001   0.947 -0.0834  0.0762 -0.4284
  698SOL    HW1 2993   1.496   0.002   0.849  0.4429  0.4026 -0.3256
  698SOL    HW2 2994   1.542   0.059   0.994  0.0170 -0.5192  0.1828
  699SOL     OW 2995   1.866   3.229   3.624 -0.2043  0.2325 -0.0402
  699SOL    HW1 2996   1.908   3.225   3.715  1.0496 -0.7156 -0.6367
  699SOL    HW2 2997   1.881   3.142   3.576 -0.7834  0.7450 -1.1954
  700SOL     OW 2998   4.675   1.952   1.165 -0.2218  0.1492 -0.0057
  700SOL    HW1 2999   4.646   1.935   1.260 -0.1122  2.4253  0.4827
  700SOL    HW2 3000   4.603   1.920   1.103 -0.3910 -1.1840  0.8157
  701SOL     OW 3001   5.478   3.249   5.844 -0.0120 -0.1113 -0.2297
  701SOL    HW1 3002   5.498   3.339   5.805  1.7748 -0.2262  0.3320
  701SOL    HW2 3003   5.412   3.259   5.919  2.4307  1.2578  1.9323
  702SOL     OW 3004   6.830   4.843   0.747  0.5300 -0.1545  0.5758
  702SOL    HW1 3005   6.841   4.772   0.817  1.3514 -0.5247  0.0765
  702SOL    HW2 3006   6.854   4.806   0.658  0.9488  0.7446  0.3034
  703SOL     OW 3007   0.629   6.888   3.960  0.7007 -0.0249 -0.3046
  703SOL    HW1 3008   0.673   6.799   3.970 -0.0686 -0.2681  1.0745
  703SOL    HW2 3009   0.561   6.882   3.887  0.3161 -0.7055  0.0990
  704SOL     OW 3010   4.415   1.374   0.891  0.3279 -0.1414  0.1039
  704SOL    HW1 3011   4.334   1.378   0.950  0.7058  1.6447  0.5672
  704SOL    HW2 3012   4.401   1.306   0.820 -2.3279  1.3096 -0.9150
  705SOL     OW 3013   0.905   5.637   3.900  0.7572 -0.8143  0.2019
  705SOL    HW1 3014   0.932   5.664   3.808 -0.5178 -0.1417 -0.0019
  705SOL    HW2 3015   0.904   5.537   3.907 -0.5019 -0.9134 -0.9722
  706SOL     OW 3016   2.188   2.159   5.424 -0.1686 -0.1901  0.0391
  706SOL    HW1 3017   2.177   2.229   5.353 -0.6707  0.1864  0.4711
  706SOL    HW2 3018   2.159   2.070   5.388  0.4784 -0.1801 -0.5162
  707SOL     OW 3019   4.313   6.896   3.898 -0.0473 -0.1515  0.1899
  707SOL    HW1 3020   4.283   6.849   3.982  0.1918  0.0870  0.4089
  707SOL    HW2 3021   4.233   6.929   3.848 -0.1874 -0.2190  0.3689
  708SOL     OW 3022   4.856   3.231   1.248 -0.0019  0.4479 -0.1037
  708SOL    HW1 3023   4.888   3.282   1.168 -0.6803 -0.3906 -0.9295
  708SOL    HW2 3024   4.915   3.251   1.326 -0.1973  2.4223 -0.4146
  709SOL     OW 3025   0.256   0.807   3.505  0.2317 -0.3779  0.8807
  709SOL    HW1 3026   0.289   0.808   3.599  1.2143 -0.5964  0.5531
  709SOL    HW2 3027   0.222   0.716   3.482 -0.9804 -0.0589  1.3324
  710SOL     OW 3028   5.208   3.580   2.655  0.2069  0.2851  0.3086
  710SOL    HW1 3029   5.252   3.490   2.655 -0.1106  0.1239 -0.3461
  710SOL    HW2 3030   5.268   3.646   2.700  0.6419 -0.1626  0.3930
  711SOL     OW 3031   3.171   4.113   1.144  0.2789 -0.1354 -0.1346
  711SOL    HW1 3032   3.099   4.044   1.137 -0.2937  0.2212  1.7815
  711SOL    HW2 3033   3.243   4.080   1.205  0.0546  0.8826  0.7126
  712SOL     OW 3034   5.227   2.990   0.761 -0.0871 -0.2711  0.2926
  712SOL    HW1 3035   5.323   3.018   0.769 -0.1653 -0.3680  1.8458
  712SOL    HW2 3036   5.192   2.965   0.851 -1.9518  0.9538 -0.0335
  713SOL     OW 3037   2.766   1.881   6.949 -0.1379  0.0673 -0.4434
  713SOL    HW1 3038   2.737   1.977   6.947 -0.4296  0.0617  1.2946
  713SOL    HW2 3039   2.787   1.850   6.857 -2.0387  1.2003 -1.3149
  714SOL     OW 3040   3.628   3.753   5.534 -0.1310 -0.1903  0.4036
  714SOL    HW1 3041   3.530   3.743   5.516 -0.1508  1.1176 -0.3671
  714SOL    HW2 3042   3.679   3.693   5.472 -0.3890  0.8476 -0.8761
  715SOL     OW 3043   5.774   6.894   5.654  0.3717 -0.4859 -0.3405
  715SOL    HW1 3044   5.858   6.921   5.608  1.2104 -1.5819  0.4917
  715SOL    HW2 3045   5.737   6.812   5.611 -0.1313 -0.1688 -0.5245
  716SOL     OW 3046   1.752   0.630   1.037  0.0177 -0.3089 -0.0508
  716SOL    HW1 3047   1.702   0.606   0.954 -0.5671 -1.8035  0.6788
  716SOL    HW2 3048   1.758   0.549   1.096 -0.1971  0.8720  1.6708
  717SOL     OW 3049   3.987   5.768   2.719 -0.5208 -0.3356 -0.0960
  717SOL    HW1 3050   4.034   5.707   2.782 -1.2303 -1.0008 -0.1966
  717SOL    HW2 3051   3.919   5.822   2.770  1.3664  1.7900  0.3530
  718SOL     OW 3052   3.481   3.109   2.781  0.0610  0.7450  0.1882
  718SOL    HW1 3053   3.408   3.044   2.758 -0.9463  1.2830  1.6951
  718SOL    HW2 3054   3.529   3.077   2.863 -0.5564  1.9394  1.0541
  719SOL     OW 3055   6.495   5.976   1.041 -0.0339  0.1372 -0.1068
  719SOL    HW1 3056   6.557   6.053   1.058  2.4437 -1.2443 -2.2114
  719SOL    HW2 3057   6.523   5.928   0.958 -2.2685 -2.3177  0.4136
  720SOL     OW 3058   6.866   3.393   5.027  0.4242  0.1184 -0.3337
  720SOL    HW1 3059   6.941   3.424   4.968  0.1483  1.0831 -0.2002
  720SOL    HW2 3060   6.790   3.360   4.971  1.0864 -1.2579 -0.4668
  721SOL     OW 3061   2.483   2.407   6.929  0.0883  0.6231 -0.1578
  721SOL    HW1 3062   2.509   2.322   6.975 -1.8829  0.2673  0.3850
  721SOL    HW2 3063   2.504   2.485   6.989  1.3502  0.5102 -0.4159
  722SOL     OW 3064   0.914   3.596   4.212 -0.1742 -0.3471 -0.1460
  722SOL    HW1 3065   0.947   3.618   4.120  0.1861  2.3520  0.5483
  722SOL    HW2 3066   0.815   3.607   4.215 -0.4242 -2.0787 -0.5648
  723SOL     OW 3067   5.896   1.249   3.441 -0.1545 -0.1465 -0.0085
  723SOL    HW1 3068   5.816   1.256   3.381 -0.0023 -0.4229 -0.2435
  723SOL    HW2 3069   5.974   1.216   3.389  0.4814  1.4565 -0.1116
  724SOL     OW 3070   5.510   0.957   0.812 -0.1974 -0.2344 -0.3733
  724SOL    HW1 3071   5.459   0.935   0.728  1.1529 -1.5444 -0.8894
  724SOL    HW2 3072   5.588   1.015   0.789 -1.2380  1.5428  0.3784
  725SOL     OW 3073   4.653   6.090   4.780 -0.3619 -0.3359 -0.1471
  725SOL    HW1 3074   4.661   6.049   4.689  2.3137 -0.0738 -0.1244
  725SOL    HW2 3075   4.613   6.182   4.772  1.8913  0.6156 -1.4408
  726SOL     OW 3076   6.188   3.953   2.204  0.0790 -0.1403  0.4036
  726SOL    HW1 3077   6.121   3.889   2.166  0.1140 -0.4139  0.7973
  726SOL    HW2 3078   6.231   4.004   2.129  0.2931 -0.8172  0.0542
  727SOL     OW 3079   1.944   6.602   4.030  0.4216  0.5069  0.1610
  727SOL    HW1 3080   1.919   6.691   3.991 -0.0232  0.5197  0.4765
  727SOL    HW2 3081   2.037   6.579   4.002  0.4681  0.9819 -0.0840
  728SOL     OW 3082   6.117   1.610   5.330  0.6311 -0.6210  0.2594
  728SOL    HW1 3083   6.077   1.543   5.267 -1.3787 -0.7557  1.6012
  728SOL    HW2 3084   6.112   1.701   5.288  1.4937 -1.0116 -0.7285
  729SOL     OW 3085   6.760   1.803   4.929 -0.3880 -0.5208  0.3241
  729SOL    HW1 3086   6.699   1.819   5.007  1.3137 -1.0414  1.8413
  729SOL    HW2 3087   6.846   1.764   4.962  0.4765 -0.5575 -1.8252
  730SOL     OW 3088   1.687   1.574   4.413  0.2867 -0.5206 -0.1992
  730SOL    HW1 3089   1.747   1.495   4.402 -0.5604 -1.3282  0.7898
  730SOL    HW2 3090   1.592   1.544   4.422  0.0364  0.5280  1.0957
  731SOL     OW 3091   4.104   6.984   4.409  0.2972  0.0293 -0.0196
  731SOL    HW1 3092   4.126   6.889   4.391  3.3875  0.5582  0.4953
  731SOL    HW2 3093   4.171   7.043   4.364 -0.7733  1.9308  0.7602
  732SOL     OW 3094   5.848   3.233   4.405  0.1163  0.2245 -0.4664
  732SOL    HW1 3095   5.819   3.147   4.447  2.4085 -0.7291 -0.6818
  732SOL    HW2 3096   5.909   3.281   4.467  1.2522  0.2069 -1.5400
  733SOL     OW 3097   0.033   3.857   0.665 -0.5386  0.1481  0.4172
  733SOL    HW1 3098  -0.024   3.788   0.620  2.6918 -1.0858 -2.3113
  733SOL    HW2 3099  -0.023   3.934   0.693 -3.5415 -1.1150 -1.5655
  734SOL     OW 3100   2.042   4.963   3.207 -0.1220 -0.4673  0.2605
  734SOL    HW1 3101   2.059   4.896   3.280  1.2041 -0.5216 -0.0865
  734SOL    HW2 3102   1.976   4.925   3.142  0.0413 -1.1318  0.4738
  735SOL     OW 3103   4.406   3.369   0.459  0.5990  0.2468 -0.1725
  735SOL    HW1 3104   4.459   3.441   0.504  0.1474  0.7566 -0.4418
  735SOL    HW2 3105   4.395   3.391   0.362 -1.0158  0.7192  0.0873
  736SOL     OW 3106   6.786   4.323   3.858 -0.1491  0.0926 -0.5896
  736SOL    HW1 3107   6.789   4.419   3.886  1.4014 -0.2730  0.6692
  736SOL    HW2 3108   6.837   4.268   3.924 -1.8331 -1.7634 -0.7236
  737SOL     OW 3109   2.030   3.196   0.978 -0.7739 -0.0224  0.0960
  737SOL    HW1 3110   2.080   3.112   1.001  1.6958  0.9832 -1.1743
  737SOL    HW2 3111   1.942   3.173   0.938 -0.7806 -1.9519  1.1199
  738SOL     OW 3112   4.011   6.832   4.099  0.6114 -0.7156 -0.6016
  738SOL    HW1 3113   3.993   6.890   4.019  1.0975 -1.3210 -1.1545
  738SOL    HW2 3114   3.949   6.858   4.173  0.7743  0.4694 -0.8633
  739SOL     OW 3115   5.753   2.054   3.385  0.0814 -0.2697 -0.0181
  739SOL    HW1 3116   5.700   1.991   3.328  1.2895  0.6192 -2.2452
  739SOL    HW2 3117   5.808   2.114   3.326  0.8760  1.1914  2.0991
  740SOL     OW 3118   3.253   0.680   2.570 -0.2103  0.6545  0.3978
  740SOL    HW1 3119   3.317   0.618   2.617 -0.8200 -0.0262  0.3513
  740SOL    HW2 3120   3.275   0.684   2.473  0.0331  0.7713  0.4565
  741SOL     OW 3121   5.342   2.184   5.513 -0.2953  0.0994  0.7808
  741SOL    HW1 3122   5.427   2.144   5.479  0.3480 -0.5379  2.9341
  741SOL    HW2 3123   5.362   2.272   5.556 -1.1345  1.0741 -0.7397
  742SOL     OW 3124   1.285   5.137   0.921 -0.4438  0.1341  0.0388
  742SOL    HW1 3125   1.347   5.087   0.981  1.5844  0.6956 -1.4685
  742SOL    HW2 3126   1.203   5.163   0.972  1.4079  1.1103  2.7648
  743SOL     OW 3127   2.289   5.007   4.911 -0.3465 -0.0602  0.0404
  743SOL    HW1 3128   2.343   5.026   4.829 -0.3417  1.0143  0.2830
  743SOL    HW2 3129   2.351   4.999   4.990 -0.3973 -0.5631  0.0329
  744SOL     OW 3130   4.512   1.499   4.865  0.7200  0.0149 -0.2254
  744SOL    HW1 3131   4.536   1.402   4.867  1.4400  0.1849  1.3057
  744SOL    HW2 3132   4.511   1.532   4.771 -1.1224 -1.8343 -0.9275
  745SOL     OW 3133   3.450   1.789   4.727 -0.6556 -0.0326 -0.1283
  745SOL    HW1 3134   3.409   1.878   4.750 -1.8274 -0.5983  0.0848
  745SOL    HW2 3135   3.497   1.796   4.640  0.4453  1.1410  0.5256
  746SOL     OW 3136   0.097   5.287   3.885 -0.4464  0.0644  0.0433
  746SOL    HW1 3137   0.101   5.269   3.983  0.0360  0.6608  0.1348
  746SOL    HW2 3138   0.004   5.317   3.861  0.0681  2.4344  0.7765
  747SOL     OW 3139   2.008   1.707   2.019 -0.0357  0.0210  0.1346
  747SOL    HW1 3140   1.921   1.661   1.998  0.1159 -0.1372 -0.1625
  747SOL    HW2 3141   2.000   1.804   1.998  0.0992 -0.1270 -0.6464
  748SOL     OW 3142   4.022   4.870   0.517 -0.6442  0.9322 -0.4154
  748SOL    HW1 3143   4.040   4.963   0.549  1.2889  0.7690 -0.9290
  748SOL    HW2 3144   3.955   4.827   0.577  0.3412  1.7940  1.3880
  749SOL     OW 3145   3.612   0.081   5.849  0.0508  0.1649 -0.5075
  749SOL    HW1 3146   3.518   0.108   5.867  0.0162 -0.0620 -0.3407
  749SOL    HW2 3147   3.618   0.037   5.760 -0.0709 -0.1588 -0.3575
  750SOL     OW 3148   6.916   1.886   4.400 -0.3326 -0.1775 -0.4803
  750SOL    HW1 3149   6.842   1.900   4.335 -1.8187 -2.7892  0.4989
  750SOL    HW2 3150   6.989   1.831   4.358 -0.7282 -0.8197 -0.3434
  751SOL     OW 3151   2.784   6.032   3.475  0.4785 -0.2783 -0.7371
  751SOL    HW1 3152   2.691   6.047   3.441  0.3170 -1.7139 -1.0074
  751SOL    HW2 3153   2.795   5.935   3.500  1.5904  0.0758  0.2622
  752SOL     OW 3154   6.184   0.711   1.463 -0.4358 -0.4471 -0.2358
  752SOL    HW1 3155   6.261   0.647   1.456  0.1904  0.2599  0.0618
  752SOL    HW2 3156   6.101   0.660   1.484  0.1838 -1.1039  0.7407
  753SOL     OW 3157   3.444   2.918   4.547  1.3462  0.6261 -0.3347
  753SOL    HW1 3158   3.395   2.927   4.633 -0.2489  1.9125 -1.3252
  753SOL    HW2 3159   3.541   2.938   4.561  1.4335 -0.7804  1.4382
  754SOL     OW 3160   0.100   2.231   2.100  0.1532  0.7809 -0.8242
  754SOL    HW1 3161   0.136   2.138   2.106 -2.8462 -0.3903  1.2624
  754SOL    HW2 3162   0.009   2.230   2.059 -0.2450  2.7092 -0.1250
  755SOL     OW 3163   1.493   6.035   5.038  0.6163  0.1792 -0.3667
  755SOL    HW1 3164   1.583   6.010   5.003  1.0191  0.3399  0.5290
  755SOL    HW2 3165   1.448   5.954   5.076 -0.0660 -0.1143 -1.7654
  756SOL     OW 3166   6.259   6.853   6.314  0.0303 -0.4474 -0.6040
  756SOL    HW1 3167   6.283   6.946   6.344  0.4542 -0.8580  0.3836
  756SOL    HW2 3168   6.161   6.847   6.300 -0.1561 -0.1519  0.4643
  757SOL     OW 3169   0.778   5.431   6.219 -0.0361 -0.2219  0.3252
  757SOL    HW1 3170   0.857   5.486   6.245 -0.3346  0.8477 -0.9227
  757SOL    HW2 3171   0.697   5.465   6.268  0.1741 -1.0146  1.2467
  758SOL     OW 3172   2.084   0.955   0.568 -0.2761 -0.4587  0.2357
  758SOL    HW1 3173   2.078   0.995   0.659 -0.1071  1.1498 -0.4383
  758SOL    HW2 3174   2.038   1.014   0.501  1.7165 -0.3352 -1.1138
  759SOL     OW 3175   0.138   4.019   5.322 -0.2167  0.1516 -0.0513
  759SOL    HW1 3176   0.095   3.971   5.398  1.0680  0.0855  0.6594
  759SOL    HW2 3177   0.113   4.115   5.325  1.3446  0.5632  1.6500
  760SOL     OW 3178   0.059   1.630   2.131 -0.1287 -0.0827 -0.3692
  760SOL    HW1 3179   0.094   1.541   2.159  1.4972  0.9535  1.0220
  760SOL    HW2 3180   0.074   1.697   2.203 -1.1919  1.3791 -1.4354
  761SOL     OW 3181   6.578   4.191   6.273 -0.0777  0.2041  0.6297
  761SOL    HW1 3182   6.644   4.119   6.292  0.2159 -0.0480 -1.1811
  761SOL    HW2 3183   6.513   4.159   6.203 -1.1935  0.9922  1.2649
  762SOL     OW 3184   6.791   1.794   3.275  0.5190 -0.0433 -0.0907
  762SOL    HW1 3185   6.786   1.794   3.175 -1.6659  1.6137 -0.0592
  762SOL    HW2 3186   6.739   1.717   3.311  0.5175 -0.1088 -0.2334
  763SOL     OW 3187   6.733   3.881   5.864 -0.0790 -0.5235  0.0823
  763SOL    HW1 3188   6.811   3.940   5.843 -1.4296  0.6423 -1.9019
  763SOL    HW2 3189   6.751   3.789   5.830  0.5167 -0.3264 -0.1513
  764SOL     OW 3190   5.235   1.160   1.168  0.0888  0.1646  0.7322
  764SOL    HW1 3191   5.287   1.087   1.211  0.1313 -0.5723 -0.5244
  764SOL    HW2 3192   5.137   1.138   1.172  0.2226 -1.4718 -2.1506
  765SOL     OW 3193   0.415   1.013   3.386  0.1917  0.0739 -0.3514
  765SOL    HW1 3194   0.336   0.964   3.423  0.9497 -1.1751 -0.3132
  765SOL    HW2 3195   0.384   1.094   3.336 -1.0938 -0.2893 -0.1794
  766SOL     OW 3196   0.850   6.083   2.406  0.5316 -0.0349 -0.0710
  766SOL    HW1 3197   0.830   6.181   2.403  1.1993  0.2766  2.8738
  766SOL    HW2 3198   0.764   6.032   2.412  0.2174  0.5690  0.9385
  767SOL     OW 3199   5.785   2.641   0.687  0.6549  0.1755 -0.1469
  767SOL    HW1 3200   5.742   2.722   0.647  1.4432  0.2769 -0.8117
  767SOL    HW2 3201   5.715   2.586   0.733 -0.4191 -0.2632 -2.1798
  768SOL     OW 3202   0.952   5.727   1.851 -0.6837 -0.5836  0.4332
  768SOL    HW1 3203   0.953   5.633   1.818 -0.1979 -1.1927  2.0991
  768SOL    HW2 3204   0.998   5.786   1.785 -1.0035 -1.5003 -0.6356
  769SOL     OW 3205   5.926   1.032   3.617 -0.3361  0.0133 -0.1551
  769SOL    HW1 3206   6.025   1.047   3.622  0.3917 -2.7739 -2.8958
  769SOL    HW2 3207   5.886   1.093   3.549 -0.6255  1.3876  1.2057
  770SOL     OW 3208   4.859   6.712   0.396  0.1519 -0.2744 -0.2984
  770SOL    HW1 3209   4.782   6.736   0.338  0.5042  1.0376 -0.2415
  770SOL    HW2 3210   4.831   6.640   0.460 -1.1139  0.4124 -0.0493
  771SOL     OW 3211   5.989   0.962   5.083 -0.6012  0.1990  0.1308
  771SOL    HW1 3212   5.958   1.000   5.170 -1.3682  1.6715 -0.7285
  771SOL    HW2 3213   6.083   0.929   5.092 -0.2065  1.5236  1.1912
  772SOL     OW 3214   5.315   6.703   1.979  0.0798 -0.1442  0.0057
  772SOL    HW1 3215   5.330   6.619   1.927  1.3254 -0.3503  0.6433
  772SOL    HW2 3216   5.272   6.680   2.067  2.0268 -0.3817  0.9486
  773SOL     OW 3217   3.192   5.688   1.504  0.3296  0.0996 -0.4118
  773SOL    HW1 3218   3.204   5.590   1.492 -0.9668 -0.1234 -0.0039
  773SOL    HW2 3219   3.106   5.706   1.552  0.1816  1.4647 -1.1330
  774SOL     OW 3220   5.728   6.604   4.262  0.4161 -0.1408  0.5193
  774SOL    HW1 3221   5.775   6.621   4.175  0.0375 -0.8948  0.1583
  774SOL    HW2 3222   5.788   6.630   4.338  0.4475  1.2930  0.0350
  775SOL     OW 3223   4.975   3.182   6.834 -0.2952  0.1397  0.5581
  775SOL    HW1 3224   4.986   3.218   6.741  1.4314 -0.0088  0.6726
  775SOL    HW2 3225   5.062   3.186   6.881 -0.6099 -1.9568  1.4106
  776SOL     OW 3226   2.114   2.792   3.623  0.2399  0.1021  0.1718
  776SOL    HW1 3227   2.207   2.756   3.623 -0.1850 -1.0444 -0.1840
  776SOL    HW2 3228   2.052   2.725   3.581 -0.7905  0.7114  0.6727
  777SOL     OW 3229   5.029   5.573   2.865 -0.5406 -0.1244  0.1793
  777SOL    HW1 3230   5.010   5.670   2.876 -1.6200 -0.2448 -0.5165
  777SOL    HW2 3231   5.123   5.561   2.832 -0.3285  0.6602  0.4727
  778SOL     OW 3232   4.794   2.115   6.462  0.0384  0.0514  0.2912
  778SOL    HW1 3233   4.841   2.146   6.380 -1.2892  0.0134 -0.5127
  778SOL    HW2 3234   4.856   2.059   6.517  0.0306 -2.8070 -2.3285
  779SOL     OW 3235   6.398   4.505   4.138 -0.2187  0.5152 -0.2801
  779SOL    HW1 3236   6.338   4.425   4.142  0.3177  0.1352  0.3058
  779SOL    HW2 3237   6.397   4.543   4.046 -1.9950  1.0135 -0.0963
  780SOL     OW 3238   1.165   3.094   0.298 -0.1153 -0.2870 -0.1117
  780SOL    HW1 3239   1.259   3.074   0.327  0.0952 -0.5046 -0.9189
  780SOL    HW2 3240   1.166   3.161   0.224 -0.5323 -0.9518 -0.7386
  781SOL     OW 3241   4.708   6.825   5.152 -0.1386  0.4959  0.2604
  781SOL    HW1 3242   4.797   6.871   5.153 -0.3204  0.8334  0.9908
  781SOL    HW2 3243   4.665   6.838   5.063  0.3705  0.6493  0.0297
  782SOL     OW 3244   3.559   3.662   2.539  0.0710 -0.3827  1.1025
  782SOL    HW1 3245   3.477   3.609   2.558  0.6372 -1.9915 -0.6444
  782SOL    HW2 3246   3.637   3.601   2.527  1.5075  1.0818  2.3961
  783SOL     OW 3247   4.200   4.786   5.651 -0.4543 -0.5846 -0.2122
  783SOL    HW1 3248   4.229   4.713   5.589  2.0085  0.1955 -0.0631
  783SOL    HW2 3249   4.206   4.874   5.604  2.4045  0.1361  1.3259
  784SOL     OW 3250   0.751   5.163   6.931 -0.1388 -0.9616  0.7698
  784SOL    HW1 3251   0.816   5.216   6.876 -1.7018  0.0160 -0.2301
  784SOL    HW2 3252   0.734   5.075   6.886 -2.2090  0.2505 -1.0334
  785SOL     OW 3253   1.673   4.559   5.641  0.4470 -0.1202 -0.2860
  785SOL    HW1 3254   1.721   4.533   5.557  1.5791 -0.2101  0.3728
  785SOL    HW2 3255   1.679   4.485   5.707 -2.5313 -1.0815 -0.9273
  786SOL     OW 3256   6.286   5.702   0.070  0.1676  0.3845 -0.1410
  786SOL    HW1 3257   6.328   5.731  -0.016  1.3299 -2.3007 -0.5810
  786SOL    HW2 3258   6.211   5.640   0.051 -0.8632  1.3059  0.7898
  787SOL     OW 3259   6.399   0.462   2.726  0.1502 -0.3770  0.3281
  787SOL    HW1 3260   6.409   0.369   2.764 -1.4454 -1.0742 -0.8484
  787SOL    HW2 3261   6.325   0.462   2.659 -1.9076  2.4089  2.3892
  788SOL     OW 3262   1.013   6.343   3.606  0.0366 -0.0395 -0.3663
  788SOL    HW1 3263   1.027   6.257   3.557  0.1132 -0.6909  0.7749
  788SOL    HW2 3264   1.017   6.327   3.705 -1.0041  1.0949 -0.1122
  789SOL     OW 3265   2.946   1.773   0.558  0.1361 -0.5614 -0.3894
  789SOL    HW1 3266   3.006   1.762   0.638 -0.8272 -1.2471  0.2695
  789SOL    HW2 3267   2.858   1.728   0.576 -0.5198  0.2656 -1.4008
  790SOL     OW 3268   6.486   3.263   3.542  0.4887 -0.6610 -0.4253
  790SOL    HW1 3269   6.549   3.308   3.478 -0.0933  0.9282  0.0584
  790SOL    HW2 3270   6.530   3.183   3.581  2.1390  0.2564 -0.2923
  791SOL     OW 3271   4.393   1.328   2.442  0.5076  0.7310  0.0101
  791SOL    HW1 3272   4.484   1.294   2.418 -0.9904 -2.7456 -1.3741
  791SOL    HW2 3273   4.343   1.351   2.358 -1.5640 -2.4376  0.2284
  792SOL     OW 3274   2.022   5.902   1.512  0.2371 -0.1605  0.1880
  792SOL    HW1 3275   1.934   5.858   1.494  0.8240 -1.3249  0.0154
  792SOL    HW2 3276   2.070   5.851   1.584  1.9519 -1.3189 -1.6505
  793SOL     OW 3277   1.081   5.708   5.573 -0.4930 -0.2512 -0.2335
  793SOL    HW1 3278   0.982   5.705   5.590 -0.2562 -0.7185  1.1938
  793SOL    HW2 3279   1.124   5.628   5.614  0.3915 -0.4504 -1.5310
  794SOL     OW 3280   5.754   0.579   5.074  0.3526  0.5655 -0.2671
  794SOL    HW1 3281   5.842   0.590   5.120 -0.1377 -0.5543  1.0083
  794SOL    HW2 3282   5.765   0.515   4.997  0.6354  0.3291 -0.0335
  795SOL     OW 3283   4.555   5.479   1.291  0.0863  0.3546 -0.4624
  795SOL    HW1 3284   4.648   5.483   1.327 -0.7319  1.7036  1.6434
  795SOL    HW2 3285   4.504   5.559   1.321 -1.9351 -0.6250 -1.1211
  796SOL     OW 3286   1.882   0.908   5.578  0.2529 -0.2598  0.0657
  796SOL    HW1 3287   1.884   0.848   5.659  0.9063 -1.3146 -0.7032
  796SOL    HW2 3288   1.969   0.901   5.529 -0.5605 -0.6142 -1.3971
  797SOL     OW 3289   5.012   1.152   1.730  0.1361  0.1724 -0.2222
  797SOL    HW1 3290   5.060   1.192   1.652 -0.8840  2.5414  0.2776
  797SOL    HW2 3291   5.002   1.221   1.802  0.2860 -1.6833  1.6861
  798SOL     OW 3292   6.712   3.310   0.587 -0.0761  0.6190 -0.0215
  798SOL    HW1 3293   6.807   3.339   0.583 -0.5580  2.6132  1.1381
  798SOL    HW2 3294   6.672   3.340   0.674 -2.2308  1.5180 -1.2296
  799SOL     OW 3295   2.081   2.593   5.304 -0.2269 -0.2252 -0.5520
  799SOL    HW1 3296   2.163   2.638   5.268 -1.4361  1.6715 -1.0690
  799SOL    HW2 3297   2.099   2.562   5.397  0.1045  3.3342  0.7410
  800SOL     OW 3298   0.193   3.477   4.412  0.0551  0.5213  0.1933
  800SOL    HW1 3299   0.218   3.559   4.362 -0.3943  1.4432  1.4294
  800SOL    HW2 3300   0.248   3.400   4.381  1.7845  1.6819  0.2935
  801SOL     OW 3301   1.982   4.700   4.645  0.5589  0.3672 -0.0143
  801SOL    HW1 3302   2.022   4.736   4.729  1.4572 -3.2099  1.2882
  801SOL    HW2 3303   1.888   4.670   4.662  0.0213  1.5052 -0.8914
  802SOL     OW 3304   5.322   0.727   3.013  0.4087 -0.1699 -0.1088
  802SOL    HW1 3305   5.377   0.775   2.944 -0.6165  2.3931  0.7912
  802SOL    HW2 3306   5.233   0.704   2.974  0.0365  0.7688  0.1925
  803SOL     OW 3307   6.082   5.403   0.670 -0.2609  0.2501 -0.0009
  803SOL    HW1 3308   6.098   5.501   0.676  1.1449  0.0212  0.3705
  803SOL    HW2 3309   6.123   5.358   0.750  1.0996 -0.8435 -1.2516
  804SOL     OW 3310   6.662   2.585   4.957  0.2719 -0.0727 -0.0744
  804SOL    HW1 3311   6.587   2.540   4.910 -1.1268  0.2357  1.7554
  804SOL    HW2 3312   6.729   2.616   4.890 -1.1385 -0.5008 -1.7585
  805SOL     OW 3313   6.872   0.924   1.159 -0.6018  0.1193 -0.1831
  805SOL    HW1 3314   6.914   0.891   1.244 -3.0195 -1.1909  0.5852
  805SOL    HW2 3315   6.869   0.850   1.092  1.4312  1.1868 -1.5736
  806SOL     OW 3316   4.660   6.421   5.023 -0.6941 -0.4465 -0.4496
  806SOL    HW1 3317   4.657   6.321   5.029  0.5825 -0.4769 -0.0709
  806SOL    HW2 3318   4.704   6.458   5.105  0.4470  0.3020 -1.3661
  807SOL     OW 3319   3.527   6.789   6.301 -0.4255 -0.4365  0.0286
  807SOL    HW1 3320   3.615   6.772   6.257  1.2642  0.5619  2.7618
  807SOL    HW2 3321   3.510   6.718   6.370 -0.4973  0.7202  1.2405
  808SOL     OW 3322   1.449   2.098   6.493 -0.2399  0.8804 -0.2425
  808SOL    HW1 3323   1.350   2.086   6.484 -0.0260  0.5601 -2.6823
  808SOL    HW2 3324   1.495   2.065   6.411  1.8420  2.0410  0.3738
  809SOL     OW 3325   5.546   0.801   4.617  0.1521  0.6334 -0.0426
  809SOL    HW1 3326   5.591   0.879   4.659  2.1023 -0.9779  1.0541
  809SOL    HW2 3327   5.499   0.748   4.688 -0.0550  0.1154 -0.5558
  810SOL     OW 3328   4.444   0.107   1.251 -0.2067  0.3559  0.6196
  810SOL    HW1 3329   4.492   0.173   1.309  1.1617 -0.5334  0.5442
  810SOL    HW2 3330   4.453   0.015   1.290  0.5862 -0.2379 -0.8663
  811SOL     OW 3331   6.287   6.775   0.145 -0.1449  0.0993 -0.1528
  811SOL    HW1 3332   6.237   6.696   0.109  1.7356 -2.0438  1.5905
  811SOL    HW2 3333   6.271   6.854   0.086 -0.5757 -2.0374 -3.1607
  812SOL     OW 3334   1.381   0.337   4.635  0.0420 -0.3864  0.3831
  812SOL    HW1 3335   1.469   0.384   4.637  0.5354 -1.2952  0.1985
  812SOL    HW2 3336   1.316   0.391   4.582  0.8425 -0.3062 -0.5401
  813SOL     OW 3337   0.110   6.769   5.384  0.1191  0.7047 -0.4494
  813SOL    HW1 3338   0.082   6.822   5.304  0.7578  0.3217 -0.9359
  813SOL    HW2 3339   0.136   6.677   5.356 -0.4212  0.3077  0.3123
  814SOL     OW 3340   2.738   5.061   3.694  0.9288 -0.1683  0.3367
  814SOL    HW1 3341   2.722   5.099   3.603  0.9753 -2.1566 -0.5542
  814SOL    HW2 3342   2.789   4.976   3.686 -1.3780 -1.8450  1.9616
  815SOL     OW 3343   0.112   3.944   4.421 -0.3004 -0.0846  0.5424
  815SOL    HW1 3344   0.198   3.896   4.441 -0.1106  0.3377  0.7625
  815SOL    HW2 3345   0.060   3.892   4.354  0.6893  0.2512 -0.5302
  816SOL     OW 3346   2.190   4.874   5.264  0.4329  0.5967  0.2814
  816SOL    HW1 3347   2.203   4.802   5.331  0.0464  0.5520  0.3126
  816SOL    HW2 3348   2.209   4.963   5.306  0.6407  0.5356  0.3185
  817SOL     OW 3349   0.889   0.097   1.754  0.5428 -0.2244  0.2133
  817SOL    HW1 3350   0.905   0.063   1.847 -1.2991  2.3728  1.5952
  817SOL    HW2 3351   0.966   0.152   1.725  0.4686  0.2372  0.8686
  818SOL     OW 3352   6.549   2.122   4.013 -0.2331 -0.2676 -0.3042
  818SOL    HW1 3353   6.475   2.188   4.025  0.4149  0.3526  0.3724
  818SOL    HW2 3354   6.533   2.069   3.930 -1.1433  0.2434 -0.4668
  819SOL     OW 3355   3.384   0.067   2.815  0.0794 -0.0751  0.0850
  819SOL    HW1 3356   3.470   0.018   2.805  0.4525  0.9541 -2.5689
  819SOL    HW2 3357   3.309   0.002   2.821  0.9502 -0.9845  2.4216
  820SOL     OW 3358   2.446   6.151   2.643 -0.6255 -0.6969  0.2223
  820SOL    HW1 3359   2.451   6.130   2.546 -0.3038  2.4103 -0.5232
  820SOL    HW2 3360   2.361   6.114   2.681 -1.0147 -1.4724 -1.3492
  821SOL     OW 3361   4.273   4.710   4.129 -0.5043 -0.4024 -0.3142
  821SOL    HW1 3362   4.312   4.762   4.205  0.2910 -0.5673 -0.5987
  821SOL    HW2 3363   4.294   4.613   4.141 -0.6336 -0.4641 -0.5856
  822SOL     OW 3364   6.715   4.526   2.490 -0.0706  0.0383 -0.4870
  822SOL    HW1 3365   6.623   4.516   2.528 -0.0427  0.3164 -0.3459
  822SOL    HW2 3366   6.763   4.599   2.537  1.0139 -1.5287  0.9460
  823SOL     OW 3367   6.734   2.563   0.165 -0.7897  0.1712 -0.1770
  823SOL    HW1 3368   6.736   2.477   0.114  1.1542  1.1394 -1.9188
  823SOL    HW2 3369   6.654   2.616   0.138  0.0325  0.5183 -2.1042
  824SOL     OW 3370   0.326   0.401   0.117 -0.2910 -0.4192 -0.1391
  824SOL    HW1 3371   0.386   0.324   0.138 -0.7742 -0.8378 -0.2700
  824SOL    HW2 3372   0.286   0.388   0.027 -0.5622 -0.1346 -0.0613
  825SOL     OW 3373   3.737   0.555   6.244  0.0068 -0.1517  0.4220
  825SOL    HW1 3374   3.785   0.568   6.331  0.5132 -0.0502  0.1320
  825SOL    HW2 3375   3.680   0.473   6.250  2.0051 -1.6403  0.0152
  826SOL     OW 3376   0.024   5.859   3.031 -0.8831  0.0186 -0.2141
  826SOL    HW1 3377   0.051   5.767   3.058 -1.5395  0.4006  1.9156
  826SOL    HW2 3378  -0.073   5.873   3.051 -1.0838  0.7951 -1.6317
  827SOL     OW 3379   3.601   5.336   2.291  0.7577  0.7845 -0.2085
  827SOL    HW1 3380   3.688   5.335   2.242  0.2270 -3.1623 -1.4414
  827SOL    HW2 3381   3.532   5.380   2.233  1.1675  0.5900 -0.8616
  828SOL     OW 3382   0.865   2.795   6.930  0.5497 -0.6047  0.2294
  828SOL    HW1 3383   0.887   2.876   6.876 -0.4340 -2.2391 -2.8800
  828SOL    HW2 3384   0.948   2.758   6.971  1.4980  0.3035 -0.8212
  829SOL     OW 3385   1.227   0.622   4.915  0.2398 -0.0536  0.1135
  829SOL    HW1 3386   1.316   0.664   4.897  1.2154 -1.3590  1.6379
  829SOL    HW2 3387   1.237   0.523   4.917 -1.1013 -0.1901  1.1106
  830SOL     OW 3388   3.162   6.554   4.969  0.0762 -0.3625  0.1579
  830SOL    HW1 3389   3.203   6.464   4.978 -0.4453 -0.5597  0.5866
  830SOL    HW2 3390   3.174   6.605   5.054  2.4664  0.8796 -0.8336
  831SOL     OW 3391   1.744   6.438   2.773  0.1394  0.2706  0.0707
  831SOL    HW1 3392   1.699   6.375   2.836 -2.1771  2.0412  0.2920
  831SOL    HW2 3393   1.680   6.464   2.700  2.0149  0.0698 -1.7517
  832SOL     OW 3394   2.607   0.920   1.798  0.1085 -0.3600 -0.0830
  832SOL    HW1 3395   2.542   0.949   1.868  0.9147  1.8839 -0.1652
  832SOL    HW2 3396   2.595   0.823   1.779 -4.4458  0.2408 -1.4311
  833SOL     OW 3397   5.934   4.025   5.648  0.0185  0.1834  0.3920
  833SOL    HW1 3398   5.970   4.114   5.619 -0.0835  0.1341  0.1132
  833SOL    HW2 3399   5.963   3.955   5.584  1.2319 -0.2108  1.3334
  834SOL     OW 3400   2.420   5.093   3.970 -0.2857 -0.0070 -0.0983
  834SOL    HW1 3401   2.485   5.029   3.927  1.3260 -0.2081  2.4447
  834SOL    HW2 3402   2.330   5.049   3.977  0.8226 -2.1684  1.7434
  835SOL     OW 3403   0.919   0.794   1.984  0.4249  0.3987  0.8537
  835SOL    HW1 3404   0.842   0.826   2.039 -0.0794  1.7274 -0.5576
  835SOL    HW2 3405   1.002   0.840   2.013 -0.0795  2.1392 -0.3360
  836SOL     OW 3406   1.525   3.277   5.702 -0.2151 -0.0243 -0.3324
  836SOL    HW1 3407   1.582   3.269   5.620 -2.3768  1.0456 -2.0374
  836SOL    HW2 3408   1.479   3.190   5.719  1.2698 -0.6654  0.6159
  837SOL     OW 3409   6.496   4.178   5.925  0.2712 -0.0872 -0.5230
  837SOL    HW1 3410   6.546   4.237   5.988  1.9034 -1.0024 -0.9091
  837SOL    HW2 3411   6.458   4.100   5.975  0.2993 -0.0422 -0.4313
  838SOL     OW 3412   4.139   3.508   6.960  0.4562  0.2888  0.3166
  838SOL    HW1 3413   4.129   3.503   7.059  0.9809  1.9545  0.4814
  838SOL    HW2 3414   4.152   3.603   6.932 -0.2492 -0.0810 -1.4181
  839SOL     OW 3415   4.535   5.524   4.657 -0.4369 -0.3221 -0.6561
  839SOL    HW1 3416   4.438   5.501   4.646 -0.0340 -1.5612 -1.8615
  839SOL    HW2 3417   4.543   5.617   4.692 -2.0499  0.0697 -1.2482
  840SOL     OW 3418   0.544   6.968   1.076  0.3852  0.0345 -0.0965
  840SOL    HW1 3419   0.576   7.016   1.157 -1.1846  1.1876 -0.1193
  840SOL    HW2 3420   0.567   7.021   0.994  1.2449 -0.7286 -0.3731
  841SOL     OW 3421   3.168   4.793   1.477 -0.5653  0.1964 -0.1589
  841SOL    HW1 3422   3.111   4.776   1.396 -4.5303  1.6906  2.0032
  841SOL    HW2 3423   3.151   4.722   1.545  1.6611 -0.2915 -0.0463
  842SOL     OW 3424   1.481   1.552   6.077  0.0755  0.5554 -0.4397
  842SOL    HW1 3425   1.490   1.610   5.997  1.8083 -0.5380 -1.0849
  842SOL    HW2 3426   1.490   1.607   6.160 -0.4287  1.4921 -0.9837
  843SOL     OW 3427   0.906   0.897   1.698 -0.4738 -0.4318  0.0363
  843SOL    HW1 3428   0.932   0.904   1.794 -0.8520  0.8048  0.0610
  843SOL    HW2 3429   0.808   0.879   1.690 -0.5267 -0.0793 -0.1240
  844SOL     OW 3430   3.587   5.987   1.753  0.3148  0.0342  0.3244
  844SOL    HW1 3431   3.668   5.978   1.695 -1.3028 -0.6645 -1.9318
  844SOL    HW2 3432   3.513   6.030   1.701 -1.2131 -0.5830  1.8921
  845SOL     OW 3433   3.098   0.491   0.338  0.0314 -0.0847 -0.2164
  845SOL    HW1 3434   3.185   0.512   0.384 -0.1798 -1.7104  0.9820
  845SOL    HW2 3435   3.074   0.567   0.277  1.1782  1.3735  1.0725
  846SOL     OW 3436   2.440   6.865   1.565 -0.1302  0.0970 -0.3533
  846SOL    HW1 3437   2.352   6.910   1.581 -0.1389 -0.7175  2.6610
  846SOL    HW2 3438   2.511   6.934   1.550 -0.8844  0.8712 -0.4258
  847SOL     OW 3439   4.535   6.051   5.884  0.2030  1.3275  0.0924
  847SOL    HW1 3440   4.436   6.049   5.892  0.2530  0.5683  0.6371
  847SOL    HW2 3441   4.572   6.115   5.953  0.1559  0.6958  0.7175
  848SOL     OW 3442   0.995   5.205   3.547 -0.8427 -0.2772  0.1404
  848SOL    HW1 3443   1.077   5.257   3.572 -2.0117  1.1121  1.2224
  848SOL    HW2 3444   0.927   5.266   3.507 -1.6797 -1.2597  0.0122
  849SOL     OW 3445   0.988   3.469   2.075 -0.5415 -0.3220  0.1263
  849SOL    HW1 3446   0.960   3.423   2.159 -0.0045 -1.5938 -0.3644
  849SOL    HW2 3447   1.006   3.565   2.093 -0.8656 -0.4832  1.3654
  850SOL     OW 3448   5.482   0.531   0.109 -0.2036  0.2662  0.0404
  850SOL    HW1 3449   5.490   0.574   0.018  0.1954  2.4170  1.0278
  850SOL    HW2 3450   5.553   0.568   0.169 -0.2131 -1.4343  1.1507
  851SOL     OW 3451   0.546   6.071   2.462  0.0917 -0.0779 -0.4452
  851SOL    HW1 3452   0.477   6.084   2.391 -0.8605 -0.9341  0.2991
  851SOL    HW2 3453   0.523   6.129   2.540  0.3134 -0.2404 -0.2609
  852SOL     OW 3454   5.143   3.619   3.626 -0.3424  0.0985  0.0003
  852SOL    HW1 3455   5.053   3.603   3.583 -0.6401 -1.8184  1.2396
  852SOL    HW2 3456   5.155   3.717   3.642 -1.6676  0.5160 -1.3195
  853SOL     OW 3457   2.243   2.236   1.425  0.1915  0.1387  0.0059
  853SOL    HW1 3458   2.214   2.248   1.330 -1.6312  0.3761  0.5503
  853SOL    HW2 3459   2.260   2.139   1.442 -1.1100 -0.1327 -0.1440
  854SOL     OW 3460   6.506   3.656   6.600 -0.1258 -0.0458 -0.0768
  854SOL    HW1 3461   6.457   3.742   6.618  0.8406  0.3789  0.6277
  854SOL    HW2 3462   6.604   3.674   6.596 -0.0536 -0.6868 -2.6104
  855SOL     OW 3463   6.541   5.404   6.597 -0.3715  0.1720 -0.2181
  855SOL    HW1 3464   6.551   5.461   6.516  0.7921  2.3614  1.3702
  855SOL    HW2 3465   6.472   5.444   6.657  0.9251  0.3307  1.2281
  856SOL     OW 3466   5.316   3.336   2.672  0.0580 -0.3079  0.2315
  856SOL    HW1 3467   5.346   3.313   2.765  1.1548 -0.0035 -0.0276
  856SOL    HW2 3468   5.388   3.310   2.608 -0.5734 -0.2443 -0.5093
  857SOL     OW 3469   5.640   1.954   3.720  0.1865  0.3223  0.6862
  857SOL    HW1 3470   5.584   1.894   3.663 -0.6833  1.4284  0.3407
  857SOL    HW2 3471   5.630   2.049   3.688  1.1653  0.7134  1.5030
  858SOL     OW 3472   3.777   6.674   0.065 -0.1173  0.0212  0.4341
  858SOL    HW1 3473   3.766   6.617  -0.016  1.6502  0.9067 -0.4973
  858SOL    HW2 3474   3.730   6.761   0.051 -0.5741 -0.1679  0.7565
  859SOL     OW 3475   3.447   6.083   5.772  0.0983  0.1637  0.0587
  859SOL    HW1 3476   3.409   6.133   5.694  1.4738  1.2066  0.0210
  859SOL    HW2 3477   3.403   5.993   5.779 -1.2406  0.7116 -0.8864
  860SOL     OW 3478   2.001   2.131   3.841  0.5924 -0.2129 -0.0067
  860SOL    HW1 3479   2.023   2.038   3.870 -1.3771 -0.3793  1.1870
  860SOL    HW2 3480   2.035   2.196   3.909  3.2246  0.1384 -1.5295
  861SOL     OW 3481   1.803   2.667   4.680 -0.1345  0.3266 -0.6561
  861SOL    HW1 3482   1.794   2.764   4.661 -1.4381  0.1316 -1.1357
  861SOL    HW2 3483   1.730   2.638   4.741  0.1428 -0.3829 -0.6509
  862SOL     OW 3484   2.857   5.252   1.545  0.0140  0.0209  0.4569
  862SOL    HW1 3485   2.795   5.194   1.597 -1.1381 -0.0193 -0.9006
  862SOL    HW2 3486   2.806   5.329   1.505  0.5705 -0.6364 -1.6331
  863SOL     OW 3487   2.847   4.435   0.366 -0.0041 -0.0781  0.1833
  863SOL    HW1 3488   2.900   4.382   0.300 -1.0267  0.2927 -0.9715
  863SOL    HW2 3489   2.862   4.533   0.350 -0.2206  0.0103  0.5202
  864SOL     OW 3490   3.370   1.188   5.867 -0.2334  0.5026 -0.3358
  864SOL    HW1 3491   3.343   1.186   5.963 -0.4889 -1.8337 -0.4003
  864SOL    HW2 3492   3.433   1.264   5.852  0.0390  0.7463  1.7335
  865SOL     OW 3493   5.654   1.101   5.144 -0.5516 -0.2719 -0.0405
  865SOL    HW1 3494   5.730   1.077   5.204  0.5107 -0.3168 -1.3567
  865SOL    HW2 3495   5.631   1.024   5.085  0.9588  0.8925 -2.2875
  866SOL     OW 3496   1.421   0.177   6.410  0.9876 -0.1790  0.9100
  866SOL    HW1 3497   1.457   0.269   6.396  1.9119 -0.4386  1.5149
  866SOL    HW2 3498   1.447   0.119   6.333 -3.2021  1.0209 -1.7738
  867SOL     OW 3499   1.726   0.357   2.609  0.1606  0.1032 -0.0110
  867SOL    HW1 3500   1.663   0.401   2.546  0.5278  0.4700 -0.1245
  867SOL    HW2 3501   1.708   0.390   2.702 -0.7009 -0.7950  0.1647
  868SOL     OW 3502   6.824   0.216   2.585  0.0572  0.0351 -0.4165
  868SOL    HW1 3503   6.911   0.167   2.589 -0.3715 -0.6598  1.5053
  868SOL    HW2 3504   6.839   0.314   2.598  0.5441 -0.1120  0.1547
  869SOL     OW 3505   0.762   6.864   2.220  0.3234  0.1219 -0.0757
  869SOL    HW1 3506   0.750   6.890   2.125  1.6581  2.1610  0.2556
  869SOL    HW2 3507   0.703   6.920   2.278 -0.4748 -1.0977  0.3467
  870SOL     OW 3508   2.401   1.402   0.738 -0.4849 -0.4367 -0.6941
  870SOL    HW1 3509   2.424   1.479   0.799  0.0422 -0.2718 -1.0923
  870SOL    HW2 3510   2.359   1.438   0.655 -1.6360 -0.6942 -0.2457
  871SOL     OW 3511   5.176   1.397   0.126  0.6194 -0.6036  0.1107
  871SOL    HW1 3512   5.272   1.384   0.152  0.8661  0.8678  0.0269
  871SOL    HW2 3513   5.167   1.480   0.072 -0.9751  0.2756  1.6377
  872SOL     OW 3514   0.616   3.212   6.611 -0.2341 -0.4606 -0.0385
  872SOL    HW1 3515   0.588   3.131   6.662 -0.5370 -0.4435 -0.1786
  872SOL    HW2 3516   0.665   3.184   6.529  1.7814 -0.4786  1.1029
  873SOL     OW 3517   6.182   1.889   4.914 -0.1995  0.0475 -0.3806
  873SOL    HW1 3518   6.211   1.796   4.893  3.7994 -0.0982  4.0599
  873SOL    HW2 3519   6.252   1.954   4.883 -2.1241  1.5076 -1.9168
  874SOL     OW 3520   4.553   3.132   0.424 -0.2462 -0.0096  0.3461
  874SOL    HW1 3521   4.515   3.209   0.477 -1.0917 -0.8369  0.9727
  874SOL    HW2 3522   4.491   3.110   0.349 -0.0339 -0.1255  0.2054
  875SOL     OW 3523   1.157   3.819   2.231 -0.1256  0.3388  0.4077
  875SOL    HW1 3524   1.142   3.775   2.143 -0.3335  1.2617 -0.0302
  875SOL    HW2 3525   1.254   3.810   2.257 -0.2135 -0.5795  0.4545
  876SOL     OW 3526   5.015   2.577   2.806  0.5448 -0.4106  0.1798
  876SOL    HW1 3527   4.999   2.482   2.835 -1.3364 -0.2785 -0.3272
  876SOL    HW2 3528   4.994   2.586   2.709  1.3882  0.3975  0.0580
  877SOL     OW 3529   1.892   4.160   3.368 -0.5510  0.3911  0.5042
  877SOL    HW1 3530   1.850   4.140   3.280 -0.0329  0.5307  0.2187
  877SOL    HW2 3531   1.931   4.253   3.367  1.6977 -0.4896 -0.0284
  878SOL     OW 3532   5.731   4.822   5.396 -0.0236  0.2348 -1.3684
  878SOL    HW1 3533   5.704   4.789   5.486  2.3395 -1.1901 -1.1077
  878SOL    HW2 3534   5.682   4.907   5.376 -1.7155 -0.1921  0.5788
  879SOL     OW 3535   6.189   6.882   2.705  0.2421 -0.0323 -0.5360
  879SOL    HW1 3536   6.266   6.819   2.719 -0.0644 -0.4976 -0.9328
  879SOL    HW2 3537   6.108   6.830   2.679  0.5391  0.6960 -3.1922
  880SOL     OW 3538   3.269   5.535   7.023  0.1993 -0.3245  0.6318
  880SOL    HW1 3539   3.172   5.556   7.015 -0.2287 -1.8573  1.4807
  880SOL    HW2 3540   3.285   5.481   7.105  1.6644 -0.7096  0.1247
  881SOL     OW 3541   6.158   0.563   1.780  0.1302  0.4971  0.3937
  881SOL    HW1 3542   6.081   0.622   1.802 -0.1809 -0.0283  0.7365
  881SOL    HW2 3543   6.187   0.579   1.686  0.5039  1.6967  0.6909
  882SOL     OW 3544   0.956   3.457   5.394 -0.0193  0.2585  0.2267
  882SOL    HW1 3545   0.992   3.489   5.482  1.3014  2.0510 -0.8981
  882SOL    HW2 3546   0.890   3.524   5.360  0.1028 -0.0012 -0.5251
  883SOL     OW 3547   3.906   2.475   1.105  0.1669 -0.3319 -0.4942
  883SOL    HW1 3548   3.864   2.558   1.069  0.6779  0.8165  1.4149
  883SOL    HW2 3549   3.834   2.414   1.139 -0.1746 -0.4435 -1.3745
  884SOL     OW 3550   0.850   4.045   1.265  0.5311 -0.1119 -0.7739
  884SOL    HW1 3551   0.801   4.035   1.352  1.8322 -1.7051 -0.1682
  884SOL    HW2 3552   0.898   4.133   1.263 -2.0689  1.4146 -1.3039
  885SOL     OW 3553   2.330   4.519   3.976 -0.2377 -0.4447  1.0662
  885SOL    HW1 3554   2.296   4.460   4.050 -3.2701  1.4910  1.3682
  885SOL    HW2 3555   2.273   4.507   3.895  0.3574  0.6286  0.4621
  886SOL     OW 3556   2.195   1.470   6.647  0.2013 -0.3042 -0.5598
  886SOL    HW1 3557   2.293   1.460   6.663  0.0803  0.8653  1.2378
  886SOL    HW2 3558   2.179   1.541   6.579  0.6012 -1.0343 -1.4327
  887SOL     OW 3559   3.365   4.055   5.772 -0.2885 -0.4994  0.3838
  887SOL    HW1 3560   3.393   4.051   5.676 -1.6990 -0.6016 -0.0407
  887SOL    HW2 3561   3.306   3.977   5.792 -0.5294 -0.1194  1.1706
  888SOL     OW 3562   1.993   4.774   1.498  0.1309  0.3647 -0.0216
  888SOL    HW1 3563   2.037   4.719   1.569 -0.1253  0.0325 -0.1133
  888SOL    HW2 3564   1.914   4.724   1.463 -1.5749  1.8109  1.5743
  889SOL     OW 3565   0.368   6.378   2.350 -0.2007  0.0889 -0.1495
  889SOL    HW1 3566   0.307   6.456   2.361 -0.2511  0.2631 -1.5361
  889SOL    HW2 3567   0.449   6.405   2.298 -0.1361 -0.7363 -0.5019
  890SOL     OW 3568   1.173   5.812   7.001  0.4286  0.0391 -0.3692
  890SOL    HW1 3569   1.201   5.871   7.077 -0.5506  1.5184 -1.1048
  890SOL    HW2 3570   1.115   5.738   7.036 -1.1592  1.4859  0.2073
  891SOL     OW 3571   5.698   1.328   4.299  0.6200 -0.2619  0.0576
  891SOL    HW1 3572   5.693   1.362   4.393 -1.0775  0.4555 -0.2395
  891SOL    HW2 3573   5.725   1.403   4.238 -1.4396  0.2012 -0.3823
  892SOL     OW 3574   3.854   1.593   1.598 -0.0149  0.2109  0.3743
  892SOL    HW1 3575   3.898   1.569   1.511  0.3310 -0.7504  0.7956
  892SOL    HW2 3576   3.789   1.668   1.583  0.1292  0.1468 -0.6823
  893SOL     OW 3577   4.463   1.700   3.417 -0.4156  0.1196 -0.2024
  893SOL    HW1 3578   4.526   1.699   3.494 -0.0073  2.1462 -0.4583
  893SOL    HW2 3579   4.397   1.625   3.427  2.1639 -2.2987 -0.1108
  894SOL     OW 3580   2.448   5.237   4.743  0.7419 -0.0992 -0.3657
  894SOL    HW1 3581   2.401   5.298   4.806  1.9011  1.3492 -0.8223
  894SOL    HW2 3582   2.395   5.229   4.658 -0.3865 -1.3545  0.4335
  895SOL     OW 3583   1.742   2.139   5.029 -0.4145 -0.3200 -0.3023
  895SOL    HW1 3584   1.787   2.090   4.954  0.1937 -0.5221  0.1919
  895SOL    HW2 3585   1.810   2.168   5.096 -0.8801  0.4134 -0.1343
  896SOL     OW 3586   0.271   0.928   2.899 -0.3511 -0.5415 -0.2269
  896SOL    HW1 3587   0.350   0.883   2.941 -1.0979 -1.0082  0.7235
  896SOL    HW2 3588   0.196   0.930   2.965 -0.8736  0.6213 -0.8408
  897SOL     OW 3589   3.844   6.253   6.992  0.2367 -0.2037 -0.0841
  897SOL    HW1 3590   3.790   6.271   7.074 -1.5187 -0.2485 -1.1807
  897SOL    HW2 3591   3.861   6.154   6.985 -0.0191 -0.2559 -0.0009
  898SOL     OW 3592   1.491   6.600   2.892 -0.0293  0.0271 -0.5542
  898SOL    HW1 3593   1.471   6.587   2.795 -0.8103 -1.0734 -0.2691
  898SOL    HW2 3594   1.513   6.511   2.933 -0.3205  0.3869  0.3986
  899SOL     OW 3595   3.785   2.836   0.232 -0.5892 -0.3050 -0.7055
  899SOL    HW1 3596   3.785   2.904   0.159 -0.0790  1.9417  1.2793
  899SOL    HW2 3597   3.714   2.767   0.213 -1.4914  1.0317 -2.5217
  900SOL     OW 3598   3.504   3.629   5.836 -0.5053  1.1091  0.0515
  900SOL    HW1 3599   3.563   3.588   5.767  0.8023  0.7742  1.3065
  900SOL    HW2 3600   3.424   3.571   5.851  1.0651 -0.8496  1.4481
  901SOL     OW 3601   5.107   4.981   1.854  0.1573 -0.3629 -0.1959
  901SOL    HW1 3602   5.109   4.994   1.755 -0.1602 -2.0675 -0.4429
  901SOL    HW2 3603   5.187   4.929   1.883  1.3479  1.8512  0.7622
  902SOL     OW 3604   6.213   5.387   3.472 -0.2894 -0.7298  0.5810
  902SOL    HW1 3605   6.242   5.312   3.531  1.4605 -0.5795 -0.0317
  902SOL    HW2 3606   6.167   5.350   3.391 -0.0955 -1.1054  0.6392
  903SOL     OW 3607   6.727   6.358   1.903  0.1913 -0.4193  0.0615
  903SOL    HW1 3608   6.688   6.394   1.988  2.3254  0.6961  0.6183
  903SOL    HW2 3609   6.821   6.329   1.919  0.1306 -1.6857 -1.5919
  904SOL     OW 3610   0.950   3.550   2.476 -1.1078 -0.4733  0.3894
  904SOL    HW1 3611   0.901   3.481   2.424 -0.2656 -1.4741  0.8717
  904SOL    HW2 3612   0.935   3.640   2.435 -1.3900 -1.0718 -0.8786
  905SOL     OW 3613   3.329   6.681   0.903 -0.2225 -0.7704  0.2681
  905SOL    HW1 3614   3.402   6.684   0.835  0.9053 -0.3762  1.4567
  905SOL    HW2 3615   3.359   6.628   0.982  0.2579  2.3769  2.3823
  906SOL     OW 3616   0.121   0.961   5.936  0.2610  0.0220 -0.1753
  906SOL    HW1 3617   0.098   0.877   5.887  0.3023  1.0706 -2.0924
  906SOL    HW2 3618   0.039   0.996   5.983 -1.5632  1.9927 -4.2691
  907SOL     OW 3619   0.977   7.016   0.990  0.1251 -0.3854 -0.3386
  907SOL    HW1 3620   0.905   7.077   1.023 -0.6428 -1.2930 -0.2981
  907SOL    HW2 3621   1.066   7.059   1.004 -0.4290  1.0473 -0.9885
  908SOL     OW 3622   1.012   2.327   1.967  0.3912 -0.0144  0.0569
  908SOL    HW1 3623   1.040   2.233   1.989 -2.2750 -0.3016  2.9158
  908SOL    HW2 3624   1.043   2.388   2.040 -0.9760  0.6552  0.1106
  909SOL     OW 3625   3.513   5.365   0.868  0.8510  0.1556 -0.0068
  909SOL    HW1 3626   3.497   5.298   0.940  2.5108 -0.0089  0.2329
  909SOL    HW2 3627   3.450   5.346   0.791  1.1092 -1.5203  0.1518
  910SOL     OW 3628   1.371   3.608   4.817  0.1723 -0.2812  0.0847
  910SOL    HW1 3629   1.395   3.537   4.883  1.5009 -1.6564 -1.7954
  910SOL    HW2 3630   1.303   3.572   4.753 -1.4110  1.1679  0.8604
  911SOL     OW 3631   4.828   3.020   2.873  0.1546  0.3233 -0.0448
  911SOL    HW1 3632   4.826   2.998   2.776 -1.9875  1.9043 -0.4361
  911SOL    HW2 3633   4.797   2.941   2.926  0.4902 -0.2590 -0.7089
  912SOL     OW 3634   5.979   3.781   5.452 -0.3244 -0.5889  0.2234
  912SOL    HW1 3635   6.009   3.689   5.477 -0.6190 -0.8365 -0.3155
  912SOL    HW2 3636   5.991   3.794   5.354 -1.1712 -0.3884  0.1451
  913SOL     OW 3637   4.193   1.771   4.760 -0.5447  0.2265 -0.5109
  913SOL    HW1 3638   4.277   1.799   4.715  0.3628 -0.4598  0.6834
  913SOL    HW2 3639   4.172   1.676   4.735  0.3848 -0.4227  1.0222
  914SOL     OW 3640   4.652   0.188   5.187  0.2069  0.4375  0.6258
  914SOL    HW1 3641   4.704   0.141   5.115  0.7129 -1.4630  2.1565
  914SOL    HW2 3642   4.710   0.201   5.267 -0.9094  0.6960  1.4140
  915SOL     OW 3643   1.378   3.831   5.821  0.3972  0.2520 -0.3309
  915SOL    HW1 3644   1.316   3.774   5.874 -1.4353  1.9697 -0.5231
  915SOL    HW2 3645   1.361   3.818   5.723  1.8844 -0.8820 -0.4648
  916SOL     OW 3646   5.048   5.917   6.079 -0.1112 -0.0282  0.3078
  916SOL    HW1 3647   5.085   5.935   5.988 -0.2872 -2.4224 -0.3130
  916SOL    HW2 3648   4.986   5.991   6.105 -0.3751  0.5158 -1.6892
  917SOL     OW 3649   5.195   1.162   0.880 -0.0175 -0.2287  0.3732
  917SOL    HW1 3650   5.113   1.205   0.916  0.5711  0.5542  0.8072
  917SOL    HW2 3651   5.249   1.125   0.955  0.8156  0.6920  0.2455
  918SOL     OW 3652   6.276   3.751   1.525  0.1638  0.4159 -0.1284
  918SOL    HW1 3653   6.254   3.665   1.570  0.3668  0.4829  0.1031
  918SOL    HW2 3654   6.248   3.747   1.429  1.2892 -0.3779 -0.4533
  919SOL     OW 3655   6.906   4.542   3.627  0.4854  0.2953  0.0859
  919SOL    HW1 3656   6.876   4.491   3.547  1.5150  0.1150 -0.1952
  919SOL    HW2 3657   6.857   4.509   3.708 -0.2973  0.2357 -0.4037
  920SOL     OW 3658   0.329   3.560   3.508 -0.5337  0.1219  0.0797
  920SOL    HW1 3659   0.322   3.467   3.543  1.2716 -0.1712 -0.2693
  920SOL    HW2 3660   0.419   3.574   3.466 -0.8822  1.9214 -0.1556
  921SOL     OW 3661   3.861   6.693   5.820  0.5103 -0.7165 -0.5140
  921SOL    HW1 3662   3.893   6.642   5.900 -0.4253 -1.5878 -0.6798
  921SOL    HW2 3663   3.829   6.629   5.750 -0.0160  0.0833 -1.0224
  922SOL     OW 3664   6.892   0.083   0.565  1.0029 -0.2940 -0.9158
  922SOL    HW1 3665   6.861   0.173   0.596  1.7235 -0.3811  0.1073
  922SOL    HW2 3666   6.812   0.024   0.548  0.5438  0.3803 -1.1254
  923SOL     OW 3667   3.857   1.106   5.280  0.0794  0.5707  0.4000
  923SOL    HW1 3668   3.902   1.017   5.268 -0.9510  0.1194 -0.1335
  923SOL    HW2 3669   3.781   1.096   5.344 -0.1586  1.0377  0.1891
  924SOL     OW 3670   0.269   5.710   1.019 -0.4756 -0.3025 -0.6485
  924SOL    HW1 3671   0.365   5.720   1.045 -0.3636 -0.5680 -0.9537
  924SOL    HW2 3672   0.260   5.636   0.953 -0.7849  0.1896 -1.1729
  925SOL     OW 3673   1.143   5.824   2.514 -0.1387 -0.1728  0.2408
  925SOL    HW1 3674   1.240   5.814   2.533 -0.1061 -1.8981 -0.6857
  925SOL    HW2 3675   1.130   5.899   2.449  0.7631 -1.0733 -1.0098
  926SOL     OW 3676   3.744   5.214   5.636 -0.2307 -0.2653 -0.0123
  926SOL    HW1 3677   3.701   5.131   5.671  1.1022 -0.1879  2.0184
  926SOL    HW2 3678   3.725   5.290   5.698  1.8601  0.0043  0.3747
  927SOL     OW 3679   4.346   0.734   0.692  0.3834  0.7390 -0.8586
  927SOL    HW1 3680   4.321   0.701   0.783 -0.9798  0.8293 -1.1763
  927SOL    HW2 3681   4.292   0.686   0.623  0.4928  1.5559 -1.5350
  928SOL     OW 3682   5.034   4.731   5.206 -0.0606 -0.6209 -0.3673
  928SOL    HW1 3683   5.051   4.738   5.107 -0.1078  2.2828 -0.2363
  928SOL    HW2 3684   5.005   4.819   5.241  0.4207 -1.4665  2.3676
  929SOL     OW 3685   0.364   0.840   3.767 -0.0155 -0.3447  0.1783
  929SOL    HW1 3686   0.398   0.928   3.799 -2.2495  0.2233  1.1287
  929SOL    HW2 3687   0.429   0.768   3.792  1.0843  0.8272  0.7897
  930SOL     OW 3688   0.997   5.880   2.080  0.0016  0.2934 -0.5825
  930SOL    HW1 3689   0.977   5.812   2.010  0.3730 -0.5172  0.0841
  930SOL    HW2 3690   0.937   5.959   2.067  0.0954  0.1821 -1.8296
  931SOL     OW 3691   3.577   2.725   6.430  0.1976 -0.0448  0.5814
  931SOL    HW1 3692   3.566   2.646   6.491  0.0024 -1.8164 -1.5973
  931SOL    HW2 3693   3.487   2.763   6.408  0.2613  0.5330  1.2904
  932SOL     OW 3694   3.157   6.972   3.559 -0.1624  0.1008 -0.6033
  932SOL    HW1 3695   3.080   6.950   3.619  1.0277  0.5383  1.1696
  932SOL    HW2 3696   3.205   6.888   3.534 -1.1187 -0.1606 -1.6085
  933SOL     OW 3697   1.818   6.696   2.918  0.0341  0.2733 -0.0989
  933SOL    HW1 3698   1.827   6.627   2.990  0.9862 -0.5903 -1.0042
  933SOL    HW2 3699   1.765   6.658   2.842  0.1462  0.7190 -0.4057
  934SOL     OW 3700   1.208   3.238   4.018  0.3595 -0.0694  0.2973
  934SOL    HW1 3701   1.122   3.199   3.986  0.6065 -1.6716  1.5036
  934SOL    HW2 3702   1.215   3.333   3.987 -1.6201 -0.0523 -0.1927
  935SOL     OW 3703   2.182   1.261   2.245  0.4017  0.3824  0.5401
  935SOL    HW1 3704   2.184   1.172   2.290 -2.3094  1.2656  2.6578
  935SOL    HW2 3705   2.191   1.333   2.313  0.1447  1.7610 -0.8256
  936SOL     OW 3706   1.219   0.182   5.335  0.1864  0.1195  0.3075
  936SOL    HW1 3707   1.161   0.113   5.292 -1.8096 -0.1111  3.0652
  936SOL    HW2 3708   1.161   0.250   5.380  2.1082  1.3540  1.0502
  937SOL     OW 3709   2.347   6.048   3.078 -0.0306 -0.2813 -0.1071
  937SOL    HW1 3710   2.317   6.108   3.004  1.3069  0.6541  0.0569
  937SOL    HW2 3711   2.373   5.959   3.040 -1.6346 -0.6344 -0.4145
  938SOL     OW 3712   5.908   4.620   6.854  0.3019 -0.1488 -0.4998
  938SOL    HW1 3713   6.007   4.608   6.863  0.4186  0.1375 -1.3230
  938SOL    HW2 3714   5.869   4.541   6.805 -0.2646 -1.4866  1.9233
  939SOL     OW 3715   5.579   2.192   5.947 -0.1516 -0.6120  0.1272
  939SOL    HW1 3716   5.560   2.098   5.919  0.2923 -0.4712 -0.6981
  939SOL    HW2 3717   5.631   2.192   6.032 -0.1826 -1.1127  0.1468
  940SOL     OW 3718   3.871   6.918   0.231 -0.1453 -0.4707  0.2168
  940SOL    HW1 3719   3.780   6.947   0.203  0.7378  2.2125 -0.1844
  940SOL    HW2 3720   3.925   6.998   0.259  2.2534 -1.8713 -0.0628
  941SOL     OW 3721   4.086   0.647   3.572  0.5096 -0.8956 -0.3020
  941SOL    HW1 3722   4.083   0.644   3.672 -0.5894 -3.0023 -0.3369
  941SOL    HW2 3723   3.992   0.648   3.536  0.8881 -0.7063 -1.3238
  942SOL     OW 3724   1.481   4.062   1.533  0.3138  0.4827 -0.5204
  942SOL    HW1 3725   1.502   4.026   1.442  0.5192  0.4143 -0.4455
  942SOL    HW2 3726   1.563   4.060   1.590  0.1785  0.4999 -0.3242
  943SOL     OW 3727   0.653   2.053   0.116  0.1842  0.1595 -0.2326
  943SOL    HW1 3728   0.574   2.109   0.142  0.6557  0.1777  1.2491
  943SOL    HW2 3729   0.726   2.113   0.083 -0.1230  0.2068 -0.8471
  944SOL     OW 3730   3.935   0.513   4.105  0.0135  0.3782  0.1026
  944SOL    HW1 3731   4.035   0.521   4.098  0.1009  0.4571  1.2145
  944SOL    HW2 3732   3.904   0.433   4.054  0.5906  0.6058 -0.6271
  945SOL     OW 3733   0.663   3.361   4.589 -0.1689  0.4319  0.1748
  945SOL    HW1 3734   0.623   3.370   4.498 -0.7317  0.9419  0.4679
  945SOL    HW2 3735   0.750   3.312   4.582  0.4362  1.5938 -0.8079
  946SOL     OW 3736   6.301   1.127   2.979 -0.1968  0.1792 -0.5001
  946SOL    HW1 3737   6.206   1.145   3.001 -1.0284 -2.7119 -1.3087
  946SOL    HW2 3738   6.323   1.166   2.889 -0.7307  0.5135 -0.4865
  947SOL     OW 3739   4.139   3.457   2.816 -0.3133  0.1788  0.0914
  947SOL    HW1 3740   4.078   3.390   2.773  1.7238 -1.0492 -0.9962
  947SOL    HW2 3741   4.139   3.541   2.761  0.8125 -0.7018 -1.3318
  948SOL     OW 3742   4.142   4.072   6.891 -0.0410 -0.6074  0.1547
  948SOL    HW1 3743   4.216   4.054   6.827  0.4369  0.4241  0.3977
  948SOL    HW2 3744   4.169   4.145   6.954 -2.2338  1.8052 -1.4795
  949SOL     OW 3745   6.706   2.514   3.449 -0.1561 -0.1317 -0.0835
  949SOL    HW1 3746   6.772   2.458   3.398 -0.8941 -1.7947  0.7131
  949SOL    HW2 3747   6.720   2.500   3.547  0.0423  1.5981  0.1580
  950SOL     OW 3748   5.109   2.659   6.046  0.0492 -0.3517 -0.2786
  950SOL    HW1 3749   5.032   2.717   6.021 -0.3996 -1.2153 -0.9356
  950SOL    HW2 3750   5.084   2.563   6.034  1.4437 -0.6325 -1.1613
  951SOL     OW 3751   6.660   6.212   1.051  0.0851 -0.2316  0.1498
  951SOL    HW1 3752   6.633   6.278   0.981 -0.3160 -0.3513  0.1954
  951SOL    HW2 3753   6.721   6.258   1.116 -2.3481  0.9087  1.7703
  952SOL     OW 3754   1.515   3.859   0.288  0.5954 -0.3138 -0.3437
  952SOL    HW1 3755   1.601   3.809   0.291 -0.0086 -1.4049 -0.3686
  952SOL    HW2 3756   1.532   3.955   0.269  1.7046 -0.8381 -2.3688
  953SOL     OW 3757   1.908   2.993   5.923  0.0920 -0.2739 -0.0751
  953SOL    HW1 3758   1.991   3.047   5.905  1.1199 -1.6522  0.3979
  953SOL    HW2 3759   1.880   3.006   6.018  0.9073 -1.2762  0.3247
  954SOL     OW 3760   1.911   0.176   3.226  0.4599 -1.0513 -0.5669
  954SOL    HW1 3761   1.843   0.139   3.163  0.7719 -1.5996 -0.5920
  954SOL    HW2 3762   1.994   0.199   3.175  0.0962  0.1684 -0.6305
  955SOL     OW 3763   4.782   0.999   4.158 -0.2604 -0.2693  0.0299
  955SOL    HW1 3764   4.750   0.919   4.210  2.3950 -1.2921  0.2417
  955SOL    HW2 3765   4.858   1.041   4.206 -2.5459  3.4925  0.7463
  956SOL     OW 3766   2.521   0.236   0.695 -0.5102  0.3102  0.8277
  956SOL    HW1 3767   2.541   0.149   0.649  0.0941 -0.3113  2.1918
  956SOL    HW2 3768   2.563   0.311   0.644 -1.2444 -0.1502 -0.5090
  957SOL     OW 3769   6.217   1.299   2.471  0.3575 -0.0540 -0.6312
  957SOL    HW1 3770   6.309   1.285   2.435  0.7467  1.1679 -0.1578
  957SOL    HW2 3771   6.217   1.379   2.532 -0.7861 -0.6734  0.2066
  958SOL     OW 3772   5.662   4.997   6.578  0.5441 -0.4668 -0.2164
  958SOL    HW1 3773   5.653   4.901   6.550  0.8908 -0.6503  0.2957
  958SOL    HW2 3774   5.582   5.023   6.632  1.0590 -0.8648  0.7677
  959SOL     OW 3775   5.612   6.941   2.403  0.1697  0.2688 -0.5069
  959SOL    HW1 3776   5.686   7.007   2.414  0.0992  0.5189 -1.5000
  959SOL    HW2 3777   5.587   6.934   2.307 -0.5656 -0.4000 -0.2767
  960SOL     OW 3778   1.645   0.152   4.117  0.5197  0.2473  0.5934
  960SOL    HW1 3779   1.673   0.085   4.185  2.1558 -0.2218 -0.4855
  960SOL    HW2 3780   1.555   0.127   4.081 -0.7816  0.9734  3.1111
  961SOL     OW 3781   0.236   2.526   0.294  0.0662  0.3918  0.2345
  961SOL    HW1 3782   0.242   2.484   0.385 -1.5722  0.5326  0.4369
  961SOL    HW2 3783   0.146   2.568   0.283  0.9038  2.0338 -0.7548
  962SOL     OW 3784   5.984   0.228   5.554  0.4537 -0.6363 -0.1584
  962SOL    HW1 3785   5.916   0.178   5.608 -0.0581 -0.9440 -1.0697
  962SOL    HW2 3786   5.961   0.325   5.554  0.3975 -0.6478  0.0767
  963SOL     OW 3787   6.107   5.973   3.498  0.2576 -0.2911  0.7907
  963SOL    HW1 3788   6.011   5.997   3.513  0.4317 -0.0525  1.5566
  963SOL    HW2 3789   6.136   5.907   3.566  0.9775  0.5682  1.3405
  964SOL     OW 3790   0.234   4.338   2.042 -0.0491 -0.4397  0.2402
  964SOL    HW1 3791   0.254   4.427   2.082  1.3535 -0.2156 -0.9096
  964SOL    HW2 3792   0.145   4.306   2.075 -1.1617  1.9411 -0.2604
  965SOL     OW 3793   5.789   6.092   5.158  0.1973 -0.2265 -0.3681
  965SOL    HW1 3794   5.821   6.180   5.124 -0.5537  0.2331  0.0739
  965SOL    HW2 3795   5.866   6.037   5.189  0.6824  0.2265 -0.7655
  966SOL     OW 3796   0.071   4.006   5.019 -0.2081 -0.4107 -0.1903
  966SOL    HW1 3797   0.005   3.983   4.948 -1.5651 -0.3277  1.0022
  966SOL    HW2 3798   0.150   4.052   4.978 -0.6469 -0.9703 -1.7071
  967SOL     OW 3799   3.713   2.537   6.270  0.6135  0.4871  0.3402
  967SOL    HW1 3800   3.649   2.496   6.204  0.9740  0.8795 -0.2629
  967SOL    HW2 3801   3.671   2.618   6.310 -0.3430 -0.7689  1.9843
  968SOL     OW 3802   2.150   6.979   1.604  0.6768  0.0203 -0.2320
  968SOL    HW1 3803   2.123   6.917   1.531  1.5143 -1.5893  0.7474
  968SOL    HW2 3804   2.072   7.033   1.633  0.1765  0.2041 -1.8433
  969SOL     OW 3805   2.579   5.549   1.957  0.2009  0.1069  0.0382
  969SOL    HW1 3806   2.498   5.501   1.923  0.2328 -1.8728  2.5145
  969SOL    HW2 3807   2.656   5.485   1.961  1.0467  1.1363  0.7268
  970SOL     OW 3808   4.494   3.087   1.657  0.1081  0.3873  0.6515
  970SOL    HW1 3809   4.562   3.063   1.726  2.1175  0.7980 -1.1040
  970SOL    HW2 3810   4.534   3.149   1.590 -1.0884 -1.5898 -2.0892
  971SOL     OW 3811   0.814   1.782   0.341  0.1221  0.1194 -0.3033
  971SOL    HW1 3812   0.781   1.866   0.385  1.0119  0.9898 -1.2290
  971SOL    HW2 3813   0.746   1.750   0.276  0.6359  1.3744 -1.5180
  972SOL     OW 3814   0.852   4.276   3.604 -0.0687 -0.0490 -0.0484
  972SOL    HW1 3815   0.755   4.276   3.629 -0.0035  1.1126  0.2800
  972SOL    HW2 3816   0.907   4.270   3.687  0.1353  1.9674  0.0182
  973SOL     OW 3817   4.914   5.429   4.532 -0.1069  0.0943 -0.0584
  973SOL    HW1 3818   4.929   5.421   4.434 -0.6721  1.1352 -0.2346
  973SOL    HW2 3819   4.920   5.525   4.560  0.2762 -0.2117  0.9634
  974SOL     OW 3820   1.613   5.938   5.494  0.0934 -0.6962  0.2743
  974SOL    HW1 3821   1.611   6.005   5.419  0.8236 -1.1224 -0.1383
  974SOL    HW2 3822   1.519   5.922   5.526 -0.4403 -1.6731 -1.6178
  975SOL     OW 3823   2.020   5.383   6.358 -0.2141  0.9758 -0.1002
  975SOL    HW1 3824   2.071   5.344   6.435  1.3138 -2.6422 -2.6875
  975SOL    HW2 3825   1.930   5.340   6.353 -0.9513  2.3716  0.4757
  976SOL     OW 3826   3.775   3.431   0.035  0.0995 -0.1532  0.0838
  976SOL    HW1 3827   3.821   3.349   0.067 -1.2206 -1.0352 -0.2217
  976SOL    HW2 3828   3.796   3.446  -0.061  0.4131 -0.0698  0.1633
  977SOL     OW 3829   5.706   3.830   6.896 -0.4902  0.1236  0.6826
  977SOL    HW1 3830   5.673   3.736   6.894 -1.8179  0.5771  0.0850
  977SOL    HW2 3831   5.629   3.893   6.887  0.5666  1.2362 -1.7426
  978SOL     OW 3832   4.628   5.494   2.866 -0.4774 -0.4001  0.4311
  978SOL    HW1 3833   4.692   5.434   2.915  1.1165  2.0086  1.4503
  978SOL    HW2 3834   4.619   5.461   2.772  0.4778 -2.1158  0.8813
  979SOL     OW 3835   6.239   3.595   0.183  0.0971 -0.0839 -0.3212
  979SOL    HW1 3836   6.167   3.566   0.120  1.4362 -0.9675 -1.5283
  979SOL    HW2 3837   6.202   3.660   0.249 -2.1027 -1.5805 -0.0035
  980SOL     OW 3838   1.896   4.487   1.894  0.1274  0.2976 -0.2728
  980SOL    HW1 3839   1.850   4.551   1.955 -0.1238 -1.7055  1.7918
  980SOL    HW2 3840   1.827   4.430   1.849  0.4250 -0.0006 -0.3522
  981SOL     OW 3841   5.354   0.190   2.012 -0.4466 -0.2274 -0.1117
  981SOL    HW1 3842   5.420   0.175   2.086 -2.2497 -0.2842  1.5824
  981SOL    HW2 3843   5.356   0.287   1.986  0.5423 -0.3003 -0.3332
  982SOL     OW 3844   6.104   0.455   3.708 -0.2437 -0.3924  0.3678
  982SOL    HW1 3845   6.057   0.543   3.705 -1.4001 -0.9924  0.1321
  982SOL    HW2 3846   6.198   0.468   3.739  0.6378  1.3648 -2.6021
  983SOL     OW 3847   6.365   2.251   1.757 -0.2840  0.1921  0.3933
  983SOL    HW1 3848   6.382   2.312   1.679 -1.8784  0.0114 -0.1355
  983SOL    HW2 3849   6.274   2.212   1.749 -0.0264 -0.7575  1.7604
  984SOL     OW 3850   2.174   0.558   1.581  0.3076  0.3090 -0.2675
  984SOL    HW1 3851   2.082   0.586   1.555 -0.3742  0.1821  1.7998
  984SOL    HW2 3852   2.212   0.499   1.510 -0.4330  1.8580 -2.0380
  985SOL     OW 3853   3.357   4.819   6.879 -0.3570  0.8896 -0.0420
  985SOL    HW1 3854   3.322   4.848   6.968 -0.1388  0.7194  0.0994
  985SOL    HW2 3855   3.406   4.895   6.837 -0.0622  0.8259  0.1869
  986SOL     OW 3856   0.289   2.969   3.233  0.2510  0.3780  0.6964
  986SOL    HW1 3857   0.340   3.043   3.277  1.0233 -0.4884  1.2871
  986SOL    HW2 3858   0.353   2.902   3.196 -0.4550 -0.2935  0.6757
  987SOL     OW 3859   2.487   5.794   2.059  0.8610  0.5274  0.9012
  987SOL    HW1 3860   2.491   5.839   1.970 -1.0122  0.1176  0.5743
  987SOL    HW2 3861   2.520   5.699   2.050  0.0222  0.2679  0.4781
  988SOL     OW 3862   0.880   6.701   6.842  0.3713  0.3067 -0.4241
  988SOL    HW1 3863   0.902   6.710   6.939 -0.7376 -3.3434  0.3263
  988SOL    HW2 3864   0.954   6.651   6.797 -1.3657 -2.7590 -0.1538
  989SOL     OW 3865   1.142   5.706   3.635 -0.4298 -0.0995  0.0464
  989SOL    HW1 3866   1.181   5.641   3.699 -0.6217  0.7066  1.0094
  989SOL    HW2 3867   1.109   5.658   3.554  0.8779 -0.9946  0.0188
  990SOL     OW 3868   6.933   4.680   0.197  0.5368 -0.0546  0.0274
  990SOL    HW1 3869   6.870   4.703   0.271 -1.5674 -0.0604 -1.6474
  990SOL    HW2 3870   6.953   4.762   0.143 -0.9474 -0.6344 -1.5134
  991SOL     OW 3871   5.955   3.212   6.485  0.3187  0.2577 -0.3466
  991SOL    HW1 3872   6.004   3.125   6.491  0.2284  0.1984 -0.4464
  991SOL    HW2 3873   5.994   3.267   6.411  0.3785  0.3038 -0.2810
  992SOL     OW 3874   3.430   5.469   5.405  0.1929 -0.7534  0.0599
  992SOL    HW1 3875   3.469   5.477   5.497 -1.7881 -1.1188  0.9732
  992SOL    HW2 3876   3.416   5.373   5.383  0.3506 -0.6508 -0.5178
  993SOL     OW 3877   6.243   5.827   4.684 -0.6302  0.0274 -0.2278
  993SOL    HW1 3878   6.199   5.769   4.753 -0.8906 -0.1308 -0.5229
  993SOL    HW2 3879   6.193   5.820   4.598 -0.2411  0.1363 -0.4665
  994SOL     OW 3880   5.322   0.240   0.834  0.4402  0.5705 -0.2112
  994SOL    HW1 3881   5.301   0.296   0.914 -0.3590  0.2569 -0.1955
  994SOL    HW2 3882   5.238   0.211   0.790  0.8310 -0.6443 -0.2047
  995SOL     OW 3883   5.447   2.330   3.816  0.2329  0.0025  0.2171
  995SOL    HW1 3884   5.354   2.300   3.840 -0.4778  0.4107 -1.8364
  995SOL    HW2 3885   5.477   2.284   3.733  1.1549  1.2150 -0.1479
  996SOL     OW 3886   3.739   3.125   5.680 -0.7464  0.4178 -0.4905
  996SOL    HW1 3887   3.818   3.187   5.681 -0.6498  0.2898  0.0984
  996SOL    HW2 3888   3.687   3.139   5.596  0.6046 -0.3934 -1.5039
  997SOL     OW 3889   1.968   2.528   1.210 -0.4204  0.0370  0.4019
  997SOL    HW1 3890   2.066   2.527   1.228 -0.3188  0.1166 -0.1337
  997SOL    HW2 3891   1.923   2.456   1.264 -0.1808  0.5119  1.2532
  998SOL     OW 3892   6.739   0.548   5.944  0.3694  0.0870 -0.1749
  998SOL    HW1 3893   6.713   0.460   5.985  0.8989  0.2939  0.6324
  998SOL    HW2 3894   6.790   0.531   5.859  0.1928 -0.3780 -0.1928
  999SOL     OW 3895   0.885   4.904   6.418  0.3825 -0.4641 -0.0086
  999SOL    HW1 3896   0.872   4.917   6.320 -1.4293  1.0700  0.3858
  999SOL    HW2 3897   0.858   4.812   6.444  0.7266 -0.8289 -0.9165
 1000SOL     OW 3898   0.501   4.063   4.760  0.6855  0.9427  0.0544
 1000SOL    HW1 3899   0.532   4.034   4.850  0.9979  2.3230  0.4189
 1000SOL    HW2 3900   0.580   4.087   4.703  0.7413 -2.6878 -1.6804
 1001SOL     OW 3901   3.380   0.562   4.038  0.2086 -0.0483  0.2399
 1001SOL    HW1 3902   3.371   0.600   3.946 -0.8497 -1.8726 -0.4600
 1001SOL    HW2 3903   3.469   0.517   4.048  0.2939  0.0891  0.0799
 1002SOL     OW 3904   4.586   5.527   2.005 -0.0905  0.2568  0.0275
 1002SOL    HW1 3905   4.488   5.541   2.017  0.1090  0.9187  1.0349
 1002SOL    HW2 3906   4.634   5.614   2.017  0.3494  0.8044 -4.3044
 1003SOL     OW 3907   4.376   0.021   0.229 -0.4758  0.2606 -0.0483
 1003SOL    HW1 3908   4.351  -0.063   0.183 -1.1416 -0.9257  2.3074
 1003SOL    HW2 3909   4.329   0.098   0.186  0.1196 -0.5110 -2.2157
 1004SOL     OW 3910   1.497   3.483   0.389 -0.4337 -0.4011 -0.7620
 1004SOL    HW1 3911   1.412   3.534   0.375  0.7027  1.6638 -0.5789
 1004SOL    HW2 3912   1.484   3.416   0.461 -1.9715 -0.2973 -0.9111
 1005SOL     OW 3913   6.997   2.098   3.170 -0.4276 -0.0216  0.0121
 1005SOL    HW1 3914   7.005   2.193   3.199 -0.0871 -0.0523  0.0263
 1005SOL    HW2 3915   6.985   2.040   3.251  0.3485 -0.0888  0.0909
 1006SOL     OW 3916   0.530   2.920   4.468 -0.8308 -0.9466 -0.8605
 1006SOL    HW1 3917   0.491   2.918   4.560 -0.8742 -0.4044 -0.8637
 1006SOL    HW2 3918   0.461   2.894   4.401 -1.5317  1.0440 -0.9746
 1007SOL     OW 3919   4.006   1.271   5.065 -0.2138  0.3975  0.2810
 1007SOL    HW1 3920   3.977   1.187   5.111 -0.9623  1.2022  1.3204
 1007SOL    HW2 3921   4.038   1.337   5.134 -2.2192  1.9710 -0.2189
 1008SOL     OW 3922   5.971   4.352   3.321  0.2094 -0.4990 -0.2460
 1008SOL    HW1 3923   6.006   4.368   3.413 -1.8631 -0.6399  0.6108
 1008SOL    HW2 3924   5.913   4.429   3.294  1.5623  0.0117 -1.8733
 1009SOL     OW 3925   1.690   5.195   1.421  0.0689 -0.3908 -0.2932
 1009SOL    HW1 3926   1.639   5.223   1.502  2.5390 -0.1385  1.2814
 1009SOL    HW2 3927   1.734   5.275   1.380 -0.0058 -0.7297 -1.0538
 1010SOL     OW 3928   1.510   6.640   2.374 -0.0213 -0.3834 -0.5303
 1010SOL    HW1 3929   1.574   6.717   2.375  0.8698 -1.0691 -1.6742
 1010SOL    HW2 3930   1.421   6.670   2.343  0.5292  0.0581 -1.7382
 1011SOL     OW 3931   1.445   1.460   4.501 -0.1537  0.1829  0.1899
 1011SOL    HW1 3932   1.414   1.496   4.589 -0.0874  2.2154 -0.5503
 1011SOL    HW2 3933   1.396   1.508   4.427 -0.7417 -1.9752 -0.8960
 1012SOL     OW 3934   0.028   2.528   1.840  0.1245 -0.2273  0.4790
 1012SOL    HW1 3935  -0.049   2.532   1.904 -1.0723 -2.1061 -0.7172
 1012SOL    HW2 3936   0.113   2.549   1.889 -1.0414  1.3295  1.9753
 1013SOL     OW 3937   3.244   1.592   2.406 -0.0139 -0.4401 -0.3430
 1013SOL    HW1 3938   3.164   1.599   2.346  1.2861 -0.7840 -2.1694
 1013SOL    HW2 3939   3.299   1.513   2.381  1.1859  0.0740  0.5393
 1014SOL     OW 3940   6.647   4.072   2.331 -0.8123  0.0070 -0.1310
 1014SOL    HW1 3941   6.607   4.000   2.388 -2.9690  1.1833 -0.0634
 1014SOL    HW2 3942   6.691   4.140   2.390  0.1133 -0.5851 -0.1204
 1015SOL     OW 3943   4.787   6.476   1.605  0.5734 -0.2058 -0.3699
 1015SOL    HW1 3944   4.715   6.407   1.597  0.1348  0.1620  0.2789
 1015SOL    HW2 3945   4.845   6.455   1.683 -0.2678  0.7592  0.5615
 1016SOL     OW 3946   5.957   4.361   2.181  0.1132  0.1489 -0.0551
 1016SOL    HW1 3947   5.941   4.458   2.202  2.9051  1.1779 -2.0158
 1016SOL    HW2 3948   5.922   4.341   2.089 -1.1391 -0.9674  0.6349
 1017SOL     OW 3949   0.667   6.271   6.253 -0.0166 -0.8487 -0.0630
 1017SOL    HW1 3950   0.682   6.367   6.231 -0.4943 -0.7706 -0.0598
 1017SOL    HW2 3951   0.644   6.221   6.169  1.7669 -1.2735 -0.3238
 1018SOL     OW 3952   0.893   1.725   4.382 -0.1273 -0.3566 -0.1776
 1018SOL    HW1 3953   0.970   1.788   4.390  0.5316 -1.2509  0.7063
 1018SOL    HW2 3954   0.860   1.725   4.287  0.0401  1.0738 -0.2570
 1019SOL     OW 3955   2.200   3.970   6.220 -0.4782  0.0143 -1.0691
 1019SOL    HW1 3956   2.173   3.876   6.202 -1.2991  0.3071 -1.3844
 1019SOL    HW2 3957   2.122   4.023   6.253 -0.1381  0.7043 -1.3373
 1020SOL     OW 3958   0.573   4.443   4.991  0.0779  0.1946 -0.0738
 1020SOL    HW1 3959   0.573   4.526   4.935  0.0097  1.2501  1.4156
 1020SOL    HW2 3960   0.654   4.389   4.970  1.2902  1.7396  0.4337
 1021SOL     OW 3961   2.184   6.575   6.880 -0.2259 -0.5752 -0.0934
 1021SOL    HW1 3962   2.173   6.496   6.820  0.8204  0.4582 -1.7395
 1021SOL    HW2 3963   2.272   6.569   6.928 -0.7641 -1.0657  0.8703
 1022SOL     OW 3964   6.896   1.811   2.793 -0.4122 -0.1509  0.4446
 1022SOL    HW1 3965   6.976   1.823   2.852  0.4804  1.3770 -0.9711
 1022SOL    HW2 3966   6.851   1.900   2.781 -1.1395 -0.6208 -0.4002
 1023SOL     OW 3967   0.183   1.966   4.628 -0.5097 -0.0130 -0.0417
 1023SOL    HW1 3968   0.203   2.046   4.572  0.3468 -0.6697 -0.7181
 1023SOL    HW2 3969   0.253   1.896   4.612 -0.6510 -0.4969  1.3209
 1024SOL     OW 3970   2.030   4.539   0.885  0.2065 -0.0593 -0.4551
 1024SOL    HW1 3971   2.017   4.534   0.786 -1.7165 -0.5859 -0.2175
 1024SOL    HW2 3972   2.126   4.525   0.907  0.6437 -0.0480 -2.2308
 1025SOL     OW 3973   4.529   5.015   3.963  0.5674  0.3341 -0.2038
 1025SOL    HW1 3974   4.613   5.021   3.909  0.0442 -0.0800 -1.0814
 1025SOL    HW2 3975   4.455   5.063   3.915  0.3109  0.7470  0.5933
 1026SOL     OW 3976   1.866   3.890   3.379  0.6490 -0.4707 -0.9056
 1026SOL    HW1 3977   1.882   3.987   3.396  3.6245 -1.1645  0.8883
 1026SOL    HW2 3978   1.771   3.868   3.402  0.4163  1.6591  0.5058
 1027SOL     OW 3979   6.599   6.206   0.596  0.0069  0.2377 -0.1586
 1027SOL    HW1 3980   6.617   6.227   0.500  0.9919  0.1835 -0.0000
 1027SOL    HW2 3981   6.674   6.152   0.633  1.8129  3.6347  1.7144
 1028SOL     OW 3982   0.971   3.411   0.543 -0.1673 -0.3700  0.1966
 1028SOL    HW1 3983   0.939   3.475   0.613 -0.1560  0.9055 -0.9303
 1028SOL    HW2 3984   1.058   3.372   0.571  0.2245  0.7327  0.5468
 1029SOL     OW 3985   6.997   0.278   4.810  0.2518 -0.1236  0.5485
 1029SOL    HW1 3986   7.091   0.311   4.801 -0.3467  1.0900 -2.7497
 1029SOL    HW2 3987   6.997   0.178   4.799  1.2008 -0.2683  1.5948
 1030SOL     OW 3988   2.753   0.715   1.154 -0.0269  0.6933  0.1197
 1030SOL    HW1 3989   2.780   0.791   1.095  3.1187  0.2663  0.8517
 1030SOL    HW2 3990   2.772   0.737   1.249  0.8819 -0.9228  0.3590
 1031SOL     OW 3991   3.957   1.285   0.300  0.6400 -0.1490 -0.3695
 1031SOL    HW1 3992   3.918   1.199   0.332  1.1250 -1.0852 -2.1749
 1031SOL    HW2 3993   4.041   1.267   0.250  0.4594  1.3243 -1.2591
 1032SOL     OW 3994   5.380   0.228   2.861 -0.3264  0.8751  0.6598
 1032SOL    HW1 3995   5.297   0.193   2.905 -1.0017  3.0002  1.2023
 1032SOL    HW2 3996   5.457   0.221   2.924 -0.3767  0.1765  0.6561
 1033SOL     OW 3997   0.492   0.209   6.423 -0.2178  0.2569  0.0756
 1033SOL    HW1 3998   0.445   0.195   6.335  2.4039  0.4325 -1.4608
 1033SOL    HW2 3999   0.451   0.150   6.492 -3.1302  0.9505 -0.9147
 1034SOL     OW 4000   6.252   0.463   0.258 -0.6384 -0.0476  0.0400
 1034SOL    HW1 4001   6.286   0.377   0.219 -1.5380 -1.0570  1.3669
 1034SOL    HW2 4002   6.153   0.458   0.268 -0.5718  0.6433  1.2807
 1035SOL     OW 4003   4.377   4.411   6.023 -0.1450  0.5389 -0.4083
 1035SOL    HW1 4004   4.364   4.324   6.072 -0.4570  0.7817 -0.0525
 1035SOL    HW2 4005   4.408   4.481   6.088  1.9378  0.2526 -1.0157
 1036SOL     OW 4006   6.325   0.500   1.380  0.4860 -0.4089 -0.1666
 1036SOL    HW1 4007   6.307   0.405   1.405 -0.9141 -0.6911 -2.0513
 1036SOL    HW2 4008   6.358   0.504   1.286 -0.3727  1.0248 -0.4405
 1037SOL     OW 4009   3.956   3.029   3.753  0.1602 -0.4932  0.5805
 1037SOL    HW1 4010   3.972   3.107   3.692  1.4013 -0.5060  0.8596
 1037SOL    HW2 4011   3.974   3.057   3.847 -2.1544 -0.3527  1.0499
 1038SOL     OW 4012   2.688   1.146   2.163 -0.0125  0.1511  0.6176
 1038SOL    HW1 4013   2.711   1.201   2.083  0.0857 -0.1783  0.4181
 1038SOL    HW2 4014   2.709   1.198   2.246 -0.1035  0.4878  0.4310
 1039SOL     OW 4015   3.228   1.267   5.388  0.3984  0.1784  0.1039
 1039SOL    HW1 4016   3.147   1.223   5.427  0.0113  0.7962  0.0225
 1039SOL    HW2 4017   3.227   1.364   5.412 -0.5480  0.8826 -2.4624
 1040SOL     OW 4018   2.045   1.582   3.989  0.5261 -0.4213  0.1519
 1040SOL    HW1 4019   2.077   1.530   4.068 -2.1396 -1.1626  0.8557
 1040SOL    HW2 4020   2.033   1.521   3.911  1.5427 -0.0023 -0.3498
 1041SOL     OW 4021   4.235   0.404   3.761  0.3328  0.3687 -0.0944
 1041SOL    HW1 4022   4.145   0.360   3.762  0.5709 -0.1339 -0.2214
 1041SOL    HW2 4023   4.265   0.417   3.667  1.5905 -2.0225 -0.1175
 1042SOL     OW 4024   6.423   1.334   3.682 -0.2028  0.4374  0.3216
 1042SOL    HW1 4025   6.504   1.352   3.738  0.4055 -2.2041  0.4466
 1042SOL    HW2 4026   6.341   1.349   3.737  0.3317 -0.1911  1.3276
 1043SOL     OW 4027   4.994   6.616   2.756 -0.4830  0.3441  0.2196
 1043SOL    HW1 4028   4.908   6.591   2.800  0.1237  0.3492  1.4620
 1043SOL    HW2 4029   4.998   6.715   2.744 -1.5054  0.2065 -1.7545
 1044SOL     OW 4030   6.207   2.937   4.870  0.1874  0.2304  0.5866
 1044SOL    HW1 4031   6.199   2.980   4.960 -3.1947  2.3197 -0.5481
 1044SOL    HW2 4032   6.242   3.003   4.804  1.3724 -0.8914  0.0465
 1045SOL     OW 4033   1.291   0.875   0.873  0.1883 -0.3882  0.3232
 1045SOL    HW1 4034   1.253   0.922   0.793  0.3586 -0.1361  0.3886
 1045SOL    HW2 4035   1.378   0.917   0.898 -0.8155  0.8874  1.8812
 1046SOL     OW 4036   1.415   0.383   2.818  0.0677 -0.3602 -0.1309
 1046SOL    HW1 4037   1.376   0.377   2.910  1.1623  1.0011  0.4461
 1046SOL    HW2 4038   1.510   0.413   2.823  0.3042 -0.7374 -1.6942
 1047SOL     OW 4039   0.383   0.019   6.680 -0.2437  0.3016 -0.2273
 1047SOL    HW1 4040   0.464   0.031   6.737 -0.0529 -2.0005  0.0773
 1047SOL    HW2 4041   0.301   0.015   6.738 -0.0846 -1.6849 -0.0632
 1048SOL     OW 4042   2.437   6.652   1.242  0.1256  0.2123  0.1512
 1048SOL    HW1 4043   2.400   6.589   1.310  2.3660 -0.0253  1.2382
 1048SOL    HW2 4044   2.432   6.610   1.152  0.5283 -1.0507  0.6985
 1049SOL     OW 4045   2.005   0.603   1.810 -0.4053 -0.0767  0.2712
 1049SOL    HW1 4046   1.921   0.572   1.765  1.0154 -1.6549 -1.4652
 1049SOL    HW2 4047   2.076   0.617   1.741  1.0173  0.4237  1.7761
 1050SOL     OW 4048   3.070   5.949   1.079  0.6594 -0.2682 -0.1176
 1050SOL    HW1 4049   3.076   5.913   1.172  0.2980 -0.4220 -0.1487
 1050SOL    HW2 4050   3.045   6.045   1.082 -1.1149 -0.6964 -0.0763
 1051SOL     OW 4051   3.357   2.092   0.916 -0.1730 -0.4638 -0.2773
 1051SOL    HW1 4052   3.444   2.136   0.937 -1.3968  2.9423 -1.6796
 1051SOL    HW2 4053   3.294   2.103   0.994 -0.0550 -0.9806 -0.1054
 1052SOL     OW 4054   4.901   0.912   1.049  0.2138  0.4367 -0.5903
 1052SOL    HW1 4055   4.871   0.962   0.968 -0.7816  2.2443  0.8284
 1052SOL    HW2 4056   4.948   0.974   1.111  3.0610 -1.3771 -0.7165
 1053SOL     OW 4057   4.564   5.031   2.932 -0.7581  0.1228  0.2880
 1053SOL    HW1 4058   4.510   5.097   2.880  0.7538  1.8769  0.8457
 1053SOL    HW2 4059   4.643   5.002   2.878  0.0518  0.8762  1.0334
 1054SOL     OW 4060   0.385   0.456   6.597 -0.2074  0.0440  0.2329
 1054SOL    HW1 4061   0.286   0.462   6.594 -0.1982  0.5631  0.7976
 1054SOL    HW2 4062   0.422   0.467   6.504 -0.6000  1.3611  0.2092
 1055SOL     OW 4063   1.787   6.716   1.875  0.1974  0.0027  0.6159
 1055SOL    HW1 4064   1.757   6.627   1.911 -0.6109 -0.5668 -1.3440
 1055SOL    HW2 4065   1.731   6.740   1.796  1.1689  1.7301  0.4211
 1056SOL     OW 4066   1.247   5.156   2.138 -0.4304 -0.0384 -0.4789
 1056SOL    HW1 4067   1.162   5.209   2.145 -0.1470  0.4478 -0.6860
 1056SOL    HW2 4068   1.324   5.212   2.167 -0.2791 -0.7702  0.5945
 1057SOL     OW 4069   0.802   6.770   6.408 -0.6208 -0.4002 -0.1719
 1057SOL    HW1 4070   0.740   6.758   6.485 -0.5162 -1.6266 -0.2583
 1057SOL    HW2 4071   0.885   6.817   6.438 -0.9665 -0.0454  0.2482
 1058SOL     OW 4072   1.461   2.717   1.107  0.0601 -0.2793  0.3592
 1058SOL    HW1 4073   1.412   2.773   1.040 -0.6171 -0.1533  0.9467
 1058SOL    HW2 4074   1.518   2.650   1.059 -0.0150  0.1433 -0.3408
 1059SOL     OW 4075   2.943   0.790   5.008 -0.4324  0.7478 -0.2059
 1059SOL    HW1 4076   2.979   0.701   5.035 -0.0449  0.7423 -0.7301
 1059SOL    HW2 4077   2.951   0.854   5.085 -1.0152  0.2537  0.2830
 1060SOL     OW 4078   1.096   6.520   6.761  0.8071 -0.0282 -0.3444
 1060SOL    HW1 4079   1.120   6.545   6.668  0.6830 -0.8417 -0.6020
 1060SOL    HW2 4080   1.153   6.572   6.825  0.4086  1.0615 -0.8398
 1061SOL     OW 4081   1.906   1.372   4.430 -0.1714 -0.6951 -0.6166
 1061SOL    HW1 4082   1.937   1.329   4.515 -1.3683 -1.2896 -0.4557
 1061SOL    HW2 4083   1.918   1.308   4.354 -0.9164 -0.9125 -0.5606
 1062SOL     OW 4084   3.550   2.539   6.617  0.6123  0.1094 -0.5849
 1062SOL    HW1 4085   3.569   2.445   6.644  1.0145  0.6327  1.0981
 1062SOL    HW2 4086   3.496   2.584   6.689  0.6295  1.2343 -1.2522
 1063SOL     OW 4087   5.847   4.482   2.666  0.1115 -0.1169  0.0055
 1063SOL    HW1 4088   5.896   4.556   2.620 -0.0262 -0.5420 -0.8569
 1063SOL    HW2 4089   5.909   4.404   2.679 -0.3015 -0.6359 -1.0386
 1064SOL     OW 4090   0.208   2.043   2.379  0.4977 -0.1555 -0.1345
 1064SOL    HW1 4091   0.194   1.947   2.402  0.1876 -0.6274 -2.1315
 1064SOL    HW2 4092   0.137   2.098   2.422 -1.4554 -1.2716 -1.7916
 1065SOL     OW 4093   2.660   0.286   0.974 -0.4294 -0.0439 -0.3564
 1065SOL    HW1 4094   2.571   0.242   0.965 -0.3543 -0.1806 -0.4327
 1065SOL    HW2 4095   2.676   0.309   1.070 -1.3528  1.6764 -0.5623
 1066SOL     OW 4096   4.010   0.875   5.265  0.0683  0.6779 -0.0144
 1066SOL    HW1 4097   3.983   0.779   5.259 -0.7369  0.9068 -0.1709
 1066SOL    HW2 4098   4.012   0.903   5.361 -1.6433  1.0223 -0.0445
 1067SOL     OW 4099   5.547   2.407   2.561 -0.6828  0.0183  0.0208
 1067SOL    HW1 4100   5.635   2.398   2.607 -0.4572  1.8381  0.0224
 1067SOL    HW2 4101   5.554   2.372   2.468 -0.9293 -2.9605  0.9983
 1068SOL     OW 4102   1.954   1.627   0.925  0.2525 -0.0811 -0.0373
 1068SOL    HW1 4103   1.983   1.581   0.841  2.0321 -0.5587  0.7875
 1068SOL    HW2 4104   1.907   1.562   0.985 -0.9567  0.2434 -0.6085
 1069SOL     OW 4105   0.695   4.914   0.053  0.0085  0.2040  0.1156
 1069SOL    HW1 4106   0.602   4.884   0.035  0.3248 -0.6651 -0.1233
 1069SOL    HW2 4107   0.749   4.909  -0.031  0.1587  1.1687  0.1382
 1070SOL     OW 4108   6.643   1.029   4.018 -0.3820  0.5148 -0.2059
 1070SOL    HW1 4109   6.619   1.089   4.094 -0.5635  0.2156 -0.0269
 1070SOL    HW2 4110   6.731   1.058   3.979 -0.0454  0.3568  0.4341
 1071SOL     OW 4111   4.445   1.080   4.158  0.0335 -0.5408 -0.1539
 1071SOL    HW1 4112   4.474   1.077   4.254 -0.7563 -3.2603  0.0833
 1071SOL    HW2 4113   4.429   1.175   4.131  1.4177  0.3867  2.0292
 1072SOL     OW 4114   6.719   2.099   1.816  0.8669  0.1201  0.2015
 1072SOL    HW1 4115   6.643   2.106   1.882  0.1497  1.6259 -0.7356
 1072SOL    HW2 4116   6.757   2.190   1.800  0.9382 -0.1968 -1.5610
 1073SOL     OW 4117   1.159   1.857   3.003  0.4386  0.6759  1.0541
 1073SOL    HW1 4118   1.111   1.769   2.996  0.6874  0.5969  0.2568
 1073SOL    HW2 4119   1.119   1.921   2.938 -0.5831  1.5711  2.4931
 1074SOL     OW 4120   4.613   2.784   1.768  0.1689 -0.1635 -0.4522
 1074SOL    HW1 4121   4.513   2.784   1.758  0.2009  0.6621 -0.8483
 1074SOL    HW2 4122   4.640   2.861   1.825  0.5364 -0.7894  0.2366
 1075SOL     OW 4123   4.374   5.099   3.347 -0.3614  0.2031  0.3303
 1075SOL    HW1 4124   4.408   5.171   3.406 -1.0570 -0.1956  1.2366
 1075SOL    HW2 4125   4.378   5.129   3.251 -0.0643  1.1918  0.6481
 1076SOL     OW 4126   0.012   4.079   6.572 -0.3864  0.7067 -0.0222
 1076SOL    HW1 4127   0.023   4.152   6.640  0.9530 -0.6017  1.2342
 1076SOL    HW2 4128  -0.002   3.992   6.619  2.1600 -0.5124 -1.3329
 1077SOL     OW 4129   4.890   3.593   2.337  0.5995 -0.4386  0.0201
 1077SOL    HW1 4130   4.948   3.673   2.354 -0.2942  0.0673  0.7912
 1077SOL    HW2 4131   4.861   3.592   2.242 -0.2429  0.7746  0.2368
 1078SOL     OW 4132   5.321   2.291   0.554  0.2234  0.1194 -0.3070
 1078SOL    HW1 4133   5.398   2.229   0.539  0.6562  0.0812  1.7037
 1078SOL    HW2 4134   5.239   2.237   0.573  0.7068  0.0734  1.9404
 1079SOL     OW 4135   3.474   6.495   6.129 -0.0931  0.0656 -0.5396
 1079SOL    HW1 4136   3.552   6.533   6.179 -1.3785 -1.1883  2.7404
 1079SOL    HW2 4137   3.453   6.553   6.050  2.2794  2.1078  0.2023
 1080SOL     OW 4138   5.547   6.542   3.397  0.5874  0.1320 -0.2110
 1080SOL    HW1 4139   5.469   6.491   3.431  0.4014  1.3072  1.2197
 1080SOL    HW2 4140   5.627   6.482   3.391 -0.2881 -0.9749 -1.2899
 1081SOL     OW 4141   5.673   4.252   5.913 -1.0996 -0.1739 -0.7258
 1081SOL    HW1 4142   5.699   4.160   5.941 -1.7150  0.0433  0.6740
 1081SOL    HW2 4143   5.643   4.251   5.818  0.0655 -1.1736 -1.1028
 1082SOL     OW 4144   6.435   5.219   4.764 -0.6962  0.3837 -0.3923
 1082SOL    HW1 4145   6.341   5.203   4.734 -0.5016  0.1235 -0.8747
 1082SOL    HW2 4146   6.487   5.133   4.758 -0.5885  0.3817  0.4627
 1083SOL     OW 4147   3.086   1.927   5.891  0.0912  0.4705  0.3249
 1083SOL    HW1 4148   3.115   1.922   5.796  2.3927  1.8665  0.8667
 1083SOL    HW2 4149   2.994   1.890   5.900  0.3685 -1.0549 -2.1626
 1084SOL     OW 4150   1.335   4.030   5.429 -0.2470  0.1380  0.6342
 1084SOL    HW1 4151   1.352   4.122   5.466 -1.2706  1.0904 -1.1061
 1084SOL    HW2 4152   1.401   4.012   5.356 -0.4442 -0.2682  0.5581
 1085SOL     OW 4153   1.929   2.930   5.588 -0.2792 -1.0443 -0.2062
 1085SOL    HW1 4154   1.962   3.002   5.649 -1.4490 -0.2850 -0.4324
 1085SOL    HW2 4155   1.938   2.960   5.493 -1.3907 -0.9067 -0.2779
 1086SOL     OW 4156   4.645   2.181   6.048  0.1147 -0.2580  0.0483
 1086SOL    HW1 4157   4.636   2.281   6.047 -2.7385 -0.3369  2.1384
 1086SOL    HW2 4158   4.720   2.153   5.989  0.5047  3.0531 -1.2341
 1087SOL     OW 4159   3.793   1.436   3.604  0.2655  0.0087 -0.5827
 1087SOL    HW1 4160   3.845   1.352   3.620 -2.1148 -1.6955 -1.0768
 1087SOL    HW2 4161   3.700   1.424   3.640  0.3958  3.2553  1.1986
 1088SOL     OW 4162   5.182   3.233   4.314 -0.5271 -0.4679  0.4980
 1088SOL    HW1 4163   5.263   3.192   4.355  0.2927 -1.1962 -1.7347
 1088SOL    HW2 4164   5.138   3.293   4.381  0.0221 -2.4871  2.8216
 1089SOL     OW 4165   1.417   0.059   5.773  0.6029  0.0313  0.1901
 1089SOL    HW1 4166   1.325   0.051   5.735  1.2809 -0.9983 -1.3253
 1089SOL    HW2 4167   1.457  -0.032   5.783  1.0339  0.3844  1.9677
 1090SOL     OW 4168   2.091   0.907   4.855 -0.5222  0.2734  0.5398
 1090SOL    HW1 4169   2.151   0.828   4.869 -1.4580 -0.4286  0.7232
 1090SOL    HW2 4170   2.146   0.990   4.850  0.5361 -0.4462 -0.2416
 1091SOL     OW 4171   5.474   1.812   4.480 -0.0281  0.4090 -0.4857
 1091SOL    HW1 4172   5.490   1.870   4.399  0.8008 -1.2096 -1.5316
 1091SOL    HW2 4173   5.510   1.858   4.561 -1.5945  2.4415 -0.8464
 1092SOL     OW 4174   4.030   5.968   4.225 -0.4488 -0.0304  0.1676
 1092SOL    HW1 4175   3.995   5.889   4.174  1.5773 -0.7092 -0.2520
 1092SOL    HW2 4176   4.039   6.046   4.163 -0.9708  0.0858  0.2299
 1093SOL     OW 4177   2.180   1.640   6.428 -0.1363  0.0633  0.6101
 1093SOL    HW1 4178   2.231   1.721   6.399 -0.2870  0.3844  1.2181
 1093SOL    HW2 4179   2.177   1.574   6.353  0.1780  0.5243  0.1818
 1094SOL     OW 4180   0.241   1.488   4.328 -0.1020  0.2218 -0.4619
 1094SOL    HW1 4181   0.336   1.493   4.296 -0.1838  1.2289 -0.5557
 1094SOL    HW2 4182   0.209   1.579   4.351 -0.8184 -0.2061  0.2670
 1095SOL     OW 4183   2.971   0.226   5.401  0.0698 -0.0553  0.0839
 1095SOL    HW1 4184   2.872   0.234   5.407  0.1683  0.3589  1.2946
 1095SOL    HW2 4185   3.007   0.299   5.343 -0.1800  0.9193  1.1209
 1096SOL     OW 4186   3.207   6.567   6.303  0.0246  0.2658  0.2895
 1096SOL    HW1 4187   3.147   6.598   6.230  0.0076 -0.0362  0.1751
 1096SOL    HW2 4188   3.302   6.572   6.272 -0.0275 -0.6284 -0.0455
 1097SOL     OW 4189   3.034   6.200   6.327 -0.7595 -0.8641  0.5384
 1097SOL    HW1 4190   3.105   6.164   6.267 -0.6016  0.9741 -0.4681
 1097SOL    HW2 4191   2.947   6.207   6.277 -1.3134 -1.7622  1.3341
 1098SOL     OW 4192   6.019   6.931   5.520 -0.0203  0.5195  0.1797
 1098SOL    HW1 4193   5.964   6.918   5.438 -0.3586 -1.1356  0.6390
 1098SOL    HW2 4194   6.100   6.987   5.497  1.4561 -2.2705 -2.0151
 1099SOL     OW 4195   6.048   3.906   1.893 -0.1532 -0.2001  0.5538
 1099SOL    HW1 4196   6.019   3.853   1.972 -1.8293 -0.7396 -0.3623
 1099SOL    HW2 4197   6.063   4.001   1.920 -3.5766  0.3363  1.0777
 1100SOL     OW 4198   5.055   5.630   5.993 -0.2372  0.1150  0.2828
 1100SOL    HW1 4199   5.094   5.680   6.071  0.0844  1.9666 -0.9999
 1100SOL    HW2 4200   4.961   5.661   5.978 -0.4641 -0.5884  0.1945
 1101SOL     OW 4201   4.615   1.415   6.235 -0.0655  0.2578 -0.3588
 1101SOL    HW1 4202   4.673   1.488   6.197  2.5917 -0.3518  2.1954
 1101SOL    HW2 4203   4.579   1.444   6.323 -0.6343 -0.8010 -0.2281
 1102SOL     OW 4204   0.195   1.518   2.382  0.2469 -0.3961 -0.5152
 1102SOL    HW1 4205   0.165   1.425   2.404 -1.1182  0.2235  0.3988
 1102SOL    HW2 4206   0.295   1.521   2.379  0.3113 -1.8959 -0.6259
 1103SOL     OW 4207   1.171   0.660   2.225 -0.1327 -0.0396 -0.5395
 1103SOL    HW1 4208   1.216   0.693   2.142 -1.3758  1.4898 -0.6487
 1103SOL    HW2 4209   1.097   0.598   2.200  0.0638 -0.2829 -0.5200
 1104SOL     OW 4210   5.417   2.015   3.309  0.1115 -0.0504  0.5258
 1104SOL    HW1 4211   5.463   2.094   3.268  0.7711  0.3841  2.0207
 1104SOL    HW2 4212   5.384   1.955   3.237 -2.2740  2.5781 -0.7575
 1105SOL     OW 4213   3.333   0.804   6.149  0.3261 -0.0815 -0.6592
 1105SOL    HW1 4214   3.430   0.808   6.121  0.5553 -0.5448  0.0448
 1105SOL    HW2 4215   3.327   0.801   6.249 -0.3819 -0.8401 -0.7125
 1106SOL     OW 4216   4.977   6.459   4.111  0.4604  0.0327  0.0135
 1106SOL    HW1 4217   4.993   6.361   4.095  1.9753  0.2303  0.1847
 1106SOL    HW2 4218   4.941   6.472   4.203 -1.9604 -0.5210 -0.7575
 1107SOL     OW 4219   4.644   0.456   5.982  0.4270 -0.1048  0.1672
 1107SOL    HW1 4220   4.681   0.544   5.951  1.5352 -0.6796 -0.2035
 1107SOL    HW2 4221   4.617   0.401   5.902  0.8970 -0.5825  0.3295
 1108SOL     OW 4222   3.057   5.314   0.450  0.3229  0.2415  0.0861
 1108SOL    HW1 4223   3.156   5.325   0.460  0.3457  0.9307 -0.7580
 1108SOL    HW2 4224   3.024   5.376   0.379 -0.3521 -1.5957 -1.3143
 1109SOL     OW 4225   5.675   1.890   6.915 -0.1360 -0.2600  0.1689
 1109SOL    HW1 4226   5.754   1.830   6.926 -1.6973 -2.2932  1.0354
 1109SOL    HW2 4227   5.702   1.984   6.932  2.3008 -0.7367 -0.6303
 1110SOL     OW 4228   1.130   6.114   4.633 -0.3399 -0.1914 -0.4851
 1110SOL    HW1 4229   1.091   6.157   4.551 -0.1796  0.6211 -0.1509
 1110SOL    HW2 4230   1.093   6.159   4.715 -0.6722 -1.1407 -0.0954
 1111SOL     OW 4231   6.291   4.949   6.173  0.0558 -0.0736 -0.1699
 1111SOL    HW1 4232   6.362   4.967   6.105  2.3570  0.2313  2.1334
 1111SOL    HW2 4233   6.260   4.854   6.164  1.0089 -0.3272 -1.0222
 1112SOL     OW 4234   0.909   6.609   4.532  0.2477  0.2440 -0.0016
 1112SOL    HW1 4235   0.846   6.547   4.485 -2.0629  1.9579  0.6282
 1112SOL    HW2 4236   0.981   6.638   4.469 -0.6007 -0.4129 -1.3152
 1113SOL     OW 4237   4.064   1.447   4.695 -0.1810 -0.5947  0.0762
 1113SOL    HW1 4238   4.039   1.425   4.600 -0.1312  1.4259 -0.4473
 1113SOL    HW2 4239   4.121   1.373   4.732 -2.1503 -2.5586 -0.6228
 1114SOL     OW 4240   1.893   2.130   0.262  0.0878 -0.2149 -0.3229
 1114SOL    HW1 4241   1.878   2.229   0.252 -2.0850 -0.2849  1.3698
 1114SOL    HW2 4242   1.927   2.111   0.354  0.6756 -1.0304 -0.7061
 1115SOL     OW 4243   3.344   5.513   0.300  0.4794 -0.3144 -0.4727
 1115SOL    HW1 4244   3.367   5.416   0.308  1.1744 -0.4497 -3.1678
 1115SOL    HW2 4245   3.425   5.568   0.322 -0.0599 -0.2396  1.5958
 1116SOL     OW 4246   2.778   6.741   4.414  0.6238 -0.0818  0.1289
 1116SOL    HW1 4247   2.865   6.698   4.389  0.0382 -1.6877  0.6776
 1116SOL    HW2 4248   2.795   6.821   4.471  1.7505 -0.7610  0.7876
 1117SOL     OW 4249   2.262   4.234   0.202  0.1282  0.7865  0.3013
 1117SOL    HW1 4250   2.188   4.172   0.176  0.4686 -0.0518  1.2731
 1117SOL    HW2 4251   2.229   4.329   0.198 -1.1738  0.3973  1.2365
 1118SOL     OW 4252   0.268   6.005   3.595  0.4844 -0.4289 -0.0466
 1118SOL    HW1 4253   0.230   6.093   3.568 -1.5239 -0.6289  1.7981
 1118SOL    HW2 4254   0.322   6.016   3.679  2.6579 -0.5430 -1.3659
 1119SOL     OW 4255   5.089   3.983   2.581  0.1080 -0.3541  0.9613
 1119SOL    HW1 4256   5.010   3.970   2.640  0.0143  0.2716  0.9764
 1119SOL    HW2 4257   5.173   3.978   2.636  0.1647 -2.1851  0.7759
 1120SOL     OW 4258   6.057   5.144   4.396  0.5028  0.6253  0.2516
 1120SOL    HW1 4259   6.032   5.076   4.326  0.6230 -0.9704  1.7066
 1120SOL    HW2 4260   6.150   5.127   4.427 -0.1112  0.2575  1.9627
 1121SOL     OW 4261   2.998   6.115   0.197  0.2057  0.0721 -0.6514
 1121SOL    HW1 4262   3.047   6.029   0.187  0.5503  0.0290  1.2179
 1121SOL    HW2 4263   3.058   6.191   0.172 -0.0384 -0.1821 -2.1134
 1122SOL     OW 4264   4.465   6.447   2.763  0.0495  0.0569  0.0497
 1122SOL    HW1 4265   4.393   6.454   2.832 -0.1866  0.5306 -0.2355
 1122SOL    HW2 4266   4.443   6.375   2.698  1.4100 -2.0153  1.7652
 1123SOL     OW 4267   0.830   4.722   1.397 -0.1515 -0.0433 -0.8435
 1123SOL    HW1 4268   0.836   4.623   1.392 -1.1792 -0.1205 -0.8755
 1123SOL    HW2 4269   0.738   4.748   1.428 -0.2325  0.9149 -1.8307
 1124SOL     OW 4270   5.132   4.060   4.254  0.3423  0.3937 -0.2057
 1124SOL    HW1 4271   5.090   4.020   4.172  0.4286  1.4353 -0.7687
 1124SOL    HW2 4272   5.141   4.159   4.242 -1.7440  0.9310  1.9670
 1125SOL     OW 4273   2.317   5.521   6.062  0.6581 -0.0957 -0.0792
 1125SOL    HW1 4274   2.357   5.595   6.008  1.9495  1.4845  2.7550
 1125SOL    HW2 4275   2.239   5.482   6.014  1.5288  1.3123 -2.8630
 1126SOL     OW 4276   3.878   3.715   4.394 -0.0698  0.3874 -0.2427
 1126SOL    HW1 4277   3.945   3.696   4.322  0.1053 -1.8277  0.4127
 1126SOL    HW2 4278   3.815   3.637   4.401 -1.2849  1.4186  0.7071
 1127SOL     OW 4279   5.670   3.546   6.886  0.4979 -0.3881 -0.5085
 1127SOL    HW1 4280   5.619   3.506   6.810  2.3117 -0.6464 -1.6463
 1127SOL    HW2 4281   5.622   3.528   6.972 -0.0975 -2.7334 -1.2613
 1128SOL     OW 4282   1.807   6.616   5.627 -0.9170  0.3112 -0.3774
 1128SOL    HW1 4283   1.748   6.696   5.636 -1.9679 -0.4120 -0.6463
 1128SOL    HW2 4284   1.796   6.577   5.536 -0.4691 -0.1811 -0.2237
 1129SOL     OW 4285   1.274   3.529   2.578 -0.1168 -0.3239  0.2267
 1129SOL    HW1 4286   1.221   3.613   2.574 -0.8613 -0.8162 -1.8690
 1129SOL    HW2 4287   1.215   3.453   2.606 -0.2389 -0.6558 -0.8800
 1130SOL     OW 4288   0.442   6.119   0.532  0.6928 -0.4839 -0.5718
 1130SOL    HW1 4289   0.499   6.136   0.612  0.3764 -1.4646 -0.1249
 1130SOL    HW2 4290   0.398   6.030   0.541  0.2233 -0.3644 -1.5862
 1131SOL     OW 4291   5.544   0.340   1.648  0.3595  0.0290  0.8178
 1131SOL    HW1 4292   5.545   0.240   1.646  1.2134 -0.0015  1.8017
 1131SOL    HW2 4293   5.457   0.372   1.688  1.0755 -0.4287  2.8963
 1132SOL     OW 4294   3.749   0.270   0.167  0.2669  0.0782  0.0171
 1132SOL    HW1 4295   3.832   0.284   0.220 -0.7090  0.3762  1.5049
 1132SOL    HW2 4296   3.669   0.294   0.222 -1.0548 -3.4263 -0.1106
 1133SOL     OW 4297   1.395   2.119   3.496 -0.4790  0.3811 -0.5308
 1133SOL    HW1 4298   1.397   2.218   3.508  0.9228  0.5929 -2.1263
 1133SOL    HW2 4299   1.470   2.078   3.548 -0.2677  0.3129 -0.8818
 1134SOL     OW 4300   0.487   0.705   0.496  0.8645 -0.2810 -0.3935
 1134SOL    HW1 4301   0.461   0.621   0.543 -1.9312 -0.9948 -2.8629
 1134SOL    HW2 4302   0.473   0.783   0.557 -0.0243 -1.3316  0.8054
 1135SOL     OW 4303   6.057   1.730   1.991  0.3140  0.4637 -0.3359
 1135SOL    HW1 4304   6.014   1.716   2.080  0.7123  0.7068 -0.0973
 1135SOL    HW2 4305   6.048   1.648   1.936 -1.4117  0.8654 -0.7137
 1136SOL     OW 4306   1.612   1.577   3.715  0.5740  0.3788 -0.4563
 1136SOL    HW1 4307   1.520   1.556   3.748  0.5320  0.8523 -0.2634
 1136SOL    HW2 4308   1.611   1.665   3.668  0.6893 -0.1490 -1.4761
 1137SOL     OW 4309   1.729   5.045   5.000 -0.5692  0.0012 -1.0456
 1137SOL    HW1 4310   1.700   4.952   5.023 -2.0445  0.1796 -2.0208
 1137SOL    HW2 4311   1.782   5.044   4.915  0.0723 -0.0324 -0.6458
 1138SOL     OW 4312   1.208   7.018   7.010 -0.4554 -0.1135 -0.7458
 1138SOL    HW1 4313   1.288   7.003   7.067 -0.5971  1.1866 -0.1796
 1138SOL    HW2 4314   1.225   6.981   6.918  0.4782 -0.5460 -0.4092
 1139SOL     OW 4315   1.114   5.001   4.575  0.4625 -1.0378  0.2473
 1139SOL    HW1 4316   1.130   5.055   4.493  1.3081  1.0494  1.6978
 1139SOL    HW2 4317   1.195   4.945   4.594  0.6924 -0.7047  0.2513
 1140SOL     OW 4318   0.187   5.016   4.715  0.3134  0.5562 -0.5798
 1140SOL    HW1 4319   0.235   5.074   4.781  0.6484  0.7237 -0.9599
 1140SOL    HW2 4320   0.244   5.005   4.633  0.1115 -0.0430 -0.6451
 1141SOL     OW 4321   4.235   0.652   6.317 -0.3650  0.2238 -0.2784
 1141SOL    HW1 4322   4.156   0.597   6.290  0.8448 -1.7630  0.0586
 1141SOL    HW2 4323   4.204   0.744   6.340 -2.7636 -0.7733  0.8750
 1142SOL     OW 4324   6.490   6.277   4.932 -0.5363 -0.1905 -0.5597
 1142SOL    HW1 4325   6.475   6.194   4.878  1.2186 -0.5523 -0.5686
 1142SOL    HW2 4326   6.549   6.256   5.010  0.7375  1.1971 -1.0903
 1143SOL     OW 4327   4.147   6.726   4.444 -0.0198 -0.6049 -0.3298
 1143SOL    HW1 4328   4.194   6.712   4.531 -1.1677  1.3268  0.6670
 1143SOL    HW2 4329   4.066   6.668   4.440  0.1007 -0.7837 -0.1676
 1144SOL     OW 4330   4.176   5.661   6.602  0.4771 -0.2190  0.2650
 1144SOL    HW1 4331   4.260   5.713   6.587  1.8147 -2.4547 -0.4343
 1144SOL    HW2 4332   4.137   5.633   6.515 -1.6099  1.5992  0.5281
 1145SOL     OW 4333   5.808   6.456   3.033  0.3170  0.5390  0.4355
 1145SOL    HW1 4334   5.785   6.472   2.937 -0.0889 -1.6261  0.1189
 1145SOL    HW2 4335   5.906   6.469   3.047  0.7382 -1.1199 -0.7649
 1146SOL     OW 4336   3.698   1.050   5.735  0.2494  0.0102  0.1706
 1146SOL    HW1 4337   3.696   0.988   5.657  0.9290 -0.3795  0.4542
 1146SOL    HW2 4338   3.628   1.022   5.802  0.4080 -0.3182  0.2001
 1147SOL     OW 4339   0.260   5.069   0.563 -0.1561 -0.5090  0.2431
 1147SOL    HW1 4340   0.213   5.020   0.636 -0.4484 -0.9748 -0.2487
 1147SOL    HW2 4341   0.217   5.159   0.551  0.1065 -0.2966  0.8609
 1148SOL     OW 4342   0.794   1.577   3.899  0.2763  0.4389 -0.4292
 1148SOL    HW1 4343   0.793   1.654   3.963 -0.0054  1.0430 -1.1414
 1148SOL    HW2 4344   0.701   1.542   3.887  0.4957 -0.4768  0.4233
 1149SOL     OW 4345   4.308   6.089   0.037 -0.6367  0.5716 -0.8935
 1149SOL    HW1 4346   4.240   6.162   0.050 -1.6761 -0.4222 -0.5982
 1149SOL    HW2 4347   4.345   6.062   0.126 -0.5656  0.4495 -0.9602
 1150SOL     OW 4348   3.086   6.240   2.677 -0.9333 -0.1774 -0.2543
 1150SOL    HW1 4349   3.093   6.156   2.624 -0.3504 -0.9155  0.9491
 1150SOL    HW2 4350   3.019   6.228   2.750  0.6643 -0.3796  1.2533
 1151SOL     OW 4351   6.936   1.075   6.737  0.3901 -0.2967  0.3637
 1151SOL    HW1 4352   6.941   0.978   6.715  0.7235  0.0394 -1.1750
 1151SOL    HW2 4353   7.008   1.098   6.803 -0.2148 -1.2319  1.3679
 1152SOL     OW 4354   1.566   3.718   2.525 -0.3306  0.3142  0.5430
 1152SOL    HW1 4355   1.587   3.809   2.488 -2.7368  0.1949 -1.3166
 1152SOL    HW2 4356   1.468   3.710   2.540 -0.1003 -1.8361  1.1910
 1153SOL     OW 4357   0.362   5.845   6.217  0.0438  0.3251 -0.0846
 1153SOL    HW1 4358   0.283   5.787   6.198  0.3225 -0.0197 -0.1890
 1153SOL    HW2 4359   0.334   5.920   6.278 -0.3274  0.1189 -0.0005
 1154SOL     OW 4360   0.844   0.447   6.277 -0.0602  0.0191  0.1433
 1154SOL    HW1 4361   0.882   0.367   6.231  3.0339  0.4619  1.6789
 1154SOL    HW2 4362   0.841   0.523   6.212  3.0726  0.2981  0.1561
 1155SOL     OW 4363   3.912   1.930   1.453 -0.8195 -0.2892 -0.1235
 1155SOL    HW1 4364   3.898   1.831   1.449  2.4077 -0.8240 -2.2420
 1155SOL    HW2 4365   3.986   1.955   1.390 -3.0832  3.8164 -1.4929
 1156SOL     OW 4366   1.687   6.587   3.674  0.6734 -0.2684 -0.3032
 1156SOL    HW1 4367   1.771   6.536   3.693  0.7314 -0.8875 -2.0290
 1156SOL    HW2 4368   1.692   6.626   3.582  0.4550  2.5872  0.8169
 1157SOL     OW 4369   3.032   1.448   1.828  0.4513 -0.1610  0.2695
 1157SOL    HW1 4370   3.129   1.455   1.850  0.6676  1.2210 -0.9540
 1157SOL    HW2 4371   2.986   1.534   1.851  0.1805  0.3727 -2.0072
 1158SOL     OW 4372   3.642   4.150   2.930 -0.2580 -0.2639 -0.2274
 1158SOL    HW1 4373   3.663   4.236   2.885  0.0998 -0.8922 -1.2784
 1158SOL    HW2 4374   3.549   4.121   2.905 -0.6452  0.1465  0.6757
 1159SOL     OW 4375   1.785   5.577   2.523 -0.2555 -0.2707  0.1881
 1159SOL    HW1 4376   1.870   5.530   2.548  0.8864  1.1362 -0.8634
 1159SOL    HW2 4377   1.767   5.564   2.426 -1.9997 -1.6367  0.6497
 1160SOL     OW 4378   0.455   2.715   1.517 -0.2485  0.5669  0.1349
 1160SOL    HW1 4379   0.496   2.785   1.576 -0.6321 -0.4440  1.6633
 1160SOL    HW2 4380   0.426   2.637   1.573 -2.9971  0.6348 -1.0508
 1161SOL     OW 4381   1.665   3.547   6.067 -0.0549 -1.0310 -0.4445
 1161SOL    HW1 4382   1.717   3.489   6.004  1.3470 -2.3941  1.7884
 1161SOL    HW2 4383   1.724   3.571   6.145 -0.8594  2.7749 -0.8229
 1162SOL     OW 4384   5.841   3.507   4.779  0.0283 -0.2225  0.2718
 1162SOL    HW1 4385   5.903   3.499   4.856  1.8242 -0.9264 -1.1687
 1162SOL    HW2 4386   5.759   3.453   4.796  0.7866 -1.0848  1.3006
 1163SOL     OW 4387   4.357   1.585   3.138  0.2047 -0.0460 -0.4582
 1163SOL    HW1 4388   4.418   1.640   3.082  0.7407  0.6510  0.7744
 1163SOL    HW2 4389   4.385   1.489   3.134  1.0657  0.1915 -0.3373
 1164SOL     OW 4390   3.728   0.170   0.530 -0.0593  0.6356  0.7210
 1164SOL    HW1 4391   3.699   0.264   0.513  0.6781  0.5703 -1.1488
 1164SOL    HW2 4392   3.816   0.154   0.486 -0.2451 -0.9666  0.8682
 1165SOL     OW 4393   1.674   1.696   4.984 -0.2171 -0.5976  0.2258
 1165SOL    HW1 4394   1.632   1.759   5.051  0.1994  0.9997 -0.9539
 1165SOL    HW2 4395   1.710   1.749   4.908  1.1039 -2.2294 -0.3213
 1166SOL     OW 4396   0.813   3.098   6.435 -0.0178 -0.2274  0.1318
 1166SOL    HW1 4397   0.834   3.140   6.347 -2.9063  0.8960 -0.1461
 1166SOL    HW2 4398   0.834   3.000   6.432  4.6148  0.5609 -0.0262
 1167SOL     OW 4399   5.105   4.348   2.615 -0.3355 -0.5123  0.7059
 1167SOL    HW1 4400   5.162   4.328   2.695  0.2310  0.6356  0.6078
 1167SOL    HW2 4401   5.014   4.311   2.629 -0.3491 -0.0302  2.0517
 1168SOL     OW 4402   2.852   6.069   0.552  0.4601 -0.5921 -0.2522
 1168SOL    HW1 4403   2.768   6.015   0.548 -0.4002  0.5332  1.2716
 1168SOL    HW2 4404   2.830   6.165   0.535  1.7167 -0.4870 -1.4200
 1169SOL     OW 4405   1.283   1.473   6.654  0.0617 -0.1307  0.9162
 1169SOL    HW1 4406   1.224   1.393   6.664  0.2178 -0.4299 -0.3561
 1169SOL    HW2 4407   1.293   1.519   6.742 -1.2593 -0.6454  1.3595
 1170SOL     OW 4408   0.469   0.003   6.973  0.0170 -0.1569 -1.1376
 1170SOL    HW1 4409   0.510  -0.086   6.992 -1.2175 -0.6580 -0.6803
 1170SOL    HW2 4410   0.526   0.076   7.012 -0.4393 -0.9292  1.1344
 1171SOL     OW 4411   6.699   1.956   4.223  0.1993 -0.1641 -0.0143
 1171SOL    HW1 4412   6.639   2.006   4.160  0.4114 -1.9565 -1.7426
 1171SOL    HW2 4413   6.643   1.907   4.290 -0.0545  1.3223  0.8966
 1172SOL     OW 4414   6.330   3.168   5.486  0.0249 -0.5926 -0.0130
 1172SOL    HW1 4415   6.287   3.084   5.454 -2.0298  0.8082 -1.1800
 1172SOL    HW2 4416   6.269   3.215   5.550  0.2894  0.8638 -0.7733
 1173SOL     OW 4417   4.636   3.768   5.402 -0.4536  0.1934 -0.0985
 1173SOL    HW1 4418   4.721   3.821   5.411 -0.8600  1.7106 -3.4534
 1173SOL    HW2 4419   4.652   3.688   5.345 -0.8808 -0.7070  1.0052
 1174SOL     OW 4420   1.222   6.766   1.211  0.1135  0.2541 -0.0198
 1174SOL    HW1 4421   1.244   6.668   1.204  0.2986  0.0933  2.2988
 1174SOL    HW2 4422   1.123   6.778   1.200  0.0921 -0.1794 -0.3626
 1175SOL     OW 4423   5.864   4.084   0.548  0.1080  0.3493  0.0762
 1175SOL    HW1 4424   5.838   3.987   0.551 -1.8413  0.8216  3.2211
 1175SOL    HW2 4425   5.819   4.128   0.470 -1.9164 -0.6283  0.6130
 1176SOL     OW 4426   1.421   5.737   2.633 -0.6828  0.4131  0.6871
 1176SOL    HW1 4427   1.431   5.739   2.733  0.1841  0.0250  0.6155
 1176SOL    HW2 4428   1.500   5.780   2.591 -1.6404  1.7294  0.1758
 1177SOL     OW 4429   2.407   1.329   1.025  0.4659 -0.4199 -0.6419
 1177SOL    HW1 4430   2.388   1.299   0.931  0.6859 -1.5265 -0.3472
 1177SOL    HW2 4431   2.434   1.425   1.025  0.1646 -0.3283 -1.6790
 1178SOL     OW 4432   3.085   6.271   1.614  0.2316 -0.1836 -0.0526
 1178SOL    HW1 4433   3.046   6.181   1.634  2.0282 -1.1032 -0.4824
 1178SOL    HW2 4434   3.076   6.290   1.517 -0.5818  0.3399  0.1160
 1179SOL     OW 4435   5.093   2.681   2.412  0.1364 -0.0205  0.0596
 1179SOL    HW1 4436   5.062   2.599   2.364 -2.3153  1.4771 -1.1127
 1179SOL    HW2 4437   5.154   2.733   2.353 -0.7464  0.4827 -0.4323
 1180SOL     OW 4438   2.762   5.702   1.786 -0.6032 -0.3793  0.4386
 1180SOL    HW1 4439   2.818   5.621   1.765 -0.8297  0.0433 -2.1235
 1180SOL    HW2 4440   2.678   5.673   1.832 -0.6248 -1.6146 -0.3142
 1181SOL     OW 4441   1.089   4.322   6.870 -0.5316 -0.3267 -0.0917
 1181SOL    HW1 4442   1.058   4.397   6.929 -1.2227 -0.4629 -0.2766
 1181SOL    HW2 4443   1.074   4.235   6.916  0.1741 -0.3660  0.0782
 1182SOL     OW 4444   6.657   3.889   3.119 -0.4354  0.7064 -0.7686
 1182SOL    HW1 4445   6.599   3.835   3.058  2.5672 -1.6403 -1.7490
 1182SOL    HW2 4446   6.712   3.953   3.065  0.7595  0.0609 -0.3455
 1183SOL     OW 4447   4.933   6.060   6.964 -0.4004 -0.0950  0.1359
 1183SOL    HW1 4448   4.975   6.114   7.038 -1.7523  0.1067  0.7785
 1183SOL    HW2 4449   4.933   5.964   6.989 -0.5446 -0.0675  0.2401
 1184SOL     OW 4450   2.445   4.940   4.694 -0.2450  0.2332 -0.0362
 1184SOL    HW1 4451   2.446   4.847   4.730 -1.0310 -0.0195 -0.6342
 1184SOL    HW2 4452   2.418   4.939   4.598  0.4070  1.0256 -0.2466
 1185SOL     OW 4453   5.139   6.202   0.378 -0.0379  0.0706  0.1218
 1185SOL    HW1 4454   5.107   6.221   0.471 -0.9566 -0.4380 -0.0709
 1185SOL    HW2 4455   5.218   6.258   0.357  0.1154  0.2613  1.1799
 1186SOL     OW 4456   6.484   5.104   3.337 -0.2445 -0.0493  0.2445
 1186SOL    HW1 4457   6.395   5.109   3.292 -0.3871  0.4491  0.5726
 1186SOL    HW2 4458   6.491   5.177   3.405  0.5705  0.1784 -0.0694
 1187SOL     OW 4459   3.360   0.197   5.843  0.1550 -0.3255 -0.5202
 1187SOL    HW1 4460   3.310   0.111   5.847 -0.3864  0.0148  0.3514
 1187SOL    HW2 4461   3.336   0.246   5.759 -1.4798  0.1127  0.1620
 1188SOL     OW 4462   3.150   1.730   1.670 -0.0956 -0.3589 -0.3543
 1188SOL    HW1 4463   3.072   1.667   1.668  0.8764 -1.6407  0.3206
 1188SOL    HW2 4464   3.230   1.684   1.633  0.9062  0.0913  1.1836
 1189SOL     OW 4465   3.399   1.363   2.356  0.0981 -0.4635 -0.3362
 1189SOL    HW1 4466   3.437   1.322   2.272  0.4137 -0.4074 -0.2236
 1189SOL    HW2 4467   3.474   1.388   2.417  0.1125  2.7865 -1.5184
 1190SOL     OW 4468   3.963   4.833   3.906 -0.4274 -0.1911 -0.1171
 1190SOL    HW1 4469   3.866   4.837   3.879 -0.5496 -0.8429  0.1965
 1190SOL    HW2 4470   4.018   4.808   3.827 -0.6372 -0.8297 -0.0680
 1191SOL     OW 4471   5.660   5.959   3.749  0.2222  0.0785 -0.0797
 1191SOL    HW1 4472   5.740   5.900   3.759  0.1054 -0.1131 -0.2520
 1191SOL    HW2 4473   5.617   5.972   3.838 -0.9539 -1.8109 -0.2951
 1192SOL     OW 4474   2.478   0.765   2.280  0.3338  0.3104 -0.0451
 1192SOL    HW1 4475   2.464   0.733   2.373 -1.6375  0.6716 -0.1712
 1192SOL    HW2 4476   2.558   0.720   2.241  0.5606 -0.6612  1.4491
 1193SOL     OW 4477   2.094   4.563   1.681 -0.2240 -0.3980 -0.1548
 1193SOL    HW1 4478   2.133   4.475   1.652  1.1592 -0.3003  1.2808
 1193SOL    HW2 4479   2.025   4.546   1.751  0.3732 -0.3235  0.4566
 1194SOL     OW 4480   5.302   0.279   4.007  0.4437  0.2792  0.6273
 1194SOL    HW1 4481   5.379   0.343   4.011 -0.3697  1.3494 -0.1740
 1194SOL    HW2 4482   5.320   0.210   3.937  1.2905 -0.3480  1.4380
 1195SOL     OW 4483   5.263   6.134   3.951 -0.2420 -0.2008  0.5894
 1195SOL    HW1 4484   5.189   6.068   3.953 -0.7143  0.3101  2.6853
 1195SOL    HW2 4485   5.286   6.156   3.856 -2.6994 -0.4331 -0.1290
 1196SOL     OW 4486   0.943   5.219   4.660 -0.5696 -0.3625  0.0744
 1196SOL    HW1 4487   1.010   5.145   4.654  0.5710  0.6955 -0.4584
 1196SOL    HW2 4488   0.852   5.179   4.675  0.0118 -1.8702 -0.1909
 1197SOL     OW 4489   5.854   0.138   2.652  0.5996 -0.1592  0.1549
 1197SOL    HW1 4490   5.754   0.143   2.661  0.5917 -1.4493  1.0080
 1197SOL    HW2 4491   5.896   0.138   2.742  1.2881 -1.0919 -0.1542
 1198SOL     OW 4492   2.273   3.017   1.653  0.0429  0.3290  0.4927
 1198SOL    HW1 4493   2.232   2.936   1.693  0.3283 -0.4134 -0.6844
 1198SOL    HW2 4494   2.229   3.099   1.691 -3.0216 -0.3943 -1.1428
 1199SOL     OW 4495   4.915   3.578   5.286 -0.0540  0.4542 -0.3315
 1199SOL    HW1 4496   4.868   3.646   5.342 -1.5717 -1.6323  1.0665
 1199SOL    HW2 4497   4.866   3.566   5.200 -0.4690  0.2468 -0.0627
 1200SOL     OW 4498   0.588   6.371   3.663 -0.4450  0.2334  0.8130
 1200SOL    HW1 4499   0.600   6.272   3.659  2.3281  0.5009  0.7621
 1200SOL    HW2 4500   0.603   6.410   3.572  3.2154  1.0188  1.5883
 1201SOL     OW 4501   2.458   4.379   2.849 -0.3887 -0.5724  0.3322
 1201SOL    HW1 4502   2.490   4.352   2.940  0.0665  1.2867  0.7668
 1201SOL    HW2 4503   2.519   4.450   2.812 -1.2263 -0.4817 -0.9330
 1202SOL     OW 4504   1.755   2.988   2.495 -0.0170 -0.0614  0.2253
 1202SOL    HW1 4505   1.711   2.921   2.435 -0.4674  0.7800 -0.4006
 1202SOL    HW2 4506   1.694   3.067   2.507  0.3932  0.1305  1.1668
 1203SOL     OW 4507   1.872   4.378   1.418 -0.3787  0.5740 -0.0002
 1203SOL    HW1 4508   1.919   4.453   1.464 -0.5979  0.5474  0.2726
 1203SOL    HW2 4509   1.889   4.293   1.467  0.3001  0.3449 -0.6044
 1204SOL     OW 4510   0.581   1.163   2.284 -0.2053  0.0535  0.3181
 1204SOL    HW1 4511   0.628   1.243   2.247  1.1510 -1.0830 -0.5170
 1204SOL    HW2 4512   0.488   1.158   2.246 -0.1812  1.0194  0.1052
 1205SOL     OW 4513   4.153   5.068   3.505 -0.0267 -0.0556  0.3523
 1205SOL    HW1 4514   4.172   5.108   3.595  2.4156 -1.3738  0.5367
 1205SOL    HW2 4515   4.235   5.075   3.447 -1.6911  1.1797 -1.9931
 1206SOL     OW 4516   1.379   6.459   5.708 -0.2438 -0.3645  0.1667
 1206SOL    HW1 4517   1.474   6.475   5.684 -0.1398 -0.3720  0.5743
 1206SOL    HW2 4518   1.337   6.400   5.639  0.3780 -1.3655  0.6159
 1207SOL     OW 4519   6.101   2.518   3.216 -0.4367  0.6641  0.2436
 1207SOL    HW1 4520   6.110   2.445   3.148  1.7027  1.3589 -0.2958
 1207SOL    HW2 4521   6.174   2.509   3.284  0.0821  2.4829 -0.0202
 1208SOL     OW 4522   2.467   1.013   2.004 -0.4214 -0.4176 -0.1848
 1208SOL    HW1 4523   2.413   0.940   2.046  0.9125 -1.1250  0.3644
 1208SOL    HW2 4524   2.544   1.036   2.063  1.5320 -1.4435 -2.1494
 1209SOL     OW 4525   0.253   5.174   3.695 -0.1312  0.3643 -0.9508
 1209SOL    HW1 4526   0.227   5.078   3.682 -0.1100 -0.1433  2.0070
 1209SOL    HW2 4527   0.191   5.217   3.760  1.5133  1.5121 -0.0524
 1210SOL     OW 4528   6.973   2.857   0.745  0.0309 -0.3746 -0.1582
 1210SOL    HW1 4529   7.042   2.818   0.685 -0.5862 -1.3161 -0.2717
 1210SOL    HW2 4530   6.997   2.837   0.840  0.1283 -0.3389 -0.1749
 1211SOL     OW 4531   5.870   5.685   1.717 -0.4787 -0.4504  0.4107
 1211SOL    HW1 4532   5.822   5.659   1.634 -1.2845 -0.8267  0.9739
 1211SOL    HW2 4533   5.952   5.629   1.728 -0.6143 -0.7106  0.1032
 1212SOL     OW 4534   2.566   0.153   5.804  0.2664  0.0901 -0.1936
 1212SOL    HW1 4535   2.481   0.178   5.758  0.1310  0.4147  0.2254
 1212SOL    HW2 4536   2.644   0.185   5.750  0.1212 -0.1062 -0.5202
 1213SOL     OW 4537   5.973   5.894   5.178 -0.3170 -0.4105  0.1532
 1213SOL    HW1 4538   5.890   5.839   5.184 -0.6493  0.1131  0.4307
 1213SOL    HW2 4539   6.050   5.842   5.216 -0.6169 -0.6998  0.3717
 1214SOL     OW 4540   0.030   1.670   6.130 -0.2723  0.0997 -0.1174
 1214SOL    HW1 4541   0.066   1.746   6.183 -2.7242  1.6801 -0.5506
 1214SOL    HW2 4542   0.068   1.673   6.038 -0.5112  0.9547 -0.1972
 1215SOL     OW 4543   6.463   5.649   4.591  0.0381 -0.2174  0.2269
 1215SOL    HW1 4544   6.437   5.574   4.652  1.5890  0.3612  1.6857
 1215SOL    HW2 4545   6.400   5.726   4.603  0.8433  0.2284  1.8291
 1216SOL     OW 4546   1.631   5.585   0.083  0.7668  0.5656  0.3427
 1216SOL    HW1 4547   1.655   5.501   0.036  0.3708  0.7167 -0.1358
 1216SOL    HW2 4548   1.617   5.566   0.181  2.5988  0.4360  0.6162
 1217SOL     OW 4549   0.360   1.080   4.611  0.2282 -0.2084  0.8354
 1217SOL    HW1 4550   0.441   1.101   4.664  0.2360  0.0703  0.7121
 1217SOL    HW2 4551   0.359   0.982   4.589 -0.4729 -0.6020  2.5022
 1218SOL     OW 4552   5.605   1.830   4.113 -0.7589  0.0667 -0.2190
 1218SOL    HW1 4553   5.564   1.913   4.151 -0.2677  0.2909 -0.1770
 1218SOL    HW2 4554   5.687   1.854   4.060  0.5251 -0.5566  1.4029
 1219SOL     OW 4555   2.729   4.244   0.800 -0.0462 -0.1874 -0.2524
 1219SOL    HW1 4556   2.825   4.228   0.825 -0.6201 -0.1034  2.1388
 1219SOL    HW2 4557   2.718   4.339   0.771  0.6538 -0.3205 -1.0086
 1220SOL     OW 4558   1.089   3.877   4.218  0.2702 -1.1382  0.3077
 1220SOL    HW1 4559   1.126   3.785   4.226  1.8512 -0.3938  2.0145
 1220SOL    HW2 4560   1.145   3.942   4.269 -0.4066  0.9234 -1.3753
 1221SOL     OW 4561   3.617   6.118   1.150  0.1963  0.0164  0.3424
 1221SOL    HW1 4562   3.630   6.197   1.211 -0.3777 -0.5826  1.2709
 1221SOL    HW2 4563   3.592   6.150   1.059 -0.7219  0.9073  0.8864
 1222SOL     OW 4564   3.740   3.544   5.328 -1.1893 -0.4666 -0.0852
 1222SOL    HW1 4565   3.788   3.496   5.254 -1.9069 -0.2833 -0.6752
 1222SOL    HW2 4566   3.783   3.521   5.415  0.1101 -0.1410 -0.6194
 1223SOL     OW 4567   1.004   5.926   6.734  0.7078  0.0627 -0.1971
 1223SOL    HW1 4568   1.097   5.915   6.769  1.0174  1.2932 -0.5966
 1223SOL    HW2 4569   0.984   5.855   6.667  1.3043 -0.2870 -0.0067
 1224SOL     OW 4570   3.586   0.147   0.974 -0.0958 -0.5811 -0.2573
 1224SOL    HW1 4571   3.533   0.063   0.986 -2.0459  0.7226  0.8090
 1224SOL    HW2 4572   3.573   0.182   0.881 -0.7596 -0.5274 -0.1515
 1225SOL     OW 4573   6.953   4.991   6.815 -0.0558  0.1511  0.3760
 1225SOL    HW1 4574   6.938   5.090   6.808  0.4043  0.2083  0.1204
 1225SOL    HW2 4575   7.023   4.964   6.748 -1.3081 -0.5950 -0.6810
 1226SOL     OW 4576   2.914   4.951   0.311  0.0392  0.0162 -0.4224
 1226SOL    HW1 4577   2.880   4.974   0.220 -0.7904  0.8890  0.0863
 1226SOL    HW2 4578   2.838   4.952   0.377  0.2087 -2.8713 -0.0829
 1227SOL     OW 4579   5.617   5.634   2.233  0.4029 -0.5467  0.4036
 1227SOL    HW1 4580   5.522   5.625   2.205  0.0800 -1.0346  1.5956
 1227SOL    HW2 4581   5.675   5.580   2.173 -0.5708 -3.8006  2.1522
 1228SOL     OW 4582   4.162   1.671   2.820  0.3609 -0.0359 -0.1391
 1228SOL    HW1 4583   4.115   1.645   2.904  2.0243 -1.9283  0.2899
 1228SOL    HW2 4584   4.139   1.606   2.747  0.7531  0.1874 -0.4645
 1229SOL     OW 4585   4.606   4.919   0.091 -0.1275 -0.3049 -0.0485
 1229SOL    HW1 4586   4.581   4.991   0.025 -2.0270 -0.3367  0.5739
 1229SOL    HW2 4587   4.567   4.832   0.060 -1.9166 -0.1385  1.5451
 1230SOL     OW 4588   1.761   5.820   1.414 -0.0503  0.5332  0.3439
 1230SOL    HW1 4589   1.814   5.748   1.371 -0.1956  0.8200 -0.3415
 1230SOL    HW2 4590   1.667   5.817   1.379  0.0578  1.3306 -0.0462
 1231SOL     OW 4591   2.536   6.779   4.227  0.0583  0.2739  0.3809
 1231SOL    HW1 4592   2.542   6.869   4.184 -0.6145  0.0677 -0.1579
 1231SOL    HW2 4593   2.622   6.759   4.275  0.4682  0.9027 -0.0781
 1232SOL     OW 4594   1.666   0.678   3.663 -0.6370 -0.0791  0.2435
 1232SOL    HW1 4595   1.689   0.760   3.611 -1.6074  1.1924  1.7172
 1232SOL    HW2 4596   1.663   0.599   3.602 -1.4102  1.2649 -1.5399
 1233SOL     OW 4597   5.469   3.783   0.622  0.2588  0.7711 -0.1431
 1233SOL    HW1 4598   5.463   3.683   0.626  0.3596  0.7335 -0.7606
 1233SOL    HW2 4599   5.410   3.816   0.548 -1.3081  1.3264  1.3016
 1234SOL     OW 4600   4.238   6.600   1.292  0.1750 -0.2366  0.0722
 1234SOL    HW1 4601   4.162   6.664   1.292  1.8934  1.9696 -0.7099
 1234SOL    HW2 4602   4.263   6.578   1.198 -1.4225 -3.5231  0.2949
 1235SOL     OW 4603   2.798   1.986   0.478  0.8005 -0.1937 -0.0339
 1235SOL    HW1 4604   2.812   2.039   0.562  2.4188  0.3440 -0.5932
 1235SOL    HW2 4605   2.830   1.893   0.491  1.5238  0.0263 -0.1853
 1236SOL     OW 4606   5.394   0.768   4.157 -0.0790  0.2070 -0.2926
 1236SOL    HW1 4607   5.455   0.806   4.227 -1.1587  0.7375  0.3736
 1236SOL    HW2 4608   5.334   0.839   4.122  0.8941  0.1323 -2.3022
 1237SOL     OW 4609   5.058   6.786   4.872  0.3870 -0.1655  0.3462
 1237SOL    HW1 4610   5.143   6.733   4.880  0.4619 -0.3350 -1.2680
 1237SOL    HW2 4611   4.980   6.726   4.891  0.5343 -0.5312 -0.1822
 1238SOL     OW 4612   3.740   6.560   1.370  0.3587  0.1076 -0.0243
 1238SOL    HW1 4613   3.728   6.462   1.385 -0.8611 -0.3039 -3.0148
 1238SOL    HW2 4614   3.827   6.576   1.323  0.4088  0.4393  0.1759
 1239SOL     OW 4615   2.555   2.829   6.653  0.3878  0.2933  0.6021
 1239SOL    HW1 4616   2.651   2.805   6.635 -0.2129 -1.9775  0.1670
 1239SOL    HW2 4617   2.526   2.786   6.738 -0.6896 -0.3392 -0.0763
 1240SOL     OW 4618   1.341   4.401   0.404  0.0726  0.2023  0.4560
 1240SOL    HW1 4619   1.256   4.368   0.362  1.5126 -1.3375 -1.4707
 1240SOL    HW2 4620   1.418   4.374   0.347  2.0153  0.1699  2.9430
 1241SOL     OW 4621   6.970   5.848   2.760 -0.2821  0.5208 -0.1840
 1241SOL    HW1 4622   6.910   5.771   2.785  1.9769 -0.4959  2.7077
 1241SOL    HW2 4623   6.994   5.899   2.843  0.0563  3.0506 -1.7542
 1242SOL     OW 4624   6.264   5.314   0.900  0.6158  0.1570  0.1751
 1242SOL    HW1 4625   6.326   5.388   0.927  1.8851 -0.6544 -0.4233
 1242SOL    HW2 4626   6.190   5.307   0.967  1.2213  1.0833  0.9733
 1243SOL     OW 4627   1.752   1.088   5.258  0.0500 -0.5718  0.0113
 1243SOL    HW1 4628   1.659   1.123   5.256  0.8323  1.6607 -1.3071
 1243SOL    HW2 4629   1.779   1.058   5.166  0.8168 -0.6440  0.2524
 1244SOL     OW 4630   2.949   0.045   3.148 -0.4462 -0.4971 -0.2795
 1244SOL    HW1 4631   2.869  -0.009   3.119 -1.0541  0.6009 -0.7391
 1244SOL    HW2 4632   2.919   0.118   3.209  0.2190 -0.1268 -0.3841
 1245SOL     OW 4633   5.451   0.492   4.697  0.5334  0.1330 -0.2368
 1245SOL    HW1 4634   5.363   0.522   4.659  0.0989 -0.0103  0.6234
 1245SOL    HW2 4635   5.455   0.517   4.794 -0.0689 -2.9600  0.7056
 1246SOL     OW 4636   3.891   2.091   3.194  0.6436 -0.2075  0.3557
 1246SOL    HW1 4637   3.954   2.167   3.182  0.1343  0.2058  0.2198
 1246SOL    HW2 4638   3.907   2.023   3.123 -0.2231  0.7276 -0.7801
 1247SOL     OW 4639   0.320   6.274   4.917 -0.0254 -0.1809 -0.1757
 1247SOL    HW1 4640   0.307   6.243   4.823  0.7083  0.5323 -0.5275
 1247SOL    HW2 4641   0.303   6.373   4.921 -0.0781 -0.2151  0.4482
 1248SOL     OW 4642   6.577   5.337   5.117 -0.6686 -0.0648 -0.0927
 1248SOL    HW1 4643   6.662   5.352   5.168 -1.6671  2.9204  0.8408
 1248SOL    HW2 4644   6.584   5.380   5.027 -0.4228 -1.8215 -0.9680
 1249SOL     OW 4645   2.194   2.742   3.960 -0.0059  0.5482  0.9818
 1249SOL    HW1 4646   2.249   2.823   3.982  0.3444  1.1022 -1.6466
 1249SOL    HW2 4647   2.114   2.769   3.906  1.3121 -1.0016 -1.9509
 1250SOL     OW 4648   0.657   6.722   2.809  0.0096  0.0233  0.0819
 1250SOL    HW1 4649   0.589   6.727   2.882  0.2455 -0.7301  0.3660
 1250SOL    HW2 4650   0.731   6.786   2.826 -0.2290  0.2645  0.1984
 1251SOL     OW 4651   5.588   1.307   2.942  0.6568 -0.7180 -0.2728
 1251SOL    HW1 4652   5.527   1.341   3.013  0.2633 -3.2448  0.6946
 1251SOL    HW2 4653   5.546   1.230   2.895  1.9542 -0.6999 -1.5468
 1252SOL     OW 4654   6.724   3.690   3.352 -0.3161  0.1408 -0.3125
 1252SOL    HW1 4655   6.705   3.785   3.326  1.1997  0.3397 -0.7815
 1252SOL    HW2 4656   6.808   3.687   3.407 -0.9444 -0.8171  0.6154
 1253SOL     OW 4657   4.995   0.015   5.435  0.3218 -0.0912 -0.8040
 1253SOL    HW1 4658   5.001  -0.063   5.372 -0.9296 -2.0916  1.3999
 1253SOL    HW2 4659   4.930  -0.007   5.508  0.5470  2.7569  0.3489
 1254SOL     OW 4660   5.607   3.806   2.634 -0.1047 -0.0105 -0.2115
 1254SOL    HW1 4661   5.520   3.782   2.679 -0.0349 -1.9627 -1.0008
 1254SOL    HW2 4662   5.620   3.905   2.638 -2.4998  0.3826 -0.3072
 1255SOL     OW 4663   2.401   5.799   0.177 -0.1409 -0.0270  0.1403
 1255SOL    HW1 4664   2.400   5.716   0.121 -0.8300 -0.7730  1.2196
 1255SOL    HW2 4665   2.404   5.879   0.117 -1.5982 -0.7718 -1.0059
 1256SOL     OW 4666   3.493   4.399   0.192 -0.2969  0.2701 -0.0119
 1256SOL    HW1 4667   3.584   4.441   0.201 -0.3694  0.2685  0.8444
 1256SOL    HW2 4668   3.473   4.347   0.275 -0.5249 -0.8555 -0.7546
 1257SOL     OW 4669   2.256   3.392   5.154 -0.3592  0.0293  0.1945
 1257SOL    HW1 4670   2.294   3.328   5.220 -0.4329  0.7884  0.9931
 1257SOL    HW2 4671   2.164   3.362   5.129 -1.0015  0.6104  1.7292
 1258SOL     OW 4672   3.085   0.835   0.214 -0.5028 -0.5096 -0.4039
 1258SOL    HW1 4673   3.111   0.797   0.303 -0.6062  0.4582  0.0435
 1258SOL    HW2 4674   3.111   0.770   0.142 -0.1253 -1.1577  0.2967
 1259SOL     OW 4675   4.603   5.935   0.636  0.6025 -0.7511 -0.5491
 1259SOL    HW1 4676   4.654   5.982   0.709 -0.6666  0.0302 -0.1373
 1259SOL    HW2 4677   4.605   5.991   0.553  0.4033 -0.7112 -0.5270
 1260SOL     OW 4678   4.280   5.030   5.539 -0.4075  0.3821 -0.2422
 1260SOL    HW1 4679   4.206   5.087   5.576  0.4352  1.4402 -0.1325
 1260SOL    HW2 4680   4.357   5.088   5.516  0.8080 -0.8182  0.6560
 1261SOL     OW 4681   5.287   6.225   6.859  0.3278  0.4488  0.1442
 1261SOL    HW1 4682   5.233   6.269   6.788  0.3516  0.3058  0.0366
 1261SOL    HW2 4683   5.263   6.128   6.864  0.0160  0.5466  0.6204
 1262SOL     OW 4684   3.449   6.648   2.231  0.2055  0.2488 -0.0253
 1262SOL    HW1 4685   3.416   6.553   2.228 -0.1475  0.3335 -3.9593
 1262SOL    HW2 4686   3.505   6.661   2.312 -1.5830 -2.6427  1.8640
 1263SOL     OW 4687   6.494   1.435   2.823  0.0802  0.3351 -0.0559
 1263SOL    HW1 4688   6.583   1.481   2.813  0.2747 -0.1540 -0.6505
 1263SOL    HW2 4689   6.507   1.336   2.818 -0.4950  0.2600 -0.1357
 1264SOL     OW 4690   0.496   4.649   0.549  0.6848 -0.0678  0.2786
 1264SOL    HW1 4691   0.537   4.720   0.606 -0.9049  0.4321  0.8667
 1264SOL    HW2 4692   0.428   4.691   0.488  0.4558 -0.9477 -0.0878
 1265SOL     OW 4693   0.509   6.873   5.926 -0.0061 -0.0493  0.2004
 1265SOL    HW1 4694   0.496   6.871   6.025  0.5296  2.0135  0.3672
 1265SOL    HW2 4695   0.595   6.920   5.904  0.3175 -1.2363 -1.2339
 1266SOL     OW 4696   5.330   0.889   0.617  0.7702  0.1957 -0.6761
 1266SOL    HW1 4697   5.231   0.881   0.627  0.6817  1.8061 -0.0067
 1266SOL    HW2 4698   5.371   0.797   0.613 -0.5917 -0.4949  0.4482
 1267SOL     OW 4699   1.714   4.769   1.834 -0.2960 -0.0405 -0.4600
 1267SOL    HW1 4700   1.786   4.821   1.787 -0.4470 -0.1645 -0.8328
 1267SOL    HW2 4701   1.717   4.789   1.932 -0.3223  0.6336 -0.5937
 1268SOL     OW 4702   1.288   5.383   6.092  0.6787 -0.8544 -0.6827
 1268SOL    HW1 4703   1.241   5.433   6.019 -0.1445  1.5649  1.3597
 1268SOL    HW2 4704   1.383   5.413   6.098  0.7526 -1.0692 -0.7435
 1269SOL     OW 4705   5.526   4.018   6.913  0.5974  0.4481  0.1789
 1269SOL    HW1 4706   5.497   4.075   6.836 -1.2583  1.1902  1.3662
 1269SOL    HW2 4707   5.561   4.077   6.987 -0.1971 -0.0221  0.9500
 1270SOL     OW 4708   4.839   2.749   0.014 -0.7386 -0.0684 -0.2574
 1270SOL    HW1 4709   4.858   2.847   0.009 -1.0234 -0.0414 -0.8566
 1270SOL    HW2 4710   4.913   2.704   0.064  0.9896  0.0385 -2.5503
 1271SOL     OW 4711   3.009   3.849   6.222  0.1344  0.0547 -0.2799
 1271SOL    HW1 4712   3.061   3.899   6.154  1.8781  0.5103  1.3100
 1271SOL    HW2 4713   3.069   3.787   6.272 -1.4884 -1.7801 -0.4799
 1272SOL     OW 4714   4.669   3.635   0.188  0.5262  0.0593 -0.2857
 1272SOL    HW1 4715   4.641   3.561   0.127 -0.5140 -0.4145  0.7183
 1272SOL    HW2 4716   4.752   3.678   0.153  0.9379 -1.3349 -1.0909
 1273SOL     OW 4717   6.144   5.745   4.914  0.1039 -0.0854  1.0225
 1273SOL    HW1 4718   6.172   5.834   4.950 -0.4493  0.6663 -0.3468
 1273SOL    HW2 4719   6.045   5.734   4.928  0.1118 -0.3403  0.8766
 1274SOL     OW 4720   0.588   3.257   2.855 -0.3328 -0.4882  0.0079
 1274SOL    HW1 4721   0.564   3.278   2.760 -0.7574  0.7417  0.3601
 1274SOL    HW2 4722   0.508   3.219   2.902 -0.3708 -0.3123  0.0872
 1275SOL     OW 4723   2.257   2.976   3.371  0.2383  0.0749 -0.0512
 1275SOL    HW1 4724   2.243   3.072   3.394 -2.1080 -0.7687  2.5500
 1275SOL    HW2 4725   2.328   2.938   3.429 -1.0628 -0.4724  1.2330
 1276SOL     OW 4726   0.634   2.378   4.516 -0.2182 -0.3213 -0.4280
 1276SOL    HW1 4727   0.688   2.432   4.452  0.1122  0.0297  0.1517
 1276SOL    HW2 4728   0.567   2.436   4.562 -0.4222 -0.5652 -0.4085
 1277SOL     OW 4729   3.368   1.352   6.435  0.2253 -0.2832 -0.3334
 1277SOL    HW1 4730   3.358   1.396   6.524  1.2209 -1.2974  0.3015
 1277SOL    HW2 4731   3.282   1.360   6.384 -0.4422  0.0709  0.8113
 1278SOL     OW 4732   0.639   2.329   5.957  0.3194  0.5538 -0.4425
 1278SOL    HW1 4733   0.667   2.324   6.053  1.6332  1.3930 -0.7505
 1278SOL    HW2 4734   0.565   2.264   5.940  0.4316  0.0122  1.0062
 1279SOL     OW 4735   1.377   1.566   5.501 -0.1913 -0.4139  0.4622
 1279SOL    HW1 4736   1.358   1.502   5.576  0.2227 -1.0509  0.0352
 1279SOL    HW2 4737   1.325   1.540   5.420  0.9959 -1.0262 -0.1238
 1280SOL     OW 4738   2.878   5.418   5.565  0.4959 -0.0607  0.1802
 1280SOL    HW1 4739   2.954   5.353   5.552 -0.2116 -0.5702 -1.8146
 1280SOL    HW2 4740   2.913   5.501   5.609  2.5017  0.1780 -1.6668
 1281SOL     OW 4741   6.765   2.932   1.168  0.9347 -0.1008 -0.2521
 1281SOL    HW1 4742   6.805   2.987   1.095 -0.4892  1.5169  0.1232
 1281SOL    HW2 4743   6.723   2.850   1.129 -0.0425  0.8796 -1.3034
 1282SOL     OW 4744   5.311   5.330   1.479  0.1908  0.2413  0.7161
 1282SOL    HW1 4745   5.405   5.295   1.486  0.5424  0.9115 -0.3986
 1282SOL    HW2 4746   5.247   5.255   1.496  0.9145 -1.2594 -2.3118
 1283SOL     OW 4747   0.909   5.869   6.141 -0.5657 -0.0153 -0.6337
 1283SOL    HW1 4748   0.812   5.891   6.147 -0.5890  0.1857 -1.5339
 1283SOL    HW2 4749   0.956   5.938   6.085  0.0390 -0.2757 -0.4630
 1284SOL     OW 4750   6.260   5.034   4.540  0.0516 -0.2384 -0.2517
 1284SOL    HW1 4751   6.358   5.038   4.561  0.0842 -0.3238 -0.3823
 1284SOL    HW2 4752   6.208   5.070   4.617  0.2251  0.5888 -0.5087
 1285SOL     OW 4753   2.989   1.134   4.029 -0.2863  0.2147  0.3908
 1285SOL    HW1 4754   2.926   1.090   3.965 -1.3987  0.4860  1.2622
 1285SOL    HW2 4755   2.998   1.231   4.004 -0.1358  0.1517  0.2017
 1286SOL     OW 4756   6.884   4.353   0.006 -0.1517  0.0999  0.0342
 1286SOL    HW1 4757   6.946   4.427  -0.019  1.1526 -0.1751  2.1573
 1286SOL    HW2 4758   6.789   4.384  -0.001  0.3709  2.7008  2.5857
 1287SOL     OW 4759   4.257   4.335   0.477 -0.1766  0.0789  0.2756
 1287SOL    HW1 4760   4.287   4.282   0.556 -1.0721  0.9532  1.2421
 1287SOL    HW2 4761   4.202   4.413   0.509  0.1935  0.9541 -1.1639
 1288SOL     OW 4762   2.939   6.028   5.257 -0.4109  0.7205 -0.5182
 1288SOL    HW1 4763   2.886   5.992   5.333  0.1533  0.8124 -0.0767
 1288SOL    HW2 4764   2.957   6.125   5.272  0.8513  0.4309 -0.1061
 1289SOL     OW 4765   3.695   5.360   1.741  0.5332  0.7403 -0.3444
 1289SOL    HW1 4766   3.598   5.345   1.754  0.4450 -0.0172 -1.6518
 1289SOL    HW2 4767   3.737   5.388   1.827 -0.6585  0.1331  0.4512
 1290SOL     OW 4768   4.402   3.177   6.393 -0.6202  0.0667  0.1075
 1290SOL    HW1 4769   4.382   3.158   6.297  0.0707  1.4963 -0.3473
 1290SOL    HW2 4770   4.352   3.258   6.422  1.4755  1.4743  0.0216
 1291SOL     OW 4771   6.796   6.381   6.953  0.3151 -0.1122  0.9399
 1291SOL    HW1 4772   6.868   6.363   7.020  0.5068 -1.0491  0.5057
 1291SOL    HW2 4773   6.706   6.369   6.995  0.3837  1.6569  1.6468
 1292SOL     OW 4774   1.485   5.141   6.208  0.5263  0.2840 -0.2209
 1292SOL    HW1 4775   1.414   5.117   6.274 -1.1754  0.7558 -1.8037
 1292SOL    HW2 4776   1.518   5.234   6.228  1.4133 -0.2766  1.0765
 1293SOL     OW 4777   2.881   1.740   6.743 -0.1803  0.4978  0.0146
 1293SOL    HW1 4778   2.941   1.678   6.794 -0.3075  0.1871 -0.2109
 1293SOL    HW2 4779   2.851   1.696   6.659 -0.1193  0.9397 -0.2428
 1294SOL     OW 4780   4.364   2.380   2.862  0.2392 -0.3004 -0.3415
 1294SOL    HW1 4781   4.348   2.437   2.781  0.7353 -1.2634 -1.1362
 1294SOL    HW2 4782   4.459   2.349   2.863 -0.2418 -1.8584 -0.4314
 1295SOL     OW 4783   1.784   3.176   5.742 -0.0797  0.3280 -0.2379
 1295SOL    HW1 4784   1.685   3.164   5.746  0.0708 -1.8297 -1.2893
 1295SOL    HW2 4785   1.829   3.091   5.772  1.4064  0.7668 -1.1228
 1296SOL     OW 4786   0.689   5.004   6.597  0.1903  0.9796 -0.5328
 1296SOL    HW1 4787   0.656   5.091   6.562 -0.0680  0.3545 -1.9114
 1296SOL    HW2 4788   0.753   4.964   6.532  0.2243  0.0875  0.0313
 1297SOL     OW 4789   6.107   3.757   0.888  0.0187  0.0084 -0.0349
 1297SOL    HW1 4790   6.167   3.706   0.950 -0.0566  1.5430  1.3774
 1297SOL    HW2 4791   6.148   3.761   0.797  0.0866 -2.4006 -0.1771
 1298SOL     OW 4792   1.897   1.209   0.692  0.0510 -0.1797  0.3673
 1298SOL    HW1 4793   1.837   1.146   0.642 -0.6140 -1.0271  2.1366
 1298SOL    HW2 4794   1.931   1.164   0.774  3.6717  0.0432 -0.8078
 1299SOL     OW 4795   4.984   2.580   4.323  0.0466  0.1421  0.1817
 1299SOL    HW1 4796   4.992   2.498   4.266 -1.3670  1.2057 -1.6602
 1299SOL    HW2 4797   5.035   2.566   4.408 -2.2604 -3.6644  1.1982
 1300SOL     OW 4798   2.551   0.108   3.167 -0.7261  0.3895  0.0842
 1300SOL    HW1 4799   2.476   0.120   3.232 -2.2603 -3.8871 -0.6029
 1300SOL    HW2 4800   2.614   0.038   3.200  2.4308  2.9612  0.0192
 1301SOL     OW 4801   6.411   6.100   4.128  0.2642 -0.6149  0.1370
 1301SOL    HW1 4802   6.383   6.079   4.221  0.2076  0.4178  0.3682
 1301SOL    HW2 4803   6.375   6.031   4.065  2.3330 -2.7491  1.1335
 1302SOL     OW 4804   4.890   4.018   2.202  0.3020  0.2282 -0.2426
 1302SOL    HW1 4805   4.965   4.019   2.136  1.3506  0.5811  0.9196
 1302SOL    HW2 4806   4.839   4.105   2.196 -0.3829 -0.2336 -1.4116
 1303SOL     OW 4807   0.115   3.170   1.357  0.4862 -0.2507  0.1635
 1303SOL    HW1 4808   0.082   3.099   1.294  0.7878 -0.2213 -0.0277
 1303SOL    HW2 4809   0.158   3.127   1.436  0.1181 -0.2875  0.3438
 1304SOL     OW 4810   4.374   6.897   4.745  0.6884  0.0417 -0.4504
 1304SOL    HW1 4811   4.367   6.996   4.743  0.1032 -0.0020 -2.2562
 1304SOL    HW2 4812   4.299   6.860   4.800  0.9415  0.5839  0.2752
 1305SOL     OW 4813   2.722   5.230   3.484  0.0024 -0.3241  0.6881
 1305SOL    HW1 4814   2.790   5.290   3.444 -1.3530 -0.2663 -1.7215
 1305SOL    HW2 4815   2.639   5.282   3.504 -0.6482 -1.0651  0.0113
 1306SOL     OW 4816   6.946   6.565   0.937  0.4823 -0.0503  0.1109
 1306SOL    HW1 4817   6.979   6.535   1.027  1.3518  1.7082  0.4078
 1306SOL    HW2 4818   7.011   6.537   0.867  0.5125 -0.1938  0.1952
 1307SOL     OW 4819   6.193   4.041   0.154 -0.5110  0.2872 -0.1858
 1307SOL    HW1 4820   6.104   4.065   0.116 -0.0394 -0.0144 -1.5272
 1307SOL    HW2 4821   6.243   4.125   0.177 -0.8062  0.4755 -0.2249
 1308SOL     OW 4822   0.567   5.670   6.560 -0.3137 -0.3930  0.5925
 1308SOL    HW1 4823   0.633   5.617   6.613 -2.0093 -2.6742  0.5364
 1308SOL    HW2 4824   0.491   5.698   6.619 -0.2479  0.5898  0.2350
 1309SOL     OW 4825   4.296   3.360   5.600 -0.4231  0.0417  0.5873
 1309SOL    HW1 4826   4.297   3.350   5.501  2.4427  0.1331  0.5374
 1309SOL    HW2 4827   4.354   3.290   5.642  1.0623  1.9588  1.9146
 1310SOL     OW 4828   0.597   3.951   3.434 -0.4004 -0.1441 -0.2874
 1310SOL    HW1 4829   0.674   3.982   3.377  0.0214 -0.6947 -0.0232
 1310SOL    HW2 4830   0.516   3.939   3.377 -0.0290 -0.5242 -0.7438
 1311SOL     OW 4831   3.718   1.330   3.199  0.0545  0.7003  0.2787
 1311SOL    HW1 4832   3.641   1.318   3.261  0.6097 -0.5529  0.7530
 1311SOL    HW2 4833   3.693   1.396   3.128 -1.0010  1.2595  1.1390
 1312SOL     OW 4834   0.416   6.726   5.511  0.6095  0.4750 -0.8799
 1312SOL    HW1 4835   0.360   6.710   5.592  2.0572 -1.5872 -0.2059
 1312SOL    HW2 4836   0.368   6.789   5.450 -1.5233  0.3446  0.5299
 1313SOL     OW 4837   3.870   4.665   1.105  0.0086 -0.7240 -0.2408
 1313SOL    HW1 4838   3.942   4.644   1.039 -0.6859 -1.1465 -0.8783
 1313SOL    HW2 4839   3.884   4.611   1.188  0.5167 -0.6791 -0.2967
 1314SOL     OW 4840   1.133   0.358   0.301 -0.1822 -0.4131  0.3061
 1314SOL    HW1 4841   1.121   0.443   0.251  0.6346  0.0308  0.8564
 1314SOL    HW2 4842   1.218   0.360   0.353 -1.4157 -0.4740  2.4693
 1315SOL     OW 4843   6.387   1.628   2.979 -0.6914 -0.2685 -0.3477
 1315SOL    HW1 4844   6.422   1.555   2.920  1.9516  0.4960  0.1436
 1315SOL    HW2 4845   6.343   1.588   3.059  1.1943 -1.3956  0.1834
 1316SOL     OW 4846   4.742   6.518   2.216  0.1359 -0.2970 -0.0193
 1316SOL    HW1 4847   4.644   6.539   2.227  0.0949  0.3157 -1.3417
 1316SOL    HW2 4848   4.796   6.586   2.265 -0.0810  0.9370 -1.3960
 1317SOL     OW 4849   1.121   3.686   5.182  0.2961  0.0205 -0.6857
 1317SOL    HW1 4850   1.029   3.712   5.211  0.6685  0.8597 -0.2038
 1317SOL    HW2 4851   1.163   3.629   5.253 -0.4557 -1.8348 -1.6643
 1318SOL     OW 4852   0.506   2.890   4.050 -0.4802  0.4702 -0.3609
 1318SOL    HW1 4853   0.597   2.928   4.065  0.0890 -1.0653  0.2878
 1318SOL    HW2 4854   0.476   2.910   3.957  1.4747 -0.8535 -1.3397
 1319SOL     OW 4855   0.206   6.252   6.665  0.2211 -0.4378 -0.2010
 1319SOL    HW1 4856   0.262   6.317   6.613  0.3893 -1.8069 -1.8274
 1319SOL    HW2 4857   0.125   6.229   6.611 -0.6737 -0.3635  1.0662
 1320SOL     OW 4858   5.116   0.529   2.838  0.0967 -0.1744  0.3097
 1320SOL    HW1 4859   5.107   0.436   2.802  1.5782 -0.6118  0.9948
 1320SOL    HW2 4860   5.189   0.577   2.790 -0.0147  0.3153  0.6173
 1321SOL     OW 4861   5.392   2.054   4.009  0.0495 -0.0930 -0.5762
 1321SOL    HW1 4862   5.359   2.005   3.929  0.1726 -0.5751 -0.3370
 1321SOL    HW2 4863   5.316   2.070   4.072  0.1252 -0.5512 -0.3619
 1322SOL     OW 4864   4.025   5.473   2.632 -0.2154 -0.0928 -0.5733
 1322SOL    HW1 4865   3.950   5.519   2.586  0.0073  0.9510  0.0731
 1322SOL    HW2 4866   3.990   5.420   2.709 -0.1843  1.4068  0.5035
 1323SOL     OW 4867   6.367   4.973   2.919  0.8274 -0.1138 -0.3073
 1323SOL    HW1 4868   6.446   5.035   2.911 -0.3088  1.4609  0.2784
 1323SOL    HW2 4869   6.297   5.001   2.854  1.0058 -2.0035 -1.4030
 1324SOL     OW 4870   0.149   5.102   5.480 -0.1339  0.3010  0.3204
 1324SOL    HW1 4871   0.206   5.083   5.401 -0.7249 -0.5011  0.0670
 1324SOL    HW2 4872   0.118   5.015   5.521  0.6917  0.6810  1.8286
 1325SOL     OW 4873   6.352   3.629   2.108  0.0314 -0.9071  0.0539
 1325SOL    HW1 4874   6.350   3.700   2.037 -1.2287  0.0927  1.0431
 1325SOL    HW2 4875   6.445   3.620   2.143  0.4969 -0.7978 -1.0970
 1326SOL     OW 4876   4.863   0.270   5.344  0.0825  0.0324  0.6169
 1326SOL    HW1 4877   4.814   0.323   5.413 -0.5481 -1.2622  1.2044
 1326SOL    HW2 4878   4.913   0.195   5.389  0.5187 -0.1975 -0.2346
 1327SOL     OW 4879   1.724   5.294   2.795  0.0488 -0.3589  0.0151
 1327SOL    HW1 4880   1.694   5.388   2.813 -0.2635 -0.9682  3.1834
 1327SOL    HW2 4881   1.795   5.269   2.862  0.3093 -2.3153 -0.9360
 1328SOL     OW 4882   1.063   2.030   1.715  0.0804  0.2776  0.5660
 1328SOL    HW1 4883   1.146   2.076   1.684  0.7414 -0.1375  1.6367
 1328SOL    HW2 4884   0.984   2.089   1.701  0.4408  0.3861 -1.1605
 1329SOL     OW 4885   1.099   6.971   5.218 -0.0743 -0.4070 -0.2655
 1329SOL    HW1 4886   1.140   6.897   5.164  0.4872  0.6075 -1.2555
 1329SOL    HW2 4887   1.041   6.931   5.290  0.5263 -1.8102 -0.5278
 1330SOL     OW 4888   5.140   5.911   0.880  0.0389 -0.4155 -0.0335
 1330SOL    HW1 4889   5.065   5.845   0.879 -1.0159  0.7300  0.8712
 1330SOL    HW2 4890   5.139   5.962   0.966  0.5428  1.0800 -0.8647
 1331SOL     OW 4891   2.542   6.067   0.931  0.0205 -0.3067 -0.5594
 1331SOL    HW1 4892   2.493   6.104   0.852  0.6282  1.7836 -0.0191
 1331SOL    HW2 4893   2.526   6.125   1.010  0.9537 -1.2883  0.3790
 1332SOL     OW 4894   6.889   0.223   3.460  0.5100  0.5272  0.3205
 1332SOL    HW1 4895   6.856   0.226   3.366  1.4668 -0.0712 -0.0532
 1332SOL    HW2 4896   6.821   0.263   3.521 -0.0510  1.0680 -0.6444
 1333SOL     OW 4897   0.128   3.565   6.688  0.0201  0.4266  0.3882
 1333SOL    HW1 4898   0.155   3.493   6.625  0.8312 -1.2865  2.5680
 1333SOL    HW2 4899   0.206   3.626   6.705  0.0919  0.3189  0.4483
 1334SOL     OW 4900   3.295   0.231   1.775  0.5760 -0.0875  0.0514
 1334SOL    HW1 4901   3.288   0.163   1.702  1.0797 -1.2035  1.0061
 1334SOL    HW2 4902   3.387   0.227   1.815 -0.0646 -0.4004  1.5765
 1335SOL     OW 4903   5.214   1.818   2.858 -0.5446  0.0112 -0.0864
 1335SOL    HW1 4904   5.264   1.903   2.841  1.2400 -0.3301  2.7658
 1335SOL    HW2 4905   5.206   1.804   2.957 -1.8269 -2.5734 -0.4915
 1336SOL     OW 4906   2.883   3.471   6.467 -0.1469  0.1502 -0.0753
 1336SOL    HW1 4907   2.901   3.452   6.370 -0.1273  0.8264 -0.2097
 1336SOL    HW2 4908   2.794   3.516   6.476 -0.5283 -0.6649  0.3109
 1337SOL     OW 4909   0.314   4.713   6.251  0.0009  0.5302 -0.4865
 1337SOL    HW1 4910   0.332   4.615   6.243 -0.1575  0.1041  2.9449
 1337SOL    HW2 4911   0.396   4.759   6.284 -0.5332  1.2112 -0.0897
 1338SOL     OW 4912   0.031   6.881   5.098 -0.5315  0.3293 -0.0249
 1338SOL    HW1 4913  -0.044   6.943   5.077 -0.9447 -1.0305 -3.2095
 1338SOL    HW2 4914   0.118   6.928   5.086 -0.8192  1.0601  0.6280
 1339SOL     OW 4915   2.881   5.429   3.434  0.4439  0.2508  0.2035
 1339SOL    HW1 4916   2.896   5.493   3.510 -1.5208  1.4739 -0.3654
 1339SOL    HW2 4917   2.927   5.462   3.352  0.9966 -0.0832  0.3722
 1340SOL     OW 4918   1.316   5.195   1.564 -0.4493 -0.9081 -0.1187
 1340SOL    HW1 4919   1.298   5.262   1.636  2.2154 -1.6004  1.3522
 1340SOL    HW2 4920   1.305   5.103   1.601 -0.8003 -1.2895 -1.1472
 1341SOL     OW 4921   4.570   6.856   0.589  0.1708  1.0679 -0.2452
 1341SOL    HW1 4922   4.601   6.916   0.515 -0.7586  0.9924 -0.7104
 1341SOL    HW2 4923   4.558   6.763   0.554  0.5005  0.8561  0.1964
 1342SOL     OW 4924   1.804   5.533   3.246  0.1144 -0.2364  0.0117
 1342SOL    HW1 4925   1.707   5.512   3.232  0.4121 -1.2707 -0.6112
 1342SOL    HW2 4926   1.857   5.500   3.168  0.9698  0.3926  0.3106
 1343SOL     OW 4927   5.065   7.009   6.756 -0.5404  0.1034  0.0135
 1343SOL    HW1 4928   4.986   6.948   6.765 -1.0174  0.6006 -0.6937
 1343SOL    HW2 4929   5.071   7.043   6.662  0.2464  0.4343  0.1748
 1344SOL     OW 4930   1.347   6.404   0.288  0.0637  0.5592 -0.1131
 1344SOL    HW1 4931   1.354   6.458   0.372 -1.6498 -1.0580  1.1481
 1344SOL    HW2 4932   1.439   6.376   0.258  0.6935  1.0453  1.2906
 1345SOL     OW 4933   4.771   4.257   2.136 -0.0511 -0.6072 -0.4022
 1345SOL    HW1 4934   4.675   4.263   2.109 -0.3061  0.3116  0.6250
 1345SOL    HW2 4935   4.807   4.349   2.152  0.2571 -1.0347  1.6826
 1346SOL     OW 4936   6.574   5.822   5.668  0.3053  0.1780 -0.0621
 1346SOL    HW1 4937   6.673   5.827   5.677  0.4000 -2.8835  2.4230
 1346SOL    HW2 4938   6.549   5.816   5.572  2.3810  2.0726 -0.7918
 1347SOL     OW 4939   1.320   0.069   1.818 -0.1325 -0.4196 -0.0129
 1347SOL    HW1 4940   1.361  -0.002   1.760  1.0046  2.1778 -2.6312
 1347SOL    HW2 4941   1.377   0.083   1.899 -0.6964 -2.7792  0.8927
 1348SOL     OW 4942   5.774   0.494   6.165  0.5943  0.4933 -0.1710
 1348SOL    HW1 4943   5.868   0.509   6.134  0.3319  0.4758 -1.0051
 1348SOL    HW2 4944   5.717   0.573   6.139  0.0275 -0.2189 -1.1721
 1349SOL     OW 4945   2.507   0.804   4.877  0.1101 -0.2388 -0.2937
 1349SOL    HW1 4946   2.479   0.842   4.966 -1.8016  2.0806 -1.7689
 1349SOL    HW2 4947   2.538   0.878   4.818 -0.7016 -1.4263 -2.2892
 1350SOL     OW 4948   3.189   3.500   4.520 -0.1396 -0.0930 -0.0752
 1350SOL    HW1 4949   3.171   3.470   4.614 -2.9429  1.1949 -0.0942
 1350SOL    HW2 4950   3.160   3.596   4.510 -1.0983 -0.5830 -2.5393
 1351SOL     OW 4951   6.713   2.349   0.012 -0.6276  0.0690 -0.3352
 1351SOL    HW1 4952   6.621   2.309   0.009 -0.6555  0.0998  0.0755
 1351SOL    HW2 4953   6.745   2.365  -0.082 -1.1876  0.3973 -0.4744
 1352SOL     OW 4954   0.978   1.794   1.537  0.6824 -0.4752 -0.3655
 1352SOL    HW1 4955   0.971   1.796   1.636 -2.4226 -1.6081 -0.4424
 1352SOL    HW2 4956   1.065   1.752   1.510  1.7079  0.1306  1.8231
 1353SOL     OW 4957   7.019   2.367   3.905 -0.2725  0.4197  0.6939
 1353SOL    HW1 4958   6.929   2.378   3.946 -0.8772  0.9498 -0.6959
 1353SOL    HW2 4959   7.014   2.300   3.831  0.7142 -0.3012  1.2493
 1354SOL     OW 4960   0.737   6.775   4.316 -0.3170 -0.4917 -0.1492
 1354SOL    HW1 4961   0.724   6.748   4.220 -1.4451  1.7138 -0.7016
 1354SOL    HW2 4962   0.766   6.696   4.370  5.4354 -0.9274 -3.1476
 1355SOL     OW 4963   2.710   0.014   5.355 -0.5942 -0.6568 -0.4645
 1355SOL    HW1 4964   2.618  -0.009   5.323 -0.0548 -1.6599 -1.3703
 1355SOL    HW2 4965   2.728   0.111   5.338 -2.1354  0.0273  1.4220
 1356SOL     OW 4966   4.457   5.172   0.291  0.3396  0.2655 -0.1215
 1356SOL    HW1 4967   4.530   5.121   0.246  0.6776  0.2577  0.4233
 1356SOL    HW2 4968   4.446   5.138   0.385 -0.4550  0.1769 -0.2430
 1357SOL     OW 4969   5.267   6.293   2.877 -0.0467  0.0621  0.2080
 1357SOL    HW1 4970   5.367   6.294   2.887  0.4278 -3.3936 -2.1503
 1357SOL    HW2 4971   5.244   6.276   2.781 -2.7381 -2.3518  1.1382
 1358SOL     OW 4972   3.875   0.268   3.427  0.1094  0.1808  0.2531
 1358SOL    HW1 4973   3.869   0.181   3.379 -0.3202  1.1770 -1.6156
 1358SOL    HW2 4974   3.952   0.321   3.392 -1.3283  1.7164 -0.7606
 1359SOL     OW 4975   2.928   5.357   6.293 -0.5336  0.7024 -0.1608
 1359SOL    HW1 4976   2.969   5.391   6.208 -0.6427  0.0364 -0.4893
 1359SOL    HW2 4977   2.829   5.355   6.283 -0.4687 -1.9714 -1.0757
 1360SOL     OW 4978   3.433   3.412   2.124  0.5261  0.0653  0.0613
 1360SOL    HW1 4979   3.403   3.425   2.219 -0.2526 -0.6930 -0.0622
 1360SOL    HW2 4980   3.520   3.363   2.123  0.2480 -0.4468  0.3838
 1361SOL     OW 4981   6.092   1.458   4.862  0.2856  0.3528  0.7165
 1361SOL    HW1 4982   6.066   1.403   4.942 -1.8212 -1.0165 -0.8327
 1361SOL    HW2 4983   6.032   1.538   4.856  0.1197  0.1893  0.2255
 1362SOL     OW 4984   4.146   3.798   1.441 -0.4873  0.2736 -0.5723
 1362SOL    HW1 4985   4.099   3.752   1.516  0.2406  0.8949  0.2944
 1362SOL    HW2 4986   4.127   3.751   1.355 -1.7009 -0.1899 -0.0664
 1363SOL     OW 4987   4.241   3.461   1.702  0.1947  0.2666 -0.4797
 1363SOL    HW1 4988   4.215   3.378   1.751  1.4474  0.1238 -0.0428
 1363SOL    HW2 4989   4.306   3.438   1.630 -1.9946  0.3802 -2.6531
 1364SOL     OW 4990   3.148   5.523   4.862 -0.3506  0.4019  0.0069
 1364SOL    HW1 4991   3.118   5.509   4.957  2.0584  0.6799  0.8720
 1364SOL    HW2 4992   3.094   5.465   4.801 -2.5042  0.8050  1.4109
 1365SOL     OW 4993   4.782   1.545   0.040 -0.3895 -0.3698 -0.4097
 1365SOL    HW1 4994   4.853   1.560   0.108 -1.2698  1.3244  0.2051
 1365SOL    HW2 4995   4.819   1.559  -0.052  0.2235 -0.2108 -0.1363
 1366SOL     OW 4996   0.250   5.651   2.505  0.2655 -0.4276  0.0869
 1366SOL    HW1 4997   0.260   5.592   2.585 -0.0428 -0.7772 -0.1315
 1366SOL    HW2 4998   0.337   5.654   2.455 -0.0071 -1.5498 -0.4868
 1367SOL     OW 4999   4.550   0.196   3.165 -0.3329 -0.0987 -0.2218
 1367SOL    HW1 5000   4.499   0.190   3.079  0.7736 -0.6051 -0.8656
 1367SOL    HW2 5001   4.612   0.275   3.161 -1.9785  1.3191  1.0854
 1368SOL     OW 5002   3.907   3.045   2.762  0.1203 -0.3469  0.2810
 1368SOL    HW1 5003   3.909   3.009   2.669  0.4055  1.0357 -0.2760
 1368SOL    HW2 5004   3.833   3.002   2.813  0.6591 -1.9479 -0.2138
 1369SOL     OW 5005   2.764   4.012   1.059  0.4337 -0.2125  0.8161
 1369SOL    HW1 5006   2.750   3.984   0.964  1.6346 -1.5846  1.0184
 1369SOL    HW2 5007   2.753   4.112   1.066  2.4779  0.2384 -1.1810
 1370SOL     OW 5008   2.943   6.940   4.075  0.0005  0.0746 -0.2822
 1370SOL    HW1 5009   2.884   6.877   4.025  2.8776 -1.5074 -2.0249
 1370SOL    HW2 5010   2.999   6.991   4.009  2.2798 -0.3573  1.2090
 1371SOL     OW 5011   0.870   1.468   4.452 -0.5152 -0.1104  0.1607
 1371SOL    HW1 5012   0.942   1.404   4.425  1.1157  0.9451  1.7831
 1371SOL    HW2 5013   0.901   1.562   4.436 -0.1858  0.5056  3.7112
 1372SOL     OW 5014   3.304   2.907   2.670 -1.0359 -0.4378 -0.1896
 1372SOL    HW1 5015   3.279   2.943   2.580  0.9350  1.1579 -0.1850
 1372SOL    HW2 5016   3.402   2.883   2.670 -0.5584  1.2396  1.9711
 1373SOL     OW 5017   3.730   5.307   4.774  0.1130  0.1830 -0.5987
 1373SOL    HW1 5018   3.769   5.344   4.689  0.3320 -0.2960 -0.7116
 1373SOL    HW2 5019   3.799   5.251   4.820 -0.8003 -1.7653 -1.4647
 1374SOL     OW 5020   0.930   4.067   3.233 -0.1852 -0.0724  0.0032
 1374SOL    HW1 5021   0.984   4.106   3.307  0.0259 -1.0028  0.3514
 1374SOL    HW2 5022   0.990   4.033   3.161 -0.4076  1.9570 -1.2264
 1375SOL     OW 5023   6.664   6.902   3.394 -0.6296  0.3922  0.2456
 1375SOL    HW1 5024   6.733   6.894   3.466 -0.6912  0.3770  0.3035
 1375SOL    HW2 5025   6.705   6.884   3.305  0.1008  3.0471 -0.0520
 1376SOL     OW 5026   5.051   4.075   4.696  0.1490  0.2452  0.2576
 1376SOL    HW1 5027   5.055   4.063   4.795 -0.8741  0.6001  0.3601
 1376SOL    HW2 5028   5.021   3.989   4.653  1.0293 -0.0433  0.2074
 1377SOL     OW 5029   1.884   0.460   1.249  0.3964  0.0770  0.0853
 1377SOL    HW1 5030   1.860   0.409   1.332 -1.2048 -2.7016 -1.9163
 1377SOL    HW2 5031   1.970   0.425   1.212  0.0731 -0.1347 -0.4789
 1378SOL     OW 5032   0.988   4.957   0.649  0.3103 -0.4378  0.3490
 1378SOL    HW1 5033   1.083   4.957   0.677  0.2483  0.2912  0.5811
 1378SOL    HW2 5034   0.945   4.870   0.673  0.3437  0.0324  2.2032
 1379SOL     OW 5035   4.807   2.084   1.857 -0.2367 -0.7953  0.1182
 1379SOL    HW1 5036   4.872   2.147   1.898 -1.4987  1.0075 -0.5250
 1379SOL    HW2 5037   4.758   2.130   1.783 -1.7835 -2.2808  0.1455
 1380SOL     OW 5038   2.141   4.923   1.781  0.1169 -0.6151 -0.0097
 1380SOL    HW1 5039   2.052   4.951   1.745  0.5073 -1.3239 -1.5786
 1380SOL    HW2 5040   2.128   4.868   1.864 -0.8207  0.5769  0.6628
 1381SOL     OW 5041   6.795   6.386   3.812  0.1233 -0.1390 -0.6913
 1381SOL    HW1 5042   6.777   6.464   3.753  0.0524 -0.6672 -1.3801
 1381SOL    HW2 5043   6.856   6.321   3.765  2.6388  0.8648  0.9848
 1382SOL     OW 5044   4.078   4.315   0.124 -0.3187 -0.6505  0.0836
 1382SOL    HW1 5045   3.999   4.352   0.073 -0.7165 -0.4818  0.8144
 1382SOL    HW2 5046   4.046   4.252   0.194  0.2484 -1.0566 -0.0167
 1383SOL     OW 5047   4.268   1.792   2.299 -0.1820  0.2387 -0.0971
 1383SOL    HW1 5048   4.216   1.764   2.379  0.4242 -0.0218  0.2095
 1383SOL    HW2 5049   4.238   1.883   2.269 -1.5463 -0.3518 -0.5710
 1384SOL     OW 5050   2.514   5.988   4.784 -0.0096  0.3204 -0.1166
 1384SOL    HW1 5051   2.579   6.035   4.724  0.1834  0.3101  0.0812
 1384SOL    HW2 5052   2.565   5.930   4.848 -0.2710 -1.6306 -1.5552
 1385SOL     OW 5053   5.946   6.261   1.733  0.3287 -0.1555 -0.2448
 1385SOL    HW1 5054   6.027   6.280   1.788 -0.4180 -0.3978  0.9932
 1385SOL    HW2 5055   5.929   6.162   1.731 -0.1806 -0.0743 -0.1274
 1386SOL     OW 5056   0.769   1.333   4.062 -0.6283 -0.7107  0.1504
 1386SOL    HW1 5057   0.820   1.318   4.147  1.3091  0.6157 -0.7168
 1386SOL    HW2 5058   0.808   1.410   4.012 -2.7191 -0.4416 -1.2279
 1387SOL     OW 5059   0.690   0.232   2.384  0.2488  0.3157  0.6967
 1387SOL    HW1 5060   0.650   0.140   2.380 -0.6708  0.7553 -0.7660
 1387SOL    HW2 5061   0.779   0.227   2.430  1.1973 -1.6690 -1.1856
 1388SOL     OW 5062   5.725   1.156   0.721  0.1814  0.3046 -0.0314
 1388SOL    HW1 5063   5.771   1.183   0.636  1.6144 -0.2165  0.5403
 1388SOL    HW2 5064   5.718   1.235   0.782 -0.5401  0.6002 -0.4850
 1389SOL     OW 5065   2.130   0.123   5.812  0.0058 -0.7043 -0.6513
 1389SOL    HW1 5066   2.215   0.176   5.812 -0.2110 -0.3422 -0.2156
 1389SOL    HW2 5067   2.053   0.186   5.798 -0.4637 -0.5124  2.1420
 1390SOL     OW 5068   6.616   0.614   2.644  0.2644 -0.3641 -0.1295
 1390SOL    HW1 5069   6.525   0.601   2.685  0.4823  0.9456  0.8308
 1390SOL    HW2 5070   6.621   0.705   2.603  0.0832 -1.5575 -3.1256
 1391SOL     OW 5071   2.067   6.633   5.940 -0.4855 -0.1669  0.1774
 1391SOL    HW1 5072   2.076   6.674   5.850 -0.4440 -0.1451  0.1921
 1391SOL    HW2 5073   2.056   6.704   6.009 -2.2219 -0.2046 -0.0011
 1392SOL     OW 5074   2.723   0.644   4.917  0.3316  0.1758 -0.3646
 1392SOL    HW1 5075   2.793   0.701   4.959  1.5485 -0.1861 -1.7965
 1392SOL    HW2 5076   2.641   0.699   4.899  1.0757  1.2065 -0.7149
 1393SOL     OW 5077   5.764   4.202   4.130 -0.2106 -0.2872  0.5309
 1393SOL    HW1 5078   5.724   4.233   4.043 -1.0163  3.1406  1.9366
 1393SOL    HW2 5079   5.720   4.118   4.159 -0.4550 -1.1132 -1.9724
 1394SOL     OW 5080   0.712   5.797   2.895 -0.5223 -0.0353  0.2682
 1394SOL    HW1 5081   0.811   5.813   2.891 -0.4000 -0.4360  1.3127
 1394SOL    HW2 5082   0.682   5.753   2.810  0.1101  0.4862 -0.2422
 1395SOL     OW 5083   0.529   3.940   2.409  0.2180  0.0385 -0.1884
 1395SOL    HW1 5084   0.506   3.986   2.323  3.3221  1.9360 -0.1674
 1395SOL    HW2 5085   0.557   3.846   2.390 -1.6994 -0.4490 -0.8364
 1396SOL     OW 5086   4.025   4.705   1.865 -0.5062 -0.5594 -0.2724
 1396SOL    HW1 5087   3.989   4.648   1.792 -2.9283  1.9690 -1.2671
 1396SOL    HW2 5088   3.976   4.793   1.866  2.1020  1.0543  1.9186
 1397SOL     OW 5089   6.785   0.453   0.940  0.2790 -0.4352 -0.6465
 1397SOL    HW1 5090   6.758   0.430   1.034  1.1211  0.1671 -0.2490
 1397SOL    HW2 5091   6.703   0.474   0.887 -0.1460  0.2701  0.2448
 1398SOL     OW 5092   0.070   0.401   6.272 -0.1431 -0.3597 -0.3216
 1398SOL    HW1 5093   0.086   0.497   6.252  0.4806 -0.1953  0.8691
 1398SOL    HW2 5094  -0.028   0.385   6.283 -0.1692  0.4405  0.8057
 1399SOL     OW 5095   2.746   5.972   5.472 -0.0120 -0.4427  0.0865
 1399SOL    HW1 5096   2.782   5.919   5.549 -1.1639 -1.5831 -0.1234
 1399SOL    HW2 5097   2.766   6.069   5.486  0.5408 -0.7225  1.3937
 1400SOL     OW 5098   0.473   0.798   3.059  0.4616  0.8161 -0.4430
 1400SOL    HW1 5099   0.527   0.716   3.077  0.1414  0.7232  0.1224
 1400SOL    HW2 5100   0.527   0.879   3.083  0.1116  0.7014  0.8335
 1401SOL     OW 5101   0.340   6.711   4.169 -0.4749 -0.4768 -0.2102
 1401SOL    HW1 5102   0.394   6.795   4.165 -0.9464 -0.1971 -1.2274
 1401SOL    HW2 5103   0.243   6.734   4.182 -0.3544 -0.9836  1.9236
 1402SOL     OW 5104   3.458   6.882   4.586 -0.0754 -0.0084  0.0429
 1402SOL    HW1 5105   3.455   6.803   4.648 -1.5760 -0.1736 -0.1858
 1402SOL    HW2 5106   3.364   6.914   4.570  0.3011  0.1708 -1.9759
 1403SOL     OW 5107   1.060   6.959   3.913 -0.0292  0.3167  0.0034
 1403SOL    HW1 5108   1.067   6.926   4.008 -1.0938  1.3240  0.4491
 1403SOL    HW2 5109   1.148   6.945   3.867  0.2225 -1.0357  0.8529
 1404SOL     OW 5110   4.119   5.386   4.801 -0.1975 -0.3480 -0.5229
 1404SOL    HW1 5111   4.050   5.448   4.764  0.8608  1.0589 -0.2289
 1404SOL    HW2 5112   4.075   5.315   4.857 -1.3203  1.2886  0.7466
 1405SOL     OW 5113   0.889   4.000   2.055 -0.2482 -0.0869 -0.2517
 1405SOL    HW1 5114   0.925   4.085   2.093 -0.2040 -0.0105 -0.4629
 1405SOL    HW2 5115   0.949   3.968   1.981 -0.3215 -0.2450 -0.2445
 1406SOL     OW 5116   6.203   0.743   3.068 -0.2563  0.0938 -0.4063
 1406SOL    HW1 5117   6.194   0.801   2.988 -0.1336  2.0480  0.9136
 1406SOL    HW2 5118   6.296   0.708   3.074  0.9361  3.0985  0.8161
 1407SOL     OW 5119   2.793   4.735   6.504 -0.3111 -0.0761 -0.2091
 1407SOL    HW1 5120   2.811   4.813   6.564  0.6352 -0.5868  0.1959
 1407SOL    HW2 5121   2.719   4.680   6.542 -1.0828  0.6909 -0.5713
 1408SOL     OW 5122   6.864   5.438   5.668  0.0854 -0.1988 -0.2585
 1408SOL    HW1 5123   6.869   5.526   5.620 -0.7429 -0.0363 -0.0710
 1408SOL    HW2 5124   6.898   5.365   5.609 -0.5784  0.0515 -0.9562
 1409SOL     OW 5125   5.039   5.694   0.545 -1.1806 -0.0020  0.4204
 1409SOL    HW1 5126   5.055   5.792   0.556 -2.8679  0.3644 -0.1531
 1409SOL    HW2 5127   4.943   5.674   0.559 -1.5258 -1.0578 -2.6771
 1410SOL     OW 5128   3.671   5.004   2.980  0.3556 -0.4662 -0.0242
 1410SOL    HW1 5129   3.764   5.002   3.017 -0.0633 -0.1905  1.0798
 1410SOL    HW2 5130   3.605   5.000   3.055 -0.5285  0.5414 -0.7241
 1411SOL     OW 5131   3.882   0.088   5.651  0.6836  0.0881  0.3220
 1411SOL    HW1 5132   3.908   0.079   5.747 -0.7599 -1.4226  0.6195
 1411SOL    HW2 5133   3.832   0.174   5.638 -0.4091 -0.3680  1.2832
 1412SOL     OW 5134   4.044   4.765   0.813 -0.0058 -0.0318 -0.0049
 1412SOL    HW1 5135   4.045   4.674   0.853  1.6948  0.6067  1.5228
 1412SOL    HW2 5136   3.956   4.781   0.767  0.0981 -2.8539 -1.3708
 1413SOL     OW 5137   3.421   3.735   3.150 -0.2634 -0.1531  0.0195
 1413SOL    HW1 5138   3.348   3.781   3.200  0.4604 -1.1583  2.1472
 1413SOL    HW2 5139   3.504   3.790   3.154 -0.6481  0.5958 -1.6725
 1414SOL     OW 5140   2.035   0.620   0.045  0.1589 -0.1718 -0.2510
 1414SOL    HW1 5141   2.038   0.711   0.085 -2.2077  0.2321 -0.7920
 1414SOL    HW2 5142   2.055   0.626  -0.053  0.0496 -0.2189 -0.2771
 1415SOL     OW 5143   1.326   5.607   2.164  0.0718  0.0973 -0.3675
 1415SOL    HW1 5144   1.369   5.697   2.153  0.7320 -0.0879  0.5588
 1415SOL    HW2 5145   1.244   5.615   2.221 -0.0326  0.1586 -0.5270
 1416SOL     OW 5146   3.030   0.810   2.532  0.3198 -0.1787  0.0947
 1416SOL    HW1 5147   3.109   0.756   2.560  0.0857 -0.3902  0.3663
 1416SOL    HW2 5148   3.058   0.882   2.470  1.1674  1.4002  2.1770
 1417SOL     OW 5149   1.941   0.647   3.148  0.1582 -0.1325  0.5278
 1417SOL    HW1 5150   1.921   0.699   3.065 -0.5390 -1.8370 -0.4050
 1417SOL    HW2 5151   2.034   0.611   3.144  1.1366  2.0309  1.7690
 1418SOL     OW 5152   0.203   4.283   4.642 -0.1930 -0.2275 -0.2895
 1418SOL    HW1 5153   0.254   4.245   4.565 -2.3570 -1.3046 -1.2774
 1418SOL    HW2 5154   0.105   4.288   4.619 -0.5934  1.7874  1.4877
 1419SOL     OW 5155   3.492   0.841   5.797  0.8781 -0.0926 -0.7767
 1419SOL    HW1 5156   3.440   0.822   5.881  1.9572 -1.2601 -0.3336
 1419SOL    HW2 5157   3.473   0.769   5.730  1.6323 -0.3398 -0.7354
 1420SOL     OW 5158   2.644   5.207   5.949  0.2499  0.6809  0.0357
 1420SOL    HW1 5159   2.652   5.238   5.854 -1.4697 -0.4323 -0.5197
 1420SOL    HW2 5160   2.566   5.144   5.957  0.3048  0.8218  2.2132
 1421SOL     OW 5161   3.308   2.333   0.096 -0.3621 -0.2138 -0.4288
 1421SOL    HW1 5162   3.216   2.343   0.133 -0.1807  2.0144 -0.4111
 1421SOL    HW2 5163   3.305   2.277   0.013 -1.0832 -3.4774  1.6152
 1422SOL     OW 5164   2.588   4.458   0.395 -0.1503 -0.1900 -0.4832
 1422SOL    HW1 5165   2.559   4.366   0.370 -0.8294 -0.0257 -0.3132
 1422SOL    HW2 5166   2.687   4.467   0.381 -0.1847 -0.7397 -1.1185
 1423SOL     OW 5167   6.940   4.336   4.606 -0.1337 -0.0112  0.2365
 1423SOL    HW1 5168   6.878   4.325   4.684 -2.1546  1.0392 -1.1397
 1423SOL    HW2 5169   6.936   4.430   4.573  0.9102 -0.3640 -0.9677
 1424SOL     OW 5170   0.170   0.432   0.335 -0.3453  0.1838 -0.4649
 1424SOL    HW1 5171   0.226   0.413   0.255  0.1649 -1.8184  0.3106
 1424SOL    HW2 5172   0.082   0.385   0.326 -0.7588  0.9073 -0.3449
 1425SOL     OW 5173   3.902   1.922   6.760  0.4114 -0.1439 -0.1780
 1425SOL    HW1 5174   3.915   1.883   6.851  0.3947 -1.0660 -0.5543
 1425SOL    HW2 5175   3.943   2.012   6.756  0.8547 -0.3030  0.5967
 1426SOL     OW 5176   6.549   2.395   6.459  0.1467 -0.0665 -0.3424
 1426SOL    HW1 5177   6.547   2.425   6.363  1.4427  0.0581 -0.3589
 1426SOL    HW2 5178   6.603   2.460   6.513  1.3407 -1.2860  0.0050
 1427SOL     OW 5179   4.923   4.686   4.101  0.1777  0.0837  0.0830
 1427SOL    HW1 5180   4.848   4.670   4.038  0.9485 -2.7627 -0.2650
 1427SOL    HW2 5181   5.006   4.707   4.049  0.4443 -0.6247  0.2070
 1428SOL     OW 5182   5.648   2.533   3.907  0.6253  0.3202  0.0382
 1428SOL    HW1 5183   5.636   2.610   3.845  0.5437 -0.2331 -0.6559
 1428SOL    HW2 5184   5.563   2.481   3.913  0.9973 -0.3593 -0.3999
 1429SOL     OW 5185   3.274   0.294   0.945  0.2679 -0.2628 -0.6221
 1429SOL    HW1 5186   3.232   0.267   1.031  3.3733  1.0859  1.5114
 1429SOL    HW2 5187   3.263   0.393   0.931 -0.5767 -0.5199 -2.0917
 1430SOL     OW 5188   4.337   2.409   3.156 -0.1549  0.3522 -0.2403
 1430SOL    HW1 5189   4.419   2.466   3.165  0.6139 -0.9831  1.7992
 1430SOL    HW2 5190   4.305   2.412   3.061  2.7305  0.2535 -1.3064
 1431SOL     OW 5191   0.954   3.416   2.736  0.2351  0.1665  0.0330
 1431SOL    HW1 5192   0.931   3.464   2.651 -0.4663 -2.3296 -1.2601
 1431SOL    HW2 5193   1.032   3.462   2.779  0.9823  1.1934 -2.2444
 1432SOL     OW 5194   3.420   0.408   3.493 -0.0924  0.0951  0.1543
 1432SOL    HW1 5195   3.418   0.313   3.525 -0.6149  0.5951  1.6894
 1432SOL    HW2 5196   3.511   0.447   3.511  0.1854 -0.1466 -0.6542
 1433SOL     OW 5197   0.170   3.514   4.682 -0.0349  0.0459 -0.9126
 1433SOL    HW1 5198   0.175   3.525   4.583 -0.4081 -1.2536 -1.0953
 1433SOL    HW2 5199   0.237   3.446   4.712 -0.8954 -0.6445 -0.4777
 1434SOL     OW 5200   0.018   5.253   0.901  0.2106 -0.5845 -0.3904
 1434SOL    HW1 5201   0.082   5.328   0.886  0.5503 -0.4952  1.3896
 1434SOL    HW2 5202  -0.075   5.290   0.906  0.4221 -0.1962  0.9522
 1435SOL     OW 5203   5.646   2.826   6.321  0.1338 -0.7698 -0.0343
 1435SOL    HW1 5204   5.651   2.924   6.301  0.7729 -1.0567 -1.4381
 1435SOL    HW2 5205   5.688   2.808   6.409 -0.3433  0.2653  0.4258
 1436SOL     OW 5206   3.225   2.173   6.903  0.0041 -0.0113  0.1514
 1436SOL    HW1 5207   3.311   2.122   6.905 -0.0413 -0.0878  0.1662
 1436SOL    HW2 5208   3.158   2.127   6.961 -0.2296 -0.2810 -0.3283
 1437SOL     OW 5209   0.791   5.087   2.729 -0.5458  0.6295 -0.1453
 1437SOL    HW1 5210   0.829   5.177   2.751 -2.4385  1.1363  1.2274
 1437SOL    HW2 5211   0.758   5.043   2.812 -0.9650 -0.7395 -0.9963
 1438SOL     OW 5212   6.254   6.034   0.694  0.1681 -0.7153  0.2687
 1438SOL    HW1 5213   6.287   5.976   0.769  3.2779 -0.6568 -0.8986
 1438SOL    HW2 5214   6.250   5.980   0.610  1.5338  0.3149 -0.5023
 1439SOL     OW 5215   4.098   4.464   6.754  0.4515  0.1553  0.1959
 1439SOL    HW1 5216   4.181   4.458   6.810  0.1093  2.1264  0.9937
 1439SOL    HW2 5217   4.019   4.445   6.811  0.1549  1.3781  0.2144
 1440SOL     OW 5218   4.809   2.555   4.556  0.1235  0.0412  0.4011
 1440SOL    HW1 5219   4.907   2.546   4.575  0.3417 -1.6943 -1.3257
 1440SOL    HW2 5220   4.794   2.627   4.489  0.4287 -0.8730 -0.6723
 1441SOL     OW 5221   5.831   0.634   7.005  0.3065 -0.1361  0.0600
 1441SOL    HW1 5222   5.904   0.603   6.944  0.4797 -0.3530  0.3747
 1441SOL    HW2 5223   5.762   0.683   6.952  0.2761 -0.6334 -0.3719
 1442SOL     OW 5224   3.465   1.419   3.810  0.0145 -0.1078 -0.0578
 1442SOL    HW1 5225   3.392   1.483   3.834 -2.7762 -2.4230 -1.7772
 1442SOL    HW2 5226   3.498   1.374   3.894 -0.7302  0.7715  0.7297
 1443SOL     OW 5227   5.413   3.468   1.696 -0.3756 -0.1398  0.4981
 1443SOL    HW1 5228   5.368   3.545   1.651  0.4940  0.7125  1.0615
 1443SOL    HW2 5229   5.491   3.501   1.749 -0.9109 -1.2118  2.0148
 1444SOL     OW 5230   2.981   5.713   1.647 -0.6827 -0.1556 -0.1652
 1444SOL    HW1 5231   2.890   5.746   1.675 -0.1307  0.7244  0.6582
 1444SOL    HW2 5232   3.034   5.690   1.728  0.1499  0.2128 -0.5976
 1445SOL     OW 5233   4.935   2.907   6.725  0.0310  0.1977 -0.4682
 1445SOL    HW1 5234   4.936   2.977   6.797 -0.6122  0.3975 -0.6518
 1445SOL    HW2 5235   5.029   2.882   6.702  0.2554 -0.2756  0.8365
 1446SOL     OW 5236   5.586   5.418   2.792  0.5196 -0.1401  0.1702
 1446SOL    HW1 5237   5.622   5.508   2.768  1.2816 -0.4664  0.0599
 1446SOL    HW2 5238   5.521   5.388   2.723 -0.7744  0.9098  0.9055
 1447SOL     OW 5239   1.837   2.584   2.001  0.3248 -0.2869 -0.5480
 1447SOL    HW1 5240   1.876   2.520   2.067 -0.0836  1.0271  1.0232
 1447SOL    HW2 5241   1.877   2.674   2.014 -2.2139  0.8088  0.2205
 1448SOL     OW 5242   0.603   3.223   1.155 -0.0165 -0.0464  0.1135
 1448SOL    HW1 5243   0.582   3.313   1.192 -0.3773 -0.8326  1.9510
 1448SOL    HW2 5244   0.519   3.169   1.149  0.2591 -0.4078 -0.5564
 1449SOL     OW 5245   4.802   0.991   1.750  0.4291  0.2230 -0.3151
 1449SOL    HW1 5246   4.871   1.063   1.744  0.1074  0.5111 -0.6530
 1449SOL    HW2 5247   4.717   1.030   1.786  0.4614 -0.1445  0.1699
 1450SOL     OW 5248   5.582   1.081   5.969 -0.1233  0.2573  0.9058
 1450SOL    HW1 5249   5.531   1.004   6.005  0.3197 -0.5587 -0.1490
 1450SOL    HW2 5250   5.649   1.048   5.902 -2.2267  1.8044 -2.2219
 1451SOL     OW 5251   1.070   5.371   4.282 -0.3377  0.4254 -0.2072
 1451SOL    HW1 5252   1.111   5.462   4.285 -1.0792  0.7959 -0.8276
 1451SOL    HW2 5253   1.006   5.361   4.359 -0.1300  0.3661 -0.0418
 1452SOL     OW 5254   2.986   5.158   5.848 -0.4517  0.2224 -0.4475
 1452SOL    HW1 5255   3.027   5.190   5.763 -0.1267  0.8989 -0.0458
 1452SOL    HW2 5256   2.953   5.064   5.836  0.6349 -0.1047 -0.9655
 1453SOL     OW 5257   4.730   6.573   2.537 -0.2292  0.3709  0.1944
 1453SOL    HW1 5258   4.798   6.595   2.467 -0.1675 -1.6354 -0.4495
 1453SOL    HW2 5259   4.753   6.485   2.579 -2.0950 -0.0845  0.3444
 1454SOL     OW 5260   5.131   1.508   3.572 -0.4300  0.4466 -0.0685
 1454SOL    HW1 5261   5.217   1.542   3.609  0.0518 -0.2424 -0.5255
 1454SOL    HW2 5262   5.076   1.469   3.646  0.1445 -0.1275  0.0627
 1455SOL     OW 5263   6.884   5.725   0.307 -0.0138 -0.4548 -0.2850
 1455SOL    HW1 5264   6.785   5.733   0.320 -0.0273 -0.2253 -0.5315
 1455SOL    HW2 5265   6.914   5.636   0.341 -0.1086 -0.0325  0.9660
 1456SOL     OW 5266   2.584   3.191   6.756  0.5657  0.3550  0.0625
 1456SOL    HW1 5267   2.634   3.272   6.726 -0.7943  1.1681 -0.1139
 1456SOL    HW2 5268   2.636   3.109   6.732  0.6871  1.0571 -2.3650
 1457SOL     OW 5269   5.346   3.083   5.291 -0.0941  0.0276 -0.1028
 1457SOL    HW1 5270   5.399   3.138   5.227 -0.2122  0.7015  0.3682
 1457SOL    HW2 5271   5.401   3.006   5.323  0.8210  1.0237  0.8147
 1458SOL     OW 5272   0.872   3.926   4.398  0.0197  0.2834 -0.4220
 1458SOL    HW1 5273   0.934   3.862   4.352  0.7269 -0.5830  1.5967
 1458SOL    HW2 5274   0.808   3.874   4.455  1.2934  1.3195  2.1105
 1459SOL     OW 5275   1.726   5.822   4.117  0.3796  0.0014  0.5003
 1459SOL    HW1 5276   1.811   5.825   4.064 -0.5179  0.9209 -0.9512
 1459SOL    HW2 5277   1.702   5.727   4.136  1.0003 -0.3312 -0.3023
 1460SOL     OW 5278   6.214   6.031   0.987 -0.0963  0.0482 -0.5166
 1460SOL    HW1 5279   6.310   6.041   0.962 -0.4258 -0.2073 -1.9657
 1460SOL    HW2 5280   6.180   6.118   1.023 -0.0331  1.0225 -2.6490
 1461SOL     OW 5281   0.426   2.935   1.948  0.4842  0.2108 -0.0399
 1461SOL    HW1 5282   0.339   2.887   1.939  1.5661 -1.7374 -0.6567
 1461SOL    HW2 5283   0.409   3.033   1.959 -1.7582 -0.0084 -1.0075
 1462SOL     OW 5284   2.244   6.306   0.444 -0.0547 -0.1783 -0.5314
 1462SOL    HW1 5285   2.199   6.313   0.355 -1.0857 -1.4452 -0.1419
 1462SOL    HW2 5286   2.331   6.259   0.434 -1.3518 -2.7581 -0.5685
 1463SOL     OW 5287   5.208   3.360   4.641 -0.4658  0.1695  0.0058
 1463SOL    HW1 5288   5.207   3.454   4.608 -1.5695  0.7138  1.4614
 1463SOL    HW2 5289   5.115   3.323   4.638 -0.4316 -0.0901  1.5423
 1464SOL     OW 5290   6.448   1.392   1.409  0.2341  0.0688 -0.3444
 1464SOL    HW1 5291   6.528   1.338   1.437  0.6246  0.0087 -1.4909
 1464SOL    HW2 5292   6.379   1.332   1.371  0.1164  0.2379 -0.3979
 1465SOL     OW 5293   3.996   3.881   4.129  0.3120 -0.0417 -0.0198
 1465SOL    HW1 5294   4.019   3.802   4.186  1.0738 -0.0889 -0.3828
 1465SOL    HW2 5295   3.956   3.953   4.186 -0.6875 -0.8022  0.2648
 1466SOL     OW 5296   1.954   2.834   2.563  0.3187 -0.2312  0.1225
 1466SOL    HW1 5297   1.903   2.774   2.625  0.5677 -0.5306  0.0366
 1466SOL    HW2 5298   1.896   2.912   2.539 -0.1720 -0.6566 -0.1178
 1467SOL     OW 5299   4.975   6.624   5.595  0.2118 -0.5934  0.7311
 1467SOL    HW1 5300   4.886   6.612   5.639  0.4742 -3.5046  0.6359
 1467SOL    HW2 5301   4.978   6.570   5.511  1.9408 -0.2646  0.5503
 1468SOL     OW 5302   4.720   1.191   5.204  0.3262  0.3258 -0.6651
 1468SOL    HW1 5303   4.672   1.112   5.165 -2.3838  0.7310  1.5083
 1468SOL    HW2 5304   4.746   1.171   5.299  1.6345  1.2640 -0.8055
 1469SOL     OW 5305   3.404   0.408   1.246 -0.5607 -0.7381 -0.2052
 1469SOL    HW1 5306   3.490   0.391   1.293  0.2204  0.3986 -1.1679
 1469SOL    HW2 5307   3.416   0.395   1.147 -0.6598  2.2069 -0.6893
 1470SOL     OW 5308   0.767   5.389   2.243 -0.1205  1.4868  0.3211
 1470SOL    HW1 5309   0.701   5.355   2.175  1.4893 -0.5380 -0.3145
 1470SOL    HW2 5310   0.762   5.333   2.325  1.0663  1.0326  0.1049
 1471SOL     OW 5311   6.909   6.314   1.645  0.1486 -0.0185  0.6173
 1471SOL    HW1 5312   6.991   6.277   1.602  1.0397  1.9037  0.5726
 1471SOL    HW2 5313   6.840   6.242   1.653  1.2586 -1.2933 -0.7676
 1472SOL     OW 5314   2.825   0.595   1.899  0.3452 -0.0600 -0.0830
 1472SOL    HW1 5315   2.854   0.518   1.843  0.6935  0.7538 -1.0584
 1472SOL    HW2 5316   2.901   0.623   1.959  0.3338 -0.2528  0.0223
 1473SOL     OW 5317   5.181   6.320   4.447  0.4970 -0.5123  0.2068
 1473SOL    HW1 5318   5.173   6.418   4.426 -3.2983 -0.9299 -1.1597
 1473SOL    HW2 5319   5.244   6.277   4.383 -0.3734  0.5481 -1.4307
 1474SOL     OW 5320   5.731   1.304   2.573  0.1403 -0.2458  0.4457
 1474SOL    HW1 5321   5.744   1.226   2.512 -0.2981  0.6207 -0.8123
 1474SOL    HW2 5322   5.819   1.345   2.595  0.2859 -0.4372  0.2209
 1475SOL     OW 5323   2.401   5.840   6.200 -0.1236  0.4340  0.1768
 1475SOL    HW1 5324   2.442   5.765   6.252 -0.2101 -0.9035 -1.5880
 1475SOL    HW2 5325   2.322   5.875   6.250  0.4023 -0.0885  1.4207
 1476SOL     OW 5326   1.351   4.096   0.882 -0.1115 -0.0553  0.3393
 1476SOL    HW1 5327   1.437   4.053   0.858  0.1912  0.1259  1.0670
 1476SOL    HW2 5328   1.307   4.132   0.800  0.6910  0.1848  0.0102
 1477SOL     OW 5329   6.175   1.124   3.638  0.0498  0.2890 -0.0161
 1477SOL    HW1 5330   6.147   1.220   3.642  0.3763  0.3784  0.1290
 1477SOL    HW2 5331   6.224   1.100   3.721 -1.1953 -0.3735  0.5675
 1478SOL     OW 5332   7.017   6.521   1.796  0.0360 -0.4624 -0.4375
 1478SOL    HW1 5333   6.959   6.475   1.729  1.3235 -0.5528 -1.5397
 1478SOL    HW2 5334   7.031   6.460   1.875 -0.2901 -0.9623 -0.7580
 1479SOL     OW 5335   1.189   1.279   4.150  0.1557  0.8271 -0.2717
 1479SOL    HW1 5336   1.133   1.277   4.233 -1.8317  0.3495 -1.5440
 1479SOL    HW2 5337   1.200   1.373   4.119 -1.6743  0.8479 -1.0312
 1480SOL     OW 5338   2.001   4.300   1.193 -0.6360 -0.0842  0.6358
 1480SOL    HW1 5339   2.095   4.318   1.221  0.0914 -2.7995  0.2407
 1480SOL    HW2 5340   1.939   4.319   1.269  0.2715  1.1026  1.1130
 1481SOL     OW 5341   1.837   0.064   4.979  0.2319 -1.0373  0.3637
 1481SOL    HW1 5342   1.745   0.086   4.946  0.3921 -1.0337 -0.0915
 1481SOL    HW2 5343   1.896   0.144   4.969  0.2069 -0.9425  0.9495
 1482SOL     OW 5344   4.288   3.240   0.720 -0.6672 -0.1825 -0.3279
 1482SOL    HW1 5345   4.316   3.263   0.627 -2.1749  2.4587 -0.2375
 1482SOL    HW2 5346   4.354   3.177   0.760  2.7502  2.3145 -1.5432
 1483SOL     OW 5347   5.999   3.215   1.718 -0.6737  0.4364 -0.0832
 1483SOL    HW1 5348   5.916   3.159   1.716 -1.6071  1.7710 -0.0633
 1483SOL    HW2 5349   6.005   3.263   1.806  0.4530 -0.1055  0.1555
 1484SOL     OW 5350   3.780   5.429   5.801  0.5057 -0.1932  0.1226
 1484SOL    HW1 5351   3.791   5.423   5.900  0.7918  1.0021  0.1769
 1484SOL    HW2 5352   3.858   5.478   5.762  0.1289 -0.1773 -0.6235
 1485SOL     OW 5353   6.899   5.271   3.699  1.2376  0.1913  0.2675
 1485SOL    HW1 5354   6.908   5.307   3.606 -1.5074 -0.4431 -0.3420
 1485SOL    HW2 5355   6.883   5.173   3.695 -1.2616  0.4936  1.1608
 1486SOL     OW 5356   3.929   4.720   6.900 -1.0980 -0.7074 -0.1668
 1486SOL    HW1 5357   3.864   4.795   6.912 -0.2999 -0.0161 -0.0160
 1486SOL    HW2 5358   3.888   4.649   6.843 -1.5537  0.2728 -1.1136
 1487SOL     OW 5359   3.954   4.998   5.303  0.0523 -0.1312 -0.3261
 1487SOL    HW1 5360   4.005   4.946   5.235  1.3842 -1.1209  1.3516
 1487SOL    HW2 5361   4.004   5.081   5.327 -0.1702 -0.0265 -0.2220
 1488SOL     OW 5362   1.136   2.717   5.908  0.3120  0.4027 -0.2584
 1488SOL    HW1 5363   1.198   2.772   5.964 -0.4215  0.4671  0.4998
 1488SOL    HW2 5364   1.124   2.627   5.949 -0.1480  0.4109 -0.3695
 1489SOL     OW 5365   3.554   5.270   0.048 -0.2367 -0.0982  0.5750
 1489SOL    HW1 5366   3.617   5.333   0.003 -1.7436  0.6983 -0.4809
 1489SOL    HW2 5367   3.606   5.194   0.088  1.5663  1.5303  1.4601
 1490SOL     OW 5368   3.064   5.907   3.766  0.3029  0.4596  0.2330
 1490SOL    HW1 5369   3.080   5.818   3.723 -0.2639  0.7510 -0.5960
 1490SOL    HW2 5370   3.044   5.976   3.696 -1.4238  0.7834  0.9782
 1491SOL     OW 5371   4.288   2.224   1.243 -0.6977  0.1252  0.2965
 1491SOL    HW1 5372   4.243   2.268   1.321 -1.2179  1.9580 -0.9610
 1491SOL    HW2 5373   4.381   2.198   1.268 -1.5877 -1.4735  2.1897
 1492SOL     OW 5374   5.921   4.317   0.983  0.3856 -0.1750  0.0443
 1492SOL    HW1 5375   5.909   4.234   0.928 -0.9310 -0.2322  0.3763
 1492SOL    HW2 5376   5.960   4.292   1.072  2.7501 -0.0516 -0.8968
 1493SOL     OW 5377   4.790   2.102   4.239  0.2353 -0.1993 -0.0100
 1493SOL    HW1 5378   4.830   2.158   4.311  1.1327 -0.2700 -0.4431
 1493SOL    HW2 5379   4.831   2.011   4.240  1.0985  0.1462 -1.3208
 1494SOL     OW 5380   0.113   4.717   3.126  0.3794 -0.5822 -0.1669
 1494SOL    HW1 5381   0.208   4.734   3.152  0.8719  0.1068 -2.2277
 1494SOL    HW2 5382   0.086   4.781   3.054 -1.3990 -1.2785 -0.1614
 1495SOL     OW 5383   1.143   6.822   6.616  0.0716 -0.1499  0.1759
 1495SOL    HW1 5384   1.220   6.867   6.571 -1.2584  0.9379 -1.1572
 1495SOL    HW2 5385   1.174   6.776   6.699  2.5931 -1.9424 -1.6184
 1496SOL     OW 5386   1.786   5.700   4.872 -0.6788 -0.1847  0.2194
 1496SOL    HW1 5387   1.765   5.683   4.776  0.0940 -1.4892  0.2709
 1496SOL    HW2 5388   1.793   5.614   4.921  2.8876  0.1649  0.5953
 1497SOL     OW 5389   2.353   6.488   1.462 -0.0637 -0.2590 -0.1140
 1497SOL    HW1 5390   2.306   6.400   1.463 -0.1165 -0.2273  0.0942
 1497SOL    HW2 5391   2.364   6.521   1.555  0.0652 -0.1026 -0.1849
 1498SOL     OW 5392   4.086   1.007   0.390 -0.3120 -0.2494 -0.3880
 1498SOL    HW1 5393   4.137   1.087   0.421  1.4301 -2.3448  2.7269
 1498SOL    HW2 5394   3.991   1.013   0.422  0.1755 -0.0274  1.0885
 1499SOL     OW 5395   5.940   0.522   5.625  0.1870  0.3831 -0.0435
 1499SOL    HW1 5396   5.895   0.528   5.536  1.0317 -0.2806 -0.5312
 1499SOL    HW2 5397   5.890   0.577   5.691  0.1473  1.7818 -1.1759
 1500SOL     OW 5398   4.459   4.598   4.561  0.0414  0.3524 -0.3897
 1500SOL    HW1 5399   4.411   4.609   4.648  1.6914  2.6480  0.3059
 1500SOL    HW2 5400   4.516   4.516   4.566 -2.2616 -1.3839 -0.5804
 1501SOL     OW 5401   5.403   3.338   2.330 -0.1225 -0.7677 -0.4740
 1501SOL    HW1 5402   5.460   3.323   2.250  0.3076 -0.2952 -0.2602
 1501SOL    HW2 5403   5.387   3.436   2.343  0.9696 -0.7239  0.7989
 1502SOL     OW 5404   4.279   2.669   5.664  0.0826 -0.3593  0.1882
 1502SOL    HW1 5405   4.192   2.623   5.645  0.3711 -0.6996 -0.3364
 1502SOL    HW2 5406   4.267   2.768   5.658 -0.1144 -0.4214 -0.6034
 1503SOL     OW 5407   5.265   5.694   4.095 -0.6525 -0.0463  0.0841
 1503SOL    HW1 5408   5.334   5.631   4.133 -0.2387  0.5515  0.3430
 1503SOL    HW2 5409   5.229   5.656   4.010  1.2014  0.3967 -0.9392
 1504SOL     OW 5410   4.622   4.370   4.625  0.1956 -0.5732  0.2236
 1504SOL    HW1 5411   4.719   4.348   4.623  0.6123  1.0885  0.6549
 1504SOL    HW2 5412   4.589   4.373   4.719  0.0026 -0.0876  0.1493
 1505SOL     OW 5413   4.516   2.534   4.452  0.0370  0.0272 -0.3466
 1505SOL    HW1 5414   4.578   2.602   4.412 -0.3104  0.6567  0.1715
 1505SOL    HW2 5415   4.495   2.559   4.546 -0.5803 -0.4680 -0.3451
 1506SOL     OW 5416   3.017   5.559   2.892 -0.0729 -0.8466  0.0789
 1506SOL    HW1 5417   2.963   5.515   2.820 -1.6856 -0.7780  1.1999
 1506SOL    HW2 5418   3.048   5.490   2.957 -0.1886 -0.6828  0.3083
 1507SOL     OW 5419   6.042   3.370   2.313  0.2007 -0.0942 -0.3823
 1507SOL    HW1 5420   6.092   3.457   2.307  0.4102 -0.3106 -2.2805
 1507SOL    HW2 5421   6.106   3.295   2.326  0.0631 -0.0325  0.7125
 1508SOL     OW 5422   0.861   5.375   3.400 -0.2776  0.2037  0.3743
 1508SOL    HW1 5423   0.770   5.407   3.427 -0.0240  0.3634  1.0763
 1508SOL    HW2 5424   0.852   5.295   3.341 -0.8748  0.1654  0.5106
 1509SOL     OW 5425   6.267   1.972   4.511 -0.2580  0.4082 -0.4039
 1509SOL    HW1 5426   6.349   1.915   4.504 -0.1692  0.4862 -0.0723
 1509SOL    HW2 5427   6.263   2.035   4.434  0.1336  0.5775 -0.2879
 1510SOL     OW 5428   3.983   0.973   5.530 -0.0681 -0.3704 -0.5062
 1510SOL    HW1 5429   3.910   0.937   5.589  0.0135 -0.2451 -0.3301
 1510SOL    HW2 5430   4.022   1.055   5.571 -1.1567  0.7095 -1.5388
 1511SOL     OW 5431   0.731   1.724   5.353 -0.2015 -0.0164  0.3348
 1511SOL    HW1 5432   0.707   1.627   5.355  0.1097 -0.0940  0.4213
 1511SOL    HW2 5433   0.773   1.746   5.264  0.0347 -0.0367  0.4414
 1512SOL     OW 5434   1.038   5.852   1.032  0.5345 -0.2826 -0.3503
 1512SOL    HW1 5435   0.975   5.855   1.109  0.1228  0.3331 -0.7066
 1512SOL    HW2 5436   1.003   5.908   0.957  0.6232 -1.3567 -1.2283
 1513SOL     OW 5437   3.943   5.392   6.325 -0.2585 -0.1067 -0.4335
 1513SOL    HW1 5438   3.858   5.413   6.374  0.3612  2.1606 -0.2178
 1513SOL    HW2 5439   3.924   5.332   6.248 -2.0569  0.3249 -0.3577
 1514SOL     OW 5440   3.005   5.923   2.743  0.1771 -0.1636 -0.2932
 1514SOL    HW1 5441   2.910   5.931   2.774  0.7455  1.6229  1.1526
 1514SOL    HW2 5442   3.056   5.864   2.806  0.1759 -0.6829 -0.7650
 1515SOL     OW 5443   0.149   6.829   2.526 -0.2670  0.8204 -0.1676
 1515SOL    HW1 5444   0.083   6.755   2.542  1.7092 -0.9133  0.3808
 1515SOL    HW2 5445   0.234   6.791   2.490  0.9965  2.7633  0.5808
 1516SOL     OW 5446   6.956   6.556   6.826  0.2767 -0.2083 -0.5853
 1516SOL    HW1 5447   6.989   6.522   6.738 -0.2204  0.0466 -0.8683
 1516SOL    HW2 5448   6.911   6.482   6.876  1.9147 -0.7813  0.1445
 1517SOL     OW 5449   1.641   3.705   4.786  0.5386 -0.4663 -0.1225
 1517SOL    HW1 5450   1.706   3.697   4.862  2.3674 -0.7760 -1.6383
 1517SOL    HW2 5451   1.557   3.656   4.809  0.7083  0.1417  2.0087
 1518SOL     OW 5452   1.121   0.690   3.677 -0.2097  0.3550 -0.0095
 1518SOL    HW1 5453   1.133   0.631   3.757  1.2067  0.2705 -0.2686
 1518SOL    HW2 5454   1.203   0.689   3.621 -1.1312  0.5113 -1.4301
 1519SOL     OW 5455   4.801   1.467   5.817  0.3522 -0.4312  0.6236
 1519SOL    HW1 5456   4.703   1.475   5.831  0.4835 -1.3651  2.4572
 1519SOL    HW2 5457   4.820   1.448   5.721 -1.3336 -1.2192  0.4081
 1520SOL     OW 5458   4.801   4.264   4.855  0.0737 -0.2077  0.1408
 1520SOL    HW1 5459   4.779   4.167   4.849 -1.7195  0.2200 -0.8657
 1520SOL    HW2 5460   4.815   4.301   4.763  0.7901  0.4982  0.5185
 1521SOL     OW 5461   0.720   4.743   5.623  0.1395  0.0866  0.3122
 1521SOL    HW1 5462   0.742   4.755   5.526  0.9950  0.1009  0.4972
 1521SOL    HW2 5463   0.799   4.769   5.678 -1.2739  3.0174  1.1825
 1522SOL     OW 5464   6.466   1.855   2.633  0.0988 -0.8575  0.0118
 1522SOL    HW1 5465   6.501   1.934   2.582 -0.8050 -0.7420 -0.4561
 1522SOL    HW2 5466   6.423   1.791   2.569  0.0598 -1.3171  0.4952
 1523SOL     OW 5467   5.925   5.071   1.809 -0.2141  0.3434 -0.1326
 1523SOL    HW1 5468   6.012   5.088   1.762 -0.4807  0.7950 -0.4608
 1523SOL    HW2 5469   5.881   5.158   1.830 -0.6589  0.1086 -0.0951
 1524SOL     OW 5470   4.522   4.389   5.506 -0.3097  0.0454 -0.2349
 1524SOL    HW1 5471   4.481   4.356   5.591 -1.9416  0.9152 -0.6376
 1524SOL    HW2 5472   4.601   4.333   5.483 -0.3443 -0.7347  1.4065
 1525SOL     OW 5473   2.316   0.224   1.808 -0.4388 -0.0716 -0.2460
 1525SOL    HW1 5474   2.297   0.139   1.858 -1.4111  0.6639  0.6803
 1525SOL    HW2 5475   2.249   0.294   1.834  0.7441  1.1915 -0.4773
 1526SOL     OW 5476   3.818   6.685   3.634 -0.2566  0.4874  0.3746
 1526SOL    HW1 5477   3.736   6.719   3.680 -1.1305 -2.1001  0.9123
 1526SOL    HW2 5478   3.808   6.587   3.616  1.8338  0.5321 -1.5535
 1527SOL     OW 5479   1.118   6.515   2.932 -0.6993  0.2737  0.1795
 1527SOL    HW1 5480   1.056   6.494   3.008 -0.6602 -0.2492  0.0675
 1527SOL    HW2 5481   1.116   6.614   2.914  0.9704  0.7986  2.3378
 1528SOL     OW 5482   4.282   6.798   3.600  0.6720  0.4302 -0.6240
 1528SOL    HW1 5483   4.322   6.776   3.689 -0.8336  1.3349  0.3115
 1528SOL    HW2 5484   4.351   6.841   3.542  1.9163 -0.9508 -0.2373
 1529SOL     OW 5485   1.780   4.768   6.813  0.0645  0.4966  0.5131
 1529SOL    HW1 5486   1.869   4.809   6.832 -0.1535  0.7226  1.0528
 1529SOL    HW2 5487   1.781   4.729   6.721  0.5099  1.0652  0.2717
 1530SOL     OW 5488   3.917   5.102   6.396  0.2390  0.4321  0.0899
 1530SOL    HW1 5489   3.925   5.086   6.495 -0.4917  1.4250  0.3240
 1530SOL    HW2 5490   3.832   5.152   6.377  1.0557  1.5114 -0.8846
 1531SOL     OW 5491   1.284   5.890   6.762  0.4590 -0.0208 -0.0693
 1531SOL    HW1 5492   1.272   5.839   6.847  1.8335 -0.7325 -0.2731
 1531SOL    HW2 5493   1.304   5.985   6.782  0.4114 -0.1087  0.3893
 1532SOL     OW 5494   0.422   6.942   5.347  0.2237  0.3600  0.1838
 1532SOL    HW1 5495   0.494   6.926   5.279 -0.1611 -1.0275  0.0627
 1532SOL    HW2 5496   0.457   7.000   5.420  1.4629 -0.2577  0.1027
 1533SOL     OW 5497   5.120   3.129   6.400  0.1875  0.1159  0.3439
 1533SOL    HW1 5498   5.094   3.136   6.304 -0.6380 -1.8906  0.3646
 1533SOL    HW2 5499   5.159   3.038   6.417  0.0815  0.3411  1.9594
 1534SOL     OW 5500   3.222   1.479   3.396 -0.4115 -0.0180 -0.6374
 1534SOL    HW1 5501   3.269   1.423   3.328 -2.2396  0.2498 -2.2001
 1534SOL    HW2 5502   3.220   1.574   3.365  1.5589  0.7930  1.3973
 1535SOL     OW 5503   0.061   1.600   4.045 -0.2542  0.1366 -0.0894
 1535SOL    HW1 5504   0.008   1.664   3.989 -0.0880  1.1846  0.9191
 1535SOL    HW2 5505   0.089   1.645   4.130 -0.9709 -1.5732  1.1020
 1536SOL     OW 5506   6.400   4.613   4.401 -0.3305  0.1605 -0.2728
 1536SOL    HW1 5507   6.308   4.643   4.425 -0.8485 -0.5685 -1.2673
 1536SOL    HW2 5508   6.406   4.597   4.303  1.3923  1.9300 -0.5222
 1537SOL     OW 5509   5.767   0.241   6.056 -0.1167 -0.2540 -0.0805
 1537SOL    HW1 5510   5.860   0.207   6.070 -0.3036 -0.7743 -0.0418
 1537SOL    HW2 5511   5.750   0.318   6.118  1.0267  1.3514 -1.6718
 1538SOL     OW 5512   2.972   0.369   2.937  0.3994  0.5954  0.6177
 1538SOL    HW1 5513   3.006   0.295   2.995  0.4246 -0.9181 -1.2337
 1538SOL    HW2 5514   2.891   0.410   2.980  1.6207  0.9913  2.7072
 1539SOL     OW 5515   0.884   2.330   6.579 -0.1275  0.2303 -0.5780
 1539SOL    HW1 5516   0.824   2.265   6.533 -0.3563  0.1523 -0.1744
 1539SOL    HW2 5517   0.852   2.344   6.673  1.1978 -0.7669  0.0544
 1540SOL     OW 5518   0.460   2.046   0.451  0.2617  0.0564  0.2936
 1540SOL    HW1 5519   0.555   2.076   0.454 -0.2738  1.8009  0.9286
 1540SOL    HW2 5520   0.440   1.989   0.530  1.2313 -1.9140 -0.8044
 1541SOL     OW 5521   0.193   6.399   5.986  0.2786 -0.0144  0.0797
 1541SOL    HW1 5522   0.180   6.302   5.968 -0.1619 -0.0084  0.3366
 1541SOL    HW2 5523   0.278   6.413   6.037  0.5473 -0.2217 -0.3090
 1542SOL     OW 5524   6.956   5.579   6.101  0.3152 -0.0705  0.8531
 1542SOL    HW1 5525   7.013   5.527   6.036  0.4632  1.0303  0.0699
 1542SOL    HW2 5526   6.886   5.519   6.139 -0.1054 -0.6287 -0.7298
 1543SOL     OW 5527   4.900   3.496   3.174 -0.3135 -0.1958  0.1000
 1543SOL    HW1 5528   4.887   3.593   3.150 -0.6380 -0.2210  0.1660
 1543SOL    HW2 5529   4.884   3.440   3.093 -2.2763 -0.3437  0.5404
 1544SOL     OW 5530   1.674   6.271   4.253 -0.3485  0.2407  0.3639
 1544SOL    HW1 5531   1.667   6.258   4.154  1.5972 -0.2203  0.2374
 1544SOL    HW2 5532   1.648   6.187   4.299  0.6553 -0.2085  0.1309
 1545SOL     OW 5533   2.021   1.895   5.865 -0.0432  0.3470 -0.3876
 1545SOL    HW1 5534   2.116   1.905   5.834 -0.4071 -0.1914 -1.6974
 1545SOL    HW2 5535   1.959   1.928   5.795 -0.8713 -0.2032  0.0725
 1546SOL     OW 5536   4.210   4.536   1.556  0.4395  0.2018 -0.3633
 1546SOL    HW1 5537   4.234   4.589   1.475 -0.8364  0.0282 -0.8743
 1546SOL    HW2 5538   4.136   4.473   1.534  1.4000 -1.2628  0.4353
 1547SOL     OW 5539   6.501   0.742   1.830 -0.5147  0.5379 -0.3321
 1547SOL    HW1 5540   6.503   0.780   1.738 -0.2394 -2.0463 -1.4680
 1547SOL    HW2 5541   6.589   0.757   1.875 -0.5478  1.5323 -0.5842
 1548SOL     OW 5542   3.216   4.745   5.815 -0.3467 -0.1192  0.3028
 1548SOL    HW1 5543   3.308   4.777   5.836 -0.4539 -0.3265  1.1119
 1548SOL    HW2 5544   3.212   4.646   5.826 -0.7484 -0.0730  0.5844
 1549SOL     OW 5545   0.955   3.865   6.927 -0.0362  0.3604  0.0676
 1549SOL    HW1 5546   0.943   3.820   7.016  0.6789 -0.7156 -0.3667
 1549SOL    HW2 5547   1.051   3.860   6.900  0.0960  2.2473  0.0262
 1550SOL     OW 5548   6.631   5.884   2.180 -0.0623 -0.0920 -0.4326
 1550SOL    HW1 5549   6.702   5.948   2.209 -1.2313  0.8516  0.4672
 1550SOL    HW2 5550   6.628   5.806   2.242  0.9655 -0.7559 -1.1821
 1551SOL     OW 5551   1.135   1.319   5.869  0.3267 -0.3694 -0.0482
 1551SOL    HW1 5552   1.058   1.288   5.925 -2.0106  2.8788 -1.1439
 1551SOL    HW2 5553   1.164   1.410   5.899  2.6647 -0.8096 -0.7765
 1552SOL     OW 5554   6.945   6.107   1.017 -0.1184 -0.0898 -0.4720
 1552SOL    HW1 5555   6.866   6.155   1.054 -0.2179 -0.7490  0.2041
 1552SOL    HW2 5556   6.967   6.028   1.075  1.9847  0.9522  0.2664
 1553SOL     OW 5557   5.643   1.069   3.757  0.5822 -0.8474 -0.3443
 1553SOL    HW1 5558   5.672   1.022   3.840  1.8797  3.2779  1.8233
 1553SOL    HW2 5559   5.717   1.066   3.690  1.2815 -0.6118  0.3930
 1554SOL     OW 5560   0.162   2.815   1.480 -0.1627  0.0951 -0.5821
 1554SOL    HW1 5561   0.104   2.834   1.401 -1.0241 -1.4026 -0.3583
 1554SOL    HW2 5562   0.258   2.825   1.455 -0.4830  1.7586 -1.2042
 1555SOL     OW 5563   1.228   3.100   6.840 -0.0663 -0.3501 -0.6372
 1555SOL    HW1 5564   1.288   3.173   6.807  1.0506 -0.4606  1.0074
 1555SOL    HW2 5565   1.279   3.014   6.841 -0.7550 -0.7583 -0.6903
 1556SOL     OW 5566   5.021   3.327   4.115 -0.0247  0.1541 -0.2174
 1556SOL    HW1 5567   5.078   3.311   4.196  0.7703  0.7775 -0.6400
 1556SOL    HW2 5568   4.951   3.395   4.136 -0.4196 -0.3823  0.2159
 1557SOL     OW 5569   6.609   6.366   0.848 -0.2317  0.4127 -0.4298
 1557SOL    HW1 5570   6.599   6.314   0.763 -3.0842 -0.5841  0.4057
 1557SOL    HW2 5571   6.559   6.453   0.839 -1.6343 -0.2490  0.5768
 1558SOL     OW 5572   1.680   0.444   0.295  0.3957 -0.4122  0.4310
 1558SOL    HW1 5573   1.594   0.487   0.269 -0.8805 -3.1266 -0.1796
 1558SOL    HW2 5574   1.746   0.453   0.220 -0.2500 -0.5038 -0.1553
 1559SOL     OW 5575   4.571   5.151   6.958 -0.2625  0.0788 -0.7462
 1559SOL    HW1 5576   4.484   5.164   6.910  0.2216  1.1524 -1.3704
 1559SOL    HW2 5577   4.646   5.161   6.893  0.3262 -1.8637 -0.4375
 1560SOL     OW 5578   3.182   3.478   3.699 -0.3896  0.1123  0.4993
 1560SOL    HW1 5579   3.248   3.549   3.675  1.9763 -1.4549  1.9514
 1560SOL    HW2 5580   3.163   3.421   3.619  2.8368 -1.5227  0.7632
 1561SOL     OW 5581   4.432   0.096   4.013 -0.1606  0.1782  0.5952
 1561SOL    HW1 5582   4.405   0.001   3.997  0.2337  0.1608 -0.0164
 1561SOL    HW2 5583   4.404   0.152   3.935  0.0800  0.4645  0.7139
 1562SOL     OW 5584   4.583   5.053   6.052  0.7936 -0.5153 -0.0107
 1562SOL    HW1 5585   4.618   5.102   5.972  0.8275  0.2526  0.4604
 1562SOL    HW2 5586   4.647   4.980   6.076  0.8247 -0.6975 -0.6276
 1563SOL     OW 5587   1.074   1.207   6.851 -0.3983  0.3217  0.0065
 1563SOL    HW1 5588   1.083   1.202   6.752  0.0740  0.7342  0.0223
 1563SOL    HW2 5589   0.980   1.231   6.875 -0.0543  2.3378 -0.4381
 1564SOL     OW 5590   1.053   1.063   4.689  0.4859  0.2224 -0.1239
 1564SOL    HW1 5591   0.971   1.082   4.636  0.5418  1.3033  0.1417
 1564SOL    HW2 5592   1.122   1.019   4.631 -0.2625 -0.6804 -0.3476
 1565SOL     OW 5593   6.538   3.091   5.276  0.1187  0.7206 -0.0071
 1565SOL    HW1 5594   6.630   3.123   5.254  1.0304 -2.1665 -0.7179
 1565SOL    HW2 5595   6.540   3.037   5.360 -1.0380  0.9746  0.2130
 1566SOL     OW 5596   6.114   2.960   6.558  0.5168  0.1880 -0.1147
 1566SOL    HW1 5597   6.126   2.940   6.655  0.5656 -1.0095 -0.3423
 1566SOL    HW2 5598   6.089   2.875   6.510 -0.1752  0.8989 -1.0388
 1567SOL     OW 5599   3.928   3.305   2.673 -0.2855  0.1389 -0.1515
 1567SOL    HW1 5600   3.912   3.208   2.692 -2.5068  0.6147  0.7457
 1567SOL    HW2 5601   3.963   3.315   2.580  1.2223 -1.5888  0.1701
 1568SOL     OW 5602   2.328   6.914   1.295  0.3852 -0.7468  0.0309
 1568SOL    HW1 5603   2.407   6.969   1.321  1.2691 -1.5482 -0.8724
 1568SOL    HW2 5604   2.348   6.817   1.311  0.8753 -1.2856 -3.1659
 1569SOL     OW 5605   0.720   4.560   0.074  0.4209 -0.1610  0.5902
 1569SOL    HW1 5606   0.639   4.581   0.130  0.5637 -0.8280  1.0698
 1569SOL    HW2 5607   0.690   4.521  -0.013  0.1532  2.0193 -0.3562
 1570SOL     OW 5608   5.146   0.383   6.787  0.1004 -0.4949  0.2834
 1570SOL    HW1 5609   5.239   0.357   6.759  0.4288  1.1047 -0.1970
 1570SOL    HW2 5610   5.127   0.476   6.757 -0.9858 -0.1071  2.0325
 1571SOL     OW 5611   4.240   5.643   5.279  0.0891  0.5045 -0.0585
 1571SOL    HW1 5612   4.234   5.741   5.295  0.6445  0.5328  0.0092
 1571SOL    HW2 5613   4.278   5.598   5.360 -1.0576  0.1062  0.2845
 1572SOL     OW 5614   5.703   0.780   1.995  0.3647  0.4543  0.3147
 1572SOL    HW1 5615   5.733   0.833   1.915  1.7033  0.1774  0.6071
 1572SOL    HW2 5616   5.604   0.771   1.993  0.4848 -1.9619 -2.8853
 1573SOL     OW 5617   0.560   0.842   5.261  0.0719  0.3017 -0.2076
 1573SOL    HW1 5618   0.519   0.897   5.188  1.5034  2.2535  0.3719
 1573SOL    HW2 5619   0.654   0.871   5.276  0.1183 -0.6727  1.8058
 1574SOL     OW 5620   0.864   6.732   5.150  0.1132  0.5728 -0.1139
 1574SOL    HW1 5621   0.825   6.663   5.210 -1.5540  1.3678 -0.2206
 1574SOL    HW2 5622   0.905   6.689   5.070  1.0412 -0.3989  0.8555
 1575SOL     OW 5623   5.808   5.456   3.634 -0.1156 -0.0892  0.3980
 1575SOL    HW1 5624   5.785   5.372   3.584  0.2408 -0.8785  1.5107
 1575SOL    HW2 5625   5.787   5.444   3.731 -1.7168  1.7639  0.3307
 1576SOL     OW 5626   0.474   5.215   5.197 -0.0825  0.6247  0.0387
 1576SOL    HW1 5627   0.494   5.135   5.253 -1.2796  1.4425  1.7427
 1576SOL    HW2 5628   0.387   5.256   5.228  0.2453  2.2820 -1.1061
 1577SOL     OW 5629   0.104   5.700   4.192  0.3517 -0.3297  0.0926
 1577SOL    HW1 5630   0.080   5.723   4.098 -1.2903  0.6780  0.7121
 1577SOL    HW2 5631   0.196   5.662   4.194 -0.0976 -1.7492 -2.0958
 1578SOL     OW 5632   5.015   1.440   2.667  0.5946 -0.3540 -0.2904
 1578SOL    HW1 5633   4.996   1.526   2.715 -0.6150 -0.8806  0.2402
 1578SOL    HW2 5634   5.067   1.459   2.584  0.3307  0.8940 -0.1984
 1579SOL     OW 5635   2.490   2.215   3.419  0.2619  0.0521  0.1960
 1579SOL    HW1 5636   2.558   2.232   3.348  0.0821  0.1467  0.0471
 1579SOL    HW2 5637   2.418   2.156   3.384  0.5450 -0.4915  0.5176
 1580SOL     OW 5638   3.453   6.994   3.973 -0.5251 -0.5835 -0.1702
 1580SOL    HW1 5639   3.529   7.027   3.916 -0.7827  0.7184  0.2042
 1580SOL    HW2 5640   3.461   7.034   4.064 -2.1308  0.3046 -0.3710
 1581SOL     OW 5641   1.480   6.488   2.606 -0.2561  0.0246  0.3302
 1581SOL    HW1 5642   1.494   6.541   2.522 -1.3001  0.4994  0.4379
 1581SOL    HW2 5643   1.479   6.391   2.584  1.0794  0.0555  0.0398
 1582SOL     OW 5644   0.193   2.004   6.851  0.2231  0.0957 -0.2234
 1582SOL    HW1 5645   0.169   2.050   6.766  0.1360 -1.1848 -0.9120
 1582SOL    HW2 5646   0.244   2.067   6.910 -1.3989  1.6218 -0.3706
 1583SOL     OW 5647   3.041   1.220   6.018 -0.5973 -1.0288 -0.2915
 1583SOL    HW1 5648   3.125   1.261   6.054 -1.5833  0.7066  0.1207
 1583SOL    HW2 5649   3.065   1.145   5.956  1.2520 -0.5369 -0.2295
 1584SOL     OW 5650   5.344   4.391   2.314  0.1990  0.1035 -1.1298
 1584SOL    HW1 5651   5.420   4.425   2.258  1.6910 -1.5346 -0.1853
 1584SOL    HW2 5652   5.301   4.314   2.268  2.4897 -2.3440  0.5422
 1585SOL     OW 5653   3.758   3.517   2.422  0.1421 -0.9137  0.0035
 1585SOL    HW1 5654   3.839   3.461   2.403  0.2398 -0.5409 -0.6924
 1585SOL    HW2 5655   3.747   3.586   2.351  0.1328  0.0888  0.9445
 1586SOL     OW 5656   4.485   6.352   6.457 -0.9817  0.6003 -0.1603
 1586SOL    HW1 5657   4.435   6.322   6.538 -1.2235  0.5800 -0.3153
 1586SOL    HW2 5658   4.559   6.414   6.484  1.8049 -2.7479  0.5738
 1587SOL     OW 5659   3.744   2.999   6.534 -0.3263  0.9339 -0.1473
 1587SOL    HW1 5660   3.756   2.937   6.456 -1.8440  1.5225 -0.8794
 1587SOL    HW2 5661   3.818   3.066   6.535  0.4993  0.0521 -0.2221
 1588SOL     OW 5662   2.229   6.490   4.242 -0.0033 -0.2741  0.1357
 1588SOL    HW1 5663   2.144   6.449   4.275  0.1366 -0.1848  0.6067
 1588SOL    HW2 5664   2.305   6.427   4.258  0.5309  0.8859  2.6224
 1589SOL     OW 5665   3.010   6.089   3.342 -0.4381  0.0001 -0.1959
 1589SOL    HW1 5666   2.931   6.107   3.401  0.1368 -1.9275  1.2765
 1589SOL    HW2 5667   3.008   6.151   3.264 -3.5011 -0.0919 -0.3267
 1590SOL     OW 5668   0.497   0.924   6.104  0.4209 -0.1689 -0.3303
 1590SOL    HW1 5669   0.499   0.943   6.202 -0.9923 -0.7497 -0.1723
 1590SOL    HW2 5670   0.561   0.985   6.057  0.8079  0.3980  0.8938
 1591SOL     OW 5671   4.672   4.758   2.118  0.3051  0.0925  0.0675
 1591SOL    HW1 5672   4.658   4.857   2.129 -0.2062  0.1516 -0.9712
 1591SOL    HW2 5673   4.585   4.715   2.092  0.8138 -0.4095 -0.8510
 1592SOL     OW 5674   2.604   5.238   4.132 -0.3303 -0.6821  0.4839
 1592SOL    HW1 5675   2.536   5.190   4.077 -0.0388  1.2512 -1.7383
 1592SOL    HW2 5676   2.694   5.196   4.119 -0.0622  0.3645 -1.5036
 1593SOL     OW 5677   5.552   4.741   6.482  0.2574 -0.5228 -0.2911
 1593SOL    HW1 5678   5.593   4.650   6.486  0.9326 -0.2000  0.2906
 1593SOL    HW2 5679   5.496   4.748   6.399 -0.1593 -1.6049 -0.1301
 1594SOL     OW 5680   4.383   4.622   4.833  0.2281  0.2970 -0.2461
 1594SOL    HW1 5681   4.480   4.645   4.836  0.7935 -1.8094 -0.3271
 1594SOL    HW2 5682   4.360   4.563   4.911 -1.1531  1.2792  0.1300
 1595SOL     OW 5683   1.208   1.298   4.571  0.1063 -0.2594 -0.1268
 1595SOL    HW1 5684   1.187   1.383   4.618 -1.1704 -0.6686  0.0655
 1595SOL    HW2 5685   1.246   1.232   4.636 -1.0619 -0.6066  0.2323
 1596SOL     OW 5686   1.285   3.683   5.587 -0.0016 -0.0540 -0.2162
 1596SOL    HW1 5687   1.334   3.628   5.520 -0.2713 -0.4295 -0.1111
 1596SOL    HW2 5688   1.217   3.739   5.541 -0.9750 -1.1470 -0.1739
 1597SOL     OW 5689   1.760   4.694   1.373 -0.1997 -0.3137 -0.3568
 1597SOL    HW1 5690   1.663   4.713   1.384 -0.1493 -0.2844  0.0521
 1597SOL    HW2 5691   1.784   4.698   1.276  0.4650  4.9746 -0.2561
 1598SOL     OW 5692   6.541   6.636   2.412 -0.6499  0.3312  0.5393
 1598SOL    HW1 5693   6.442   6.632   2.419 -0.6260 -0.5743  0.4444
 1598SOL    HW2 5694   6.576   6.549   2.379 -0.1066  1.8502 -3.5063
 1599SOL     OW 5695   4.213   0.012   0.494 -0.2961 -0.5862  0.5505
 1599SOL    HW1 5696   4.247  -0.009   0.402  0.5623  0.3596  0.6292
 1599SOL    HW2 5697   4.271   0.082   0.535 -3.4537  2.7347 -0.0959
 1600SOL     OW 5698   0.327   2.476   5.914 -0.8015 -0.4338  0.6962
 1600SOL    HW1 5699   0.270   2.394   5.912 -0.2960 -0.8192  1.6238
 1600SOL    HW2 5700   0.362   2.490   6.007 -0.8988  0.8460  0.5622
 1601SOL     OW 5701   3.589   3.973   3.855  0.4267  0.3583  0.3649
 1601SOL    HW1 5702   3.656   3.957   3.928 -0.7932  0.4811  1.5544
 1601SOL    HW2 5703   3.505   3.923   3.876  0.0453  0.4140 -0.9628
 1602SOL     OW 5704   1.906   4.293   4.776  0.1785  1.0970  0.3248
 1602SOL    HW1 5705   1.888   4.197   4.797 -1.1667  1.4356  0.8182
 1602SOL    HW2 5706   1.987   4.323   4.826 -0.6799  0.8100  1.9577
 1603SOL     OW 5707   1.425   6.376   1.805 -0.3576 -0.2562  0.3473
 1603SOL    HW1 5708   1.451   6.281   1.820 -1.8744 -1.0621 -1.7126
 1603SOL    HW2 5709   1.389   6.387   1.712  0.2962  2.4624  0.3303
 1604SOL     OW 5710   5.389   4.734   0.584  0.2494 -0.1357 -0.2454
 1604SOL    HW1 5711   5.422   4.821   0.621 -1.5587  0.3756  0.2692
 1604SOL    HW2 5712   5.402   4.662   0.651 -1.9359  0.5599  1.0157
 1605SOL     OW 5713   1.062   5.481   2.612 -0.3221  0.1892 -0.1523
 1605SOL    HW1 5714   1.009   5.566   2.616 -1.1604 -0.3258 -0.0407
 1605SOL    HW2 5715   1.018   5.412   2.669  1.0889  0.0668  0.8382
 1606SOL     OW 5716   2.270   4.427   0.948  0.3668  0.5219 -0.0265
 1606SOL    HW1 5717   2.268   4.414   1.047  0.7635 -1.2148 -0.2131
 1606SOL    HW2 5718   2.286   4.339   0.903 -1.9471  0.8999 -1.7478
 1607SOL     OW 5719   4.027   2.702   0.341  0.5919  0.0076  0.2096
 1607SOL    HW1 5720   3.934   2.741   0.344  0.3445 -0.6391  1.7962
 1607SOL    HW2 5721   4.090   2.762   0.390  0.5531 -0.7086  1.1420
 1608SOL     OW 5722   5.948   2.770   5.679  0.5563  0.2279  0.1333
 1608SOL    HW1 5723   6.048   2.773   5.683  0.6588 -1.9257  1.0437
 1608SOL    HW2 5724   5.917   2.790   5.587  1.7625  1.7798  0.0367
 1609SOL     OW 5725   4.715   0.789   0.324  0.0049  0.2699  0.4704
 1609SOL    HW1 5726   4.805   0.828   0.303  0.4344 -0.9732 -0.1058
 1609SOL    HW2 5727   4.683   0.823   0.412  0.6333  1.4215  0.2628
 1610SOL     OW 5728   2.925   4.885   5.803 -0.3084 -0.1866  0.1276
 1610SOL    HW1 5729   2.995   4.815   5.805 -0.0181  0.1113  1.2482
 1610SOL    HW2 5730   2.834   4.842   5.807 -0.1300 -0.5095  1.0785
 1611SOL     OW 5731   5.852   5.790   3.872 -0.3877 -0.3790  0.2710
 1611SOL    HW1 5732   5.849   5.695   3.905 -0.9220 -0.0263  1.2861
 1611SOL    HW2 5733   5.937   5.833   3.904 -1.1263  0.1083  1.6750
 1612SOL     OW 5734   0.393   5.243   0.300 -0.0962  0.3160 -0.3068
 1612SOL    HW1 5735   0.454   5.260   0.222 -1.1357  0.1939 -1.1605
 1612SOL    HW2 5736   0.357   5.150   0.294 -0.8495  0.5919 -0.1537
 1613SOL     OW 5737   3.570   1.454   1.187  0.3427  0.3892 -0.1081
 1613SOL    HW1 5738   3.594   1.444   1.284  2.3979  1.0943 -0.4869
 1613SOL    HW2 5739   3.522   1.372   1.156  1.9734 -1.0125  0.8844
 1614SOL     OW 5740   3.491   3.927   6.850 -0.0212 -0.8759  0.2990
 1614SOL    HW1 5741   3.524   3.934   6.756  1.0163 -0.9839  0.6510
 1614SOL    HW2 5742   3.535   3.996   6.907  0.3086 -1.6305  0.9749
 1615SOL     OW 5743   4.585   3.914   1.442  0.0222 -0.0203 -0.9122
 1615SOL    HW1 5744   4.556   3.821   1.465  1.1084 -0.4398 -1.1406
 1615SOL    HW2 5745   4.584   3.971   1.525 -1.5784  0.0424 -0.9538
 1616SOL     OW 5746   0.494   3.437   5.313 -0.1371  0.1499  0.2200
 1616SOL    HW1 5747   0.487   3.450   5.214 -0.0780 -0.2676  0.1578
 1616SOL    HW2 5748   0.578   3.480   5.346 -1.3378  2.4404  0.4847
 1617SOL     OW 5749   3.590   2.763   1.649 -0.4336 -0.4418 -1.0373
 1617SOL    HW1 5750   3.678   2.791   1.611  1.8955 -4.1451  1.0708
 1617SOL    HW2 5751   3.539   2.710   1.581 -0.7105  0.9638 -1.9666
 1618SOL     OW 5752   3.954   5.323   2.859 -0.5823  0.3948  0.1608
 1618SOL    HW1 5753   3.990   5.230   2.858 -1.8016 -0.1093 -1.2193
 1618SOL    HW2 5754   3.854   5.320   2.864 -0.6053  1.6832  1.2530
 1619SOL     OW 5755   5.839   5.551   1.106  0.1576  0.6386 -0.1687
 1619SOL    HW1 5756   5.890   5.617   1.160 -0.1936  1.7525 -1.1549
 1619SOL    HW2 5757   5.774   5.502   1.164  0.7469  0.8185  0.6543
 1620SOL     OW 5758   2.156   5.506   4.795  0.2253 -0.0041  0.1317
 1620SOL    HW1 5759   2.208   5.533   4.714 -0.9052  0.7733 -0.3578
 1620SOL    HW2 5760   2.110   5.586   4.833  1.6676 -0.0972  2.2687
 1621SOL     OW 5761   3.163   1.377   2.632  0.1668 -0.0433  0.0948
 1621SOL    HW1 5762   3.100   1.303   2.606 -0.3031  0.0389  0.9668
 1621SOL    HW2 5763   3.146   1.456   2.574  1.0739 -0.7977 -1.2459
 1622SOL     OW 5764   3.899   4.936   3.134 -0.0738  0.3199  0.7984
 1622SOL    HW1 5765   3.850   4.926   3.220 -0.4199 -0.7882  0.4967
 1622SOL    HW2 5766   3.971   4.867   3.128  1.3959  1.7844  1.1325
 1623SOL     OW 5767   3.547   5.136   4.576  0.0090  0.1195 -0.4277
 1623SOL    HW1 5768   3.613   5.163   4.506 -0.3658  1.0319 -0.4438
 1623SOL    HW2 5769   3.573   5.178   4.663  0.3749 -0.8682 -0.0454
 1624SOL     OW 5770   3.474   4.547   0.783 -0.1775  0.0177 -0.1308
 1624SOL    HW1 5771   3.375   4.538   0.792  0.0949 -1.3352  2.4326
 1624SOL    HW2 5772   3.515   4.561   0.873  1.8530  2.8065 -1.3259
 1625SOL     OW 5773   2.238   6.969   0.178  0.1557  0.1268  0.5773
 1625SOL    HW1 5774   2.146   6.974   0.215  0.5067 -1.8935  1.8719
 1625SOL    HW2 5775   2.302   6.944   0.251  1.5435  0.3135 -0.5366
 1626SOL     OW 5776   5.070   3.067   1.172 -0.0251  0.0061 -1.3522
 1626SOL    HW1 5777   4.979   3.094   1.203 -0.9088 -1.6070 -2.3448
 1626SOL    HW2 5778   5.086   2.972   1.198  1.0507  0.0316 -1.8885
 1627SOL     OW 5779   6.793   6.388   5.850 -0.0416  0.5660  0.6291
 1627SOL    HW1 5780   6.857   6.414   5.923  1.3727  2.1071 -1.0776
 1627SOL    HW2 5781   6.835   6.319   5.792 -0.9798 -0.2989  0.9523
 1628SOL     OW 5782   6.436   5.561   3.505  0.1114 -0.0309 -0.1717
 1628SOL    HW1 5783   6.362   5.494   3.510 -1.2757  1.4318  0.0745
 1628SOL    HW2 5784   6.398   5.649   3.475  1.8827  0.6103 -0.6312
 1629SOL     OW 5785   5.719   5.448   6.689 -0.0833 -0.6187 -0.1551
 1629SOL    HW1 5786   5.733   5.377   6.620 -0.0316 -0.1166 -0.6682
 1629SOL    HW2 5787   5.709   5.536   6.644  0.8439 -0.1497  0.5190
 1630SOL     OW 5788   2.861   2.064   2.139 -0.6278 -0.3137 -0.4010
 1630SOL    HW1 5789   2.763   2.062   2.161 -0.0759  0.2122  2.5547
 1630SOL    HW2 5790   2.888   2.158   2.117 -0.2596  0.2242  2.0515
 1631SOL     OW 5791   4.958   3.584   6.730  0.0402  0.6822  0.4963
 1631SOL    HW1 5792   5.028   3.656   6.739  1.5149 -0.8525  2.5704
 1631SOL    HW2 5793   4.885   3.601   6.796 -0.1170  0.8026  0.2912
 1632SOL     OW 5794   5.081   6.188   3.256 -0.1186  0.5227 -0.0480
 1632SOL    HW1 5795   5.040   6.273   3.290 -0.2300  0.5986 -0.3612
 1632SOL    HW2 5796   5.164   6.168   3.307  0.0203  0.9320 -0.1051
 1633SOL     OW 5797   6.900   0.251   1.221 -0.1141 -0.1039  0.9779
 1633SOL    HW1 5798   6.936   0.201   1.300  1.6126  0.9138  0.8875
 1633SOL    HW2 5799   6.912   0.197   1.138 -2.4541 -1.4263  1.3955
 1634SOL     OW 5800   2.981   4.510   0.750  0.0532 -0.5353  0.5244
 1634SOL    HW1 5801   2.894   4.489   0.707  0.5109  0.2841 -0.8668
 1634SOL    HW2 5802   2.970   4.591   0.809 -0.4484 -1.3396  1.5747
 1635SOL     OW 5803   2.854   3.139   0.044  0.0398  0.3043  0.0458
 1635SOL    HW1 5804   2.823   3.082  -0.033 -0.1810  1.6507 -0.8874
 1635SOL    HW2 5805   2.788   3.132   0.119 -1.0752  0.9507 -0.8553
 1636SOL     OW 5806   5.887   0.080   5.834  0.7249 -0.3588  0.5182
 1636SOL    HW1 5807   5.838  -0.000   5.799 -0.5037  0.5875 -0.0204
 1636SOL    HW2 5808   5.830   0.127   5.901  0.2129  1.5833 -1.1856
 1637SOL     OW 5809   2.177   1.966   6.165 -0.1554  0.3176 -0.0429
 1637SOL    HW1 5810   2.132   1.885   6.128 -0.7258  0.4713  0.2910
 1637SOL    HW2 5811   2.131   2.048   6.130  0.7579  0.5190 -0.8137
 1638SOL     OW 5812   1.674   5.593   3.676  0.3065  0.1757  0.1065
 1638SOL    HW1 5813   1.635   5.578   3.585  0.5304 -0.2484  0.0791
 1638SOL    HW2 5814   1.667   5.690   3.700 -0.7942  0.1055  0.1142
 1639SOL     OW 5815   4.232   0.168   4.928  0.3586  0.4052  0.9127
 1639SOL    HW1 5816   4.292   0.166   5.008  0.3011 -0.0003  0.9438
 1639SOL    HW2 5817   4.287   0.171   4.845  0.4697 -1.6374  0.8637
 1640SOL     OW 5818   2.218   4.878   6.711  0.2921 -0.4013 -0.6045
 1640SOL    HW1 5819   2.297   4.918   6.758  0.4865  0.3827 -1.5605
 1640SOL    HW2 5820   2.210   4.917   6.620  1.3789 -3.6027 -2.2290
 1641SOL     OW 5821   5.509   0.411   0.730 -0.2005  0.1832  0.2093
 1641SOL    HW1 5822   5.461   0.353   0.796 -0.9161  1.0575  0.4806
 1641SOL    HW2 5823   5.608   0.405   0.747 -0.3311 -0.1381  0.9151
 1642SOL     OW 5824   0.878   4.340   2.368  0.1501  0.1639  0.1327
 1642SOL    HW1 5825   0.949   4.283   2.326  0.1549  0.3987 -0.1875
 1642SOL    HW2 5826   0.791   4.291   2.366  0.3688 -0.2639  0.8403
 1643SOL     OW 5827   2.215   6.487   2.509 -0.5607 -0.0130 -0.1532
 1643SOL    HW1 5828   2.286   6.485   2.438 -0.3896  0.9171 -0.0172
 1643SOL    HW2 5829   2.125   6.478   2.466 -0.3849 -0.8176 -0.3617
 1644SOL     OW 5830   5.214   2.941   3.509 -0.0682  0.3423 -0.2519
 1644SOL    HW1 5831   5.138   2.881   3.488 -0.4477  1.0411 -0.9502
 1644SOL    HW2 5832   5.182   3.035   3.515  0.6471  0.5807 -0.0105
 1645SOL     OW 5833   2.469   1.495   2.011  0.1914 -0.0781  0.0259
 1645SOL    HW1 5834   2.560   1.454   2.021 -0.6226 -1.9680  0.1785
 1645SOL    HW2 5835   2.402   1.422   1.997 -1.2914  1.2905 -0.2114
 1646SOL     OW 5836   1.730   5.189   3.827  0.4561 -0.3001  0.4834
 1646SOL    HW1 5837   1.679   5.271   3.852  2.4690  1.1858 -0.0706
 1646SOL    HW2 5838   1.695   5.111   3.879 -1.6467  0.8369  0.8735
 1647SOL     OW 5839   0.934   2.591   6.204  0.3516 -0.5178  0.2489
 1647SOL    HW1 5840   0.947   2.690   6.194 -0.1100 -0.5979 -1.4999
 1647SOL    HW2 5841   0.839   2.567   6.182  0.6797 -1.4439 -0.2152
 1648SOL     OW 5842   5.125   3.402   2.886  0.3336 -0.3567  0.1440
 1648SOL    HW1 5843   5.191   3.432   2.956  0.3952  0.8381 -0.3983
 1648SOL    HW2 5844   5.126   3.467   2.810 -1.8501 -0.0048  0.3537
 1649SOL     OW 5845   2.728   2.380   4.211  0.5352 -0.0830 -0.3258
 1649SOL    HW1 5846   2.756   2.377   4.307 -2.1311 -1.1806  0.5310
 1649SOL    HW2 5847   2.755   2.295   4.166  0.4744 -0.2173 -0.1139
 1650SOL     OW 5848   1.019   4.262   1.512  0.4035 -0.1518  0.8597
 1650SOL    HW1 5849   1.108   4.230   1.479  0.9213  1.2263  0.8509
 1650SOL    HW2 5850   1.010   4.240   1.610 -0.4256 -2.7247  0.2768
 1651SOL     OW 5851   5.244   4.437   1.844 -0.1885 -0.1311  0.5443
 1651SOL    HW1 5852   5.265   4.479   1.933  1.6539  0.1457  0.0131
 1651SOL    HW2 5853   5.329   4.409   1.800 -0.6507  2.8059 -2.6281
 1652SOL     OW 5854   6.370   4.661   6.655 -0.4917  0.0275  0.3032
 1652SOL    HW1 5855   6.458   4.672   6.608 -0.3254  0.3696  0.6895
 1652SOL    HW2 5856   6.314   4.743   6.642  0.5950  1.2778  2.8461
 1653SOL     OW 5857   6.479   1.206   4.496 -0.1986 -0.6284 -0.6260
 1653SOL    HW1 5858   6.398   1.165   4.538 -0.9565  2.5004  1.3966
 1653SOL    HW2 5859   6.562   1.168   4.539 -0.7509 -1.3633 -0.1918
 1654SOL     OW 5860   0.381   4.689   2.747  0.3179  0.0200 -0.3294
 1654SOL    HW1 5861   0.286   4.659   2.736 -0.3320  1.2258  1.5567
 1654SOL    HW2 5862   0.419   4.649   2.830  1.2606  0.0643 -0.7290
 1655SOL     OW 5863   2.749   1.541   1.205 -0.3750 -0.8163  0.8778
 1655SOL    HW1 5864   2.730   1.624   1.152  1.2434 -0.6233  0.5394
 1655SOL    HW2 5865   2.670   1.481   1.202  0.0455 -1.4588 -3.0122
 1656SOL     OW 5866   5.893   6.081   6.982  0.4820 -0.2775  0.2798
 1656SOL    HW1 5867   5.836   6.140   7.039  1.6350  0.6023  0.5640
 1656SOL    HW2 5868   5.868   5.986   6.997 -0.9762  0.0816  0.3000
 1657SOL     OW 5869   6.426   0.220   0.807  0.7245  0.2299  0.4066
 1657SOL    HW1 5870   6.480   0.136   0.807  1.5316  0.7189 -0.1736
 1657SOL    HW2 5871   6.330   0.199   0.822  0.5362 -1.0719 -2.1007
 1658SOL     OW 5872   1.398   1.683   1.729 -0.8210 -0.4194 -0.3717
 1658SOL    HW1 5873   1.381   1.769   1.775 -1.1577 -0.3396 -0.6456
 1658SOL    HW2 5874   1.497   1.673   1.713 -0.5390 -1.0673  1.5590
 1659SOL     OW 5875   6.731   1.560   6.672 -0.2450  0.5057 -0.0776
 1659SOL    HW1 5876   6.789   1.612   6.734 -0.0651 -0.9795  1.0722
 1659SOL    HW2 5877   6.758   1.579   6.577  2.2522 -0.2152  0.3956
 1660SOL     OW 5878   3.192   4.537   0.437  0.0600 -0.7461  0.4167
 1660SOL    HW1 5879   3.172   4.450   0.482  0.0520 -1.2235 -0.4946
 1660SOL    HW2 5880   3.214   4.606   0.506  1.7902 -1.9026  1.0689
 1661SOL     OW 5881   0.632   1.713   0.660 -0.1892 -0.3726 -0.3555
 1661SOL    HW1 5882   0.544   1.722   0.614 -0.7888 -0.9736  0.6592
 1661SOL    HW2 5883   0.692   1.653   0.607 -0.8690 -1.0455 -0.3701
 1662SOL     OW 5884   6.507   4.418   2.652 -0.5528  0.5083 -0.2858
 1662SOL    HW1 5885   6.566   4.426   2.733 -0.4850  0.8231 -0.3665
 1662SOL    HW2 5886   6.472   4.324   2.646  0.7901  0.0060 -0.8209
 1663SOL     OW 5887   1.582   1.916   7.010  0.6987  0.4408 -0.0407
 1663SOL    HW1 5888   1.572   1.872   6.921  0.5236 -0.1397  0.2579
 1663SOL    HW2 5889   1.500   1.970   7.030  0.3569 -0.1324  0.1434
 1664SOL     OW 5890   1.147   5.079   4.324 -0.2908 -0.6810  0.2361
 1664SOL    HW1 5891   1.245   5.061   4.320 -0.1993 -0.9254  2.5677
 1664SOL    HW2 5892   1.130   5.175   4.302  0.2223 -1.0710 -2.1193
 1665SOL     OW 5893   4.448   1.504   6.451 -0.0603  0.3266  0.1566
 1665SOL    HW1 5894   4.403   1.545   6.372 -1.0873  1.0372  1.0737
 1665SOL    HW2 5895   4.411   1.545   6.535 -0.9867 -2.3210  1.1303
 1666SOL     OW 5896   1.195   2.923   5.193  0.2093 -0.1752 -0.3163
 1666SOL    HW1 5897   1.188   2.859   5.117  1.0639  0.7708 -1.2248
 1666SOL    HW2 5898   1.289   2.956   5.201 -0.0679  0.4341  0.5739
 1667SOL     OW 5899   0.014   4.500   0.773  0.1923  0.4707 -0.6494
 1667SOL    HW1 5900   0.113   4.511   0.778  0.3503 -0.0807 -2.0710
 1667SOL    HW2 5901  -0.013   4.422   0.829  0.3600  1.4465  0.8597
 1668SOL     OW 5902   1.088   1.482   1.243  0.0312 -0.3624 -0.1962
 1668SOL    HW1 5903   1.013   1.547   1.233  1.0884  0.9246 -0.0768
 1668SOL    HW2 5904   1.129   1.490   1.334  0.9270 -0.3313 -0.5822
 1669SOL     OW 5905   5.087   1.109   0.245 -0.0126 -0.4294  0.2255
 1669SOL    HW1 5906   5.004   1.056   0.265  0.5701 -0.9282  1.4616
 1669SOL    HW2 5907   5.075   1.159   0.159 -1.6850 -0.2900  0.5035
 1670SOL     OW 5908   0.211   6.773   6.693  0.1784 -0.2435  0.6867
 1670SOL    HW1 5909   0.308   6.786   6.712 -0.1468  1.8737  1.1501
 1670SOL    HW2 5910   0.181   6.838   6.623 -0.9363 -0.8181  0.5920
 1671SOL     OW 5911   0.101   1.772   1.140  0.0027 -0.5889  0.2204
 1671SOL    HW1 5912   0.024   1.750   1.079  1.1953  0.7200 -1.8675
 1671SOL    HW2 5913   0.187   1.756   1.092  1.0041  0.6223  1.5336
 1672SOL     OW 5914   1.931   4.764   2.697 -0.4292  0.7607  0.1258
 1672SOL    HW1 5915   1.873   4.749   2.617  0.9289 -2.4589 -0.4147
 1672SOL    HW2 5916   2.013   4.815   2.670  0.5261 -1.2097 -0.8591
 1673SOL     OW 5917   4.314   6.028   1.729  0.1358 -1.7978  0.1932
 1673SOL    HW1 5918   4.375   6.098   1.767 -1.4713  0.2472 -0.7446
 1673SOL    HW2 5919   4.362   5.978   1.657  1.0639 -1.0546  0.2727
 1674SOL     OW 5920   5.013   2.673   0.494 -0.0104 -0.1663 -0.2642
 1674SOL    HW1 5921   5.087   2.615   0.459  1.8254  1.4120  0.7957
 1674SOL    HW2 5922   4.934   2.616   0.517  0.7236 -1.8826 -1.7208
 1675SOL     OW 5923   2.393   1.912   3.082 -0.3583  0.0048 -0.4226
 1675SOL    HW1 5924   2.340   1.829   3.066 -0.6612  0.0673  0.2374
 1675SOL    HW2 5925   2.347   1.969   3.150 -0.6514  1.1679 -1.5506
 1676SOL     OW 5926   5.448   3.715   3.762  0.0411  0.5155  0.3950
 1676SOL    HW1 5927   5.449   3.725   3.662 -0.8085  3.7539  0.5903
 1676SOL    HW2 5928   5.496   3.632   3.788 -0.4377 -0.8813 -2.7326
 1677SOL     OW 5929   1.716   0.349   0.544  0.4552 -0.3247  0.2684
 1677SOL    HW1 5930   1.786   0.408   0.585 -0.7739  2.2601 -1.1119
 1677SOL    HW2 5931   1.722   0.356   0.445 -1.0810 -0.9118  0.1204
 1678SOL     OW 5932   6.207   0.285   1.174 -0.0366 -0.1881  0.1150
 1678SOL    HW1 5933   6.124   0.290   1.117  0.7918  1.0960 -1.0633
 1678SOL    HW2 5934   6.255   0.373   1.169  0.4501 -0.2715  2.2850
 1679SOL     OW 5935   6.410   3.843   1.930 -0.5481  0.5853  0.2315
 1679SOL    HW1 5936   6.466   3.855   1.848 -0.6943 -1.4058 -0.2105
 1679SOL    HW2 5937   6.381   3.932   1.964 -0.8303  1.4434 -2.1152
 1680SOL     OW 5938   0.847   4.454   1.476 -0.6708 -0.3175 -0.0827
 1680SOL    HW1 5939   0.780   4.474   1.548 -0.9915 -1.7174  0.0445
 1680SOL    HW2 5940   0.916   4.392   1.512 -0.2082 -0.1492 -0.6785
 1681SOL     OW 5941   0.006   0.501   4.232  0.3283  0.4018 -0.6401
 1681SOL    HW1 5942   0.034   0.451   4.150  1.0553  0.2355 -0.3006
 1681SOL    HW2 5943  -0.089   0.481   4.253  0.6502 -0.9744 -0.4230
 1682SOL     OW 5944   1.624   1.170   1.794  0.2549  0.2842 -0.1636
 1682SOL    HW1 5945   1.554   1.228   1.836 -0.3408 -1.4620  1.3927
 1682SOL    HW2 5946   1.711   1.183   1.842  0.1738  0.0754  0.0448
 1683SOL     OW 5947   1.206   6.875   4.942  0.3472  0.1633 -0.1622
 1683SOL    HW1 5948   1.198   6.778   4.918 -0.2013  0.2176 -0.2116
 1683SOL    HW2 5949   1.119   6.922   4.922  0.8444  0.8213 -0.8237
 1684SOL     OW 5950   6.922   0.391   0.652 -0.3997 -0.1610 -0.0894
 1684SOL    HW1 5951   6.840   0.401   0.709 -0.7376  0.1379 -0.6256
 1684SOL    HW2 5952   6.896   0.378   0.557  0.1789  0.6106 -0.3715
 1685SOL     OW 5953   3.577   6.819   1.314 -1.2016  0.1504 -0.3822
 1685SOL    HW1 5954   3.547   6.750   1.380  0.1620  0.3128  0.4545
 1685SOL    HW2 5955   3.529   6.905   1.330 -0.3276  0.4230  0.9616
 1686SOL     OW 5956   1.277   1.560   6.395  0.3958 -0.1025  0.0282
 1686SOL    HW1 5957   1.183   1.585   6.372  0.2444 -1.4248 -0.9094
 1686SOL    HW2 5958   1.288   1.559   6.495 -0.7480 -0.4835  0.1608
 1687SOL     OW 5959   5.615   3.177   2.783  0.4346 -0.1008  0.0961
 1687SOL    HW1 5960   5.714   3.169   2.797  0.5137  1.7230  0.9208
 1687SOL    HW2 5961   5.597   3.233   2.702  0.0986  0.2007  0.3752
 1688SOL     OW 5962   2.394   6.605   4.065 -0.1997  0.0366  0.4025
 1688SOL    HW1 5963   2.441   6.675   4.118 -0.3505 -0.0869  0.6987
 1688SOL    HW2 5964   2.333   6.553   4.125 -2.0024  1.2710 -0.2768
 1689SOL     OW 5965   4.831   3.139   4.255 -0.4221  0.4939  0.0037
 1689SOL    HW1 5966   4.789   3.058   4.216 -0.1116  0.9697 -1.3566
 1689SOL    HW2 5967   4.892   3.181   4.188 -1.3346  2.4195  0.3080
 1690SOL     OW 5968   1.192   3.381   5.304 -0.1114  0.1395 -0.0136
 1690SOL    HW1 5969   1.187   3.323   5.222  0.2640 -0.5697  0.4638
 1690SOL    HW2 5970   1.099   3.399   5.337 -0.2053 -2.0621  1.1269
 1691SOL     OW 5971   1.585   3.174   3.286 -0.2814 -0.3534  0.5882
 1691SOL    HW1 5972   1.512   3.228   3.244  2.2606  1.1999 -2.2197
 1691SOL    HW2 5973   1.653   3.236   3.326  1.9490 -1.4350 -1.3451
 1692SOL     OW 5974   5.811   3.564   0.277 -0.2953 -0.6113 -0.5833
 1692SOL    HW1 5975   5.840   3.660   0.277 -0.9309 -0.4170  0.1540
 1692SOL    HW2 5976   5.837   3.521   0.363 -2.0196 -0.4755  0.0432
 1693SOL     OW 5977   3.122   3.655   6.957 -0.0236  0.1298 -0.3860
 1693SOL    HW1 5978   3.061   3.623   6.884 -0.4574 -0.7257  0.3334
 1693SOL    HW2 5979   3.210   3.609   6.949  0.3821  0.9856 -1.1159
 1694SOL     OW 5980   1.344   5.669   0.689 -0.4857 -0.7063 -0.2319
 1694SOL    HW1 5981   1.420   5.717   0.735  0.7675 -1.8042 -1.0808
 1694SOL    HW2 5982   1.301   5.731   0.624  0.8118 -0.5634 -0.9946
 1695SOL     OW 5983   6.334   6.345   5.708  0.1472 -0.3764  0.4095
 1695SOL    HW1 5984   6.400   6.340   5.783  0.7842  0.5764 -0.0726
 1695SOL    HW2 5985   6.338   6.260   5.655 -1.6984 -1.9122  2.5491
 1696SOL     OW 5986   3.328   1.963   5.448 -0.1412 -0.7592  0.9728
 1696SOL    HW1 5987   3.361   1.877   5.409  2.9886 -0.0379  1.7428
 1696SOL    HW2 5988   3.304   2.026   5.374 -0.7484 -1.6483  0.3882
 1697SOL     OW 5989   3.865   4.029   4.330  0.3630  0.7009 -0.2752
 1697SOL    HW1 5990   3.918   4.035   4.415 -1.3363  0.6068  0.8252
 1697SOL    HW2 5991   3.802   4.106   4.324 -0.0031  0.3525 -1.1404
 1698SOL     OW 5992   0.025   1.571   6.643  0.2163  0.3412 -0.2516
 1698SOL    HW1 5993   0.012   1.665   6.610 -2.6631 -0.0175 -0.4140
 1698SOL    HW2 5994   0.041   1.572   6.742  0.1126  1.0089 -0.2358
 1699SOL     OW 5995   2.436   6.004   3.339 -0.2756  0.2042  0.3132
 1699SOL    HW1 5996   2.442   6.100   3.366  1.3585  0.6161 -1.2793
 1699SOL    HW2 5997   2.418   5.998   3.241  0.9674 -1.0784  0.1262
 1700SOL     OW 5998   4.118   0.375   5.439 -0.3762 -0.1920 -0.9211
 1700SOL    HW1 5999   4.041   0.367   5.502  0.6862  0.2252  0.4642
 1700SOL    HW2 6000   4.161   0.464   5.449  0.1101 -0.2989 -1.9038
 1701SOL     OW 6001   0.581   1.951   1.169  0.6416  0.0749 -0.2231
 1701SOL    HW1 6002   0.503   1.955   1.231  1.1425  1.3696  0.3473
 1701SOL    HW2 6003   0.665   1.935   1.221  0.6734 -2.5240 -0.9331
 1702SOL     OW 6004   3.854   0.645   6.451  0.1368 -0.2284 -0.2110
 1702SOL    HW1 6005   3.901   0.651   6.539 -1.6282 -1.9844  0.9518
 1702SOL    HW2 6006   3.792   0.723   6.441 -0.9941 -0.9138  1.0173
 1703SOL     OW 6007   3.942   1.719   3.397 -0.2518 -0.0463  0.5602
 1703SOL    HW1 6008   4.035   1.682   3.398 -0.0947  0.3264  1.9981
 1703SOL    HW2 6009   3.940   1.802   3.342 -0.3388 -1.4532 -1.6785
 1704SOL     OW 6010   0.879   3.271   3.708  0.0249 -0.4182 -0.0595
 1704SOL    HW1 6011   0.914   3.216   3.632 -0.4138  0.1720 -0.7101
 1704SOL    HW2 6012   0.879   3.367   3.682 -0.7676 -0.2711  0.4336
 1705SOL     OW 6013   2.747   2.299   2.615 -0.0825  0.2893 -0.4047
 1705SOL    HW1 6014   2.779   2.320   2.523  0.0440 -1.7579 -0.8721
 1705SOL    HW2 6015   2.655   2.263   2.611  0.2564 -0.6746  0.1662
 1706SOL     OW 6016   6.039   4.570   1.510  0.0747 -0.2268 -0.0473
 1706SOL    HW1 6017   6.036   4.670   1.512  1.4414 -0.1208 -1.3336
 1706SOL    HW2 6018   6.106   4.541   1.441 -0.8113 -2.0365 -0.1805
 1707SOL     OW 6019   1.513   0.554   5.636  0.4743  0.1652  0.1176
 1707SOL    HW1 6020   1.519   0.653   5.651  1.9505 -0.2444  3.0384
 1707SOL    HW2 6021   1.465   0.512   5.713  1.6508 -1.5747 -0.0321
 1708SOL     OW 6022   5.693   3.231   6.592 -0.5158 -0.0282  0.0239
 1708SOL    HW1 6023   5.787   3.197   6.597 -0.2844  0.2218 -1.9261
 1708SOL    HW2 6024   5.630   3.157   6.618  0.0853 -1.3420 -2.0307
 1709SOL     OW 6025   5.411   0.855   2.303 -0.3705  0.0270  0.0112
 1709SOL    HW1 6026   5.386   0.791   2.230 -1.6416 -0.9349  1.2473
 1709SOL    HW2 6027   5.422   0.947   2.264 -0.0608 -0.6268 -1.5317
 1710SOL     OW 6028   3.474   3.767   6.127  0.3176  0.4442  0.0480
 1710SOL    HW1 6029   3.497   3.858   6.092  0.0019  0.4811 -0.0665
 1710SOL    HW2 6030   3.491   3.698   6.057 -1.3660  0.6345 -0.5933
 1711SOL     OW 6031   5.966   3.710   0.036 -0.2036 -0.3632  0.0778
 1711SOL    HW1 6032   5.936   3.650  -0.038  0.6490 -1.0852  0.3026
 1711SOL    HW2 6033   6.005   3.794  -0.003 -0.0068 -0.6214 -0.2920
 1712SOL     OW 6034   3.085   1.883   1.902 -0.0872  0.1241 -0.2791
 1712SOL    HW1 6035   3.124   1.853   1.816  1.5918  0.7123  0.2415
 1712SOL    HW2 6036   3.114   1.977   1.922 -0.7470  0.1343  0.7410
 1713SOL     OW 6037   0.362   4.431   1.290  0.4345  0.1082 -0.1353
 1713SOL    HW1 6038   0.267   4.404   1.305  0.6178 -0.4835 -0.0312
 1713SOL    HW2 6039   0.387   4.502   1.357  0.8953 -1.7040  1.7298
 1714SOL     OW 6040   5.950   2.443   6.143  0.4669 -0.7722  0.2980
 1714SOL    HW1 6041   6.020   2.434   6.073 -1.2107 -1.0303 -1.4283
 1714SOL    HW2 6042   5.861   2.460   6.100 -0.3835  0.6914  2.4430
 1715SOL     OW 6043   6.004   2.974   3.786  0.0167 -0.1763  0.2575
 1715SOL    HW1 6044   6.079   3.022   3.832 -0.2607  1.7696 -1.1883
 1715SOL    HW2 6045   6.041   2.899   3.731  0.6541 -0.5322  1.1381
 1716SOL     OW 6046   5.041   1.460   3.104 -0.2715  0.2296 -0.4532
 1716SOL    HW1 6047   5.013   1.555   3.099 -0.6996  0.1468  0.2239
 1716SOL    HW2 6048   4.984   1.405   3.042 -0.3172  0.3472 -0.5162
 1717SOL     OW 6049   6.618   3.723   6.868 -0.2866 -0.1702  0.5758
 1717SOL    HW1 6050   6.562   3.675   6.935 -2.8883 -0.6259 -1.6993
 1717SOL    HW2 6051   6.615   3.821   6.885  0.1572 -0.3663  1.8298
 1718SOL     OW 6052   6.948   4.910   4.576  0.1593 -0.4578 -0.1648
 1718SOL    HW1 6053   6.963   4.947   4.484 -0.3641  0.7305  0.2113
 1718SOL    HW2 6054   7.035   4.907   4.625  0.1113  1.1141  0.0801
 1719SOL     OW 6055   0.026   1.427   4.564  0.1849  0.1309 -0.0840
 1719SOL    HW1 6056   0.062   1.520   4.554  0.2801  0.2206  1.0611
 1719SOL    HW2 6057   0.098   1.361   4.544  0.2221  0.3000 -0.5166
 1720SOL     OW 6058   1.879   4.883   3.994 -0.3279  0.7195  0.0731
 1720SOL    HW1 6059   1.814   4.930   4.053  0.3777  1.0715  0.5781
 1720SOL    HW2 6060   1.841   4.794   3.968 -0.8170  0.7264  0.7203
 1721SOL     OW 6061   5.590   1.005   4.851  0.2413  0.0285 -0.0034
 1721SOL    HW1 6062   5.622   1.097   4.869  1.4488 -0.1332 -1.1788
 1721SOL    HW2 6063   5.648   0.938   4.898 -1.0341 -0.1465  1.4043
 1722SOL     OW 6064   3.052   0.525   5.871 -0.0603 -0.7539 -0.9067
 1722SOL    HW1 6065   3.070   0.608   5.924  2.1328 -0.6340 -1.7549
 1722SOL    HW2 6066   3.107   0.525   5.788 -1.2082 -2.3365 -1.7286
 1723SOL     OW 6067   1.951   6.626   6.549 -0.3320  0.4625  0.2027
 1723SOL    HW1 6068   1.883   6.553   6.554  0.1446  0.0180  0.3091
 1723SOL    HW2 6069   2.009   6.623   6.631  0.2902  0.3595 -0.2328
 1724SOL     OW 6070   2.269   1.209   6.184 -0.4512  0.7422  0.1913
 1724SOL    HW1 6071   2.342   1.173   6.125  0.3332  1.6441  0.5742
 1724SOL    HW2 6072   2.257   1.149   6.262  0.9940  1.3659  0.9381
 1725SOL     OW 6073   3.079   5.145   1.080  0.2582 -0.9900  0.7918
 1725SOL    HW1 6074   2.987   5.142   1.041  0.5423  2.9356 -0.5412
 1725SOL    HW2 6075   3.074   5.172   1.176  0.0016 -1.2769  0.8591
 1726SOL     OW 6076   5.325   1.567   2.753  0.1552  0.3348  0.0981
 1726SOL    HW1 6077   5.311   1.648   2.809  0.1308 -0.7224  1.6989
 1726SOL    HW2 6078   5.326   1.486   2.812  2.6138 -0.6239 -1.1041
 1727SOL     OW 6079   4.355   6.222   6.244  0.2249 -0.3459  0.1604
 1727SOL    HW1 6080   4.380   6.262   6.333 -1.7182  0.2203  0.4899
 1727SOL    HW2 6081   4.404   6.135   6.232  1.9671  0.4865  0.9176
 1728SOL     OW 6082   4.918   2.208   3.746 -0.4020  0.6218 -0.3521
 1728SOL    HW1 6083   4.857   2.196   3.668 -0.5318 -1.7066  0.0599
 1728SOL    HW2 6084   4.914   2.128   3.805  1.2689  1.4375  0.9598
 1729SOL     OW 6085   5.267   0.140   5.956  0.5696  0.4294 -0.1542
 1729SOL    HW1 6086   5.241   0.101   5.868 -0.2661 -1.9451  1.0569
 1729SOL    HW2 6087   5.366   0.153   5.960  0.5838  0.8836 -1.5254
 1730SOL     OW 6088   0.644   5.715   0.857  0.0835  0.1990  0.1251
 1730SOL    HW1 6089   0.707   5.712   0.779 -0.7258  0.6875 -0.5719
 1730SOL    HW2 6090   0.638   5.809   0.891  0.1825  0.0467  0.5584
 1731SOL     OW 6091   5.649   1.389   3.258  0.5412  0.1333  0.2862
 1731SOL    HW1 6092   5.710   1.321   3.217  1.0860  0.5969  0.3232
 1731SOL    HW2 6093   5.555   1.371   3.228  0.9644  0.7284 -1.5462
 1732SOL     OW 6094   0.802   1.481   6.613 -0.4214  0.0263 -0.1034
 1732SOL    HW1 6095   0.704   1.501   6.602 -0.2623  1.5956  1.0044
 1732SOL    HW2 6096   0.832   1.510   6.704  1.1684 -0.1387 -0.5442
 1733SOL     OW 6097   5.311   5.666   3.567 -0.0563  0.4945  0.0492
 1733SOL    HW1 6098   5.242   5.637   3.634 -0.0208 -1.9113 -0.8608
 1733SOL    HW2 6099   5.269   5.728   3.501 -1.1798 -0.2812 -0.0042
 1734SOL     OW 6100   3.172   5.358   6.760  0.4496  0.4200  0.2466
 1734SOL    HW1 6101   3.135   5.379   6.669  0.6692  1.3726  0.3746
 1734SOL    HW2 6102   3.268   5.332   6.752  0.5426  0.7682  0.2386
 1735SOL     OW 6103   6.577   6.082   0.106  0.5331 -0.1272 -0.0086
 1735SOL    HW1 6104   6.631   6.005   0.072 -0.6424 -0.6041 -0.8546
 1735SOL    HW2 6105   6.490   6.049   0.142 -0.2427  0.8407 -0.9240
 1736SOL     OW 6106   2.365   5.416   6.308  0.2877 -0.6192  0.0224
 1736SOL    HW1 6107   2.370   5.484   6.382 -1.4357 -1.0940  0.6397
 1736SOL    HW2 6108   2.348   5.462   6.221  0.1673 -0.1880  0.2703
 1737SOL     OW 6109   6.042   6.238   2.436  0.0006 -0.3485 -0.1567
 1737SOL    HW1 6110   6.003   6.268   2.523 -0.9798 -0.7639 -0.4484
 1737SOL    HW2 6111   6.125   6.184   2.454 -0.2102 -0.4584  0.5173
 1738SOL     OW 6112   1.923   0.063   3.973  0.2163  0.4233  0.5964
 1738SOL    HW1 6113   1.917   0.126   3.896  0.8093 -0.0157  0.1801
 1738SOL    HW2 6114   1.832   0.035   4.002  0.0036 -0.6781 -1.0027
 1739SOL     OW 6115   3.068   6.652   3.077 -0.4456 -0.2908  0.0352
 1739SOL    HW1 6116   3.079   6.637   3.175 -0.8040  0.2027  0.1540
 1739SOL    HW2 6117   3.119   6.733   3.049 -1.0286  0.0635 -0.0236
 1740SOL     OW 6118   0.405   5.532   3.324 -0.0484 -0.0788  0.7362
 1740SOL    HW1 6119   0.430   5.628   3.340 -1.6393  0.3172  1.0362
 1740SOL    HW2 6120   0.395   5.517   3.225  1.1653 -0.2084  0.6224
 1741SOL     OW 6121   6.655   4.918   4.551 -0.0397  0.5786  0.4217
 1741SOL    HW1 6122   6.751   4.900   4.572  0.7380  1.9307 -1.7308
 1741SOL    HW2 6123   6.598   4.882   4.625  2.0527 -0.8362  1.4447
 1742SOL     OW 6124   5.763   6.878   4.161 -0.3026  0.0690  0.1120
 1742SOL    HW1 6125   5.799   6.803   4.106 -1.5715  0.8412 -1.9253
 1742SOL    HW2 6126   5.832   6.909   4.226  0.3817 -2.5550  0.7428
 1743SOL     OW 6127   3.131   3.947   5.450  0.0551 -0.4175  0.3391
 1743SOL    HW1 6128   3.227   3.919   5.452  1.1590  2.9602  1.0305
 1743SOL    HW2 6129   3.084   3.911   5.531  0.9581 -1.3598  0.4656
 1744SOL     OW 6130   2.744   2.587   0.198 -0.1938  0.0136 -0.2782
 1744SOL    HW1 6131   2.671   2.649   0.169 -1.6030 -0.3558  2.1365
 1744SOL    HW2 6132   2.815   2.639   0.247 -0.0910  0.0519 -0.4680
 1745SOL     OW 6133   6.729   1.855   6.256 -0.4307  0.2144  0.0791
 1745SOL    HW1 6134   6.654   1.921   6.262 -1.2970 -0.8229  1.0727
 1745SOL    HW2 6135   6.693   1.762   6.269  1.1752 -0.2274  1.7487
 1746SOL     OW 6136   0.330   1.531   6.464  0.5194  0.4572 -0.6811
 1746SOL    HW1 6137   0.412   1.529   6.406  1.6869  0.3618  0.9141
 1746SOL    HW2 6138   0.300   1.437   6.482 -0.2093  0.5010 -1.5936
 1747SOL     OW 6139   5.431   1.608   1.936 -0.1943 -0.0181  0.2393
 1747SOL    HW1 6140   5.481   1.541   1.881 -0.3192 -0.7719  1.0203
 1747SOL    HW2 6141   5.490   1.642   2.009 -0.3509  0.2196  0.2584
 1748SOL     OW 6142   3.242   6.312   1.125 -0.4835 -0.3344 -0.3422
 1748SOL    HW1 6143   3.149   6.286   1.102 -0.8468  1.0487 -0.5391
 1748SOL    HW2 6144   3.306   6.264   1.063 -1.0835 -0.8937 -0.5407
 1749SOL     OW 6145   3.967   3.891   3.670 -0.6299  0.1936 -0.2696
 1749SOL    HW1 6146   3.904   3.831   3.621 -1.1220  0.9680 -0.6240
 1749SOL    HW2 6147   3.917   3.940   3.742 -0.1416 -0.1526  0.3051
 1750SOL     OW 6148   2.272   6.051   6.655  0.3124 -0.3950 -0.2143
 1750SOL    HW1 6149   2.327   5.986   6.709  2.7935  1.8663  0.1746
 1750SOL    HW2 6150   2.326   6.084   6.578 -0.5666  1.7750  0.0452
 1751SOL     OW 6151   1.555   4.341   6.869  0.0331  0.7624  0.1266
 1751SOL    HW1 6152   1.466   4.305   6.840  1.0529 -1.1267 -0.8242
 1751SOL    HW2 6153   1.546   4.439   6.888 -2.2179  0.6476 -0.0185
 1752SOL     OW 6154   4.875   2.278   5.688  0.1741 -0.4126 -0.1799
 1752SOL    HW1 6155   4.962   2.318   5.718  1.2673 -0.6210 -2.7843
 1752SOL    HW2 6156   4.812   2.351   5.661  0.6353 -0.3254 -1.0355
 1753SOL     OW 6157   2.413   2.448   6.651  0.0053  0.1916 -0.2210
 1753SOL    HW1 6158   2.436   2.436   6.747 -0.8672 -2.5212 -0.2502
 1753SOL    HW2 6159   2.496   2.443   6.596  0.5378  2.0028  0.3673
 1754SOL     OW 6160   2.668   3.597   1.561  0.0296  0.2603  0.4632
 1754SOL    HW1 6161   2.586   3.546   1.586 -0.2823 -0.2467 -1.4827
 1754SOL    HW2 6162   2.748   3.554   1.603 -0.2145 -1.9323 -1.1543
 1755SOL     OW 6163   6.186   2.251   5.643  0.0821 -0.3038 -0.3575
 1755SOL    HW1 6164   6.102   2.199   5.659 -0.7657  1.1811  0.2016
 1755SOL    HW2 6165   6.248   2.198   5.586 -1.1377 -1.5254 -0.5859
 1756SOL     OW 6166   6.250   3.485   4.111 -0.1052  0.0729 -0.0875
 1756SOL    HW1 6167   6.172   3.484   4.173  0.3917 -1.6967  0.5669
 1756SOL    HW2 6168   6.230   3.429   4.031  1.5701 -3.1550  1.5879
 1757SOL     OW 6169   0.014   4.541   1.130 -0.3016  0.2944  0.1461
 1757SOL    HW1 6170   0.001   4.640   1.138 -0.8883  0.2860 -0.5695
 1757SOL    HW2 6171   0.027   4.502   1.221  1.0000  1.1569  0.3537
 1758SOL     OW 6172   3.220   6.293   3.195  0.6362  0.0005  0.0315
 1758SOL    HW1 6173   3.229   6.330   3.102  0.1517  0.8994  0.3346
 1758SOL    HW2 6174   3.306   6.307   3.244  0.2837  1.3050  0.3308
 1759SOL     OW 6175   4.656   5.052   2.089 -0.5970 -0.1733 -0.2864
 1759SOL    HW1 6176   4.573   5.042   2.034 -0.4916  2.6439 -1.1371
 1759SOL    HW2 6177   4.708   5.131   2.057  0.2138  0.7788  2.9377
 1760SOL     OW 6178   4.415   5.757   3.890  0.1218 -0.0371  0.2168
 1760SOL    HW1 6179   4.335   5.777   3.947  1.1568 -0.7458  1.9842
 1760SOL    HW2 6180   4.386   5.749   3.795 -2.3440 -2.5976  1.0307
 1761SOL     OW 6181   1.683   4.970   6.223 -0.1755 -0.5449 -0.0181
 1761SOL    HW1 6182   1.619   5.045   6.206  1.9195  1.0575 -1.3027
 1761SOL    HW2 6183   1.652   4.888   6.175 -0.9900  0.3421 -1.0612
 1762SOL     OW 6184   4.144   2.043   5.786 -0.4749 -0.0440  0.1868
 1762SOL    HW1 6185   4.058   2.094   5.784 -0.3020  0.2804  0.7360
 1762SOL    HW2 6186   4.220   2.105   5.768 -0.3413 -0.2967 -0.1227
 1763SOL     OW 6187   3.572   4.808   0.111  0.4038 -0.0679  0.7970
 1763SOL    HW1 6188   3.485   4.759   0.118  0.5945 -0.5606 -0.1408
 1763SOL    HW2 6189   3.638   4.769   0.174  0.6089 -1.1686 -0.0659
 1764SOL     OW 6190   6.657   4.502   6.889 -0.0611 -0.2119  0.6445
 1764SOL    HW1 6191   6.609   4.504   6.977  0.0024  0.3177  0.6698
 1764SOL    HW2 6192   6.657   4.594   6.849  1.3567 -0.0938  0.8674
 1765SOL     OW 6193   2.756   3.820   6.305  0.5499 -0.6516  0.3762
 1765SOL    HW1 6194   2.831   3.831   6.240  0.5241  1.0153  0.5655
 1765SOL    HW2 6195   2.733   3.910   6.344 -2.0626 -0.9541 -0.2710
 1766SOL     OW 6196   0.120   5.682   1.527 -0.0590 -0.0301 -0.3955
 1766SOL    HW1 6197   0.150   5.684   1.432  1.9932  0.6401  0.2157
 1766SOL    HW2 6198   0.197   5.655   1.586 -1.5343 -1.4004  1.0117
 1767SOL     OW 6199   6.736   6.847   1.184  0.5065  0.1885  0.3727
 1767SOL    HW1 6200   6.661   6.813   1.241  1.4420  1.1085  2.2152
 1767SOL    HW2 6201   6.721   6.817   1.089 -2.2110  0.3869  0.6532
 1768SOL     OW 6202   6.115   2.500   5.636 -0.4980  0.1612 -0.7186
 1768SOL    HW1 6203   6.147   2.405   5.632  2.1647  0.7561  2.5372
 1768SOL    HW2 6204   6.101   2.534   5.543  1.2045 -2.5482 -2.1058
 1769SOL     OW 6205   0.343   0.144   1.300 -0.2870 -0.6023 -0.7102
 1769SOL    HW1 6206   0.335   0.155   1.201 -2.3997  1.7464 -0.3936
 1769SOL    HW2 6207   0.280   0.071   1.330 -1.5247  0.3566 -0.8939
 1770SOL     OW 6208   2.603   0.859   4.051  0.1393  0.2629 -0.8381
 1770SOL    HW1 6209   2.666   0.864   4.128 -2.6599 -0.3426  1.7132
 1770SOL    HW2 6210   2.562   0.948   4.035  0.4082  0.2949 -1.3647
 1771SOL     OW 6211   3.794   1.448   6.596 -0.3417 -0.7650  0.2504
 1771SOL    HW1 6212   3.760   1.398   6.676 -1.2722  0.7429  0.8377
 1771SOL    HW2 6213   3.786   1.546   6.612  2.3526 -0.3586 -0.4797
 1772SOL     OW 6214   0.456   6.599   0.991  0.7019  0.6214  0.6322
 1772SOL    HW1 6215   0.430   6.557   0.904  1.9941 -0.5959  0.7946
 1772SOL    HW2 6216   0.541   6.651   0.979  0.3381  1.2987  0.9469
 1773SOL     OW 6217   0.865   0.738   5.477 -0.1441 -0.2467 -0.2489
 1773SOL    HW1 6218   0.959   0.729   5.509 -0.4045  0.4406  0.7790
 1773SOL    HW2 6219   0.802   0.717   5.552 -0.8169 -0.5308 -0.8740
 1774SOL     OW 6220   5.338   3.409   4.930 -0.0508 -0.1746  0.1592
 1774SOL    HW1 6221   5.292   3.418   4.841  0.9855 -0.0911 -0.3800
 1774SOL    HW2 6222   5.282   3.351   4.990 -1.8791  1.5559  0.2541
 1775SOL     OW 6223   6.128   3.021   0.165 -0.5030  0.0420  0.1563
 1775SOL    HW1 6224   6.050   3.068   0.123  1.0277 -0.0835 -3.0993
 1775SOL    HW2 6225   6.152   2.941   0.111  2.2017  0.3630  0.7384
 1776SOL     OW 6226   5.378   0.960   3.767  0.0140  0.2335 -0.2421
 1776SOL    HW1 6227   5.337   0.938   3.855 -0.4286 -0.5209 -0.6272
 1776SOL    HW2 6228   5.473   0.989   3.781 -0.3855  1.1961  0.5700
 1777SOL     OW 6229   1.179   6.565   1.757 -0.2642 -0.2394 -0.2625
 1777SOL    HW1 6230   1.153   6.471   1.776  2.3277 -1.1851 -0.9624
 1777SOL    HW2 6231   1.254   6.592   1.818  0.3595  0.6588 -1.3743
 1778SOL     OW 6232   2.807   2.938   1.235 -0.8606 -0.3546 -0.0336
 1778SOL    HW1 6233   2.863   3.012   1.272  0.0162 -1.1660  0.3074
 1778SOL    HW2 6234   2.866   2.874   1.185 -1.7686 -0.2430 -1.2793
 1779SOL     OW 6235   5.156   2.313   6.276 -0.3874 -0.1252 -0.4988
 1779SOL    HW1 6236   5.144   2.221   6.313 -1.7434  0.4130  0.4934
 1779SOL    HW2 6237   5.239   2.316   6.220 -0.7869 -2.1778 -1.2984
 1780SOL     OW 6238   1.931   0.937   1.257  0.1055 -0.0725 -0.1201
 1780SOL    HW1 6239   1.992   0.863   1.228 -0.4086 -0.7394  0.4602
 1780SOL    HW2 6240   1.836   0.908   1.243 -0.0956  0.8298 -0.7090
 1781SOL     OW 6241   4.221   4.838   0.204  0.1623 -0.8938  0.0517
 1781SOL    HW1 6242   4.290   4.896   0.247 -0.3134 -1.1415  1.1936
 1781SOL    HW2 6243   4.228   4.745   0.241  0.2428 -1.3168 -0.9936
 1782SOL     OW 6244   5.538   6.964   4.330 -0.3319  0.1770  0.3027
 1782SOL    HW1 6245   5.545   6.889   4.395 -3.0464 -0.8081 -0.4205
 1782SOL    HW2 6246   5.584   6.938   4.245 -0.9467 -0.5452  0.1805
 1783SOL     OW 6247   6.915   6.128   5.256 -0.3555 -0.4400 -0.0668
 1783SOL    HW1 6248   6.956   6.075   5.331  1.6257  1.2482  0.1407
 1783SOL    HW2 6249   6.976   6.127   5.178 -1.1808  0.0158 -0.7304
 1784SOL     OW 6250   2.811   1.470   4.303 -0.3340 -0.0714 -0.2292
 1784SOL    HW1 6251   2.781   1.424   4.220 -0.1136 -2.4611  0.9204
 1784SOL    HW2 6252   2.906   1.500   4.293 -0.6307  0.5870 -1.1628
 1785SOL     OW 6253   4.768   6.358   5.555  0.2175  0.0849 -0.3455
 1785SOL    HW1 6254   4.813   6.350   5.466  0.1386  0.8307 -0.4640
 1785SOL    HW2 6255   4.697   6.288   5.563 -0.2642  0.4604 -1.1681
 1786SOL     OW 6256   5.339   6.323   2.605  0.0528  0.3718 -0.2076
 1786SOL    HW1 6257   5.261   6.294   2.550  1.2841  0.0575 -1.8870
 1786SOL    HW2 6258   5.324   6.416   2.637 -0.6675  0.6105 -1.1806
 1787SOL     OW 6259   2.387   0.608   6.297 -0.8827  0.3585 -0.2682
 1787SOL    HW1 6260   2.290   0.593   6.280 -0.9131  0.8552 -0.5300
 1787SOL    HW2 6261   2.439   0.593   6.213 -0.7690  0.4362 -0.2120
 1788SOL     OW 6262   3.605   2.367   0.070 -0.0216 -0.2312  0.0293
 1788SOL    HW1 6263   3.508   2.343   0.065  0.0231 -0.9243  1.7570
 1788SOL    HW2 6264   3.614   2.463   0.096 -0.2638 -0.3761  0.6750
 1789SOL     OW 6265   6.963   4.081   3.518  0.0385  0.2329  0.4694
 1789SOL    HW1 6266   7.018   4.015   3.466 -2.5451 -2.4528  0.8589
 1789SOL    HW2 6267   7.004   4.097   3.607  1.7655  0.8082 -0.3821
 1790SOL     OW 6268   2.063   4.387   5.018 -0.3689 -0.0945  0.0783
 1790SOL    HW1 6269   2.015   4.455   5.073 -0.4350  1.2883 -1.6101
 1790SOL    HW2 6270   2.143   4.354   5.069 -0.5992  0.8957  1.1272
 1791SOL     OW 6271   5.617   0.096   5.659  0.2914 -0.2487  0.0650
 1791SOL    HW1 6272   5.616   0.178   5.602  0.0513 -1.2976 -1.5121
 1791SOL    HW2 6273   5.708   0.054   5.655  0.0078 -0.8329 -0.3085
 1792SOL     OW 6274   2.342   3.976   6.473  0.1222 -0.3430 -0.0862
 1792SOL    HW1 6275   2.301   3.966   6.382  0.7426 -0.6526 -0.3395
 1792SOL    HW2 6276   2.331   4.070   6.504 -0.1301 -0.2439 -0.4638
 1793SOL     OW 6277   6.153   0.859   0.807 -0.5363 -0.2167 -0.7112
 1793SOL    HW1 6278   6.088   0.920   0.763 -0.0172 -0.0805 -1.3053
 1793SOL    HW2 6279   6.147   0.768   0.766 -1.3748 -0.6107  0.2361
 1794SOL     OW 6280   5.110   2.983   0.150 -0.1345 -0.5947 -0.4132
 1794SOL    HW1 6281   5.136   3.041   0.227  1.8411 -1.9686  0.0412
 1794SOL    HW2 6282   5.027   3.019   0.107  0.6537  2.1448  0.2071
 1795SOL     OW 6283   3.073   2.674   0.876 -0.2921  0.4700 -0.1980
 1795SOL    HW1 6284   3.008   2.713   0.811 -2.6146 -2.6480 -0.0398
 1795SOL    HW2 6285   3.134   2.611   0.828  1.2722  1.7686  0.0045
 1796SOL     OW 6286   5.828   6.082   6.729 -0.4518  0.0914  0.2066
 1796SOL    HW1 6287   5.857   6.073   6.825  2.0163  1.2068 -0.3484
 1796SOL    HW2 6288   5.870   6.163   6.689  0.7263 -1.7200 -2.5462
 1797SOL     OW 6289   2.155   6.275   5.551 -0.5049 -0.2464  0.5337
 1797SOL    HW1 6290   2.112   6.187   5.533 -1.6742  0.1425  1.3392
 1797SOL    HW2 6291   2.167   6.324   5.465  0.4786 -1.3200  0.0375
 1798SOL     OW 6292   1.953   5.423   0.577 -0.1387 -0.5310 -0.3803
 1798SOL    HW1 6293   1.926   5.327   0.574  0.5450 -0.7057 -1.5144
 1798SOL    HW2 6294   1.872   5.481   0.571 -0.5647 -1.0264  0.4397
 1799SOL     OW 6295   0.285   5.879   0.637 -0.2229 -0.3914 -0.0599
 1799SOL    HW1 6296   0.206   5.860   0.579 -0.2522 -1.6280  0.3600
 1799SOL    HW2 6297   0.341   5.797   0.646  0.9217  0.3664 -0.0472
 1800SOL     OW 6298   0.797   5.710   5.597  0.1032 -0.8032 -0.2615
 1800SOL    HW1 6299   0.799   5.709   5.697 -0.9675 -0.9866 -0.2287
 1800SOL    HW2 6300   0.719   5.657   5.565 -0.0113 -0.1006 -1.1797
 1801SOL     OW 6301   4.422   1.937   3.056  0.1975 -0.1071 -0.2075
 1801SOL    HW1 6302   4.431   2.018   2.998 -2.1195  0.8843  0.6982
 1801SOL    HW2 6303   4.456   1.857   3.007  2.8046  1.3836 -1.0337
 1802SOL     OW 6304   3.409   0.592   5.713  0.1373 -0.5373 -0.1330
 1802SOL    HW1 6305   3.448   0.541   5.636  1.9040 -0.1148  0.4277
 1802SOL    HW2 6306   3.447   0.557   5.799 -0.8258 -0.1522  0.4684
 1803SOL     OW 6307   3.241   2.641   0.386 -0.5673 -0.1413 -0.0005
 1803SOL    HW1 6308   3.144   2.618   0.377 -0.5259  0.4144 -3.0174
 1803SOL    HW2 6309   3.252   2.740   0.388 -0.0187 -0.1707 -1.0237
 1804SOL     OW 6310   5.698   6.295   1.250 -0.3198 -0.6480  0.0464
 1804SOL    HW1 6311   5.753   6.254   1.178 -0.6818 -1.6378  0.3026
 1804SOL    HW2 6312   5.652   6.377   1.216  3.0461  1.5760  0.4577
 1805SOL     OW 6313   4.824   4.333   6.215 -0.0474  0.0658 -0.2057
 1805SOL    HW1 6314   4.728   4.305   6.210 -0.3426  1.1000 -0.5033
 1805SOL    HW2 6315   4.837   4.393   6.293  0.2193  0.4160 -0.5147
 1806SOL     OW 6316   3.154   3.715   3.479 -0.5501 -0.2746  0.0601
 1806SOL    HW1 6317   3.160   3.805   3.436  1.8819 -0.7476 -0.7522
 1806SOL    HW2 6318   3.237   3.698   3.533 -1.3974 -1.6652  1.0102
 1807SOL     OW 6319   1.853   4.052   5.174 -0.8806 -0.6672 -0.3269
 1807SOL    HW1 6320   1.930   4.048   5.111 -1.4347 -0.6697 -1.0238
 1807SOL    HW2 6321   1.885   4.073   5.266  0.0557 -1.6654 -0.4101
 1808SOL     OW 6322   5.399   4.600   5.651  0.3218 -0.1404  0.0487
 1808SOL    HW1 6323   5.413   4.501   5.640  0.8450 -0.1222  0.5350
 1808SOL    HW2 6324   5.320   4.628   5.597  0.8674 -0.6219 -1.0348
 1809SOL     OW 6325   6.730   1.781   3.018  0.0353 -0.5230  0.0234
 1809SOL    HW1 6326   6.646   1.835   3.007  0.3202  0.0095  0.4286
 1809SOL    HW2 6327   6.804   1.823   2.967 -0.0679 -1.3128 -0.8135
 1810SOL     OW 6328   5.319   3.570   5.554  0.4982 -0.5834 -0.1598
 1810SOL    HW1 6329   5.398   3.632   5.555  0.9924 -1.2015  0.6408
 1810SOL    HW2 6330   5.349   3.478   5.579 -0.4688 -0.8515  0.0474
 1811SOL     OW 6331   1.303   3.783   3.824 -0.1881  0.2152 -0.0094
 1811SOL    HW1 6332   1.398   3.793   3.852 -0.4112  0.3086  0.7178
 1811SOL    HW2 6333   1.245   3.769   3.904 -0.7059 -0.5121 -0.4916
 1812SOL     OW 6334   3.829   3.571   3.398 -0.0562  0.0902 -0.9615
 1812SOL    HW1 6335   3.891   3.494   3.377 -0.3505 -0.0596 -1.2984
 1812SOL    HW2 6336   3.815   3.625   3.316 -1.3630 -0.5986 -1.2273
 1813SOL     OW 6337   4.176   0.455   0.995  0.1594  0.0009 -0.3711
 1813SOL    HW1 6338   4.233   0.373   1.003 -0.7297 -0.5226  0.7227
 1813SOL    HW2 6339   4.233   0.536   1.010  0.5137 -0.5403  1.3704
 1814SOL     OW 6340   0.098   0.824   0.960  0.1637 -0.0731  0.4076
 1814SOL    HW1 6341   0.132   0.858   1.047 -0.1656 -0.4866  0.7035
 1814SOL    HW2 6342   0.006   0.786   0.972 -0.3399  0.8488 -0.3414
 1815SOL     OW 6343   2.022   5.316   1.678 -0.4498 -0.1732 -0.2881
 1815SOL    HW1 6344   2.056   5.355   1.593  0.3937 -0.5079 -0.1185
 1815SOL    HW2 6345   1.987   5.224   1.661  2.4884 -1.4837  0.1859
 1816SOL     OW 6346   6.774   1.932   0.641  0.4624 -0.2270 -0.7206
 1816SOL    HW1 6347   6.716   1.898   0.715  1.8739 -0.1095  0.4679
 1816SOL    HW2 6348   6.754   2.029   0.625  1.3866  0.2362  0.7628
 1817SOL     OW 6349   1.712   4.212   3.579  0.2163  0.2769  0.1461
 1817SOL    HW1 6350   1.665   4.294   3.545  1.2799  0.8053 -0.0716
 1817SOL    HW2 6351   1.773   4.176   3.508 -0.5129 -0.9363  0.1023
 1818SOL     OW 6352   0.338   1.749   6.596  0.4983 -0.4877 -0.3071
 1818SOL    HW1 6353   0.307   1.673   6.539 -2.3198  0.5246 -0.2676
 1818SOL    HW2 6354   0.325   1.727   6.693  0.3961 -0.2555 -0.2658
 1819SOL     OW 6355   2.331   2.702   5.223  0.0678  0.3901 -0.0689
 1819SOL    HW1 6356   2.362   2.788   5.181 -0.6315  0.2285 -0.9471
 1819SOL    HW2 6357   2.312   2.636   5.151 -0.6474 -0.0811  0.5464
 1820SOL     OW 6358   5.135   6.825   4.442  0.1741 -0.1649  0.0869
 1820SOL    HW1 6359   5.170   6.871   4.361  0.6964  0.3812  0.6180
 1820SOL    HW2 6360   5.207   6.817   4.510 -0.2513 -0.6448  0.4936
 1821SOL     OW 6361   5.816   1.614   6.069 -0.2461 -0.2815  0.1500
 1821SOL    HW1 6362   5.773   1.667   5.995  0.2490 -0.2925 -0.1491
 1821SOL    HW2 6363   5.856   1.676   6.136 -1.2150 -0.2605  0.7334
 1822SOL     OW 6364   0.295   1.512   2.727 -0.0485  0.0546  0.0282
 1822SOL    HW1 6365   0.221   1.466   2.776 -1.6848 -0.3140 -2.5836
 1822SOL    HW2 6366   0.379   1.457   2.735 -0.8966 -1.2497  0.3682
 1823SOL     OW 6367   0.310   3.858   6.000 -0.3772 -0.2098 -0.0909
 1823SOL    HW1 6368   0.268   3.911   6.073  0.6686  1.4009 -0.6136
 1823SOL    HW2 6369   0.401   3.827   6.028 -0.8648 -1.5242  0.1029
 1824SOL     OW 6370   1.598   3.866   3.076  0.0223 -0.1332 -0.2363
 1824SOL    HW1 6371   1.525   3.798   3.066 -0.2285  0.4908 -4.3422
 1824SOL    HW2 6372   1.685   3.819   3.092 -0.2978 -1.4181 -2.0032
 1825SOL     OW 6373   1.515   2.282   1.622 -0.3809 -0.1327 -0.0996
 1825SOL    HW1 6374   1.532   2.310   1.527  1.8629 -0.8676  0.0290
 1825SOL    HW2 6375   1.505   2.363   1.679  0.7645  0.3702 -0.5824
 1826SOL     OW 6376   6.248   3.442   1.930 -0.2473 -0.2505  0.2491
 1826SOL    HW1 6377   6.150   3.452   1.946 -0.3217  0.7944 -0.7021
 1826SOL    HW2 6378   6.298   3.487   2.004 -0.5143  0.3157  0.0946
 1827SOL     OW 6379   2.224   6.063   0.194  0.5066 -0.0723 -0.0825
 1827SOL    HW1 6380   2.172   6.035   0.275 -0.4356 -0.4776 -0.8015
 1827SOL    HW2 6381   2.202   6.158   0.172 -0.1420 -0.3261 -0.5409
 1828SOL     OW 6382   3.585   4.907   6.088  0.1743 -0.3464  0.2708
 1828SOL    HW1 6383   3.587   4.848   6.170  1.2417 -0.0934  0.4477
 1828SOL    HW2 6384   3.554   4.853   6.010  0.9829 -1.1277  0.4608
 1829SOL     OW 6385   4.250   4.183   6.185 -0.1520 -0.5544  0.2147
 1829SOL    HW1 6386   4.242   4.129   6.268 -1.6123  0.0594  0.4962
 1829SOL    HW2 6387   4.186   4.149   6.116 -1.0214  0.7119  0.3628
 1830SOL     OW 6388   4.271   1.890   3.529 -0.1416 -0.3536  0.7670
 1830SOL    HW1 6389   4.330   1.810   3.517  0.8250  0.4967 -0.3586
 1830SOL    HW2 6390   4.255   1.933   3.440 -0.7893  0.6071  1.3317
 1831SOL     OW 6391   0.316   0.478   4.682  0.3318  0.4753 -0.4369
 1831SOL    HW1 6392   0.375   0.554   4.711 -2.5345  2.8007 -0.0998
 1831SOL    HW2 6393   0.277   0.434   4.763  2.4243 -1.9140 -0.6063
 1832SOL     OW 6394   1.882   0.240   5.763 -0.1532  0.0922 -0.2757
 1832SOL    HW1 6395   1.807   0.237   5.697 -0.8540  3.2738  0.2140
 1832SOL    HW2 6396   1.879   0.326   5.814  2.3138 -0.8102  1.6357
 1833SOL     OW 6397   6.718   3.955   0.620  0.1007  0.0315 -0.0668
 1833SOL    HW1 6398   6.790   3.993   0.679 -1.0714  1.0521  0.7761
 1833SOL    HW2 6399   6.633   4.004   0.637 -0.5551 -0.4279 -1.8227
 1834SOL     OW 6400   5.972   1.383   2.676 -0.2003 -0.1318 -0.4290
 1834SOL    HW1 6401   6.062   1.422   2.656 -0.3749 -0.8363 -2.9535
 1834SOL    HW2 6402   5.983   1.287   2.703 -0.0892  0.3460  1.3222
 1835SOL     OW 6403   6.930   4.906   3.899  0.4969 -0.1704  0.2665
 1835SOL    HW1 6404   6.876   4.985   3.925 -0.3601 -0.4423 -0.6183
 1835SOL    HW2 6405   6.988   4.878   3.975 -2.0529 -1.0765  2.0132
 1836SOL     OW 6406   2.163   6.473   1.907  0.9353  0.2440  0.1465
 1836SOL    HW1 6407   2.126   6.479   1.814 -2.2636  2.1632  1.3719
 1836SOL    HW2 6408   2.172   6.565   1.946 -0.7082 -0.5469  2.6802
 1837SOL     OW 6409   2.341   1.666   0.500  0.0983 -0.3567 -0.2532
 1837SOL    HW1 6410   2.344   1.758   0.539 -1.8054  0.2156 -1.3166
 1837SOL    HW2 6411   2.431   1.643   0.463  1.2034  0.1530  1.9581
 1838SOL     OW 6412   5.250   2.671   4.082 -0.5819  0.1862  0.3860
 1838SOL    HW1 6413   5.171   2.684   4.022  0.6451  1.2396 -1.0780
 1838SOL    HW2 6414   5.305   2.754   4.084  0.8758 -0.7486  0.7886
 1839SOL     OW 6415   2.296   1.570   4.700  0.1849  0.1863  0.5689
 1839SOL    HW1 6416   2.216   1.554   4.758 -0.7058 -0.7417 -0.8815
 1839SOL    HW2 6417   2.296   1.507   4.623  0.5471  2.3115 -1.2797
 1840SOL     OW 6418   3.242   3.013   0.651 -0.1839 -0.0734  0.0817
 1840SOL    HW1 6419   3.266   2.916   0.650 -2.0189 -0.5709 -1.4435
 1840SOL    HW2 6420   3.142   3.023   0.654 -0.1467  1.6878 -1.8804
 1841SOL     OW 6421   0.714   1.167   1.881 -0.2600 -0.0772 -0.1926
 1841SOL    HW1 6422   0.675   1.078   1.859  0.6450 -0.4773 -0.2040
 1841SOL    HW2 6423   0.809   1.156   1.908  0.1905  1.0142 -1.2583
 1842SOL     OW 6424   0.812   5.994   3.532 -0.3953  0.0496  0.4380
 1842SOL    HW1 6425   0.803   5.897   3.555  0.4204 -0.0284  0.4690
 1842SOL    HW2 6426   0.742   6.047   3.581 -2.1293 -0.7371 -1.1128
 1843SOL     OW 6427   1.554   5.419   3.185 -0.2139 -0.7189 -0.0311
 1843SOL    HW1 6428   1.589   5.325   3.189  1.2124 -0.2136 -0.0007
 1843SOL    HW2 6429   1.512   5.435   3.096 -2.4249 -2.0168  0.7172
 1844SOL     OW 6430   3.618   6.835   3.351  0.4493 -0.2860  0.3647
 1844SOL    HW1 6431   3.594   6.926   3.317  0.2467 -0.0562  1.1049
 1844SOL    HW2 6432   3.623   6.837   3.451 -0.4174 -1.2916  0.4420
 1845SOL     OW 6433   2.156   3.883   0.493  0.4020 -0.4312 -0.4266
 1845SOL    HW1 6434   2.172   3.971   0.537  0.2558 -0.8732  0.5422
 1845SOL    HW2 6435   2.059   3.860   0.498  0.3089 -0.2883 -1.3902
 1846SOL     OW 6436   6.665   0.379   1.950  0.0462 -0.3501 -0.4119
 1846SOL    HW1 6437   6.639   0.284   1.966  0.5613 -0.4772 -0.3072
 1846SOL    HW2 6438   6.644   0.404   1.855  2.1970 -1.3595 -1.2306
 1847SOL     OW 6439   4.584   0.406   1.867 -0.2796 -0.4629  0.1544
 1847SOL    HW1 6440   4.667   0.376   1.821 -1.6392 -1.0104 -2.0998
 1847SOL    HW2 6441   4.607   0.442   1.958  2.5198  0.4558 -0.8098
 1848SOL     OW 6442   0.600   1.195   6.794  0.0530 -0.0920 -0.2232
 1848SOL    HW1 6443   0.549   1.269   6.751  1.1185  1.1841  0.6425
 1848SOL    HW2 6444   0.544   1.154   6.867  0.4271  1.7048  1.1386
 1849SOL     OW 6445   1.509   7.021   0.695 -0.4226  0.2830 -0.2309
 1849SOL    HW1 6446   1.533   7.059   0.606  1.7262 -2.0927 -0.7890
 1849SOL    HW2 6447   1.465   6.932   0.682 -0.7088  0.2190  1.0695
 1850SOL     OW 6448   0.207   3.384   2.690 -0.0566  0.3546 -0.0359
 1850SOL    HW1 6449   0.133   3.440   2.727 -0.2455  0.8026 -1.0434
 1850SOL    HW2 6450   0.196   3.290   2.720 -2.9712 -0.3197 -2.7577
 1851SOL     OW 6451   3.996   3.513   3.653 -0.2636 -1.0250  0.3025
 1851SOL    HW1 6452   4.013   3.493   3.750 -0.3812  0.4428  0.6541
 1851SOL    HW2 6453   3.932   3.589   3.646  2.9556  1.8494 -0.7868
 1852SOL     OW 6454   1.392   5.904   3.129 -0.1801  0.0673 -0.7821
 1852SOL    HW1 6455   1.376   6.000   3.151 -0.1182  0.0160 -0.5081
 1852SOL    HW2 6456   1.417   5.855   3.212 -1.1074 -0.3743 -0.7501
 1853SOL     OW 6457   3.058   2.423   0.198  0.1400  0.2644  0.2630
 1853SOL    HW1 6458   3.045   2.519   0.222 -2.1609 -0.4891  2.5337
 1853SOL    HW2 6459   2.973   2.386   0.160  1.0206 -0.8676 -0.6794
 1854SOL     OW 6460   6.778   0.768   1.643  0.0836 -0.0156  0.5015
 1854SOL    HW1 6461   6.857   0.778   1.704  2.1073 -0.0392 -1.9570
 1854SOL    HW2 6462   6.731   0.683   1.664  1.2834 -0.4882  1.4293
 1855SOL     OW 6463   5.745   3.583   2.564  0.1511  0.2607  0.6218
 1855SOL    HW1 6464   5.838   3.612   2.588 -0.2003  0.6887  1.5160
 1855SOL    HW2 6465   5.683   3.661   2.570 -0.4499 -0.2465  1.0725
 1856SOL     OW 6466   1.212   1.406   1.477 -0.3576  0.3880 -0.3326
 1856SOL    HW1 6467   1.212   1.406   1.577  2.2584 -0.6593 -0.2515
 1856SOL    HW2 6468   1.217   1.311   1.444 -1.3989  0.7086 -1.4808
 1857SOL     OW 6469   6.783   0.004   2.835 -0.3655 -0.2970 -0.1519
 1857SOL    HW1 6470   6.864   0.062   2.826 -0.9985  1.0459  2.0826
 1857SOL    HW2 6471   6.718   0.024   2.762  0.6592 -0.3379 -1.1002
 1858SOL     OW 6472   0.509   1.672   4.051 -0.1008  0.1543 -0.3693
 1858SOL    HW1 6473   0.477   1.577   4.054  1.8484 -0.5816 -1.3541
 1858SOL    HW2 6474   0.446   1.726   3.995 -1.2585 -0.5010  0.2347
 1859SOL     OW 6475   3.351   1.963   2.656  0.3489  0.0861  0.2490
 1859SOL    HW1 6476   3.355   1.915   2.568 -0.5574  1.2257 -0.4471
 1859SOL    HW2 6477   3.259   1.955   2.695 -0.5460  2.9728 -0.9623
 1860SOL     OW 6478   0.768   0.147   4.719 -0.4263  0.4057  0.0354
 1860SOL    HW1 6479   0.716   0.196   4.649  0.3382  1.8521  0.4442
 1860SOL    HW2 6480   0.738   0.177   4.810 -0.9906 -1.0159  0.3612
 1861SOL     OW 6481   4.934   2.180   0.066  0.4309 -0.1991 -0.0412
 1861SOL    HW1 6482   4.931   2.129  -0.020  0.4742 -0.9652  0.3950
 1861SOL    HW2 6483   4.845   2.222   0.083 -0.9187 -3.3487  1.4427
 1862SOL     OW 6484   0.638   5.091   1.945  0.4120  0.2691  0.0690
 1862SOL    HW1 6485   0.730   5.084   1.907  0.2603 -0.9129 -0.1353
 1862SOL    HW2 6486   0.638   5.060   2.040  0.2720  0.5168  0.1514
 1863SOL     OW 6487   2.991   4.809   6.864  0.4285  0.3459  0.4463
 1863SOL    HW1 6488   2.941   4.722   6.867  0.6564  0.0680 -1.7718
 1863SOL    HW2 6489   3.089   4.791   6.874  0.6822  0.0412 -2.0815
 1864SOL     OW 6490   1.816   5.111   4.738 -0.4226  0.0362  0.2104
 1864SOL    HW1 6491   1.837   5.205   4.712 -0.5253  0.5662  1.9092
 1864SOL    HW2 6492   1.716   5.100   4.741 -0.4097 -0.0289  0.3610
 1865SOL     OW 6493   2.995   2.092   5.024 -0.2404 -0.1735  0.1009
 1865SOL    HW1 6494   2.926   2.161   5.046  2.5325  1.8408  3.7403
 1865SOL    HW2 6495   3.085   2.127   5.050  2.1334 -3.0117 -3.4438
 1866SOL     OW 6496   1.256   4.719   1.294  0.2846  0.6040 -0.2775
 1866SOL    HW1 6497   1.227   4.625   1.279  3.6504 -0.3877 -1.2853
 1866SOL    HW2 6498   1.228   4.776   1.216 -1.2779  0.3943  0.0888
 1867SOL     OW 6499   4.373   5.319   3.073  0.2993  0.5367  0.1447
 1867SOL    HW1 6500   4.415   5.317   2.982  1.1251 -1.0802  0.5182
 1867SOL    HW2 6501   4.274   5.320   3.065  0.3549 -0.3209 -0.7879
 1868SOL     OW 6502   1.893   0.535   0.664 -0.0278  0.1541  0.1939
 1868SOL    HW1 6503   1.822   0.604   0.650 -0.0143  0.2196  0.4457
 1868SOL    HW2 6504   1.977   0.579   0.694  0.1112  0.0728 -0.0695
 1869SOL     OW 6505   2.804   0.751   6.788  0.5165 -0.5234  0.0762
 1869SOL    HW1 6506   2.745   0.748   6.869 -0.0810 -2.0034 -0.3669
 1869SOL    HW2 6507   2.746   0.760   6.706  1.0171 -0.3857 -0.2641
 1870SOL     OW 6508   4.586   2.066   4.441  0.6546 -0.0294  0.6515
 1870SOL    HW1 6509   4.638   1.995   4.394  2.9958  1.4581  0.8701
 1870SOL    HW2 6510   4.622   2.156   4.417 -2.5133  1.2109  0.0276
 1871SOL     OW 6511   1.186   1.514   6.049  0.3976  0.6994 -0.1056
 1871SOL    HW1 6512   1.282   1.515   6.076  0.3446 -2.0220  0.4581
 1871SOL    HW2 6513   1.144   1.427   6.074 -1.5697  0.7649 -2.6210
 1872SOL     OW 6514   0.359   3.883   0.292  0.4696 -0.2538  0.0244
 1872SOL    HW1 6515   0.334   3.835   0.376 -1.6121  0.9125  0.1249
 1872SOL    HW2 6516   0.349   3.982   0.306  0.5384 -0.0254 -1.4568
 1873SOL     OW 6517   6.072   0.890   6.621 -0.5575 -0.8573 -0.0222
 1873SOL    HW1 6518   6.170   0.900   6.638 -0.2875 -1.0194 -1.3662
 1873SOL    HW2 6519   6.058   0.826   6.545 -1.7215 -1.1671  0.4435
 1874SOL     OW 6520   2.745   6.332   1.481 -0.1472 -0.3534 -0.1330
 1874SOL    HW1 6521   2.763   6.413   1.537  1.0786 -0.6728 -0.0435
 1874SOL    HW2 6522   2.807   6.258   1.508  1.3745 -0.1388 -2.6870
 1875SOL     OW 6523   6.634   5.724   1.425  0.1129  0.6225 -0.3586
 1875SOL    HW1 6524   6.680   5.789   1.486  3.0012 -0.5309 -1.1478
 1875SOL    HW2 6525   6.668   5.632   1.443 -0.2633  0.0033 -2.5383
 1876SOL     OW 6526   5.382   6.695   4.583 -0.5195  0.1518 -0.1297
 1876SOL    HW1 6527   5.448   6.768   4.599 -1.3007  0.4277  2.3177
 1876SOL    HW2 6528   5.411   6.640   4.504  0.8080  2.2258 -1.1655
 1877SOL     OW 6529   5.833   4.667   4.665 -0.2307  0.2282 -0.4094
 1877SOL    HW1 6530   5.902   4.603   4.699 -0.4911  0.7493  1.1860
 1877SOL    HW2 6531   5.749   4.616   4.643 -0.1834 -0.0744  0.1056
 1878SOL     OW 6532   0.711   0.757   6.928 -0.4476 -0.0509 -0.0860
 1878SOL    HW1 6533   0.615   0.782   6.917 -0.8140 -0.5144  1.8107
 1878SOL    HW2 6534   0.759   0.829   6.978  0.0559 -0.1326 -0.4348
 1879SOL     OW 6535   1.946   3.678   6.002  0.7682  0.0353  0.1554
 1879SOL    HW1 6536   1.890   3.754   5.968  0.1491 -0.5197 -0.0786
 1879SOL    HW2 6537   1.898   3.592   5.988  1.0109 -0.3139  1.3606
 1880SOL     OW 6538   5.215   4.935   4.584  0.4198 -0.3797  0.4199
 1880SOL    HW1 6539   5.267   5.016   4.611  0.9056 -0.3614 -0.5294
 1880SOL    HW2 6540   5.132   4.930   4.638  0.7772  0.3074  1.0602
 1881SOL     OW 6541   2.396   6.148   6.446  0.1393 -0.3699 -0.3539
 1881SOL    HW1 6542   2.340   6.146   6.363  2.0145  1.1753 -1.7394
 1881SOL    HW2 6543   2.487   6.182   6.424  0.7626 -0.0831  2.3417
 1882SOL     OW 6544   0.290   1.397   0.278 -0.1397  0.0216  0.0840
 1882SOL    HW1 6545   0.205   1.443   0.252  0.0169  0.7277  0.7815
 1882SOL    HW2 6546   0.304   1.407   0.377  0.7110 -0.1707 -0.0132
 1883SOL     OW 6547   6.783   5.633   2.782  0.3918 -0.0335 -0.0623
 1883SOL    HW1 6548   6.690   5.633   2.819  0.5009  0.8786  0.2294
 1883SOL    HW2 6549   6.780   5.643   2.683  0.2019  1.4458  0.0694
 1884SOL     OW 6550   5.495   5.805   4.521  0.1863 -0.6006 -0.2075
 1884SOL    HW1 6551   5.475   5.835   4.614 -1.2869 -0.0264 -0.6767
 1884SOL    HW2 6552   5.422   5.835   4.460  0.6795 -1.7236 -1.4051
 1885SOL     OW 6553   1.227   4.508   4.908 -0.3965  0.1076 -0.1165
 1885SOL    HW1 6554   1.317   4.501   4.951  0.4538  0.5545 -1.7407
 1885SOL    HW2 6555   1.185   4.417   4.902 -0.8438  0.1059  2.1688
 1886SOL     OW 6556   3.639   1.040   5.428  0.1354  0.7756 -0.7051
 1886SOL    HW1 6557   3.695   0.978   5.483  2.7864  3.0394 -0.6079
 1886SOL    HW2 6558   3.563   1.074   5.483  0.8732  0.5436  0.4852
 1887SOL     OW 6559   5.909   3.183   1.384 -0.6603  0.9618 -0.5275
 1887SOL    HW1 6560   5.966   3.107   1.416 -0.1088  0.5321 -2.4133
 1887SOL    HW2 6561   5.831   3.146   1.333  1.0376  1.5732 -3.8462
 1888SOL     OW 6562   0.754   4.028   5.899 -0.6915 -0.1351 -0.0955
 1888SOL    HW1 6563   0.796   3.938   5.901 -1.5715 -0.5589 -0.2063
 1888SOL    HW2 6564   0.685   4.032   5.826 -1.1181  0.4044  0.3232
 1889SOL     OW 6565   4.741   6.197   6.829  0.0870  0.6522  0.2585
 1889SOL    HW1 6566   4.662   6.180   6.889 -0.7988 -0.0636 -1.0709
 1889SOL    HW2 6567   4.823   6.156   6.869 -0.3315  0.8554  1.3526
 1890SOL     OW 6568   0.734   0.978   2.444  0.0549  0.1248  0.2095
 1890SOL    HW1 6569   0.709   0.883   2.428  0.3105 -0.0917  1.0491
 1890SOL    HW2 6570   0.696   1.035   2.371  0.2280 -0.6642 -0.5163
 1891SOL     OW 6571   4.589   5.251   6.496 -0.3986  0.0054 -0.6424
 1891SOL    HW1 6572   4.665   5.224   6.436  0.0375 -2.3012  0.8592
 1891SOL    HW2 6573   4.540   5.327   6.453  0.1660 -1.1949 -3.6841
 1892SOL     OW 6574   5.412   2.085   1.777  0.1169 -0.1464 -0.1704
 1892SOL    HW1 6575   5.392   2.040   1.865  0.3802  0.2955  0.1155
 1892SOL    HW2 6576   5.326   2.102   1.729 -0.0605 -0.0048  0.1928
 1893SOL     OW 6577   4.455   1.935   0.265 -0.5137 -0.0524 -0.0691
 1893SOL    HW1 6578   4.541   1.885   0.273 -0.9882 -0.7426  0.9886
 1893SOL    HW2 6579   4.398   1.893   0.194 -1.1539 -1.4422  1.2116
 1894SOL     OW 6580   1.757   0.065   1.912 -0.2005  0.2734  0.3258
 1894SOL    HW1 6581   1.746   0.066   1.813  1.0684 -1.7062  0.1192
 1894SOL    HW2 6582   1.669   0.087   1.956 -0.7978  1.0637 -1.2104
 1895SOL     OW 6583   6.880   5.327   2.102  0.1248  0.1820  0.4455
 1895SOL    HW1 6584   6.855   5.402   2.040  0.1013 -0.6533 -0.5921
 1895SOL    HW2 6585   6.978   5.333   2.123 -0.0684  1.0539  1.1656
 1896SOL     OW 6586   0.948   5.624   6.230 -0.3577  0.5756 -0.2206
 1896SOL    HW1 6587   0.947   5.721   6.203  1.2619  0.6587 -0.0524
 1896SOL    HW2 6588   1.015   5.611   6.303 -2.6164 -0.1660  1.8603
 1897SOL     OW 6589   0.975   6.511   5.516  0.4875 -0.1564  0.5009
 1897SOL    HW1 6590   1.036   6.587   5.534  0.2402  0.5652 -1.4464
 1897SOL    HW2 6591   0.993   6.437   5.581  0.8899  1.4362  2.2870
 1898SOL     OW 6592   5.525   5.985   3.499 -0.2879  0.0657  0.1955
 1898SOL    HW1 6593   5.550   5.891   3.477 -1.0547 -0.5176  1.6492
 1898SOL    HW2 6594   5.544   6.003   3.596 -2.3313  0.6265  0.5396
 1899SOL     OW 6595   3.692   6.161   5.822  0.1362  0.6004  0.1775
 1899SOL    HW1 6596   3.767   6.135   5.760  0.3902 -0.5244  0.9319
 1899SOL    HW2 6597   3.608   6.115   5.793  0.2639  0.0421  0.6745
 1900SOL     OW 6598   6.658   1.655   1.790 -0.6135 -0.0793 -0.2870
 1900SOL    HW1 6599   6.581   1.715   1.811 -0.6812  0.0656 -0.9331
 1900SOL    HW2 6600   6.737   1.682   1.845 -1.0979 -0.4202  0.6036
 1901SOL     OW 6601   6.232   0.713   2.690 -0.2140 -0.7104 -0.2215
 1901SOL    HW1 6602   6.282   0.664   2.761 -1.0745 -2.7978 -0.9838
 1901SOL    HW2 6603   6.135   0.720   2.715 -0.2578 -0.1181 -0.5206
 1902SOL     OW 6604   4.432   4.674   6.179  0.7438  0.0900 -0.0021
 1902SOL    HW1 6605   4.451   4.752   6.239 -1.9081  0.2720  0.6928
 1902SOL    HW2 6606   4.337   4.677   6.149  1.4113 -1.2062 -2.5103
 1903SOL     OW 6607   2.342   5.363   0.605  0.6581  0.0650 -0.6520
 1903SOL    HW1 6608   2.426   5.414   0.587  1.6258 -1.5485 -0.8679
 1903SOL    HW2 6609   2.273   5.389   0.538  1.1512  1.0260 -0.8061
 1904SOL     OW 6610   4.000   3.813   4.614 -0.6679  0.7270 -0.2737
 1904SOL    HW1 6611   3.968   3.769   4.530  1.5956  0.1676 -0.9111
 1904SOL    HW2 6612   3.955   3.902   4.624  0.7996  1.9772 -3.4680
 1905SOL     OW 6613   0.700   5.701   1.504 -0.1128  0.1269 -0.6424
 1905SOL    HW1 6614   0.765   5.679   1.432 -0.7783 -0.8878 -0.9574
 1905SOL    HW2 6615   0.743   5.762   1.570  0.9691 -0.0732 -1.1380
 1906SOL     OW 6616   2.107   3.100   5.742  0.1132 -0.4082 -0.1865
 1906SOL    HW1 6617   2.196   3.065   5.774 -0.1156  0.8781  2.0605
 1906SOL    HW2 6618   2.115   3.198   5.724 -1.1214 -0.0026  1.3094
 1907SOL     OW 6619   2.716   3.004   1.658  0.1700 -0.2003  0.0740
 1907SOL    HW1 6620   2.662   3.087   1.674 -0.5969 -0.6014 -0.4173
 1907SOL    HW2 6621   2.806   3.016   1.700  0.2948  1.1356 -0.5016
 1908SOL     OW 6622   6.290   2.513   0.702  0.0221  0.4935  0.1920
 1908SOL    HW1 6623   6.331   2.498   0.612  1.3441  1.8497  0.5259
 1908SOL    HW2 6624   6.225   2.440   0.721  1.2544 -0.9881 -0.9679
 1909SOL     OW 6625   5.806   2.551   1.380 -0.1091  0.0976 -0.4742
 1909SOL    HW1 6626   5.879   2.482   1.380  1.4453  1.6123  1.7575
 1909SOL    HW2 6627   5.720   2.508   1.409  0.8883 -0.9258  1.1827
 1910SOL     OW 6628   6.630   7.021   6.022  0.3825 -0.7624 -0.0367
 1910SOL    HW1 6629   6.532   7.001   6.026 -0.0197  0.9419 -0.5150
 1910SOL    HW2 6630   6.679   6.942   5.984 -0.8465 -1.4792 -0.1837
 1911SOL     OW 6631   0.885   1.056   3.545 -0.5074 -0.4654 -0.1202
 1911SOL    HW1 6632   0.790   1.048   3.574 -1.1548  2.0404 -1.2579
 1911SOL    HW2 6633   0.945   1.029   3.620 -2.0982 -0.6435  1.1417
 1912SOL     OW 6634   4.158   4.682   0.006  0.1514 -0.2351 -1.0571
 1912SOL    HW1 6635   4.178   4.762   0.064 -0.3694 -0.9408  0.1399
 1912SOL    HW2 6636   4.065   4.690  -0.030 -0.0514 -0.4936 -0.5977
 1913SOL     OW 6637   5.166   4.963   6.401 -0.3641  0.3299  0.3092
 1913SOL    HW1 6638   5.156   4.867   6.375  1.8400  0.0205  0.4508
 1913SOL    HW2 6639   5.261   4.991   6.391 -1.0054  2.6084 -0.0086
 1914SOL     OW 6640   0.093   3.274   5.122 -0.1508  0.4364 -0.5519
 1914SOL    HW1 6641   0.063   3.215   5.048 -1.1423  0.6966 -0.3717
 1914SOL    HW2 6642   0.033   3.354   5.127 -0.0416  0.4662  0.4639
 1915SOL     OW 6643   4.061   0.451   5.011 -0.4021 -0.1024  0.2423
 1915SOL    HW1 6644   3.980   0.504   4.987 -1.9926 -1.8624  1.4538
 1915SOL    HW2 6645   4.034   0.368   5.059  2.1063 -1.0781  0.1337
 1916SOL     OW 6646   5.758   2.708   5.856  0.2685  0.0338 -0.0024
 1916SOL    HW1 6647   5.814   2.698   5.774  0.0578  0.2920 -0.1780
 1916SOL    HW2 6648   5.788   2.642   5.925  1.1332  0.5031  0.0937
 1917SOL     OW 6649   1.565   2.816   5.752 -0.2486 -0.2022 -0.4912
 1917SOL    HW1 6650   1.481   2.763   5.739 -1.3315  1.5799 -1.1182
 1917SOL    HW2 6651   1.611   2.827   5.664 -0.2473  0.2451 -0.4353
 1918SOL     OW 6652   2.662   4.655   2.263  0.0227  0.0024 -0.4236
 1918SOL    HW1 6653   2.671   4.571   2.317 -0.5167 -0.0495 -0.4013
 1918SOL    HW2 6654   2.724   4.652   2.185  0.9118  0.1368  0.2624
 1919SOL     OW 6655   6.060   6.241   6.629  0.0117  0.1725 -0.5963
 1919SOL    HW1 6656   6.109   6.183   6.564  2.6610  1.9185 -0.2831
 1919SOL    HW2 6657   6.054   6.334   6.593  1.7837  1.2495  1.6608
 1920SOL     OW 6658   4.707   5.829   0.077 -0.4494  0.6096  0.1058
 1920SOL    HW1 6659   4.719   5.761   0.005  1.2150  1.6905 -0.6920
 1920SOL    HW2 6660   4.753   5.798   0.160  0.4694  0.8307 -0.3131
 1921SOL     OW 6661   5.167   1.414   5.841 -0.3847 -0.0128 -0.0126
 1921SOL    HW1 6662   5.255   1.366   5.846 -0.8680 -0.8054  1.2611
 1921SOL    HW2 6663   5.162   1.466   5.755  0.0599 -2.4548 -1.6139
 1922SOL     OW 6664   4.314   0.351   2.524 -0.0201 -0.3187 -0.1222
 1922SOL    HW1 6665   4.267   0.368   2.437  1.8702 -0.7639 -1.3009
 1922SOL    HW2 6666   4.407   0.319   2.505  1.2806  1.8869  2.0734
 1923SOL     OW 6667   3.465   3.566   5.271 -0.2835 -0.4828  0.3025
 1923SOL    HW1 6668   3.435   3.630   5.201 -0.5144  2.2430  2.7174
 1923SOL    HW2 6669   3.565   3.567   5.277 -0.2176 -1.2366 -0.3508
 1924SOL     OW 6670   3.605   5.659   2.307 -0.3690 -0.1463 -0.8397
 1924SOL    HW1 6671   3.507   5.666   2.288 -0.8762  0.6529  1.6742
 1924SOL    HW2 6672   3.629   5.563   2.322 -0.8994 -0.2886 -0.8784
 1925SOL     OW 6673   4.612   5.360   4.444  0.5169  0.5615 -0.2788
 1925SOL    HW1 6674   4.681   5.406   4.388 -2.7506  3.6523 -2.1965
 1925SOL    HW2 6675   4.605   5.407   4.532  0.1985  0.8939 -0.4797
 1926SOL     OW 6676   1.050   1.428   2.585  0.2004 -0.5095  0.0142
 1926SOL    HW1 6677   1.026   1.383   2.499 -0.2669 -0.9119  0.3548
 1926SOL    HW2 6678   0.975   1.488   2.613 -0.1817 -1.3426  0.7951
 1927SOL     OW 6679   3.535   5.477   4.474 -0.0246 -0.1492  0.1320
 1927SOL    HW1 6680   3.614   5.420   4.497  0.6876  0.9020  0.4024
 1927SOL    HW2 6681   3.483   5.496   4.557  0.5650  0.7643  0.3111
 1928SOL     OW 6682   4.853   2.769   2.063  0.3653 -0.4548  0.3233
 1928SOL    HW1 6683   4.912   2.776   2.144  0.6803 -1.8300  0.2453
 1928SOL    HW2 6684   4.796   2.850   2.056  0.9761  0.0924  1.4210
 1929SOL     OW 6685   2.402   1.521   2.839  0.4247 -0.6401 -0.2448
 1929SOL    HW1 6686   2.366   1.444   2.891  3.1143 -1.8355  0.0100
 1929SOL    HW2 6687   2.463   1.488   2.768  0.3170  1.2096 -1.2546
 1930SOL     OW 6688   6.577   6.916   2.165  0.2883  0.0758 -0.7791
 1930SOL    HW1 6689   6.593   6.818   2.147 -0.2521  0.0694 -1.2619
 1930SOL    HW2 6690   6.479   6.933   2.167  0.3877  0.7332 -1.3747
 1931SOL     OW 6691   0.747   1.718   4.774 -0.4854  0.2008 -0.0761
 1931SOL    HW1 6692   0.688   1.694   4.697 -1.6542  1.2416  0.4696
 1931SOL    HW2 6693   0.691   1.741   4.854  0.5136  3.3237 -0.1267
 1932SOL     OW 6694   0.521   2.969   0.726  0.5245 -0.3222 -0.1009
 1932SOL    HW1 6695   0.565   3.048   0.769  1.0268  0.6855 -2.3014
 1932SOL    HW2 6696   0.449   3.001   0.665  0.0912 -1.6506 -0.3098
 1933SOL     OW 6697   1.485   0.943   6.345 -0.5347  0.0121  0.3136
 1933SOL    HW1 6698   1.546   0.878   6.299 -0.9599 -0.3734  0.2864
 1933SOL    HW2 6699   1.449   1.008   6.278 -0.2023  0.2038  0.3191
 1934SOL     OW 6700   6.476   4.534   6.113 -0.0231 -0.4179 -0.6781
 1934SOL    HW1 6701   6.528   4.521   6.197  0.3479 -0.9186 -0.9745
 1934SOL    HW2 6702   6.382   4.504   6.127  0.3590 -1.7658 -0.8032
 1935SOL     OW 6703   3.318   0.878   3.487 -0.1301  0.0321 -0.6050
 1935SOL    HW1 6704   3.319   0.802   3.422 -0.3159  0.4285 -1.0744
 1935SOL    HW2 6705   3.408   0.885   3.530  0.1838  0.1407 -1.2610
 1936SOL     OW 6706   0.144   0.570   5.199  0.5089  0.1974  0.7450
 1936SOL    HW1 6707   0.194   0.505   5.142  1.8052  0.1577  1.8627
 1936SOL    HW2 6708   0.210   0.627   5.249 -0.5935  0.9928  1.3291
 1937SOL     OW 6709   3.118   4.067   6.370  0.2953 -0.6249 -0.1087
 1937SOL    HW1 6710   3.184   4.062   6.295  0.7012 -1.0871  0.2678
 1937SOL    HW2 6711   3.065   3.982   6.374  0.1696 -0.5397  0.0292
 1938SOL     OW 6712   1.996   3.644   4.454 -0.1605 -0.7664 -0.1056
 1938SOL    HW1 6713   1.910   3.595   4.468 -0.2696 -0.4438  0.4184
 1938SOL    HW2 6714   2.052   3.637   4.537 -0.3365  0.2813  0.1187
 1939SOL     OW 6715   6.133   4.060   4.984  0.4014 -0.4689  0.3869
 1939SOL    HW1 6716   6.149   3.972   4.940  0.2652  0.6980 -2.1221
 1939SOL    HW2 6717   6.062   4.049   5.054 -1.4962 -1.8857 -1.6379
 1940SOL     OW 6718   6.756   5.909   6.533  0.3675  0.2559 -0.1317
 1940SOL    HW1 6719   6.728   5.883   6.440  0.7229 -2.0679  0.3476
 1940SOL    HW2 6720   6.849   5.877   6.549  0.3764  0.8117  0.9903
 1941SOL     OW 6721   4.106   5.964   1.533 -0.2802 -0.5535  0.2185
 1941SOL    HW1 6722   4.152   5.976   1.621  2.3035  0.2180 -1.1328
 1941SOL    HW2 6723   4.152   6.020   1.464 -4.0597  1.2601 -1.0801
 1942SOL     OW 6724   1.143   0.740   1.595  0.3404  0.0897 -1.0963
 1942SOL    HW1 6725   1.138   0.752   1.496  0.6306  1.3098 -0.9785
 1942SOL    HW2 6726   1.072   0.794   1.640  0.4411 -0.1620 -0.6194
 1943SOL     OW 6727   4.436   4.125   0.306  0.1766 -0.0930  0.1351
 1943SOL    HW1 6728   4.529   4.154   0.328 -0.0523  1.7442 -1.1095
 1943SOL    HW2 6729   4.371   4.187   0.349 -0.4922 -1.0202  0.5062
 1944SOL     OW 6730   0.197   1.968   2.080  0.1345 -0.2009  0.2428
 1944SOL    HW1 6731   0.205   1.951   2.178 -0.2442  0.6566  0.4312
 1944SOL    HW2 6732   0.278   2.018   2.048 -0.1661  0.3325  0.3065
 1945SOL     OW 6733   0.155   1.340   6.629 -0.5922 -0.8284  0.4658
 1945SOL    HW1 6734   0.168   1.344   6.728 -0.9964  1.2445  0.4997
 1945SOL    HW2 6735   0.099   1.418   6.600 -1.4768 -2.0313 -1.2707
 1946SOL     OW 6736   3.078   3.242   4.201  0.7058  0.6532  0.5159
 1946SOL    HW1 6737   3.083   3.146   4.228 -1.0764  0.6873  1.0635
 1946SOL    HW2 6738   3.027   3.293   4.269 -1.8621  1.2056 -1.6362
 1947SOL     OW 6739   5.888   1.807   3.463 -0.2318  0.0392  0.1112
 1947SOL    HW1 6740   5.954   1.880   3.446 -1.2232  0.7135 -0.8897
 1947SOL    HW2 6741   5.809   1.843   3.513 -0.1206 -0.6502  0.8192
 1948SOL     OW 6742   1.832   5.147   0.480  0.1056 -0.4217 -0.6407
 1948SOL    HW1 6743   1.748   5.134   0.534 -1.0917  3.2846 -1.3327
 1948SOL    HW2 6744   1.813   5.128   0.384  0.8674 -2.1150 -0.4965
 1949SOL     OW 6745   6.006   6.615   2.342  1.0455  0.6066  0.5035
 1949SOL    HW1 6746   6.005   6.524   2.300  0.9084  0.1363  1.4942
 1949SOL    HW2 6747   5.916   6.635   2.381  1.2088  0.9704  0.7004
 1950SOL     OW 6748   1.972   6.307   0.531 -0.1605  0.6013 -0.1656
 1950SOL    HW1 6749   1.951   6.244   0.456 -1.3531  0.1214  0.5614
 1950SOL    HW2 6750   2.072   6.314   0.540  0.0117  0.5068 -1.6493
 1951SOL     OW 6751   6.761   5.412   6.226 -0.5405 -0.0912  0.5123
 1951SOL    HW1 6752   6.715   5.348   6.164 -3.3299  1.4799  0.7976
 1951SOL    HW2 6753   6.754   5.378   6.320  0.2219 -0.5411  0.4211
 1952SOL     OW 6754   6.018   2.805   5.287 -0.5861  0.1190  0.0735
 1952SOL    HW1 6755   5.992   2.828   5.193 -0.1420  0.3435  0.0064
 1952SOL    HW2 6756   5.944   2.831   5.349 -0.8516  0.0331 -0.2063
 1953SOL     OW 6757   1.880   4.940   4.534 -0.1536 -0.0899 -0.3344
 1953SOL    HW1 6758   1.859   5.002   4.610 -0.7344 -0.1722 -0.4277
 1953SOL    HW2 6759   1.921   4.856   4.570 -1.1566 -0.4650 -0.0317
 1954SOL     OW 6760   4.382   5.200   1.696  0.6176  0.1083 -0.0130
 1954SOL    HW1 6761   4.296   5.217   1.743  1.2702  0.3944  1.1337
 1954SOL    HW2 6762   4.442   5.280   1.704  1.6188 -0.6776  0.6854
 1955SOL     OW 6763   3.573   6.637   0.280  0.2519  0.9158 -0.3183
 1955SOL    HW1 6764   3.521   6.705   0.229 -0.0969  1.2346  0.4508
 1955SOL    HW2 6765   3.662   6.623   0.236  1.0830  3.1825  0.4650
 1956SOL     OW 6766   3.273   1.624   4.569  0.2269 -0.2118  0.2088
 1956SOL    HW1 6767   3.215   1.663   4.641 -1.5025 -0.4115 -1.0045
 1956SOL    HW2 6768   3.320   1.543   4.604 -0.4133 -0.1729  1.1856
 1957SOL     OW 6769   6.179   1.766   5.962 -0.3575 -0.4503  0.4643
 1957SOL    HW1 6770   6.224   1.713   5.890  0.2353 -0.6490  0.9692
 1957SOL    HW2 6771   6.219   1.742   6.051 -1.9255 -1.1352  1.0225
 1958SOL     OW 6772   0.571   1.016   2.663 -0.2155  0.2297 -0.5711
 1958SOL    HW1 6773   0.507   1.093   2.665  0.5135  0.8329 -0.0991
 1958SOL    HW2 6774   0.638   1.031   2.590  1.9116  1.7116  1.5347
 1959SOL     OW 6775   4.533   4.161   6.934  0.1122 -0.4306  0.2310
 1959SOL    HW1 6776   4.535   4.159   6.834  1.2186  1.6219  0.1461
 1959SOL    HW2 6777   4.438   4.158   6.966 -0.3588  0.5729 -0.9846
 1960SOL     OW 6778   2.924   4.273   6.281  0.3589  0.1297  0.2166
 1960SOL    HW1 6779   2.995   4.207   6.303 -0.4859 -0.3901  1.5135
 1960SOL    HW2 6780   2.835   4.226   6.279 -0.1750  1.1063  0.5403
 1961SOL     OW 6781   3.245   0.034   1.594 -0.3786 -0.5921 -0.1677
 1961SOL    HW1 6782   3.300  -0.041   1.629  0.7116  0.7174  1.0620
 1961SOL    HW2 6783   3.149   0.007   1.590 -0.5471 -1.0204  3.4845
 1962SOL     OW 6784   5.063   1.201   6.957 -0.0401 -0.1548  0.8477
 1962SOL    HW1 6785   5.114   1.118   6.938  1.3018  0.2026  2.6666
 1962SOL    HW2 6786   5.118   1.263   7.014 -0.8219  2.1679 -0.7399
 1963SOL     OW 6787   4.776   5.803   1.598 -0.3802 -0.5091  0.0803
 1963SOL    HW1 6788   4.821   5.815   1.687 -1.1956 -1.2687  0.6113
 1963SOL    HW2 6789   4.805   5.716   1.558  2.1567  1.0145 -1.7463
 1964SOL     OW 6790   5.774   3.436   5.834  0.6188 -0.1273  0.5148
 1964SOL    HW1 6791   5.690   3.490   5.825  1.3706  0.9842 -0.1757
 1964SOL    HW2 6792   5.851   3.497   5.853  1.7595 -0.7500 -1.7573
 1965SOL     OW 6793   0.201   0.040   6.999  0.0727 -0.1049  0.1994
 1965SOL    HW1 6794   0.161   0.086   6.920 -0.6549 -0.9267  0.0739
 1965SOL    HW2 6795   0.299   0.027   6.984 -0.0950 -0.4240 -0.6655
 1966SOL     OW 6796   5.634   1.998   1.206 -0.6160 -0.8743  0.1411
 1966SOL    HW1 6797   5.650   2.088   1.165  0.9857 -1.3258 -0.3141
 1966SOL    HW2 6798   5.634   2.007   1.306  2.2534 -0.6646  0.2311
 1967SOL     OW 6799   3.204   3.665   0.262 -0.1518  0.2101  0.3606
 1967SOL    HW1 6800   3.286   3.609   0.272 -1.4413 -1.9047  0.0061
 1967SOL    HW2 6801   3.223   3.743   0.203  1.7456  0.1604  0.8549
 1968SOL     OW 6802   2.671   1.960   3.169 -0.1674 -0.0382  0.4477
 1968SOL    HW1 6803   2.700   1.865   3.155 -0.0140  0.0659  0.0352
 1968SOL    HW2 6804   2.579   1.972   3.131 -0.2534 -0.0631  0.6488
 1969SOL     OW 6805   2.847   6.754   3.391 -0.0425  0.0392  0.1452
 1969SOL    HW1 6806   2.857   6.809   3.475 -1.6819 -2.2082  1.9440
 1969SOL    HW2 6807   2.931   6.702   3.375  0.0900  0.0835  0.6747
 1970SOL     OW 6808   1.855   2.768   5.043 -0.0028 -0.8387  0.0877
 1970SOL    HW1 6809   1.943   2.740   5.004 -0.2785  0.3615 -1.4718
 1970SOL    HW2 6810   1.840   2.719   5.129  2.3229 -0.8334  0.5620
 1971SOL     OW 6811   1.200   6.590   5.254  0.0743 -0.4434 -0.1513
 1971SOL    HW1 6812   1.123   6.617   5.312  1.1593 -0.5517  1.3914
 1971SOL    HW2 6813   1.165   6.554   5.168 -1.6072 -0.6965  0.5917
 1972SOL     OW 6814   2.563   2.866   0.846  0.4941 -0.8864 -0.4310
 1972SOL    HW1 6815   2.469   2.901   0.855  0.3650 -0.8264 -1.7840
 1972SOL    HW2 6816   2.627   2.934   0.881 -0.0110 -1.6461  2.2039
 1973SOL     OW 6817   1.771   0.310   2.281 -0.2395 -0.2936  0.1485
 1973SOL    HW1 6818   1.795   0.404   2.259 -0.1110 -0.1651  0.7974
 1973SOL    HW2 6819   1.854   0.257   2.296 -0.3045 -0.5804 -0.4675
 1974SOL     OW 6820   4.727   5.438   3.714 -0.4485 -0.0037  0.2300
 1974SOL    HW1 6821   4.711   5.533   3.740  0.5365  0.1946  0.1625
 1974SOL    HW2 6822   4.790   5.395   3.779  1.4629  0.2877 -1.3121
 1975SOL     OW 6823   0.013   4.446   0.296  0.3799 -0.5090  0.0594
 1975SOL    HW1 6824  -0.046   4.367   0.277  1.6014 -1.3226 -0.4228
 1975SOL    HW2 6825  -0.036   4.529   0.270 -0.8565 -1.0961  0.3929
 1976SOL     OW 6826   0.553   5.461   4.180 -0.2472  0.3288  0.2202
 1976SOL    HW1 6827   0.610   5.492   4.255 -0.9343  0.4938  0.6898
 1976SOL    HW2 6828   0.610   5.439   4.101  0.5375 -0.3765  0.9645
 1977SOL     OW 6829   4.473   2.099   6.641  0.1402 -0.1189 -0.4013
 1977SOL    HW1 6830   4.506   2.004   6.640 -0.0856 -0.1939 -0.7528
 1977SOL    HW2 6831   4.500   2.145   6.557 -1.2263 -0.3860 -1.0070
 1978SOL     OW 6832   2.111   1.258   6.883  0.2046  0.6648  0.0313
 1978SOL    HW1 6833   2.012   1.254   6.878  0.2978 -0.6712 -2.0523
 1978SOL    HW2 6834   2.141   1.354   6.883 -1.0638  1.0712 -0.0144
 1979SOL     OW 6835   3.446   4.050   5.515  0.1015 -0.0453  0.1504
 1979SOL    HW1 6836   3.528   4.033   5.460  3.1676  1.0476  3.9479
 1979SOL    HW2 6837   3.409   4.140   5.492  0.7996  0.0345 -0.7200
 1980SOL     OW 6838   4.766   5.435   1.611 -0.6678  0.2309  0.2338
 1980SOL    HW1 6839   4.777   5.477   1.521  0.0175 -2.1788 -0.9035
 1980SOL    HW2 6840   4.846   5.455   1.667  0.2843 -0.6415 -0.7754
 1981SOL     OW 6841   5.034   4.610   3.534 -0.1307  0.0323 -0.3948
 1981SOL    HW1 6842   5.035   4.706   3.562 -1.6696 -0.3080  0.9706
 1981SOL    HW2 6843   4.965   4.598   3.462  0.1492 -0.0314 -0.6528
 1982SOL     OW 6844   4.624   5.491   0.582 -0.3149  0.3424 -0.3498
 1982SOL    HW1 6845   4.672   5.412   0.621 -0.5090  0.9902  1.2944
 1982SOL    HW2 6846   4.607   5.475   0.485 -0.8668 -1.9009  0.0540
 1983SOL     OW 6847   4.589   1.113   0.103  0.6045 -0.5964  0.2888
 1983SOL    HW1 6848   4.555   1.055   0.029  1.8254  1.5242 -2.1187
 1983SOL    HW2 6849   4.676   1.076   0.137  0.3813 -1.2197  0.1937
 1984SOL     OW 6850   5.290   4.880   5.598  1.0293  0.1574 -0.4475
 1984SOL    HW1 6851   5.386   4.865   5.572  0.7345  0.8828 -1.9905
 1984SOL    HW2 6852   5.231   4.820   5.544  0.3895  1.8575 -1.6970
 1985SOL     OW 6853   5.112   5.127   2.092 -0.1899  0.4148  0.5654
 1985SOL    HW1 6854   5.093   5.090   2.001 -0.2194 -0.3118  0.8556
 1985SOL    HW2 6855   5.210   5.121   2.110 -0.1022  1.1149  0.3541
 1986SOL     OW 6856   3.592   2.806   0.788 -0.3902 -0.8425  0.7322
 1986SOL    HW1 6857   3.638   2.851   0.711 -0.3479 -2.0113  0.0530
 1986SOL    HW2 6858   3.510   2.760   0.756 -2.1436  1.2614  1.9459
 1987SOL     OW 6859   2.017   3.292   5.090 -0.5626  0.2587 -0.3504
 1987SOL    HW1 6860   2.000   3.389   5.071 -2.2549 -0.0562 -0.6005
 1987SOL    HW2 6861   1.944   3.256   5.149 -0.1690 -0.9479 -0.5789
 1988SOL     OW 6862   6.917   3.406   5.482  0.1216 -0.5683  0.3771
 1988SOL    HW1 6863   6.867   3.396   5.569 -1.3196 -1.9353 -0.5401
 1988SOL    HW2 6864   6.851   3.405   5.406  1.5226 -2.9563 -0.9311
 1989SOL     OW 6865   1.825   2.922   4.642  0.5616 -0.3016 -0.3247
 1989SOL    HW1 6866   1.769   2.978   4.704 -1.0355 -0.3732 -1.6400
 1989SOL    HW2 6867   1.909   2.971   4.621  1.1174 -0.2288  1.7881
 1990SOL     OW 6868   5.969   2.339   1.302 -0.3115  0.2848 -0.0005
 1990SOL    HW1 6869   6.010   2.249   1.283 -0.1000  0.6451 -1.3344
 1990SOL    HW2 6870   5.975   2.396   1.220  0.0998  1.7387  1.0075
 1991SOL     OW 6871   6.253   1.885   5.581 -0.3489  0.0782  0.1052
 1991SOL    HW1 6872   6.275   1.926   5.493  0.7747 -0.6040  0.0540
 1991SOL    HW2 6873   6.170   1.928   5.618  0.0850  1.5048 -0.5110
 1992SOL     OW 6874   5.456   5.044   5.980 -0.0811 -0.6078 -0.4070
 1992SOL    HW1 6875   5.371   4.994   5.995  0.2280 -0.8534  0.5451
 1992SOL    HW2 6876   5.533   4.993   6.018  0.4241 -0.0987 -0.7221
 1993SOL     OW 6877   3.812   0.344   5.584  0.1928 -1.6225  0.6010
 1993SOL    HW1 6878   3.762   0.364   5.668  1.4088 -0.5444  1.1076
 1993SOL    HW2 6879   3.748   0.340   5.507 -0.8482 -1.9242  1.4669
 1994SOL     OW 6880   3.296   6.934   6.226  0.0707  0.1882 -0.3076
 1994SOL    HW1 6881   3.319   7.030   6.244  0.5148  0.1539 -0.6837
 1994SOL    HW2 6882   3.370   6.875   6.257 -1.1256 -0.2178  1.9601
 1995SOL     OW 6883   2.994   3.147   3.352  0.5587 -0.6576  0.8249
 1995SOL    HW1 6884   2.985   3.219   3.284 -0.0249 -1.8280 -0.3884
 1995SOL    HW2 6885   2.955   3.177   3.439  1.2727  0.8461  0.6578
 1996SOL     OW 6886   5.216   0.779   3.636  0.0044 -0.0234  0.2354
 1996SOL    HW1 6887   5.243   0.873   3.658 -1.3604 -0.1850  3.0776
 1996SOL    HW2 6888   5.117   0.770   3.648 -0.7240 -0.7949 -4.4721
 1997SOL     OW 6889   4.075   6.048   2.679  0.9845  0.0559 -0.0845
 1997SOL    HW1 6890   4.092   5.981   2.751  0.2163 -0.7117 -0.6089
 1997SOL    HW2 6891   4.096   6.008   2.590  0.1598  0.3883 -0.4329
 1998SOL     OW 6892   6.872   2.320   3.313  0.1790 -0.1085  0.1614
 1998SOL    HW1 6893   6.961   2.344   3.351 -0.2735  1.6076  0.2368
 1998SOL    HW2 6894   6.866   2.353   3.219 -0.9287  1.2775  0.6778
 1999SOL     OW 6895   6.107   3.755   4.838  0.3171  0.0448  0.3672
 1999SOL    HW1 6896   6.031   3.704   4.878  0.5456 -0.9965 -0.4857
 1999SOL    HW2 6897   6.083   3.787   4.747  0.9913 -0.5766 -0.0462
 2000SOL     OW 6898   4.567   4.910   5.252 -0.1954  0.3445  0.1227
 2000SOL    HW1 6899   4.479   4.955   5.261  0.8634  2.3604  1.2526
 2000SOL    HW2 6900   4.629   4.944   5.323  0.9904 -2.2983  0.4775
 2001SOL     OW 6901   2.662   3.721   0.152 -0.5037 -0.2688 -0.2707
 2001SOL    HW1 6902   2.647   3.809   0.108 -0.2822 -0.9542 -1.8097
 2001SOL    HW2 6903   2.652   3.730   0.251 -1.3896  1.2718 -0.4740
 2002SOL     OW 6904   0.136   2.904   1.973  0.2297  0.1261 -0.0351
 2002SOL    HW1 6905   0.113   2.850   1.892 -2.3320 -0.1356  0.7882
 2002SOL    HW2 6906   0.079   2.986   1.977  0.9571  0.6088  1.0482
 2003SOL     OW 6907   4.763   6.082   0.196 -0.5730  0.2261  0.4781
 2003SOL    HW1 6908   4.812   6.003   0.233  0.8363 -0.2084 -2.0951
 2003SOL    HW2 6909   4.733   6.062   0.103 -0.8906  2.4524  0.0555
 2004SOL     OW 6910   3.466   6.223   6.102  0.7871  0.2980  0.2078
 2004SOL    HW1 6911   3.387   6.221   6.041  1.4875  1.3300 -0.7991
 2004SOL    HW2 6912   3.471   6.312   6.147  0.8848 -0.0756  0.9500
 2005SOL     OW 6913   0.399   2.419   1.983  0.2224  0.0882 -0.5632
 2005SOL    HW1 6914   0.319   2.459   2.028  1.1052 -0.0998  1.2573
 2005SOL    HW2 6915   0.482   2.456   2.023  1.0634 -0.1790 -2.0091
 2006SOL     OW 6916   0.540   6.533   4.201 -0.0878 -0.0082  0.3850
 2006SOL    HW1 6917   0.524   6.440   4.170 -0.9530  0.5115 -0.8487
 2006SOL    HW2 6918   0.452   6.581   4.211  0.3724  0.9901 -0.1191
 2007SOL     OW 6919   5.548   3.458   6.649  0.1115 -0.1637  0.3617
 2007SOL    HW1 6920   5.611   3.382   6.634  1.0962  0.5443  0.7932
 2007SOL    HW2 6921   5.454   3.423   6.651  0.3855 -1.1314 -1.1493
 2008SOL     OW 6922   3.290   4.493   5.895 -0.0450 -0.0339 -0.0858
 2008SOL    HW1 6923   3.371   4.485   5.836 -0.2447 -2.4935 -0.1262
 2008SOL    HW2 6924   3.235   4.410   5.887 -0.1274 -0.4720  3.4999
 2009SOL     OW 6925   0.419   6.852   0.311 -0.1327 -0.0430  0.5355
 2009SOL    HW1 6926   0.374   6.763   0.294 -0.8779  0.8538 -3.2319
 2009SOL    HW2 6927   0.352   6.925   0.297  1.4206  1.2055 -0.6249
 2010SOL     OW 6928   3.670   5.985   0.310 -0.0939 -0.0283 -0.0015
 2010SOL    HW1 6929   3.604   6.045   0.264  0.5690 -0.1143 -1.0836
 2010SOL    HW2 6930   3.762   6.002   0.274  0.3601 -0.4830  0.9176
 2011SOL     OW 6931   5.366   0.046   2.613 -0.0944  0.3211 -0.8143
 2011SOL    HW1 6932   5.321   0.130   2.582  0.4451  1.6532  1.7641
 2011SOL    HW2 6933   5.460   0.067   2.638  0.0340 -1.0676 -0.0939
 2012SOL     OW 6934   1.475   5.532   3.928 -0.0135 -0.3811  0.3389
 2012SOL    HW1 6935   1.534   5.567   3.855 -1.0055  0.1799 -0.2274
 2012SOL    HW2 6936   1.517   5.549   4.017  1.1463 -0.9344 -0.0818
 2013SOL     OW 6937   5.055   1.124   6.257  0.3572 -0.8058 -0.3357
 2013SOL    HW1 6938   5.139   1.165   6.293  1.7685 -2.9348 -0.9813
 2013SOL    HW2 6939   5.039   1.157   6.164  0.3990 -0.2734 -0.1556
 2014SOL     OW 6940   0.076   3.630   0.304  0.3615  0.1696 -0.8171
 2014SOL    HW1 6941   0.140   3.673   0.367 -0.0567  0.4713 -0.5960
 2014SOL    HW2 6942   0.072   3.683   0.220  0.0685  0.3977 -0.6592
 2015SOL     OW 6943   3.446   3.566   3.367 -0.0490 -0.1050  0.3102
 2015SOL    HW1 6944   3.516   3.495   3.366  3.3085  2.8853 -1.6730
 2015SOL    HW2 6945   3.426   3.594   3.273 -2.2853  0.6978  0.9677
 2016SOL     OW 6946   4.340   0.905   0.337 -0.0496 -0.5356  0.5524
 2016SOL    HW1 6947   4.251   0.928   0.377  0.1940  0.6387  0.4705
 2016SOL    HW2 6948   4.399   0.986   0.339  0.0796 -0.4980 -1.9241
 2017SOL     OW 6949   6.702   4.303   1.282 -0.0355  0.0755 -0.1300
 2017SOL    HW1 6950   6.714   4.261   1.192  2.3134  1.3665 -0.4935
 2017SOL    HW2 6951   6.764   4.259   1.348 -0.3760  0.3835  0.4017
 2018SOL     OW 6952   5.387   0.505   6.413  0.7505 -0.1077  0.8156
 2018SOL    HW1 6953   5.325   0.430   6.436 -1.0589  0.6960 -1.1245
 2018SOL    HW2 6954   5.349   0.591   6.448  0.1869  0.5279 -1.2347
 2019SOL     OW 6955   0.233   3.469   1.484  0.7047  0.0418  0.0266
 2019SOL    HW1 6956   0.324   3.436   1.508 -0.2972 -2.7077  0.4336
 2019SOL    HW2 6957   0.177   3.392   1.451 -1.2846  1.7516 -0.8490
 2020SOL     OW 6958   6.821   5.391   5.241  0.0553 -0.3628  0.3180
 2020SOL    HW1 6959   6.859   5.471   5.195  0.1448 -0.5887 -0.0033
 2020SOL    HW2 6960   6.857   5.308   5.199 -0.3561 -0.5745  0.3809
 2021SOL     OW 6961   4.287   6.819   0.080 -0.0795  0.4525  0.0996
 2021SOL    HW1 6962   4.288   6.723   0.111 -2.9036  0.1197 -0.5620
 2021SOL    HW2 6963   4.204   6.835   0.026  1.0174  2.9555 -0.9693
 2022SOL     OW 6964   2.875   1.119   4.793  0.3430  0.5039  0.1071
 2022SOL    HW1 6965   2.958   1.096   4.742  0.5901  0.2312  0.6246
 2022SOL    HW2 6966   2.801   1.058   4.766  0.4966  0.3032  0.1332
 2023SOL     OW 6967   3.077   5.928   0.460 -0.0904 -0.1850 -0.1276
 2023SOL    HW1 6968   3.004   5.975   0.509 -0.1530  1.4081 -1.6403
 2023SOL    HW2 6969   3.128   5.870   0.523 -0.6657  1.1355  1.6177
 2024SOL     OW 6970   5.842   0.969   6.887 -0.1274  0.6279  0.4215
 2024SOL    HW1 6971   5.771   0.906   6.856  0.7488 -1.1987  1.9636
 2024SOL    HW2 6972   5.886   1.011   6.807  1.1493 -2.8581 -0.9110
 2025SOL     OW 6973   6.776   0.292   5.525 -0.3278  0.9483 -0.1911
 2025SOL    HW1 6974   6.732   0.203   5.526  0.8764  0.3313  1.5114
 2025SOL    HW2 6975   6.858   0.289   5.468 -0.8156  1.2578 -0.9227
 2026SOL     OW 6976   0.762   2.316   5.251 -0.3641  0.3427  0.4888
 2026SOL    HW1 6977   0.834   2.353   5.310 -1.5604  0.6332  1.8355
 2026SOL    HW2 6978   0.686   2.285   5.308 -0.7712 -1.1802 -0.8111
 2027SOL     OW 6979   3.090   1.938   4.242  0.0105  0.2748 -0.1046
 2027SOL    HW1 6980   3.057   2.032   4.251  0.3722  0.3990 -0.0426
 2027SOL    HW2 6981   3.177   1.929   4.290 -0.2472 -0.2123  0.2728
 2028SOL     OW 6982   5.686   0.364   5.642  0.0356  0.5223 -0.0074
 2028SOL    HW1 6983   5.642   0.411   5.718  0.7955  0.6998  0.3297
 2028SOL    HW2 6984   5.665   0.411   5.556  0.0050  0.9180  0.2165
 2029SOL     OW 6985   6.205   4.895   3.746  0.2377 -0.8390 -0.0086
 2029SOL    HW1 6986   6.274   4.880   3.817 -1.1409  0.4720  1.6691
 2029SOL    HW2 6987   6.124   4.841   3.766 -1.2670  1.6742  1.0760
 2030SOL     OW 6988   0.810   3.747   5.873  0.0652  0.5309 -0.0047
 2030SOL    HW1 6989   0.814   3.700   5.785 -2.5705  0.7371 -0.3138
 2030SOL    HW2 6990   0.863   3.696   5.941  0.9543 -0.4075 -1.3640
 2031SOL     OW 6991   0.911   5.558   5.157  0.0903  0.2023  0.2169
 2031SOL    HW1 6992   1.008   5.540   5.139  0.5263  1.1152  1.5320
 2031SOL    HW2 6993   0.903   5.633   5.223 -1.5403  0.8123 -0.6306
 2032SOL     OW 6994   7.007   5.220   4.669  0.0649 -0.1642 -0.0859
 2032SOL    HW1 6995   6.943   5.212   4.592  0.0549 -1.0763  0.0095
 2032SOL    HW2 6996   7.066   5.139   4.672 -0.3221 -0.4201  1.2191
 2033SOL     OW 6997   6.004   6.378   4.896  0.1880  0.0436 -0.0571
 2033SOL    HW1 6998   5.982   6.425   4.811 -2.3496 -0.6669  0.1457
 2033SOL    HW2 6999   6.025   6.282   4.876 -1.8899 -0.5121  0.1803
 2034SOL     OW 7000   3.860   3.827   6.228  0.3895 -0.1351  0.1409
 2034SOL    HW1 7001   3.910   3.883   6.294  0.6346 -0.3287  0.1192
 2034SOL    HW2 7002   3.765   3.818   6.257  0.8044 -1.3541  1.1967
 2035SOL     OW 7003   6.414   5.016   0.530  0.2739 -0.0399 -0.4933
 2035SOL    HW1 7004   6.374   5.018   0.438  1.6334  0.3422 -1.0909
 2035SOL    HW2 7005   6.432   4.921   0.556  0.2356 -0.1236 -0.7680
 2036SOL     OW 7006   5.171   1.699   2.537 -0.4130  0.0100 -0.1477
 2036SOL    HW1 7007   5.217   1.668   2.620  1.9483 -2.5691 -2.1962
 2036SOL    HW2 7008   5.214   1.782   2.503  0.2061 -0.2430  0.0034
 2037SOL     OW 7009   1.903   5.228   4.211 -0.1764  0.1455 -0.2273
 2037SOL    HW1 7010   1.977   5.175   4.254  0.1028  0.7496  0.0375
 2037SOL    HW2 7011   1.824   5.230   4.273 -0.0702  0.3207 -0.0992
 2038SOL     OW 7012   7.004   0.788   5.017  0.1083 -0.0261  0.6742
 2038SOL    HW1 7013   7.000   0.690   5.033 -0.2639 -1.1531 -4.4675
 2038SOL    HW2 7014   6.913   0.823   4.996  0.5476  0.9046  0.2452
 2039SOL     OW 7015   1.550   0.888   2.591 -0.4646  0.0713  0.9917
 2039SOL    HW1 7016   1.520   0.812   2.533 -0.5205  0.1813  0.8761
 2039SOL    HW2 7017   1.476   0.954   2.600  0.0881  0.8937 -0.2132
 2040SOL     OW 7018   5.827   4.729   0.396 -0.2852 -0.5327 -0.0641
 2040SOL    HW1 7019   5.742   4.678   0.378  0.0653 -0.9641 -0.5256
 2040SOL    HW2 7020   5.851   4.720   0.492 -0.9869 -0.0558  0.1675
 2041SOL     OW 7021   6.923   5.258   6.772  0.0287  0.3627 -0.3213
 2041SOL    HW1 7022   6.914   5.331   6.840  1.3967  0.9622 -0.7433
 2041SOL    HW2 7023   6.981   5.289   6.697 -1.7192 -0.1617 -1.9657
 2042SOL     OW 7024   6.984   4.597   5.523  0.4236 -0.2889  0.5042
 2042SOL    HW1 7025   7.037   4.515   5.545  1.3983  0.2074  0.0723
 2042SOL    HW2 7026   6.969   4.601   5.424 -0.3616 -0.3727  0.6101
 2043SOL     OW 7027   6.227   3.160   1.574  0.2692 -0.8026  0.1916
 2043SOL    HW1 7028   6.169   3.239   1.595 -0.4147 -1.5678  1.2881
 2043SOL    HW2 7029   6.312   3.192   1.531 -0.6877  0.3815 -0.8945
 2044SOL     OW 7030   6.695   0.290   3.925 -0.0872 -0.0188  0.4670
 2044SOL    HW1 7031   6.692   0.204   3.874  1.4884  0.1171  0.0915
 2044SOL    HW2 7032   6.689   0.367   3.862  0.2943  0.1451  0.6265
 2045SOL     OW 7033   2.518   3.829   5.303  0.2912 -0.3590  0.3625
 2045SOL    HW1 7034   2.475   3.914   5.273  0.9695  0.1460  0.8019
 2045SOL    HW2 7035   2.453   3.754   5.292 -1.1043  0.5381  1.9659
 2046SOL     OW 7036   6.148   2.995   4.470  0.0170 -0.4137 -0.1520
 2046SOL    HW1 7037   6.188   2.936   4.400  0.4700  0.2812 -0.4946
 2046SOL    HW2 7038   6.125   3.084   4.430  1.7445  0.5650  0.8838
 2047SOL     OW 7039   1.788   3.477   2.989  0.2562 -0.3629 -0.0566
 2047SOL    HW1 7040   1.728   3.397   2.980 -0.6600  0.0957  1.5741
 2047SOL    HW2 7041   1.745   3.557   2.948 -0.5069  0.0604  1.4783
 2048SOL     OW 7042   5.680   1.635   1.157  0.0101 -0.4914  0.2282
 2048SOL    HW1 7043   5.754   1.697   1.186  1.1445 -2.0556  0.8292
 2048SOL    HW2 7044   5.604   1.642   1.221  1.3338 -1.8029  2.0663
 2049SOL     OW 7045   3.265   3.984   1.768  0.5122  0.2985  0.0958
 2049SOL    HW1 7046   3.327   4.029   1.832  1.6112 -0.0858 -0.6748
 2049SOL    HW2 7047   3.252   4.043   1.688 -1.0718  0.9006  0.7581
 2050SOL     OW 7048   3.130   5.007   3.711 -0.7591  0.3370  0.1129
 2050SOL    HW1 7049   3.126   4.930   3.648 -0.1128 -0.9097  1.5157
 2050SOL    HW2 7050   3.102   5.091   3.664 -2.7962 -0.9506 -1.1381
 2051SOL     OW 7051   4.668   1.300   0.842 -0.2718  0.3036 -0.7992
 2051SOL    HW1 7052   4.583   1.334   0.881 -0.5481 -1.4470  0.2405
 2051SOL    HW2 7053   4.679   1.336   0.749 -1.3694  1.7381 -0.4148
 2052SOL     OW 7054   2.222   5.583   5.730 -0.0406 -0.4069 -0.5047
 2052SOL    HW1 7055   2.271   5.642   5.795  0.7040  0.5833 -1.9194
 2052SOL    HW2 7056   2.284   5.511   5.697  0.3761  0.5452 -1.9105
 2053SOL     OW 7057   6.121   6.174   0.175 -0.5028 -0.3900 -0.0548
 2053SOL    HW1 7058   6.099   6.163   0.078 -1.6827 -2.2764  0.3738
 2053SOL    HW2 7059   6.206   6.125   0.196  1.2826  2.2450 -0.5886
 2054SOL     OW 7060   0.619   3.854   6.535  0.2343  0.3209  0.3840
 2054SOL    HW1 7061   0.678   3.799   6.594 -0.8329 -0.4877  0.7429
 2054SOL    HW2 7062   0.534   3.804   6.517  1.6526 -0.8480 -4.3504
 2055SOL     OW 7063   1.647   0.392   5.086  0.6952 -0.2895 -0.2557
 2055SOL    HW1 7064   1.649   0.466   5.019  1.4764  0.5078  0.6150
 2055SOL    HW2 7065   1.598   0.423   5.168  1.3433 -0.5967  0.2552
 2056SOL     OW 7066   0.912   3.173   0.390  0.0529 -0.7647 -0.9809
 2056SOL    HW1 7067   0.994   3.119   0.373  0.0835 -0.8449 -0.5823
 2056SOL    HW2 7068   0.937   3.256   0.440 -0.2348 -1.2625  0.0140
 2057SOL     OW 7069   5.652   3.600   6.386  0.0998 -0.3829  0.2316
 2057SOL    HW1 7070   5.749   3.622   6.398 -0.0027  1.2890 -1.5018
 2057SOL    HW2 7071   5.615   3.562   6.471  2.0065 -0.0591  1.2470
 2058SOL     OW 7072   0.849   2.048   2.288  0.6700  0.4721  0.0340
 2058SOL    HW1 7073   0.878   1.984   2.359  0.1015  0.4697  0.2696
 2058SOL    HW2 7074   0.894   2.136   2.303  1.7043  0.0545 -0.4750
 2059SOL     OW 7075   3.262   5.095   3.970 -0.4416 -0.1157  0.7380
 2059SOL    HW1 7076   3.333   5.025   3.972  1.2827  1.5134 -0.0077
 2059SOL    HW2 7077   3.213   5.090   3.883 -0.1052 -0.2067  0.5524
 2060SOL     OW 7078   1.826   1.513   5.561 -0.2521 -0.5327 -0.3263
 2060SOL    HW1 7079   1.850   1.416   5.554  1.6817 -0.2044  0.8690
 2060SOL    HW2 7080   1.801   1.535   5.656 -2.0162 -0.1222 -0.8628
 2061SOL     OW 7081   1.636   1.739   2.423 -0.5902  0.6470 -0.4889
 2061SOL    HW1 7082   1.658   1.747   2.326 -0.0809  1.9771 -0.2743
 2061SOL    HW2 7083   1.662   1.823   2.471  0.1009 -0.3666  0.9868
 2062SOL     OW 7084   6.508   1.208   4.221 -0.3545 -0.8458 -0.1510
 2062SOL    HW1 7085   6.602   1.241   4.221  0.1959 -2.2582  1.3547
 2062SOL    HW2 7086   6.469   1.221   4.312 -2.3729  1.6010 -1.2552
 2063SOL     OW 7087   3.590   3.941   3.131  0.6444 -0.0478 -0.5751
 2063SOL    HW1 7088   3.561   4.036   3.122  0.6867  0.2221  1.6508
 2063SOL    HW2 7089   3.622   3.907   3.043  0.0725  1.8029 -1.5352
 2064SOL     OW 7090   3.219   6.495   1.994 -0.6305  0.4127  1.1531
 2064SOL    HW1 7091   3.190   6.402   1.972 -1.6364  1.1659 -0.8586
 2064SOL    HW2 7092   3.319   6.496   2.005 -0.6393 -0.9543  1.5969
 2065SOL     OW 7093   2.288   2.071   0.339 -0.8808 -0.6348  0.0770
 2065SOL    HW1 7094   2.318   2.011   0.413 -0.7239 -1.1049 -0.3623
 2065SOL    HW2 7095   2.232   2.145   0.377 -0.5610 -0.7044  0.6979
 2066SOL     OW 7096   0.648   1.391   2.119 -0.0621 -0.1145 -0.1282
 2066SOL    HW1 7097   0.719   1.371   2.051 -0.2965  0.8810 -0.6883
 2066SOL    HW2 7098   0.579   1.451   2.078 -0.1025  0.6644  1.0555
 2067SOL     OW 7099   5.820   6.388   6.756  0.5307 -0.3808 -0.0670
 2067SOL    HW1 7100   5.839   6.384   6.854  1.1300  0.8598 -0.1064
 2067SOL    HW2 7101   5.905   6.411   6.707  0.1253 -0.4605 -0.8208
 2068SOL     OW 7102   3.779   2.391   5.290  0.1922 -0.1247 -0.0414
 2068SOL    HW1 7103   3.870   2.430   5.309 -0.2592  1.2351 -0.6013
 2068SOL    HW2 7104   3.709   2.461   5.303 -0.5087 -0.2438 -2.7086
 2069SOL     OW 7105   5.802   6.340   3.697  0.3217  0.2324 -0.2410
 2069SOL    HW1 7106   5.746   6.341   3.780  0.6603  1.2188 -0.0113
 2069SOL    HW2 7107   5.743   6.349   3.617  0.0687  0.2737 -0.0517
 2070SOL     OW 7108   4.149   1.051   4.190 -0.1455 -0.3428  0.2299
 2070SOL    HW1 7109   4.132   1.026   4.285 -0.8061 -1.1514 -0.0909
 2070SOL    HW2 7110   4.247   1.042   4.170 -0.0845 -0.6925  0.6838
 2071SOL     OW 7111   0.608   2.801   2.210  0.1250 -0.2127  0.7144
 2071SOL    HW1 7112   0.701   2.766   2.216  0.2229 -0.0423  0.2247
 2071SOL    HW2 7113   0.593   2.842   2.120 -0.5991 -0.7334  0.5914
 2072SOL     OW 7114   0.002   5.329   5.429  0.2325 -0.2514 -0.7176
 2072SOL    HW1 7115  -0.078   5.322   5.370  0.5412 -1.4999 -1.0273
 2072SOL    HW2 7116   0.038   5.237   5.447  2.5040  0.3223 -1.8735
 2073SOL     OW 7117   1.311   2.698   0.568 -0.0462 -0.5245  0.3422
 2073SOL    HW1 7118   1.241   2.680   0.637  0.7288 -0.5018  1.1542
 2073SOL    HW2 7119   1.356   2.785   0.588 -0.0908 -0.3064 -0.4409
 2074SOL     OW 7120   0.579   6.466   1.364 -0.3033  0.2600  0.2330
 2074SOL    HW1 7121   0.609   6.502   1.452 -0.5284  0.9378  0.0401
 2074SOL    HW2 7122   0.623   6.378   1.346  1.8244  1.3505 -0.1838
 2075SOL     OW 7123   1.781   5.663   6.418 -0.2289 -0.4693 -0.4933
 2075SOL    HW1 7124   1.772   5.680   6.516 -0.5581  1.8258 -0.8620
 2075SOL    HW2 7125   1.878   5.648   6.396  0.1072  0.9696 -0.0720
 2076SOL     OW 7126   6.976   1.295   1.968  0.2959 -0.4070 -0.2463
 2076SOL    HW1 7127   7.033   1.331   2.043 -1.5162  0.5040  0.7666
 2076SOL    HW2 7128   6.978   1.358   1.891 -1.3954  1.0060  0.8124
 2077SOL     OW 7129   5.191   2.356   3.593  0.3665 -0.0049  0.0683
 2077SOL    HW1 7130   5.115   2.304   3.556  2.0552 -2.2309 -0.5110
 2077SOL    HW2 7131   5.189   2.352   3.693 -0.8228  0.8383  0.0889
 2078SOL     OW 7132   0.950   6.824   1.186  0.0624 -1.0777 -0.4303
 2078SOL    HW1 7133   0.963   6.878   1.103  0.5444 -1.9653 -0.9451
 2078SOL    HW2 7134   0.887   6.872   1.248  2.9021  1.7333  0.5975
 2079SOL     OW 7135   2.390   5.070   2.352 -0.3584  0.0362 -0.7619
 2079SOL    HW1 7136   2.467   5.010   2.374 -0.0076  0.8383  0.2531
 2079SOL    HW2 7137   2.417   5.165   2.365 -0.8473  0.4468 -2.5535
 2080SOL     OW 7138   3.564   6.334   1.764  0.1467  0.3751 -0.2509
 2080SOL    HW1 7139   3.586   6.428   1.792 -1.4381  0.7238 -0.1001
 2080SOL    HW2 7140   3.528   6.284   1.843 -1.4202  0.4275 -0.8981
 2081SOL     OW 7141   2.579   0.324   2.057 -0.8658  0.4833  0.0706
 2081SOL    HW1 7142   2.533   0.236   2.067  1.6754 -0.8821  0.7094
 2081SOL    HW2 7143   2.557   0.382   2.135 -1.0255 -0.3900  0.6913
 2082SOL     OW 7144   4.638   1.461   6.778 -0.0862 -0.4884 -0.2903
 2082SOL    HW1 7145   4.646   1.432   6.683 -0.3057 -1.3181 -0.0697
 2082SOL    HW2 7146   4.550   1.431   6.815  0.3480 -0.9282  0.4186
 2083SOL     OW 7147   1.958   6.950   0.995  0.4256  0.5213  0.4507
 2083SOL    HW1 7148   2.054   6.953   0.967  0.9762  1.7842  2.2896
 2083SOL    HW2 7149   1.942   6.869   1.051  0.0464 -0.4212 -0.9715
 2084SOL     OW 7150   3.153   0.528   3.782  0.3909 -0.5228 -0.6092
 2084SOL    HW1 7151   3.127   0.594   3.711  1.4920  0.1950 -0.3641
 2084SOL    HW2 7152   3.129   0.565   3.872 -0.1847 -1.0406 -0.5451
 2085SOL     OW 7153   6.914   1.913   1.449 -0.1036 -0.3118 -0.0874
 2085SOL    HW1 7154   6.857   1.836   1.477 -0.3639 -0.2224 -0.3557
 2085SOL    HW2 7155   6.862   1.998   1.461  0.2760 -0.1521  0.4558
 2086SOL     OW 7156   6.567   2.115   2.974  0.1936 -0.2081  0.3579
 2086SOL    HW1 7157   6.517   2.143   3.056  0.5203  0.3788  0.3564
 2086SOL    HW2 7158   6.536   2.024   2.946 -1.3060  0.3888  0.0063
 2087SOL     OW 7159   5.148   6.692   3.598  0.0525  0.3395 -0.1593
 2087SOL    HW1 7160   5.145   6.681   3.499  0.4577  2.0601 -0.3916
 2087SOL    HW2 7161   5.067   6.741   3.629 -0.5606 -1.0406  0.5158
 2088SOL     OW 7162   5.193   2.309   3.252  0.4160 -0.0157 -0.0845
 2088SOL    HW1 7163   5.159   2.349   3.338  2.9504  1.4756  0.3225
 2088SOL    HW2 7164   5.192   2.210   3.258 -0.9927  0.0366  1.0067
 2089SOL     OW 7165   0.700   2.862   5.478 -0.1033  0.1092 -0.6713
 2089SOL    HW1 7166   0.664   2.955   5.482  0.6133  0.4165 -1.0204
 2089SOL    HW2 7167   0.652   2.804   5.544 -0.4411  0.7669 -0.3287
 2090SOL     OW 7168   3.277   4.069   1.398 -0.1093 -0.2641  0.0718
 2090SOL    HW1 7169   3.204   4.129   1.431  1.2202  1.8078 -0.5271
 2090SOL    HW2 7170   3.251   3.974   1.412 -3.3206  0.3349 -0.9283
 2091SOL     OW 7171   5.073   1.951   1.865  0.8308 -0.1183 -0.5218
 2091SOL    HW1 7172   5.094   1.867   1.915  1.0468 -0.3107 -0.9251
 2091SOL    HW2 7173   4.977   1.976   1.880  0.8145 -0.3413 -0.2560
 2092SOL     OW 7174   3.804   6.407   3.606 -0.5704  0.0087 -0.1669
 2092SOL    HW1 7175   3.747   6.335   3.567  1.6852 -2.6450  1.0750
 2092SOL    HW2 7176   3.796   6.404   3.706  0.5549  0.5848 -0.0533
 2093SOL     OW 7177   1.948   1.616   5.804  0.1344 -0.3102 -0.1617
 2093SOL    HW1 7178   1.979   1.710   5.817  2.6005 -1.0830  0.0838
 2093SOL    HW2 7179   1.855   1.607   5.837  0.4119  1.6520  1.3535
 2094SOL     OW 7180   3.580   6.918   0.319  0.1379 -0.6067  0.3116
 2094SOL    HW1 7181   3.546   6.965   0.400 -0.6532 -0.7137  0.0446
 2094SOL    HW2 7182   3.615   6.828   0.346  1.1651 -0.1115  0.7375
 2095SOL     OW 7183   1.916   6.184   6.927  0.1670 -0.0546  0.9564
 2095SOL    HW1 7184   1.936   6.215   6.834 -1.4801  0.0415  0.5910
 2095SOL    HW2 7185   1.899   6.264   6.986 -1.1251 -0.1361  0.7363
 2096SOL     OW 7186   1.322   3.028   1.412 -0.7954  0.6607 -0.0694
 2096SOL    HW1 7187   1.234   3.068   1.435  0.0589  2.6429 -0.0686
 2096SOL    HW2 7188   1.391   3.057   1.478 -0.1434 -1.0044  0.0439
 2097SOL     OW 7189   4.992   3.294   1.490  0.3039 -0.4740 -0.2877
 2097SOL    HW1 7190   5.064   3.296   1.559 -0.3424  0.3422  0.3784
 2097SOL    HW2 7191   4.903   3.303   1.534 -0.0397  1.9457 -1.3158
 2098SOL     OW 7192   6.296   4.506   3.498  0.3533  0.1619  0.2709
 2098SOL    HW1 7193   6.232   4.435   3.527 -3.1337  2.8559 -0.0686
 2098SOL    HW2 7194   6.383   4.495   3.547 -1.8693 -1.1482  4.4515
 2099SOL     OW 7195   3.533   6.873   2.783 -0.0097  0.7740  0.0756
 2099SOL    HW1 7196   3.458   6.841   2.725 -0.9015 -1.9334  2.4456
 2099SOL    HW2 7197   3.620   6.859   2.736 -0.6333 -2.0092 -0.4551
 2100SOL     OW 7198   0.529   0.202   5.849 -0.4913  0.3505 -0.2941
 2100SOL    HW1 7199   0.618   0.234   5.817  0.3531 -0.5230  1.0867
 2100SOL    HW2 7200   0.457   0.263   5.815  0.8231  2.3233  0.3514
 2101SOL     OW 7201   3.871   4.348   0.621  0.1722  0.2251  0.6068
 2101SOL    HW1 7202   3.939   4.403   0.572 -0.2475  0.1229 -0.1005
 2101SOL    HW2 7203   3.901   4.335   0.716  0.0274  2.1141  0.9451
 2102SOL     OW 7204   2.120   3.607   3.818 -0.1502 -0.4965 -0.1653
 2102SOL    HW1 7205   2.129   3.509   3.839 -1.4033 -0.4111  0.8585
 2102SOL    HW2 7206   2.193   3.657   3.864 -0.1868 -0.8249  0.2585
 2103SOL     OW 7207   6.305   1.421   4.454 -0.0892 -0.7849  0.8920
 2103SOL    HW1 7208   6.216   1.394   4.491  0.3040 -1.1975  1.5502
 2103SOL    HW2 7209   6.377   1.365   4.495  0.4517 -0.6339  0.1685
 2104SOL     OW 7210   0.002   2.577   6.496  0.3757 -0.1460 -0.0108
 2104SOL    HW1 7211  -0.010   2.607   6.591 -0.6456 -0.1856 -0.1189
 2104SOL    HW2 7212   0.097   2.593   6.468  0.1195  2.0851  0.2314
 2105SOL     OW 7213   1.338   6.132   6.910 -0.1045  0.4847  0.0570
 2105SOL    HW1 7214   1.297   6.104   6.997  1.6016 -1.3996  0.3378
 2105SOL    HW2 7215   1.321   6.229   6.895  0.5164  1.1635  3.0769
 2106SOL     OW 7216   6.984   5.267   1.795  0.1658  0.0626  0.1411
 2106SOL    HW1 7217   6.996   5.285   1.893 -0.2843  2.3786 -0.1786
 2106SOL    HW2 7218   7.050   5.321   1.743 -1.7613  1.5281 -0.9408
 2107SOL     OW 7219   5.678   5.855   1.854 -0.0367 -0.0944  0.2278
 2107SOL    HW1 7220   5.744   5.811   1.793 -1.0043 -3.3335  1.2732
 2107SOL    HW2 7221   5.595   5.877   1.803  1.2710  2.9192 -0.8277
 2108SOL     OW 7222   2.664   1.788   4.902 -0.6771 -0.0074  0.2354
 2108SOL    HW1 7223   2.637   1.715   4.840 -0.3203 -1.6092  1.9000
 2108SOL    HW2 7224   2.654   1.758   4.997  1.5140  1.3184  0.9739
 2109SOL     OW 7225   2.384   3.197   0.598 -0.3769  0.4463  0.2988
 2109SOL    HW1 7226   2.349   3.270   0.539 -1.3230  0.9337  1.4204
 2109SOL    HW2 7227   2.466   3.228   0.645  1.2259 -0.4352 -1.7678
 2110SOL     OW 7228   4.603   2.588   4.970  0.3177  0.0053 -0.0691
 2110SOL    HW1 7229   4.524   2.527   4.977  0.0553  0.4709  1.8394
 2110SOL    HW2 7230   4.680   2.540   4.928 -0.2218 -1.2891  0.3682
 2111SOL     OW 7231   5.138   5.722   3.163  1.1246  0.0744  0.2293
 2111SOL    HW1 7232   5.142   5.623   3.178 -0.2129 -0.0011  0.2167
 2111SOL    HW2 7233   5.087   5.740   3.078  2.2783  0.7476 -0.3425
 2112SOL     OW 7234   3.369   5.024   4.424 -0.5480  0.0798 -0.0552
 2112SOL    HW1 7235   3.426   4.987   4.350  0.9171  1.8199  0.1466
 2112SOL    HW2 7236   3.427   5.046   4.502 -1.6857  0.8293  0.6016
 2113SOL     OW 7237   1.185   3.229   0.579 -0.1732  1.1268  0.1475
 2113SOL    HW1 7238   1.202   3.177   0.496 -0.0129  0.0208  0.8579
 2113SOL    HW2 7239   1.270   3.272   0.609  0.0572  0.4818  0.4320
 2114SOL     OW 7240   5.602   0.740   1.177 -0.3747  0.7548 -0.3301
 2114SOL    HW1 7241   5.550   0.717   1.094 -1.3862 -0.6096  0.6412
 2114SOL    HW2 7242   5.553   0.707   1.257  2.6431 -1.9812  0.5792
 2115SOL     OW 7243   2.564   4.011   6.600 -0.5668  0.3115  0.4776
 2115SOL    HW1 7244   2.483   3.983   6.548  0.1372 -1.6063  0.3141
 2115SOL    HW2 7245   2.550   3.989   6.697 -0.7273  1.1517  0.6491
 2116SOL     OW 7246   5.972   0.855   3.972 -0.1952  0.2534  0.2313
 2116SOL    HW1 7247   5.876   0.835   3.991 -0.2348 -1.2325 -1.2911
 2116SOL    HW2 7248   5.991   0.951   3.992 -1.8058  0.4021  1.2100
 2117SOL     OW 7249   2.781   5.084   1.805 -0.1063 -0.2482 -0.5114
 2117SOL    HW1 7250   2.869   5.121   1.833 -0.0504 -0.6420 -0.1523
 2117SOL    HW2 7251   2.783   4.984   1.812 -0.9179 -0.2119  0.5303
 2118SOL     OW 7252   6.882   4.814   4.837 -0.1752 -0.4612 -0.3978
 2118SOL    HW1 7253   6.811   4.809   4.907  1.0142  0.4407  0.9349
 2118SOL    HW2 7254   6.936   4.730   4.838  0.8204  0.1521  0.9096
 2119SOL     OW 7255   4.269   4.000   1.002 -0.1325  0.0614 -0.8450
 2119SOL    HW1 7256   4.229   4.069   1.063 -0.3501  0.5008 -1.4676
 2119SOL    HW2 7257   4.316   3.931   1.056 -0.5387  0.3009 -0.1669
 2120SOL     OW 7258   0.253   4.250   3.611  0.3457 -0.4681  0.2905
 2120SOL    HW1 7259   0.210   4.277   3.698 -2.3152 -0.2880 -1.0021
 2120SOL    HW2 7260   0.236   4.153   3.594 -1.9439  0.1580 -1.4426
 2121SOL     OW 7261   3.286   2.901   6.994 -0.5921 -0.1575  0.0991
 2121SOL    HW1 7262   3.385   2.916   6.986 -0.3437 -1.3506  0.6684
 2121SOL    HW2 7263   3.269   2.824   7.055 -1.9077  0.4045  0.4834
 2122SOL     OW 7264   2.643   6.533   3.692  0.9135  0.9591 -0.1461
 2122SOL    HW1 7265   2.627   6.576   3.781 -0.7693 -1.7119  0.9876
 2122SOL    HW2 7266   2.732   6.487   3.693  1.1725  1.4535 -0.0851
 2123SOL     OW 7267   3.870   1.165   1.743  0.4015  0.4956  0.1651
 2123SOL    HW1 7268   3.828   1.076   1.764  0.7956  0.9541  3.3660
 2123SOL    HW2 7269   3.800   1.236   1.748  0.7883  0.8004  1.6388
 2124SOL     OW 7270   3.582   6.839   3.634 -0.2941 -0.0747 -0.5191
 2124SOL    HW1 7271   3.509   6.792   3.683 -1.1005  0.8464 -0.8297
 2124SOL    HW2 7272   3.609   6.921   3.684 -0.7626  0.5874 -1.3357
 2125SOL     OW 7273   2.457   4.390   1.740  0.6435  0.0655 -0.5200
 2125SOL    HW1 7274   2.491   4.436   1.822  1.7785 -0.2017 -0.8265
 2125SOL    HW2 7275   2.441   4.293   1.760  1.4331 -0.1192 -0.7377
 2126SOL     OW 7276   5.717   6.954   6.168 -0.3662 -0.1735  0.7597
 2126SOL    HW1 7277   5.649   7.000   6.225 -0.8894 -0.7964  0.6484
 2126SOL    HW2 7278   5.681   6.945   6.075 -0.4373 -1.1453  0.8694
 2127SOL     OW 7279   2.123   6.638   3.006  0.1489  0.7291 -0.4794
 2127SOL    HW1 7280   2.073   6.598   2.929  2.7328 -0.4939 -1.6352
 2127SOL    HW2 7281   2.123   6.574   3.083 -0.1217  0.7628 -0.4509
 2128SOL     OW 7282   2.146   5.675   3.565  0.6873  0.0605 -0.6852
 2128SOL    HW1 7283   2.083   5.599   3.551  1.4418 -0.7786  0.3096
 2128SOL    HW2 7284   2.101   5.761   3.538  0.2233 -0.8150 -2.9164
 2129SOL     OW 7285   6.420   0.845   1.582 -0.4341  0.5641  0.1523
 2129SOL    HW1 7286   6.470   0.847   1.495 -0.2932 -0.4035  0.1996
 2129SOL    HW2 7287   6.325   0.819   1.566 -0.6028  1.1445  0.2047
 2130SOL     OW 7288   5.775   4.176   0.288 -0.5157 -0.7634  0.6582
 2130SOL    HW1 7289   5.817   4.086   0.283  1.2723  0.0040  1.0558
 2130SOL    HW2 7290   5.747   4.205   0.196 -2.9836 -2.4953  0.7582
 2131SOL     OW 7291   0.677   6.768   5.452 -0.6510 -0.0900 -0.2702
 2131SOL    HW1 7292   0.703   6.679   5.414 -0.8327 -0.0288 -0.5400
 2131SOL    HW2 7293   0.583   6.763   5.486 -1.5909  0.6774 -2.5441
 2132SOL     OW 7294   3.206   5.574   2.639  0.1046 -0.2397 -0.2929
 2132SOL    HW1 7295   3.240   5.668   2.641 -0.3026 -0.0578 -1.1604
 2132SOL    HW2 7296   3.106   5.575   2.629  0.0750 -0.7615 -0.0662
 2133SOL     OW 7297   5.916   4.259   7.007  0.2123  0.4249  0.0747
 2133SOL    HW1 7298   5.936   4.346   7.051  1.4753 -0.3827  1.2179
 2133SOL    HW2 7299   5.936   4.265   6.909  1.3824  1.1202  0.3360
 2134SOL     OW 7300   5.992   3.698   1.715 -0.4008  0.1672 -0.0363
 2134SOL    HW1 7301   5.965   3.743   1.630 -0.5649 -0.1614 -0.1594
 2134SOL    HW2 7302   5.992   3.764   1.790  2.4534  1.1774 -0.7755
 2135SOL     OW 7303   1.338   2.261   5.281 -0.4566 -0.2968 -0.3229
 2135SOL    HW1 7304   1.308   2.276   5.187  0.0492 -1.9423 -0.7767
 2135SOL    HW2 7305   1.293   2.180   5.318  0.1379 -0.2668  0.5004
 2136SOL     OW 7306   6.035   3.273   5.859  0.8479  0.4608 -0.1867
 2136SOL    HW1 7307   5.968   3.346   5.848  1.2890  1.0324  0.7656
 2136SOL    HW2 7308   5.994   3.185   5.834  0.8264  1.1910 -3.0686
 2137SOL     OW 7309   0.556   2.946   2.836 -0.4451  0.1040 -0.0178
 2137SOL    HW1 7310   0.605   2.972   2.753  2.4938 -0.5354  1.3856
 2137SOL    HW2 7311   0.513   3.027   2.876 -0.4432  0.7231 -1.2229
 2138SOL     OW 7312   3.381   0.177   4.754  0.6876  0.0560  0.3345
 2138SOL    HW1 7313   3.295   0.129   4.773  1.4455 -1.1556  0.7833
 2138SOL    HW2 7314   3.372   0.273   4.781 -0.1148 -0.3487  1.5861
 2139SOL     OW 7315   2.439   5.701   2.519  0.0802 -0.0864  0.1925
 2139SOL    HW1 7316   2.499   5.729   2.444  0.7000 -1.2182  0.2349
 2139SOL    HW2 7317   2.347   5.734   2.502  0.2244 -0.2573 -1.0373
 2140SOL     OW 7318   5.504   5.456   4.781  0.8341 -0.7371 -0.2605
 2140SOL    HW1 7319   5.421   5.417   4.740  0.4109 -0.6414  0.4794
 2140SOL    HW2 7320   5.483   5.488   4.874  1.3071  0.7271 -0.6341
 2141SOL     OW 7321   3.511   1.472   5.539  0.0810 -0.2613  1.1287
 2141SOL    HW1 7322   3.562   1.555   5.564  0.7827 -0.3460  0.0574
 2141SOL    HW2 7323   3.425   1.498   5.496  0.8371 -0.0416 -0.3065
 2142SOL     OW 7324   3.055   5.214   1.362 -0.0051  0.4343  0.0315
 2142SOL    HW1 7325   2.988   5.235   1.434 -1.7072 -2.2607 -0.5787
 2142SOL    HW2 7326   3.132   5.165   1.402 -0.3350  0.0589  0.2198
 2143SOL     OW 7327   2.334   2.916   5.475 -0.2357 -0.2746 -0.0271
 2143SOL    HW1 7328   2.337   3.014   5.493 -0.2164 -0.5200  1.3475
 2143SOL    HW2 7329   2.250   2.877   5.513 -0.2314 -0.8130 -0.5418
 2144SOL     OW 7330   1.687   1.857   0.264 -0.2485 -0.4433  0.4848
 2144SOL    HW1 7331   1.642   1.816   0.185 -1.1026 -0.8152  1.1478
 2144SOL    HW2 7332   1.740   1.937   0.235 -0.9219 -0.3009 -0.3962
 2145SOL     OW 7333   0.788   3.013   4.608 -0.0457 -0.2671 -0.7579
 2145SOL    HW1 7334   0.767   3.066   4.689  2.4037 -1.0438  0.4856
 2145SOL    HW2 7335   0.713   2.950   4.589 -0.7649  0.0882  0.7751
 2146SOL     OW 7336   1.058   4.760   1.910  0.2408 -0.1192 -0.2598
 2146SOL    HW1 7337   1.085   4.856   1.906  0.9484 -0.3325 -0.7113
 2146SOL    HW2 7338   1.063   4.719   1.819  1.0573 -0.8780  0.1069
 2147SOL     OW 7339   4.632   6.953   0.326  0.7328  0.2497  0.0569
 2147SOL    HW1 7340   4.550   7.004   0.300  1.0517  1.4486  1.2744
 2147SOL    HW2 7341   4.619   6.856   0.304 -1.6529  0.1246  1.5691
 2148SOL     OW 7342   5.233   1.617   6.985  0.0531 -0.0779  0.8392
 2148SOL    HW1 7343   5.329   1.604   6.961  0.0649 -0.1113  0.9053
 2148SOL    HW2 7344   5.220   1.709   7.022  0.2394 -0.4066  1.7441
 2149SOL     OW 7345   2.700   4.720   5.975 -0.2030 -0.9522  0.1154
 2149SOL    HW1 7346   2.608   4.682   5.967 -0.8310  0.5413  0.0411
 2149SOL    HW2 7347   2.714   4.757   6.066  0.3096 -1.1210  0.1100
 2150SOL     OW 7348   5.787   5.773   0.941  1.2863  0.1362 -0.2286
 2150SOL    HW1 7349   5.776   5.786   0.842 -1.3595 -0.9041 -0.1677
 2150SOL    HW2 7350   5.798   5.676   0.962  0.9956  0.2528  0.5252
 2151SOL     OW 7351   6.342   1.074   0.820  0.3972 -0.8943  0.2088
 2151SOL    HW1 7352   6.299   0.984   0.832 -1.2695  0.0554  1.7283
 2151SOL    HW2 7353   6.301   1.121   0.742 -0.5414 -0.4475  0.9627
 2152SOL     OW 7354   3.582   6.118   4.601  0.2213 -0.0891 -0.6432
 2152SOL    HW1 7355   3.643   6.097   4.524  0.0547  0.5105 -0.9425
 2152SOL    HW2 7356   3.505   6.053   4.600  1.3570 -1.5194  0.3455
 2153SOL     OW 7357   4.717   2.519   6.314  0.1868  0.0152 -0.1648
 2153SOL    HW1 7358   4.686   2.526   6.409 -1.1753  0.5709 -0.6213
 2153SOL    HW2 7359   4.816   2.507   6.311  0.1628 -0.7767  1.3488
 2154SOL     OW 7360   1.808   6.112   5.806 -0.3728 -0.5278  0.6491
 2154SOL    HW1 7361   1.878   6.172   5.843 -0.2579 -1.0758  1.3382
 2154SOL    HW2 7362   1.844   6.064   5.726 -0.4696  0.3127  0.0859
 2155SOL     OW 7363   1.792   3.624   2.645 -0.0910  0.1392 -0.0913
 2155SOL    HW1 7364   1.712   3.644   2.589  0.1449  1.3063 -0.0458
 2155SOL    HW2 7365   1.850   3.556   2.599 -1.1706 -0.8431 -0.0457
 2156SOL     OW 7366   2.627   0.881   5.264  0.0123  0.0719  0.3848
 2156SOL    HW1 7367   2.559   0.898   5.193 -0.4806 -1.5715  0.4219
 2156SOL    HW2 7368   2.716   0.916   5.233 -0.5599  1.0467 -0.2243
 2157SOL     OW 7369   1.637   2.854   1.300 -0.6210  0.4006 -0.0120
 2157SOL    HW1 7370   1.684   2.775   1.339 -0.2006  1.7050  2.2967
 2157SOL    HW2 7371   1.580   2.824   1.223 -0.3097 -2.0864  0.6339
 2158SOL     OW 7372   6.288   3.814   6.701  0.3527 -0.1937 -0.3822
 2158SOL    HW1 7373   6.240   3.727   6.708  1.2949 -0.7804 -0.9153
 2158SOL    HW2 7374   6.283   3.863   6.788 -2.6335  0.5764 -0.8759
 2159SOL     OW 7375   4.198   0.370   4.352  0.1242 -0.3524 -0.1901
 2159SOL    HW1 7376   4.108   0.375   4.396  0.5648  1.9132  0.6208
 2159SOL    HW2 7377   4.191   0.398   4.257  0.0521  0.7004  0.1046
 2160SOL     OW 7378   4.736   2.934   1.131  0.4653  0.1010  0.4329
 2160SOL    HW1 7379   4.715   3.014   1.075 -3.9575  1.0131  2.9185
 2160SOL    HW2 7380   4.755   2.962   1.225  1.0169 -1.6599  0.8953
 2161SOL     OW 7381   6.569   2.535   6.216 -0.0988 -0.5072 -0.0594
 2161SOL    HW1 7382   6.496   2.497   6.159  1.2206 -1.7301 -0.9885
 2161SOL    HW2 7383   6.641   2.573   6.157  0.5432 -0.3307  0.8218
 2162SOL     OW 7384   3.455   1.040   2.919 -0.0817  0.4099 -0.3107
 2162SOL    HW1 7385   3.442   0.950   2.878 -3.1593  0.3340  0.5770
 2162SOL    HW2 7386   3.474   1.107   2.848  0.2872 -0.6044 -1.1926
 2163SOL     OW 7387   6.431   6.507   3.875  0.6803 -0.0260  0.1997
 2163SOL    HW1 7388   6.335   6.492   3.899  1.0180 -0.4242  1.3531
 2163SOL    HW2 7389   6.449   6.466   3.786  0.1512 -1.3247  0.6687
 2164SOL     OW 7390   5.451   5.012   1.347  0.0146  0.1951  0.5350
 2164SOL    HW1 7391   5.392   4.949   1.399 -1.6095  0.5270 -0.8288
 2164SOL    HW2 7392   5.506   5.066   1.411 -2.1109  0.7825  1.9581
 2165SOL     OW 7393   3.838   4.760   6.353 -0.4631 -0.1627 -0.6720
 2165SOL    HW1 7394   3.880   4.704   6.425 -1.8200 -0.0635  0.2297
 2165SOL    HW2 7395   3.834   4.855   6.384  0.3481  0.1607 -1.5283
 2166SOL     OW 7396   3.213   3.817   1.432 -0.1394  0.1604 -0.4417
 2166SOL    HW1 7397   3.189   3.797   1.527  1.1076  0.3363 -0.0719
 2166SOL    HW2 7398   3.138   3.789   1.372 -0.9468  0.0486  0.5845
 2167SOL     OW 7399   4.357   5.579   0.569  0.1315 -0.5357  0.3999
 2167SOL    HW1 7400   4.450   5.575   0.532 -0.5704  1.0537 -1.7907
 2167SOL    HW2 7401   4.351   5.650   0.639  0.3787  0.0051 -0.1234
 2168SOL     OW 7402   3.723   2.865   4.525 -0.6254 -0.0219 -0.0255
 2168SOL    HW1 7403   3.764   2.891   4.438  1.4569 -1.9821  0.2817
 2168SOL    HW2 7404   3.659   2.789   4.511 -2.1226  1.2081 -0.1147
 2169SOL     OW 7405   5.138   3.482   2.081  1.0034  0.3626 -0.2206
 2169SOL    HW1 7406   5.142   3.560   2.144 -0.7008 -0.6557  1.2267
 2169SOL    HW2 7407   5.172   3.400   2.127 -1.1435 -0.5928 -0.2349
 2170SOL     OW 7408   6.625   3.556   0.960 -1.0704  0.0248  0.0209
 2170SOL    HW1 7409   6.709   3.579   0.912 -1.4456  0.6154 -0.3724
 2170SOL    HW2 7410   6.609   3.624   1.033 -1.6337  0.4089 -0.4520
 2171SOL     OW 7411   5.317   6.901   0.332  0.3012  0.1443  0.3085
 2171SOL    HW1 7412   5.234   6.954   0.314 -0.4285 -1.6717 -2.2028
 2171SOL    HW2 7413   5.365   6.885   0.246  1.2367 -2.0383  1.1834
 2172SOL     OW 7414   3.020   5.450   6.994  0.1458 -0.0971 -0.0992
 2172SOL    HW1 7415   2.924   5.467   6.971 -0.6656 -2.7932  0.8662
 2172SOL    HW2 7416   3.069   5.419   6.913 -0.3066 -0.5232 -0.2177
 2173SOL     OW 7417   5.353   1.046   1.544 -0.1810 -0.5028  0.2509
 2173SOL    HW1 7418   5.361   0.978   1.616 -2.7595  0.5098  1.6161
 2173SOL    HW2 7419   5.356   1.000   1.455  2.8689 -1.7861  0.8876
 2174SOL     OW 7420   6.283   1.624   2.281  0.1203  0.6461  0.0694
 2174SOL    HW1 7421   6.298   1.559   2.207 -1.0259 -0.4217  0.7133
 2174SOL    HW2 7422   6.352   1.610   2.352  0.9892  1.4146 -0.6009
 2175SOL     OW 7423   0.831   3.120   5.930  0.0499  0.6866 -0.5831
 2175SOL    HW1 7424   0.920   3.100   5.889  1.2720  1.6608  1.4816
 2175SOL    HW2 7425   0.796   3.206   5.893  0.9252  1.3253  0.0414
 2176SOL     OW 7426   0.157   1.118   0.504 -0.4384 -0.4727 -0.0916
 2176SOL    HW1 7427   0.058   1.104   0.494  0.0378 -2.3112 -4.5511
 2176SOL    HW2 7428   0.194   1.050   0.566 -1.7909 -0.7850  0.4125
 2177SOL     OW 7429   3.060   1.086   4.574 -0.7909 -0.1179  0.2996
 2177SOL    HW1 7430   2.984   1.129   4.524  0.8799 -0.2333 -2.5796
 2177SOL    HW2 7431   3.051   0.987   4.570  1.3957 -0.3700 -3.7250
 2178SOL     OW 7432   4.562   2.253   6.442 -0.5359 -0.0598  0.5709
 2178SOL    HW1 7433   4.567   2.345   6.481 -0.4426  0.1414  0.0895
 2178SOL    HW2 7434   4.654   2.215   6.435 -0.6789 -0.8774  2.3481
 2179SOL     OW 7435   2.046   2.658   4.486  0.2929  0.2000 -0.3938
 2179SOL    HW1 7436   1.980   2.704   4.545  0.1806 -1.6654  1.0384
 2179SOL    HW2 7437   2.048   2.702   4.396 -1.1848  1.7182  0.2783
 2180SOL     OW 7438   6.967   4.552   4.877 -0.2037  0.0031  0.3525
 2180SOL    HW1 7439   7.006   4.543   4.969 -1.6800 -2.1640  0.8582
 2180SOL    HW2 7440   6.903   4.476   4.861 -0.8358  0.9614 -2.0581
 2181SOL     OW 7441   2.832   0.681   3.471 -0.3604  0.2615  0.6379
 2181SOL    HW1 7442   2.922   0.691   3.512 -0.4443  1.5390  0.5534
 2181SOL    HW2 7443   2.762   0.691   3.541 -0.4439 -0.6851  0.6962
 2182SOL     OW 7444   5.489   2.278   3.166 -0.1726  0.2277 -0.7064
 2182SOL    HW1 7445   5.553   2.342   3.207 -0.3292 -0.1323  0.1065
 2182SOL    HW2 7446   5.395   2.309   3.182 -0.3373 -1.1577  1.3796
 2183SOL     OW 7447   2.885   3.894   5.920 -0.7751 -0.0340  0.1170
 2183SOL    HW1 7448   2.877   3.990   5.945 -0.1904 -0.1105  0.6161
 2183SOL    HW2 7449   2.794   3.851   5.924 -1.1216  0.6156 -0.6279
 2184SOL     OW 7450   6.697   4.728   6.255  0.1153 -0.8426 -0.3344
 2184SOL    HW1 7451   6.778   4.707   6.201 -1.0268 -0.6832 -2.2087
 2184SOL    HW2 7452   6.644   4.644   6.271 -0.6759 -0.5761 -1.4281
 2185SOL     OW 7453   4.094   3.768   6.871 -0.1542 -0.1932  0.1712
 2185SOL    HW1 7454   3.997   3.752   6.856 -0.3894  1.4980 -0.3540
 2185SOL    HW2 7455   4.120   3.856   6.832  1.0221  0.5908  2.5015
 2186SOL     OW 7456   2.651   3.126   0.278  0.1114  0.9482 -0.3567
 2186SOL    HW1 7457   2.619   3.206   0.227 -0.5487 -0.0634 -1.5991
 2186SOL    HW2 7458   2.582   3.053   0.273  0.3735  0.5267  1.3557
 2187SOL     OW 7459   1.583   4.546   2.645 -0.1900 -0.2801 -0.2032
 2187SOL    HW1 7460   1.501   4.516   2.594 -0.5623  1.6300 -0.8166
 2187SOL    HW2 7461   1.655   4.569   2.580  0.0924  0.0957  0.2437
 2188SOL     OW 7462   4.048   5.194   3.799 -0.4039  0.0517  0.0104
 2188SOL    HW1 7463   4.146   5.187   3.818 -0.6144 -1.1034  0.7705
 2188SOL    HW2 7464   3.996   5.161   3.878 -1.3854 -0.7380 -0.9292
 2189SOL     OW 7465   6.515   5.510   2.468 -0.0194 -0.0439 -0.3345
 2189SOL    HW1 7466   6.603   5.546   2.500  0.5309 -0.2140 -1.5898
 2189SOL    HW2 7467   6.440   5.563   2.508  0.7223  1.4361 -0.8346
 2190SOL     OW 7468   1.355   1.408   2.434 -0.3853 -0.2703 -0.1948
 2190SOL    HW1 7469   1.317   1.358   2.511 -0.2372  1.7788  1.2949
 2190SOL    HW2 7470   1.281   1.444   2.377 -0.6180  0.8498  0.7860
 2191SOL     OW 7471   5.592   4.429   5.205  0.2594 -0.2829 -0.6705
 2191SOL    HW1 7472   5.557   4.359   5.268 -0.9847  0.4722 -0.4900
 2191SOL    HW2 7473   5.671   4.474   5.246 -0.1900 -0.1907  0.1127
 2192SOL     OW 7474   5.077   1.850   4.085 -0.2202 -0.0713 -0.7804
 2192SOL    HW1 7475   5.025   1.846   4.170  1.0070  1.4091  0.0999
 2192SOL    HW2 7476   5.158   1.792   4.093 -0.0637  0.1285 -0.8940
 2193SOL     OW 7477   2.622   4.918   2.434 -0.4475 -0.2944  0.4065
 2193SOL    HW1 7478   2.712   4.960   2.441 -0.6901  0.7469 -1.8821
 2193SOL    HW2 7479   2.630   4.825   2.398 -0.2993  0.0419 -0.4576
 2194SOL     OW 7480   1.201   2.833   6.392 -0.1794 -0.0585 -0.0429
 2194SOL    HW1 7481   1.215   2.868   6.299 -2.0364 -1.4138 -0.8924
 2194SOL    HW2 7482   1.262   2.755   6.408  1.7163  1.5043  0.7284
 2195SOL     OW 7483   1.944   5.527   4.224 -0.0963  0.5922 -0.3049
 2195SOL    HW1 7484   2.034   5.555   4.191  0.9391  0.8337  2.3909
 2195SOL    HW2 7485   1.936   5.427   4.220  0.5481  0.5247 -0.0509
 2196SOL     OW 7486   5.952   3.010   4.826 -0.6180  0.3346  0.0840
 2196SOL    HW1 7487   6.046   2.979   4.838 -0.8273  0.1145  1.3107
 2196SOL    HW2 7488   5.919   2.983   4.736 -0.1368 -1.2800  0.3635
 2197SOL     OW 7489   5.576   2.240   4.099  0.0391  0.1236 -0.0064
 2197SOL    HW1 7490   5.515   2.199   4.031  0.1074 -1.4624  0.8178
 2197SOL    HW2 7491   5.542   2.330   4.125 -0.0416  0.7193 -2.0263
 2198SOL     OW 7492   0.984   6.241   3.862  0.4247 -0.4326 -0.3600
 2198SOL    HW1 7493   0.937   6.158   3.893 -1.7163  0.8302 -0.0000
 2198SOL    HW2 7494   0.962   6.317   3.924 -1.6868  1.5277 -3.2363
 2199SOL     OW 7495   0.487   2.345   6.578  0.4770 -0.3753  0.0727
 2199SOL    HW1 7496   0.479   2.296   6.491  2.9385  1.4832 -1.3388
 2199SOL    HW2 7497   0.486   2.443   6.562 -1.3254  0.1100  2.4918
 2200SOL     OW 7498   5.601   4.493   3.395 -0.2304 -0.0984  0.0097
 2200SOL    HW1 7499   5.542   4.567   3.362  0.6541  0.9945  0.8196
 2200SOL    HW2 7500   5.696   4.524   3.396  0.5637 -2.1686 -2.2519
 2201SOL     OW 7501   1.255   2.792   0.219 -0.1909  0.5176  0.3933
 2201SOL    HW1 7502   1.194   2.834   0.286  0.8261  0.2987  1.4910
 2201SOL    HW2 7503   1.278   2.699   0.247  0.1870  0.3908 -0.3066
 2202SOL     OW 7504   5.174   0.864   5.612  0.0929 -0.4555 -0.1136
 2202SOL    HW1 7505   5.209   0.842   5.703 -0.6563 -0.3091  0.2188
 2202SOL    HW2 7506   5.235   0.930   5.568 -0.1540  0.3766  0.7534
 2203SOL     OW 7507   1.187   5.942   0.220  0.4308 -0.4318 -0.2493
 2203SOL    HW1 7508   1.201   6.028   0.170  0.9879 -0.8031 -0.7431
 2203SOL    HW2 7509   1.260   5.931   0.287  1.2566 -1.2478 -1.2388
 2204SOL     OW 7510   5.402   1.369   3.152 -0.1471 -0.1610 -0.1650
 2204SOL    HW1 7511   5.316   1.328   3.185  0.3390  0.8024  2.5344
 2204SOL    HW2 7512   5.386   1.464   3.127 -0.0629 -0.2865 -0.7136
 2205SOL     OW 7513   2.940   5.822   5.680 -0.1835  0.2594 -0.0369
 2205SOL    HW1 7514   3.007   5.748   5.671 -0.2346  0.3531 -1.3421
 2205SOL    HW2 7515   2.966   5.881   5.756 -0.0142 -0.9580  0.8747
 2206SOL     OW 7516   5.168   6.772   3.291  0.0073 -0.9106 -0.0994
 2206SOL    HW1 7517   5.234   6.739   3.223 -2.0709 -4.1213 -0.7804
 2206SOL    HW2 7518   5.104   6.834   3.247  1.8078  1.3857  0.3282
 2207SOL     OW 7519   4.159   5.239   1.925 -0.6537 -0.8526  0.5211
 2207SOL    HW1 7520   4.169   5.331   1.887  0.1072 -1.5298 -1.0433
 2207SOL    HW2 7521   4.141   5.245   2.023 -2.1208  0.9916  0.2108
 2208SOL     OW 7522   2.368   4.708   1.382  0.5245  0.0176  0.0929
 2208SOL    HW1 7523   2.318   4.785   1.423  0.6987 -0.6071  1.5386
 2208SOL    HW2 7524   2.466   4.728   1.384  0.5771 -0.2739  0.5622
 2209SOL     OW 7525   6.567   1.985   5.830  0.1964  0.7357  0.5121
 2209SOL    HW1 7526   6.467   1.989   5.830  0.1294 -0.0450  2.6471
 2209SOL    HW2 7527   6.600   1.989   5.735 -2.0226 -2.4427 -0.5868
 2210SOL     OW 7528   0.965   0.514   4.191 -0.1298  0.1412  0.4068
 2210SOL    HW1 7529   0.952   0.436   4.252 -0.7886 -0.1862 -0.1366
 2210SOL    HW2 7530   0.876   0.550   4.163  0.1641  1.2867  0.8859
 2211SOL     OW 7531   3.504   5.764   0.304  0.3601  0.2600  0.0317
 2211SOL    HW1 7532   3.410   5.794   0.289  0.3214  0.2192  0.1941
 2211SOL    HW2 7533   3.564   5.844   0.306  0.2900  0.3059  0.2208
 2212SOL     OW 7534   4.965   1.339   1.906  0.1090  0.1124  0.6436
 2212SOL    HW1 7535   5.047   1.391   1.883  0.1759  0.3825  1.4671
 2212SOL    HW2 7536   4.897   1.400   1.948 -0.4339 -0.1515  0.1672
 2213SOL     OW 7537   6.460   5.073   2.397  0.3938 -0.1111  0.3993
 2213SOL    HW1 7538   6.498   4.981   2.401 -1.2604 -0.8238  0.5128
 2213SOL    HW2 7539   6.519   5.131   2.342  0.4905 -1.7367 -1.2980
 2214SOL     OW 7540   0.826   6.594   0.623  0.6817 -0.0632 -0.0992
 2214SOL    HW1 7541   0.840   6.496   0.637  1.6865  0.1798  0.7212
 2214SOL    HW2 7542   0.817   6.640   0.712 -3.8425  0.1053 -0.4143
 2215SOL     OW 7543   5.298   6.241   1.853  0.1359  0.7497  0.0220
 2215SOL    HW1 7544   5.214   6.206   1.893 -0.3261  0.0777 -1.4820
 2215SOL    HW2 7545   5.283   6.262   1.757  1.7032  0.6031 -0.2766
 2216SOL     OW 7546   3.261   1.548   6.201  0.0318  0.4429  0.0792
 2216SOL    HW1 7547   3.250   1.633   6.148  0.2832  0.0963 -0.5389
 2216SOL    HW2 7548   3.255   1.569   6.298 -1.9166  0.8728 -0.0918
 2217SOL     OW 7549   3.863   4.047   4.628  0.0999  0.0514  0.1082
 2217SOL    HW1 7550   3.873   4.082   4.722  0.6910  0.6461 -0.1670
 2217SOL    HW2 7551   3.766   4.035   4.607 -0.0792  0.7556  0.4981
 2218SOL     OW 7552   5.060   6.247   0.629 -0.0696  0.7733  0.3127
 2218SOL    HW1 7553   4.985   6.271   0.691 -0.0559  0.2105  0.5550
 2218SOL    HW2 7554   5.093   6.156   0.652  0.4588  0.8810 -0.0213
 2219SOL     OW 7555   5.762   0.543   3.813 -0.3904  0.3290 -0.5917
 2219SOL    HW1 7556   5.763   0.450   3.851  1.5554  0.8057  0.6305
 2219SOL    HW2 7557   5.856   0.571   3.792 -0.7536  2.6508  0.6477
 2220SOL     OW 7558   6.052   1.780   6.790  0.0214  0.1541  0.3142
 2220SOL    HW1 7559   6.008   1.813   6.707 -1.4454 -1.4269  0.4181
 2220SOL    HW2 7560   6.098   1.693   6.771  0.9943  0.5351  0.8222
 2221SOL     OW 7561   0.947   0.589   6.481 -0.2704 -0.0433  0.5637
 2221SOL    HW1 7562   0.912   0.543   6.562  1.9207 -2.7972  0.1160
 2221SOL    HW2 7563   0.914   0.543   6.399  2.1845 -1.1227  0.0964
 2222SOL     OW 7564   5.471   5.701   5.025  0.1237 -0.4965  0.3545
 2222SOL    HW1 7565   5.486   5.764   5.102  0.1046 -0.8196  0.6225
 2222SOL    HW2 7566   5.463   5.608   5.059 -2.4101 -0.3928  0.2570
 2223SOL     OW 7567   1.707   5.785   1.822  0.4271 -0.0230  0.2191
 2223SOL    HW1 7568   1.637   5.800   1.752  0.9073 -1.5311 -0.6182
 2223SOL    HW2 7569   1.693   5.696   1.865  0.1760  0.8490  2.0398
 2224SOL     OW 7570   4.436   2.433   1.954 -0.0766  0.2524  0.8951
 2224SOL    HW1 7571   4.530   2.458   1.978  0.2425  1.3241 -1.2626
 2224SOL    HW2 7572   4.421   2.336   1.974  1.9327 -0.2861  0.0305
 2225SOL     OW 7573   3.905   6.663   0.428 -0.2840 -0.1873 -0.2464
 2225SOL    HW1 7574   3.921   6.720   0.509 -2.5186 -1.7044  1.3657
 2225SOL    HW2 7575   3.905   6.721   0.346  4.6336  1.0767  0.3358
 2226SOL     OW 7576   6.796   1.257   1.581  0.3766 -0.0701  0.3271
 2226SOL    HW1 7577   6.888   1.245   1.619  0.6753  2.3803  0.5220
 2226SOL    HW2 7578   6.734   1.290   1.652 -0.5667 -1.2579  0.0836
 2227SOL     OW 7579   2.716   1.607   2.131  0.5358  0.2431  0.4023
 2227SOL    HW1 7580   2.649   1.668   2.090  2.0656  1.0707 -0.9805
 2227SOL    HW2 7581   2.756   1.650   2.212  0.5881  0.4554  0.2618
 2228SOL     OW 7582   2.982   0.009   5.851  0.8649  0.0484 -0.1832
 2228SOL    HW1 7583   2.981   0.050   5.760 -0.5397 -0.2330 -0.3230
 2228SOL    HW2 7584   2.911   0.051   5.908 -0.7720 -2.2350 -0.3976
 2229SOL     OW 7585   6.214   0.246   6.997 -0.4249 -0.2499  0.1610
 2229SOL    HW1 7586   6.155   0.282   7.070  0.9242 -1.0540  1.7144
 2229SOL    HW2 7587   6.159   0.227   6.916 -1.7853  1.7639  0.5479
 2230SOL     OW 7588   4.299   0.880   5.733  0.4993  0.2665  0.4534
 2230SOL    HW1 7589   4.274   0.808   5.798  0.6369  0.1473  0.3734
 2230SOL    HW2 7590   4.285   0.970   5.776 -1.5500  0.2609 -0.0952
 2231SOL     OW 7591   0.156   0.375   2.822 -0.1203 -0.0907 -0.1874
 2231SOL    HW1 7592   0.235   0.351   2.764  3.2241 -0.1711  3.9135
 2231SOL    HW2 7593   0.154   0.474   2.834  0.8567 -0.2338  1.4509
 2232SOL     OW 7594   5.839   0.560   0.948 -0.2905 -0.7103 -0.3314
 2232SOL    HW1 7595   5.825   0.651   0.909 -1.8100 -0.5291  0.5539
 2232SOL    HW2 7596   5.793   0.492   0.890  0.6178 -0.8893 -0.8495
 2233SOL     OW 7597   5.361   4.695   4.830  0.2265 -0.0310  0.5751
 2233SOL    HW1 7598   5.288   4.700   4.898 -0.3348  0.6773 -0.0633
 2233SOL    HW2 7599   5.434   4.759   4.854 -0.0702  0.3756  0.4078
 2234SOL     OW 7600   6.758   1.770   3.577 -0.4732 -0.6687 -0.6024
 2234SOL    HW1 7601   6.762   1.685   3.631  0.9338 -0.4261 -0.2852
 2234SOL    HW2 7602   6.742   1.747   3.481  1.9161 -1.5135 -0.8861
 2235SOL     OW 7603   3.716   0.782   6.948  0.1634 -0.0711  0.0467
 2235SOL    HW1 7604   3.623   0.764   6.916 -0.3674  1.0836  0.8882
 2235SOL    HW2 7605   3.767   0.829   6.876  0.4195 -1.5269 -0.7719
 2236SOL     OW 7606   6.744   4.680   2.244 -0.3593 -0.5045 -0.3052
 2236SOL    HW1 7607   6.751   4.769   2.289 -1.0674 -0.8245  0.4628
 2236SOL    HW2 7608   6.710   4.612   2.309  1.6356 -1.6964 -0.4299
 2237SOL     OW 7609   2.310   4.175   2.038  0.0366  0.1455 -0.2578
 2237SOL    HW1 7610   2.355   4.126   1.964  0.7675  1.1368 -0.4798
 2237SOL    HW2 7611   2.211   4.179   2.020 -0.0399 -1.2347 -0.2234
 2238SOL     OW 7612   6.073   2.520   6.719  0.2148  0.1267  0.1549
 2238SOL    HW1 7613   6.054   2.590   6.789 -1.3509  0.8500 -0.9320
 2238SOL    HW2 7614   6.149   2.550   6.662 -0.6892  1.1769 -0.5488
 2239SOL     OW 7615   5.322   4.034   4.579 -0.8976 -0.0559 -0.3004
 2239SOL    HW1 7616   5.243   4.060   4.634  0.0375 -0.3623  1.2500
 2239SOL    HW2 7617   5.391   3.992   4.637 -0.6417 -2.2333 -2.0230
 2240SOL     OW 7618   1.779   4.798   3.048  0.0810  0.7064 -0.3035
 2240SOL    HW1 7619   1.743   4.789   3.141  1.4892  2.2405  0.4554
 2240SOL    HW2 7620   1.709   4.771   2.982 -0.9648 -0.3783  1.1887
 2241SOL     OW 7621   4.306   2.801   0.586  0.1441  0.9041 -0.4541
 2241SOL    HW1 7622   4.381   2.742   0.557 -0.1219  0.2043  0.2587
 2241SOL    HW2 7623   4.319   2.828   0.681 -1.1939 -0.3456  0.1178
 2242SOL     OW 7624   4.393   1.571   4.288  0.0473 -0.1878  0.4099
 2242SOL    HW1 7625   4.376   1.647   4.351 -2.6559  0.9980 -1.5519
 2242SOL    HW2 7626   4.432   1.605   4.203 -0.2537 -1.1289 -0.1251
 2243SOL     OW 7627   6.487   2.169   1.309  0.2689  0.4876  0.0641
 2243SOL    HW1 7628   6.433   2.209   1.235 -1.1354 -0.2368  0.6649
 2243SOL    HW2 7629   6.543   2.241   1.352 -1.5592  1.6801  0.5737
 2244SOL     OW 7630   5.343   2.367   6.974 -0.0866 -0.2388  0.4896
 2244SOL    HW1 7631   5.320   2.348   6.879  0.7613 -2.0720  0.6105
 2244SOL    HW2 7632   5.347   2.466   6.988  2.1705  0.1207 -1.9851
 2245SOL     OW 7633   4.817   2.295   3.196  0.1939 -0.2671  0.0413
 2245SOL    HW1 7634   4.819   2.395   3.199 -0.0563 -0.2856  1.9928
 2245SOL    HW2 7635   4.814   2.265   3.101 -0.3060  1.5847 -0.5706
 2246SOL     OW 7636   5.857   0.131   2.030  0.1002  0.1841 -0.0502
 2246SOL    HW1 7637   5.893   0.062   2.092  1.3989  1.9678  1.2733
 2246SOL    HW2 7638   5.767   0.102   1.997 -0.3275 -1.1706  2.1002
 2247SOL     OW 7639   2.989   1.188   0.281 -0.4327 -0.1609  0.1294
 2247SOL    HW1 7640   2.939   1.222   0.201  1.0069  0.1057 -0.6883
 2247SOL    HW2 7641   3.030   1.099   0.259 -0.4052 -0.3012  0.7367
 2248SOL     OW 7642   0.854   0.208   6.089  0.1282 -0.0708 -0.4006
 2248SOL    HW1 7643   0.854   0.138   6.018 -1.4350 -0.3678 -0.1440
 2248SOL    HW2 7644   0.804   0.174   6.169  1.3212  0.4938  0.6069
 2249SOL     OW 7645   3.698   5.588   2.870  0.0257  0.3508 -0.3308
 2249SOL    HW1 7646   3.723   5.572   2.966  1.6981 -0.9674 -0.9530
 2249SOL    HW2 7647   3.691   5.501   2.823 -2.2714  0.8850 -1.1062
 2250SOL     OW 7648   3.898   0.300   3.948  0.1092 -0.0165 -0.1305
 2250SOL    HW1 7649   3.860   0.235   4.013  1.1886 -1.2729 -0.7014
 2250SOL    HW2 7650   3.922   0.252   3.863  0.5374  1.2178 -0.7387
 2251SOL     OW 7651   0.053   2.587   3.753 -0.3153  0.3295  0.0129
 2251SOL    HW1 7652   0.123   2.639   3.803  0.7059 -0.2762 -0.7345
 2251SOL    HW2 7653   0.022   2.511   3.810  0.5335 -0.1082 -0.0940
 2252SOL     OW 7654   4.362   4.626   3.444  0.3092 -0.2835 -0.4103
 2252SOL    HW1 7655   4.390   4.649   3.537  0.5442 -0.9845 -0.3003
 2252SOL    HW2 7656   4.281   4.678   3.419  1.1808  1.1226 -0.4030
 2253SOL     OW 7657   6.798   6.639   6.155  0.3761  0.5316  0.2280
 2253SOL    HW1 7658   6.709   6.595   6.162 -0.4259  2.1240  0.4983
 2253SOL    HW2 7659   6.866   6.572   6.127 -0.2586 -1.4659  3.0565
 2254SOL     OW 7660   1.134   0.740   5.842 -0.0034 -0.2580  0.1317
 2254SOL    HW1 7661   1.174   0.650   5.828 -0.0321 -0.3365  0.5280
 2254SOL    HW2 7662   1.147   0.767   5.938 -2.2458 -0.9498  0.6901
 2255SOL     OW 7663   0.753   3.745   4.604 -0.1439 -0.0647 -0.5585
 2255SOL    HW1 7664   0.679   3.681   4.624 -0.7820  0.6019 -0.7531
 2255SOL    HW2 7665   0.817   3.747   4.681 -1.7331  1.3078  0.8071
 2256SOL     OW 7666   4.197   2.259   0.983 -0.0271  0.4286 -0.4654
 2256SOL    HW1 7667   4.224   2.259   1.080  2.5167 -1.7518 -1.0472
 2256SOL    HW2 7668   4.272   2.298   0.928 -0.5725 -0.2680 -1.7307
 2257SOL     OW 7669   1.473   5.689   6.666 -0.3102  0.1069 -0.2949
 2257SOL    HW1 7670   1.457   5.614   6.729  2.3861  0.6721  1.2415
 2257SOL    HW2 7671   1.412   5.765   6.688  0.4464  0.2190  1.5755
 2258SOL     OW 7672   6.582   1.993   1.576  0.4079  0.1078 -0.3628
 2258SOL    HW1 7673   6.511   2.056   1.545 -0.3084 -0.3774  0.2445
 2258SOL    HW2 7674   6.649   2.042   1.631 -1.8767 -0.1149  2.9070
 2259SOL     OW 7675   5.951   2.209   4.383 -0.1170  0.0217  0.2264
 2259SOL    HW1 7676   6.051   2.208   4.389 -0.0458  0.1902 -0.6608
 2259SOL    HW2 7677   5.924   2.237   4.290 -0.9695 -1.6677 -0.0714
 2260SOL     OW 7678   5.145   4.779   3.959 -0.3625  0.1210  0.5501
 2260SOL    HW1 7679   5.199   4.724   3.895 -0.9285 -0.1592  0.3111
 2260SOL    HW2 7680   5.179   4.763   4.052  0.6279  0.7245  0.3053
 2261SOL     OW 7681   4.836   5.568   1.389 -0.0555  0.4310  0.1655
 2261SOL    HW1 7682   4.927   5.576   1.430  0.6210  1.7766 -1.4682
 2261SOL    HW2 7683   4.829   5.631   1.311 -2.7192  1.0511  0.8066
 2262SOL     OW 7684   3.491   0.721   5.188 -0.6069 -0.5266 -0.0355
 2262SOL    HW1 7685   3.443   0.796   5.233 -0.0580  0.2205 -0.6484
 2262SOL    HW2 7686   3.441   0.692   5.106  0.8920  1.6577 -1.8727
 2263SOL     OW 7687   2.171   3.299   2.494  0.0490  0.1954  0.0315
 2263SOL    HW1 7688   2.092   3.360   2.502 -0.6559 -0.8901  2.2711
 2263SOL    HW2 7689   2.254   3.350   2.517 -0.3549  0.6777  0.4730
 2264SOL     OW 7690   1.363   3.767   2.727 -0.8261 -0.1753  0.3589
 2264SOL    HW1 7691   1.297   3.804   2.662 -2.0481  0.2377  1.7998
 2264SOL    HW2 7692   1.427   3.839   2.754 -0.6043 -0.2279 -0.0164
 2265SOL     OW 7693   2.144   5.541   1.315  0.1475  0.6635 -0.3753
 2265SOL    HW1 7694   2.224   5.593   1.343 -0.5245  0.9604  1.0906
 2265SOL    HW2 7695   2.167   5.444   1.307  0.3003  0.4935  1.6939
 2266SOL     OW 7696   4.426   3.440   1.518  0.2299  0.3420 -0.2420
 2266SOL    HW1 7697   4.505   3.382   1.502 -0.0905 -0.1458 -0.0621
 2266SOL    HW2 7698   4.377   3.453   1.431 -0.3479 -0.6088 -0.0627
 2267SOL     OW 7699   1.297   1.864   2.668  0.0750  0.2022  0.0665
 2267SOL    HW1 7700   1.244   1.799   2.612 -0.5119  1.4702 -0.9073
 2267SOL    HW2 7701   1.391   1.830   2.677 -0.2750 -0.9046 -0.1968
 2268SOL     OW 7702   1.555   4.618   6.920 -0.2202  0.2552  0.6061
 2268SOL    HW1 7703   1.628   4.675   6.883 -0.7917  1.7752  1.7113
 2268SOL    HW2 7704   1.466   4.661   6.902 -0.7874 -1.0360  0.1939
 2269SOL     OW 7705   4.642   1.136   0.522  0.0982 -0.3588 -0.0457
 2269SOL    HW1 7706   4.735   1.169   0.511  0.1670  0.1081  1.6237
 2269SOL    HW2 7707   4.643   1.037   0.534  0.1006 -0.7405 -2.7003
 2270SOL     OW 7708   0.715   0.011   0.156  0.1321  0.0825  0.2522
 2270SOL    HW1 7709   0.681   0.087   0.100  0.5162  0.0978  0.0416
 2270SOL    HW2 7710   0.682   0.023   0.250 -1.2793 -0.4270 -0.1419
 2271SOL     OW 7711   6.696   1.672   1.476 -0.1654  0.2308  0.0991
 2271SOL    HW1 7712   6.621   1.687   1.412 -0.0809  0.0192 -0.0510
 2271SOL    HW2 7713   6.663   1.682   1.570 -0.6980 -1.1501  0.0930
 2272SOL     OW 7714   2.051   6.078   1.297  0.7085  0.0620 -0.1104
 2272SOL    HW1 7715   2.063   5.988   1.340  1.6629  0.8484  1.3725
 2272SOL    HW2 7716   2.097   6.078   1.208 -0.0392 -1.1655 -0.5170
 2273SOL     OW 7717   1.943   2.823   3.820  0.0416  0.3621  0.6308
 2273SOL    HW1 7718   1.994   2.824   3.733 -0.3273  0.1053  0.4088
 2273SOL    HW2 7719   1.915   2.730   3.841 -0.7035  0.5597  0.5293
 2274SOL     OW 7720   3.944   3.877   2.817  0.1779  0.5460 -0.1098
 2274SOL    HW1 7721   3.849   3.853   2.800  0.2608  0.5012 -0.5123
 2274SOL    HW2 7722   3.948   3.946   2.890 -0.1282  0.1725  0.2622
 2275SOL     OW 7723   1.318   0.379   4.898  0.0918 -0.3384 -0.4709
 2275SOL    HW1 7724   1.344   0.359   4.804 -1.0388  2.6601 -1.5596
 2275SOL    HW2 7725   1.399   0.407   4.950  0.7896 -2.4035 -0.3676
 2276SOL     OW 7726   2.168   2.802   5.686 -0.0997  0.3285 -0.0693
 2276SOL    HW1 7727   2.232   2.861   5.735 -1.3778  1.0956  0.7076
 2276SOL    HW2 7728   2.075   2.836   5.698 -0.5818 -0.1745 -2.0223
 2277SOL     OW 7729   0.969   2.213   3.303  0.1224  0.1996 -0.1228
 2277SOL    HW1 7730   0.921   2.201   3.216  0.3425 -0.8998 -0.1129
 2277SOL    HW2 7731   0.955   2.306   3.336  0.0190  0.6303 -1.3198
 2278SOL     OW 7732   4.014   5.118   0.630 -0.4190  0.6555  0.6529
 2278SOL    HW1 7733   3.928   5.167   0.647  0.3133  2.2279  0.1174
 2278SOL    HW2 7734   4.088   5.185   0.621  0.6005 -0.5657 -0.3920
 2279SOL     OW 7735   0.911   2.743   4.208 -0.3925 -0.5171  0.2893
 2279SOL    HW1 7736   0.985   2.783   4.154 -1.0526 -0.4870 -0.6055
 2279SOL    HW2 7737   0.939   2.739   4.304 -0.0702  1.5013  0.3150
 2280SOL     OW 7738   7.006   1.653   4.924  0.2245  0.2124  0.0674
 2280SOL    HW1 7739   7.009   1.687   4.829 -0.2602 -0.1098 -0.0639
 2280SOL    HW2 7740   7.004   1.553   4.924  3.9262  0.0016  0.4874
 2281SOL     OW 7741   2.929   1.262   6.850 -0.6399 -0.2882  0.4901
 2281SOL    HW1 7742   3.020   1.226   6.867 -0.2094  0.9856  0.9593
 2281SOL    HW2 7743   2.919   1.285   6.754 -1.1153 -2.1255  0.0581
 2282SOL     OW 7744   4.806   4.897   0.302  0.0943 -0.3666 -0.1401
 2282SOL    HW1 7745   4.828   4.979   0.354 -2.1504  0.1529  0.0804
 2282SOL    HW2 7746   4.746   4.920   0.225  1.4309 -1.4712 -1.5916
 2283SOL     OW 7747   0.801   6.565   0.038 -0.2184  0.3145 -0.4086
 2283SOL    HW1 7748   0.807   6.515  -0.048 -0.3241  0.6392 -0.6053
 2283SOL    HW2 7749   0.748   6.512   0.104  1.8034 -1.0235  0.2405
 2284SOL     OW 7750   3.894   3.999   2.015  0.3077 -0.3656 -0.0264
 2284SOL    HW1 7751   3.883   4.099   2.021  1.1738 -0.3619  2.5865
 2284SOL    HW2 7752   3.974   3.978   1.960 -0.8617  0.2593 -2.0939
 2285SOL     OW 7753   3.397   1.604   5.801  0.1711  0.2900 -0.3787
 2285SOL    HW1 7754   3.398   1.512   5.761 -0.9021  0.2581 -0.3655
 2285SOL    HW2 7755   3.479   1.654   5.772  0.1708 -0.2618 -1.3763
 2286SOL     OW 7756   0.421   4.102   0.801  0.0432 -0.1072  0.6609
 2286SOL    HW1 7757   0.445   4.184   0.853 -0.3043 -0.2923  1.1201
 2286SOL    HW2 7758   0.420   4.023   0.862  1.3333 -0.6298  0.0308
 2287SOL     OW 7759   2.307   4.851   5.823  0.2933  0.1828 -0.2474
 2287SOL    HW1 7760   2.214   4.814   5.813  0.6571 -0.9583  0.3489
 2287SOL    HW2 7761   2.373   4.775   5.820  1.0022  0.5928  2.3274
 2288SOL     OW 7762   1.074   6.038   3.581 -0.0962  0.6005  0.0303
 2288SOL    HW1 7763   1.127   6.047   3.496 -1.3478  0.1097 -0.8337
 2288SOL    HW2 7764   0.977   6.034   3.559 -0.3517 -1.9384  1.2918
 2289SOL     OW 7765   1.366   3.142   3.782 -0.2767 -0.5254 -0.0354
 2289SOL    HW1 7766   1.432   3.204   3.739 -0.9269  0.3175  0.1648
 2289SOL    HW2 7767   1.340   3.177   3.872 -2.4175  0.1819 -0.8777
 2290SOL     OW 7768   5.516   0.212   3.438 -0.0627  0.0629  1.0501
 2290SOL    HW1 7769   5.560   0.246   3.355 -1.6418  0.0034  0.1338
 2290SOL    HW2 7770   5.541   0.269   3.516  0.7692  0.6512  0.3655
 2291SOL     OW 7771   1.768   5.758   5.297  0.1970 -0.0667  0.1745
 2291SOL    HW1 7772   1.700   5.811   5.349  0.4005  0.5076 -0.1440
 2291SOL    HW2 7773   1.735   5.664   5.288  0.9212 -0.6669  2.8260
 2292SOL     OW 7774   3.465   4.079   1.898  0.4960 -0.1191 -0.1920
 2292SOL    HW1 7775   3.547   4.132   1.874  0.4689  1.8575  3.2598
 2292SOL    HW2 7776   3.425   4.118   1.982 -2.7021 -2.4345 -0.4806
 2293SOL     OW 7777   4.166   1.071   4.475  0.5546 -0.1687  0.4221
 2293SOL    HW1 7778   4.082   1.085   4.528  0.5926  2.8148 -0.1288
 2293SOL    HW2 7779   4.245   1.095   4.531  0.7467  0.7881 -0.2401
 2294SOL     OW 7780   4.035   3.230   5.693  0.0380 -0.1406 -0.0464
 2294SOL    HW1 7781   4.119   3.283   5.680 -0.4234  0.3214 -1.3369
 2294SOL    HW2 7782   4.055   3.133   5.679  0.2161  0.0454 -1.2031
 2295SOL     OW 7783   1.354   1.563   3.558 -0.6898 -0.0241 -0.4879
 2295SOL    HW1 7784   1.315   1.471   3.559 -0.6134 -0.0595 -0.7030
 2295SOL    HW2 7785   1.281   1.630   3.549 -0.6031 -0.1521 -2.4959
 2296SOL     OW 7786   2.055   3.414   3.465 -0.2675  0.3711  0.5894
 2296SOL    HW1 7787   2.075   3.334   3.523 -2.2821 -0.1086  0.7160
 2296SOL    HW2 7788   2.025   3.490   3.523  0.6476  0.9123  0.3805
 2297SOL     OW 7789   6.848   1.595   6.389  0.6255  0.0974 -0.6273
 2297SOL    HW1 7790   6.835   1.496   6.398  1.8115 -0.0140  0.0760
 2297SOL    HW2 7791   6.843   1.621   6.293  2.1190 -0.9434 -1.0272
 2298SOL     OW 7792   4.866   3.996   1.383  0.1051  0.0367  0.5014
 2298SOL    HW1 7793   4.862   4.074   1.445  0.5937  0.7461 -0.3450
 2298SOL    HW2 7794   4.777   3.951   1.379 -1.8945  3.7021 -3.0089
 2299SOL     OW 7795   5.251   0.765   6.288 -0.2470 -0.2549  0.0041
 2299SOL    HW1 7796   5.234   0.679   6.239  1.3545 -0.2300 -0.6586
 2299SOL    HW2 7797   5.164   0.805   6.316 -1.0735 -1.5790 -0.5588
 2300SOL     OW 7798   6.968   1.327   5.820  0.3279  0.4544 -0.1680
 2300SOL    HW1 7799   6.918   1.245   5.848 -1.9176  2.6568  2.9923
 2300SOL    HW2 7800   7.066   1.308   5.819 -0.1433 -2.4685 -0.5934
 2301SOL     OW 7801   3.601   4.128   4.527 -0.2214  0.0224  0.2496
 2301SOL    HW1 7802   3.511   4.119   4.485 -0.0032 -3.5241  0.2302
 2301SOL    HW2 7803   3.590   4.156   4.623 -1.5786 -2.0006  0.7630
 2302SOL     OW 7804   6.044   2.113   3.490  0.2934 -0.5336 -0.8448
 2302SOL    HW1 7805   6.128   2.079   3.531  0.3396 -0.7860 -1.1467
 2302SOL    HW2 7806   6.037   2.212   3.506  0.0087 -0.7248  0.2869
 2303SOL     OW 7807   5.460   1.424   3.687  0.5591 -0.0793 -0.2027
 2303SOL    HW1 7808   5.460   1.392   3.592  2.2019 -0.5475 -0.0873
 2303SOL    HW2 7809   5.513   1.360   3.743 -0.5228  0.1027  1.0709
 2304SOL     OW 7810   1.167   4.384   4.071  0.2702 -0.0451 -0.2120
 2304SOL    HW1 7811   1.183   4.291   4.102 -1.5955 -0.4205 -0.2620
 2304SOL    HW2 7812   1.120   4.436   4.142 -0.0060  0.4157 -0.7181
 2305SOL     OW 7813   1.963   5.072   1.050 -0.2915 -0.1044 -0.2102
 2305SOL    HW1 7814   1.944   4.975   1.038  2.7850 -1.4297  3.6119
 2305SOL    HW2 7815   1.881   5.119   1.081 -1.4549 -1.7997 -0.6154
 2306SOL     OW 7816   6.480   4.785   1.457 -0.3497  0.2301  0.7075
 2306SOL    HW1 7817   6.504   4.696   1.418 -0.1226  1.4646 -2.2796
 2306SOL    HW2 7818   6.564   4.834   1.482 -0.3144  0.5764 -0.0691
 2307SOL     OW 7819   6.758   5.292   6.465 -0.9954  0.2390 -0.0655
 2307SOL    HW1 7820   6.843   5.273   6.515 -1.4780  1.1538  1.1457
 2307SOL    HW2 7821   6.684   5.310   6.530 -1.4943  2.1132 -1.0917
 2308SOL     OW 7822   6.468   2.880   1.243  0.0158 -0.2650 -0.1320
 2308SOL    HW1 7823   6.532   2.941   1.195 -0.5236 -0.8720 -1.6973
 2308SOL    HW2 7824   6.383   2.874   1.192 -1.4981  0.8254  2.1283
 2309SOL     OW 7825   6.163   1.556   6.707 -0.1131  0.3476  0.0859
 2309SOL    HW1 7826   6.107   1.473   6.712  0.5453 -0.0539  3.2674
 2309SOL    HW2 7827   6.256   1.532   6.682 -0.0015  0.1276  0.6829
 2310SOL     OW 7828   3.753   4.656   5.826  0.1080 -0.3041  0.4038
 2310SOL    HW1 7829   3.816   4.581   5.847 -0.8926 -1.6163 -1.0398
 2310SOL    HW2 7830   3.714   4.641   5.735  1.9887  3.4329 -1.2361
 2311SOL     OW 7831   0.958   1.590   5.491 -0.5711 -0.3670  0.1123
 2311SOL    HW1 7832   0.916   1.674   5.456  2.7432  0.7218 -1.8025
 2311SOL    HW2 7833   1.013   1.612   5.571  1.4995 -0.2403 -1.2450
 2312SOL     OW 7834   0.818   0.199   3.392 -0.0413  0.1039  0.0264
 2312SOL    HW1 7835   0.768   0.278   3.355  2.2065  0.6795 -2.0462
 2312SOL    HW2 7836   0.755   0.121   3.400 -1.7495  1.3867 -0.3057
 2313SOL     OW 7837   4.929   3.840   0.874  0.2530 -0.4357 -0.2450
 2313SOL    HW1 7838   4.936   3.928   0.921 -1.3841 -0.8023  0.7970
 2313SOL    HW2 7839   5.020   3.807   0.851  1.1477 -0.0216  2.3177
 2314SOL     OW 7840   0.789   2.000   0.972 -0.8738  0.6355 -0.2384
 2314SOL    HW1 7841   0.818   2.096   0.974 -0.0406  0.3915  1.2849
 2314SOL    HW2 7842   0.718   1.986   1.041 -1.9585  0.4194 -1.3750
 2315SOL     OW 7843   3.292   3.500   6.467  0.5035  0.0142  0.0197
 2315SOL    HW1 7844   3.329   3.505   6.559 -0.0049  1.4901  0.1697
 2315SOL    HW2 7845   3.203   3.455   6.470  0.4837  0.0658  0.2616
 2316SOL     OW 7846   6.606   0.933   0.252 -0.4910  0.5255 -0.1007
 2316SOL    HW1 7847   6.640   1.004   0.315  0.6187  1.2066 -1.4246
 2316SOL    HW2 7848   6.667   0.855   0.253 -0.4158  0.5804 -0.4142
 2317SOL     OW 7849   5.631   0.460   2.320 -0.1934  0.0682 -0.1717
 2317SOL    HW1 7850   5.723   0.479   2.284 -0.3951  3.4680  0.7125
 2317SOL    HW2 7851   5.637   0.390   2.390  2.4630  2.4601  2.2927
 2318SOL     OW 7852   2.150   3.368   4.498  0.1485 -0.1992 -0.3315
 2318SOL    HW1 7853   2.136   3.408   4.407  0.1864 -2.3639 -1.3499
 2318SOL    HW2 7854   2.244   3.384   4.527 -0.2405  1.7314  0.0071
 2319SOL     OW 7855   5.579   3.446   0.119 -0.6249  0.0138  0.1887
 2319SOL    HW1 7856   5.655   3.497   0.159 -1.0049  0.1086  0.7890
 2319SOL    HW2 7857   5.536   3.389   0.189 -1.5859  0.5286  0.0333
 2320SOL     OW 7858   4.102   6.147   0.382 -0.6132  0.0266 -0.0429
 2320SOL    HW1 7859   4.146   6.083   0.445  0.0086  0.4779 -0.0125
 2320SOL    HW2 7860   4.061   6.096   0.306 -2.6722 -0.6833  1.4390
 2321SOL     OW 7861   0.408   4.103   6.278 -0.2061 -0.6203 -0.7730
 2321SOL    HW1 7862   0.345   4.138   6.347 -0.0080  0.5413 -1.1524
 2321SOL    HW2 7863   0.373   4.122   6.186  1.2893  1.3096 -1.0093
 2322SOL     OW 7864   1.354   2.260   4.284  0.3585  0.1702 -0.6357
 2322SOL    HW1 7865   1.309   2.339   4.327  2.4604  1.6825 -0.9982
 2322SOL    HW2 7866   1.285   2.197   4.249 -1.4776 -0.0390  2.8418
 2323SOL     OW 7867   1.321   5.343   5.059 -0.1183 -0.2091 -0.3375
 2323SOL    HW1 7868   1.394   5.313   5.119  0.1684 -1.1326 -1.1066
 2323SOL    HW2 7869   1.232   5.326   5.103  0.1120  1.5858  0.8944
 2324SOL     OW 7870   5.488   5.770   6.398  0.1430 -0.3236  0.7466
 2324SOL    HW1 7871   5.393   5.789   6.424 -0.2971 -1.6461  0.1973
 2324SOL    HW2 7872   5.528   5.703   6.460  0.9757  0.7686  1.4136
 2325SOL     OW 7873   1.987   1.531   3.725 -0.9139 -0.0230  0.8009
 2325SOL    HW1 7874   1.994   1.593   3.647 -3.0525  1.2793  1.5628
 2325SOL    HW2 7875   1.892   1.502   3.737 -0.6425 -0.1918  2.8944
 2326SOL     OW 7876   7.022   1.520   0.254 -0.6559  0.0586 -0.0657
 2326SOL    HW1 7877   7.011   1.612   0.216  0.7289 -0.3511 -1.5718
 2326SOL    HW2 7878   6.941   1.465   0.231 -1.5331  0.8913  0.9238
 2327SOL     OW 7879   0.423   0.128   1.624  0.6703 -0.0111  0.2531
 2327SOL    HW1 7880   0.503   0.069   1.618  0.8336  0.3392 -1.4685
 2327SOL    HW2 7881   0.423   0.193   1.548 -2.3466 -1.3938 -1.0945
 2328SOL     OW 7882   2.006   5.158   5.596  0.2404 -0.5591  0.3014
 2328SOL    HW1 7883   1.985   5.218   5.519  0.2820 -0.5164  0.3236
 2328SOL    HW2 7884   2.087   5.192   5.644 -1.0238  0.6360  1.6745
 2329SOL     OW 7885   2.643   5.427   4.644  0.1298 -0.3327 -0.5051
 2329SOL    HW1 7886   2.607   5.398   4.555 -0.2490  1.5096 -1.0111
 2329SOL    HW2 7887   2.596   5.379   4.717 -0.4847 -0.9259 -1.2728
 2330SOL     OW 7888   3.824   1.670   2.617 -0.1915  0.2343  0.2128
 2330SOL    HW1 7889   3.765   1.724   2.555  0.2259  0.1720 -0.2402
 2330SOL    HW2 7890   3.897   1.627   2.564 -1.5947 -2.3577  0.2371
 2331SOL     OW 7891   6.390   0.801   6.758 -0.5362  0.3916 -0.1034
 2331SOL    HW1 7892   6.352   0.864   6.826 -1.5070 -0.5367  0.2279
 2331SOL    HW2 7893   6.347   0.711   6.767  2.2618 -0.9749  0.8286
 2332SOL     OW 7894   4.942   6.383   4.765 -0.0978  0.3085  0.1997
 2332SOL    HW1 7895   4.953   6.482   4.777 -0.2746  0.3066  0.3888
 2332SOL    HW2 7896   4.897   6.365   4.678 -0.2137  0.4036  0.2399
 2333SOL     OW 7897   6.504   0.908   3.313 -0.1059  0.0971  0.1436
 2333SOL    HW1 7898   6.411   0.911   3.350 -0.3064 -2.3866  0.0017
 2333SOL    HW2 7899   6.546   0.998   3.321 -1.8555  0.8238  1.9383
 2334SOL     OW 7900   6.221   2.256   4.349  0.4252  0.1433  0.2319
 2334SOL    HW1 7901   6.298   2.314   4.374 -0.6445  1.5638  0.4217
 2334SOL    HW2 7902   6.234   2.222   4.256  2.2827 -1.4699  1.0079
 2335SOL     OW 7903   4.153   2.206   2.900  0.1252 -0.5520 -0.4247
 2335SOL    HW1 7904   4.137   2.198   2.999 -1.5410 -0.8778 -0.6820
 2335SOL    HW2 7905   4.223   2.275   2.883  0.1839 -0.2332  0.9677
 2336SOL     OW 7906   1.599   3.262   1.880  0.7504 -0.0012  0.2910
 2336SOL    HW1 7907   1.591   3.354   1.841  1.5722  0.0272  0.1645
 2336SOL    HW2 7908   1.695   3.235   1.880  0.6426 -0.3998  1.3928
 2337SOL     OW 7909   1.022   5.053   5.589  0.3474  0.5347  0.3485
 2337SOL    HW1 7910   0.923   5.042   5.583  0.3287  0.6265  0.4831
 2337SOL    HW2 7911   1.048   5.062   5.685  0.4064  1.2963  0.2659
 2338SOL     OW 7912   6.072   4.666   3.869 -0.2271  0.2887 -0.2089
 2338SOL    HW1 7913   5.997   4.667   3.803 -0.2374  1.4639 -0.2033
 2338SOL    HW2 7914   6.050   4.602   3.943  0.5205 -2.3307 -2.1185
 2339SOL     OW 7915   4.100   3.920   1.831 -0.5817  0.0812 -0.3395
 2339SOL    HW1 7916   4.058   3.830   1.841 -0.8304  0.2992  0.6173
 2339SOL    HW2 7917   4.188   3.910   1.784 -1.2040 -0.4963 -1.4218
 2340SOL     OW 7918   2.446   0.381   6.491 -0.0103  0.1147 -0.0429
 2340SOL    HW1 7919   2.429   0.462   6.436  0.0245  1.1239  1.3762
 2340SOL    HW2 7920   2.378   0.311   6.469  1.0534 -0.2434 -2.6275
 2341SOL     OW 7921   6.710   6.580   0.443 -0.7501  0.1024  0.1210
 2341SOL    HW1 7922   6.755   6.524   0.512  0.3452  0.3071 -0.4035
 2341SOL    HW2 7923   6.612   6.581   0.460 -0.6031 -0.6118  1.1128
 2342SOL     OW 7924   2.120   2.556   6.908  0.5225 -0.2973 -0.1513
 2342SOL    HW1 7925   2.168   2.614   6.974 -0.6228 -1.5545  1.8818
 2342SOL    HW2 7926   2.133   2.460   6.933 -2.5022 -0.6992  0.1457
 2343SOL     OW 7927   1.615   1.266   3.128  0.1277  0.5943 -0.3095
 2343SOL    HW1 7928   1.575   1.358   3.121 -2.3298 -0.4521 -1.1536
 2343SOL    HW2 7929   1.662   1.244   3.042  1.9881  1.5414  0.4093
 2344SOL     OW 7930   5.078   0.771   0.313  0.2585  0.2811 -0.3048
 2344SOL    HW1 7931   5.140   0.692   0.310  0.5098  0.4846 -0.4546
 2344SOL    HW2 7932   5.053   0.789   0.408 -0.3422 -0.4032 -0.3266
 2345SOL     OW 7933   6.715   6.734   2.617 -0.3695 -0.3512  0.1844
 2345SOL    HW1 7934   6.652   6.732   2.539  1.6746 -1.2467 -1.5456
 2345SOL    HW2 7935   6.732   6.828   2.644 -0.8322 -0.0062 -0.6853
 2346SOL     OW 7936   5.367   2.918   4.079 -0.0637  0.1617 -0.3285
 2346SOL    HW1 7937   5.466   2.915   4.075 -0.0788  0.3420 -0.9428
 2346SOL    HW2 7938   5.331   2.954   3.993 -0.5887  1.6990  0.4905
 2347SOL     OW 7939   5.412   2.684   1.059 -0.6414  0.0575 -0.6121
 2347SOL    HW1 7940   5.381   2.590   1.045  1.4730 -0.7096 -0.5003
 2347SOL    HW2 7941   5.408   2.707   1.156 -0.6871 -0.0846 -0.5809
 2348SOL     OW 7942   6.707   0.815   0.690  0.0457 -0.3552 -0.0497
 2348SOL    HW1 7943   6.702   0.915   0.693  1.6447 -0.2572  0.3566
 2348SOL    HW2 7944   6.792   0.787   0.645  0.4422 -1.5168  1.3447
 2349SOL     OW 7945   1.218   6.638   0.185 -0.2603  0.5567  0.4076
 2349SOL    HW1 7946   1.210   6.679   0.276  0.3472  0.8680  0.3249
 2349SOL    HW2 7947   1.301   6.581   0.181 -1.0670 -0.6573  0.5072
 2350SOL     OW 7948   5.787   4.340   1.933 -0.1281  0.0341  0.1811
 2350SOL    HW1 7949   5.699   4.304   1.965 -0.4777  1.2860  0.6696
 2350SOL    HW2 7950   5.771   4.418   1.872  0.6088 -0.7979 -1.1361
 2351SOL     OW 7951   0.685   5.817   2.514 -0.7436  0.5817  0.2986
 2351SOL    HW1 7952   0.640   5.794   2.601 -0.7357  3.4192  1.1440
 2351SOL    HW2 7953   0.635   5.891   2.469  0.6458  0.8290 -0.9201
 2352SOL     OW 7954   4.111   1.094   1.873  0.2093 -0.0968 -0.4895
 2352SOL    HW1 7955   4.028   1.104   1.817 -0.0250  1.2946  0.0656
 2352SOL    HW2 7956   4.161   1.180   1.873  0.0183  0.0691  1.7375
 2353SOL     OW 7957   5.675   2.609   4.329  0.1657  0.2376  0.0046
 2353SOL    HW1 7958   5.741   2.599   4.403  1.1696  2.3859 -0.5339
 2353SOL    HW2 7959   5.606   2.676   4.355 -0.3130 -0.0604 -0.4693
 2354SOL     OW 7960   4.722   6.133   1.267  0.4346  0.5036 -0.0940
 2354SOL    HW1 7961   4.741   6.123   1.365 -1.3311 -0.1742  0.2175
 2354SOL    HW2 7962   4.695   6.228   1.248  1.2892  0.7645 -0.0288
 2355SOL     OW 7963   5.939   7.008   4.305 -0.0370 -0.4537 -0.5017
 2355SOL    HW1 7964   5.976   7.001   4.398 -0.1611 -0.9570 -0.4914
 2355SOL    HW2 7965   5.874   7.085   4.301 -0.0434 -0.4407 -0.1692
 2356SOL     OW 7966   6.221   6.983   0.560 -0.0441 -0.5476  0.2948
 2356SOL    HW1 7967   6.233   7.072   0.517  0.1046 -1.0203 -0.6767
 2356SOL    HW2 7968   6.124   6.962   0.567 -0.0966 -0.1027  0.9812
 2357SOL     OW 7969   0.767   5.907   6.905  0.3746  0.1108 -0.7209
 2357SOL    HW1 7970   0.751   5.811   6.929  1.1334  0.1692  0.0591
 2357SOL    HW2 7971   0.847   5.913   6.845 -0.5529  0.1285 -2.0047
 2358SOL     OW 7972   2.614   4.828   5.410  0.0306  0.1222 -0.6483
 2358SOL    HW1 7973   2.636   4.833   5.508  0.1738  1.0407 -0.7236
 2358SOL    HW2 7974   2.663   4.900   5.361 -2.3657  1.6551 -0.9593
 2359SOL     OW 7975   6.121   5.686   0.738 -0.5932  0.0920 -0.0713
 2359SOL    HW1 7976   6.211   5.727   0.726 -0.4212 -0.2404  0.0428
 2359SOL    HW2 7977   6.050   5.754   0.723 -0.3034  0.5503  0.6432
 2360SOL     OW 7978   0.042   2.237   1.359  0.1122  0.0834  0.0239
 2360SOL    HW1 7979   0.139   2.259   1.360  0.2026  0.1047 -2.4120
 2360SOL    HW2 7980  -0.012   2.319   1.379  0.5355 -0.2864  3.1307
 2361SOL     OW 7981   0.842   4.875   1.652 -0.0805 -0.0080 -0.8370
 2361SOL    HW1 7982   0.773   4.887   1.581  0.8965  1.0050 -1.6459
 2361SOL    HW2 7983   0.926   4.838   1.612  0.4018  0.3342 -0.1821
 2362SOL     OW 7984   6.613   5.776   1.930  0.0676  0.0706 -0.2237
 2362SOL    HW1 7985   6.606   5.836   1.850 -2.3118 -1.1066 -0.9902
 2362SOL    HW2 7986   6.632   5.832   2.011 -1.2116  1.8028 -1.0367
 2363SOL     OW 7987   1.350   3.128   2.500  0.0824 -0.1246 -0.6376
 2363SOL    HW1 7988   1.304   3.041   2.490 -0.4995  0.1732 -0.5748
 2363SOL    HW2 7989   1.375   3.164   2.410  0.8744 -0.6442 -0.6304
 2364SOL     OW 7990   4.785   3.586   0.678 -0.0995 -0.2374 -0.6167
 2364SOL    HW1 7991   4.766   3.655   0.747  1.2646 -0.5342  0.0792
 2364SOL    HW2 7992   4.801   3.498   0.721  0.8745 -0.4087 -1.2849
 2365SOL     OW 7993   4.987   6.979   3.193  0.0348  0.0433 -0.4923
 2365SOL    HW1 7994   4.949   7.044   3.127  1.3324 -0.0682 -1.3807
 2365SOL    HW2 7995   4.912   6.929   3.237 -0.8913  0.6206 -1.3672
 2366SOL     OW 7996   6.928   6.043   5.907 -0.3130  0.6255  0.2110
 2366SOL    HW1 7997   6.890   5.976   5.843  1.3657 -0.5611  0.3929
 2366SOL    HW2 7998   6.871   6.046   5.990 -1.2908  0.6123 -0.4376
 2367SOL     OW 7999   0.059   5.814   3.651 -0.1378 -0.0615 -0.1744
 2367SOL    HW1 8000   0.125   5.878   3.613 -0.4264 -1.0504 -2.5578
 2367SOL    HW2 8001  -0.034   5.850   3.639 -0.1816  0.1414  0.7240
 2368SOL     OW 8002   3.374   1.153   5.162 -0.2856  0.3147  0.4305
 2368SOL    HW1 8003   3.318   1.216   5.216 -1.2145  1.9467 -2.2511
 2368SOL    HW2 8004   3.470   1.166   5.185 -0.6078  1.3688  1.2676
 2369SOL     OW 8005   4.783   1.803   4.540  0.1660 -0.4838  0.1181
 2369SOL    HW1 8006   4.689   1.776   4.561  0.3058 -0.9291  0.1796
 2369SOL    HW2 8007   4.833   1.821   4.625  0.1238 -0.2065  0.0839
 2370SOL     OW 8008   0.984   3.673   4.746  0.2137 -0.2603  0.1634
 2370SOL    HW1 8009   1.060   3.733   4.722 -1.5837  1.5474 -1.3398
 2370SOL    HW2 8010   0.952   3.626   4.663 -1.1756  0.1131  0.4583
 2371SOL     OW 8011   0.732   5.139   0.826  0.0752  0.1300  0.6461
 2371SOL    HW1 8012   0.647   5.187   0.807 -1.4288 -2.5185  0.1992
 2371SOL    HW2 8013   0.779   5.118   0.740 -0.0735 -0.4999  0.7122
 2372SOL     OW 8014   1.679   6.478   1.403 -0.3031  0.2243  0.0918
 2372SOL    HW1 8015   1.749   6.549   1.415  0.6337 -0.6359 -0.2053
 2372SOL    HW2 8016   1.723   6.389   1.392 -1.4820 -0.5261  1.1830
 2373SOL     OW 8017   5.228   2.297   6.703  0.1384  0.3405  0.1351
 2373SOL    HW1 8018   5.144   2.252   6.673 -0.0740  1.7880 -1.6356
 2373SOL    HW2 8019   5.307   2.254   6.660 -0.0011  1.1068 -0.9226
 2374SOL     OW 8020   1.560   4.592   2.282  0.6788 -0.1897  0.1861
 2374SOL    HW1 8021   1.504   4.630   2.356  0.0631 -0.4093 -0.1547
 2374SOL    HW2 8022   1.506   4.590   2.198  1.3475 -0.0152 -0.2507
 2375SOL     OW 8023   3.599   1.930   0.438 -0.9534 -0.2313  0.0218
 2375SOL    HW1 8024   3.500   1.919   0.452 -0.7448 -0.4804  1.4565
 2375SOL    HW2 8025   3.636   1.844   0.401 -0.9770 -0.8758  1.4163
 2376SOL     OW 8026   3.749   1.697   4.076  0.1935 -0.0115 -0.2150
 2376SOL    HW1 8027   3.772   1.603   4.098  1.1851  0.7804  2.5246
 2376SOL    HW2 8028   3.783   1.758   4.148  0.5766  2.5868 -2.4225
 2377SOL     OW 8029   4.905   3.804   4.355 -0.4366  0.0820 -0.7186
 2377SOL    HW1 8030   4.953   3.813   4.267 -1.9277  2.0264 -1.3966
 2377SOL    HW2 8031   4.883   3.895   4.390  0.7005 -0.6103  2.0606
 2378SOL     OW 8032   1.800   3.300   0.368  0.0558  0.2099  0.3023
 2378SOL    HW1 8033   1.877   3.334   0.421  1.9473 -1.9806 -0.8405
 2378SOL    HW2 8034   1.735   3.374   0.351  3.0608  2.8325 -0.7330
 2379SOL     OW 8035   2.872   0.157   3.541  0.3426  0.4399 -0.4503
 2379SOL    HW1 8036   2.876   0.204   3.453  0.5321  0.8829 -0.2042
 2379SOL    HW2 8037   2.940   0.196   3.604  0.6044 -0.2519 -0.2892
 2380SOL     OW 8038   3.773   4.119   0.903  0.5735  0.4400 -0.1053
 2380SOL    HW1 8039   3.711   4.172   0.847  1.0890  0.0702 -1.0582
 2380SOL    HW2 8040   3.723   4.077   0.980  0.5749  4.3871  2.3130
 2381SOL     OW 8041   4.867   5.356   5.426  0.6462  0.2102  0.5340
 2381SOL    HW1 8042   4.810   5.438   5.422 -0.2600 -0.4557 -0.7934
 2381SOL    HW2 8043   4.963   5.382   5.415  0.5220  1.2256  1.6424
 2382SOL     OW 8044   1.844   1.476   2.570  0.0579  0.2664  0.3419
 2382SOL    HW1 8045   1.765   1.447   2.517 -0.6367  0.6181  1.1579
 2382SOL    HW2 8046   1.854   1.576   2.564  1.1518  0.1184 -0.7101
 2383SOL     OW 8047   4.700   4.343   0.866 -0.5717 -0.3332  0.1356
 2383SOL    HW1 8048   4.717   4.423   0.808 -2.9879 -0.8721 -1.4661
 2383SOL    HW2 8049   4.782   4.286   0.869  1.4628  2.4377  1.8791
 2384SOL     OW 8050   1.150   5.046   1.904  0.7728  0.0265 -0.3286
 2384SOL    HW1 8051   1.209   5.016   1.829 -0.0063  0.1967 -1.0254
 2384SOL    HW2 8052   1.206   5.076   1.982  1.5805 -1.1182 -0.4548
 2385SOL     OW 8053   3.458   6.173   0.188 -0.1825 -0.3819 -0.1176
 2385SOL    HW1 8054   3.383   6.111   0.208 -0.9255  0.7348  0.7262
 2385SOL    HW2 8055   3.421   6.260   0.155  0.7460  0.1048  0.0927
 2386SOL     OW 8056   6.539   1.418   3.193 -0.3007  0.1719 -0.1506
 2386SOL    HW1 8057   6.448   1.418   3.233 -0.5646  1.1738 -0.7017
 2386SOL    HW2 8058   6.541   1.357   3.113 -0.1945 -0.6345  0.4552
 2387SOL     OW 8059   5.679   6.322   5.637  0.0772  0.1163 -0.3126
 2387SOL    HW1 8060   5.630   6.236   5.624 -0.7870  0.5575 -0.0502
 2387SOL    HW2 8061   5.626   6.397   5.598  0.2749  0.6821  0.4829
 2388SOL     OW 8062   0.519   0.607   3.855  0.1781 -0.2402  0.1485
 2388SOL    HW1 8063   0.481   0.585   3.945 -0.5881 -1.1805 -0.3941
 2388SOL    HW2 8064   0.535   0.523   3.804  0.3770  0.3041 -0.6995
 2389SOL     OW 8065   5.469   5.861   5.269  0.0515  0.1540 -0.0982
 2389SOL    HW1 8066   5.507   5.953   5.275  1.0463 -0.2010 -0.6045
 2389SOL    HW2 8067   5.431   5.834   5.357  2.2898 -0.0065  0.8713
 2390SOL     OW 8068   3.225   2.556   1.720  0.2900 -0.6253  0.8268
 2390SOL    HW1 8069   3.216   2.653   1.742 -0.2906 -0.8442  1.6078
 2390SOL    HW2 8070   3.134   2.514   1.715  0.4907 -0.9720 -0.2829
 2391SOL     OW 8071   2.821   6.422   5.947  0.6614  0.1828 -0.1361
 2391SOL    HW1 8072   2.728   6.388   5.932  0.4056  1.2496 -1.1164
 2391SOL    HW2 8073   2.820   6.522   5.947  1.4187  0.2761  2.4458
 2392SOL     OW 8074   0.249   2.883   2.496 -0.3627  0.7323 -0.5026
 2392SOL    HW1 8075   0.349   2.874   2.492 -0.1448  0.5888  2.5697
 2392SOL    HW2 8076   0.222   2.968   2.451  1.3562  1.6189  0.0432
 2393SOL     OW 8077   3.409   1.848   2.112 -0.3908  0.3829 -0.2797
 2393SOL    HW1 8078   3.382   1.759   2.075 -0.7169  0.2183  0.3421
 2393SOL    HW2 8079   3.398   1.918   2.041 -0.5511  0.0009 -0.6384
 2394SOL     OW 8080   4.661   0.847   6.205 -0.2012 -0.3300  0.0410
 2394SOL    HW1 8081   4.627   0.933   6.166 -0.0377 -0.0893  0.4278
 2394SOL    HW2 8082   4.693   0.863   6.298 -1.4515 -1.0848  0.6344
 2395SOL     OW 8083   0.947   5.789   0.217  0.5632  0.1369  0.3736
 2395SOL    HW1 8084   0.959   5.695   0.187 -2.6131 -0.3171  0.2305
 2395SOL    HW2 8085   1.033   5.839   0.204  1.6902 -2.1211 -1.7099
 2396SOL     OW 8086   3.539   5.438   4.970  0.6478  0.2569  0.4174
 2396SOL    HW1 8087   3.522   5.349   5.013  1.4142  1.1283  2.6278
 2396SOL    HW2 8088   3.604   5.426   4.894 -0.9266 -1.3453 -0.7913
 2397SOL     OW 8089   1.243   3.902   3.559 -0.2227  0.6250 -0.6413
 2397SOL    HW1 8090   1.182   3.842   3.508  2.4911 -0.7645 -2.5568
 2397SOL    HW2 8091   1.243   3.877   3.656 -3.5510  1.5734 -0.3010
 2398SOL     OW 8092   6.749   3.344   5.270  0.1544  0.2283 -0.2396
 2398SOL    HW1 8093   6.688   3.422   5.261  0.1318  0.3923  1.1150
 2398SOL    HW2 8094   6.811   3.341   5.191  0.9658  2.3304  0.2350
 2399SOL     OW 8095   2.622   1.877   4.489  0.5350 -0.3333 -0.1859
 2399SOL    HW1 8096   2.706   1.894   4.540 -0.1505 -0.9116  1.1749
 2399SOL    HW2 8097   2.625   1.926   4.402  1.6246  0.8847  0.5114
 2400SOL     OW 8098   5.872   6.169   3.111  0.3483  0.0442  0.3404
 2400SOL    HW1 8099   5.828   6.080   3.102  1.1932 -0.4677  1.0647
 2400SOL    HW2 8100   5.826   6.235   3.052 -1.2902 -0.4889  0.9580
 2401SOL     OW 8101   2.654   5.313   6.654  0.1797 -0.0744  0.2957
 2401SOL    HW1 8102   2.555   5.319   6.647  0.0785 -1.4535  0.2806
 2401SOL    HW2 8103   2.689   5.249   6.585  0.9850 -0.3145  0.9060
 2402SOL     OW 8104   0.680   3.599   5.005 -0.3234  0.7843  0.1377
 2402SOL    HW1 8105   0.708   3.624   4.912  0.3712  0.5912  0.2910
 2402SOL    HW2 8106   0.580   3.593   5.009 -0.3227 -0.6620 -0.9839
 2403SOL     OW 8107   2.795   4.968   0.690 -0.7851 -0.2432 -0.0497
 2403SOL    HW1 8108   2.877   5.026   0.694  0.5557 -2.0287 -0.5083
 2403SOL    HW2 8109   2.715   5.023   0.714  0.2419  2.0711 -1.5694
 2404SOL     OW 8110   1.965   4.642   5.162 -0.2376 -0.0748  0.0287
 2404SOL    HW1 8111   2.062   4.652   5.180 -0.5874  2.0639  1.1110
 2404SOL    HW2 8112   1.925   4.732   5.145 -2.0110 -0.9180 -0.5536
 2405SOL     OW 8113   2.306   1.896   1.375 -0.1263  0.0890  0.0110
 2405SOL    HW1 8114   2.286   1.919   1.471 -0.6421 -2.2924  0.5264
 2405SOL    HW2 8115   2.261   1.810   1.351  1.9016 -0.5666 -1.6940
 2406SOL     OW 8116   3.518   6.095   4.999 -0.3733 -0.4124  0.7724
 2406SOL    HW1 8117   3.464   6.138   5.071 -2.0327 -0.9051 -0.1107
 2406SOL    HW2 8118   3.531   5.998   5.020 -2.5144 -1.0406 -0.3832
 2407SOL     OW 8119   4.411   2.083   6.273 -0.1239  0.5324 -0.3213
 2407SOL    HW1 8120   4.316   2.100   6.300  0.1720 -0.0045  1.1259
 2407SOL    HW2 8121   4.468   2.159   6.303  0.6106 -1.1610  2.9395
 2408SOL     OW 8122   3.571   0.090   2.420 -0.4975 -0.3519  0.2903
 2408SOL    HW1 8123   3.471   0.080   2.424 -0.6581 -1.1079 -2.9361
 2408SOL    HW2 8124   3.596   0.184   2.445 -2.1614  0.2563 -0.1919
 2409SOL     OW 8125   6.579   1.630   6.265 -0.1694 -0.0621  0.3539
 2409SOL    HW1 8126   6.556   1.541   6.225  0.4688 -0.7343  1.4422
 2409SOL    HW2 8127   6.497   1.671   6.306 -0.4858 -0.0928 -0.2434
 2410SOL     OW 8128   2.193   2.272   6.649  0.1331 -0.2977 -0.5281
 2410SOL    HW1 8129   2.213   2.195   6.588  1.4407 -0.4294  0.0236
 2410SOL    HW2 8130   2.274   2.331   6.655 -0.2418  0.1286  0.4755
 2411SOL     OW 8131   1.809   3.014   0.386  0.5641 -0.3675 -0.4484
 2411SOL    HW1 8132   1.817   3.113   0.371  1.7321 -0.5792 -1.4032
 2411SOL    HW2 8133   1.756   2.973   0.312 -0.4749 -0.3868  0.2897
 2412SOL     OW 8134   5.452   2.891   0.371 -0.4628  0.2038 -0.0022
 2412SOL    HW1 8135   5.380   2.928   0.430  0.0315  0.5025  0.4253
 2412SOL    HW2 8136   5.435   2.794   0.354 -0.3795  0.0004  0.9952
 2413SOL     OW 8137   0.838   1.575   2.678 -0.5647  0.0187 -0.1638
 2413SOL    HW1 8138   0.842   1.513   2.756  0.0796  1.8724  1.3591
 2413SOL    HW2 8139   0.813   1.667   2.710 -0.8341  0.7157 -2.2363
 2414SOL     OW 8140   0.054   6.126   0.751 -0.0285  0.1859 -0.2282
 2414SOL    HW1 8141   0.047   6.041   0.699 -1.6608 -0.2175  0.5819
 2414SOL    HW2 8142  -0.013   6.125   0.826  1.3674  1.2902  1.0961
 2415SOL     OW 8143   0.410   5.834   0.227 -0.0791 -0.0126  0.2754
 2415SOL    HW1 8144   0.355   5.902   0.275  0.4914  0.1182  0.7446
 2415SOL    HW2 8145   0.503   5.868   0.217 -0.1934 -0.0138 -0.9709
 2416SOL     OW 8146   0.280   2.319   3.106 -0.4437 -0.5763  0.1001
 2416SOL    HW1 8147   0.340   2.315   3.026  0.4650  2.5411  0.4848
 2416SOL    HW2 8148   0.273   2.228   3.147  1.8152 -1.5855 -1.5446
 2417SOL     OW 8149   4.416   4.475   1.742  0.1408  0.2092  0.1578
 2417SOL    HW1 8150   4.417   4.385   1.786 -1.7213  0.1959  0.2560
 2417SOL    HW2 8151   4.333   4.484   1.687  0.2708  1.8852  0.1959
 2418SOL     OW 8152   1.644   5.729   5.771  0.3523 -0.3195  0.2729
 2418SOL    HW1 8153   1.630   5.677   5.687 -1.1162  1.1686 -0.4410
 2418SOL    HW2 8154   1.609   5.822   5.760  1.4254  0.3519  2.0653
 2419SOL     OW 8155   1.999   6.899   1.344 -0.1091 -0.1707 -0.4035
 2419SOL    HW1 8156   2.047   6.974   1.300  1.0321 -0.4134  0.3755
 2419SOL    HW2 8157   1.965   6.835   1.275 -0.4438  0.6654 -1.0260
 2420SOL     OW 8158   5.128   4.274   5.704  0.0273  0.0526 -0.4550
 2420SOL    HW1 8159   5.077   4.336   5.763 -1.0911 -0.7505 -0.5542
 2420SOL    HW2 8160   5.064   4.219   5.650  1.0051 -0.6178 -0.9571
 2421SOL     OW 8161   2.139   1.674   2.272 -0.2297 -0.1788  1.0275
 2421SOL    HW1 8162   2.141   1.766   2.313 -0.1768  0.3429 -0.1023
 2421SOL    HW2 8163   2.111   1.681   2.177  3.5862 -0.8356 -0.3364
 2422SOL     OW 8164   5.009   1.901   3.655  0.6061  0.0872 -0.0647
 2422SOL    HW1 8165   4.995   1.803   3.671  0.2828 -0.2101 -1.9123
 2422SOL    HW2 8166   4.944   1.933   3.586 -0.2529  1.9654  1.5139
 2423SOL     OW 8167   0.987   4.225   5.555  0.1772 -0.8322  0.7996
 2423SOL    HW1 8168   0.935   4.155   5.603 -1.1684 -0.9661 -0.7969
 2423SOL    HW2 8169   0.929   4.306   5.541  1.9820  1.1722  3.5793
 2424SOL     OW 8170   6.969   0.102   1.913 -0.2993 -0.0046  0.5964
 2424SOL    HW1 8171   6.974   0.201   1.926 -0.8290  0.4825 -2.2463
 2424SOL    HW2 8172   7.059   0.068   1.883 -0.8074  0.1914 -1.3135
 2425SOL     OW 8173   3.026   2.232   3.990  0.3416  0.3867 -0.5498
 2425SOL    HW1 8174   2.984   2.304   3.935 -0.0150 -0.5243 -1.5029
 2425SOL    HW2 8175   3.111   2.201   3.947  1.0237  0.9015  0.3746
 2426SOL     OW 8176   2.537   1.213   2.751 -0.2575 -0.0250  0.1495
 2426SOL    HW1 8177   2.497   1.260   2.672  0.4053  1.1792  0.5033
 2426SOL    HW2 8178   2.595   1.138   2.720 -1.5382 -0.8059 -0.4205
 2427SOL     OW 8179   4.690   0.867   0.607  0.0463 -0.9565  0.1093
 2427SOL    HW1 8180   4.683   0.896   0.703 -0.0246 -0.1481 -0.1318
 2427SOL    HW2 8181   4.722   0.773   0.603  0.3948 -0.8811  0.9209
 2428SOL     OW 8182   5.906   1.346   5.558  0.4542 -0.4113  0.0032
 2428SOL    HW1 8183   5.878   1.306   5.645  0.0322 -1.0643 -0.4152
 2428SOL    HW2 8184   5.977   1.290   5.516  1.1229  0.2589  0.2225
 2429SOL     OW 8185   0.295   1.379   0.547  0.5786  0.4819 -0.1217
 2429SOL    HW1 8186   0.354   1.320   0.602 -0.6403  0.5491  1.3404
 2429SOL    HW2 8187   0.203   1.382   0.588  0.4661  3.0059 -0.3615
 2430SOL     OW 8188   4.613   3.930   6.661 -0.3942 -0.2874 -0.1889
 2430SOL    HW1 8189   4.700   3.980   6.668 -0.2767 -0.2976 -1.4006
 2430SOL    HW2 8190   4.620   3.845   6.713 -0.7301  1.0674  2.2483
 2431SOL     OW 8191   4.711   4.284   3.394  0.3205  0.4752  0.2024
 2431SOL    HW1 8192   4.732   4.240   3.307  1.9982  0.0456  0.7909
 2431SOL    HW2 8193   4.769   4.247   3.466 -0.0032  1.8568  1.2301
 2432SOL     OW 8194   6.920   4.468   3.112 -0.1067 -0.2320 -0.0946
 2432SOL    HW1 8195   6.930   4.397   3.181 -0.2456  0.7902  1.0283
 2432SOL    HW2 8196   6.963   4.553   3.146 -1.8811  0.8361 -0.4092
 2433SOL     OW 8197   2.933   4.606   5.891 -0.5164  0.4105 -0.2701
 2433SOL    HW1 8198   2.955   4.548   5.970 -0.0755  1.4732  0.4023
 2433SOL    HW2 8199   2.847   4.655   5.909 -0.3660  0.7249 -0.4042
 2434SOL     OW 8200   5.447   6.443   4.958  0.0624 -0.1228 -0.0253
 2434SOL    HW1 8201   5.544   6.464   4.970  0.1630 -0.3134 -0.4748
 2434SOL    HW2 8202   5.430   6.415   4.863 -0.4347 -0.0797  0.0450
 2435SOL     OW 8203   2.098   5.774   3.134  0.0399 -0.6744  0.0909
 2435SOL    HW1 8204   2.026   5.771   3.203  0.9668 -2.1041  1.0260
 2435SOL    HW2 8205   2.109   5.868   3.102 -1.3178 -0.2142  0.8958
 2436SOL     OW 8206   3.960   1.438   3.336  0.4636  0.1879  0.3441
 2436SOL    HW1 8207   3.976   1.340   3.321 -0.1203 -0.0642  1.2560
 2436SOL    HW2 8208   3.861   1.456   3.337  0.5737  0.9346 -0.6270
 2437SOL     OW 8209   4.451   2.273   5.396 -0.0227 -0.1493 -0.9889
 2437SOL    HW1 8210   4.499   2.283   5.483 -1.6933  1.0011 -0.1516
 2437SOL    HW2 8211   4.448   2.360   5.349 -2.9938  0.4045 -0.0219
 2438SOL     OW 8212   2.559   0.122   0.367 -0.1220 -0.1275  0.6774
 2438SOL    HW1 8213   2.620   0.092   0.293  0.1399 -0.4234  1.0069
 2438SOL    HW2 8214   2.599   0.096   0.455 -1.1873 -1.1936  0.8683
 2439SOL     OW 8215   6.023   2.002   4.038 -0.7859 -0.2527 -0.3708
 2439SOL    HW1 8216   6.014   2.100   4.057  0.4269  0.1105 -1.4890
 2439SOL    HW2 8217   5.935   1.967   4.006 -1.2024  0.4976 -0.0862
 2440SOL     OW 8218   6.358   5.977   0.212  0.4280  0.4841 -0.2256
 2440SOL    HW1 8219   6.322   5.964   0.304 -0.0663  1.2222 -0.3020
 2440SOL    HW2 8220   6.321   5.906   0.152 -0.8742  1.1799 -0.2852
 2441SOL     OW 8221   5.740   6.055   2.792  0.3770 -0.3388 -0.6001
 2441SOL    HW1 8222   5.668   6.125   2.787  0.1603 -0.5200 -0.0756
 2441SOL    HW2 8223   5.702   5.967   2.763  0.0770 -0.6614  0.7117
 2442SOL     OW 8224   6.730   4.143   5.044 -0.7184 -0.4041 -0.1803
 2442SOL    HW1 8225   6.633   4.128   5.061 -0.7834 -0.6806 -0.7572
 2442SOL    HW2 8226   6.784   4.082   5.102 -0.9827 -2.9374 -2.3978
 2443SOL     OW 8227   0.861   5.174   6.222 -0.5147 -0.4266  0.2611
 2443SOL    HW1 8228   0.817   5.262   6.203 -1.0197 -0.2101  2.2186
 2443SOL    HW2 8229   0.795   5.100   6.207 -0.2413 -0.4542 -0.8932
 2444SOL     OW 8230   2.877   6.559   6.813  0.2696 -0.8386  0.0096
 2444SOL    HW1 8231   2.858   6.473   6.766  0.7815 -1.4132  0.8348
 2444SOL    HW2 8232   2.901   6.629   6.745 -0.3901 -1.2701 -0.6858
 2445SOL     OW 8233   6.806   5.103   5.658 -0.6465  0.2524  0.0607
 2445SOL    HW1 8234   6.727   5.156   5.626 -0.2824 -0.0866 -1.4793
 2445SOL    HW2 8235   6.797   5.008   5.627 -0.0184  0.0252  0.5523
 2446SOL     OW 8236   6.859   1.711   2.004 -0.2129 -0.0324 -0.4863
 2446SOL    HW1 8237   6.940   1.662   2.036 -0.2158  0.8024  0.8723
 2446SOL    HW2 8238   6.780   1.686   2.059 -0.4705  0.5911 -0.5609
 2447SOL     OW 8239   6.958   1.968   6.147  0.2748 -0.4438  1.1594
 2447SOL    HW1 8240   6.878   1.918   6.182  1.1341 -2.1350  0.8352
 2447SOL    HW2 8241   7.037   1.947   6.205  1.1699 -1.3198 -0.3364
 2448SOL     OW 8242   4.876   4.621   4.361  0.1752  0.3938  0.0590
 2448SOL    HW1 8243   4.811   4.683   4.406 -0.2439 -0.8342  1.2092
 2448SOL    HW2 8244   4.885   4.647   4.264 -0.8977  1.4932  0.2251
 2449SOL     OW 8245   3.643   2.059   1.260 -0.2491  0.1187  0.1323
 2449SOL    HW1 8246   3.729   2.044   1.309  0.6691 -0.3013 -1.5549
 2449SOL    HW2 8247   3.566   2.044   1.323  0.8893  0.2283  1.5937
 2450SOL     OW 8248   3.917   0.311   6.448  0.1181 -0.0223 -0.6441
 2450SOL    HW1 8249   3.865   0.359   6.518  0.7897  1.1856 -0.9485
 2450SOL    HW2 8250   3.955   0.227   6.487  2.2304  1.6438  1.1078
 2451SOL     OW 8251   2.606   0.117   4.997  0.2941  0.2614  0.1319
 2451SOL    HW1 8252   2.582   0.179   4.922 -1.1578  0.6464  0.8919
 2451SOL    HW2 8253   2.582   0.023   4.971 -1.0337  0.5034  0.4386
 2452SOL     OW 8254   0.493   2.608   4.699  0.0503 -0.2697  0.2760
 2452SOL    HW1 8255   0.517   2.660   4.782 -0.5548 -1.8603  1.4875
 2452SOL    HW2 8256   0.399   2.577   4.705  0.3508 -1.3807 -0.4784
 2453SOL     OW 8257   1.247   0.354   6.895 -0.1329 -0.1974  0.0835
 2453SOL    HW1 8258   1.238   0.254   6.893 -0.4596 -0.1747  0.2975
 2453SOL    HW2 8259   1.164   0.393   6.935  0.2435  0.1289  0.5452
 2454SOL     OW 8260   5.215   6.689   2.274 -0.1590 -0.0870  0.4659
 2454SOL    HW1 8261   5.223   6.777   2.322 -0.5019 -0.1322  0.6139
 2454SOL    HW2 8262   5.282   6.625   2.310  0.7262  0.4017 -0.2911
 2455SOL     OW 8263   2.407   1.911   0.637  0.1141 -0.6901 -0.0819
 2455SOL    HW1 8264   2.330   1.968   0.664 -0.3073 -2.4440  2.8403
 2455SOL    HW2 8265   2.490   1.942   0.684  0.6112 -0.5302 -1.0312
 2456SOL     OW 8266   2.267   6.979   1.841 -0.2226 -0.2724  0.1613
 2456SOL    HW1 8267   2.246   6.984   1.743 -4.2115 -0.1755  0.8370
 2456SOL    HW2 8268   2.212   6.907   1.883 -0.6578  1.4298  2.7209
 2457SOL     OW 8269   0.416   5.236   2.191 -0.3437 -0.6113 -0.4806
 2457SOL    HW1 8270   0.378   5.177   2.119  0.9707 -0.2223 -1.5403
 2457SOL    HW2 8271   0.441   5.180   2.270  0.1636 -1.3673 -1.1660
 2458SOL     OW 8272   6.372   5.082   1.830 -0.1063 -0.1175 -0.0899
 2458SOL    HW1 8273   6.371   5.159   1.894 -0.4285  0.8978 -1.2579
 2458SOL    HW2 8274   6.466   5.061   1.804 -0.0516  0.5127 -0.4485
 2459SOL     OW 8275   6.874   5.558   6.571 -0.0455 -0.3606 -0.0330
 2459SOL    HW1 8276   6.782   5.525   6.549 -0.4697 -1.8964  3.4392
 2459SOL    HW2 8277   6.934   5.480   6.589  1.2911  0.6869  0.1737
 2460SOL     OW 8278   2.753   2.689   5.777  0.6866 -0.1081 -0.2499
 2460SOL    HW1 8279   2.683   2.662   5.843  2.4935 -1.0401  1.4036
 2460SOL    HW2 8280   2.800   2.608   5.742  2.2113  0.5421  0.1811
 2461SOL     OW 8281   4.645   5.485   6.148 -0.3155 -0.1881 -0.3146
 2461SOL    HW1 8282   4.598   5.401   6.177  0.5463 -0.4814  0.2603
 2461SOL    HW2 8283   4.742   5.467   6.133 -0.0386  0.7791  0.1786
 2462SOL     OW 8284   0.894   0.821   3.961  0.5581 -0.0376 -0.1530
 2462SOL    HW1 8285   0.959   0.802   4.036  0.4776 -0.5512 -0.2099
 2462SOL    HW2 8286   0.928   0.898   3.907  1.1658 -0.3529 -0.2290
 2463SOL     OW 8287   3.406   6.085   4.134 -0.1514  0.3640 -0.0229
 2463SOL    HW1 8288   3.495   6.040   4.131  1.1085  2.8076 -1.6853
 2463SOL    HW2 8289   3.350   6.054   4.057 -0.2725 -0.1905  0.2800
 2464SOL     OW 8290   0.906   2.095   3.623  0.0308  0.3945  0.3306
 2464SOL    HW1 8291   0.986   2.108   3.683  0.1513 -0.0207  0.2616
 2464SOL    HW2 8292   0.936   2.053   3.537 -0.2279  0.4570  0.2119
 2465SOL     OW 8293   2.549   3.358   0.171 -0.1840 -0.4342  0.1696
 2465SOL    HW1 8294   2.492   3.363   0.090  1.6723  0.0898 -1.1812
 2465SOL    HW2 8295   2.570   3.450   0.203  1.9829 -0.4696 -0.9616
 2466SOL     OW 8296   1.380   4.982   1.122 -0.2729  0.4254  0.2602
 2466SOL    HW1 8297   1.366   5.033   1.207 -0.0427  1.7547 -0.4629
 2466SOL    HW2 8298   1.303   4.922   1.106 -0.6518  0.6873  1.0578
 2467SOL     OW 8299   2.885   0.211   2.655 -0.4991  0.1054 -0.3283
 2467SOL    HW1 8300   2.821   0.237   2.727  1.3917  0.5689  1.2877
 2467SOL    HW2 8301   2.978   0.231   2.685  0.3495  1.0073 -3.2365
 2468SOL     OW 8302   5.466   4.236   5.361 -0.0994 -0.5797  0.1682
 2468SOL    HW1 8303   5.398   4.165   5.346 -0.2447 -0.0876 -1.8206
 2468SOL    HW2 8304   5.555   4.194   5.379 -0.3692 -1.2539 -0.0427
 2469SOL     OW 8305   3.272   1.142   4.035 -0.4789 -0.3291  0.3927
 2469SOL    HW1 8306   3.273   1.190   4.123  1.1693  3.5616 -1.5387
 2469SOL    HW2 8307   3.179   1.141   3.998 -0.6170  1.1556  0.6506
 2470SOL     OW 8308   6.903   0.530   5.133  1.1258  0.3110  0.3761
 2470SOL    HW1 8309   6.996   0.503   5.156  0.4153 -1.3389  1.4863
 2470SOL    HW2 8310   6.849   0.449   5.111  0.2252  1.3405 -1.4190
 2471SOL     OW 8311   3.758   1.045   3.380  0.2306  0.5088 -0.1923
 2471SOL    HW1 8312   3.839   1.073   3.328 -0.2297  2.0494 -0.1391
 2471SOL    HW2 8313   3.675   1.065   3.327 -0.1348 -1.1157 -0.2768
 2472SOL     OW 8314   3.926   0.914   0.669 -0.5357 -0.5859 -0.4439
 2472SOL    HW1 8315   3.906   0.977   0.744  0.6531  0.3615 -0.9019
 2472SOL    HW2 8316   3.969   0.831   0.705  0.7603  0.1974 -0.1337
 2473SOL     OW 8317   2.030   0.913   3.022 -0.0854 -0.5626  0.0977
 2473SOL    HW1 8318   1.991   0.989   2.969  0.0735 -1.9945 -2.1980
 2473SOL    HW2 8319   1.967   0.888   3.096 -0.3249  1.4862  0.6550
 2474SOL     OW 8320   1.725   2.825   4.419 -0.0326  0.3349  0.3578
 2474SOL    HW1 8321   1.757   2.862   4.506 -2.5439 -0.6695  1.8115
 2474SOL    HW2 8322   1.661   2.750   4.435 -1.6037  0.9389 -2.3026
 2475SOL     OW 8323   1.048   2.500   1.339 -0.2023  0.6254  0.2999
 2475SOL    HW1 8324   1.004   2.550   1.264  0.1691 -0.5890 -0.7713
 2475SOL    HW2 8325   1.140   2.538   1.353 -1.1083  2.4283  1.7964
 2476SOL     OW 8326   1.503   1.416   1.376  0.2014 -0.2310 -0.0141
 2476SOL    HW1 8327   1.546   1.338   1.420  1.4230  0.0686 -0.6125
 2476SOL    HW2 8328   1.404   1.413   1.391  0.2936 -1.5454  0.4849
 2477SOL     OW 8329   0.434   3.236   0.289  0.2507 -0.0231 -0.0628
 2477SOL    HW1 8330   0.363   3.249   0.220  0.1991 -0.9301 -0.1968
 2477SOL    HW2 8331   0.513   3.293   0.267  0.1732 -0.1853 -0.7920
 2478SOL     OW 8332   6.921   4.266   4.097 -0.2855 -0.2587 -0.3043
 2478SOL    HW1 8333   6.949   4.328   4.170  1.5736  1.6707 -2.4826
 2478SOL    HW2 8334   6.916   4.172   4.132 -0.4686  0.6992  2.4635
 2479SOL     OW 8335   0.409   3.218   3.349 -0.1110 -0.3996  0.2524
 2479SOL    HW1 8336   0.425   3.292   3.284 -1.0551 -0.0517  0.3993
 2479SOL    HW2 8337   0.377   3.257   3.436 -0.3908 -0.9638  0.4040
 2480SOL     OW 8338   3.657   5.491   3.710  0.0308  0.4052 -0.5577
 2480SOL    HW1 8339   3.596   5.413   3.716 -1.8322  1.7788 -0.7748
 2480SOL    HW2 8340   3.613   5.571   3.750  2.7494  0.9154  1.7128
 2481SOL     OW 8341   2.627   1.015   4.721 -0.6864  0.1243 -0.4330
 2481SOL    HW1 8342   2.545   1.023   4.664 -1.0849 -1.1085 -0.0839
 2481SOL    HW2 8343   2.619   1.075   4.801 -1.1899  0.1165 -0.4747
 2482SOL     OW 8344   4.883   3.071   0.047  0.2276  0.0706  0.1751
 2482SOL    HW1 8345   4.808   3.115   0.097 -0.6668 -0.9567 -0.2323
 2482SOL    HW2 8346   4.909   3.129  -0.031  0.1338  0.6193  0.5428
 2483SOL     OW 8347   2.272   4.680   1.912  0.1293 -0.6727 -0.0636
 2483SOL    HW1 8348   2.229   4.621   1.844  1.0343 -0.3025 -0.9925
 2483SOL    HW2 8349   2.368   4.656   1.921  0.0787 -0.5442  0.9124
 2484SOL     OW 8350   6.863   3.035   4.301 -0.1786 -0.4909  0.7254
 2484SOL    HW1 8351   6.851   3.134   4.302 -1.1515 -0.5836 -0.0603
 2484SOL    HW2 8352   6.936   3.010   4.365 -2.1413  0.4316  3.5528
 2485SOL     OW 8353   0.238   5.685   5.468 -0.0829 -0.3033  0.2961
 2485SOL    HW1 8354   0.257   5.777   5.432 -1.3250  0.3322  1.2092
 2485SOL    HW2 8355   0.284   5.617   5.410  1.8999  0.9348  0.3369
 2486SOL     OW 8356   1.036   3.324   6.322  0.4975 -0.2358 -0.0907
 2486SOL    HW1 8357   0.959   3.282   6.274 -0.4302 -0.2200  1.3420
 2486SOL    HW2 8358   1.002   3.380   6.398  1.8243  1.2293 -0.5058
 2487SOL     OW 8359   3.533   6.303   4.843 -0.7055  0.0647  0.0970
 2487SOL    HW1 8360   3.569   6.230   4.902 -0.0355  0.1582 -0.1875
 2487SOL    HW2 8361   3.528   6.270   4.749  2.9809  1.4256 -0.7342
 2488SOL     OW 8362   5.785   1.565   4.195 -0.6604  0.0659 -0.1237
 2488SOL    HW1 8363   5.708   1.624   4.223 -0.7961 -0.5123  0.7599
 2488SOL    HW2 8364   5.854   1.564   4.268  0.4119  0.9202 -1.0816
 2489SOL     OW 8365   1.756   1.472   3.911 -0.1933 -0.5531  0.6321
 2489SOL    HW1 8366   1.810   1.546   3.951 -0.8911 -1.0493  2.5616
 2489SOL    HW2 8367   1.699   1.509   3.837  1.9178  0.1701 -0.7392
 2490SOL     OW 8368   6.401   2.429   3.791  0.2031  0.0668 -0.1430
 2490SOL    HW1 8369   6.332   2.371   3.834  0.0349 -0.2642 -0.8581
 2490SOL    HW2 8370   6.481   2.374   3.767  0.3263  0.2639 -0.1855
 2491SOL     OW 8371   0.950   5.330   6.827 -0.0220  0.3022  0.1631
 2491SOL    HW1 8372   1.001   5.331   6.913  1.1838  3.3847 -0.4570
 2491SOL    HW2 8373   1.013   5.311   6.751 -0.9256 -1.5664 -0.1791
 2492SOL     OW 8374   3.140   6.929   1.328  0.5741  0.7414  0.1660
 2492SOL    HW1 8375   3.046   6.964   1.332  0.7511  1.2330  0.1325
 2492SOL    HW2 8376   3.204   7.006   1.330  0.9395  0.5027 -1.3524
 2493SOL     OW 8377   5.022   6.691   6.038  0.8042  0.3154 -0.2653
 2493SOL    HW1 8378   5.017   6.791   6.030  0.7629  0.1627 -3.4438
 2493SOL    HW2 8379   4.929   6.654   6.044  0.8404  0.4456  1.8416
 2494SOL     OW 8380   0.520   6.203   4.426  0.7285  0.3050  0.3866
 2494SOL    HW1 8381   0.542   6.189   4.329 -1.4586 -0.1273 -0.0860
 2494SOL    HW2 8382   0.473   6.290   4.438 -0.1438 -0.2176  0.8480
 2495SOL     OW 8383   6.488   3.558   1.322  0.3880  0.2561 -0.3681
 2495SOL    HW1 8384   6.500   3.556   1.422 -2.2963 -0.6376  0.0307
 2495SOL    HW2 8385   6.413   3.621   1.300  0.1791 -0.4348 -1.7024
 2496SOL     OW 8386   3.065   2.326   0.928 -0.0897  0.3657  0.1203
 2496SOL    HW1 8387   3.105   2.390   0.993  0.7866 -0.6852  0.6567
 2496SOL    HW2 8388   3.034   2.244   0.977  3.3825 -1.8260 -1.0191
 2497SOL     OW 8389   5.454   5.658   0.705 -0.6867 -0.0305  0.2860
 2497SOL    HW1 8390   5.491   5.751   0.708  0.9117 -0.6165 -0.0894
 2497SOL    HW2 8391   5.408   5.642   0.618 -1.5133  0.5949  0.6006
 2498SOL     OW 8392   0.945   6.424   4.069 -0.3087 -0.6242  0.0943
 2498SOL    HW1 8393   0.999   6.502   4.101 -0.4298 -0.7462  0.6115
 2498SOL    HW2 8394   0.940   6.355   4.142  0.3337 -1.3981 -0.5677
 2499SOL     OW 8395   1.401   3.614   6.754 -0.0745 -0.8267  0.2463
 2499SOL    HW1 8396   1.458   3.561   6.691  0.5455 -1.2667  1.1641
 2499SOL    HW2 8397   1.323   3.558   6.783 -1.4020 -0.0034 -1.5280
 2500SOL     OW 8398   1.103   6.998   1.942  0.8962 -0.0204  0.3249
 2500SOL    HW1 8399   1.173   7.013   1.873  3.3656 -1.9400  2.2236
 2500SOL    HW2 8400   1.088   7.082   1.994 -0.0938  1.0822 -1.6071
 2501SOL     OW 8401   5.431   2.202   3.538  0.9080 -0.3361  0.6443
 2501SOL    HW1 8402   5.423   2.129   3.470 -0.9206 -0.2021  0.6785
 2501SOL    HW2 8403   5.347   2.255   3.541  2.5761  2.6179 -0.2522
 2502SOL     OW 8404   6.366   2.643   3.632 -0.0123  0.5466 -0.1129
 2502SOL    HW1 8405   6.446   2.696   3.661  0.2467  1.0789 -1.7116
 2502SOL    HW2 8406   6.361   2.559   3.686  1.2230  0.8365  0.4918
 2503SOL     OW 8407   2.334   5.261   4.482  0.4580  0.5136  0.3585
 2503SOL    HW1 8408   2.332   5.226   4.388  0.5125  2.2433 -0.3266
 2503SOL    HW2 8409   2.253   5.317   4.499 -1.2274 -2.3090  2.4547
 2504SOL     OW 8410   1.250   0.115   0.990  0.2721  0.6892 -0.7055
 2504SOL    HW1 8411   1.214   0.158   0.907 -1.3047 -0.8723 -0.8889
 2504SOL    HW2 8412   1.337   0.070   0.970 -1.1140 -1.5504 -2.1739
 2505SOL     OW 8413   3.065   0.289   1.111  0.7930 -0.0666 -0.0026
 2505SOL    HW1 8414   3.006   0.224   1.063  0.4573 -0.2112  0.5876
 2505SOL    HW2 8415   3.033   0.382   1.094  0.6019 -0.1248  0.0330
 2506SOL     OW 8416   2.446   0.611   4.070  0.0352 -0.2851  0.9848
 2506SOL    HW1 8417   2.507   0.532   4.062  0.4567  0.1835 -1.1386
 2506SOL    HW2 8418   2.501   0.695   4.069 -0.5633  0.1442 -1.0561
 2507SOL     OW 8419   6.005   1.448   6.165 -0.5507  0.3246  0.3204
 2507SOL    HW1 8420   6.061   1.494   6.234 -0.8444  1.0251  0.1087
 2507SOL    HW2 8421   5.931   1.510   6.136 -0.1074  0.2704 -1.0158
 2508SOL     OW 8422   4.598   6.876   5.415  0.2282 -0.0047 -0.3235
 2508SOL    HW1 8423   4.629   6.829   5.333  1.1615 -0.6737  0.3928
 2508SOL    HW2 8424   4.535   6.818   5.466  1.2508 -0.4411  0.4759
 2509SOL     OW 8425   1.858   5.964   3.805 -0.0642 -0.2664 -0.6358
 2509SOL    HW1 8426   1.900   6.053   3.820 -1.6235  0.5297 -0.7725
 2509SOL    HW2 8427   1.898   5.897   3.867 -0.6382  1.1034  1.3103
 2510SOL     OW 8428   0.285   1.690   1.967 -0.4435  0.3859  0.2225
 2510SOL    HW1 8429   0.191   1.668   1.996 -0.3382 -0.0836  0.2232
 2510SOL    HW2 8430   0.322   1.763   2.024 -0.7641  0.4875  0.3027
 2511SOL     OW 8431   5.304   2.199   2.184  0.3705  0.0606  0.2448
 2511SOL    HW1 8432   5.320   2.280   2.127 -0.2246 -0.1548 -0.2325
 2511SOL    HW2 8433   5.336   2.118   2.135 -0.3225 -0.1466  0.1327
 2512SOL     OW 8434   3.220   1.487   0.636 -0.2824 -0.2872  0.0600
 2512SOL    HW1 8435   3.237   1.390   0.615 -0.4168 -0.0142 -1.4574
 2512SOL    HW2 8436   3.160   1.494   0.715 -2.1285 -1.5415 -1.1412
 2513SOL     OW 8437   3.632   5.623   0.110 -1.0070 -0.0143 -0.0460
 2513SOL    HW1 8438   3.599   5.669   0.193  0.9183  0.3375  0.5708
 2513SOL    HW2 8439   3.620   5.684   0.031 -0.6498  0.6226  0.3824
 2514SOL     OW 8440   6.233   5.632   1.165 -0.6835 -0.7094  0.3974
 2514SOL    HW1 8441   6.264   5.639   1.260  0.5059 -0.9566  0.0524
 2514SOL    HW2 8442   6.171   5.708   1.144  0.4387  0.3721  0.8809
 2515SOL     OW 8443   7.011   5.944   4.935  0.7006  0.4097 -0.6393
 2515SOL    HW1 8444   7.081   5.903   4.876  1.3228 -0.0840  0.4141
 2515SOL    HW2 8445   6.934   5.882   4.944  1.0748  0.0168 -0.0857
 2516SOL     OW 8446   4.555   3.361   6.647  0.1778  0.2561 -0.1044
 2516SOL    HW1 8447   4.477   3.358   6.710 -1.8027 -3.2919 -2.3791
 2516SOL    HW2 8448   4.621   3.291   6.672  0.7798  0.6957 -0.4172
 2517SOL     OW 8449   3.274   4.105   3.572 -0.4240  0.1819  0.1939
 2517SOL    HW1 8450   3.184   4.095   3.529 -0.2481  0.8388 -0.3435
 2517SOL    HW2 8451   3.344   4.114   3.502 -0.0491  0.5911  0.6118
 2518SOL     OW 8452   2.914   6.605   2.384  0.3660  0.2949  0.0434
 2518SOL    HW1 8453   2.923   6.695   2.428  3.4073  0.8972 -1.5164
 2518SOL    HW2 8454   2.912   6.616   2.285  2.4460 -1.3563 -0.2544
 2519SOL     OW 8455   4.907   5.795   0.842 -0.7145 -0.0176  0.0330
 2519SOL    HW1 8456   4.826   5.762   0.891 -1.0143  1.5722  0.6689
 2519SOL    HW2 8457   4.879   5.856   0.768 -0.1081  0.2742  0.0361
 2520SOL     OW 8458   0.492   0.970   0.890  0.7874  0.4441  0.8317
 2520SOL    HW1 8459   0.548   0.937   0.966  1.2300 -0.7351  0.0340
 2520SOL    HW2 8460   0.507   1.068   0.876  2.6461  0.1689  0.6580
 2521SOL     OW 8461   0.065   4.770   3.404  0.4556 -0.7213  0.2954
 2521SOL    HW1 8462   0.079   4.746   3.308 -1.8556 -0.2410 -0.2200
 2521SOL    HW2 8463   0.017   4.858   3.410  2.8817  0.6191  1.9925
 2522SOL     OW 8464   3.426   4.350   6.674 -0.3066  0.8267 -0.0409
 2522SOL    HW1 8465   3.368   4.268   6.669 -1.1048  1.3363  0.7012
 2522SOL    HW2 8466   3.505   4.330   6.732 -0.5903  0.6285  0.2860
 2523SOL     OW 8467   5.194   1.721   1.972 -0.3652 -0.5306  0.4502
 2523SOL    HW1 8468   5.192   1.766   2.062  0.1585  2.2902 -0.8555
 2523SOL    HW2 8469   5.284   1.681   1.958  0.8305  2.1708 -0.1683
 2524SOL     OW 8470   2.441   1.267   5.635 -0.0070 -0.3174  0.1738
 2524SOL    HW1 8471   2.465   1.322   5.556  1.4319 -1.3153 -0.1345
 2524SOL    HW2 8472   2.374   1.197   5.609  0.4915 -0.6672 -0.1865
 2525SOL     OW 8473   1.059   0.138   3.536 -0.0538  0.4142 -0.0592
 2525SOL    HW1 8474   0.997   0.180   3.469  1.7469  2.8790 -0.2947
 2525SOL    HW2 8475   1.130   0.087   3.487 -0.7211 -0.7587  0.1515
 2526SOL     OW 8476   0.687   5.491   5.966 -0.7462  0.2265 -0.2583
 2526SOL    HW1 8477   0.710   5.496   6.063 -2.8367  1.5827  0.2164
 2526SOL    HW2 8478   0.603   5.542   5.948 -0.1295  0.4649 -2.8955
 2527SOL     OW 8479   3.862   2.443   5.802 -0.2106 -0.0823  0.3435
 2527SOL    HW1 8480   3.774   2.490   5.808  0.1553  0.3743  3.0195
 2527SOL    HW2 8481   3.931   2.493   5.854  1.8502 -0.1370 -2.1169
 2528SOL     OW 8482   0.957   4.858   0.116 -0.1116 -0.1690 -0.7009
 2528SOL    HW1 8483   0.863   4.890   0.100  0.0815  1.7817  1.4764
 2528SOL    HW2 8484   0.954   4.774   0.171 -0.5690 -1.0274 -1.9978
 2529SOL     OW 8485   2.365   6.492   5.732  0.9341 -0.3730 -0.5959
 2529SOL    HW1 8486   2.351   6.576   5.679 -0.0183  0.0394  0.2662
 2529SOL    HW2 8487   2.362   6.413   5.671  0.3119  0.1186 -1.2227
 2530SOL     OW 8488   4.982   1.125   1.246  0.6397 -0.0698  0.0146
 2530SOL    HW1 8489   4.940   1.064   1.313 -0.0705  0.3723 -0.0093
 2530SOL    HW2 8490   4.917   1.198   1.223  0.1997 -1.0932 -2.3507
 2531SOL     OW 8491   2.502   6.420   0.674  0.1697  0.2339 -0.3658
 2531SOL    HW1 8492   2.594   6.391   0.647  0.9569  1.9587  0.3334
 2531SOL    HW2 8493   2.456   6.462   0.596  0.3836  0.3546 -0.4264
 2532SOL     OW 8494   4.622   6.753   1.516  0.1658 -0.2317  0.0513
 2532SOL    HW1 8495   4.680   6.738   1.435 -1.4035  0.7474 -1.3150
 2532SOL    HW2 8496   4.678   6.749   1.598  1.8737 -0.9819 -1.0905
 2533SOL     OW 8497   2.012   6.895   6.472 -0.0250 -0.3245 -0.2084
 2533SOL    HW1 8498   2.060   6.815   6.438 -1.6010 -1.5482  0.3318
 2533SOL    HW2 8499   1.917   6.893   6.441 -0.2060  1.1360  0.1534
 2534SOL     OW 8500   4.062   0.435   4.738 -0.1417  0.2202 -0.1804
 2534SOL    HW1 8501   4.105   0.443   4.829 -1.1314  0.3122  0.2914
 2534SOL    HW2 8502   4.072   0.341   4.705  1.9310  0.6253 -0.8689
 2535SOL     OW 8503   6.571   2.370   0.370 -0.5263  0.2401 -0.6934
 2535SOL    HW1 8504   6.642   2.424   0.326 -0.5032  0.5321 -0.3038
 2535SOL    HW2 8505   6.565   2.280   0.326  2.0983 -0.9393  1.0880
 2536SOL     OW 8506   0.219   0.085   1.809  0.6245 -0.1386 -0.1776
 2536SOL    HW1 8507   0.245   0.011   1.872 -0.4648  0.2560  0.7560
 2536SOL    HW2 8508   0.288   0.092   1.737  0.9877 -1.7629 -0.0303
 2537SOL     OW 8509   1.583   5.478   0.331 -0.0442 -1.0019 -0.1030
 2537SOL    HW1 8510   1.627   5.501   0.418  1.1806 -2.7736 -0.2144
 2537SOL    HW2 8511   1.484   5.479   0.342  0.1035 -2.3129  1.6330
 2538SOL     OW 8512   3.362   0.659   4.970 -0.8908  0.2647 -0.3444
 2538SOL    HW1 8513   3.263   0.642   4.966 -0.7967 -0.3524 -0.1692
 2538SOL    HW2 8514   3.400   0.659   4.877 -0.6393 -2.1356 -0.3019
 2539SOL     OW 8515   6.005   4.012   2.790  0.4163 -1.1407  0.2903
 2539SOL    HW1 8516   6.063   4.093   2.781 -0.6313 -0.4367 -0.4541
 2539SOL    HW2 8517   6.016   3.954   2.709  0.4259 -1.2343  0.3589
 2540SOL     OW 8518   1.262   6.680   1.526  0.2322  0.5003 -0.8223
 2540SOL    HW1 8519   1.230   6.634   1.609  0.2214  0.5738 -0.7852
 2540SOL    HW2 8520   1.184   6.724   1.481  0.5421  2.2576  0.2578
 2541SOL     OW 8521   5.596   4.173   1.032 -0.4681 -0.0854  0.1321
 2541SOL    HW1 8522   5.634   4.227   0.957  0.7130  0.1745  0.8987
 2541SOL    HW2 8523   5.599   4.227   1.116 -0.4461 -0.9010  0.6582
 2542SOL     OW 8524   3.775   4.444   5.407  0.0870 -0.1087  0.1210
 2542SOL    HW1 8525   3.688   4.459   5.359  1.5691 -1.1275 -3.1722
 2542SOL    HW2 8526   3.786   4.347   5.425  0.3612  0.0774  0.9881
 2543SOL     OW 8527   5.396   6.897   5.009 -0.2327 -0.2351  0.3139
 2543SOL    HW1 8528   5.456   6.849   5.072 -1.4469 -0.4062  1.3859
 2543SOL    HW2 8529   5.361   6.833   4.941  2.2170  0.2262 -1.5360
 2544SOL     OW 8530   4.174   2.011   1.918 -0.1581 -0.3081 -0.0248
 2544SOL    HW1 8531   4.174   2.049   2.011 -1.7578  1.0114 -0.5330
 2544SOL    HW2 8532   4.250   2.050   1.866  0.6765 -0.9649  0.6636
 2545SOL     OW 8533   4.023   5.043   2.859  0.3831  0.1897  0.7067
 2545SOL    HW1 8534   4.010   4.972   2.928  2.1323 -0.2889  0.5686
 2545SOL    HW2 8535   3.980   5.015   2.773  1.8544 -1.1624  0.3701
 2546SOL     OW 8536   3.914   6.519   6.021 -0.6022 -0.2294  0.0773
 2546SOL    HW1 8537   3.886   6.423   6.032  0.0084 -0.2232  1.9566
 2546SOL    HW2 8538   4.002   6.533   6.066 -0.2840  1.0438 -0.9033
 2547SOL     OW 8539   4.607   0.465   3.038 -0.7339  0.2673 -0.0701
 2547SOL    HW1 8540   4.606   0.533   3.112  1.1700  0.0449  0.2073
 2547SOL    HW2 8541   4.671   0.494   2.967  1.1548 -1.8142  0.6770
 2548SOL     OW 8542   3.608   1.006   3.147 -0.0697  0.0001 -0.1974
 2548SOL    HW1 8543   3.577   0.920   3.189 -1.0326  0.9010  1.0350
 2548SOL    HW2 8544   3.568   1.015   3.056 -0.3862 -0.6288 -0.1273
 2549SOL     OW 8545   4.656   4.564   5.780 -0.1752 -0.7270  0.4461
 2549SOL    HW1 8546   4.661   4.536   5.876 -2.2820 -1.9949  0.2372
 2549SOL    HW2 8547   4.606   4.496   5.727 -0.9025  0.9503 -1.1597
 2550SOL     OW 8548   1.413   0.565   6.906 -0.2109 -0.0367  0.1942
 2550SOL    HW1 8549   1.371   0.642   6.858 -0.5946 -0.0950  0.4375
 2550SOL    HW2 8550   1.361   0.482   6.889 -0.0074 -0.1709  0.2293
 2551SOL     OW 8551   3.562   6.612   6.576 -0.2709 -0.0427  0.2626
 2551SOL    HW1 8552   3.626   6.672   6.624 -0.9354 -0.3848  1.6238
 2551SOL    HW2 8553   3.580   6.517   6.602  0.0226 -0.3420 -0.9782
 2552SOL     OW 8554   2.231   0.595   2.744  0.1393 -0.2537  0.1756
 2552SOL    HW1 8555   2.226   0.673   2.683 -1.5177 -0.1146  0.4486
 2552SOL    HW2 8556   2.179   0.518   2.705  0.8313 -0.8661  0.4248
 2553SOL     OW 8557   3.052   2.946   0.145  0.0272  0.3290 -0.4858
 2553SOL    HW1 8558   2.976   3.006   0.118 -0.3337 -0.1008 -0.4310
 2553SOL    HW2 8559   3.124   2.951   0.077  0.0839  0.9842 -0.3817
 2554SOL     OW 8560   0.287   0.194   1.041 -0.0868  0.0549  0.7322
 2554SOL    HW1 8561   0.190   0.214   1.024 -0.6630 -1.1609  2.3936
 2554SOL    HW2 8562   0.324   0.144   0.963 -0.5779  1.1190 -0.2228
 2555SOL     OW 8563   4.694   2.638   3.986 -0.5975  0.1477 -0.0161
 2555SOL    HW1 8564   4.756   2.563   3.964 -0.4081 -0.4759  2.3630
 2555SOL    HW2 8565   4.625   2.606   4.051 -1.7085  1.5637 -0.4434
 2556SOL     OW 8566   0.057   2.326   0.937 -0.5875  0.9782  0.7365
 2556SOL    HW1 8567  -0.012   2.253   0.939 -0.9648  1.2138 -1.2028
 2556SOL    HW2 8568   0.071   2.354   0.842  4.4432 -1.2242  0.5465
 2557SOL     OW 8569   3.325   3.885   0.131 -0.2396 -0.3552 -0.0307
 2557SOL    HW1 8570   3.423   3.905   0.136 -0.1021 -1.1853  1.7311
 2557SOL    HW2 8571   3.286   3.929   0.051  1.0514  2.2520  0.6440
 2558SOL     OW 8572   4.581   2.352   0.706 -0.0564  0.3156 -0.0013
 2558SOL    HW1 8573   4.490   2.392   0.709 -0.6933 -1.1174  0.7387
 2558SOL    HW2 8574   4.637   2.390   0.780 -1.2750 -1.4722  1.9700
 2559SOL     OW 8575   5.586   2.403   5.061 -0.3085 -0.3065  0.3027
 2559SOL    HW1 8576   5.580   2.378   4.964  1.6653 -2.6253  0.6775
 2559SOL    HW2 8577   5.512   2.466   5.084 -0.4125  0.8942 -2.8443
 2560SOL     OW 8578   6.234   1.663   0.551 -0.1945  0.0916  0.1881
 2560SOL    HW1 8579   6.318   1.718   0.545  0.2946 -0.7455 -1.0611
 2560SOL    HW2 8580   6.255   1.575   0.593 -0.2593 -0.4366 -0.8496
 2561SOL     OW 8581   1.702   6.481   2.007  0.0661  0.5855  0.4501
 2561SOL    HW1 8582   1.654   6.462   2.093  1.6403  0.5869  1.3606
 2561SOL    HW2 8583   1.771   6.410   1.991 -0.6506  0.2186 -1.1745
 2562SOL     OW 8584   6.301   2.105   3.580  0.1597 -0.3306  0.5670
 2562SOL    HW1 8585   6.350   2.192   3.579  0.2129 -0.3634 -0.3240
 2562SOL    HW2 8586   6.350   2.038   3.525  0.0918 -0.9215  1.2058
 2563SOL     OW 8587   1.448   3.308   0.604 -0.2675  0.1651  0.5393
 2563SOL    HW1 8588   1.492   3.222   0.578  0.2601  0.9329 -1.2695
 2563SOL    HW2 8589   1.457   3.321   0.703 -0.3879 -1.8486  0.8574
 2564SOL     OW 8590   4.625   5.852   3.550 -0.2327  0.0316 -0.1335
 2564SOL    HW1 8591   4.658   5.936   3.593  2.1173 -0.0538 -1.6222
 2564SOL    HW2 8592   4.539   5.870   3.503 -0.4141  1.2591  0.6130
 2565SOL     OW 8593   1.748   1.876   3.966  0.4757  0.1940  0.0846
 2565SOL    HW1 8594   1.741   1.912   4.059  2.1645 -0.9885  0.7144
 2565SOL    HW2 8595   1.842   1.886   3.934  0.3710 -1.2418 -0.7200
 2566SOL     OW 8596   3.984   2.175   6.774  0.1023  0.0895 -0.1008
 2566SOL    HW1 8597   4.053   2.235   6.814  0.4632 -0.9283  0.8462
 2566SOL    HW2 8598   3.939   2.222   6.697  1.7227  0.8184 -0.6383
 2567SOL     OW 8599   1.889   0.284   6.756 -0.2211 -0.7136 -0.1221
 2567SOL    HW1 8600   1.857   0.345   6.828  1.2613  0.3838 -0.3444
 2567SOL    HW2 8601   1.939   0.207   6.797  1.2184  0.2721  0.0308
 2568SOL     OW 8602   6.030   0.894   0.220 -0.5763  0.0285 -0.2051
 2568SOL    HW1 8603   6.121   0.925   0.249 -0.7991  1.2593 -0.7968
 2568SOL    HW2 8604   5.988   0.963   0.161 -1.6999 -0.7526 -0.3425
 2569SOL     OW 8605   1.089   6.668   4.762  0.0712  0.0205  0.6105
 2569SOL    HW1 8606   1.131   6.736   4.702  0.8800 -1.9345 -1.1403
 2569SOL    HW2 8607   1.005   6.633   4.720  0.6746 -1.4078  0.5193
 2570SOL     OW 8608   5.457   5.900   2.928 -0.4701 -0.3309 -0.4973
 2570SOL    HW1 8609   5.441   5.827   2.994 -0.8815 -0.0198 -0.2514
 2570SOL    HW2 8610   5.521   5.868   2.858 -2.4145 -1.7653 -1.7245
 2571SOL     OW 8611   3.363   5.808   5.806  0.1967 -0.3585  0.5035
 2571SOL    HW1 8612   3.370   5.794   5.707 -0.7876 -1.0094  0.5148
 2571SOL    HW2 8613   3.411   5.735   5.854  0.7944  0.0350  0.5092
 2572SOL     OW 8614   0.905   5.928   4.479  0.1264  0.1499  0.5979
 2572SOL    HW1 8615   0.935   5.971   4.394 -0.0257 -0.2639  0.3353
 2572SOL    HW2 8616   0.974   5.944   4.550  2.5376 -3.2852 -0.7433
 2573SOL     OW 8617   0.613   3.693   0.780 -0.2407 -0.2269  0.2477
 2573SOL    HW1 8618   0.702   3.650   0.795 -0.2845 -0.9360 -1.2923
 2573SOL    HW2 8619   0.614   3.743   0.693 -1.5250 -0.7919 -0.1232
 2574SOL     OW 8620   3.538   0.287   1.903 -0.4364  0.5438  0.7160
 2574SOL    HW1 8621   3.565   0.191   1.904  0.9829  0.8771 -0.8239
 2574SOL    HW2 8622   3.558   0.328   1.992 -1.7695 -0.7253  1.6494
 2575SOL     OW 8623   3.160   5.145   6.120  0.2966  0.8754 -0.1316
 2575SOL    HW1 8624   3.209   5.119   6.038 -0.9236 -0.1316 -0.5829
 2575SOL    HW2 8625   3.139   5.242   6.118 -0.2325  0.7486 -1.3062
 2576SOL     OW 8626   3.861   6.320   2.602  0.1216 -0.3159 -0.3187
 2576SOL    HW1 8627   3.910   6.407   2.592 -0.1804  0.2001  2.1868
 2576SOL    HW2 8628   3.925   6.244   2.588  0.5492  0.2746 -1.7827
 2577SOL     OW 8629   4.347   1.503   2.009  0.3108 -0.5368  0.0471
 2577SOL    HW1 8630   4.423   1.528   2.069  0.2502  0.0082 -0.1011
 2577SOL    HW2 8631   4.288   1.582   1.995 -0.2196 -0.9228  0.0602
 2578SOL     OW 8632   1.432   1.299   1.905 -0.4030  0.0275 -0.5119
 2578SOL    HW1 8633   1.360   1.354   1.863  1.7781  1.7327 -2.2314
 2578SOL    HW2 8634   1.469   1.346   1.985  0.4707  0.3803 -1.1131
 2579SOL     OW 8635   2.773   5.085   1.086  0.6473  0.4672  0.1470
 2579SOL    HW1 8636   2.786   5.066   1.184 -0.2353  0.5300  0.2770
 2579SOL    HW2 8637   2.700   5.151   1.074  0.0563 -0.3062 -0.6137
 2580SOL     OW 8638   5.941   0.923   3.117  0.2953 -0.1628  0.2790
 2580SOL    HW1 8639   5.965   1.006   3.168  0.9685  0.1913 -0.5869
 2580SOL    HW2 8640   5.997   0.918   3.034 -1.3170 -0.3095 -0.8432
 2581SOL     OW 8641   5.966   6.716   2.689  0.1670 -0.1401 -0.3161
 2581SOL    HW1 8642   5.935   6.685   2.599 -0.6632 -2.0229  0.5702
 2581SOL    HW2 8643   5.886   6.729   2.749  0.7485  0.5020  0.3357
 2582SOL     OW 8644   6.230   0.662   4.587 -0.4643 -0.1086  0.4582
 2582SOL    HW1 8645   6.176   0.717   4.523  0.0235  0.7453  0.7722
 2582SOL    HW2 8646   6.297   0.720   4.633 -0.3152 -0.8611  1.2108
 2583SOL     OW 8647   5.557   3.365   2.565  0.0999 -0.4163 -0.0011
 2583SOL    HW1 8648   5.594   3.457   2.579  1.1709 -0.4013 -2.3048
 2583SOL    HW2 8649   5.508   3.361   2.478 -0.9761 -1.7520  0.6184
 2584SOL     OW 8650   3.679   0.708   0.460  0.0156  0.3140 -0.2185
 2584SOL    HW1 8651   3.680   0.728   0.362 -1.4744 -1.7271 -0.7050
 2584SOL    HW2 8652   3.773   0.690   0.491  0.3987 -0.0541 -1.5132
 2585SOL     OW 8653   3.966   1.041   3.730  0.2967  0.5919  0.6500
 2585SOL    HW1 8654   3.981   1.136   3.700 -0.4648  0.6008  0.2744
 2585SOL    HW2 8655   4.046   0.986   3.708  0.6679  1.1098  0.6929
 2586SOL     OW 8656   6.647   1.859   1.169 -0.0821  0.1075  0.1917
 2586SOL    HW1 8657   6.707   1.910   1.230  0.9283  0.3799 -0.9802
 2586SOL    HW2 8658   6.608   1.781   1.218  0.2638  0.6217  1.3191
 2587SOL     OW 8659   1.517   6.565   3.358  0.8772 -0.0744 -0.1233
 2587SOL    HW1 8660   1.480   6.567   3.451  1.1858  2.1726 -0.0143
 2587SOL    HW2 8661   1.451   6.520   3.297 -0.7282  1.1888  0.6132
 2588SOL     OW 8662   5.896   6.692   4.041 -0.1010  0.2876  0.6156
 2588SOL    HW1 8663   5.875   6.707   3.944  2.7476  1.2196  0.0203
 2588SOL    HW2 8664   5.994   6.675   4.051 -0.8291 -4.1252  2.9301
 2589SOL     OW 8665   6.131   3.846   3.229 -0.0849  0.5597  0.4360
 2589SOL    HW1 8666   6.227   3.860   3.253  0.1114 -0.4111  0.2479
 2589SOL    HW2 8667   6.124   3.816   3.134 -0.5809  0.5952  0.4552
 2590SOL     OW 8668   1.979   5.894   3.541  0.7319 -0.0494 -0.3199
 2590SOL    HW1 8669   1.917   5.901   3.620  0.0560 -0.5037 -0.7994
 2590SOL    HW2 8670   2.029   5.980   3.530 -0.4241  0.6305 -0.4095
 2591SOL     OW 8671   4.276   1.317   1.842 -0.4038 -0.1246  0.0334
 2591SOL    HW1 8672   4.315   1.391   1.897  1.6444  0.3183 -1.9038
 2591SOL    HW2 8673   4.252   1.352   1.752 -2.1191 -1.2212  0.0246
 2592SOL     OW 8674   2.393   2.960   1.212  0.3604  0.1834 -0.1435
 2592SOL    HW1 8675   2.456   2.918   1.277 -0.2258  0.2560  0.4771
 2592SOL    HW2 8676   2.398   3.059   1.220 -0.3047  0.1796  0.3679
 2593SOL     OW 8677   4.261   0.358   6.557  0.1260 -0.4503 -0.4740
 2593SOL    HW1 8678   4.263   0.337   6.459  1.3919  0.9234 -0.7835
 2593SOL    HW2 8679   4.308   0.285   6.607  2.0038  0.1773 -1.2225
 2594SOL     OW 8680   4.946   5.104   6.113  0.0979 -0.0178 -0.5370
 2594SOL    HW1 8681   4.930   5.011   6.078  0.4818 -0.3273  0.1052
 2594SOL    HW2 8682   5.023   5.103   6.176 -0.4959  0.5562  0.2203
 2595SOL     OW 8683   1.534   6.254   3.757  0.5410  0.4389  0.0083
 2595SOL    HW1 8684   1.457   6.194   3.776 -1.0844  1.6250 -2.2897
 2595SOL    HW2 8685   1.517   6.343   3.800  0.9909  0.4840  0.0934
 2596SOL     OW 8686   1.282   6.278   6.510  0.0201  0.0390  0.0269
 2596SOL    HW1 8687   1.340   6.197   6.498  1.0918  0.6073  1.1329
 2596SOL    HW2 8688   1.224   6.266   6.590 -0.5608 -0.0548 -0.4079
 2597SOL     OW 8689   4.047   0.331   0.245 -0.0380 -0.1418  0.0564
 2597SOL    HW1 8690   4.060   0.428   0.268 -0.8278  0.0158 -0.1456
 2597SOL    HW2 8691   4.108   0.307   0.169  2.6120 -0.6734  2.2130
 2598SOL     OW 8692   3.428   2.140   2.877  0.1706 -0.0515 -0.4008
 2598SOL    HW1 8693   3.348   2.162   2.932 -0.6630  1.1156 -1.9866
 2598SOL    HW2 8694   3.399   2.090   2.795  1.0858  0.2450 -0.9172
 2599SOL     OW 8695   5.317   5.480   6.602 -0.7070 -0.0158 -0.2313
 2599SOL    HW1 8696   5.334   5.435   6.514  0.2290  0.3671 -0.2614
 2599SOL    HW2 8697   5.360   5.426   6.675  0.6378  0.9065 -0.2937
 2600SOL     OW 8698   2.465   3.608   5.519 -0.5241  0.1909 -0.2806
 2600SOL    HW1 8699   2.451   3.610   5.420 -0.7536  0.5912 -0.2400
 2600SOL    HW2 8700   2.562   3.595   5.539 -0.5295 -0.3301 -0.5563
 2601SOL     OW 8701   2.649   1.271   2.985 -0.0569  0.4050 -0.1362
 2601SOL    HW1 8702   2.581   1.254   2.913 -0.6060 -0.7024  0.6233
 2601SOL    HW2 8703   2.606   1.261   3.075  0.4147  2.5977  0.3941
 2602SOL     OW 8704   1.505   6.335   5.362 -0.5446  0.1388 -0.0386
 2602SOL    HW1 8705   1.543   6.246   5.337 -0.4185  0.0321  0.5216
 2602SOL    HW2 8706   1.408   6.326   5.383 -1.0479  0.5055 -1.9981
 2603SOL     OW 8707   0.533   6.630   2.308 -0.2152 -0.2991  0.5943
 2603SOL    HW1 8708   0.470   6.706   2.299  0.2442  0.0705  0.4457
 2603SOL    HW2 8709   0.626   6.665   2.320  0.2705 -0.8150 -1.3478
 2604SOL     OW 8710   2.007   1.934   5.036  0.8713 -0.0301 -0.6669
 2604SOL    HW1 8711   1.995   1.872   4.959  5.2263  0.0821 -1.7005
 2604SOL    HW2 8712   2.030   2.025   5.002  0.3293  0.6865  0.8129
 2605SOL     OW 8713   4.697   4.525   0.677  0.0175  0.3055 -0.3249
 2605SOL    HW1 8714   4.601   4.549   0.666 -0.0899 -0.2703 -0.7529
 2605SOL    HW2 8715   4.738   4.512   0.586  0.2659 -0.3059 -0.1296
 2606SOL     OW 8716   0.297   3.932   6.660  0.0516  0.1598 -0.0395
 2606SOL    HW1 8717   0.380   3.973   6.698  0.9903 -1.3602 -0.3745
 2606SOL    HW2 8718   0.320   3.849   6.611 -1.4829  0.6067 -1.6223
 2607SOL     OW 8719   3.493   4.773   5.857  0.3062 -0.2511 -0.1887
 2607SOL    HW1 8720   3.557   4.703   5.890 -0.6753 -1.9088 -1.5860
 2607SOL    HW2 8721   3.482   4.764   5.758 -1.0309  0.8970 -0.1745
 2608SOL     OW 8722   1.304   6.311   2.065 -0.0159  0.4258  0.1646
 2608SOL    HW1 8723   1.229   6.319   2.131  0.3605 -1.3505  0.8947
 2608SOL    HW2 8724   1.326   6.401   2.028 -3.7620  0.8325 -1.5678
 2609SOL     OW 8725   1.614   1.185   4.589 -0.5144  0.0633  0.8087
 2609SOL    HW1 8726   1.552   1.241   4.643 -1.4523  0.4690 -0.6227
 2609SOL    HW2 8727   1.609   1.089   4.619 -1.2840  0.2230  1.1879
 2610SOL     OW 8728   1.275   1.296   2.694  0.1452 -0.3442 -0.0074
 2610SOL    HW1 8729   1.182   1.307   2.659 -0.0536 -0.9963  0.2991
 2610SOL    HW2 8730   1.286   1.353   2.776  0.2348  0.2558 -0.4291
 2611SOL     OW 8731   2.443   4.148   1.133 -0.2725 -0.0312  0.4359
 2611SOL    HW1 8732   2.523   4.206   1.119 -1.3770  1.2029 -1.0568
 2611SOL    HW2 8733   2.467   4.072   1.194  2.0169  0.2851  0.0032
 2612SOL     OW 8734   1.001   3.517   4.493  0.3693  0.1943  0.2736
 2612SOL    HW1 8735   0.985   3.419   4.483 -0.4382  0.1992  1.3063
 2612SOL    HW2 8736   0.975   3.564   4.409 -0.8369 -0.3068  0.3413
 2613SOL     OW 8737   0.064   6.148   3.237  0.7033 -0.0662  0.2857
 2613SOL    HW1 8738   0.136   6.078   3.229  1.0379  0.3704 -0.7010
 2613SOL    HW2 8739  -0.016   6.108   3.281  1.5805 -0.5367  1.5050
 2614SOL     OW 8740   5.071   1.614   1.195 -0.9704 -0.5288 -0.5311
 2614SOL    HW1 8741   4.978   1.582   1.174 -1.4935 -0.5028  1.4999
 2614SOL    HW2 8742   5.080   1.626   1.294  1.2922 -0.7646 -0.6550
 2615SOL     OW 8743   0.764   2.683   1.713  0.1775 -0.3318  0.0944
 2615SOL    HW1 8744   0.755   2.586   1.737  0.9186 -0.0079  1.8285
 2615SOL    HW2 8745   0.841   2.695   1.651 -0.9334 -1.0305 -1.4868
 2616SOL     OW 8746   0.416   1.612   0.474  0.5114 -0.3077  0.4344
 2616SOL    HW1 8747   0.328   1.650   0.446  1.1856  0.1061 -1.2296
 2616SOL    HW2 8748   0.401   1.531   0.530 -0.9157 -0.0436  0.4730
 2617SOL     OW 8749   4.143   2.297   0.445 -0.2075  0.0247  0.2465
 2617SOL    HW1 8750   4.234   2.328   0.472  1.1032 -1.5893 -1.9474
 2617SOL    HW2 8751   4.118   2.216   0.497 -0.0855  0.0775  0.3867
 2618SOL     OW 8752   0.735   1.071   6.589 -0.4675  0.0969  0.3418
 2618SOL    HW1 8753   0.751   0.977   6.620 -0.1387 -0.3989 -1.2745
 2618SOL    HW2 8754   0.704   1.126   6.667 -0.8967 -1.3879  1.2696
 2619SOL     OW 8755   4.317   0.706   0.987  0.0449 -0.0597 -1.2171
 2619SOL    HW1 8756   4.271   0.743   1.068 -1.0908 -0.4434 -1.6743
 2619SOL    HW2 8757   4.412   0.739   0.986  0.0401  0.0813  0.1727
 2620SOL     OW 8758   5.664   3.266   4.777  1.0434  0.1860 -0.3716
 2620SOL    HW1 8759   5.756   3.225   4.778  0.4123 -1.7297  4.0280
 2620SOL    HW2 8760   5.596   3.193   4.783 -0.7975  1.6383 -2.2824
 2621SOL     OW 8761   0.601   1.392   4.470 -0.2616  0.1589 -0.0551
 2621SOL    HW1 8762   0.688   1.441   4.460  0.1347 -0.6765 -0.9129
 2621SOL    HW2 8763   0.553   1.392   4.382 -0.6984 -0.1742  0.1820
 2622SOL     OW 8764   4.062   1.580   4.295  0.3288  0.0560 -0.1302
 2622SOL    HW1 8765   4.149   1.535   4.276  0.9272  0.9271  0.5046
 2622SOL    HW2 8766   4.078   1.676   4.316 -0.6120 -0.1019  1.5003
 2623SOL     OW 8767   0.196   1.390   2.058  0.5207 -0.0086 -0.1410
 2623SOL    HW1 8768   0.183   1.412   1.962  0.0216  1.3941  0.2165
 2623SOL    HW2 8769   0.268   1.448   2.097 -0.1343  0.3311  0.6073
 2624SOL     OW 8770   5.035   5.539   1.127  0.2423  0.2760 -0.6653
 2624SOL    HW1 8771   4.959   5.600   1.108 -1.3078 -0.8760  1.3594
 2624SOL    HW2 8772   5.039   5.467   1.057 -0.4160  0.4523 -0.8876
 2625SOL     OW 8773   0.329   5.060   6.682 -0.3733  0.2818  0.2569
 2625SOL    HW1 8774   0.316   5.083   6.778 -0.5738  0.5815  0.1620
 2625SOL    HW2 8775   0.426   5.063   6.659 -0.4191  1.4844  0.1512
 2626SOL     OW 8776   0.248   2.285   0.473  0.2390 -0.2107  0.2849
 2626SOL    HW1 8777   0.315   2.213   0.491  1.7788  0.8076 -1.1094
 2626SOL    HW2 8778   0.168   2.245   0.428  1.1188 -1.0583 -0.5775
 2627SOL     OW 8779   6.748   5.025   3.646 -0.0503  0.0059 -0.1426
 2627SOL    HW1 8780   6.670   5.010   3.584 -0.1266 -1.2637  0.2450
 2627SOL    HW2 8781   6.802   4.942   3.652  1.8415  1.1013 -1.0466
 2628SOL     OW 8782   2.196   0.338   3.619 -0.5409 -0.2312 -0.0614
 2628SOL    HW1 8783   2.150   0.426   3.603 -0.4870  0.2667  2.1735
 2628SOL    HW2 8784   2.278   0.333   3.562 -2.0838 -0.1594 -2.4398
 2629SOL     OW 8785   4.654   3.436   5.428  1.0222 -0.7657 -0.1676
 2629SOL    HW1 8786   4.664   3.497   5.350 -0.5052  0.7069  0.7077
 2629SOL    HW2 8787   4.607   3.352   5.400  1.1385 -0.5725 -0.9489
 2630SOL     OW 8788   2.675   5.137   6.849  0.4085  0.0050  0.1036
 2630SOL    HW1 8789   2.733   5.174   6.921 -1.6919  0.3347  1.6766
 2630SOL    HW2 8790   2.651   5.209   6.784 -0.1700  0.4133  0.7684
 2631SOL     OW 8791   2.212   2.273   6.267  0.7112  0.5346  0.3247
 2631SOL    HW1 8792   2.203   2.185   6.314  0.1836  2.0095  3.1996
 2631SOL    HW2 8793   2.289   2.323   6.305  1.1826  1.2588 -1.4763
 2632SOL     OW 8794   6.209   2.353   6.324  0.2969  0.5483 -0.3352
 2632SOL    HW1 8795   6.118   2.367   6.286  0.1440  1.3780  0.3103
 2632SOL    HW2 8796   6.277   2.363   6.252 -0.2146 -2.8218 -1.4657
 2633SOL     OW 8797   6.859   0.499   5.720  0.0518  0.4966 -0.2037
 2633SOL    HW1 8798   6.810   0.425   5.674  1.4646 -0.3654 -0.3938
 2633SOL    HW2 8799   6.834   0.586   5.678  0.6893 -0.1826 -2.1101
 2634SOL     OW 8800   4.957   6.940   5.172 -0.3459  0.1387 -0.1182
 2634SOL    HW1 8801   5.045   6.903   5.202 -0.7569 -0.5545  0.2629
 2634SOL    HW2 8802   4.968   6.984   5.083 -0.1060 -2.1942 -1.3305
 2635SOL     OW 8803   3.600   4.974   1.932  0.2816 -0.2394 -0.1058
 2635SOL    HW1 8804   3.567   4.883   1.954  0.1578 -0.4873 -1.2750
 2635SOL    HW2 8805   3.699   4.972   1.921  0.0619 -0.7438 -2.3892
 2636SOL     OW 8806   2.978   6.091   3.977 -0.5633  0.1526 -0.6660
 2636SOL    HW1 8807   3.039   6.041   3.917 -0.9222  0.4911 -1.3214
 2636SOL    HW2 8808   2.884   6.059   3.964 -0.7528  0.7635 -0.8576
 2637SOL     OW 8809   1.534   4.452   6.279  0.6129  0.1269 -0.0474
 2637SOL    HW1 8810   1.471   4.510   6.331  0.7785 -0.1413  0.4525
 2637SOL    HW2 8811   1.483   4.380   6.233  0.4884  0.2641 -0.1281
 2638SOL     OW 8812   2.307   6.923   6.780 -0.7040  0.3048 -0.4691
 2638SOL    HW1 8813   2.284   6.828   6.755  0.5049 -0.2358  0.3996
 2638SOL    HW2 8814   2.404   6.939   6.765 -0.7732  1.2209 -0.0005
 2639SOL     OW 8815   2.408   3.255   0.937 -0.4393  0.4204 -0.2262
 2639SOL    HW1 8816   2.456   3.229   1.021 -1.7217 -0.5056  0.2569
 2639SOL    HW2 8817   2.336   3.189   0.918  0.3642  0.1023 -2.5662
 2640SOL     OW 8818   3.899   2.136   3.460 -0.8521 -0.4452 -0.3791
 2640SOL    HW1 8819   3.887   2.105   3.365 -1.5250  0.2489 -0.5289
 2640SOL    HW2 8820   3.988   2.178   3.471 -0.8948 -0.2441 -0.7883
 2641SOL     OW 8821   4.287   0.579   6.768  0.6802  0.1579 -0.2085
 2641SOL    HW1 8822   4.282   0.521   6.687 -0.8721  0.3777 -0.3113
 2641SOL    HW2 8823   4.246   0.531   6.846  0.7795  0.5253  0.0725
 2642SOL     OW 8824   5.927   4.149   1.592 -0.0303  0.1010 -0.4722
 2642SOL    HW1 8825   5.890   4.139   1.499 -0.8267 -1.4239 -0.0181
 2642SOL    HW2 8826   6.011   4.096   1.600 -0.7368 -0.9662  0.0707
 2643SOL     OW 8827   2.066   6.553   4.972 -0.0262 -0.6235 -0.0576
 2643SOL    HW1 8828   2.072   6.584   5.067 -0.5604  0.1841 -0.2722
 2643SOL    HW2 8829   1.977   6.510   4.956  1.0681 -3.2578  0.4927
 2644SOL     OW 8830   0.747   3.110   4.857 -0.1395  0.0848 -0.2134
 2644SOL    HW1 8831   0.781   3.201   4.880 -1.2702  0.0716  1.7366
 2644SOL    HW2 8832   0.775   3.045   4.928 -2.3079 -0.3434  0.3089
 2645SOL     OW 8833   4.122   4.227   1.123  0.5324  0.1453 -0.0607
 2645SOL    HW1 8834   4.079   4.298   1.178 -2.7202 -2.3231  0.8638
 2645SOL    HW2 8835   4.165   4.160   1.183  0.7234 -0.3628 -0.7586
 2646SOL     OW 8836   5.323   3.589   2.390 -0.0490 -0.0300  0.1717
 2646SOL    HW1 8837   5.276   3.636   2.315  1.1798  0.1595 -0.5053
 2646SOL    HW2 8838   5.268   3.596   2.473 -0.8528  0.8464 -0.4131
 2647SOL     OW 8839   4.643   1.283   2.330 -0.4923 -0.5617  0.1925
 2647SOL    HW1 8840   4.662   1.225   2.251 -1.3654 -1.4642  0.6309
 2647SOL    HW2 8841   4.699   1.254   2.407  0.3890  0.3448 -0.0860
 2648SOL     OW 8842   1.426   0.363   3.628  0.1483  0.0871  0.5951
 2648SOL    HW1 8843   1.369   0.306   3.687 -0.6377  1.1663  0.9136
 2648SOL    HW2 8844   1.373   0.391   3.547  1.1686 -1.2623 -0.5903
 2649SOL     OW 8845   6.896   2.173   0.170 -0.1236 -0.1599  0.1598
 2649SOL    HW1 8846   6.928   2.227   0.092  2.8377 -2.3911 -0.3043
 2649SOL    HW2 8847   6.797   2.186   0.180  0.0032  3.2876 -1.4326
 2650SOL     OW 8848   2.610   1.867   6.234 -0.0522 -0.2492  0.3592
 2650SOL    HW1 8849   2.635   1.771   6.223 -0.3688 -0.4562  1.3589
 2650SOL    HW2 8850   2.630   1.897   6.328  0.4670  0.7925 -0.0664
 2651SOL     OW 8851   0.806   0.029   4.311 -0.0837  0.0615 -0.0361
 2651SOL    HW1 8852   0.741  -0.046   4.328 -0.7406  0.9064  1.3542
 2651SOL    HW2 8853   0.819   0.039   4.212 -1.0197 -1.0162 -0.2987
 2652SOL     OW 8854   6.481   1.612   4.350  0.5912 -0.3452  0.6895
 2652SOL    HW1 8855   6.420   1.545   4.393 -1.7374  1.1284 -0.0926
 2652SOL    HW2 8856   6.563   1.566   4.316 -0.8654 -2.7842  0.2389
 2653SOL     OW 8857   1.140   2.267   5.967 -0.0466  0.1312  0.1055
 2653SOL    HW1 8858   1.158   2.327   6.045 -1.7604  1.6705 -0.6007
 2653SOL    HW2 8859   1.062   2.303   5.915  0.8843 -0.9577 -2.1804
 2654SOL     OW 8860   6.512   5.792   6.256 -0.4828 -0.4151  0.0091
 2654SOL    HW1 8861   6.440   5.750   6.202  0.1452 -0.0373 -1.1661
 2654SOL    HW2 8862   6.472   5.854   6.323 -1.3505 -1.9151  0.9415
 2655SOL     OW 8863   4.967   2.650   6.797 -0.6433  0.7118  0.7958
 2655SOL    HW1 8864   4.946   2.654   6.894  1.0974  1.3723  1.1727
 2655SOL    HW2 8865   4.946   2.738   6.755  1.3792  1.4268  1.2053
 2656SOL     OW 8866   4.653   0.058   1.754 -0.0971  0.6118  0.3998
 2656SOL    HW1 8867   4.562   0.069   1.715 -0.8809  1.4799  2.3464
 2656SOL    HW2 8868   4.671  -0.039   1.770 -0.5119  0.4019 -0.3811
 2657SOL     OW 8869   5.246   5.142   5.262  0.0550 -0.2236  0.2269
 2657SOL    HW1 8870   5.155   5.102   5.275 -1.0966  1.1542 -2.7490
 2657SOL    HW2 8871   5.239   5.241   5.257  1.3445 -0.1669 -2.0424
 2658SOL     OW 8872   6.519   3.163   2.600 -0.8849 -0.5983 -0.4503
 2658SOL    HW1 8873   6.541   3.125   2.510  0.0146  1.1241 -1.0000
 2658SOL    HW2 8874   6.597   3.215   2.634 -1.1924 -1.2888  1.3886
 2659SOL     OW 8875   5.009   2.798   2.975  0.5992  0.0947  0.2361
 2659SOL    HW1 8876   4.995   2.738   2.896  0.1562 -0.3181  0.6147
 2659SOL    HW2 8877   4.920   2.819   3.016  0.8704 -0.3018  1.0569
 2660SOL     OW 8878   6.041   5.118   5.923 -0.4991 -0.4051  0.0501
 2660SOL    HW1 8879   6.068   5.189   5.857  0.4843 -0.8530 -0.0462
 2660SOL    HW2 8880   6.050   5.028   5.880 -0.4065 -0.6674  0.6112
 2661SOL     OW 8881   1.159   5.268   5.279  0.4376  0.3891 -0.2941
 2661SOL    HW1 8882   1.250   5.247   5.313  0.2418 -0.0614 -0.0351
 2661SOL    HW2 8883   1.107   5.183   5.267  0.2340  0.5981 -0.9630
 2662SOL     OW 8884   2.705   5.942   4.131 -0.1563 -0.0332 -0.0707
 2662SOL    HW1 8885   2.716   5.876   4.205 -1.3915 -0.5985 -0.3687
 2662SOL    HW2 8886   2.716   5.896   4.043 -0.0025  0.3721 -0.2665
 2663SOL     OW 8887   0.734   3.588   5.288 -0.2546 -0.2532  0.2168
 2663SOL    HW1 8888   0.723   3.549   5.196  0.1181 -0.7248  0.3653
 2663SOL    HW2 8889   0.777   3.678   5.282  1.1727 -0.9200  0.0119
 2664SOL     OW 8890   5.782   6.881   3.410 -0.0774  0.0245  0.4512
 2664SOL    HW1 8891   5.807   6.817   3.337  1.0469  0.9659 -0.0348
 2664SOL    HW2 8892   5.735   6.832   3.483  0.1180 -1.2140 -0.2269
 2665SOL     OW 8893   6.186   5.253   5.006  0.2367  0.1659 -0.4701
 2665SOL    HW1 8894   6.253   5.302   5.062 -0.3875  1.0479 -0.4936
 2665SOL    HW2 8895   6.094   5.287   5.025 -0.1094 -0.3497 -1.1651
 2666SOL     OW 8896   4.895   4.061   4.414  0.2293  0.4517  0.5903
 2666SOL    HW1 8897   4.847   4.132   4.465 -2.3289  0.0194 -1.0239
 2666SOL    HW2 8898   4.973   4.100   4.366  0.1544  1.7061  1.4571
 2667SOL     OW 8899   6.908   6.801   4.816 -0.3746  0.3601 -0.4304
 2667SOL    HW1 8900   6.884   6.739   4.891 -1.4184 -0.6506 -1.5525
 2667SOL    HW2 8901   6.838   6.872   4.808 -0.5142  0.1918 -0.7314
 2668SOL     OW 8902   6.882   4.932   6.000  0.5554 -0.0994  0.6091
 2668SOL    HW1 8903   6.888   5.026   5.966  0.4190 -0.0635  0.6815
 2668SOL    HW2 8904   6.887   4.869   5.922 -1.3805  0.0320  0.3028
 2669SOL     OW 8905   4.097   1.190   4.815  0.0925  0.1495  0.1041
 2669SOL    HW1 8906   4.077   1.094   4.796  0.1239  0.2906 -0.6753
 2669SOL    HW2 8907   4.066   1.213   4.907  1.8061 -1.0877  1.0369
 2670SOL     OW 8908   1.557   0.858   1.830 -0.0534 -0.7682  0.2081
 2670SOL    HW1 8909   1.587   0.952   1.818 -1.9030 -0.1048  0.4950
 2670SOL    HW2 8910   1.481   0.839   1.768  0.9967 -2.4469 -0.6434
 2671SOL     OW 8911   2.457   3.417   1.644 -0.1448 -0.1925 -0.9026
 2671SOL    HW1 8912   2.414   3.427   1.733  0.3989 -1.8738 -0.4223
 2671SOL    HW2 8913   2.391   3.441   1.572 -0.9284  0.1123 -0.0926
 2672SOL     OW 8914   2.118   2.700   6.149 -0.0475  0.5175 -1.0311
 2672SOL    HW1 8915   2.204   2.653   6.169  0.3563  0.8014 -2.0394
 2672SOL    HW2 8916   2.089   2.678   6.056 -0.8276  0.7913 -0.8564
 2673SOL     OW 8917   3.267   1.880   3.912  0.4082 -0.0241  0.7364
 2673SOL    HW1 8918   3.179   1.832   3.921  1.4051 -2.1778 -0.3601
 2673SOL    HW2 8919   3.328   1.851   3.985  0.8717 -0.0403  0.3414
 2674SOL     OW 8920   2.505   4.925   2.688  0.2849 -0.2465  0.4329
 2674SOL    HW1 8921   2.574   4.926   2.760 -2.7704 -2.1474  3.7296
 2674SOL    HW2 8922   2.548   4.904   2.600  3.8765 -0.9736  2.2030
 2675SOL     OW 8923   0.705   0.537   5.313 -0.3828  0.2867 -0.3153
 2675SOL    HW1 8924   0.773   0.484   5.365 -0.5549  0.4249  0.0560
 2675SOL    HW2 8925   0.694   0.627   5.356  2.1887  1.8894 -2.6571
 2676SOL     OW 8926   5.180   3.400   3.766  0.0275 -0.3021  0.3848
 2676SOL    HW1 8927   5.168   3.483   3.712 -1.4786 -0.1205  0.9353
 2676SOL    HW2 8928   5.249   3.414   3.837 -0.8051  0.7707  1.0038
 2677SOL     OW 8929   2.509   2.706   0.502  0.5260  0.1342 -0.1495
 2677SOL    HW1 8930   2.434   2.759   0.542 -0.3883 -0.9807 -0.3254
 2677SOL    HW2 8931   2.473   2.620   0.467  1.6037  0.3124 -1.7980
 2678SOL     OW 8932   3.903   2.278   1.501  0.1857  0.0016  0.0234
 2678SOL    HW1 8933   3.979   2.331   1.463 -0.7436  0.1980 -1.6285
 2678SOL    HW2 8934   3.833   2.340   1.536 -1.0842 -0.0457 -2.2687
 2679SOL     OW 8935   3.845   0.703   3.497 -0.1400 -1.0662 -0.1077
 2679SOL    HW1 8936   3.857   0.786   3.441  1.1989 -0.5905  0.8341
 2679SOL    HW2 8937   3.810   0.728   3.587 -0.1394 -1.5725  0.0349
 2680SOL     OW 8938   2.138   5.144   0.289  0.2880  0.2148  0.0980
 2680SOL    HW1 8939   2.154   5.233   0.332  0.4099 -0.4674  1.5373
 2680SOL    HW2 8940   2.127   5.074   0.360 -1.3336 -0.6788 -0.9628
 2681SOL     OW 8941   3.954   2.247   1.819  0.8116  0.4691 -0.6865
 2681SOL    HW1 8942   3.915   2.186   1.888  2.2466  0.6006  0.2944
 2681SOL    HW2 8943   3.892   2.323   1.803 -0.3836 -0.5249 -0.9278
 2682SOL     OW 8944   1.890   3.745   4.157  0.1699  0.7230  0.3466
 2682SOL    HW1 8945   1.841   3.683   4.218  0.8205 -0.4540 -0.2761
 2682SOL    HW2 8946   1.894   3.705   4.066  0.5425  1.7368 -0.0912
 2683SOL     OW 8947   0.609   5.431   3.467  0.0408 -0.1558 -0.3505
 2683SOL    HW1 8948   0.573   5.388   3.550  1.9173 -1.0103  0.0712
 2683SOL    HW2 8949   0.533   5.469   3.414 -1.3609 -1.0388  0.9304
 2684SOL     OW 8950   0.253   1.715   5.652  0.2494  0.1034  0.1199
 2684SOL    HW1 8951   0.260   1.745   5.557 -0.5035 -0.5976 -0.1644
 2684SOL    HW2 8952   0.325   1.648   5.671  0.2716  0.0903 -0.0073
 2685SOL     OW 8953   1.551   6.140   6.720  0.7094 -0.5010 -0.0818
 2685SOL    HW1 8954   1.617   6.208   6.752 -0.6568  1.4216 -1.1217
 2685SOL    HW2 8955   1.500   6.104   6.799 -0.4400  1.7989  0.3216
 2686SOL     OW 8956   2.016   1.736   5.510 -0.0889 -0.9287  0.2028
 2686SOL    HW1 8957   1.971   1.647   5.511 -0.5273 -0.7199  2.0422
 2686SOL    HW2 8958   1.957   1.804   5.554  0.2757  0.2746 -1.0848
 2687SOL     OW 8959   1.358   3.106   4.714 -0.0237 -0.7206 -0.2783
 2687SOL    HW1 8960   1.270   3.151   4.700  0.1134 -0.3414  0.0518
 2687SOL    HW2 8961   1.343   3.012   4.745 -0.3397 -0.1486  1.4456
 2688SOL     OW 8962   1.922   3.127   0.641 -0.1780  0.0190  0.0886
 2688SOL    HW1 8963   1.890   3.038   0.606  0.5461 -0.2995  0.2230
 2688SOL    HW2 8964   1.997   3.160   0.585  0.3198 -0.0108  0.7316
 2689SOL     OW 8965   2.022   2.990   2.052 -0.4072  1.0474 -0.2822
 2689SOL    HW1 8966   1.967   2.919   2.097  0.0283  1.1655  0.4517
 2689SOL    HW2 8967   2.062   3.050   2.121 -0.1304  1.5406 -0.8591
 2690SOL     OW 8968   3.546   2.940   0.018  0.2397  0.7392 -0.1001
 2690SOL    HW1 8969   3.633   2.981   0.043  0.2660  1.4166 -1.2234
 2690SOL    HW2 8970   3.514   2.881   0.092  1.3873  0.8920  0.5402
 2691SOL     OW 8971   5.777   2.287   3.927  0.2566 -0.7323 -0.2712
 2691SOL    HW1 8972   5.754   2.379   3.896 -0.6087 -1.4197 -1.7690
 2691SOL    HW2 8973   5.706   2.253   3.988  2.2087  0.8206  3.1440
 2692SOL     OW 8974   6.253   4.017   6.540  0.0099  0.2865  0.3911
 2692SOL    HW1 8975   6.257   3.941   6.605 -1.1659  1.0322  1.3898
 2692SOL    HW2 8976   6.336   4.072   6.550  2.1317 -2.1771 -2.1367
 2693SOL     OW 8977   6.957   2.045   1.183  0.7090 -0.8856 -0.8879
 2693SOL    HW1 8978   6.984   1.961   1.231  1.3483 -0.6552 -0.8335
 2693SOL    HW2 8979   6.974   2.124   1.242 -0.6052 -0.7604 -0.6474
 2694SOL     OW 8980   5.280   2.508   5.098  0.5964  0.1215 -0.7676
 2694SOL    HW1 8981   5.241   2.416   5.098 -1.0414  0.7912  0.1497
 2694SOL    HW2 8982   5.243   2.561   5.174  0.5525  1.9484 -1.9962
 2695SOL     OW 8983   4.042   4.691   5.866  0.1140 -0.2886  0.0517
 2695SOL    HW1 8984   3.948   4.714   5.840 -0.2436  1.5219  2.6061
 2695SOL    HW2 8985   4.106   4.742   5.809 -0.5069  0.0787 -0.3277
 2696SOL     OW 8986   4.169   0.945   3.340  0.3659 -0.3207  0.1234
 2696SOL    HW1 8987   4.185   0.941   3.439  2.7200 -1.1153 -0.2240
 2696SOL    HW2 8988   4.205   0.862   3.297  0.9904  0.7647 -1.5729
 2697SOL     OW 8989   6.635   4.828   0.078  0.3392  0.2906 -0.5488
 2697SOL    HW1 8990   6.678   4.787  -0.002  0.6556 -0.8208  0.1656
 2697SOL    HW2 8991   6.658   4.774   0.160  0.7413  1.8827  0.4354
 2698SOL     OW 8992   5.969   4.502   0.158  0.4362 -0.0064  0.2075
 2698SOL    HW1 8993   6.045   4.566   0.156  0.9727 -0.5522  1.7862
 2698SOL    HW2 8994   5.904   4.529   0.230  1.1361 -1.6927  1.5428
 2699SOL     OW 8995   3.597   6.482   2.684  0.0026  0.6257 -0.0454
 2699SOL    HW1 8996   3.506   6.443   2.694 -0.6326  1.9967 -0.3173
 2699SOL    HW2 8997   3.606   6.525   2.595  0.7352  0.9931  0.1958
 2700SOL     OW 8998   0.722   1.422   5.528 -0.3325  0.0829 -0.5077
 2700SOL    HW1 8999   0.806   1.458   5.489 -0.8717 -0.7488 -2.5363
 2700SOL    HW2 9000   0.657   1.400   5.455 -1.8232 -0.5250  0.9252
 2701SOL     OW 9001   2.400   5.084   5.931  0.2304  0.3552  0.7620
 2701SOL    HW1 9002   2.386   4.986   5.912  2.7764  0.3314 -1.6901
 2701SOL    HW2 9003   2.324   5.136   5.892 -1.4657 -0.5866  2.6043
 2702SOL     OW 9004   1.754   4.718   6.522 -0.1332  0.0471 -0.1981
 2702SOL    HW1 9005   1.673   4.744   6.470 -0.4195  0.4866  0.4517
 2702SOL    HW2 9006   1.775   4.622   6.505  0.9271  0.6266 -2.6279
 2703SOL     OW 9007   2.540   5.502   1.186  0.0502  0.3465  0.4832
 2703SOL    HW1 9008   2.500   5.524   1.097  1.1957  1.4937  0.2298
 2703SOL    HW2 9009   2.492   5.552   1.257  0.1251  0.6311  0.3353
 2704SOL     OW 9010   5.229   3.974   0.181  0.8287 -0.4052  0.1034
 2704SOL    HW1 9011   5.282   4.056   0.160  0.8426 -0.7105 -1.1335
 2704SOL    HW2 9012   5.132   3.992   0.166  0.8511 -0.6692 -0.3848
 2705SOL     OW 9013   0.738   0.368   1.384 -0.9407 -0.4805 -0.2117
 2705SOL    HW1 9014   0.746   0.453   1.437 -0.6059 -0.4802 -0.2650
 2705SOL    HW2 9015   0.759   0.290   1.443 -0.5929 -0.4818 -0.3347
 2706SOL     OW 9016   6.209   1.924   6.244 -0.2785  0.0617 -0.1608
 2706SOL    HW1 9017   6.276   1.985   6.200  0.0502 -1.1132 -1.3436
 2706SOL    HW2 9018   6.122   1.929   6.194  0.1928 -1.5254 -1.2164
 2707SOL     OW 9019   2.720   5.144   6.438  0.1962 -0.3194  0.2769
 2707SOL    HW1 9020   2.709   5.126   6.340 -1.2573  0.5037  0.2652
 2707SOL    HW2 9021   2.646   5.099   6.489  0.5411 -0.1593  0.9335
 2708SOL     OW 9022   6.954   4.848   6.427  0.2113  0.1042  0.3503
 2708SOL    HW1 9023   6.906   4.762   6.416  0.3724  0.1230 -0.5939
 2708SOL    HW2 9024   7.011   4.844   6.509  2.4247 -1.7790 -1.1493
 2709SOL     OW 9025   1.096   5.558   3.093 -0.0762 -0.1605 -0.1356
 2709SOL    HW1 9026   1.015   5.515   3.052  0.5311 -1.5402  0.0470
 2709SOL    HW2 9027   1.125   5.634   3.036  1.1040 -2.3707 -2.7032
 2710SOL     OW 9028   5.246   6.974   1.882  0.0596 -0.2736  0.0052
 2710SOL    HW1 9029   5.243   7.031   1.964  2.5021 -0.7986  0.5538
 2710SOL    HW2 9030   5.284   6.884   1.906 -0.4490 -0.9060 -1.4716
 2711SOL     OW 9031   4.602   0.765   3.059 -0.0345  0.0712  0.2539
 2711SOL    HW1 9032   4.583   0.848   3.006 -1.3520 -0.3309  0.0570
 2711SOL    HW2 9033   4.611   0.789   3.155 -2.0115  0.2995  0.4352
 2712SOL     OW 9034   1.692   4.345   0.637 -0.3167 -0.3587  0.3331
 2712SOL    HW1 9035   1.780   4.299   0.626 -1.1575 -1.9292 -0.1017
 2712SOL    HW2 9036   1.651   4.319   0.724 -0.5832 -0.0521  0.3007
 2713SOL     OW 9037   3.213   6.094   5.480 -0.2160 -0.5151  0.4326
 2713SOL    HW1 9038   3.262   6.174   5.515 -0.8989  0.3570 -0.5530
 2713SOL    HW2 9039   3.163   6.119   5.397  0.5613 -2.2652 -0.6233
 2714SOL     OW 9040   5.334   1.560   5.346  0.7444  0.3105 -0.2778
 2714SOL    HW1 9041   5.428   1.578   5.317  0.6001  0.3177 -0.7534
 2714SOL    HW2 9042   5.270   1.595   5.277  0.4302 -0.9783 -0.6752
 2715SOL     OW 9043   4.935   1.863   5.400 -0.0776 -0.4397 -0.0867
 2715SOL    HW1 9044   4.847   1.848   5.355 -0.1012  0.0096 -0.2011
 2715SOL    HW2 9045   4.952   1.962   5.406 -0.2442 -0.4750  1.2256
 2716SOL     OW 9046   2.970   5.218   2.422 -0.0679 -0.1934 -0.2382
 2716SOL    HW1 9047   3.066   5.238   2.438 -0.4474  0.3664  1.5243
 2716SOL    HW2 9048   2.959   5.120   2.402  0.6210 -0.7977  2.0787
 2717SOL     OW 9049   2.159   2.338   2.578  0.0489 -0.2231  0.5355
 2717SOL    HW1 9050   2.122   2.261   2.628  2.2759 -1.3879  0.5206
 2717SOL    HW2 9051   2.223   2.389   2.636  0.6311  0.0049 -0.2696
 2718SOL     OW 9052   5.082   1.261   3.442  0.0637 -0.7285  0.5814
 2718SOL    HW1 9053   5.112   1.205   3.519  1.7638 -1.1719 -0.3454
 2718SOL    HW2 9054   5.070   1.355   3.473 -1.6851 -1.3417  1.8956
 2719SOL     OW 9055   1.311   6.836   3.759 -0.0816  0.0136  0.3514
 2719SOL    HW1 9056   1.298   6.890   3.676  1.6503 -0.7358 -0.4439
 2719SOL    HW2 9057   1.250   6.757   3.757 -0.6813  0.4747  0.2265
 2720SOL     OW 9058   2.692   0.660   0.044  0.7630  0.1495 -0.0668
 2720SOL    HW1 9059   2.666   0.755   0.027  0.4380  0.1004  0.1469
 2720SOL    HW2 9060   2.615   0.600   0.024  1.5371 -0.2541 -2.0239
 2721SOL     OW 9061   6.237   4.812   3.507  0.4971 -0.0038 -0.0878
 2721SOL    HW1 9062   6.213   4.852   3.596  2.0356 -1.2699  0.9670
 2721SOL    HW2 9063   6.235   4.712   3.514 -0.0699 -0.1297 -1.7131
 2722SOL     OW 9064   3.373   5.990   6.711 -0.1580 -0.0186 -0.1151
 2722SOL    HW1 9065   3.276   6.009   6.695 -0.0990 -0.1525 -0.6405
 2722SOL    HW2 9066   3.382   5.932   6.792 -0.5542 -0.3872 -0.3273
 2723SOL     OW 9067   5.417   3.489   0.555 -0.1846  0.1666  0.8594
 2723SOL    HW1 9068   5.421   3.400   0.509 -2.1720  0.7438 -0.5655
 2723SOL    HW2 9069   5.322   3.510   0.578 -0.0127  2.6896 -0.4319
 2724SOL     OW 9070   2.860   2.106   6.694  0.0963  0.1849  0.4347
 2724SOL    HW1 9071   2.911   2.030   6.735  0.3096 -0.0161 -0.1868
 2724SOL    HW2 9072   2.907   2.192   6.712  0.5285  0.0266  0.0752
 2725SOL     OW 9073   4.280   5.441   4.591  0.0841  0.2394 -0.7320
 2725SOL    HW1 9074   4.314   5.357   4.549  1.0314  0.2375  0.0260
 2725SOL    HW2 9075   4.232   5.419   4.676 -0.5505  0.3809 -1.0449
 2726SOL     OW 9076   6.687   3.802   2.843  0.1243 -0.0724 -0.2088
 2726SOL    HW1 9077   6.704   3.704   2.856  0.5280 -0.1857 -1.4507
 2726SOL    HW2 9078   6.592   3.823   2.865 -0.5125 -1.1198 -1.7969
 2727SOL     OW 9079   6.140   1.758   3.901  0.0208 -0.2768  0.3770
 2727SOL    HW1 9080   6.098   1.848   3.913 -1.0559 -0.3738 -2.1646
 2727SOL    HW2 9081   6.073   1.687   3.923 -0.2542 -0.4287 -0.8883
 2728SOL     OW 9082   2.496   6.695   1.960 -0.2718 -0.6652  0.1765
 2728SOL    HW1 9083   2.589   6.675   1.990 -0.3145 -3.3533 -1.2274
 2728SOL    HW2 9084   2.431   6.665   2.031 -0.1544  0.7067  0.9118
 2729SOL     OW 9085   6.365   3.085   6.142  0.1111 -0.7270  0.3203
 2729SOL    HW1 9086   6.407   3.132   6.219  0.4727 -0.1772 -0.2043
 2729SOL    HW2 9087   6.276   3.126   6.121 -0.6678 -1.8072  1.3476
 2730SOL     OW 9088   5.386   4.023   3.505  0.2970  0.4171  0.0333
 2730SOL    HW1 9089   5.388   4.118   3.475 -1.5295  0.5083  0.1273
 2730SOL    HW2 9090   5.410   4.017   3.602 -0.2322  0.8653  0.1939
 2731SOL     OW 9091   0.996   5.652   6.577 -0.2591 -0.4717  0.2331
 2731SOL    HW1 9092   0.916   5.615   6.625 -1.6977 -1.1677 -2.5166
 2731SOL    HW2 9093   1.041   5.579   6.526  0.1922  0.5209 -0.8346
 2732SOL     OW 9094   3.107   6.385   6.497 -0.7597  0.3901  0.1042
 2732SOL    HW1 9095   3.065   6.318   6.436 -2.6993  1.2674  0.4078
 2732SOL    HW2 9096   3.148   6.458   6.442 -0.0727 -0.1976 -0.1831
 2733SOL     OW 9097   3.235   4.251   0.145  0.1594 -0.3516 -0.1342
 2733SOL    HW1 9098   3.298   4.240   0.222  1.4517 -1.1765 -1.2606
 2733SOL    HW2 9099   3.193   4.162   0.124 -0.3905 -0.0747 -0.2353
 2734SOL     OW 9100   1.784   2.376   0.234  0.1127  0.5039  0.3387
 2734SOL    HW1 9101   1.813   2.468   0.208 -2.7819  1.8136  1.3245
 2734SOL    HW2 9102   1.713   2.345   0.172  0.3213 -0.6455  0.6527
 2735SOL     OW 9103   2.157   3.830   2.048  0.2704  0.3194 -0.3461
 2735SOL    HW1 9104   2.155   3.731   2.061 -4.6328  0.2318  0.1991
 2735SOL    HW2 9105   2.178   3.874   2.135  1.8739 -0.1593 -0.4529
 2736SOL     OW 9106   6.992   3.440   2.157 -0.0966 -0.6335  0.2257
 2736SOL    HW1 9107   6.962   3.484   2.241 -0.7903 -0.8084  0.0706
 2736SOL    HW2 9108   6.913   3.405   2.107  0.3705 -1.2113 -0.1221
 2737SOL     OW 9109   0.446   6.406   6.077 -0.0845 -0.4463 -0.0051
 2737SOL    HW1 9110   0.461   6.307   6.073  1.7491 -0.3786  2.7691
 2737SOL    HW2 9111   0.531   6.454   6.054 -0.3403  0.4119  0.7733
 2738SOL     OW 9112   6.682   5.342   1.789  0.1206  0.1376 -0.6838
 2738SOL    HW1 9113   6.742   5.421   1.775 -0.6930  0.5457 -2.1074
 2738SOL    HW2 9114   6.735   5.258   1.779  0.5754  0.4956 -1.4293
 2739SOL     OW 9115   1.431   4.256   6.124 -0.2023  0.1320  0.0776
 2739SOL    HW1 9116   1.422   4.168   6.076 -1.0494 -0.0159  0.4811
 2739SOL    HW2 9117   1.363   4.261   6.197  0.1381  0.9442  0.3532
 2740SOL     OW 9118   5.997   2.013   6.095 -0.0283 -0.3091 -0.3536
 2740SOL    HW1 9119   5.960   2.104   6.117 -0.1991 -0.2601 -0.8261
 2740SOL    HW2 9120   5.936   1.967   6.031 -0.4686 -1.1732  0.6572
 2741SOL     OW 9121   0.257   2.477   0.670  0.2711 -0.6955  0.3367
 2741SOL    HW1 9122   0.262   2.393   0.616  0.0085 -1.6645  1.7781
 2741SOL    HW2 9123   0.347   2.522   0.669  0.2171 -0.5692 -1.0558
 2742SOL     OW 9124   0.094   5.818   6.101 -0.5276  0.0464  0.3678
 2742SOL    HW1 9125   0.031   5.896   6.091  0.7454  0.9220 -1.6129
 2742SOL    HW2 9126   0.042   5.734   6.114 -2.1185  0.7733 -0.9322
 2743SOL     OW 9127   5.760   2.984   1.267  0.1691  0.1070 -0.0079
 2743SOL    HW1 9128   5.817   2.912   1.307 -1.2215 -0.3159  1.3022
 2743SOL    HW2 9129   5.804   3.017   1.183  1.3308 -1.5804 -0.1404
 2744SOL     OW 9130   3.891   2.306   0.879  0.3471  0.6837  0.2084
 2744SOL    HW1 9131   3.906   2.383   0.941 -2.2828  0.6926  0.9433
 2744SOL    HW2 9132   3.958   2.234   0.899 -0.6860  0.4749  3.4755
 2745SOL     OW 9133   2.523   0.385   1.790  0.3021  0.2801 -0.2793
 2745SOL    HW1 9134   2.556   0.386   1.885  0.6320 -0.6090 -0.3758
 2745SOL    HW2 9135   2.443   0.324   1.784 -1.0555  1.9729 -0.1593
 2746SOL     OW 9136   4.731   2.522   2.923 -0.0668 -0.4166 -0.3584
 2746SOL    HW1 9137   4.775   2.543   3.011  0.3877 -1.4785 -0.3195
 2746SOL    HW2 9138   4.773   2.441   2.883 -0.9976 -0.5737 -1.0471
 2747SOL     OW 9139   5.979   4.545   5.564  0.0622  0.1784 -0.4572
 2747SOL    HW1 9140   6.040   4.517   5.637 -1.4903  0.5720  1.0673
 2747SOL    HW2 9141   5.966   4.644   5.566 -1.1946  0.0345 -0.2394
 2748SOL     OW 9142   0.310   6.213   4.652  0.0222  0.8319  0.0652
 2748SOL    HW1 9143   0.334   6.269   4.572 -0.1010  0.5103 -0.2008
 2748SOL    HW2 9144   0.271   6.126   4.621 -0.3447  0.8441  0.4808
 2749SOL     OW 9145   0.858   3.347   2.303 -0.6280 -0.0988  0.4611
 2749SOL    HW1 9146   0.877   3.253   2.278 -0.8582  0.0103 -0.1401
 2749SOL    HW2 9147   0.769   3.374   2.266 -0.6130  0.3150  0.7244
 2750SOL     OW 9148   2.155   3.709   2.551  0.3352 -0.1797  0.2393
 2750SOL    HW1 9149   2.112   3.634   2.501 -0.7584  1.3885 -1.2890
 2750SOL    HW2 9150   2.146   3.693   2.649  0.6639 -2.3186 -0.0501
 2751SOL     OW 9151   6.035   0.259   1.827 -0.3795 -0.3658  0.9661
 2751SOL    HW1 9152   5.989   0.258   1.916  0.2321 -2.0290  1.2901
 2751SOL    HW2 9153   5.966   0.266   1.755 -0.9287  0.1738  1.5189
 2752SOL     OW 9154   6.940   2.483   1.346 -0.0917  0.0602 -0.9557
 2752SOL    HW1 9155   7.037   2.501   1.330  0.6296 -1.7214  0.8918
 2752SOL    HW2 9156   6.895   2.567   1.377  1.8708  0.1291  2.1642
 2753SOL     OW 9157   6.526   4.909   3.523  0.1296 -0.3783 -0.0375
 2753SOL    HW1 9158   6.458   4.860   3.579  0.9325 -0.7447  0.6378
 2753SOL    HW2 9159   6.479   4.963   3.454 -1.0163  1.4779  2.0625
 2754SOL     OW 9160   3.154   5.351   3.025  0.1928 -0.2255 -0.3626
 2754SOL    HW1 9161   3.205   5.317   2.947  0.1736  0.0275 -0.4850
 2754SOL    HW2 9162   3.076   5.290   3.042 -0.4987  0.3775 -1.2852
 2755SOL     OW 9163   6.017   4.294   4.078  0.1993 -0.4109  0.0849
 2755SOL    HW1 9164   6.014   4.393   4.092  0.6122 -0.2924 -0.6148
 2755SOL    HW2 9165   5.926   4.256   4.094 -0.3151  0.2859 -0.9982
 2756SOL     OW 9166   1.108   1.563   3.235 -0.3716  0.7220  0.3101
 2756SOL    HW1 9167   1.117   1.635   3.303  0.6222  0.8711  0.0244
 2756SOL    HW2 9168   1.165   1.485   3.261 -2.1738 -0.3955  1.1366
 2757SOL     OW 9169   5.624   4.262   0.056  0.1286  0.4502 -0.2933
 2757SOL    HW1 9170   5.592   4.348   0.095  0.8458  0.3986  0.4358
 2757SOL    HW2 9171   5.722   4.269   0.035  0.5200 -0.6333  1.0620
 2758SOL     OW 9172   4.113   6.290   0.084  0.1471  0.8078  0.3667
 2758SOL    HW1 9173   4.031   6.316   0.033  0.1145  0.1805  0.0922
 2758SOL    HW2 9174   4.106   6.324   0.178 -0.7026  0.2529  0.5148
 2759SOL     OW 9175   5.854   2.841   4.257  0.4024  0.1795 -0.4177
 2759SOL    HW1 9176   5.942   2.845   4.211  0.8865  0.7663  0.5437
 2759SOL    HW2 9177   5.833   2.746   4.282  0.2388 -0.1198 -1.5980
 2760SOL     OW 9178   3.060   5.657   3.434 -0.2735  0.2619  0.1659
 2760SOL    HW1 9179   3.000   5.725   3.475 -1.6462 -1.7907  1.7221
 2760SOL    HW2 9180   3.083   5.686   3.341  1.6077  4.2612  1.6053
 2761SOL     OW 9181   4.224   6.299   2.669  0.2748 -0.0831 -0.3815
 2761SOL    HW1 9182   4.185   6.348   2.748 -0.0216 -0.3945 -0.3283
 2761SOL    HW2 9183   4.174   6.213   2.656  1.3877 -0.8266  0.1033
 2762SOL     OW 9184   5.646   5.196   4.804 -0.2162  0.4728  0.4077
 2762SOL    HW1 9185   5.742   5.180   4.784  0.1519 -0.7506  2.8776
 2762SOL    HW2 9186   5.637   5.267   4.874 -1.1772  0.9427 -0.1560
 2763SOL     OW 9187   4.751   0.224   2.741 -0.2754 -0.7252  0.0962
 2763SOL    HW1 9188   4.675   0.165   2.767 -0.0539 -0.0923  2.3149
 2763SOL    HW2 9189   4.717   0.315   2.717 -0.2635 -0.6115  0.5151
 2764SOL     OW 9190   4.358   0.978   1.515  0.4231  0.4361  0.3687
 2764SOL    HW1 9191   4.324   1.068   1.542  0.4224  1.4555 -2.6169
 2764SOL    HW2 9192   4.289   0.909   1.534 -1.8746  1.8800 -1.9571
 2765SOL     OW 9193   3.870   1.169   0.781  0.6029  0.2063 -0.0031
 2765SOL    HW1 9194   3.948   1.216   0.822  0.6522  0.3552 -0.2638
 2765SOL    HW2 9195   3.822   1.232   0.720  1.8013 -0.6038 -1.8945
 2766SOL     OW 9196   0.723   4.646   1.792  0.2412  0.2551 -0.3729
 2766SOL    HW1 9197   0.718   4.731   1.740  1.6506  1.8231  1.8687
 2766SOL    HW2 9198   0.773   4.662   1.877 -0.2149 -2.6443  0.5510
 2767SOL     OW 9199   5.487   2.493   4.146 -0.1072 -0.5674 -0.1824
 2767SOL    HW1 9200   5.569   2.536   4.184  0.5538 -0.2891 -1.8514
 2767SOL    HW2 9201   5.426   2.563   4.110 -2.1116 -0.5865  2.8242
 2768SOL     OW 9202   2.146   6.655   5.391 -0.4732  0.5053 -0.1546
 2768SOL    HW1 9203   2.198   6.707   5.323 -1.4174  1.0657 -0.4670
 2768SOL    HW2 9204   2.133   6.561   5.359 -1.2385  0.8719 -0.9237
 2769SOL     OW 9205   0.220   4.090   2.707 -0.3443  0.1986  0.0609
 2769SOL    HW1 9206   0.264   4.173   2.671  0.9003  0.2308  1.5645
 2769SOL    HW2 9207   0.206   4.101   2.806 -1.0271 -1.0277  0.1094
 2770SOL     OW 9208   5.882   0.885   5.640  0.2229 -0.2880 -0.1330
 2770SOL    HW1 9209   5.854   0.824   5.713 -0.6173  1.1892  0.8334
 2770SOL    HW2 9210   5.805   0.901   5.578  0.3575  0.0134 -0.2256
 2771SOL     OW 9211   0.735   5.855   6.443  0.5421  0.2492 -0.3368
 2771SOL    HW1 9212   0.664   5.798   6.485 -0.0114  0.5120 -0.9021
 2771SOL    HW2 9213   0.811   5.797   6.414  1.2544  0.1337  1.6111
 2772SOL     OW 9214   1.704   2.945   3.665 -0.3437 -0.1610  0.3587
 2772SOL    HW1 9215   1.800   2.967   3.679 -0.3095  0.5430 -0.8088
 2772SOL    HW2 9216   1.672   2.883   3.737  0.6638  0.5343  1.4398
 2773SOL     OW 9217   6.062   3.103   5.252 -0.1924 -0.0917  0.2220
 2773SOL    HW1 9218   5.983   3.057   5.212 -0.7251  0.7574  0.2795
 2773SOL    HW2 9219   6.048   3.115   5.350 -0.1311  0.3191  0.1839
 2774SOL     OW 9220   0.726   6.450   6.550  0.3368  0.4336 -0.1817
 2774SOL    HW1 9221   0.771   6.376   6.500  1.7343  0.5851  0.7963
 2774SOL    HW2 9222   0.684   6.513   6.485 -0.3793 -0.8820 -1.0506
 2775SOL     OW 9223   5.132   0.909   1.753 -0.1292 -0.6807 -0.2669
 2775SOL    HW1 9224   5.126   0.877   1.659  1.7492 -0.0214 -0.6428
 2775SOL    HW2 9225   5.083   0.996   1.762  0.0937 -0.5037 -0.7413
 2776SOL     OW 9226   3.797   0.172   2.127 -0.2228 -0.1532 -0.1795
 2776SOL    HW1 9227   3.725   0.103   2.135  0.5288 -1.3840 -2.9090
 2776SOL    HW2 9228   3.765   0.257   2.168 -1.8556 -1.5966  1.7636
 2777SOL     OW 9229   6.091   0.944   2.877  0.0729  0.3943  0.0341
 2777SOL    HW1 9230   6.070   1.021   2.817 -0.3952 -0.1068 -0.4556
 2777SOL    HW2 9231   6.055   0.859   2.837  1.9563 -0.3275 -0.2333
 2778SOL     OW 9232   6.429   2.691   6.396 -0.2892 -0.9203  0.3381
 2778SOL    HW1 9233   6.387   2.741   6.321  0.1926  0.0585  0.7101
 2778SOL    HW2 9234   6.495   2.625   6.361  0.2242 -0.1901 -0.0807
 2779SOL     OW 9235   6.614   4.458   6.333  0.7667 -0.0332 -0.0658
 2779SOL    HW1 9236   6.696   4.462   6.391  0.2574 -2.1530  0.9012
 2779SOL    HW2 9237   6.600   4.364   6.302 -1.7070  0.1261  0.4039
 2780SOL     OW 9238   4.695   4.549   2.377 -0.6269 -0.0450 -0.2896
 2780SOL    HW1 9239   4.727   4.457   2.400 -0.0361  0.4223  0.8396
 2780SOL    HW2 9240   4.756   4.591   2.311 -0.7744 -0.3778 -0.6402
 2781SOL     OW 9241   0.701   0.706   3.689 -0.4167  0.2233 -0.0300
 2781SOL    HW1 9242   0.793   0.689   3.727  0.9512  2.4535 -2.0847
 2781SOL    HW2 9243   0.634   0.700   3.762  1.7501  1.6762  2.2629
 2782SOL     OW 9244   2.759   4.110   0.355  0.0854 -0.5208 -0.1284
 2782SOL    HW1 9245   2.659   4.111   0.345 -0.3247 -3.2187  2.2803
 2782SOL    HW2 9246   2.794   4.203   0.344 -2.7789  0.6907 -0.1680
 2783SOL     OW 9247   3.035   0.257   3.746  0.2479 -0.3850 -0.2884
 2783SOL    HW1 9248   3.094   0.332   3.717  0.1042 -0.7908 -1.7379
 2783SOL    HW2 9249   2.974   0.288   3.819 -0.8161  1.3519 -1.8331
 2784SOL     OW 9250   6.592   3.372   4.165 -0.3097  0.4510  0.4264
 2784SOL    HW1 9251   6.507   3.336   4.204  0.1303 -1.7852 -0.5219
 2784SOL    HW2 9252   6.573   3.411   4.075 -0.2692 -0.7051 -0.1072
 2785SOL     OW 9253   1.142   4.472   0.980  0.1655 -0.2819 -0.9803
 2785SOL    HW1 9254   1.089   4.555   0.960  0.2395  1.0361  3.3244
 2785SOL    HW2 9255   1.088   4.392   0.955 -2.5802  1.0537  0.1638
 2786SOL     OW 9256   1.092   4.724   3.082 -0.6055  0.0743  0.2915
 2786SOL    HW1 9257   1.069   4.775   2.999  0.3754 -0.0913 -0.1024
 2786SOL    HW2 9258   1.120   4.631   3.058  0.3958  0.2453  0.7100
 2787SOL     OW 9259   2.347   1.866   4.565  0.0677 -0.3142  0.4154
 2787SOL    HW1 9260   2.435   1.890   4.524  0.6777  0.5543  2.1345
 2787SOL    HW2 9261   2.286   1.832   4.494  1.4555 -0.0174 -0.9872
 2788SOL     OW 9262   5.152   2.060   6.408 -0.2516  0.3458  1.0282
 2788SOL    HW1 9263   5.119   2.051   6.502 -2.5808  0.2237  0.2666
 2788SOL    HW2 9264   5.087   2.017   6.345  1.2545  0.3973 -0.6622
 2789SOL     OW 9265   5.871   3.456   3.349 -0.4561 -0.1096 -0.2482
 2789SOL    HW1 9266   5.965   3.486   3.335  0.7203 -3.4019 -0.1810
 2789SOL    HW2 9267   5.826   3.441   3.261  0.2315 -1.6542 -0.3647
 2790SOL     OW 9268   6.797   5.111   4.831  0.0247  0.0423 -0.0127
 2790SOL    HW1 9269   6.838   5.044   4.769 -1.7508 -0.2891 -0.9122
 2790SOL    HW2 9270   6.752   5.064   4.907 -0.2460  0.2742 -0.0263
 2791SOL     OW 9271   3.747   5.241   3.398 -0.1054  0.0088  0.3421
 2791SOL    HW1 9272   3.741   5.341   3.401 -0.2010  0.0435 -0.6704
 2791SOL    HW2 9273   3.840   5.214   3.372  0.2578 -0.2042  1.7928
 2792SOL     OW 9274   0.310   3.415   6.012 -0.2915  0.3589 -0.3196
 2792SOL    HW1 9275   0.262   3.465   5.939  0.0414 -0.2976 -0.9959
 2792SOL    HW2 9276   0.277   3.448   6.101 -3.5128 -1.4340 -0.7002
 2793SOL     OW 9277   5.116   3.155   2.780 -0.0803  0.3991  0.2626
 2793SOL    HW1 9278   5.063   3.149   2.695 -3.2739 -0.5595  2.1483
 2793SOL    HW2 9279   5.125   3.251   2.807 -0.4738  0.6199 -0.3596
 2794SOL     OW 9280   0.173   3.976   6.971 -0.3905  0.4670  0.1940
 2794SOL    HW1 9281   0.120   3.998   6.890  0.2895 -0.0306 -0.3971
 2794SOL    HW2 9282   0.159   4.047   7.041  0.6354  2.0505 -1.1312
 2795SOL     OW 9283   2.230   5.415   4.005  0.0659 -0.1406 -0.0932
 2795SOL    HW1 9284   2.310   5.383   3.954  0.6989  1.3407 -0.0929
 2795SOL    HW2 9285   2.156   5.435   3.941  0.2875  0.1082 -0.2756
 2796SOL     OW 9286   6.635   1.122   4.905 -0.4107 -0.4677  0.6178
 2796SOL    HW1 9287   6.539   1.096   4.919 -0.8823 -3.0399 -4.6712
 2796SOL    HW2 9288   6.639   1.200   4.843  1.0297  0.2476  1.5574
 2797SOL     OW 9289   4.502   1.599   4.609 -0.0443  0.2907  0.0703
 2797SOL    HW1 9290   4.428   1.632   4.551  0.2482  0.6877 -0.0782
 2797SOL    HW2 9291   4.584   1.582   4.553  0.0736  0.1526  0.2802
 2798SOL     OW 9292   4.202   2.037   6.933 -0.5048  0.3667 -0.2862
 2798SOL    HW1 9293   4.278   2.038   6.867 -1.3132  2.9455 -1.3085
 2798SOL    HW2 9294   4.145   2.117   6.919 -0.3792  1.4656  4.0246
 2799SOL     OW 9295   4.970   3.215   4.550  0.4809 -0.1826 -0.3586
 2799SOL    HW1 9296   4.895   3.193   4.486  0.6553 -0.9532 -0.3055
 2799SOL    HW2 9297   4.944   3.295   4.605 -0.6920 -0.9822  0.2888
 2800SOL     OW 9298   6.111   4.308   3.575  0.0527 -0.5213 -0.1306
 2800SOL    HW1 9299   6.049   4.307   3.654 -1.1737 -0.5915 -1.0578
 2800SOL    HW2 9300   6.177   4.234   3.584 -1.0096 -1.4696  0.1201
 2801SOL     OW 9301   6.876   1.721   3.862  0.1148  1.1144  1.1111
 2801SOL    HW1 9302   6.810   1.797   3.866  0.0125  1.2011 -0.9095
 2801SOL    HW2 9303   6.836   1.646   3.810  0.7264  0.1880  1.9461
 2802SOL     OW 9304   5.429   5.284   5.474  0.0488  0.0306  0.3489
 2802SOL    HW1 9305   5.358   5.219   5.446 -1.5067  1.2284  1.3133
 2802SOL    HW2 9306   5.433   5.287   5.574  0.2237  1.2582  0.3160
 2803SOL     OW 9307   1.127   6.591   0.945  0.1691  0.2451 -0.1598
 2803SOL    HW1 9308   1.032   6.586   0.912 -0.2262  0.1062  0.9564
 2803SOL    HW2 9309   1.170   6.674   0.909 -0.3718  0.3093 -0.6822
 2804SOL     OW 9310   3.519   4.094   3.355  0.4491  0.7500 -0.3964
 2804SOL    HW1 9311   3.561   4.023   3.299 -0.6022 -1.3846  1.3669
 2804SOL    HW2 9312   3.559   4.093   3.447  1.0369  3.1151 -0.5448
 2805SOL     OW 9313   1.321   0.097   1.485 -0.0124  0.3447  0.1470
 2805SOL    HW1 9314   1.267   0.014   1.467  0.9726 -0.1584 -0.5820
 2805SOL    HW2 9315   1.383   0.113   1.408  1.8123  0.1789  1.5184
 2806SOL     OW 9316   0.298   5.146   6.950  0.1013 -0.4507 -0.1304
 2806SOL    HW1 9317   0.332   5.239   6.964 -0.1187 -0.3175 -0.4648
 2806SOL    HW2 9318   0.225   5.127   7.016  0.4940 -0.5694  0.2747
 2807SOL     OW 9319   3.304   0.622   3.370 -0.2201 -0.6467 -0.4944
 2807SOL    HW1 9320   3.282   0.589   3.278  0.3883 -1.0660 -0.4935
 2807SOL    HW2 9321   3.350   0.550   3.422  1.7936  0.4032 -0.7343
 2808SOL     OW 9322   0.627   1.469   3.012  0.3214 -0.0065  0.2770
 2808SOL    HW1 9323   0.713   1.422   2.991  0.3040 -0.6756  1.5908
 2808SOL    HW2 9324   0.633   1.564   2.981  1.4223 -0.1228  0.0802
 2809SOL     OW 9325   0.752   1.170   1.259  0.1563  0.5346  0.1045
 2809SOL    HW1 9326   0.836   1.225   1.259 -0.7860  2.0740  1.2840
 2809SOL    HW2 9327   0.678   1.222   1.216 -0.3059 -0.6539 -0.5854
 2810SOL     OW 9328   5.238   5.865   6.463  0.1488  0.0622  0.3819
 2810SOL    HW1 9329   5.237   5.840   6.560 -2.9116  0.9540  0.6832
 2810SOL    HW2 9330   5.186   5.949   6.450 -0.9936 -0.9532 -2.2574
 2811SOL     OW 9331   6.661   0.278   0.681 -0.6658 -0.4898 -0.1198
 2811SOL    HW1 9332   6.626   0.233   0.598  0.5761 -2.2765  0.2601
 2811SOL    HW2 9333   6.596   0.262   0.756  0.3997 -3.0532  0.3710
 2812SOL     OW 9334   4.400   5.291   5.788 -0.2155  0.3286 -0.4464
 2812SOL    HW1 9335   4.497   5.274   5.804 -0.4252 -1.9619 -1.1599
 2812SOL    HW2 9336   4.347   5.262   5.868 -0.3494  1.2891 -0.1776
 2813SOL     OW 9337   2.387   1.743   5.248  0.7188  0.2135  0.5304
 2813SOL    HW1 9338   2.469   1.801   5.248  0.9249 -0.0047 -1.4544
 2813SOL    HW2 9339   2.381   1.694   5.162 -1.4422  0.0899  0.6902
 2814SOL     OW 9340   5.405   0.283   5.371 -0.6963 -0.1283  0.1121
 2814SOL    HW1 9341   5.383   0.194   5.332 -2.0157  0.4743 -0.6181
 2814SOL    HW2 9342   5.360   0.293   5.460  1.9155 -1.3128  1.6788
 2815SOL     OW 9343   3.325   6.784   3.408 -0.1359 -0.6192  0.6860
 2815SOL    HW1 9344   3.395   6.840   3.366 -0.1830 -1.2082 -0.1971
 2815SOL    HW2 9345   3.364   6.697   3.439 -0.4624 -0.9315  0.2323
 2816SOL     OW 9346   5.815   3.739   4.965  0.0537 -0.0580 -0.4099
 2816SOL    HW1 9347   5.779   3.660   4.917  0.9913 -0.7610  0.0124
 2816SOL    HW2 9348   5.817   3.818   4.903 -0.3092 -0.5187 -1.0154
 2817SOL     OW 9349   1.733   4.937   1.535 -0.0708 -0.7214 -0.7284
 2817SOL    HW1 9350   1.699   5.019   1.489 -0.1982 -0.9488 -1.0488
 2817SOL    HW2 9351   1.804   4.895   1.478  0.7254 -0.2760 -0.0877
 2818SOL     OW 9352   6.480   0.790   4.347 -0.2727 -0.0961  0.2060
 2818SOL    HW1 9353   6.385   0.816   4.362 -1.0901 -3.1687  1.2303
 2818SOL    HW2 9354   6.530   0.793   4.434  0.9138  2.4203 -0.4793
 2819SOL     OW 9355   0.310   1.093   6.509 -0.1606 -0.2470  0.5570
 2819SOL    HW1 9356   0.255   1.093   6.426  3.6282  1.3232 -2.1962
 2819SOL    HW2 9357   0.278   1.165   6.571 -0.0769  2.0131 -1.8606
 2820SOL     OW 9358   0.979   2.036   4.200 -0.1130  0.5728 -0.3640
 2820SOL    HW1 9359   0.899   2.058   4.257  0.1286 -2.7104  1.4930
 2820SOL    HW2 9360   0.948   2.003   4.111 -0.6060  2.8731 -1.1083
 2821SOL     OW 9361   5.966   1.101   0.056  0.0812 -0.4378  0.0434
 2821SOL    HW1 9362   6.014   1.173   0.007 -0.5870 -0.4079 -0.5890
 2821SOL    HW2 9363   5.919   1.042  -0.009  1.1955 -1.8918  0.4921
 2822SOL     OW 9364   0.579   0.031   3.402 -0.0044 -0.0427 -0.3567
 2822SOL    HW1 9365   0.633   0.009   3.321  0.5451  0.7350 -0.2128
 2822SOL    HW2 9366   0.485   0.050   3.375 -0.4497 -2.2107 -0.5204
 2823SOL     OW 9367   0.365   1.115   1.291  0.4711 -0.7614  0.1554
 2823SOL    HW1 9368   0.286   1.134   1.232 -1.0098 -2.1490  1.5830
 2823SOL    HW2 9369   0.417   1.038   1.253 -1.0056 -2.2618  1.0494
 2824SOL     OW 9370   0.316   4.899   2.016  0.4142  0.4278 -0.0363
 2824SOL    HW1 9371   0.310   4.993   1.984  1.2725  0.4372 -0.1938
 2824SOL    HW2 9372   0.373   4.846   1.953 -0.1424 -0.2154  0.0013
 2825SOL     OW 9373   6.221   4.161   4.415  0.1113 -0.1040  0.4993
 2825SOL    HW1 9374   6.138   4.215   4.425  0.9080  1.3251 -0.3511
 2825SOL    HW2 9375   6.197   4.067   4.389 -1.2187  0.3564 -0.0016
 2826SOL     OW 9376   5.243   4.381   5.485 -0.6952 -0.0344  0.2957
 2826SOL    HW1 9377   5.195   4.320   5.549  1.7503 -0.9729  1.3669
 2826SOL    HW2 9378   5.314   4.330   5.438 -0.1037  1.4901 -0.5260
 2827SOL     OW 9379   2.954   2.173   1.124  0.2842  0.1628  0.1353
 2827SOL    HW1 9380   2.930   2.224   1.206 -1.6233  1.2002 -0.9831
 2827SOL    HW2 9381   2.874   2.121   1.093  0.8643  0.0354 -1.2076
 2828SOL     OW 9382   3.143   3.480   1.663 -0.1446  0.4729  0.1386
 2828SOL    HW1 9383   3.144   3.579   1.651 -1.4582  0.9375  3.1394
 2828SOL    HW2 9384   3.230   3.450   1.702 -0.6140  0.8600  1.5530
 2829SOL     OW 9385   0.857   5.715   5.875  0.3674 -0.0384 -0.0789
 2829SOL    HW1 9386   0.806   5.640   5.918 -0.2384 -0.2510 -1.1144
 2829SOL    HW2 9387   0.907   5.766   5.944 -0.8121 -0.1735  0.8981
 2830SOL     OW 9388   4.623   3.550   0.456  0.5090 -0.5080  0.2123
 2830SOL    HW1 9389   4.635   3.624   0.388  2.8618 -0.2957  0.7638
 2830SOL    HW2 9390   4.670   3.575   0.541 -1.0635 -1.4549  1.3992
 2831SOL     OW 9391   5.200   5.866   1.565 -0.0563  0.0829 -0.4472
 2831SOL    HW1 9392   5.167   5.851   1.472  1.0460 -0.9608 -0.6936
 2831SOL    HW2 9393   5.251   5.786   1.596  0.4409  0.8061  0.6860
 2832SOL     OW 9394   0.745   5.221   2.442 -0.2878  0.0098  0.6626
 2832SOL    HW1 9395   0.777   5.133   2.479  0.1529 -0.2071 -0.1974
 2832SOL    HW2 9396   0.646   5.226   2.448 -0.4611 -1.2331 -0.7095
 2833SOL     OW 9397   1.540   0.113   6.907 -0.1791 -0.1467  0.0842
 2833SOL    HW1 9398   1.496   0.089   6.993 -1.1107  1.4777  0.1047
 2833SOL    HW2 9399   1.471   0.120   6.835  0.5353 -1.0881 -0.7133
 2834SOL     OW 9400   6.516   2.078   5.076 -0.0378 -0.9079  0.1709
 2834SOL    HW1 9401   6.567   1.999   5.109  0.8968  0.0735  1.1418
 2834SOL    HW2 9402   6.516   2.079   4.976  0.2156 -1.9512  0.1574
 2835SOL     OW 9403   5.706   6.649   0.303 -0.3490 -0.1812 -0.0568
 2835SOL    HW1 9404   5.691   6.649   0.204 -2.7034  1.0863  0.2331
 2835SOL    HW2 9405   5.745   6.737   0.331 -1.3222  0.1605  0.2970
 2836SOL     OW 9406   3.380   1.142   1.454 -0.0727  0.0491 -0.2533
 2836SOL    HW1 9407   3.399   1.044   1.448 -0.1879  0.1312 -3.5544
 2836SOL    HW2 9408   3.308   1.157   1.522  1.5380 -1.8077  2.0534
 2837SOL     OW 9409   5.579   3.974   3.025 -0.2297 -0.1060 -0.4739
 2837SOL    HW1 9410   5.622   4.007   2.941  1.0277  1.4782  0.7279
 2837SOL    HW2 9411   5.645   3.921   3.078 -0.1316  1.1347  0.7201
 2838SOL     OW 9412   3.438   3.893   4.219  0.0204  0.2636 -0.1028
 2838SOL    HW1 9413   3.417   3.979   4.171  2.5876  0.8846 -0.2905
 2838SOL    HW2 9414   3.533   3.868   4.201 -0.3260 -2.0368  0.9156
 2839SOL     OW 9415   2.491   5.731   3.735 -0.4042  0.0945 -0.2617
 2839SOL    HW1 9416   2.493   5.661   3.664  4.7648  0.1239 -0.4942
 2839SOL    HW2 9417   2.480   5.821   3.692  0.5095 -0.0439 -0.7972
 2840SOL     OW 9418   2.609   5.670   6.590 -0.3542 -0.1153  0.2289
 2840SOL    HW1 9419   2.628   5.702   6.497  1.7772 -1.6291  0.0692
 2840SOL    HW2 9420   2.511   5.656   6.601 -0.8021  1.4115 -1.3195
 2841SOL     OW 9421   3.318   3.229   4.601  0.1622  0.3548 -0.3094
 2841SOL    HW1 9422   3.330   3.273   4.512 -1.7498 -0.1208 -0.8575
 2841SOL    HW2 9423   3.224   3.195   4.608 -0.1832  1.6639  2.4662
 2842SOL     OW 9424   6.064   4.739   0.267 -0.6557  0.5017 -0.5675
 2842SOL    HW1 9425   6.090   4.828   0.231 -0.6542  0.2082 -1.3078
 2842SOL    HW2 9426   5.989   4.750   0.332  0.4125  1.2165  0.5975
 2843SOL     OW 9427   1.445   5.264   3.951  0.3639  0.2247 -0.2251
 2843SOL    HW1 9428   1.431   5.360   3.926  2.2988 -0.1635 -3.3530
 2843SOL    HW2 9429   1.374   5.208   3.908 -0.4254  0.1377  1.1294
 2844SOL     OW 9430   3.917   5.712   3.323 -0.0792 -0.4120  0.4357
 2844SOL    HW1 9431   3.965   5.677   3.404 -0.8554  1.1293  1.6325
 2844SOL    HW2 9432   3.825   5.672   3.320  0.6032 -2.0210 -0.8794
 2845SOL     OW 9433   2.261   1.044   5.544 -0.2076 -0.6244  0.1024
 2845SOL    HW1 9434   2.171   1.066   5.506 -0.3921  2.2600  1.9149
 2845SOL    HW2 9435   2.260   0.951   5.579 -2.6860 -0.5349  0.4979
 2846SOL     OW 9436   4.119   2.663   6.573  0.6493 -0.0663  0.8708
 2846SOL    HW1 9437   4.032   2.625   6.542  1.0046 -1.8018  1.9106
 2846SOL    HW2 9438   4.116   2.763   6.563 -0.5198 -0.2483 -1.4091
 2847SOL     OW 9439   2.479   1.588   3.575  0.5946  0.2351  0.2630
 2847SOL    HW1 9440   2.552   1.656   3.583 -0.0635  0.8855  0.9765
 2847SOL    HW2 9441   2.435   1.576   3.664  0.8042 -1.2746  0.2058
 2848SOL     OW 9442   1.250   1.610   4.374 -0.0776  0.3951  0.6184
 2848SOL    HW1 9443   1.228   1.704   4.401 -0.8929  0.5715 -0.5603
 2848SOL    HW2 9444   1.241   1.601   4.275 -0.2535 -0.9856  0.7365
 2849SOL     OW 9445   1.800   3.772   1.920 -0.0136  0.2444 -0.1012
 2849SOL    HW1 9446   1.827   3.850   1.976  1.3431 -0.0111 -0.3855
 2849SOL    HW2 9447   1.880   3.732   1.876 -0.7748 -0.9068 -0.4920
 2850SOL     OW 9448   7.017   6.108   3.956  0.4997  0.1182  0.2255
 2850SOL    HW1 9449   6.981   6.099   3.863 -0.0876  1.5927  0.2706
 2850SOL    HW2 9450   7.103   6.160   3.954  1.1158 -0.8600  0.4112
 2851SOL     OW 9451   5.998   2.048   4.753 -0.2063 -0.2063  0.2082
 2851SOL    HW1 9452   6.045   1.982   4.812  0.3690 -0.0749 -0.0953
 2851SOL    HW2 9453   6.011   2.023   4.657 -1.7510 -0.8244  0.1408
 2852SOL     OW 9454   5.147   0.066   2.885  0.3927 -0.6630  0.7880
 2852SOL    HW1 9455   5.169  -0.026   2.855 -2.0907 -1.5376  1.4396
 2852SOL    HW2 9456   5.099   0.063   2.973 -2.3732  0.9442 -0.5219
 2853SOL     OW 9457   6.634   2.528   1.721  0.3534  0.2142 -0.5701
 2853SOL    HW1 9458   6.606   2.542   1.626 -2.9883  0.7842  0.3332
 2853SOL    HW2 9459   6.632   2.616   1.769 -0.9115 -0.4092  0.6119
 2854SOL     OW 9460   0.952   1.555   1.794  0.0861 -0.0172 -0.1266
 2854SOL    HW1 9461   0.925   1.650   1.804  0.8494  0.1555  0.3461
 2854SOL    HW2 9462   0.891   1.509   1.729 -1.5943  0.2450  1.2297
 2855SOL     OW 9463   6.962   1.469   5.585 -0.0510 -0.2061  0.6614
 2855SOL    HW1 9464   6.967   1.432   5.678  0.6009 -2.4913 -0.2093
 2855SOL    HW2 9465   6.885   1.532   5.578 -3.1543 -3.5888  1.6197
 2856SOL     OW 9466   6.329   6.663   5.993  0.0737  0.7336  0.1156
 2856SOL    HW1 9467   6.293   6.630   6.081  0.2888  1.0308  0.3160
 2856SOL    HW2 9468   6.290   6.608   5.919  1.5511 -0.9667  0.5363
 2857SOL     OW 9469   3.216   2.829   1.383 -0.3025 -0.2924  0.1157
 2857SOL    HW1 9470   3.237   2.925   1.403 -0.3821 -0.1324 -0.5428
 2857SOL    HW2 9471   3.167   2.823   1.296 -1.3423 -0.8247  0.7148
 2858SOL     OW 9472   0.454   2.179   6.361 -0.8221  0.2763 -0.7148
 2858SOL    HW1 9473   0.398   2.218   6.288  0.3652 -1.0162 -2.3995
 2858SOL    HW2 9474   0.435   2.081   6.368 -0.8721  0.3751  0.6998
 2859SOL     OW 9475   5.224   2.567   1.418  0.4056 -0.6930 -0.1186
 2859SOL    HW1 9476   5.167   2.520   1.350  0.4798  1.6556 -1.9088
 2859SOL    HW2 9477   5.167   2.619   1.481  0.4657  0.9460 -1.3665
 2860SOL     OW 9478   6.733   5.724   3.935 -0.3402 -0.3781 -0.1666
 2860SOL    HW1 9479   6.686   5.812   3.938 -0.6340 -0.5140 -0.6261
 2860SOL    HW2 9480   6.831   5.739   3.930 -0.2010 -0.0910  2.2607
 2861SOL     OW 9481   6.448   2.683   0.855 -0.3917  0.4999  0.2284
 2861SOL    HW1 9482   6.361   2.728   0.877 -0.5895  0.9561 -1.3541
 2861SOL    HW2 9483   6.432   2.587   0.834 -0.6949  0.8313 -1.1222
 2862SOL     OW 9484   0.759   5.961   5.823 -0.4724 -0.2706 -0.1470
 2862SOL    HW1 9485   0.805   5.873   5.821  1.0490  0.2844  2.9830
 2862SOL    HW2 9486   0.662   5.947   5.841 -0.5062 -1.3319 -1.0809
 2863SOL     OW 9487   1.832   4.464   4.532  0.1252  0.2269 -0.0696
 2863SOL    HW1 9488   1.859   4.383   4.584 -3.9054 -1.3943 -0.1638
 2863SOL    HW2 9489   1.793   4.532   4.594  1.1651  1.0758 -0.3092
 2864SOL     OW 9490   4.016   5.463   1.227 -0.6846 -0.1430  0.0840
 2864SOL    HW1 9491   4.011   5.553   1.184 -2.8268 -0.4254 -0.3400
 2864SOL    HW2 9492   4.108   5.426   1.216  0.3836  2.1592  0.6735
 2865SOL     OW 9493   3.828   6.890   1.382  0.0893 -0.0041  0.6462
 2865SOL    HW1 9494   3.808   6.982   1.414 -1.7241 -0.4468  0.8843
 2865SOL    HW2 9495   3.744   6.837   1.376  1.2436 -2.1604  2.0494
 2866SOL     OW 9496   5.479   1.982   5.101 -0.0105 -0.1595 -0.1913
 2866SOL    HW1 9497   5.533   2.062   5.126 -0.3478  0.1159 -0.3240
 2866SOL    HW2 9498   5.418   1.958   5.177  0.3765 -0.5426  0.0050
 2867SOL     OW 9499   4.542   6.286   1.888 -0.3163  0.3571 -0.4360
 2867SOL    HW1 9500   4.581   6.284   1.980 -0.2122  1.4055 -0.4450
 2867SOL    HW2 9501   4.444   6.305   1.893 -1.1278 -3.2260 -0.3557
 2868SOL     OW 9502   5.640   2.570   6.615 -0.4330  0.2614  0.2247
 2868SOL    HW1 9503   5.560   2.577   6.557 -1.2614  1.9805  1.4846
 2868SOL    HW2 9504   5.661   2.473   6.631 -1.7142 -0.2228 -0.8111
 2869SOL     OW 9505   1.624   0.996   2.090 -0.3818  0.1275 -0.1304
 2869SOL    HW1 9506   1.686   1.000   2.012  0.9331  0.1213  0.8722
 2869SOL    HW2 9507   1.605   0.900   2.112 -1.3038  0.1334 -0.8378
 2870SOL     OW 9508   1.694   6.013   3.251 -0.3098  0.0232  0.2996
 2870SOL    HW1 9509   1.644   6.005   3.337 -1.1798  2.2606  0.0594
 2870SOL    HW2 9510   1.753   5.933   3.240  0.4371  0.0285  3.3393
 2871SOL     OW 9511   2.387   6.852   6.115  0.5739  0.2215  0.1871
 2871SOL    HW1 9512   2.302   6.891   6.078  0.2499  0.5052  1.1915
 2871SOL    HW2 9513   2.392   6.755   6.093  0.1052  0.2585 -0.0913
 2872SOL     OW 9514   4.223   5.785   1.965 -0.4744 -0.6031 -0.1758
 2872SOL    HW1 9515   4.319   5.773   1.940 -0.5758 -2.0096  0.0304
 2872SOL    HW2 9516   4.182   5.856   1.908  0.6949  0.0468 -0.2229
 2873SOL     OW 9517   2.361   2.753   4.912 -0.0544 -0.0842  0.7073
 2873SOL    HW1 9518   2.301   2.803   4.850 -0.0850  0.1238  0.9042
 2873SOL    HW2 9519   2.405   2.817   4.975 -0.5026 -0.3635  1.3139
 2874SOL     OW 9520   2.746   5.979   3.839 -0.5084 -0.1039  0.2399
 2874SOL    HW1 9521   2.677   5.948   3.773 -0.6716 -1.0394  0.8334
 2874SOL    HW2 9522   2.829   5.926   3.828  0.0170  0.7844 -0.2322
 2875SOL     OW 9523   3.065   0.702   4.003  0.1407 -0.4917  0.0611
 2875SOL    HW1 9524   3.065   0.777   4.069 -0.9066 -0.8481  0.4925
 2875SOL    HW2 9525   2.977   0.701   3.954  1.1128  0.1457 -1.8011
 2876SOL     OW 9526   0.833   1.113   3.903 -0.6175 -0.0582 -0.3403
 2876SOL    HW1 9527   0.826   1.176   3.981 -1.6321 -0.2343 -0.2750
 2876SOL    HW2 9528   0.918   1.131   3.854 -1.7629  2.7958 -1.5441
 2877SOL     OW 9529   4.756   0.569   6.314  0.2208  0.2028  0.6380
 2877SOL    HW1 9530   4.728   0.665   6.309 -0.7580 -0.1071 -0.0655
 2877SOL    HW2 9531   4.683   0.511   6.278  0.3859 -0.8827  1.9624
 2878SOL     OW 9532   6.887   6.858   4.552 -0.2863  0.3283  0.4161
 2878SOL    HW1 9533   6.893   6.790   4.625 -0.1814 -1.2116 -0.9825
 2878SOL    HW2 9534   6.815   6.833   4.488  1.5117  0.0326 -1.5914
 2879SOL     OW 9535   6.140   5.757   5.336  0.5592  0.4743 -0.4036
 2879SOL    HW1 9536   6.090   5.734   5.420 -0.4804  2.0201 -0.5413
 2879SOL    HW2 9537   6.226   5.707   5.333  0.4306  0.0784  1.3976
 2880SOL     OW 9538   5.733   1.897   5.279  0.2282  0.6226 -0.1899
 2880SOL    HW1 9539   5.709   1.898   5.376  0.7309  0.3917 -0.0563
 2880SOL    HW2 9540   5.729   1.990   5.243  1.3313  0.9282  0.4005
 2881SOL     OW 9541   1.119   1.789   6.653 -0.1213  0.2716 -0.1881
 2881SOL    HW1 9542   1.076   1.720   6.595  0.0362  1.5110 -1.8359
 2881SOL    HW2 9543   1.113   1.760   6.748 -0.0063 -2.0543 -0.8075
 2882SOL     OW 9544   2.833   3.978   0.601  0.2753 -0.1933  0.5104
 2882SOL    HW1 9545   2.823   4.058   0.659  0.5203 -0.0881  0.4084
 2882SOL    HW2 9546   2.813   4.003   0.506 -0.0406 -0.3451  0.5362
 2883SOL     OW 9547   6.806   5.540   3.240 -0.1516 -0.4511 -0.4770
 2883SOL    HW1 9548   6.871   5.475   3.201  0.9648  0.6023 -0.4630
 2883SOL    HW2 9549   6.713   5.515   3.215  0.3873 -0.9722 -2.0530
 2884SOL     OW 9550   4.071   6.984   5.488  0.4114 -0.3281  0.1094
 2884SOL    HW1 9551   4.083   6.982   5.388  1.2871 -0.0055  0.2071
 2884SOL    HW2 9552   4.002   7.053   5.511  0.3335 -0.2807 -0.2526
 2885SOL     OW 9553   5.279   5.817   4.350  0.3369  0.2138  0.3561
 2885SOL    HW1 9554   5.239   5.907   4.332  1.5942  0.9160  0.8854
 2885SOL    HW2 9555   5.299   5.772   4.263 -0.3023  0.4437  0.0842
 2886SOL     OW 9556   5.867   3.332   2.559  0.4325 -0.1029  0.3979
 2886SOL    HW1 9557   5.917   3.364   2.479  2.7429  0.0494  1.8134
 2886SOL    HW2 9558   5.786   3.389   2.574 -0.9332 -1.0492 -2.6079
 2887SOL     OW 9559   1.990   6.683   2.178  0.3232 -0.0450 -0.2161
 2887SOL    HW1 9560   1.928   6.762   2.183 -0.0001 -0.2526 -0.9082
 2887SOL    HW2 9561   1.955   6.610   2.236 -1.0484 -0.8182 -1.9651
 2888SOL     OW 9562   0.704   2.879   1.117  0.3149 -0.4924 -0.8783
 2888SOL    HW1 9563   0.740   2.918   1.202 -0.8404 -0.0764 -0.5607
 2888SOL    HW2 9564   0.748   2.923   1.039  0.7340 -0.2348 -0.5032
 2889SOL     OW 9565   0.449   1.806   2.613 -0.0501  0.3430  0.0000
 2889SOL    HW1 9566   0.523   1.844   2.669 -0.3535 -0.5330  1.0169
 2889SOL    HW2 9567   0.418   1.720   2.652  0.6102 -0.9919 -2.2613
 2890SOL     OW 9568   6.823   5.368   1.252 -0.2095  0.0877  0.0220
 2890SOL    HW1 9569   6.793   5.273   1.263 -1.6179  0.6375  1.2915
 2890SOL    HW2 9570   6.771   5.411   1.179  0.7503 -0.2139 -0.8672
 2891SOL     OW 9571   4.068   6.444   1.441 -0.6759 -0.3597  0.4024
 2891SOL    HW1 9572   4.024   6.407   1.358  0.1350  0.9236 -0.6489
 2891SOL    HW2 9573   4.150   6.495   1.415  1.7133 -2.9340  2.3254
 2892SOL     OW 9574   1.599   5.254   5.646 -0.1300 -0.8935  0.7849
 2892SOL    HW1 9575   1.669   5.220   5.708  2.1074  1.5061 -0.2506
 2892SOL    HW2 9576   1.523   5.293   5.700  0.7291 -0.8289  1.9934
 2893SOL     OW 9577   2.021   4.398   3.408  0.2618  0.0934  0.4134
 2893SOL    HW1 9578   1.943   4.452   3.379  1.2078  0.9605 -0.6087
 2893SOL    HW2 9579   2.102   4.457   3.415  0.8538 -0.7840  1.3992
 2894SOL     OW 9580   0.326   3.178   5.606 -0.1473 -0.2724 -0.4787
 2894SOL    HW1 9581   0.272   3.251   5.562 -0.9316 -1.1413 -0.9917
 2894SOL    HW2 9582   0.266   3.122   5.663  0.1453 -1.3889 -1.2370
 2895SOL     OW 9583   4.216   3.250   1.867  0.1804 -0.2279  0.0720
 2895SOL    HW1 9584   4.125   3.214   1.887 -0.2710  0.8261 -0.0252
 2895SOL    HW2 9585   4.275   3.236   1.947 -0.4310  0.2269  0.6204
 2896SOL     OW 9586   1.759   5.695   6.694 -0.4662 -0.4622  0.1034
 2896SOL    HW1 9587   1.659   5.698   6.701 -0.4676 -0.1695 -0.0168
 2896SOL    HW2 9588   1.799   5.747   6.769 -0.4998  3.4947 -2.3161
 2897SOL     OW 9589   4.462   6.030   5.188  0.2348  0.0451 -0.5053
 2897SOL    HW1 9590   4.525   5.971   5.239 -0.3392  0.8264  1.1964
 2897SOL    HW2 9591   4.370   5.991   5.190 -0.3394  1.3312  1.3980
 2898SOL     OW 9592   4.448   0.574   6.516 -0.6568 -0.2909 -0.3613
 2898SOL    HW1 9593   4.398   0.491   6.538 -1.3204  0.2119  0.0402
 2898SOL    HW2 9594   4.403   0.622   6.440  0.7768 -1.2441 -1.9024
 2899SOL     OW 9595   6.377   4.558   4.764 -0.6032 -0.1893 -0.2742
 2899SOL    HW1 9596   6.305   4.621   4.738  0.1990  0.8322 -0.0654
 2899SOL    HW2 9597   6.425   4.526   4.683 -2.3977 -2.3108 -0.6127
 2900SOL     OW 9598   2.992   3.796   3.120  0.1062  0.5340  0.8015
 2900SOL    HW1 9599   2.906   3.846   3.125 -0.6603 -0.7757  1.2958
 2900SOL    HW2 9600   2.996   3.730   3.195  2.0824  1.3643  1.4987
 2901SOL     OW 9601   4.574   2.170   0.319  0.0775  0.1937  0.1868
 2901SOL    HW1 9602   4.629   2.129   0.393 -0.9839  0.5585  1.2059
 2901SOL    HW2 9603   4.517   2.100   0.277  1.3048 -0.1927 -0.8935
 2902SOL     OW 9604   5.894   2.696   3.484 -0.1412  0.4047 -0.2487
 2902SOL    HW1 9605   5.818   2.746   3.525 -0.8232  1.0878 -2.2397
 2902SOL    HW2 9606   5.977   2.710   3.539 -1.6376 -1.4619  2.7380
 2903SOL     OW 9607   1.815   1.993   0.913 -0.1758 -0.3715 -0.0593
 2903SOL    HW1 9608   1.768   2.045   0.841  0.5365  0.7261  0.2501
 2903SOL    HW2 9609   1.906   1.966   0.880 -0.0740 -0.3663  0.2183
 2904SOL     OW 9610   1.536   6.426   4.924 -0.2299 -0.0039  0.2390
 2904SOL    HW1 9611   1.516   6.512   4.878 -1.1092  0.5481  1.5890
 2904SOL    HW2 9612   1.602   6.442   4.997 -0.6419 -0.4055  0.7063
 2905SOL     OW 9613   4.895   1.637   5.518 -0.7565  0.4983 -0.0129
 2905SOL    HW1 9614   4.909   1.721   5.466 -0.7754 -0.0791 -0.9762
 2905SOL    HW2 9615   4.797   1.625   5.536 -0.6075  1.5813  1.6929
 2906SOL     OW 9616   0.030   5.521   1.116  0.7699  0.1251 -0.4295
 2906SOL    HW1 9617   0.116   5.539   1.069  0.4615 -0.1211 -1.1129
 2906SOL    HW2 9618   0.037   5.436   1.168  1.5255  1.0553  1.0284
 2907SOL     OW 9619   2.041   1.028   0.851  0.4644 -0.3649 -0.3876
 2907SOL    HW1 9620   2.039   1.095   0.926  1.0500 -1.1521  0.3461
 2907SOL    HW2 9621   2.009   0.939   0.885 -1.6149 -0.1764 -1.6771
 2908SOL     OW 9622   4.757   0.711   2.717 -0.1405 -0.4626 -0.1403
 2908SOL    HW1 9623   4.715   0.785   2.768  2.1346  0.5886  0.3470
 2908SOL    HW2 9624   4.747   0.727   2.619 -1.9606 -0.9424 -0.0539
 2909SOL     OW 9625   0.124   7.020   0.595 -0.2917 -0.8493  0.0504
 2909SOL    HW1 9626   0.029   7.048   0.579  0.4266  1.3526 -0.7529
 2909SOL    HW2 9627   0.175   7.023   0.509  0.8539 -0.5531  0.7117
 2910SOL     OW 9628   1.457   1.242   5.263 -0.1461 -0.6183  0.0932
 2910SOL    HW1 9629   1.358   1.243   5.257 -0.2588 -0.8342  1.4861
 2910SOL    HW2 9630   1.496   1.302   5.193 -1.1335 -2.2326 -1.9393
 2911SOL     OW 9631   3.986   1.485   4.039 -0.5671 -0.1419  0.0974
 2911SOL    HW1 9632   4.000   1.387   4.028  0.2513  0.0186 -0.3764
 2911SOL    HW2 9633   4.017   1.514   4.130  0.7763 -0.0622 -0.3573
 2912SOL     OW 9634   6.588   0.238   6.818  0.0655 -0.6335  0.5542
 2912SOL    HW1 9635   6.658   0.300   6.782 -0.7309  0.6796  1.1733
 2912SOL    HW2 9636   6.630   0.150   6.841  1.3879 -0.0858  0.3530
 2913SOL     OW 9637   6.647   1.575   3.391 -0.0520 -0.1376  0.4155
 2913SOL    HW1 9638   6.593   1.530   3.320 -0.0958 -0.2091  0.4943
 2913SOL    HW2 9639   6.703   1.508   3.438 -1.0468 -0.3303  1.3701
 2914SOL     OW 9640   1.435   1.972   0.600  0.3829 -0.0149 -0.4880
 2914SOL    HW1 9641   1.338   1.992   0.585  0.8814  2.6279 -0.6238
 2914SOL    HW2 9642   1.466   1.904   0.534 -0.7204  1.1989 -2.3261
 2915SOL     OW 9643   4.906   3.016   4.734 -0.1558  0.2415  0.2048
 2915SOL    HW1 9644   4.918   3.097   4.677 -1.8384  0.9615  0.8137
 2915SOL    HW2 9645   4.857   2.946   4.682  1.6966 -0.6245 -0.4783
 2916SOL     OW 9646   2.326   5.391   5.010 -0.2676 -0.0450 -0.1620
 2916SOL    HW1 9647   2.250   5.431   4.959  0.0816  0.0798 -0.5956
 2916SOL    HW2 9648   2.319   5.416   5.107  0.5402  2.0238 -0.5895
 2917SOL     OW 9649   0.814   3.351   3.403  0.4314  0.5374  0.1901
 2917SOL    HW1 9650   0.823   3.322   3.308 -1.8183 -0.6661  0.2838
 2917SOL    HW2 9651   0.859   3.285   3.462  0.9279  0.7381  0.0468
 2918SOL     OW 9652   4.579   3.719   6.293  0.0193  0.5634 -0.0181
 2918SOL    HW1 9653   4.625   3.691   6.377 -1.8012 -3.2895 -0.0898
 2918SOL    HW2 9654   4.638   3.699   6.214 -0.6115 -1.9075  0.0537
 2919SOL     OW 9655   1.443   6.444   1.528  0.4729 -0.0937 -0.8650
 2919SOL    HW1 9656   1.391   6.529   1.523 -3.2221 -2.1669 -1.9888
 2919SOL    HW2 9657   1.535   6.458   1.490 -0.9417  2.7483 -3.6660
 2920SOL     OW 9658   2.647   7.011   0.589  0.8391  0.1373 -0.0508
 2920SOL    HW1 9659   2.624   6.948   0.663 -0.3115  1.6025  0.9026
 2920SOL    HW2 9660   2.724   7.068   0.616  2.1310 -1.0485 -1.0619
 2921SOL     OW 9661   4.075   2.982   5.330  0.1544  0.5977  0.1933
 2921SOL    HW1 9662   3.988   2.937   5.310  0.8507 -0.5018 -0.4702
 2921SOL    HW2 9663   4.064   3.081   5.322 -1.5812  0.6526  2.3494
 2922SOL     OW 9664   2.488   6.401   5.068  0.4659 -0.4791 -0.1543
 2922SOL    HW1 9665   2.493   6.453   4.983 -0.2493  0.4543  0.3569
 2922SOL    HW2 9666   2.551   6.442   5.135  1.9608 -1.9449 -0.5799
 2923SOL     OW 9667   6.145   4.842   2.573 -0.5745 -0.4375  0.0491
 2923SOL    HW1 9668   6.234   4.800   2.589 -0.4580  0.2110  1.2215
 2923SOL    HW2 9669   6.128   4.847   2.474  1.9582  1.9448 -0.4015
 2924SOL     OW 9670   5.357   5.316   6.341 -0.2378  0.3060  0.1465
 2924SOL    HW1 9671   5.337   5.305   6.244  0.7652 -0.3049 -0.0021
 2924SOL    HW2 9672   5.387   5.229   6.379  0.0227  0.6920  0.8514
 2925SOL     OW 9673   6.248   3.935   5.601 -0.0292  0.6683 -0.0267
 2925SOL    HW1 9674   6.194   3.996   5.544 -0.4538  1.7058  1.4316
 2925SOL    HW2 9675   6.296   3.869   5.543 -1.0088  1.2083 -1.5072
 2926SOL     OW 9676   0.526   3.868   3.033 -0.4317  0.8046 -0.2658
 2926SOL    HW1 9677   0.576   3.949   3.066  0.9325 -0.2708  0.3991
 2926SOL    HW2 9678   0.511   3.877   2.934 -0.0477  1.7414 -0.2566
 2927SOL     OW 9679   0.329   1.739   4.590  0.1661 -0.1998 -0.0807
 2927SOL    HW1 9680   0.422   1.770   4.570  1.3855 -0.9789  3.5414
 2927SOL    HW2 9681   0.330   1.641   4.608 -1.0413  0.0190  1.3525
 2928SOL     OW 9682   6.867   6.767   2.922 -0.0295  0.4966 -0.4594
 2928SOL    HW1 9683   6.791   6.710   2.891 -2.1159  2.4208  0.8304
 2928SOL    HW2 9684   6.850   6.862   2.897  0.7415  1.3368  1.9547
 2929SOL     OW 9685   3.475   4.926   3.914 -0.5055 -0.8352 -0.3169
 2929SOL    HW1 9686   3.435   4.898   3.826  0.2357 -2.3803 -0.1939
 2929SOL    HW2 9687   3.566   4.887   3.923  0.2654  0.9781  0.2885
 2930SOL     OW 9688   2.256   3.896   0.775  0.2265 -0.0016 -0.3312
 2930SOL    HW1 9689   2.182   3.834   0.799 -1.0470  1.3865 -0.4812
 2930SOL    HW2 9690   2.344   3.848   0.782 -0.8355 -2.8139 -3.6771
 2931SOL     OW 9691   6.858   2.114   2.063  0.3657 -0.0656 -0.6860
 2931SOL    HW1 9692   6.910   2.067   1.992  0.2392  0.6138 -1.2368
 2931SOL    HW2 9693   6.761   2.097   2.051  0.3016  0.5088 -1.0264
 2932SOL     OW 9694   4.731   1.034   4.604  0.1918  0.1078 -0.4145
 2932SOL    HW1 9695   4.788   1.091   4.546  0.6571 -1.1611 -1.2437
 2932SOL    HW2 9696   4.769   1.031   4.697  1.6078 -0.8451 -0.9941
 2933SOL     OW 9697   2.392   2.473   0.425 -0.1069 -0.2832  0.5143
 2933SOL    HW1 9698   2.482   2.437   0.400  0.1026 -0.8713  1.9872
 2933SOL    HW2 9699   2.340   2.402   0.473 -0.2892  0.8612  2.0832
 2934SOL     OW 9700   6.472   1.102   5.807 -0.5767  0.1470 -0.1519
 2934SOL    HW1 9701   6.520   1.111   5.720  0.4337 -0.2536  0.3380
 2934SOL    HW2 9702   6.496   1.178   5.867  1.6532 -1.3839  1.0728
 2935SOL     OW 9703   5.255   3.373   6.671 -0.5489  0.1013  0.1617
 2935SOL    HW1 9704   5.240   3.471   6.658  1.4240  0.2737 -1.4058
 2935SOL    HW2 9705   5.181   3.322   6.627 -0.7087  0.8930 -0.5192
 2936SOL     OW 9706   3.674   5.169   3.832  0.4818  0.1203 -0.2260
 2936SOL    HW1 9707   3.742   5.228   3.873 -1.4135  1.5224  1.0797
 2936SOL    HW2 9708   3.582   5.200   3.859 -0.6418 -3.4333  0.6122
 2937SOL     OW 9709   1.499   3.025   3.511 -0.2835 -0.1741 -0.7779
 2937SOL    HW1 9710   1.568   3.020   3.583 -1.1393  2.9091  0.3842
 2937SOL    HW2 9711   1.532   3.081   3.436 -2.0271  2.9333  0.6070
 2938SOL     OW 9712   0.423   4.922   6.998  0.4260 -0.4388 -0.1886
 2938SOL    HW1 9713   0.360   4.996   6.975 -0.0233 -0.4506  0.9528
 2938SOL    HW2 9714   0.389   4.872   7.077  1.5904 -0.7996  0.1092
 2939SOL     OW 9715   1.997   3.422   1.150  0.0358 -0.1859 -0.4912
 2939SOL    HW1 9716   2.038   3.493   1.094  2.0813 -1.8328 -1.1991
 2939SOL    HW2 9717   2.028   3.332   1.119 -2.9449 -1.4851 -0.0388
 2940SOL     OW 9718   4.823   2.460   0.551 -0.4566 -0.1737 -0.3920
 2940SOL    HW1 9719   4.910   2.418   0.576 -0.5866  0.3274  0.9744
 2940SOL    HW2 9720   4.752   2.428   0.614 -1.4304 -1.0995 -1.8887
 2941SOL     OW 9721   5.496   5.480   0.072  0.4493  0.2939  0.4877
 2941SOL    HW1 9722   5.420   5.417   0.092  1.4077 -0.6692  1.2568
 2941SOL    HW2 9723   5.527   5.521   0.158 -0.2566  1.9759 -0.0252
 2942SOL     OW 9724   6.777   0.812   2.782 -0.7376 -0.7565 -0.2372
 2942SOL    HW1 9725   6.786   0.713   2.796 -0.5170 -0.7017  0.0157
 2942SOL    HW2 9726   6.735   0.829   2.693 -0.5898 -1.0732 -0.3693
 2943SOL     OW 9727   6.709   5.918   2.475 -0.7367  0.4944 -0.8443
 2943SOL    HW1 9728   6.611   5.941   2.474 -0.8891  0.0559  0.7234
 2943SOL    HW2 9729   6.758   5.978   2.413 -1.7853  1.7935 -0.4564
 2944SOL     OW 9730   2.426   4.993   6.871 -0.6687  0.0535  0.3825
 2944SOL    HW1 9731   2.487   5.072   6.862 -1.7549  0.8489 -0.1693
 2944SOL    HW2 9732   2.392   4.988   6.965  1.5154 -1.3964  1.1909
 2945SOL     OW 9733   6.745   0.458   1.457 -0.1827  0.3522 -0.5925
 2945SOL    HW1 9734   6.683   0.399   1.405 -0.0624  0.9066 -1.3739
 2945SOL    HW2 9735   6.828   0.474   1.404  0.0709  0.6854 -0.1008
 2946SOL     OW 9736   3.649   3.528   0.263 -0.8963 -0.2912 -0.4584
 2946SOL    HW1 9737   3.712   3.537   0.340 -1.3028 -0.0405 -0.1548
 2946SOL    HW2 9738   3.701   3.506   0.180 -0.2503  1.2638 -0.4951
 2947SOL     OW 9739   1.961   4.871   5.616  0.1631  0.4905  0.1249
 2947SOL    HW1 9740   1.864   4.859   5.599  0.7244 -1.2522 -2.5329
 2947SOL    HW2 9741   1.988   4.964   5.589 -0.6360  0.7337  0.1505
 2948SOL     OW 9742   1.820   4.530   3.253  0.0823  0.4694 -0.2677
 2948SOL    HW1 9743   1.872   4.479   3.185 -0.2265 -0.1385 -0.0616
 2948SOL    HW2 9744   1.732   4.557   3.215  0.0904  0.5211 -0.2503
 2949SOL     OW 9745   4.899   4.119   1.946 -0.2540 -0.1009 -0.2864
 2949SOL    HW1 9746   4.905   4.216   1.925 -1.1440 -0.0912 -0.5667
 2949SOL    HW2 9747   4.836   4.105   2.022 -0.7952 -0.5124 -0.7954
 2950SOL     OW 9748   3.324   3.083   5.416 -0.3092  0.5780 -0.0205
 2950SOL    HW1 9749   3.323   3.000   5.361 -1.3700 -0.5731  1.6416
 2950SOL    HW2 9750   3.246   3.082   5.479  0.8305  1.8324  1.4887
 2951SOL     OW 9751   2.162   6.343   6.679  0.8126 -0.0121 -0.2365
 2951SOL    HW1 9752   2.132   6.329   6.585 -0.5732 -0.7610  0.2940
 2951SOL    HW2 9753   2.166   6.255   6.726  1.4635  0.3576  0.4283
 2952SOL     OW 9754   5.702   6.825   2.786  0.7301  0.0875  0.0645
 2952SOL    HW1 9755   5.695   6.881   2.703  0.3816 -0.0163  0.0217
 2952SOL    HW2 9756   5.719   6.884   2.865  0.9264  0.1989 -0.0588
 2953SOL     OW 9757   0.607   0.398   3.671  0.3565  0.1957  0.2791
 2953SOL    HW1 9758   0.604   0.441   3.581  0.2552  1.2316  0.7713
 2953SOL    HW2 9759   0.651   0.308   3.663  0.2076  0.2060 -0.8227
 2954SOL     OW 9760   0.260   2.577   4.543  0.5589 -0.4333  0.1857
 2954SOL    HW1 9761   0.182   2.518   4.564 -0.8987  1.2382 -0.2610
 2954SOL    HW2 9762   0.301   2.549   4.456  0.0582 -0.9216  0.1009
 2955SOL     OW 9763   3.120   3.138   3.959  0.0478 -0.6451  0.6057
 2955SOL    HW1 9764   3.177   3.060   3.986 -1.2625 -1.6157  0.6738
 2955SOL    HW2 9765   3.079   3.178   4.041 -0.8478 -1.1475  0.4154
 2956SOL     OW 9766   2.235   3.700   5.640  0.1380 -0.2110  1.0135
 2956SOL    HW1 9767   2.327   3.682   5.607 -0.4251 -1.1749 -0.1162
 2956SOL    HW2 9768   2.239   3.750   5.726  1.6915  0.4788  0.5621
 2957SOL     OW 9769   0.928   2.392   5.819 -0.4987 -0.1619  0.4683
 2957SOL    HW1 9770   0.843   2.390   5.871 -1.9116  0.0656 -1.7260
 2957SOL    HW2 9771   0.916   2.447   5.736  2.2579  1.1576  0.8338
 2958SOL     OW 9772   5.803   3.446   1.624 -0.3254  0.0887 -0.3819
 2958SOL    HW1 9773   5.895   3.410   1.640  0.6867  2.5906 -0.0929
 2958SOL    HW2 9774   5.771   3.493   1.707 -2.3960 -1.7071 -0.0779
 2959SOL     OW 9775   4.667   0.275   4.742 -0.0848 -0.1747 -0.0352
 2959SOL    HW1 9776   4.634   0.366   4.769  1.7122  0.4506  0.2035
 2959SOL    HW2 9777   4.692   0.276   4.645  2.8875  0.5948  0.6382
 2960SOL     OW 9778   4.977   3.144   0.687  0.5321 -0.6111  0.2313
 2960SOL    HW1 9779   4.909   3.079   0.652  1.1353 -0.0444 -2.2250
 2960SOL    HW2 9780   5.060   3.094   0.714 -0.4968 -1.2214  2.5071
 2961SOL     OW 9781   2.264   4.819   3.149  0.0455  0.1828  0.3089
 2961SOL    HW1 9782   2.214   4.905   3.158  1.3180  0.9524  0.4012
 2961SOL    HW2 9783   2.315   4.802   3.233 -0.8637 -1.1286  0.6180
 2962SOL     OW 9784   4.725   2.807   2.997  0.1332 -0.4970  0.5449
 2962SOL    HW1 9785   4.695   2.800   3.092 -1.3654 -0.3586  0.1064
 2962SOL    HW2 9786   4.728   2.716   2.956 -2.9722 -0.3317 -0.3246
 2963SOL     OW 9787   4.990   1.212   4.218 -0.4750  0.7905 -0.2107
 2963SOL    HW1 9788   5.089   1.205   4.211 -0.2395  2.2823  0.9001
 2963SOL    HW2 9789   4.950   1.218   4.127  0.3882 -0.3713 -0.6850
 2964SOL     OW 9790   2.477   0.817   1.443  0.8811 -0.2894  0.0566
 2964SOL    HW1 9791   2.466   0.763   1.527  0.2900  0.8588  0.7392
 2964SOL    HW2 9792   2.421   0.899   1.448  1.2331  0.0611 -1.2597
 2965SOL     OW 9793   6.645   5.937   0.626 -0.1138  0.3568 -0.0669
 2965SOL    HW1 9794   6.555   5.919   0.585 -0.3937  2.3392 -0.4190
 2965SOL    HW2 9795   6.708   5.969   0.555  0.8126 -0.7438  0.2342
 2966SOL     OW 9796   3.086   6.645   3.344 -0.3537  0.3107 -0.3349
 2966SOL    HW1 9797   3.093   6.577   3.418 -0.0852 -0.4594 -1.0535
 2966SOL    HW2 9798   3.155   6.716   3.358  0.9181 -0.7957 -0.8057
 2967SOL     OW 9799   6.853   0.131   4.511  0.4193 -0.6158  0.4695
 2967SOL    HW1 9800   6.866   0.059   4.579  1.4486  1.2221  2.3490
 2967SOL    HW2 9801   6.933   0.190   4.509  0.4484 -0.6268 -2.4742
 2968SOL     OW 9802   4.588   6.774   2.420 -0.0373 -0.4585 -0.0030
 2968SOL    HW1 9803   4.612   6.696   2.478  1.4309 -1.0174 -1.3072
 2968SOL    HW2 9804   4.654   6.848   2.434 -2.5006  1.5143  2.7321
 2969SOL     OW 9805   1.773   0.135   2.721  0.4110  0.0727 -0.0921
 2969SOL    HW1 9806   1.864   0.095   2.711  1.9355  2.3438  2.9248
 2969SOL    HW2 9807   1.770   0.222   2.672  0.0864  0.2939  0.3224
 2970SOL     OW 9808   4.509   6.044   6.667 -0.3952  0.3503 -0.4851
 2970SOL    HW1 9809   4.455   6.121   6.702 -1.2800 -0.2730 -0.4461
 2970SOL    HW2 9810   4.576   6.016   6.736  0.3408  1.4524 -0.7252
 2971SOL     OW 9811   3.992   1.588   1.380  0.1091  0.2719 -0.3462
 2971SOL    HW1 9812   3.938   1.619   1.302 -2.1813 -2.0998  0.1498
 2971SOL    HW2 9813   4.067   1.531   1.348  0.8441  1.5021 -0.9025
 2972SOL     OW 9814   1.349   0.454   2.243  0.3526  0.4056 -0.0750
 2972SOL    HW1 9815   1.366   0.430   2.148 -0.4227 -2.2024  0.3595
 2972SOL    HW2 9816   1.300   0.541   2.248  0.6334  0.7062 -2.0129
 2973SOL     OW 9817   4.180   5.487   0.381  0.4425 -0.2320 -0.2437
 2973SOL    HW1 9818   4.231   5.534   0.453 -1.4831  1.0458  0.3756
 2973SOL    HW2 9819   4.093   5.455   0.418 -0.4816  0.2247 -1.9265
 2974SOL     OW 9820   6.244   2.701   2.016  0.2937 -0.4633  0.2776
 2974SOL    HW1 9821   6.153   2.741   2.008  0.9880  0.9744 -0.9232
 2974SOL    HW2 9822   6.259   2.635   1.943  0.5917  0.1182 -0.1954
 2975SOL     OW 9823   0.874   1.399   0.509 -0.0063  0.0371 -0.0483
 2975SOL    HW1 9824   0.904   1.362   0.420 -1.1744 -0.3392 -0.3037
 2975SOL    HW2 9825   0.882   1.329   0.579  0.6416  0.2469  0.0979
 2976SOL     OW 9826   5.035   0.864   4.296 -0.4673  0.6456  0.1515
 2976SOL    HW1 9827   5.015   0.816   4.381  0.2475 -1.4854 -0.8108
 2976SOL    HW2 9828   5.040   0.798   4.221  0.3684  2.2803 -1.3027
 2977SOL     OW 9829   0.413   3.857   5.253  0.1931 -0.0579 -0.0023
 2977SOL    HW1 9830   0.334   3.919   5.249 -0.0511 -0.3523  0.2384
 2977SOL    HW2 9831   0.387   3.773   5.300  0.2770 -0.7066 -1.0775
 2978SOL     OW 9832   2.965   2.989   1.768 -0.0463  0.8849  0.7989
 2978SOL    HW1 9833   3.022   2.926   1.821 -1.6195 -0.0108  1.5019
 2978SOL    HW2 9834   2.972   3.081   1.806 -0.2001  0.4897  1.8331
 2979SOL     OW 9835   5.010   2.662   3.965  0.6287 -0.3878  0.3433
 2979SOL    HW1 9836   4.949   2.684   4.041  1.9976  2.7791  0.6754
 2979SOL    HW2 9837   4.969   2.589   3.910 -2.5987  0.3656  1.5182
 2980SOL     OW 9838   3.614   3.568   3.747  0.8349  0.1336 -0.2283
 2980SOL    HW1 9839   3.524   3.568   3.704  1.0304 -0.2856 -0.6460
 2980SOL    HW2 9840   3.635   3.475   3.780  1.2122  0.1802 -0.3362
 2981SOL     OW 9841   5.203   6.675   0.591  0.2430  0.2765  0.0486
 2981SOL    HW1 9842   5.246   6.733   0.661  0.9905  0.4196 -0.5156
 2981SOL    HW2 9843   5.191   6.729   0.507  2.2109 -0.7159 -0.9470
 2982SOL     OW 9844   2.228   6.832   2.842 -0.0723 -0.2259 -0.6635
 2982SOL    HW1 9845   2.191   6.773   2.914 -0.2775  0.1748 -0.4423
 2982SOL    HW2 9846   2.307   6.883   2.876 -1.0315  1.0402 -0.2775
 2983SOL     OW 9847   5.518   2.608   0.446 -0.0127  0.8041  0.1250
 2983SOL    HW1 9848   5.589   2.634   0.511  0.6552 -0.1722 -0.1965
 2983SOL    HW2 9849   5.449   2.552   0.491  0.9617 -0.7060 -0.1858
 2984SOL     OW 9850   0.875   2.253   6.991 -0.1548  0.4899  0.4116
 2984SOL    HW1 9851   0.821   2.305   6.924 -0.4623 -0.2231  0.0915
 2984SOL    HW2 9852   0.944   2.198   6.943  0.5078  0.9871  0.7839
 2985SOL     OW 9853   3.668   5.544   1.265 -0.1850 -0.2125  0.3919
 2985SOL    HW1 9854   3.619   5.620   1.222 -0.1524 -0.3567  0.0952
 2985SOL    HW2 9855   3.662   5.464   1.206 -2.9730 -1.4302  2.1500
 2986SOL     OW 9856   6.113   1.873   0.743 -0.1804 -0.3429  0.3360
 2986SOL    HW1 9857   6.046   1.810   0.781 -0.3326 -0.6761 -0.4490
 2986SOL    HW2 9858   6.163   1.827   0.668  0.3241  0.1768  0.3420
 2987SOL     OW 9859   0.391   5.922   5.912 -0.1673 -0.2124 -0.5835
 2987SOL    HW1 9860   0.436   5.953   5.829 -0.4356  1.5743 -0.0905
 2987SOL    HW2 9861   0.293   5.942   5.907  0.0676  1.5276  0.8278
 2988SOL     OW 9862   6.960   1.200   3.628  0.2131 -0.4033  0.8220
 2988SOL    HW1 9863   6.987   1.227   3.721 -3.6726 -0.6745  2.1929
 2988SOL    HW2 9864   6.901   1.120   3.632  0.3614 -0.7691 -1.9869
 2989SOL     OW 9865   5.142   1.553   4.604  0.6335 -0.2295  0.3546
 2989SOL    HW1 9866   5.193   1.499   4.537  0.8536 -0.8270  0.9921
 2989SOL    HW2 9867   5.062   1.500   4.636 -1.1951  1.1850 -1.6002
 2990SOL     OW 9868   6.721   3.717   1.195 -0.0915  0.1195 -0.8051
 2990SOL    HW1 9869   6.653   3.669   1.251  0.0938  1.9110  1.0857
 2990SOL    HW2 9870   6.735   3.809   1.232 -0.1857  1.5574 -4.0767
 2991SOL     OW 9871   5.017   5.107   4.068  0.5586  0.0515  0.1266
 2991SOL    HW1 9872   4.967   5.054   4.136 -1.8854  1.7088 -0.2402
 2991SOL    HW2 9873   5.078   5.172   4.114  0.5136 -0.2782  0.6576
 2992SOL     OW 9874   5.685   1.926   2.131 -0.1567  0.9096 -0.4819
 2992SOL    HW1 9875   5.753   1.971   2.189  0.3258 -2.3209  1.6516
 2992SOL    HW2 9876   5.727   1.902   2.044  0.5015  1.6080 -0.3761
 2993SOL     OW 9877   5.863   1.149   4.643  0.9589 -0.1135 -0.3863
 2993SOL    HW1 9878   5.849   1.177   4.738  2.5924  0.0979 -0.1673
 2993SOL    HW2 9879   5.779   1.161   4.591  0.2796  0.5822  0.8402
 2994SOL     OW 9880   5.981   2.427   1.924  0.2222  0.3665 -0.3482
 2994SOL    HW1 9881   6.020   2.351   1.977  0.6312  0.1407 -0.9663
 2994SOL    HW2 9882   6.054   2.474   1.874  0.5148  3.0865  2.3311
 2995SOL     OW 9883   4.561   0.294   2.435  0.6171 -0.0356 -0.7146
 2995SOL    HW1 9884   4.612   0.263   2.356  0.9466  1.1157 -0.9756
 2995SOL    HW2 9885   4.624   0.329   2.505  0.3290 -0.9761  0.0431
 2996SOL     OW 9886   4.048   1.428   5.289 -0.0897 -0.3026  0.4895
 2996SOL    HW1 9887   3.952   1.433   5.318 -0.2357 -0.4380  0.0339
 2996SOL    HW2 9888   4.066   1.500   5.222 -0.3955 -1.4909 -0.9128
 2997SOL     OW 9889   5.825   3.900   1.243  0.0462 -0.0081 -0.4009
 2997SOL    HW1 9890   5.801   3.837   1.317  2.9674  0.3802  1.0344
 2997SOL    HW2 9891   5.875   3.850   1.172 -0.1507  0.1759 -0.6718
 2998SOL     OW 9892   1.648   3.832   1.711  0.0897  0.0768 -0.4553
 2998SOL    HW1 9893   1.680   3.805   1.620  1.6832 -0.4538  0.2227
 2998SOL    HW2 9894   1.709   3.793   1.780  0.3470  2.4294  0.7421
 2999SOL     OW 9895   3.917   6.262   3.028  0.6533 -0.5345  0.0647
 2999SOL    HW1 9896   3.964   6.221   3.106  1.8166  0.3036 -0.1767
 2999SOL    HW2 9897   3.975   6.332   2.986  0.7131 -2.0244 -2.5203
 3000SOL     OW 9898   6.060   2.866   0.574  0.0722  0.2843  0.8252
 3000SOL    HW1 9899   6.008   2.815   0.506 -0.0456  0.0058  1.1210
 3000SOL    HW2 9900   6.068   2.961   0.545 -1.1510  0.4777  1.0869
 3001SOL     OW 9901   2.818   4.775   3.732 -0.4449 -0.2971 -0.3384
 3001SOL    HW1 9902   2.759   4.695   3.738  1.3350 -1.6399  0.0385
 3001SOL    HW2 9903   2.880   4.764   3.653 -2.0522  2.0716 -2.0525
 3002SOL     OW 9904   4.012   0.956   4.714 -0.1268  0.0564  0.4502
 3002SOL    HW1 9905   3.922   0.926   4.685  0.1191  1.2503 -1.7394
 3002SOL    HW2 9906   4.080   0.887   4.691 -0.3048 -0.2600  0.8681
 3003SOL     OW 9907   5.391   6.372   4.033 -0.5315  0.9286 -0.4513
 3003SOL    HW1 9908   5.343   6.459   4.046 -0.2034  1.0476  0.0081
 3003SOL    HW2 9909   5.333   6.308   3.984 -1.0568  1.1553 -0.1258
 3004SOL     OW 9910   4.606   2.526   3.492 -0.6239 -0.1305 -0.3002
 3004SOL    HW1 9911   4.596   2.576   3.577 -1.7141  0.1750 -0.5871
 3004SOL    HW2 9912   4.524   2.471   3.476 -0.1497 -0.7084 -0.8239
 3005SOL     OW 9913   6.544   3.971   4.089 -0.7277  0.7522 -0.8296
 3005SOL    HW1 9914   6.540   4.055   4.035 -0.4171  1.0155 -0.4533
 3005SOL    HW2 9915   6.531   3.994   4.186  2.0938  0.7609 -0.3675
 3006SOL     OW 9916   0.589   4.881   1.510 -0.1175  0.7373  0.3515
 3006SOL    HW1 9917   0.545   4.924   1.589  0.5660 -0.5775  1.4891
 3006SOL    HW2 9918   0.520   4.844   1.449 -0.6325  0.9823  0.7807
 3007SOL     OW 9919   2.915   2.766   5.416 -0.3222 -0.2698 -0.4004
 3007SOL    HW1 9920   2.921   2.865   5.419 -2.8164 -0.0151 -1.4701
 3007SOL    HW2 9921   3.006   2.727   5.402  0.7868  1.7919  0.7134
 3008SOL     OW 9922   5.708   4.244   2.321 -0.1706  0.0919  0.1771
 3008SOL    HW1 9923   5.784   4.298   2.286  1.1454 -0.8613  1.4512
 3008SOL    HW2 9924   5.705   4.250   2.421 -1.2974 -0.4982  0.2047
 3009SOL     OW 9925   0.761   4.571   1.065 -0.2433 -0.2174 -0.1935
 3009SOL    HW1 9926   0.668   4.608   1.066  0.3963  1.7511  3.5500
 3009SOL    HW2 9927   0.765   4.489   1.123  0.5031  0.3261  0.5514
 3010SOL     OW 9928   0.889   3.140   4.178 -0.0816 -0.2784  0.2077
 3010SOL    HW1 9929   0.922   3.126   4.085 -1.0026 -1.4337  0.0195
 3010SOL    HW2 9930   0.807   3.084   4.192 -1.4273  1.7794  0.9254
 3011SOL     OW 9931   2.043   2.299   4.093  0.9774  0.5631 -0.2694
 3011SOL    HW1 9932   2.025   2.398   4.089  4.2381  1.2473 -3.6772
 3011SOL    HW2 9933   2.136   2.284   4.126  0.7098 -1.3605 -0.3048
 3012SOL     OW 9934   0.396   2.590   6.165  0.3218 -0.6571 -0.3827
 3012SOL    HW1 9935   0.492   2.602   6.140  0.4965 -2.0845 -0.4576
 3012SOL    HW2 9936   0.348   2.677   6.154  2.1072  0.7530  1.9681
 3013SOL     OW 9937   2.265   2.629   6.464  0.1185 -0.3427  0.1740
 3013SOL    HW1 9938   2.309   2.562   6.524  0.5656 -1.6680 -1.5476
 3013SOL    HW2 9939   2.175   2.595   6.437 -0.4020  0.5973  0.6867
 3014SOL     OW 9940   1.699   6.821   2.402  0.6942 -0.0819  0.3919
 3014SOL    HW1 9941   1.735   6.859   2.317  0.7118  0.6547  0.7219
 3014SOL    HW2 9942   1.638   6.888   2.445 -0.7727 -1.1499  0.0437
 3015SOL     OW 9943   5.435   3.020   5.705 -0.2608 -0.1071 -0.0971
 3015SOL    HW1 9944   5.338   3.012   5.728 -0.6387 -0.7015 -1.7859
 3015SOL    HW2 9945   5.475   3.094   5.759 -1.8574  0.7552 -0.0152
 3016SOL     OW 9946   2.069   2.058   4.451  0.1640 -0.3620 -0.6768
 3016SOL    HW1 9947   2.109   1.966   4.453  0.2218 -0.3520 -1.1701
 3016SOL    HW2 9948   1.971   2.051   4.433  0.2870 -0.3016 -1.4078
 3017SOL     OW 9949   3.044   3.508   5.751 -0.0796 -0.2098  0.0043
 3017SOL    HW1 9950   3.015   3.536   5.659  0.1283  1.7511  0.4974
 3017SOL    HW2 9951   2.987   3.554   5.819  1.2976  0.2206  0.9004
 3018SOL     OW 9952   2.916   2.306   3.115  0.0726 -0.3654  0.0791
 3018SOL    HW1 9953   2.970   2.243   3.171 -1.3072 -1.2729  0.4446
 3018SOL    HW2 9954   2.927   2.282   3.018  1.0631  0.0833  0.0631
 3019SOL     OW 9955   2.510   2.282   1.808 -0.2618  0.8128  0.9398
 3019SOL    HW1 9956   2.421   2.242   1.832 -0.3457 -0.6866 -1.5170
 3019SOL    HW2 9957   2.501   2.332   1.721  1.6537 -0.9985 -0.3776
 3020SOL     OW 9958   5.870   5.619   0.483 -0.0703 -0.4063  0.0205
 3020SOL    HW1 9959   5.844   5.530   0.520 -0.7057 -0.4350 -0.4923
 3020SOL    HW2 9960   5.837   5.691   0.545  1.5329 -0.5415  1.1044
 3021SOL     OW 9961   1.708   1.063   5.986  0.2731 -0.5003 -0.2358
 3021SOL    HW1 9962   1.679   1.077   6.080 -1.0968 -0.8585 -0.5885
 3021SOL    HW2 9963   1.679   0.973   5.955  1.6286 -0.8150 -0.6876
 3022SOL     OW 9964   5.163   3.709   2.205 -0.4195  0.5004  0.1463
 3022SOL    HW1 9965   5.088   3.742   2.263 -0.4521  0.0832  0.3449
 3022SOL    HW2 9966   5.208   3.787   2.161 -0.9341  0.7615  0.0718
 3023SOL     OW 9967   0.253   1.262   6.162  0.3527 -0.0450 -0.3141
 3023SOL    HW1 9968   0.213   1.337   6.214  1.9219  0.0176  0.8694
 3023SOL    HW2 9969   0.226   1.269   6.066 -1.6013  0.5418  0.2409
 3024SOL     OW 9970   5.863   0.959   0.437 -0.0233 -0.3738  0.0382
 3024SOL    HW1 9971   5.904   0.925   0.352 -0.4370 -0.0554 -0.2907
 3024SOL    HW2 9972   5.855   0.883   0.502 -0.1235 -0.7238 -0.3732
 3025SOL     OW 9973   5.961   4.341   5.943 -0.8096 -0.5551  0.2738
 3025SOL    HW1 9974   5.878   4.309   5.897 -1.3295  1.0073  0.0800
 3025SOL    HW2 9975   6.008   4.263   5.984 -0.4733 -2.0060 -2.6116
 3026SOL     OW 9976   4.775   0.852   1.990 -0.3098  0.0737  0.0775
 3026SOL    HW1 9977   4.801   0.927   1.929 -0.6032 -0.7994 -1.1620
 3026SOL    HW2 9978   4.693   0.807   1.954 -0.8403 -0.0888  1.4559
 3027SOL     OW 9979   3.075   5.840   1.318 -0.3529 -0.0231  0.0279
 3027SOL    HW1 9980   3.140   5.805   1.386 -0.7377 -1.2946 -0.2350
 3027SOL    HW2 9981   2.982   5.817   1.346 -0.5414 -0.1567 -0.6909
 3028SOL     OW 9982   3.479   2.856   1.899  0.3980 -0.0427  0.1489
 3028SOL    HW1 9983   3.511   2.808   1.817  1.1358 -0.9327  0.9336
 3028SOL    HW2 9984   3.554   2.863   1.965 -0.1550  0.7651  0.7144
 3029SOL     OW 9985   1.190   5.545   5.314 -0.2824  0.0827 -0.3774
 3029SOL    HW1 9986   1.103   5.577   5.352 -1.3455  0.5640 -2.9702
 3029SOL    HW2 9987   1.181   5.448   5.291  0.9499 -0.6847  2.0707
 3030SOL     OW 9988   4.721   5.746   2.933  0.4491 -0.2030  0.3057
 3030SOL    HW1 9989   4.815   5.728   2.964  0.8194  1.1764  0.0427
 3030SOL    HW2 9990   4.682   5.661   2.897  1.0240 -1.1625  1.8503
 3031SOL     OW 9991   2.943   1.337   1.155  0.0629 -0.5668  0.2806
 3031SOL    HW1 9992   2.935   1.313   1.058 -0.3386 -0.5035  0.2954
 3031SOL    HW2 9993   2.880   1.411   1.176  0.3855 -0.3595  0.5190
 3032SOL     OW 9994   5.445   3.840   5.522 -0.1982  0.0772 -0.5976
 3032SOL    HW1 9995   5.532   3.822   5.476  0.0066  0.2214 -0.2753
 3032SOL    HW2 9996   5.422   3.937   5.512 -0.1442  0.1134 -0.3911
 3033SOL     OW 9997   6.599   2.691   2.328  0.3659  0.2207  0.5353
 3033SOL    HW1 9998   6.538   2.723   2.401  1.1869  3.0699  0.0702
 3033SOL    HW2 9999   6.562   2.606   2.289 -3.7507  2.0740 -0.1583
 3034SOL     OW10000   3.611   6.926   6.551 -0.0766 -0.0356 -0.1202
 3034SOL    HW110001   3.683   6.877   6.600 -0.1320  0.7195  0.7383
 3034SOL    HW210002   3.576   6.868   6.477  1.8297 -0.1733 -0.9625
 3035SOL     OW10003   5.556   4.982   0.378  0.2733  0.6591 -0.2131
 3035SOL    HW110004   5.632   4.960   0.317  0.3736  3.1595 -1.1267
 3035SOL    HW210005   5.473   4.936   0.347  0.9251 -0.3365 -0.5226
 3036SOL     OW10006   3.601   3.970   0.165 -0.3885  0.2955  0.0736
 3036SOL    HW110007   3.677   3.910   0.139 -2.7511 -3.2628  0.7969
 3036SOL    HW210008   3.582   4.033   0.089  1.4183 -0.6751 -1.2834
 3037SOL     OW10009   5.795   2.786   6.546 -0.6532  0.2294 -0.5946
 3037SOL    HW110010   5.764   2.707   6.600 -1.2995  1.0010  0.2036
 3037SOL    HW210011   5.895   2.792   6.550 -0.7452  1.1319  1.8300
 3038SOL     OW10012   4.155   0.700   4.533 -0.5508  0.3216  0.3598
 3038SOL    HW110013   4.067   0.667   4.499 -0.6497 -0.0607  0.9766
 3038SOL    HW210014   4.205   0.624   4.575  1.0173  0.0100 -1.8722
 3039SOL     OW10015   4.560   4.387   3.092  0.0710  0.0398 -0.3556
 3039SOL    HW110016   4.535   4.325   3.017  0.4853  0.6134 -0.9853
 3039SOL    HW210017   4.656   4.373   3.116 -0.9482 -2.9223  2.7951
 3040SOL     OW10018   5.531   6.714   5.166  0.0856 -0.0493  0.1298
 3040SOL    HW110019   5.463   6.661   5.217  0.7150 -0.8606  0.1538
 3040SOL    HW210020   5.595   6.651   5.121  0.9579  0.6978  0.2987
 3041SOL     OW10021   1.758   2.371   1.387  1.0021 -0.2308 -0.1013
 3041SOL    HW110022   1.770   2.283   1.433  3.0784 -0.7190 -1.4444
 3041SOL    HW210023   1.673   2.370   1.335  0.2376 -0.8534  1.1211
 3042SOL     OW10024   4.602   0.954   2.859  0.6816  0.6332  0.5995
 3042SOL    HW110025   4.593   0.995   2.769  0.5010 -0.7146 -0.0119
 3042SOL    HW210026   4.639   1.022   2.923  0.1648  1.8088 -0.3101
 3043SOL     OW10027   4.084   5.947   2.970 -0.0185  0.0794 -0.2046
 3043SOL    HW110028   4.169   6.000   2.976 -0.6866  1.6396 -2.7626
 3043SOL    HW210029   4.009   5.999   3.009 -0.0533 -0.7371  0.8572
 3044SOL     OW10030   6.069   6.526   5.516  0.4854 -0.0571 -0.0089
 3044SOL    HW110031   6.034   6.553   5.605  1.7573 -2.3713  1.2828
 3044SOL    HW210032   6.018   6.573   5.444 -2.3790 -0.1313  1.8408
 3045SOL     OW10033   0.519   4.686   5.800  0.2905  0.5709  0.0852
 3045SOL    HW110034   0.465   4.769   5.811 -1.3804 -0.4864  0.0919
 3045SOL    HW210035   0.588   4.701   5.729  0.6837  2.2590  0.7568
 3046SOL     OW10036   6.729   1.656   0.208 -0.1489 -0.3382 -0.0767
 3046SOL    HW110037   6.728   1.585   0.278 -0.7400  0.4785  0.7645
 3046SOL    HW210038   6.667   1.730   0.234 -0.2418  0.0705 -1.3758
 3047SOL     OW10039   6.523   1.262   6.617  0.2360  0.4850  0.3490
 3047SOL    HW110040   6.455   1.334   6.634  0.4444  1.0420 -1.0232
 3047SOL    HW210041   6.593   1.265   6.688 -0.2350  1.0528  0.8023
 3048SOL     OW10042   1.845   5.890   5.619  0.7854 -0.1992  0.0384
 3048SOL    HW110043   1.841   5.822   5.692 -1.0691  0.8600  0.9703
 3048SOL    HW210044   1.758   5.894   5.571  0.2771  2.5024  0.9786
 3049SOL     OW10045   0.792   6.533   5.320  0.1788  0.0458 -0.6096
 3049SOL    HW110046   0.770   6.445   5.279 -1.6365 -0.0676  0.4808
 3049SOL    HW210047   0.861   6.520   5.391 -1.6122 -0.9529  1.0691
 3050SOL     OW10048   0.497   4.421   5.770  0.2989 -0.1916  0.0887
 3050SOL    HW110049   0.502   4.520   5.767  0.1222 -0.1858 -0.0244
 3050SOL    HW210050   0.556   4.387   5.843  0.6846 -0.0314 -0.1475
 3051SOL     OW10051   2.597   4.617   3.827  0.0326  0.1915  0.4071
 3051SOL    HW110052   2.557   4.579   3.911  0.8613 -1.5788  0.0504
 3051SOL    HW210053   2.556   4.573   3.747  2.0055 -1.0569  0.0112
 3052SOL     OW10054   4.022   6.282   0.599 -0.6464 -0.5660  0.0003
 3052SOL    HW110055   4.093   6.263   0.667 -0.1486  0.7665 -0.1156
 3052SOL    HW210056   4.053   6.249   0.509  0.9841  2.0854 -0.5425
 3053SOL     OW10057   6.025   3.375   4.585 -0.2017 -0.3421 -0.2076
 3053SOL    HW110058   6.116   3.379   4.625 -0.3363  1.6311  0.0232
 3053SOL    HW210059   5.959   3.414   4.650 -1.0685 -0.9286 -0.7241
 3054SOL     OW10060   1.385   1.700   2.935 -0.0113  0.1568  0.0848
 3054SOL    HW110061   1.412   1.696   2.838 -0.7667 -1.3809 -0.0978
 3054SOL    HW210062   1.335   1.784   2.952 -0.0739  0.3382 -0.9278
 3055SOL     OW10063   2.156   3.807   5.889 -0.3942 -0.1969  0.2329
 3055SOL    HW110064   2.091   3.867   5.842 -0.1444 -1.2681 -1.5700
 3055SOL    HW210065   2.107   3.735   5.937 -0.7935  2.0709  3.5681
 3056SOL     OW10066   5.542   0.864   0.236 -0.1258  0.4089 -0.4116
 3056SOL    HW110067   5.566   0.952   0.277 -1.2272 -0.1641  1.5864
 3056SOL    HW210068   5.454   0.873   0.189 -1.3013 -0.0419  1.5710
 3057SOL     OW10069   1.743   0.987   3.167  0.6794 -0.0779 -0.1491
 3057SOL    HW110070   1.670   0.935   3.211  1.9392 -1.0304  0.9215
 3057SOL    HW210071   1.706   1.042   3.093 -1.2381  0.0914  0.8781
 3058SOL     OW10072   0.217   6.292   3.902  0.1606  0.4201 -0.0349
 3058SOL    HW110073   0.158   6.348   3.960  2.7042  1.7590  1.4342
 3058SOL    HW210074   0.244   6.345   3.821  2.4099  1.3578  1.2572
 3059SOL     OW10075   2.691   6.497   5.224 -0.2065  0.0369 -0.0058
 3059SOL    HW110076   2.742   6.523   5.306 -0.7309  0.1553  0.2830
 3059SOL    HW210077   2.747   6.434   5.169  0.4802  0.6160  0.0179
 3060SOL     OW10078   2.061   6.598   4.650  0.0155  0.2696 -0.1619
 3060SOL    HW110079   2.117   6.533   4.701  0.3370  0.3457 -0.4171
 3060SOL    HW210080   1.964   6.581   4.670  0.1594  0.8079  1.0831
 3061SOL     OW10081   4.017   2.793   0.654 -0.9297 -0.2281 -0.0694
 3061SOL    HW110082   4.111   2.773   0.627 -1.0601 -2.1201  0.7155
 3061SOL    HW210083   4.013   2.807   0.753 -1.3191  0.9163 -0.2396
 3062SOL     OW10084   3.966   6.907   2.805  0.3258 -0.0542  0.0988
 3062SOL    HW110085   4.002   7.000   2.804 -0.6512  0.3486  0.8656
 3062SOL    HW210086   3.884   6.903   2.862  0.0919 -1.2926 -0.2846
 3063SOL     OW10087   5.031   1.461   0.759 -0.1543  0.4560  0.5050
 3063SOL    HW110088   4.984   1.409   0.831 -0.3703 -0.5089 -0.3080
 3063SOL    HW210089   5.130   1.451   0.770 -0.1326 -2.9550 -1.5240
 3064SOL     OW10090   0.755   5.086   1.388 -0.9776 -0.0110 -0.2299
 3064SOL    HW110091   0.669   5.046   1.421 -1.0704  0.1165 -0.3139
 3064SOL    HW210092   0.736   5.175   1.348 -0.5353  0.9348  1.5506
 3065SOL     OW10093   5.146   6.092   1.077  0.7992  0.6477 -0.0583
 3065SOL    HW110094   5.112   6.113   1.169  1.9554 -1.0473  0.8186
 3065SOL    HW210095   5.221   6.153   1.053 -0.1741  1.7725 -0.3438
 3066SOL     OW10096   5.449   1.109   2.809 -0.2304  0.2585 -0.3650
 3066SOL    HW110097   5.446   1.163   2.725  0.9402 -0.2757 -0.7782
 3066SOL    HW210098   5.365   1.055   2.817 -0.0218 -0.3123 -1.6465
 3067SOL     OW10099   5.088   2.889   3.839 -0.7724 -0.3466  0.0346
 3067SOL    HW110100   5.175   2.888   3.789  0.1488  2.1954  1.3769
 3067SOL    HW210101   5.052   2.796   3.846  1.0747 -1.2787 -1.8212
 3068SOL     OW10102   2.924   5.343   4.775 -0.0431 -0.4384 -0.0822
 3068SOL    HW110103   2.943   5.255   4.819  0.4618 -1.0766 -1.5300
 3068SOL    HW210104   2.833   5.375   4.803 -0.5946 -1.8306 -0.1596
 3069SOL     OW10105   5.852   2.349   6.965 -0.2712  0.4346 -0.1173
 3069SOL    HW110106   5.908   2.401   6.900 -0.5690  0.2347 -0.5394
 3069SOL    HW210107   5.881   2.371   7.058 -1.3330  2.4960 -0.2068
 3070SOL     OW10108   6.758   0.398   4.188 -0.0233 -0.2003  0.4430
 3070SOL    HW110109   6.786   0.348   4.106  1.9173 -1.6274  1.9146
 3070SOL    HW210110   6.713   0.336   4.252 -1.0590  0.7968  0.7384
 3071SOL     OW10111   5.190   4.425   3.956  0.2076 -0.1718 -0.0317
 3071SOL    HW110112   5.231   4.336   3.939  1.4810  0.3545  0.1834
 3071SOL    HW210113   5.246   4.496   3.914 -1.2510  0.4916 -0.9688
 3072SOL     OW10114   5.123   0.734   1.523  0.6379  0.1058  0.0180
 3072SOL    HW110115   5.119   0.651   1.578  0.2436 -0.5762 -1.0027
 3072SOL    HW210116   5.106   0.711   1.427 -1.5977  1.6362 -0.0391
 3073SOL     OW10117   2.953   3.213   5.158  0.0759  0.4430 -0.3550
 3073SOL    HW110118   2.936   3.233   5.061  2.9757 -2.5019 -1.6936
 3073SOL    HW210119   3.047   3.238   5.181 -0.6796  1.4589  1.9193
 3074SOL     OW10120   1.128   5.480   6.403  0.3871 -0.3980  0.1784
 3074SOL    HW110121   1.227   5.463   6.406  0.5769  0.4824 -0.6113
 3074SOL    HW210122   1.079   5.393   6.414  1.2285 -0.7811  1.0659
 3075SOL     OW10123   3.937   3.250   3.592 -0.9683 -0.1956 -0.1428
 3075SOL    HW110124   3.911   3.248   3.495  2.5755 -0.3468 -1.2436
 3075SOL    HW210125   3.973   3.341   3.615 -1.5022 -0.2508  0.9509
 3076SOL     OW10126   3.190   1.999   0.322 -0.3811 -0.1854 -0.3783
 3076SOL    HW110127   3.195   2.096   0.345 -1.0254 -0.0373 -0.8314
 3076SOL    HW210128   3.227   1.944   0.397 -3.2159  0.2269  1.4530
 3077SOL     OW10129   6.449   0.982   6.402 -0.4594  0.0164 -0.0117
 3077SOL    HW110130   6.482   1.042   6.329  0.5239 -0.6626 -0.1547
 3077SOL    HW210131   6.505   0.994   6.483 -0.2172 -0.7340 -0.0580
 3078SOL     OW10132   4.388   6.139   5.478 -0.3832  0.0418 -0.0140
 3078SOL    HW110133   4.414   6.072   5.408  0.3326 -0.4239  0.6813
 3078SOL    HW210134   4.461   6.146   5.546 -1.6292 -0.5388  1.4459
 3079SOL     OW10135   5.003   5.124   2.925  0.0994 -0.1730 -1.1890
 3079SOL    HW110136   4.961   5.213   2.908 -0.2146  0.2242  1.2777
 3079SOL    HW210137   4.938   5.052   2.901 -0.1335  0.2809 -1.9727
 3080SOL     OW10138   6.351   1.957   1.269  0.3015  0.0580  0.1178
 3080SOL    HW110139   6.397   1.869   1.273  1.4157  0.6596  0.7298
 3080SOL    HW210140   6.415   2.031   1.291 -0.9817  0.9077  1.2250
 3081SOL     OW10141   2.068   3.524   3.229 -0.1789  0.2320 -0.1020
 3081SOL    HW110142   2.069   3.469   3.146 -0.4984  0.7204 -0.4325
 3081SOL    HW210143   2.062   3.464   3.309  0.9908 -0.2874 -0.3803
 3082SOL     OW10144   6.927   3.508   4.471  0.2270  0.1017 -0.0689
 3082SOL    HW110145   6.891   3.598   4.450  0.1921 -0.0280 -0.5823
 3082SOL    HW210146   7.022   3.501   4.440  1.0494  0.7566  2.1087
 3083SOL     OW10147   6.207   6.854   1.943  0.1671  0.2395  0.0183
 3083SOL    HW110148   6.229   6.923   1.874  1.9726 -0.9333 -0.6407
 3083SOL    HW210149   6.260   6.872   2.026 -0.2016  0.2736  0.2488
 3084SOL     OW10150   1.998   2.785   4.240 -0.9509 -0.1502  0.4443
 3084SOL    HW110151   1.933   2.850   4.200 -0.9626 -0.9514 -0.9100
 3084SOL    HW210152   2.010   2.707   4.178  1.5058  0.0872  0.5232
 3085SOL     OW10153   1.135   0.201   3.193  0.0856 -0.4336  0.0904
 3085SOL    HW110154   1.083   0.264   3.251  0.6925  0.2432 -0.0866
 3085SOL    HW210155   1.226   0.189   3.230  0.3971 -0.1985 -0.5746
 3086SOL     OW10156   6.384   6.119   1.957  0.8927 -0.1959  0.1239
 3086SOL    HW110157   6.372   6.104   1.859  1.9000 -0.0743 -0.0251
 3086SOL    HW210158   6.389   6.031   2.004  1.6519 -0.2799 -0.0983
 3087SOL     OW10159   4.112   6.444   2.888 -0.1859  0.3576  0.2787
 3087SOL    HW110160   4.060   6.489   2.815  2.4245 -0.8895 -2.5358
 3087SOL    HW210161   4.159   6.513   2.942  0.0289  1.2611 -1.0095
 3088SOL     OW10162   2.163   3.847   2.315  0.0669 -0.2019 -0.3759
 3088SOL    HW110163   2.152   3.813   2.408 -0.1438  0.7657 -0.0345
 3088SOL    HW210164   2.181   3.945   2.318  1.0233 -0.3366 -1.3101
 3089SOL     OW10165   5.841   6.917   0.074 -0.9522  0.3096  0.2517
 3089SOL    HW110166   5.901   6.873   0.007 -2.2800 -1.5092  0.1792
 3089SOL    HW210167   5.843   7.016   0.060  0.1077  0.0995 -1.3710
 3090SOL     OW10168   3.518   3.404   2.817 -0.1664 -0.3254  0.7062
 3090SOL    HW110169   3.609   3.439   2.838  0.4408 -0.4558 -1.5128
 3090SOL    HW210170   3.513   3.307   2.843  1.3726 -1.1534 -1.7486
 3091SOL     OW10171   0.320   4.438   3.404 -0.2566  0.4230 -0.4447
 3091SOL    HW110172   0.284   4.404   3.491  0.4245 -1.2899 -0.7941
 3091SOL    HW210173   0.338   4.536   3.411 -2.0359  0.7081  0.7063
 3092SOL     OW10174   0.686   3.849   1.125 -0.2383  0.4894 -0.1116
 3092SOL    HW110175   0.747   3.795   1.067  0.7186  1.0240  0.3777
 3092SOL    HW210176   0.740   3.901   1.191 -1.2597  0.6078  0.6499
 3093SOL     OW10177   3.288   6.287   0.711  0.4755  0.6003 -0.3363
 3093SOL    HW110178   3.206   6.343   0.723 -0.7211 -0.6927 -2.0656
 3093SOL    HW210179   3.288   6.213   0.779  0.3225  0.7037 -0.2229
 3094SOL     OW10180   4.620   4.878   1.772 -0.0794 -0.3811 -0.0266
 3094SOL    HW110181   4.571   4.911   1.691  0.1037 -1.2162 -0.4978
 3094SOL    HW210182   4.555   4.863   1.847 -0.3831 -0.4222 -0.2954
 3095SOL     OW10183   6.485   2.202   7.002 -0.0137  0.0451 -0.2187
 3095SOL    HW110184   6.495   2.108   7.035 -1.7828  0.0882  0.5465
 3095SOL    HW210185   6.434   2.201   6.916  0.8532  0.2464 -0.7411
 3096SOL     OW10186   1.012   6.537   6.328 -0.5094 -0.1443 -0.4155
 3096SOL    HW110187   0.927   6.584   6.304  0.4409  1.2025 -1.3285
 3096SOL    HW210188   1.016   6.450   6.280 -0.5252  0.6650 -1.9618
 3097SOL     OW10189   5.657   2.851   0.564 -0.3195 -0.1650  0.3132
 3097SOL    HW110190   5.665   2.937   0.614  0.5501  0.0477 -0.1677
 3097SOL    HW210191   5.581   2.857   0.499 -0.8301 -0.0890  0.9135
 3098SOL     OW10192   6.588   3.291   0.860 -0.8769 -0.2522 -0.1410
 3098SOL    HW110193   6.609   3.374   0.912  0.3013 -1.2515  1.0379
 3098SOL    HW210194   6.575   3.214   0.923 -1.5934 -1.0527 -1.2282
 3099SOL     OW10195   6.288   2.035   0.270  0.5541 -0.1861 -0.3990
 3099SOL    HW110196   6.365   2.031   0.206  1.6885  0.2955  0.8923
 3099SOL    HW210197   6.269   1.943   0.306  1.3969 -0.1103  0.2605
 3100SOL     OW10198   0.414   1.974   0.923 -0.6404 -0.1691  0.2977
 3100SOL    HW110199   0.474   1.950   1.000  1.6685  3.6113 -0.0985
 3100SOL    HW210200   0.325   2.003   0.958 -0.0645  0.2596  1.4615
 3101SOL     OW10201   1.835   1.476   1.088  0.1277  0.2409 -0.4153
 3101SOL    HW110202   1.883   1.482   1.175 -0.5028  1.4955 -0.1287
 3101SOL    HW210203   1.746   1.433   1.102  0.7711 -1.2758 -0.7919
 3102SOL     OW10204   5.041   4.615   2.721  0.0527  0.0393 -0.6499
 3102SOL    HW110205   5.086   4.536   2.679 -0.1342  0.1104 -0.9871
 3102SOL    HW210206   5.101   4.695   2.713  0.8774 -0.3824  0.9879
 3103SOL     OW10207   2.629   1.120   4.318 -0.4699  0.4854  0.3184
 3103SOL    HW110208   2.677   1.061   4.252 -2.3778 -1.7749  0.8158
 3103SOL    HW210209   2.556   1.170   4.270 -0.6090  0.3269  0.3632
 3104SOL     OW10210   1.786   0.002   5.392  0.1529 -0.0387  0.5559
 3104SOL    HW110211   1.884   0.020   5.396  0.4117 -1.5676  1.9605
 3104SOL    HW210212   1.754   0.015   5.298  1.4115  1.7381  0.3116
 3105SOL     OW10213   5.257   0.909   5.916  0.3672 -0.2881  0.2137
 3105SOL    HW110214   5.189   0.835   5.914  2.0387 -1.9009  0.7075
 3105SOL    HW210215   5.239   0.968   5.995 -0.6442 -0.4768  0.1457
 3106SOL     OW10216   2.365   2.369   5.886 -0.0677  0.1769 -0.0096
 3106SOL    HW110217   2.309   2.291   5.915  1.7463 -1.2997 -0.2979
 3106SOL    HW210218   2.351   2.385   5.788  0.6791 -0.8260 -0.3054
 3107SOL     OW10219   2.470   6.667   3.537  0.5523  0.4211  0.1160
 3107SOL    HW110220   2.516   6.681   3.450 -0.7661  2.9297 -0.2653
 3107SOL    HW210221   2.529   6.615   3.598  1.4903 -1.4297 -2.2432
 3108SOL     OW10222   3.117   6.339   6.765  0.9822  0.1605 -0.2186
 3108SOL    HW110223   3.096   6.385   6.679  0.4073 -1.3301 -0.9062
 3108SOL    HW210224   3.215   6.342   6.782  1.0872  0.5287 -0.8886
 3109SOL     OW10225   6.648   5.922   5.996  0.3472  0.5461  0.0450
 3109SOL    HW110226   6.596   5.843   6.030  0.1734  0.3387 -0.6908
 3109SOL    HW210227   6.615   5.948   5.905  0.9419  0.9648 -0.0616
 3110SOL     OW10228   2.285   2.991   2.860 -0.3297  0.3485 -0.0016
 3110SOL    HW110229   2.237   3.004   2.773  1.3374  0.0436 -0.9930
 3110SOL    HW210230   2.339   2.907   2.857 -0.5915  0.0894  1.5128
 3111SOL     OW10231   6.349   6.556   5.530 -0.4390  0.0776  0.0459
 3111SOL    HW110232   6.253   6.582   5.520 -0.8343 -1.3125  0.0696
 3111SOL    HW210233   6.358   6.494   5.608  0.5318  0.3832  0.1869
 3112SOL     OW10234   2.355   4.320   2.413  0.7600  0.0910 -0.4876
 3112SOL    HW110235   2.382   4.414   2.434 -0.5747  0.0166  1.8763
 3112SOL    HW210236   2.362   4.264   2.495  0.5172 -1.6327 -1.6033
 3113SOL     OW10237   2.021   4.253   3.981  0.1710  0.2309  0.0891
 3113SOL    HW110238   1.975   4.166   3.999  0.8525 -0.0050  0.7156
 3113SOL    HW210239   1.952   4.323   3.960 -0.3266 -0.7251 -1.6989
 3114SOL     OW10240   1.118   1.276   0.180 -0.1072  0.2961 -0.8421
 3114SOL    HW110241   1.137   1.287   0.082  0.9366  0.0034 -0.6882
 3114SOL    HW210242   1.147   1.359   0.228  2.4334 -0.7601 -0.3974
 3115SOL     OW10243   0.554   5.835   4.193  0.1171  0.0696 -0.2360
 3115SOL    HW110244   0.621   5.770   4.230  0.7097  0.6468 -0.2702
 3115SOL    HW210245   0.477   5.785   4.154  1.5471 -0.7373 -2.1937
 3116SOL     OW10246   4.836   6.649   1.384  0.2634 -0.0978  0.0168
 3116SOL    HW110247   4.918   6.630   1.329 -0.0757 -2.1948  0.1683
 3116SOL    HW210248   4.833   6.587   1.462 -0.5239  1.2257  1.0724
 3117SOL     OW10249   3.015   0.789   4.567  0.1758  0.6633 -0.5248
 3117SOL    HW110250   2.922   0.824   4.574 -0.9056 -1.9876 -0.6643
 3117SOL    HW210251   3.050   0.767   4.658 -0.3761 -0.7959 -0.6442
 3118SOL     OW10252   5.537   0.153   5.911  0.5199  0.8427  0.8329
 3118SOL    HW110253   5.576   0.152   5.819  1.1667  1.0435  1.0990
 3118SOL    HW210254   5.599   0.203   5.973  0.7077 -0.3614  1.6501
 3119SOL     OW10255   3.895   2.921   5.630 -0.3396 -0.2572  0.2382
 3119SOL    HW110256   3.873   2.868   5.548  0.7156  1.9463 -1.5751
 3119SOL    HW210257   3.821   2.986   5.649 -0.2866 -0.3117  0.6547
 3120SOL     OW10258   5.389   1.565   1.243  0.1249 -0.1785  0.2973
 3120SOL    HW110259   5.318   1.580   1.175  2.6076 -0.1902 -2.5071
 3120SOL    HW210260   5.367   1.615   1.327 -2.2706  1.2370 -1.0740
 3121SOL     OW10261   5.617   5.770   2.737  0.1592 -0.3215  0.1078
 3121SOL    HW110262   5.696   5.740   2.791  1.7603  1.1146 -1.2996
 3121SOL    HW210263   5.643   5.774   2.640 -2.3619 -1.9624 -0.7254
 3122SOL     OW10264   3.890   0.179   6.230 -0.2665  0.0017 -0.0384
 3122SOL    HW110265   3.924   0.235   6.306  2.5246 -0.9733 -0.4779
 3122SOL    HW210266   3.793   0.157   6.246  0.3003 -0.5284  3.4722
 3123SOL     OW10267   4.875   3.318   2.951  0.2541  0.3871 -0.1211
 3123SOL    HW110268   4.961   3.355   2.917  0.0006  1.9469  0.8297
 3123SOL    HW210269   4.878   3.218   2.948  1.3245  0.4262 -1.9214
 3124SOL     OW10270   4.690   0.258   5.563 -0.1684  0.3042 -0.1997
 3124SOL    HW110271   4.727   0.167   5.543  0.1707  0.7372 -1.6056
 3124SOL    HW210272   4.679   0.268   5.662  0.1886 -1.1077  0.0012
 3125SOL     OW10273   2.019   6.835   3.177 -0.4081  0.2481  0.5369
 3125SOL    HW110274   2.043   6.795   3.089 -0.1939 -1.4835  1.3497
 3125SOL    HW210275   1.919   6.841   3.185 -0.4270  0.5187  0.1516
 3126SOL     OW10276   3.983   5.905   0.981 -0.5708 -0.5213 -0.0631
 3126SOL    HW110277   3.941   5.966   1.049 -1.2519 -1.8002  0.6882
 3126SOL    HW210278   3.957   5.936   0.889 -1.1613  0.1457  0.3095
 3127SOL     OW10279   1.753   4.552   1.639 -0.0918  0.2535 -0.0110
 3127SOL    HW110280   1.748   4.630   1.700 -0.6600  0.0922  0.1581
 3127SOL    HW210281   1.742   4.582   1.544  1.5338  0.5940 -0.1106
 3128SOL     OW10282   1.666   0.471   2.870  0.1022  0.0480 -0.8529
 3128SOL    HW110283   1.681   0.471   2.969  3.4751 -0.3388 -1.2687
 3128SOL    HW210284   1.685   0.562   2.834 -1.6484  0.3386 -1.1571
 3129SOL     OW10285   1.614   2.753   6.064  0.1636  0.1341 -0.0186
 3129SOL    HW110286   1.697   2.742   6.009  0.9224  0.3956  1.0277
 3129SOL    HW210287   1.534   2.740   6.007  0.9298 -1.1660 -0.8520
 3130SOL     OW10288   1.780   6.036   4.639 -0.2921  0.3445  0.1591
 3130SOL    HW110289   1.868   6.056   4.682  0.1472  0.6196 -0.8257
 3130SOL    HW210290   1.706   6.052   4.704  0.4503 -1.4197  1.5256
 3131SOL     OW10291   0.735   4.898   5.901  0.2458  0.4503 -0.3043
 3131SOL    HW110292   0.659   4.834   5.916  1.3469 -0.7172  0.4375
 3131SOL    HW210293   0.721   4.946   5.814 -1.0063 -0.2078 -0.4932
 3132SOL     OW10294   3.555   5.164   6.106  0.0206 -0.2735 -0.0901
 3132SOL    HW110295   3.548   5.178   6.204  1.4739 -1.0738  0.1649
 3132SOL    HW210296   3.585   5.070   6.088  1.3509  0.3329 -1.2090
 3133SOL     OW10297   6.238   5.836   0.509 -0.2033 -0.0164  0.7222
 3133SOL    HW110298   6.330   5.807   0.482  0.0560  1.6248 -0.2699
 3133SOL    HW210299   6.170   5.788   0.453 -0.0381 -1.8024  1.9665
 3134SOL     OW10300   1.421   3.597   3.235 -0.6239 -0.0716  0.7070
 3134SOL    HW110301   1.391   3.660   3.163  0.9507 -1.4609 -1.2666
 3134SOL    HW210302   1.427   3.504   3.198  0.6796 -0.7664  2.5153
 3135SOL     OW10303   2.135   2.828   2.360  0.0754  0.0660 -0.2994
 3135SOL    HW110304   2.147   2.915   2.312 -1.0353  0.1233 -0.5123
 3135SOL    HW210305   2.064   2.839   2.430  0.2569 -0.5538 -0.0130
 3136SOL     OW10306   1.750   5.309   6.379 -0.4903 -0.8048 -0.2483
 3136SOL    HW110307   1.683   5.238   6.394 -0.1312 -1.3839 -1.2662
 3136SOL    HW210308   1.734   5.352   6.290 -0.2755 -0.0905  0.0476
 3137SOL     OW10309   3.229   1.516   5.474  0.1170 -0.1209  0.5418
 3137SOL    HW110310   3.223   1.523   5.375 -0.1736 -0.2373  0.5491
 3137SOL    HW210311   3.147   1.557   5.515  0.2124 -0.1191  0.7293
 3138SOL     OW10312   2.374   1.588   7.002 -0.3378  0.0510 -0.1128
 3138SOL    HW110313   2.377   1.671   7.057 -0.3087  0.7996 -1.1985
 3138SOL    HW210314   2.279   1.566   6.978 -0.2008  1.6824 -2.5296
 3139SOL     OW10315   4.718   0.096   4.933  0.5013 -0.3356  0.3251
 3139SOL    HW110316   4.697   0.168   4.866 -0.0114 -1.6030 -0.9323
 3139SOL    HW210317   4.816   0.076   4.930  0.5178 -0.2290  0.1141
 3140SOL     OW10318   3.843   4.906   4.138  0.4009 -0.8137  0.4400
 3140SOL    HW110319   3.883   4.827   4.093 -2.3445 -0.9413 -2.0943
 3140SOL    HW210320   3.859   4.988   4.083  0.7833 -0.1126  1.5618
 3141SOL     OW10321   4.362   0.324   1.737  0.2918  0.1547 -0.3160
 3141SOL    HW110322   4.445   0.345   1.788 -0.4816  1.0779  0.5938
 3141SOL    HW210323   4.282   0.337   1.795 -0.5029 -0.8060 -1.1490
 3142SOL     OW10324   0.290   6.555   4.966  0.1495 -0.4398 -0.2471
 3142SOL    HW110325   0.278   6.555   5.066 -1.0697  0.1093 -0.3780
 3142SOL    HW210326   0.343   6.635   4.939 -3.2038  1.9098 -0.3883
 3143SOL     OW10327   4.731   1.847   2.007  0.0622 -0.0167 -0.3430
 3143SOL    HW110328   4.695   1.784   1.939 -2.0926  0.0963  0.5876
 3143SOL    HW210329   4.745   1.937   1.965  0.5966 -0.4185 -1.0491
 3144SOL     OW10330   4.948   0.208   0.299 -0.0874  0.6832 -0.1233
 3144SOL    HW110331   4.868   0.208   0.239 -1.2303  1.0593  1.3306
 3144SOL    HW210332   5.027   0.245   0.250 -0.9387  0.8758 -1.4022
 3145SOL     OW10333   5.298   6.583   0.106 -0.4256  0.3656  0.7764
 3145SOL    HW110334   5.205   6.560   0.077 -0.6709  0.6681  1.3199
 3145SOL    HW210335   5.321   6.675   0.075  0.0252 -0.0426 -0.1336
 3146SOL     OW10336   3.684   3.837   4.158  0.0477 -0.2582  0.0993
 3146SOL    HW110337   3.700   3.761   4.095 -0.0137 -0.3538  0.1983
 3146SOL    HW210338   3.760   3.844   4.222  0.9780  0.9328 -1.0709
 3147SOL     OW10339   2.588   5.330   4.971  0.7655 -0.3706 -0.0307
 3147SOL    HW110340   2.656   5.392   5.010 -1.1559  1.3743  0.7022
 3147SOL    HW210341   2.496   5.359   4.999 -0.4444 -1.5116 -2.5205
 3148SOL     OW10342   6.245   2.238   3.888 -0.4871  0.3327 -0.2036
 3148SOL    HW110343   6.254   2.177   3.967 -1.1594  1.5707  0.8849
 3148SOL    HW210344   6.155   2.225   3.847 -1.2310  1.5662  0.9423
 3149SOL     OW10345   0.033   6.505   4.869  0.0257  0.2708 -0.3141
 3149SOL    HW110346  -0.005   6.536   4.781  2.0123 -1.0674 -1.7294
 3149SOL    HW210347   0.132   6.501   4.863  0.2742  0.8449  2.2977
 3150SOL     OW10348   4.630   1.218   1.802 -0.1794  0.3720  0.5156
 3150SOL    HW110349   4.565   1.142   1.811 -5.1262  3.8491 -1.7269
 3150SOL    HW210350   4.626   1.274   1.885  1.5126 -0.3105  1.1038
 3151SOL     OW10351   6.839   2.958   4.979  0.1874  0.0772 -0.2062
 3151SOL    HW110352   6.739   2.946   4.979  0.0089  1.0331 -2.3094
 3151SOL    HW210353   6.874   2.942   5.071 -1.9025 -0.2595  0.6061
 3152SOL     OW10354   0.459   2.634   0.215 -0.0896  0.4316 -0.4624
 3152SOL    HW110355   0.374   2.601   0.255  0.2640 -0.0079 -0.0527
 3152SOL    HW210356   0.464   2.734   0.223  1.1672  0.2181  3.1389
 3153SOL     OW10357   3.825   6.480   6.841 -0.0493 -0.1493  0.2384
 3153SOL    HW110358   3.806   6.455   6.746  2.5011  0.0986 -0.4169
 3153SOL    HW210359   3.848   6.397   6.893 -1.0163 -0.2327  0.5475
 3154SOL     OW10360   4.801   2.066   5.841  0.2355 -0.0014 -0.0718
 3154SOL    HW110361   4.756   2.010   5.771  0.4817 -0.7935  0.3931
 3154SOL    HW210362   4.804   2.161   5.810 -1.3348  0.0002 -0.3171
 3155SOL     OW10363   5.530   3.952   1.458  0.1032  0.1051 -0.5152
 3155SOL    HW110364   5.452   3.968   1.397 -0.8975 -1.9417  0.1505
 3155SOL    HW210365   5.586   4.035   1.463 -1.3469  1.2261 -1.9701
 3156SOL     OW10366   3.991   1.879   3.628  0.2771 -0.1919  0.1568
 3156SOL    HW110367   3.937   1.964   3.632  0.1167 -0.3022  0.3811
 3156SOL    HW210368   4.083   1.900   3.595  1.4184  0.6957  3.4222
 3157SOL     OW10369   5.908   1.234   6.416  0.5041 -0.0768 -0.0939
 3157SOL    HW110370   5.868   1.323   6.437  0.0356 -0.1383 -0.6999
 3157SOL    HW210371   5.882   1.206   6.324  3.4819  0.7065 -1.2808
 3158SOL     OW10372   4.521   2.225   5.647 -0.4635 -0.3213  0.1015
 3158SOL    HW110373   4.426   2.238   5.673 -0.6837 -0.4296 -0.6203
 3158SOL    HW210374   4.579   2.287   5.700 -1.4282  3.7962 -3.0862
 3159SOL     OW10375   5.271   3.775   3.064  0.3552 -0.0933 -0.5976
 3159SOL    HW110376   5.342   3.811   3.125 -0.3940 -0.3196  0.4403
 3159SOL    HW210377   5.245   3.683   3.094 -0.3820 -0.0055 -0.9503
 3160SOL     OW10378   3.482   2.859   3.127  0.5894 -0.0032 -0.1710
 3160SOL    HW110379   3.394   2.902   3.145  0.2488 -0.3803 -0.8931
 3160SOL    HW210380   3.535   2.853   3.212 -0.2438 -0.1450  0.3433
 3161SOL     OW10381   2.580   1.604   4.740  0.1357  0.0786 -0.0497
 3161SOL    HW110382   2.626   1.567   4.659 -0.5821 -3.6620  1.0345
 3161SOL    HW210383   2.482   1.612   4.722  0.1430  0.4805  0.0756
 3162SOL     OW10384   6.160   5.269   2.564  0.3327 -0.2356  0.0029
 3162SOL    HW110385   6.162   5.337   2.490  1.0604 -0.8192 -0.5311
 3162SOL    HW210386   6.253   5.255   2.598  0.3952 -1.9057 -0.7826
 3163SOL     OW10387   5.989   0.985   1.019  0.3121 -0.3694 -0.0583
 3163SOL    HW110388   6.042   0.951   0.941  0.2214  0.8664 -0.6902
 3163SOL    HW210389   6.025   0.946   1.104  1.0596 -0.9551 -0.6321
 3164SOL     OW10390   3.748   4.901   4.603  0.2843  0.0499  0.6714
 3164SOL    HW110391   3.659   4.923   4.563  1.1208  0.8642 -0.8170
 3164SOL    HW210392   3.812   4.876   4.530  1.5339  0.3819  1.6204
 3165SOL     OW10393   2.746   2.304   2.312 -0.1038 -0.1785 -0.2017
 3165SOL    HW110394   2.670   2.365   2.289 -0.2815 -0.4240 -0.2684
 3165SOL    HW210395   2.820   2.317   2.246  0.6467  1.3490  0.8863
 3166SOL     OW10396   1.237   6.197   0.149 -0.4356 -0.2212  0.4836
 3166SOL    HW110397   1.150   6.238   0.119 -1.2268 -1.1351  1.4511
 3166SOL    HW210398   1.300   6.270   0.175  1.2848  0.9460 -5.4184
 3167SOL     OW10399   6.145   4.810   3.230 -0.5198 -0.3218  0.3645
 3167SOL    HW110400   6.173   4.844   3.320 -0.1670  0.9525 -0.1997
 3167SOL    HW210401   6.207   4.736   3.202  1.1741  1.1636 -0.0306
 3168SOL     OW10402   2.182   1.793   4.341  0.4100  0.1707  0.0939
 3168SOL    HW110403   2.083   1.794   4.347  0.3616  2.0509 -0.4755
 3168SOL    HW210404   2.212   1.843   4.260  1.8456  0.2520  0.6328
 3169SOL     OW10405   1.623   4.324   3.804  0.0166  0.1902  0.4779
 3169SOL    HW110406   1.657   4.275   3.724  2.1984  1.3175  0.6234
 3169SOL    HW210407   1.556   4.392   3.775  1.5752  1.3549 -0.6500
 3170SOL     OW10408   2.854   0.171   0.651 -0.7249 -0.2092  0.5184
 3170SOL    HW110409   2.832   0.267   0.636 -0.7194 -0.2742  0.0634
 3170SOL    HW210410   2.908   0.137   0.574 -0.3094 -0.4493  0.9135
 3171SOL     OW10411   4.541   1.818   2.399  0.1012 -0.9612 -0.1396
 3171SOL    HW110412   4.545   1.761   2.481 -0.8966 -2.8646 -1.3252
 3171SOL    HW210413   4.459   1.796   2.347 -0.4287  1.7764 -0.5904
 3172SOL     OW10414   1.014   5.355   5.940 -0.1758 -0.1446 -0.4832
 3172SOL    HW110415   1.031   5.438   5.887 -1.7522 -0.4168 -1.4740
 3172SOL    HW210416   0.917   5.331   5.935 -0.5102  0.0084  2.8837
 3173SOL     OW10417   6.614   6.788   6.950  0.4435 -0.1327  0.0849
 3173SOL    HW110418   6.627   6.720   7.022  0.3952  0.8470  1.0532
 3173SOL    HW210419   6.538   6.760   6.891 -0.8976  0.0149  1.6524
 3174SOL     OW10420   4.248   3.503   0.817  0.3828  0.3565 -0.0246
 3174SOL    HW110421   4.338   3.546   0.805  0.4589  0.7232  1.6081
 3174SOL    HW210422   4.256   3.404   0.806  0.7929  0.4693 -0.8221
 3175SOL     OW10423   6.659   6.755   3.996  0.6581  0.6457 -0.4970
 3175SOL    HW110424   6.589   6.722   4.060 -1.5155  0.4305 -2.8504
 3175SOL    HW210425   6.682   6.849   4.019  0.0012  0.5567  0.6446
 3176SOL     OW10426   3.171   1.858   5.658 -0.5125  0.6653  0.5384
 3176SOL    HW110427   3.244   1.910   5.613 -0.1638  0.7312  1.1671
 3176SOL    HW210428   3.207   1.770   5.688 -1.1939 -0.1139 -0.8479
 3177SOL     OW10429   2.565   4.491   5.687  0.0592 -0.1155  0.2457
 3177SOL    HW110430   2.563   4.438   5.772 -1.4410 -1.2393 -0.4376
 3177SOL    HW210431   2.631   4.450   5.624 -0.0779 -0.3313  0.2404
 3178SOL     OW10432   0.489   5.626   1.340  0.0746 -0.4326  0.7118
 3178SOL    HW110433   0.523   5.621   1.246 -0.1675  0.7778  0.5477
 3178SOL    HW210434   0.563   5.656   1.400 -0.2423  0.5524  0.6187
 3179SOL     OW10435   2.812   1.026   6.946 -0.7817 -1.0024  0.0229
 3179SOL    HW110436   2.893   0.967   6.959 -1.7928 -2.6775 -0.8712
 3179SOL    HW210437   2.837   1.103   6.888  0.0310 -1.9011 -0.8786
 3180SOL     OW10438   1.008   0.493   6.962  0.2844  0.5148  0.3593
 3180SOL    HW110439   0.959   0.425   6.907  0.1738  0.7205  0.2043
 3180SOL    HW210440   1.034   0.570   6.904  2.2464 -0.3260  0.0367
 3181SOL     OW10441   2.127   3.926   3.753  0.1111  0.3279 -0.2212
 3181SOL    HW110442   2.128   3.943   3.654  0.7941 -0.2732 -0.3277
 3181SOL    HW210443   2.220   3.926   3.788 -0.0620 -0.3305  0.2624
 3182SOL     OW10444   1.479   0.940   1.376 -0.1586  0.1245  0.0126
 3182SOL    HW110445   1.501   1.026   1.421  0.9105 -0.6726  1.0846
 3182SOL    HW210446   1.560   0.907   1.326 -0.9969  0.4528 -1.6422
 3183SOL     OW10447   3.046   2.202   2.409 -0.0202  0.2422  0.5782
 3183SOL    HW110448   2.990   2.190   2.327  1.4859 -1.5531 -0.2354
 3183SOL    HW210449   3.006   2.275   2.465 -3.2535 -0.9939  0.1264
 3184SOL     OW10450   1.116   4.624   4.532 -0.7433 -0.1548 -0.3488
 3184SOL    HW110451   1.210   4.635   4.499 -0.8871 -0.0497 -0.7406
 3184SOL    HW210452   1.106   4.536   4.578  0.0131  0.6006  1.3445
 3185SOL     OW10453   2.692   4.933   2.874 -0.0997 -0.0946 -0.0612
 3185SOL    HW110454   2.649   4.888   2.952  0.1027 -0.5232 -0.1965
 3185SOL    HW210455   2.788   4.907   2.869 -0.0195  0.2233 -0.2406
 3186SOL     OW10456   6.786   2.647   0.670 -0.5376 -0.6837 -0.7211
 3186SOL    HW110457   6.863   2.583   0.667  0.5992  0.6365 -3.8032
 3186SOL    HW210458   6.818   2.735   0.705 -0.8264 -0.3778 -1.2199
 3187SOL     OW10459   0.231   2.572   3.539 -0.2516  0.3555  0.4113
 3187SOL    HW110460   0.166   2.564   3.613  0.6877  0.0676  1.2228
 3187SOL    HW210461   0.210   2.654   3.485  0.0842  1.5574  2.0373
 3188SOL     OW10462   2.917   7.001   4.518  0.2026  0.3875 -0.1120
 3188SOL    HW110463   2.894   7.094   4.546 -0.9267 -0.2697  1.3012
 3188SOL    HW210464   3.012   6.981   4.541  0.3733  1.0983 -0.1954
 3189SOL     OW10465   1.225   4.137   1.116  0.2288  0.4322 -0.2734
 3189SOL    HW110466   1.281   4.125   1.034  0.4035 -0.0212 -0.0900
 3189SOL    HW210467   1.149   4.199   1.095 -0.4050 -0.5943 -1.1145
 3190SOL     OW10468   6.780   4.835   1.476 -0.5372 -0.0568  0.3582
 3190SOL    HW110469   6.798   4.750   1.427  0.3994  1.2067 -1.5809
 3190SOL    HW210470   6.846   4.845   1.550 -0.1036 -0.5948  0.0503
 3191SOL     OW10471   2.269   1.044   2.974  0.8494 -0.4873  0.0520
 3191SOL    HW110472   2.189   0.995   3.010 -0.3454 -0.0733 -1.8446
 3191SOL    HW210473   2.352   0.997   3.000 -0.2089 -3.2030 -1.1256
 3192SOL     OW10474   6.072   6.113   3.740 -0.1040  0.0978  0.0086
 3192SOL    HW110475   6.105   6.060   3.662 -0.2627 -0.7050  0.4767
 3192SOL    HW210476   5.989   6.162   3.715 -0.5475 -0.7061 -0.1364
 3193SOL     OW10477   1.934   2.536   2.707  0.0673  0.2456 -0.0845
 3193SOL    HW110478   1.976   2.529   2.798  1.3109  0.3192 -0.6318
 3193SOL    HW210479   2.006   2.544   2.638 -0.8469 -0.3944 -1.1350
 3194SOL     OW10480   4.932   5.202   4.688  0.5449 -0.1877 -0.4323
 3194SOL    HW110481   4.950   5.273   4.620  1.7911 -0.6678 -0.6258
 3194SOL    HW210482   4.982   5.223   4.772 -0.0482 -0.2172 -0.0614
 3195SOL     OW10483   2.309   5.892   2.239 -0.2551  0.3461  0.3929
 3195SOL    HW110484   2.377   5.851   2.178 -0.0258 -0.0337  0.8975
 3195SOL    HW210485   2.263   5.967   2.192 -0.8796 -0.6602 -0.6293
 3196SOL     OW10486   1.040   3.261   6.946  0.2911  0.6575  0.5057
 3196SOL    HW110487   0.949   3.226   6.923 -0.1131  1.7371  0.4312
 3196SOL    HW210488   1.110   3.198   6.911 -0.4275 -0.5867  1.2505
 3197SOL     OW10489   0.463   0.710   0.197 -0.5219 -0.3901 -0.2487
 3197SOL    HW110490   0.443   0.612   0.199 -0.6820 -0.3466  0.4071
 3197SOL    HW210491   0.476   0.743   0.290 -1.6333  0.4395 -0.3677
 3198SOL     OW10492   6.203   4.184   3.314  0.5698  0.0701  0.2477
 3198SOL    HW110493   6.134   4.252   3.287 -0.9021 -1.7304 -0.7841
 3198SOL    HW210494   6.160   4.117   3.375  1.9931  0.0417  1.2582
 3199SOL     OW10495   0.934   5.337   0.569  0.1574 -0.5025  0.0358
 3199SOL    HW110496   0.927   5.250   0.521 -0.2656 -1.0988  1.1315
 3199SOL    HW210497   1.023   5.343   0.615 -0.7114 -1.4882  1.9821
 3200SOL     OW10498   3.742   1.769   3.805  0.2912  0.0957 -0.4781
 3200SOL    HW110499   3.713   1.865   3.808  2.3140  0.7861 -1.4504
 3200SOL    HW210500   3.744   1.731   3.898 -0.2259  1.0778 -0.0565
 3201SOL     OW10501   2.281   0.795   5.644 -0.1976 -0.6636 -0.4177
 3201SOL    HW110502   2.271   0.785   5.743 -1.3118  1.9536 -0.1801
 3201SOL    HW210503   2.368   0.756   5.616  0.8978 -0.0704  1.8627
 3202SOL     OW10504   5.559   2.546   4.787 -0.6605 -0.0450 -0.0513
 3202SOL    HW110505   5.595   2.627   4.833 -0.1695 -1.7580  2.8243
 3202SOL    HW210506   5.632   2.501   4.737 -0.2382 -0.2000  0.6861
 3203SOL     OW10507   4.584   6.703   4.039 -0.2541  0.2242 -0.0242
 3203SOL    HW110508   4.652   6.762   4.082  0.6389 -0.8388  0.0687
 3203SOL    HW210509   4.503   6.698   4.097 -0.2753  1.1901  0.0558
 3204SOL     OW10510   1.769   1.020   2.490  0.2690  0.7690 -0.1149
 3204SOL    HW110511   1.678   0.982   2.503  0.0147  1.2718 -0.4122
 3204SOL    HW210512   1.825   1.001   2.571 -0.3774  1.2529  0.4571
 3205SOL     OW10513   6.815   0.135   5.250 -0.2547 -0.1110 -0.1350
 3205SOL    HW110514   6.810   0.174   5.158  2.0197 -1.9920 -1.1693
 3205SOL    HW210515   6.908   0.146   5.286 -0.4900 -1.4441  0.9716
 3206SOL     OW10516   6.080   1.791   4.225 -0.6749  0.2042 -0.0473
 3206SOL    HW110517   6.037   1.876   4.194 -0.7531 -0.1262 -0.8800
 3206SOL    HW210518   6.178   1.793   4.203 -0.8056 -0.1953 -0.6841
 3207SOL     OW10519   5.478   5.028   0.029 -0.3406 -0.4811 -0.2482
 3207SOL    HW110520   5.560   4.985  -0.010 -0.1668 -0.3426 -0.0424
 3207SOL    HW210521   5.397   4.990  -0.014 -0.1439 -0.0905 -0.9897
 3208SOL     OW10522   1.261   1.017   2.662  0.4873  0.1516 -0.3689
 3208SOL    HW110523   1.178   1.001   2.609  0.6302 -0.2491 -0.4774
 3208SOL    HW210524   1.276   1.115   2.673 -1.3848  0.2826  1.7790
 3209SOL     OW10525   1.503   0.592   4.947 -0.3142 -0.4131 -0.0278
 3209SOL    HW110526   1.586   0.597   4.891 -0.5899  1.4207 -0.3204
 3209SOL    HW210527   1.517   0.642   5.032 -0.3688 -2.0382  0.9819
 3210SOL     OW10528   2.576   1.142   0.229 -0.3125  0.6781 -0.0016
 3210SOL    HW110529   2.492   1.147   0.282 -1.7495 -0.7154 -1.9953
 3210SOL    HW210530   2.632   1.066   0.263 -0.1579  1.1999  0.9236
 3211SOL     OW10531   4.792   4.666   2.816 -0.2258 -0.3015  0.6433
 3211SOL    HW110532   4.726   4.615   2.762 -0.5747  1.0162 -0.2225
 3211SOL    HW210533   4.884   4.649   2.781 -0.3592 -0.1962  0.2355
 3212SOL     OW10534   3.467   1.797   1.337  0.0652  0.3854  0.2310
 3212SOL    HW110535   3.469   1.737   1.256 -0.1180  1.4523 -0.5845
 3212SOL    HW210536   3.379   1.789   1.382 -0.5623  1.2272 -0.8079
 3213SOL     OW10537   4.618   1.555   2.242 -0.8050 -0.4829 -0.5077
 3213SOL    HW110538   4.629   1.463   2.280  0.8253 -0.1886 -0.1859
 3213SOL    HW210539   4.668   1.620   2.299 -1.5911  0.5612 -0.9719
 3214SOL     OW10540   1.136   1.225   6.573 -0.1482  0.0281 -0.1377
 3214SOL    HW110541   1.053   1.255   6.526  0.3194  0.7233 -0.5208
 3214SOL    HW210542   1.204   1.195   6.505 -0.7319 -2.3450  0.2103
 3215SOL     OW10543   3.412   1.147   5.559  0.3089 -0.6105  0.7256
 3215SOL    HW110544   3.398   1.198   5.644  0.7467 -0.0485  0.4707
 3215SOL    HW210545   3.338   1.169   5.495  0.9229  0.3598  0.3198
 3216SOL     OW10546   6.051   0.632   0.158  0.2228 -0.9201 -0.3766
 3216SOL    HW110547   5.981   0.611   0.090 -0.4676 -2.5127  0.7552
 3216SOL    HW210548   6.040   0.727   0.189  0.2143 -0.3443 -2.0466
 3217SOL     OW10549   1.929   5.209   3.040  0.2815 -0.0338  0.1897
 3217SOL    HW110550   2.008   5.269   3.027  1.0758 -0.4555  2.5404
 3217SOL    HW210551   1.935   5.132   2.976 -0.6043  2.1091 -2.6669
 3218SOL     OW10552   0.855   3.214   2.897  0.0038  0.4324  0.6085
 3218SOL    HW110553   0.758   3.224   2.875 -0.1772 -0.3092  1.0391
 3218SOL    HW210554   0.908   3.276   2.840 -0.8257  1.8096  1.2873
 3219SOL     OW10555   4.019   5.695   5.709 -0.1315  0.0626 -0.0266
 3219SOL    HW110556   4.106   5.648   5.728  0.2188  0.4860 -0.5819
 3219SOL    HW210557   3.991   5.745   5.791 -0.6199 -1.2572  0.6553
 3220SOL     OW10558   0.728   0.393   0.995  0.5082 -0.0812 -0.6015
 3220SOL    HW110559   0.755   0.483   0.961 -0.7825 -0.5208 -3.0111
 3220SOL    HW210560   0.629   0.392   1.011  0.7333 -0.6543  0.8887
 3221SOL     OW10561   3.015   0.513   2.721  0.6820  0.8719  0.2813
 3221SOL    HW110562   2.992   0.465   2.805  1.7794  0.6235  0.4633
 3221SOL    HW210563   2.932   0.534   2.670  0.1425 -0.9935  0.3140
 3222SOL     OW10564   3.671   4.591   0.570 -0.2678  0.3078 -0.4765
 3222SOL    HW110565   3.725   4.507   0.566  2.0458  1.6703  0.0800
 3222SOL    HW210566   3.604   4.585   0.644  0.4023 -0.7434  0.0635
 3223SOL     OW10567   5.212   5.903   2.795 -0.2713 -0.4672 -0.0110
 3223SOL    HW110568   5.194   5.996   2.761  0.5223  0.3728  1.7089
 3223SOL    HW210569   5.308   5.895   2.820 -0.6830 -1.1650  1.4964
 3224SOL     OW10570   4.791   1.599   4.177  0.5497  0.1841 -0.6263
 3224SOL    HW110571   4.805   1.621   4.273  0.6082 -0.1022 -0.5690
 3224SOL    HW210572   4.774   1.501   4.167 -0.2079  0.3306 -0.8240
 3225SOL     OW10573   3.158   1.659   0.292 -0.1890 -0.4136  0.3911
 3225SOL    HW110574   3.110   1.693   0.212 -2.1030 -0.4402  1.4685
 3225SOL    HW210575   3.129   1.710   0.373  3.3888  1.2031  0.8477
 3226SOL     OW10576   6.649   2.567   4.157 -0.0432  0.2223  0.2130
 3226SOL    HW110577   6.688   2.476   4.169 -0.4163  0.1345  0.7888
 3226SOL    HW210578   6.657   2.619   4.242 -1.1824  0.1989  0.3513
 3227SOL     OW10579   4.825   5.820   4.803  0.2625  0.2333  0.1623
 3227SOL    HW110580   4.825   5.764   4.885 -1.7375  0.0820  0.0899
 3227SOL    HW210581   4.762   5.897   4.814  1.3679  1.2936 -0.5483
 3228SOL     OW10582   1.820   3.874   2.234  0.0173 -0.1101 -0.4646
 3228SOL    HW110583   1.896   3.938   2.240 -0.0305  0.3667 -3.2739
 3228SOL    HW210584   1.854   3.782   2.215 -0.0482  0.1963 -2.2488
 3229SOL     OW10585   3.617   0.489   3.246 -0.3783 -0.4996  0.3664
 3229SOL    HW110586   3.532   0.437   3.236 -0.1320 -1.2832  2.0636
 3229SOL    HW210587   3.657   0.472   3.336  0.6338  1.3040  0.3066
 3230SOL     OW10588   7.006   1.248   6.413  0.0497  0.3783 -0.0259
 3230SOL    HW110589   7.028   1.333   6.365 -3.1992  1.8540  0.8025
 3230SOL    HW210590   7.043   1.251   6.506  0.3899  0.6720 -0.1699
 3231SOL     OW10591   1.220   1.075   1.740 -0.2632  0.2857  0.0461
 3231SOL    HW110592   1.258   0.983   1.740  0.3150  0.4757  1.6895
 3231SOL    HW210593   1.243   1.121   1.655 -0.3119 -0.9861 -0.6730
 3232SOL     OW10594   3.326   4.608   0.204  0.1125 -0.0414  0.3458
 3232SOL    HW110595   3.378   4.531   0.166  0.6883  0.4518  0.1189
 3232SOL    HW210596   3.270   4.575   0.280 -1.1394 -1.0618 -0.9497
 3233SOL     OW10597   6.304   1.170   1.270  0.3046  0.0180 -0.0708
 3233SOL    HW110598   6.341   1.097   1.213 -0.7970 -0.7830  0.2010
 3233SOL    HW210599   6.266   1.242   1.212 -2.9799 -1.8633 -0.5505
 3234SOL     OW10600   2.058   0.381   2.627 -0.0541  0.0957 -0.0844
 3234SOL    HW110601   1.963   0.377   2.599 -0.3450  0.7554  0.7723
 3234SOL    HW210602   2.098   0.289   2.624 -0.4261 -0.0341 -1.3760
 3235SOL     OW10603   0.440   5.285   6.338 -0.4925 -1.0390  0.3661
 3235SOL    HW110604   0.348   5.324   6.342 -0.0609 -0.0941  2.9793
 3235SOL    HW210605   0.503   5.352   6.297 -0.7545 -1.2810 -0.4536
 3236SOL     OW10606   3.915   5.151   4.040  0.0458  0.5032 -0.4060
 3236SOL    HW110607   3.998   5.094   4.042 -1.2035 -1.4152 -0.4640
 3236SOL    HW210608   3.894   5.182   4.132 -0.2266 -0.6564 -0.0582
 3237SOL     OW10609   6.821   3.560   1.628 -0.3755 -0.0590 -1.0852
 3237SOL    HW110610   6.900   3.619   1.610 -0.6727  0.0578 -2.0355
 3237SOL    HW210611   6.840   3.468   1.592 -0.7405  0.0196 -1.4847
 3238SOL     OW10612   2.532   0.667   6.517  0.1575 -0.1321 -0.0769
 3238SOL    HW110613   2.488   0.645   6.430  0.4878 -0.3498 -0.1896
 3238SOL    HW210614   2.463   0.671   6.589 -0.2066  0.6683 -0.4578
 3239SOL     OW10615   3.902   1.557   6.171 -0.2513  0.1492  0.2171
 3239SOL    HW110616   3.843   1.615   6.228 -1.6859 -1.0410 -0.0157
 3239SOL    HW210617   3.846   1.507   6.105  0.8331 -2.2085  1.0081
 3240SOL     OW10618   4.336   4.486   6.979 -0.7651  0.2347  0.2088
 3240SOL    HW110619   4.335   4.399   7.029 -0.6192  1.0600  1.6965
 3240SOL    HW210620   4.277   4.552   7.026  1.5468  1.8983  0.9287
 3241SOL     OW10621   6.654   1.127   0.447 -0.2784  0.2888 -0.2668
 3241SOL    HW110622   6.631   1.077   0.531  0.3790 -1.2310 -0.9542
 3241SOL    HW210623   6.641   1.225   0.462  0.1189  0.0832  1.7018
 3242SOL     OW10624   4.353   5.027   4.285  0.3141  0.1593  0.1534
 3242SOL    HW110625   4.337   4.950   4.347  0.7589 -1.1123 -1.2473
 3242SOL    HW210626   4.450   5.032   4.261 -0.0830 -0.4916 -1.7808
 3243SOL     OW10627   2.108   0.172   0.763 -0.3728 -0.7328  0.1781
 3243SOL    HW110628   2.121   0.215   0.673  0.8056  1.5963  1.3611
 3243SOL    HW210629   2.054   0.234   0.821 -0.5674 -1.9082  1.2872
 3244SOL     OW10630   6.988   4.240   5.491  0.0561 -0.3039 -0.1601
 3244SOL    HW110631   7.041   4.310   5.443  1.7142 -0.1931  1.7077
 3244SOL    HW210632   6.896   4.276   5.511  0.4508  0.8570 -0.3330
 3245SOL     OW10633   1.581   2.540   1.798  0.0801  0.5101  0.2208
 3245SOL    HW110634   1.676   2.530   1.769 -0.1367  0.5105 -0.5119
 3245SOL    HW210635   1.551   2.634   1.782 -1.1322 -0.3048 -3.0376
 3246SOL     OW10636   5.878   6.973   2.455 -0.1648 -0.3338  0.1514
 3246SOL    HW110637   5.898   7.051   2.514  0.4871  1.8134 -2.7189
 3246SOL    HW210638   5.964   6.928   2.430 -0.3936 -0.8858  0.3418
 3247SOL     OW10639   4.329   4.542   1.015 -0.0834  0.3985  0.5222
 3247SOL    HW110640   4.386   4.573   1.090 -1.4474  1.2903  1.2347
 3247SOL    HW210641   4.348   4.446   0.995 -0.4840 -0.1819  2.7542
 3248SOL     OW10642   1.919   0.171   0.169  0.0555  0.1625  0.4050
 3248SOL    HW110643   1.984   0.131   0.234 -0.3330  1.0262  1.3496
 3248SOL    HW210644   1.942   0.268   0.155 -0.2579  0.1447 -0.2594
 3249SOL     OW10645   4.812   3.338   0.795 -0.2170 -1.0982  0.1734
 3249SOL    HW110646   4.848   3.262   0.740  0.4230 -1.0875  0.5581
 3249SOL    HW210647   4.876   3.358   0.869 -0.2367  0.0138 -0.0892
 3250SOL     OW10648   0.589   5.271   0.110  0.1814  0.1503  0.0592
 3250SOL    HW110649   0.625   5.364   0.112 -0.0017  0.2142  0.3726
 3250SOL    HW210650   0.637   5.218   0.040  0.2584  0.4920 -0.1463
 3251SOL     OW10651   6.502   4.127   5.303 -0.5024 -0.3002 -0.2348
 3251SOL    HW110652   6.574   4.096   5.365  0.0123  0.0624 -0.6451
 3251SOL    HW210653   6.494   4.064   5.226 -0.3107 -0.0921 -0.4253
 3252SOL     OW10654   0.536   3.322   6.146  0.3292  0.6769  0.8593
 3252SOL    HW110655   0.564   3.394   6.209 -0.5552  1.9163 -0.0955
 3252SOL    HW210656   0.461   3.356   6.089  1.1535 -0.3380 -0.9209
 3253SOL     OW10657   0.640   0.175   1.893  0.3457  0.0274 -0.3345
 3253SOL    HW110658   0.692   0.230   1.828  0.5921  2.0575  1.4607
 3253SOL    HW210659   0.545   0.204   1.893  0.6022  0.9834  1.0717
 3254SOL     OW10660   5.136   5.607   0.048  0.1137  0.1636 -0.5117
 3254SOL    HW110661   5.071   5.630   0.121 -0.2038  0.3353 -0.8440
 3254SOL    HW210662   5.191   5.528   0.076  0.8954  1.0186  0.4575
 3255SOL     OW10663   3.362   4.553   5.564 -0.3057 -0.6027 -0.1344
 3255SOL    HW110664   3.391   4.464   5.599 -2.2462 -1.0743  0.3876
 3255SOL    HW210665   3.286   4.541   5.501 -1.0388  0.7160  0.4515
 3256SOL     OW10666   4.374   6.629   4.658  0.0229  0.3589 -0.3008
 3256SOL    HW110667   4.366   6.720   4.698 -0.0860  0.4578 -0.5431
 3256SOL    HW210668   4.332   6.562   4.719  0.2663  0.4462 -0.0375
 3257SOL     OW10669   2.376   5.345   6.661 -0.5815 -0.0075 -0.1787
 3257SOL    HW110670   2.315   5.304   6.593 -1.3174  1.2211 -0.2795
 3257SOL    HW210671   2.340   5.327   6.753 -0.1069 -0.8272 -0.1376
 3258SOL     OW10672   5.786   3.957   5.877  0.4882  0.1542 -0.6861
 3258SOL    HW110673   5.824   3.868   5.905  1.6078  0.7100 -0.3557
 3258SOL    HW210674   5.848   4.000   5.812 -0.8806 -0.0248 -2.1653
 3259SOL     OW10675   1.557   1.328   6.252  0.0827 -0.2961  0.1249
 3259SOL    HW110676   1.558   1.405   6.188  0.5946 -0.8686 -0.5757
 3259SOL    HW210677   1.505   1.253   6.213  1.8031 -1.2632 -0.3792
 3260SOL     OW10678   1.593   1.286   5.836 -0.0307 -0.3239 -0.2373
 3260SOL    HW110679   1.541   1.239   5.765 -0.1974  0.6961 -0.8015
 3260SOL    HW210680   1.654   1.221   5.881  1.2026 -0.6789 -2.3314
 3261SOL     OW10681   5.433   5.087   2.794  0.7726 -0.6950 -0.2890
 3261SOL    HW110682   5.425   5.016   2.723  0.5776  0.5860 -1.6081
 3261SOL    HW210683   5.366   5.069   2.866  1.1372 -2.1700 -0.2774
 3262SOL     OW10684   5.763   4.909   4.794 -0.6001 -0.2725 -0.1271
 3262SOL    HW110685   5.703   4.896   4.873  0.0427 -0.2269  0.3783
 3262SOL    HW210686   5.770   4.823   4.744 -2.5395  0.1651 -1.2669
 3263SOL     OW10687   6.428   5.973   2.472  0.6368  0.2217 -0.2208
 3263SOL    HW110688   6.380   5.885   2.468  0.2041  0.3146  1.6668
 3263SOL    HW210689   6.366   6.045   2.443  0.2948  0.1057  0.1982
 3264SOL     OW10690   2.617   4.539   6.592  0.1740  0.4933  0.2487
 3264SOL    HW110691   2.583   4.465   6.534  0.4332  0.6026 -0.0467
 3264SOL    HW210692   2.695   4.505   6.646  0.9812  0.8287 -0.6674
 3265SOL     OW10693   1.406   0.341   1.571 -0.1032  0.2269  0.1619
 3265SOL    HW110694   1.390   0.243   1.557 -1.5584  0.4759 -0.0626
 3265SOL    HW210695   1.319   0.387   1.584  0.5938  1.4581  0.5761
 3266SOL     OW10696   5.451   1.297   3.466 -0.5417 -0.4240 -0.0327
 3266SOL    HW110697   5.362   1.252   3.458 -0.7395  0.0787 -0.7549
 3266SOL    HW210698   5.503   1.284   3.382 -0.3356  0.1235  0.0012
 3267SOL     OW10699   2.797   5.654   4.709 -0.7878 -0.4956 -0.2145
 3267SOL    HW110700   2.744   5.570   4.697  1.4495 -2.0600  0.2599
 3267SOL    HW210701   2.844   5.677   4.623  1.0034 -1.5012  0.4552
 3268SOL     OW10702   6.776   3.178   6.410 -0.8958 -0.0902  0.7065
 3268SOL    HW110703   6.761   3.245   6.483  1.0591 -0.8387  1.8917
 3268SOL    HW210704   6.811   3.093   6.450  0.0635 -0.5789 -1.0741
 3269SOL     OW10705   0.104   0.338   3.609 -0.0119 -0.3981  0.1246
 3269SOL    HW110706   0.096   0.417   3.671 -0.4237 -1.3535  1.3333
 3269SOL    HW210707   0.016   0.321   3.565 -0.4728 -1.3117  1.3324
 3270SOL     OW10708   5.526   1.570   0.035 -0.6846 -0.1429  0.0154
 3270SOL    HW110709   5.483   1.489   0.073  2.3306 -1.4251  0.9956
 3270SOL    HW210710   5.584   1.544  -0.043 -0.0455  1.1175  0.0431
 3271SOL     OW10711   1.784   1.789   3.475  0.5855 -0.2525 -0.7315
 3271SOL    HW110712   1.871   1.763   3.518  0.0891 -0.6788  0.0562
 3271SOL    HW210713   1.741   1.707   3.435  0.6585 -0.0008 -1.3331
 3272SOL     OW10714   5.604   5.979   1.555  0.6151  0.2425  0.1201
 3272SOL    HW110715   5.565   6.026   1.475 -1.0546  1.4224  1.5471
 3272SOL    HW210716   5.701   6.000   1.562  0.4501  1.4200 -0.7333
 3273SOL     OW10717   3.455   4.224   1.519  0.0755 -0.3525  0.4565
 3273SOL    HW110718   3.407   4.308   1.546 -1.2481 -1.3976  1.5610
 3273SOL    HW210719   3.389   4.160   1.479  1.0997 -0.8054 -0.5662
 3274SOL     OW10720   5.596   2.978   6.612 -0.7635 -0.0719 -0.3709
 3274SOL    HW110721   5.672   2.918   6.588 -0.9199 -0.7647  0.7848
 3274SOL    HW210722   5.600   3.000   6.710 -0.5506  2.0523 -0.8104
 3275SOL     OW10723   6.676   5.372   4.782 -0.1723  0.1264  0.0689
 3275SOL    HW110724   6.590   5.324   4.766 -0.2447 -0.4515  1.9195
 3275SOL    HW210725   6.749   5.306   4.800  0.2953  0.6479  0.1325
 3276SOL     OW10726   0.851   4.427   2.887 -0.0927 -0.1780 -0.4518
 3276SOL    HW110727   0.932   4.408   2.942 -0.3145 -1.2327 -0.4850
 3276SOL    HW210728   0.871   4.411   2.790 -0.1570  0.1842 -0.5285
 3277SOL     OW10729   1.196   5.471   5.691  0.3344 -0.0071 -0.4621
 3277SOL    HW110730   1.144   5.411   5.630  1.1583 -0.6318 -0.5704
 3277SOL    HW210731   1.289   5.434   5.703  0.2396  0.1698  1.0476
 3278SOL     OW10732   6.775   5.038   1.311 -0.0204  0.0257 -0.6399
 3278SOL    HW110733   6.723   4.998   1.235  0.9678 -1.8186 -0.3964
 3278SOL    HW210734   6.786   4.970   1.383  3.0687  0.1527 -0.8658
 3279SOL     OW10735   4.692   2.178   1.056  0.6043 -0.4349 -0.2838
 3279SOL    HW110736   4.675   2.100   1.116 -0.8511  0.0117 -0.0769
 3279SOL    HW210737   4.666   2.154   0.963 -2.5685  0.6075  0.2119
 3280SOL     OW10738   4.987   1.628   0.245 -0.1809  0.1851  0.6978
 3280SOL    HW110739   5.040   1.543   0.246 -1.5458 -0.6920  0.2014
 3280SOL    HW210740   5.047   1.704   0.221  0.9891 -0.6786  0.7966
 3281SOL     OW10741   6.205   0.375   4.257 -0.0202  0.4208  0.3923
 3281SOL    HW110742   6.281   0.388   4.194 -0.6635 -0.5508 -0.6188
 3281SOL    HW210743   6.131   0.437   4.233 -0.9577 -1.1497 -0.9837
 3282SOL     OW10744   0.182   6.232   3.499 -0.1057  0.6227 -0.1193
 3282SOL    HW110745   0.083   6.236   3.487  0.2186  3.1208 -3.5330
 3282SOL    HW210746   0.210   6.301   3.566 -0.5763  1.1529 -0.4561
 3283SOL     OW10747   1.517   4.675   0.283 -0.5147  0.0970 -0.4162
 3283SOL    HW110748   1.535   4.772   0.296 -1.1847  0.4300 -1.7327
 3283SOL    HW210749   1.421   4.662   0.258 -0.6558 -1.0023  0.6054
 3284SOL     OW10750   1.760   1.884   5.632  0.1023 -0.0161 -0.3014
 3284SOL    HW110751   1.687   1.893   5.699  1.7314 -1.3899  1.7978
 3284SOL    HW210752   1.724   1.847   5.547 -1.4612 -2.0006  1.1371
 3285SOL     OW10753   3.881   3.124   6.177  0.1303 -0.0499  0.0133
 3285SOL    HW110754   3.791   3.158   6.205  0.2299 -1.3775  2.2146
 3285SOL    HW210755   3.929   3.195   6.126 -2.1999  0.6216 -1.3971
 3286SOL     OW10756   3.775   5.442   6.993  0.3491 -0.2007  0.0470
 3286SOL    HW110757   3.747   5.508   7.063  1.9534 -2.7540  3.3314
 3286SOL    HW210758   3.869   5.461   6.965 -0.1187  0.4983 -1.1765
 3287SOL     OW10759   0.705   0.701   6.204  0.0653  0.3628 -0.6472
 3287SOL    HW110760   0.690   0.709   6.302  1.5848 -0.5651 -0.2999
 3287SOL    HW210761   0.634   0.645   6.163  1.0988 -1.8696  0.4786
 3288SOL     OW10762   1.817   0.683   6.002  0.1450 -0.2187  0.2262
 3288SOL    HW110763   1.828   0.665   6.100 -2.7786 -0.3020  0.6446
 3288SOL    HW210764   1.886   0.748   5.972  0.3871  0.7549  2.6484
 3289SOL     OW10765   7.011   1.507   6.988 -0.0067  0.7908 -0.4123
 3289SOL    HW110766   7.069   1.447   6.933 -0.5389  0.7240 -0.9058
 3289SOL    HW210767   7.020   1.483   7.084 -1.3863 -1.1247 -0.7101
 3290SOL     OW10768   1.577   5.335   2.555  0.2509 -0.7738  0.2060
 3290SOL    HW110769   1.619   5.342   2.645  2.1227 -0.7099 -0.6271
 3290SOL    HW210770   1.489   5.383   2.555  1.3197  1.3155  1.3661
 3291SOL     OW10771   2.591   2.123   0.009  0.4197 -0.1830  0.0705
 3291SOL    HW110772   2.600   2.106   0.107 -1.2015 -2.2679 -0.0428
 3291SOL    HW210773   2.494   2.121  -0.016  0.5289  3.5123 -1.1395
 3292SOL     OW10774   2.460   0.602   1.012  0.2039 -0.5044 -0.0015
 3292SOL    HW110775   2.475   0.700   1.030  1.0262 -0.0462 -2.7354
 3292SOL    HW210776   2.361   0.586   1.001  0.1826  0.4187 -1.3533
 3293SOL     OW10777   5.224   2.630   0.712 -0.6547  0.0198  0.5099
 3293SOL    HW110778   5.175   2.543   0.721  0.2939 -0.4871  0.9456
 3293SOL    HW210779   5.182   2.685   0.640 -0.4162 -1.4122 -0.7770
 3294SOL     OW10780   5.745   2.088   4.509 -0.0567 -0.2355  0.4344
 3294SOL    HW110781   5.824   2.143   4.482 -0.6002  1.0956  1.4009
 3294SOL    HW210782   5.684   2.077   4.431  0.0737  0.5578  0.2099
 3295SOL     OW10783   6.282   1.668   6.210 -0.4425 -0.2532  0.3750
 3295SOL    HW110784   6.249   1.595   6.270 -0.2528  0.1310  0.9508
 3295SOL    HW210785   6.251   1.756   6.245 -0.0489 -0.0009  0.0957
 3296SOL     OW10786   6.289   1.658   4.817  0.5787  0.6214 -1.4601
 3296SOL    HW110787   6.232   1.578   4.833  1.5359 -0.5190 -3.3598
 3296SOL    HW210788   6.357   1.637   4.747  1.6758  2.7322 -1.1240
 3297SOL     OW10789   5.717   2.571   2.209  0.0736 -0.5307 -0.2453
 3297SOL    HW110790   5.620   2.593   2.198 -0.3866 -1.6222  1.3034
 3297SOL    HW210791   5.771   2.655   2.206 -0.9082  0.0943 -1.0881
 3298SOL     OW10792   4.752   5.726   0.559 -0.3676 -0.2052 -0.6895
 3298SOL    HW110793   4.711   5.640   0.591  0.3941 -0.1263  0.5838
 3298SOL    HW210794   4.689   5.801   0.575  0.3583 -0.0162  1.6748
 3299SOL     OW10795   2.870   6.769   1.516  0.5634  0.0761 -0.3853
 3299SOL    HW110796   2.872   6.865   1.487 -0.1818  0.0635 -0.4992
 3299SOL    HW210797   2.833   6.712   1.442 -1.0545  0.0009  0.4371
 3300SOL     OW10798   4.311   3.147   1.127 -0.4980 -0.1010  0.5280
 3300SOL    HW110799   4.368   3.228   1.115  1.6647 -1.5194  0.6378
 3300SOL    HW210800   4.253   3.134   1.047 -0.3118  1.1009  0.1812
 3301SOL     OW10801   5.806   5.223   6.546  0.3806 -0.1074  0.4915
 3301SOL    HW110802   5.773   5.131   6.569  0.1135 -0.0001  0.5367
 3301SOL    HW210803   5.740   5.268   6.486  0.9908 -0.3252 -0.3600
 3302SOL     OW10804   5.594   6.633   1.989 -0.4506  0.0052 -0.1327
 3302SOL    HW110805   5.520   6.656   1.926 -0.3891 -0.6644 -0.4595
 3302SOL    HW210806   5.668   6.587   1.939  0.6182  1.5153  0.0093
 3303SOL     OW10807   6.747   1.967   3.772 -0.4002 -0.3753  0.5677
 3303SOL    HW110808   6.754   1.907   3.692 -0.0979  0.5801 -0.1302
 3303SOL    HW210809   6.654   2.000   3.782 -0.0627  0.9674 -0.4867
 3304SOL     OW10810   3.454   3.435   0.979 -0.2408 -1.2165  0.1037
 3304SOL    HW110811   3.383   3.399   0.918  0.4397 -2.3295 -0.0599
 3304SOL    HW210812   3.411   3.487   1.053 -1.2300 -1.9630  0.0750
 3305SOL     OW10813   2.363   0.800   6.993  0.4086  0.2230 -0.6674
 3305SOL    HW110814   2.337   0.807   6.897  1.0772  0.5988 -0.8312
 3305SOL    HW210815   2.413   0.883   7.019  0.7678 -0.1506 -0.1667
 3306SOL     OW10816   0.835   4.127   6.255  0.1668 -0.1978  0.1022
 3306SOL    HW110817   0.894   4.099   6.180 -0.3963  0.6553 -0.6799
 3306SOL    HW210818   0.749   4.077   6.251  1.3539 -2.6000  2.1548
 3307SOL     OW10819   5.551   5.390   5.052 -0.2554 -0.0280  0.7865
 3307SOL    HW110820   5.497   5.306   5.050 -0.3349 -0.0541  2.5864
 3307SOL    HW210821   5.550   5.429   5.144  3.0185 -0.2154  1.0479
 3308SOL     OW10822   5.571   5.441   3.195 -0.2693  0.0779 -0.5929
 3308SOL    HW110823   5.571   5.353   3.147  0.0800 -0.1040 -0.2638
 3308SOL    HW210824   5.530   5.429   3.286 -1.6909  0.5942 -1.1481
 3309SOL     OW10825   1.577   0.548   0.830 -0.2476  0.5516 -0.0563
 3309SOL    HW110826   1.504   0.548   0.898 -0.0339 -1.3272  0.2040
 3309SOL    HW210827   1.538   0.541   0.738 -0.4093 -1.1679  0.1179
 3310SOL     OW10828   1.239   2.285   6.812  0.3081 -0.2869 -0.3992
 3310SOL    HW110829   1.171   2.337   6.759  1.3663  3.2780  1.4023
 3310SOL    HW210830   1.327   2.289   6.765 -0.0355 -2.6502 -1.4057
 3311SOL     OW10831   3.335   4.800   5.272  1.0594 -0.0618 -0.4167
 3311SOL    HW110832   3.282   4.772   5.352  0.9622 -0.0519 -0.4780
 3311SOL    HW210833   3.277   4.796   5.191  1.4283 -1.0592 -0.6466
 3312SOL     OW10834   0.725   1.438   0.140  0.6902  0.4984 -0.0216
 3312SOL    HW110835   0.754   1.364   0.201  1.5622 -0.5708 -1.6798
 3312SOL    HW210836   0.688   1.513   0.195 -0.3328 -1.1789  1.7139
 3313SOL     OW10837   0.244   6.137   1.104 -0.0771  0.1143  0.6892
 3313SOL    HW110838   0.199   6.134   1.015 -0.3942  0.1489  0.8462
 3313SOL    HW210839   0.343   6.135   1.092 -0.0427  2.2434  0.2326
 3314SOL     OW10840   1.261   0.982   6.922  0.4278 -0.2158 -0.0897
 3314SOL    HW110841   1.359   0.972   6.938  0.6252  0.4318 -0.8524
 3314SOL    HW210842   1.241   1.075   6.893 -1.1963  1.6003  5.5817
 3315SOL     OW10843   5.860   0.201   3.434 -0.2880 -0.7859  0.5133
 3315SOL    HW110844   5.851   0.158   3.344  1.9258 -0.6141  0.1505
 3315SOL    HW210845   5.825   0.140   3.504 -0.0887 -1.8449 -0.2898
 3316SOL     OW10846   3.558   1.715   5.080  0.3268  0.1480  0.2711
 3316SOL    HW110847   3.540   1.617   5.081  0.4460  0.1252  0.3011
 3316SOL    HW210848   3.644   1.733   5.031  1.3529  0.0374  1.9375
 3317SOL     OW10849   2.677   1.307   0.677 -0.2576  0.2860 -0.2390
 3317SOL    HW110850   2.584   1.337   0.700  0.2638  0.8954  1.1526
 3317SOL    HW210851   2.672   1.226   0.618 -1.6637  0.5468 -0.5282
 3318SOL     OW10852   4.710   2.509   5.650  0.6292  0.1291 -0.3961
 3318SOL    HW110853   4.725   2.597   5.695 -0.0853  0.2967 -0.4851
 3318SOL    HW210854   4.745   2.513   5.556  3.3480 -0.6259  0.4722
 3319SOL     OW10855   4.539   4.647   6.551 -0.0119  0.3833  0.3836
 3319SOL    HW110856   4.609   4.688   6.610 -1.1910  2.0760  0.7009
 3319SOL    HW210857   4.510   4.715   6.483  1.0118 -1.3851 -1.9444
 3320SOL     OW10858   4.548   4.799   2.375 -0.6876 -0.2299  0.0411
 3320SOL    HW110859   4.611   4.722   2.372  0.7482  0.8456  1.2187
 3320SOL    HW210860   4.470   4.781   2.315  0.2699 -1.9895 -0.7344
 3321SOL     OW10861   6.649   0.033   3.823  0.0543  0.0482  0.2833
 3321SOL    HW110862   6.646   0.084   3.737  0.4649 -1.5451 -0.7236
 3321SOL    HW210863   6.574  -0.033   3.825 -0.3210  0.4879  1.4436
 3322SOL     OW10864   5.937   2.049   2.266 -0.5459 -0.1564 -0.4167
 3322SOL    HW110865   6.012   2.044   2.331 -0.3414 -1.9760 -0.7495
 3322SOL    HW210866   5.904   2.143   2.261  0.1734  0.2385  1.4499
 3323SOL     OW10867   2.812   0.276   1.961 -0.0517 -0.1829  0.0841
 3323SOL    HW110868   2.713   0.287   1.975 -0.1899 -0.5219 -0.6135
 3323SOL    HW210869   2.829   0.190   1.913  0.6729 -0.7107  1.2334
 3324SOL     OW10870   6.485   2.660   0.045  0.1062  0.1412  0.0102
 3324SOL    HW110871   6.418   2.586   0.051  3.3356 -3.0497  0.4291
 3324SOL    HW210872   6.505   2.681  -0.050 -0.3646  0.0317 -0.1127
 3325SOL     OW10873   1.989   5.292   0.081  0.4550  0.3771 -0.4617
 3325SOL    HW110874   1.897   5.258   0.061  0.3951  0.6166 -0.6022
 3325SOL    HW210875   2.027   5.242   0.159  0.4790 -0.1941 -0.8324
 3326SOL     OW10876   2.968   3.275   3.593 -0.1063  0.0151 -0.1791
 3326SOL    HW110877   2.950   3.279   3.691 -1.4653  0.6525 -0.4319
 3326SOL    HW210878   2.953   3.365   3.552 -2.5763 -0.8639 -1.4247
 3327SOL     OW10879   4.448   5.850   3.357  0.0609 -0.2126  0.1146
 3327SOL    HW110880   4.461   5.942   3.320  1.4572 -0.7054 -0.7121
 3327SOL    HW210881   4.369   5.807   3.314 -0.4414  0.5075  0.3146
 3328SOL     OW10882   3.479   1.818   4.103 -0.4269  0.4222 -0.3253
 3328SOL    HW110883   3.473   1.817   4.203 -1.3679 -0.0296 -0.3797
 3328SOL    HW210884   3.566   1.778   4.074  1.3134  3.3767  0.3927
 3329SOL     OW10885   4.767   6.098   3.672  0.0275 -0.3163  0.1917
 3329SOL    HW110886   4.863   6.116   3.694 -0.1003 -0.6044  1.0299
 3329SOL    HW210887   4.740   6.151   3.592  0.5331  0.7391  0.7119
 3330SOL     OW10888   6.609   4.478   5.281  0.1874 -0.0226 -0.7647
 3330SOL    HW110889   6.709   4.468   5.280  0.2132  0.2088 -0.6186
 3330SOL    HW210890   6.577   4.503   5.190  0.2061 -0.6176 -0.9386
 3331SOL     OW10891   4.888   3.042   5.288 -0.2767  0.0808 -0.3179
 3331SOL    HW110892   4.869   3.079   5.197  0.3766  0.0441 -0.4805
 3331SOL    HW210893   4.817   2.977   5.313 -1.4060  1.3707 -0.0575
 3332SOL     OW10894   1.174   0.183   6.628  0.5063 -0.1215  0.3757
 3332SOL    HW110895   1.179   0.258   6.562  0.3829  0.6812  1.2448
 3332SOL    HW210896   1.260   0.133   6.628  0.6057  0.0422 -0.1946
 3333SOL     OW10897   2.335   2.178   2.845 -0.4237 -0.0395  0.2074
 3333SOL    HW110898   2.298   2.202   2.935  0.7032  1.7968  0.2379
 3333SOL    HW210899   2.427   2.140   2.856  0.4825  1.9294 -0.2317
 3334SOL     OW10900   0.761   3.095   1.989  0.0244  0.1662  0.3209
 3334SOL    HW110901   0.745   3.087   2.087 -0.0053 -0.4719  0.2723
 3334SOL    HW210902   0.707   3.026   1.941  0.9196 -0.2935 -0.0524
 3335SOL     OW10903   4.753   4.646   6.141  0.1528  0.1071 -0.6276
 3335SOL    HW110904   4.787   4.614   6.229 -0.4376 -0.8507 -0.7434
 3335SOL    HW210905   4.653   4.642   6.140  0.1272  0.6758 -1.1375
 3336SOL     OW10906   4.409   0.040   1.630 -0.0152  0.2639  0.2965
 3336SOL    HW110907   4.326   0.077   1.671 -0.0008  0.5889  0.0411
 3336SOL    HW210908   4.414   0.067   1.533  0.9104  1.1759  0.5683
 3337SOL     OW10909   1.231   5.128   6.788 -0.3064  0.2611 -0.2910
 3337SOL    HW110910   1.167   5.051   6.796  0.3069 -0.1859  0.3819
 3337SOL    HW210911   1.256   5.140   6.692 -2.0838  1.0157 -0.7088
 3338SOL     OW10912   6.471   2.820   4.251 -0.2026 -0.7053 -0.3742
 3338SOL    HW110913   6.507   2.906   4.216  1.1203 -0.8719  0.5170
 3338SOL    HW210914   6.424   2.771   4.178  0.9336 -0.2306 -1.4507
 3339SOL     OW10915   3.393   0.124   3.597  0.1420  0.3404 -0.1648
 3339SOL    HW110916   3.377   0.188   3.672  0.1762  0.4702 -0.2690
 3339SOL    HW210917   3.313   0.065   3.586  0.4019 -0.1230  0.4102
 3340SOL     OW10918   3.977   3.325   4.948 -0.3276 -0.2233  0.0525
 3340SOL    HW110919   3.905   3.387   4.980  0.5401  0.3932  0.8732
 3340SOL    HW210920   4.064   3.373   4.945 -0.2657 -0.3429 -3.0324
 3341SOL     OW10921   1.157   6.951   3.137  0.3565  0.4397 -0.0676
 3341SOL    HW110922   1.138   7.043   3.170  0.0757  0.7515 -1.0387
 3341SOL    HW210923   1.199   6.956   3.046 -0.0722 -0.3902 -0.3281
 3342SOL     OW10924   4.738   2.810   5.413 -0.1259 -0.3989 -0.6648
 3342SOL    HW110925   4.659   2.871   5.403 -0.0236 -0.2511 -0.5783
 3342SOL    HW210926   4.718   2.740   5.482  1.1064  1.7827  2.0857
 3343SOL     OW10927   2.716   1.314   1.756  0.3028  0.1397  0.1933
 3343SOL    HW110928   2.755   1.336   1.846 -0.0588 -0.0299  0.3920
 3343SOL    HW210929   2.752   1.378   1.688 -1.1394  1.7546  0.8606
 3344SOL     OW10930   3.427   5.617   0.657  0.3580  0.5901 -0.1429
 3344SOL    HW110931   3.436   5.653   0.750  1.0676  2.0434 -0.7364
 3344SOL    HW210932   3.512   5.634   0.607  0.7532 -2.0317 -0.4671
 3345SOL     OW10933   6.422   2.915   3.809  0.2017 -0.2136 -0.1029
 3345SOL    HW110934   6.342   2.956   3.853 -0.2121 -1.2415  0.1357
 3345SOL    HW210935   6.440   2.825   3.850  1.3531 -0.0899 -0.3062
 3346SOL     OW10936   1.548   1.642   6.314  0.1898 -0.3218 -0.8063
 3346SOL    HW110937   1.468   1.597   6.354  0.0546  0.2028 -0.4711
 3346SOL    HW210938   1.625   1.633   6.377 -0.2176  1.1420 -0.0682
 3347SOL     OW10939   0.728   2.104   5.819 -0.1969 -0.4005  0.1809
 3347SOL    HW110940   0.675   2.034   5.770  0.1973 -0.3900 -0.2657
 3347SOL    HW210941   0.719   2.191   5.771  1.1071 -0.6341 -0.5387
 3348SOL     OW10942   3.582   2.866   3.370  0.0376  0.4031  0.6738
 3348SOL    HW110943   3.523   2.856   3.451  1.0753  1.2779  1.5775
 3348SOL    HW210944   3.654   2.933   3.390 -0.3200  1.4545 -1.3715
 3349SOL     OW10945   2.834   1.240   4.448 -0.2608  0.3574 -0.0325
 3349SOL    HW110946   2.756   1.188   4.414  0.3444  0.2293 -1.2566
 3349SOL    HW210947   2.834   1.331   4.406  0.5820  0.1441 -0.5112
 3350SOL     OW10948   1.961   1.445   3.016  0.0727  0.4018  0.1605
 3350SOL    HW110949   2.012   1.395   3.085 -0.7772  1.3816  1.5607
 3350SOL    HW210950   1.989   1.416   2.925  0.5997 -1.5679  0.9127
 3351SOL     OW10951   6.684   5.979   6.811  0.0001  0.7857 -0.1947
 3351SOL    HW110952   6.716   6.062   6.766 -1.5672  0.8092 -1.3341
 3351SOL    HW210953   6.707   5.899   6.755 -0.2210  0.6379 -0.0784
 3352SOL     OW10954   3.481   0.127   5.043 -0.8537  0.2519 -0.0248
 3352SOL    HW110955   3.400   0.182   5.062  0.6332  1.5157  3.6396
 3352SOL    HW210956   3.557   0.188   5.018 -0.1390 -0.5195  0.2289
 3353SOL     OW10957   6.534   6.309   2.135  0.4342  0.6899 -0.1481
 3353SOL    HW110958   6.511   6.229   2.079  1.4452  1.0505 -1.1226
 3353SOL    HW210959   6.473   6.385   2.110  0.0912  0.4963  0.1027
 3354SOL     OW10960   1.747   3.538   0.899 -0.4049  0.0818 -0.0261
 3354SOL    HW110961   1.843   3.567   0.904 -0.8488  1.6224  0.2966
 3354SOL    HW210962   1.700   3.566   0.983 -1.3497  0.1994 -0.5828
 3355SOL     OW10963   6.299   3.821   0.698 -0.3163  0.3057 -0.5833
 3355SOL    HW110964   6.297   3.806   0.599 -2.1857 -1.4557 -0.3520
 3355SOL    HW210965   6.390   3.800   0.733  0.0112 -0.3338 -1.7552
 3356SOL     OW10966   1.806   4.125   3.123  0.4341 -0.0385  0.1467
 3356SOL    HW110967   1.717   4.080   3.124  1.4892 -2.4119 -1.5750
 3356SOL    HW210968   1.804   4.203   3.060 -0.2016 -0.6144 -0.5614
 3357SOL     OW10969   6.627   3.354   0.298  0.0146 -0.3592 -0.4150
 3357SOL    HW110970   6.678   3.439   0.282  1.0447 -1.0581 -0.9089
 3357SOL    HW210971   6.648   3.320   0.390  0.3779 -0.6022 -0.5869
 3358SOL     OW10972   4.183   5.013   4.000  0.0310 -0.1069  0.0163
 3358SOL    HW110973   4.155   4.923   3.967 -0.3673 -0.4390  1.2191
 3358SOL    HW210974   4.268   5.004   4.052 -0.3528  0.0990  0.6947
 3359SOL     OW10975   2.236   6.243   6.225  0.2858  0.6133  0.4588
 3359SOL    HW110976   2.308   6.312   6.239  0.8511  0.5284 -1.7145
 3359SOL    HW210977   2.165   6.281   6.166 -1.0366  0.3633  1.8230
 3360SOL     OW10978   5.262   2.026   4.363 -0.3110 -0.1911 -0.4758
 3360SOL    HW110979   5.203   2.059   4.290 -0.8709  0.3562  0.2022
 3360SOL    HW210980   5.231   1.936   4.393 -1.1301  0.3040  0.2095
 3361SOL     OW10981   6.665   1.957   4.725  0.1984 -0.5335 -0.1290
 3361SOL    HW110982   6.749   2.004   4.696 -0.2384 -0.0846 -0.7108
 3361SOL    HW210983   6.688   1.882   4.786  0.9083  0.5659  1.0111
 3362SOL     OW10984   1.085   4.351   0.280 -0.3381  0.3091 -0.5425
 3362SOL    HW110985   1.037   4.264   0.266  2.5767 -1.3274 -1.2664
 3362SOL    HW210986   1.055   4.392   0.366 -2.0293 -1.2510 -0.3277
 3363SOL     OW10987   6.377   5.595   5.388  0.0490 -0.1141  0.1561
 3363SOL    HW110988   6.449   5.664   5.380  1.1018 -1.1246  0.5963
 3363SOL    HW210989   6.375   5.538   5.306  0.2070 -0.5068  0.4190
 3364SOL     OW10990   6.218   2.750   0.028 -0.7718  0.1450 -0.3710
 3364SOL    HW110991   6.226   2.660  -0.014 -2.2300 -0.7329  1.1294
 3364SOL    HW210992   6.309   2.783   0.055 -0.4624 -2.8125  2.8669
 3365SOL     OW10993   5.141   5.782   2.302 -0.5553  0.1190  0.9196
 3365SOL    HW110994   5.112   5.727   2.380  0.2207 -0.0445  1.1083
 3365SOL    HW210995   5.192   5.862   2.335 -0.6720  0.3269  0.6023
 3366SOL     OW10996   4.667   4.756   4.468  0.4006  1.2281  0.6176
 3366SOL    HW110997   4.592   4.709   4.513 -0.6879  1.6458 -0.6975
 3366SOL    HW210998   4.648   4.854   4.465 -0.6176  1.0407 -2.5251
 3367SOL     OW10999   1.609   0.296   1.781 -0.5846  0.6836  0.1602
 3367SOL    HW111000   1.573   0.342   1.700 -2.0784 -1.7363 -0.6587
 3367SOL    HW211001   1.538   0.237   1.820  1.3109 -1.2577  0.8653
 3368SOL     OW11002   1.092   0.702   2.487  0.5441  0.7360  0.3811
 3368SOL    HW111003   1.116   0.699   2.390 -1.1704  1.0188 -0.0870
 3368SOL    HW211004   1.141   0.630   2.536  1.0876  0.2941 -0.7677
 3369SOL     OW11005   1.217   0.545   6.207  0.1703 -0.7303 -0.0309
 3369SOL    HW111006   1.315   0.527   6.199  0.3286  0.0408  0.0906
 3369SOL    HW211007   1.179   0.493   6.283  0.2331 -1.9940 -0.8377
 3370SOL     OW11008   4.608   3.698   0.863  0.7294 -0.6026  0.0474
 3370SOL    HW111009   4.641   3.740   0.948 -0.0503 -1.5743  0.8544
 3370SOL    HW211010   4.536   3.756   0.823  0.0823 -0.8441  0.8354
 3371SOL     OW11011   0.090   5.005   0.782  0.2666  0.1499  0.1167
 3371SOL    HW111012   0.066   5.102   0.792  1.5048  0.4239  0.6581
 3371SOL    HW211013   0.013   4.955   0.743 -0.4208  1.3385 -0.0900
 3372SOL     OW11014   0.361   0.358   5.126  0.3721 -0.2245  0.4563
 3372SOL    HW111015   0.393   0.296   5.197 -1.7674  0.6079  2.2751
 3372SOL    HW211016   0.428   0.431   5.113  1.6244 -1.3755  0.2633
 3373SOL     OW11017   3.519   5.891   6.465  0.1510  0.5740  0.9010
 3373SOL    HW111018   3.474   5.938   6.389  1.6969  0.1206 -0.3493
 3373SOL    HW211019   3.473   5.915   6.551 -2.5678 -0.0172 -0.2690
 3374SOL     OW11020   0.080   4.576   6.287  0.3524 -0.1517 -0.2620
 3374SOL    HW111021   0.157   4.637   6.265 -0.6556  2.0974  1.9508
 3374SOL    HW211022   0.014   4.578   6.212  1.4668 -0.4681 -1.2780
 3375SOL     OW11023   0.999   2.121   5.193 -0.3638 -0.8757 -0.4432
 3375SOL    HW111024   0.928   2.190   5.206  0.4012 -0.4266  1.8441
 3375SOL    HW211025   1.070   2.133   5.262  0.6024 -2.9956 -0.9844
 3376SOL     OW11026   1.338   0.442   5.829 -0.0602  0.1926 -0.3372
 3376SOL    HW111027   1.373   0.349   5.838  0.0486  0.2794  0.1671
 3376SOL    HW211028   1.253   0.451   5.882  0.1051  0.4695 -0.1172
 3377SOL     OW11029   4.463   5.778   4.780 -0.7398  0.0565  0.1249
 3377SOL    HW111030   4.364   5.770   4.769 -0.8178  0.9198  0.1693
 3377SOL    HW211031   4.486   5.869   4.813 -0.3295 -1.4077  4.6928
 3378SOL     OW11032   4.909   1.867   4.781  0.1103 -0.4650 -0.0464
 3378SOL    HW111033   4.998   1.875   4.826  0.2029  1.5804 -0.4969
 3378SOL    HW211034   4.837   1.900   4.842  0.1020  1.2088 -0.8948
 3379SOL     OW11035   3.630   5.320   6.737  0.2775  0.0874  0.1701
 3379SOL    HW111036   3.715   5.330   6.790  1.1489  0.1908 -1.2017
 3379SOL    HW211037   3.569   5.396   6.757  1.6525  1.5121 -0.8347
 3380SOL     OW11038   1.090   5.212   4.941  0.2176  0.7654 -0.1009
 3380SOL    HW111039   1.136   5.124   4.926 -2.6862 -0.8571 -0.1140
 3380SOL    HW211040   1.006   5.216   4.887 -1.9761  1.6894  3.1024
 3381SOL     OW11041   4.872   0.335   3.224  0.3471  0.3838  0.2606
 3381SOL    HW111042   4.859   0.370   3.317 -1.0829  0.4619  0.0441
 3381SOL    HW211043   4.869   0.411   3.159 -1.6814  0.0288 -0.1110
 3382SOL     OW11044   1.616   1.568   6.917 -0.4395 -0.3070 -0.1994
 3382SOL    HW111045   1.564   1.585   7.000 -2.4451 -1.3796 -1.1445
 3382SOL    HW211046   1.611   1.648   6.857 -0.5290 -0.1999 -0.0472
 3383SOL     OW11047   5.570   6.440   2.530 -0.3854 -0.1554  0.2900
 3383SOL    HW111048   5.599   6.432   2.435  1.8874 -0.6678  0.9486
 3383SOL    HW211049   5.482   6.395   2.543 -1.2375  0.8053 -1.7388
 3384SOL     OW11050   3.217   2.974   2.934  0.0593  0.1842 -0.1078
 3384SOL    HW111051   3.228   2.920   2.850  1.0308  0.5149 -0.2079
 3384SOL    HW211052   3.247   2.920   3.013  0.1517  0.2509 -0.0972
 3385SOL     OW11053   5.667   2.966   3.069 -0.1118 -0.1167 -0.0282
 3385SOL    HW111054   5.735   2.999   3.003  0.2372  0.2037  0.4882
 3385SOL    HW211055   5.703   2.886   3.117 -0.4228 -0.4361 -0.3272
 3386SOL     OW11056   1.699   1.742   1.093 -0.3165  0.7741 -0.1190
 3386SOL    HW111057   1.699   1.644   1.114 -1.1497  0.9246  0.6239
 3386SOL    HW211058   1.751   1.758   1.009  0.3971 -0.2208  0.1166
 3387SOL     OW11059   0.023   3.103   2.317 -0.0030  0.3323 -0.4136
 3387SOL    HW111060   0.112   3.069   2.285  0.0967 -1.0790  1.2267
 3387SOL    HW211061  -0.043   3.099   2.242  1.2083  1.1160 -1.5809
 3388SOL     OW11062   4.452   2.399   1.563 -0.1038 -0.1258  0.1975
 3388SOL    HW111063   4.432   2.446   1.477  0.7111  1.0116  0.6006
 3388SOL    HW211064   4.366   2.373   1.607 -0.5781  0.6064 -0.2610
 3389SOL     OW11065   2.424   5.053   0.430  0.3661 -0.2159 -0.1211
 3389SOL    HW111066   2.398   5.110   0.508  0.7227 -0.8399  0.4694
 3389SOL    HW211067   2.463   4.967   0.464 -1.2928 -1.3521 -0.9814
 3390SOL     OW11068   2.215   2.287   0.527  0.0001 -0.0355 -0.1950
 3390SOL    HW111069   2.242   2.232   0.606  0.0459  1.7808  1.1198
 3390SOL    HW211070   2.141   2.349   0.553 -0.7193 -0.1177 -1.8905
 3391SOL     OW11071   1.262   2.381   3.517  0.4881  0.0984 -0.7498
 3391SOL    HW111072   1.269   2.435   3.434  0.4892 -1.6781 -1.9677
 3391SOL    HW211073   1.171   2.339   3.523  0.7822 -0.5050 -0.3256
 3392SOL     OW11074   1.219   6.546   6.503 -0.0006  0.0227  0.6117
 3392SOL    HW111075   1.266   6.458   6.499  0.5209  0.3218  0.0981
 3392SOL    HW211076   1.141   6.545   6.441  1.3587  0.7024 -1.1820
 3393SOL     OW11077   6.587   0.515   5.572  0.3986  0.1672  0.1494
 3393SOL    HW111078   6.640   0.599   5.582 -0.4425  0.6130  0.9430
 3393SOL    HW211079   6.649   0.439   5.553  1.0954  1.1062 -1.5429
 3394SOL     OW11080   3.141   1.407   0.168  0.1047  0.1630  0.2051
 3394SOL    HW111081   3.061   1.365   0.212 -0.5002  0.3910 -0.6584
 3394SOL    HW211082   3.151   1.501   0.201 -0.8701  0.6307 -0.7583
 3395SOL     OW11083   3.347   6.044   1.579 -0.1302  0.4300  0.8155
 3395SOL    HW111084   3.404   5.983   1.523 -0.5603 -0.6576  1.5360
 3395SOL    HW211085   3.349   6.136   1.540  0.8748  0.0624 -0.0546
 3396SOL     OW11086   5.482   5.306   3.811  0.6085  0.6347  0.5027
 3396SOL    HW111087   5.533   5.312   3.726  1.8660  2.2808  1.3260
 3396SOL    HW211088   5.481   5.212   3.843 -0.1082 -0.0668 -1.4203
 3397SOL     OW11089   6.984   5.366   4.881  0.1542 -0.2563 -0.1347
 3397SOL    HW111090   6.954   5.315   4.801  1.0756 -1.7312  0.4369
 3397SOL    HW211091   7.051   5.435   4.854 -1.1988  0.8047 -0.9280
 3398SOL     OW11092   0.443   2.735   1.234 -0.0647 -0.2174 -0.2948
 3398SOL    HW111093   0.522   2.774   1.187  0.8456  1.0108  2.1108
 3398SOL    HW211094   0.465   2.721   1.331 -2.0782 -1.9693 -0.0177
 3399SOL     OW11095   2.981   6.256   4.811 -0.3500 -0.4345  0.2907
 3399SOL    HW111096   3.056   6.239   4.875  2.4793 -0.0326 -2.6617
 3399SOL    HW211097   2.948   6.169   4.775  1.1112 -0.5606 -0.8578
 3400SOL     OW11098   0.387   5.155   0.846 -0.2541 -0.3174  0.0643
 3400SOL    HW111099   0.357   5.063   0.871 -0.7993 -0.2280 -0.2544
 3400SOL    HW211100   0.402   5.208   0.929  1.1545 -1.0277  0.2960
 3401SOL     OW11101   0.012   4.924   2.509  0.8731 -0.1637  0.2033
 3401SOL    HW111102  -0.026   4.985   2.439 -2.0328 -2.6704 -0.6419
 3401SOL    HW211103   0.102   4.893   2.482  0.0388 -0.6362 -2.2473
 3402SOL     OW11104   6.701   2.803   3.434 -0.3788 -0.2201 -0.4649
 3402SOL    HW111105   6.755   2.789   3.517 -1.3929  0.1086  0.2645
 3402SOL    HW211106   6.669   2.715   3.399  0.0249 -0.3557 -0.4964
 3403SOL     OW11107   1.539   2.251   2.344  0.1587  0.0052  0.0319
 3403SOL    HW111108   1.527   2.161   2.387  0.2797 -0.5702 -1.1059
 3403SOL    HW211109   1.626   2.253   2.295 -0.3305  0.3559 -0.8462
 3404SOL     OW11110   0.446   2.009   1.400  0.1824  0.5884  0.1420
 3404SOL    HW111111   0.540   2.023   1.430 -0.1785  1.0332  1.1282
 3404SOL    HW211112   0.391   2.088   1.427 -0.5271  0.2097 -0.1782
 3405SOL     OW11113   6.784   4.618   0.922 -0.7165  0.2106  0.5410
 3405SOL    HW111114   6.709   4.567   0.965 -0.2462 -1.3112 -0.3269
 3405SOL    HW211115   6.871   4.575   0.946 -0.1638  1.5121  0.9434
 3406SOL     OW11116   0.945   4.698   2.625  0.6477  0.1710 -0.1200
 3406SOL    HW111117   0.940   4.653   2.535 -0.1927  0.5158 -0.2587
 3406SOL    HW211118   0.920   4.632   2.696 -0.5520  0.3719 -0.3217
 3407SOL     OW11119   1.545   1.930   1.402 -0.0778  0.3184  0.6494
 3407SOL    HW111120   1.544   1.836   1.367 -0.9756  0.2327  0.8753
 3407SOL    HW211121   1.455   1.972   1.388 -0.0089  0.7813  1.5098
 3408SOL     OW11122   5.602   6.134   4.679 -0.2451  0.1046 -0.3204
 3408SOL    HW111123   5.539   6.211   4.691  0.5796  0.4315  2.6036
 3408SOL    HW211124   5.558   6.050   4.710  0.5922  0.2912  1.4792
 3409SOL     OW11125   6.108   4.582   4.468 -0.2049 -0.2951 -0.1490
 3409SOL    HW111126   6.088   4.567   4.565 -1.1850 -0.4726 -0.3674
 3409SOL    HW211127   6.097   4.496   4.419 -0.2180 -0.0903 -0.5031
 3410SOL     OW11128   3.865   6.486   2.250  0.0498  0.2113  0.1734
 3410SOL    HW111129   3.854   6.388   2.231  2.5409  0.1450 -1.2754
 3410SOL    HW211130   3.886   6.534   2.165 -1.9670  2.2119  0.7170
 3411SOL     OW11131   1.254   6.243   1.531 -0.4233 -0.3922 -0.1072
 3411SOL    HW111132   1.195   6.276   1.605  0.3973  0.6067  0.1274
 3411SOL    HW211133   1.323   6.312   1.511  0.6612 -1.5272 -0.3841
 3412SOL     OW11134   2.643   4.553   1.605 -0.3717  0.2244 -0.0272
 3412SOL    HW111135   2.558   4.505   1.622  0.3061 -0.5281  1.4191
 3412SOL    HW211136   2.675   4.597   1.689  1.2218 -0.4619 -0.2307
 3413SOL     OW11137   5.946   2.297   6.575 -0.3719  1.0946  0.0777
 3413SOL    HW111138   6.010   2.220   6.573 -0.5618  0.9201  0.5934
 3413SOL    HW211139   5.987   2.373   6.626 -0.0404  1.4756 -0.7306
 3414SOL     OW11140   1.385   3.526   2.297 -0.4271 -0.3538  0.1795
 3414SOL    HW111141   1.385   3.591   2.373  0.6801  0.8651 -0.8092
 3414SOL    HW211142   1.362   3.574   2.212 -0.1227 -1.3612 -0.4964
 3415SOL     OW11143   2.248   6.125   5.305  0.0766 -0.2433  0.1590
 3415SOL    HW111144   2.188   6.078   5.369  0.3891 -0.6351  0.1685
 3415SOL    HW211145   2.340   6.087   5.312  1.0936  2.2568  2.2799
 3416SOL     OW11146   6.299   3.853   7.001  0.5062  0.3559  0.3086
 3416SOL    HW111147   6.340   3.766   7.029  1.0768  0.7450  0.7058
 3416SOL    HW211148   6.274   3.906   7.083 -0.5128  0.2617  0.0768
 3417SOL     OW11149   6.038   4.871   2.271  0.7216  0.0745 -0.2336
 3417SOL    HW111150   6.079   4.786   2.238  0.8864 -0.3934  1.1507
 3417SOL    HW211151   6.110   4.939   2.286  0.5970  0.4646 -1.2675
 3418SOL     OW11152   3.262   2.478   0.774 -0.0727  0.3589  0.4214
 3418SOL    HW111153   3.316   2.448   0.853 -0.0620 -0.1409  0.2236
 3418SOL    HW211154   3.278   2.417   0.697 -1.3244 -0.1192  0.5235
 3419SOL     OW11155   2.038   0.047   5.289  0.3706  0.1262  0.2996
 3419SOL    HW111156   2.121   0.023   5.238 -1.4223 -2.7590 -1.5314
 3419SOL    HW211157   1.983   0.111   5.235 -0.3395 -0.9524 -0.2858
 3420SOL     OW11158   2.928   0.295   2.231  0.1751 -0.2484  0.4797
 3420SOL    HW111159   2.869   0.312   2.151  0.6409  1.2936  0.4231
 3420SOL    HW211160   2.960   0.201   2.229 -0.4869 -0.4757 -0.7105
 3421SOL     OW11161   6.875   4.874   1.811 -0.2166  0.5742  0.6778
 3421SOL    HW111162   6.905   4.949   1.752  0.7207 -0.3595 -0.0712
 3421SOL    HW211163   6.925   4.878   1.898  1.6242 -0.4961 -0.2523
 3422SOL     OW11164   0.416   0.689   1.885  0.0205 -0.0810  0.1683
 3422SOL    HW111165   0.381   0.705   1.977  0.1489 -1.0933  0.4019
 3422SOL    HW211166   0.347   0.717   1.818  0.6616  2.5113  0.4856
 3423SOL     OW11167   2.358   5.521   0.102 -0.4976 -0.2531  0.0278
 3423SOL    HW111168   2.389   5.527   0.007 -0.6315  2.5271  0.0884
 3423SOL    HW211169   2.402   5.442   0.146  1.8652  0.0798 -1.5301
 3424SOL     OW11170   5.247   1.270   6.378  0.0418 -0.2151  0.0925
 3424SOL    HW111171   5.335   1.236   6.344  0.5427  1.5227 -0.4317
 3424SOL    HW211172   5.238   1.367   6.357 -0.5020  0.5227  3.1493
 3425SOL     OW11173   2.349   2.711   2.837 -0.0202  0.1132 -0.3608
 3425SOL    HW111174   2.267   2.669   2.877  1.4070 -1.1926  1.4024
 3425SOL    HW211175   2.420   2.641   2.826  1.7128  1.6163  0.5586
 3426SOL     OW11176   3.800   4.921   5.785  1.0061 -0.0134  0.2775
 3426SOL    HW111177   3.748   4.839   5.807  0.8669  0.0472  0.1733
 3426SOL    HW211178   3.802   4.934   5.686  1.0202  0.1137  0.2937
 3427SOL     OW11179   2.404   4.422   5.486  0.4266  0.8746  0.3961
 3427SOL    HW111180   2.441   4.359   5.418  1.8274  0.5087  1.4516
 3427SOL    HW211181   2.470   4.434   5.560 -0.8466  1.6432  1.4564
 3428SOL     OW11182   3.044   1.096   6.286  0.2446 -0.0310  0.3904
 3428SOL    HW111183   3.032   1.122   6.190  0.9232  0.1128  0.3443
 3428SOL    HW211184   3.005   1.005   6.300 -1.6211  0.7134  0.4243
 3429SOL     OW11185   6.026   2.403   0.188 -0.1977  0.1944 -0.2056
 3429SOL    HW111186   6.112   2.452   0.201  0.4113 -0.2782 -2.2045
 3429SOL    HW211187   5.964   2.425   0.264  1.8858  0.0011  1.6505
 3430SOL     OW11188   1.190   2.893   3.329  0.6610 -0.1505  0.6153
 3430SOL    HW111189   1.270   2.861   3.278 -0.4643 -0.1610 -1.2333
 3430SOL    HW211190   1.221   2.944   3.410  2.5247 -0.3321  0.0798
 3431SOL     OW11191   4.446   6.789   6.882 -0.3596  0.1434  0.6315
 3431SOL    HW111192   4.509   6.711   6.885 -1.9110 -1.3406 -1.9688
 3431SOL    HW211193   4.395   6.793   6.968 -0.8759 -2.3299  0.5323
 3432SOL     OW11194   5.558   2.759   2.725  0.4264  0.1130  0.1939
 3432SOL    HW111195   5.591   2.688   2.787  1.4794  1.9033  1.7930
 3432SOL    HW211196   5.534   2.841   2.777 -0.9050  0.9193 -1.5645
 3433SOL     OW11197   4.429   0.708   4.991 -0.1240  0.3564 -0.2637
 3433SOL    HW111198   4.407   0.729   5.086  2.1585 -0.7101  0.5620
 3433SOL    HW211199   4.398   0.615   4.970  0.2305  0.2436 -0.2778
 3434SOL     OW11200   4.197   5.907   0.505 -0.2284  0.4077 -0.0787
 3434SOL    HW111201   4.253   5.845   0.560  1.0181  2.2277  0.8089
 3434SOL    HW211202   4.105   5.870   0.497  0.5662 -1.7711 -0.0063
 3435SOL     OW11203   2.338   0.910   0.816 -0.6460  0.0167  0.1610
 3435SOL    HW111204   2.415   0.855   0.849 -0.2249 -0.4866 -1.5722
 3435SOL    HW211205   2.254   0.878   0.861  0.0214  0.1020  1.5413
 3436SOL     OW11206   3.987   5.998   5.144 -0.1542  0.4446 -0.5826
 3436SOL    HW111207   3.959   6.061   5.072 -0.7092  0.1867 -0.5999
 3436SOL    HW211208   3.961   5.905   5.119  0.5083  0.2288 -0.4803
 3437SOL     OW11209   0.125   5.817   4.749  0.0764 -0.3210  0.8733
 3437SOL    HW111210   0.065   5.758   4.696 -1.3312  0.9805  0.9430
 3437SOL    HW211211   0.174   5.879   4.687  0.4050 -0.5371  0.9136
 3438SOL     OW11212   6.975   5.567   5.100  0.2285 -0.5279 -0.0588
 3438SOL    HW111213   6.976   5.503   5.023  0.8762 -0.4361 -0.1316
 3438SOL    HW211214   7.057   5.625   5.096 -0.5452  0.5789 -0.2293
 3439SOL     OW11215   6.213   4.090   0.867  0.3048 -0.1399  0.0174
 3439SOL    HW111216   6.260   4.031   0.800 -0.3342 -1.6235  0.8326
 3439SOL    HW211217   6.122   4.113   0.833  0.9674  1.4008 -0.8289
 3440SOL     OW11218   4.314   4.999   5.221 -0.1944  0.3138 -0.3095
 3440SOL    HW111219   4.263   5.044   5.293 -1.4744  2.3751 -2.3705
 3440SOL    HW211220   4.299   4.900   5.226 -0.0287  0.3706  2.3163
 3441SOL     OW11221   3.761   5.132   1.591  0.3615 -0.2411 -0.2598
 3441SOL    HW111222   3.797   5.166   1.504  1.4278 -0.2507  0.1678
 3441SOL    HW211223   3.744   5.208   1.653 -2.2094 -0.0326 -1.0894
 3442SOL     OW11224   1.178   4.749   2.258 -0.3289  0.1250 -0.8752
 3442SOL    HW111225   1.234   4.808   2.200  0.8596  0.4616  0.5313
 3442SOL    HW211226   1.100   4.715   2.207 -0.9341  2.7385 -1.8415
 3443SOL     OW11227   4.951   6.956   5.994  0.1015 -0.3305 -0.2849
 3443SOL    HW111228   4.951   7.054   5.978 -0.0109 -0.4550 -1.1140
 3443SOL    HW211229   4.862   6.918   5.970  0.3298 -0.7150 -0.5397
 3444SOL     OW11230   3.696   5.538   3.406 -0.3248 -0.2138 -0.3368
 3444SOL    HW111231   3.709   5.549   3.505  0.8753 -0.0873 -0.4986
 3444SOL    HW211232   3.637   5.611   3.373 -0.5101 -0.0912  0.2417
 3445SOL     OW11233   0.034   3.847   6.726 -0.0266 -0.2195  0.1354
 3445SOL    HW111234   0.125   3.886   6.712 -0.4292  0.3793 -1.0342
 3445SOL    HW211235   0.041   3.750   6.745  0.8772 -0.1009  0.4249
 3446SOL     OW11236   3.561   6.613   3.119 -0.4552  0.3811  0.2629
 3446SOL    HW111237   3.630   6.632   3.049  1.9206 -2.3393  1.7141
 3446SOL    HW211238   3.572   6.677   3.195  0.6324 -0.1622  0.5753
 3447SOL     OW11239   5.796   1.889   3.939 -0.2818  0.0928 -0.6498
 3447SOL    HW111240   5.843   1.804   3.915  0.2769  0.5255 -1.1316
 3447SOL    HW211241   5.732   1.914   3.866  1.0464  1.1448 -1.4897
 3448SOL     OW11242   1.513   4.830   6.469 -0.2377  1.1047  0.0481
 3448SOL    HW111243   1.476   4.738   6.486  1.2586  0.5885  0.6813
 3448SOL    HW211244   1.515   4.847   6.370 -1.2758  0.7916 -0.0387
 3449SOL     OW11245   4.800   0.924   5.777 -0.0174 -0.4262 -0.5596
 3449SOL    HW111246   4.730   0.913   5.706  0.8457  2.0232 -1.8810
 3449SOL    HW211247   4.828   1.019   5.782  0.5236 -0.6555  2.6132
 3450SOL     OW11248   0.997   2.895   1.034 -0.3023 -0.5903 -0.4945
 3450SOL    HW111249   1.061   2.945   1.092  0.0922 -1.4825 -0.1369
 3450SOL    HW211250   1.036   2.886   0.942 -0.0643 -0.8115 -0.3767
 3451SOL     OW11251   4.131   6.315   6.120 -0.4549 -0.0667  0.2737
 3451SOL    HW111252   4.220   6.290   6.157  0.3148  1.6823 -0.2943
 3451SOL    HW211253   4.063   6.314   6.193  0.0708 -1.1730  0.7659
 3452SOL     OW11254   3.005   3.565   6.742  0.2513 -0.1766  0.4490
 3452SOL    HW111255   2.992   3.643   6.680 -3.7579 -1.2073 -0.3223
 3452SOL    HW211256   3.058   3.494   6.695  1.9451  1.1207  0.3124
 3453SOL     OW11257   5.695   4.725   6.972 -0.0999  0.3161  0.2129
 3453SOL    HW111258   5.686   4.821   6.947 -0.2845  0.7334  1.7772
 3453SOL    HW211259   5.784   4.691   6.941 -1.1797  0.1097 -2.9634
 3454SOL     OW11260   0.814   5.969   1.651  0.0548 -0.3639 -0.1474
 3454SOL    HW111261   0.762   5.979   1.736 -1.5346 -0.5720 -1.0479
 3454SOL    HW211262   0.910   5.951   1.673  0.2264  2.0828  1.5802
 3455SOL     OW11263   3.622   5.347   0.350 -0.8032 -0.3491  0.4748
 3455SOL    HW111264   3.611   5.265   0.407 -1.4016 -0.5252  0.1164
 3455SOL    HW211265   3.620   5.321   0.254 -2.3743  0.2235  0.3244
 3456SOL     OW11266   1.012   6.303   6.144 -0.3751 -0.0156  0.1683
 3456SOL    HW111267   1.103   6.299   6.101  0.3202 -0.6867  1.6337
 3456SOL    HW211268   0.985   6.211   6.172 -1.8490  0.0645 -0.8725
 3457SOL     OW11269   4.574   0.965   5.066 -0.1288  0.5225  0.2668
 3457SOL    HW111270   4.665   0.952   5.026 -1.0805  1.6610 -2.5778
 3457SOL    HW211271   4.521   0.881   5.056  0.2554  0.1884  0.9722
 3458SOL     OW11272   2.627   3.812   5.859  0.2965  0.4541 -0.4989
 3458SOL    HW111273   2.545   3.814   5.917  0.0957  1.8057 -0.7984
 3458SOL    HW211274   2.609   3.862   5.775  1.5903  1.2218 -0.3370
 3459SOL     OW11275   1.924   2.989   4.044  0.0334 -0.1492 -0.1456
 3459SOL    HW111276   1.924   2.932   3.962  1.0378 -1.3049  0.6345
 3459SOL    HW211277   1.831   2.994   4.081 -0.4430  0.4454 -1.3600
 3460SOL     OW11278   4.757   5.112   3.562  0.1571  0.5742 -0.0516
 3460SOL    HW111279   4.694   5.190   3.556  0.1829  0.5170 -1.7016
 3460SOL    HW211280   4.761   5.067   3.473 -0.6531 -1.9641  1.1016
 3461SOL     OW11281   5.309   2.503   2.665  0.3034 -0.4275  0.1028
 3461SOL    HW111282   5.405   2.479   2.650  0.4961  0.6131 -0.4943
 3461SOL    HW211283   5.251   2.454   2.600  0.6864  0.6514 -1.1104
 3462SOL     OW11284   2.064   4.404   2.560  0.5855  0.0465 -0.1240
 3462SOL    HW111285   2.139   4.423   2.623  1.2860 -1.1877 -0.5431
 3462SOL    HW211286   2.005   4.332   2.598 -0.6271  1.2436  0.3631
 3463SOL     OW11287   1.893   1.694   2.812 -0.7361  0.2681  0.1086
 3463SOL    HW111288   1.881   1.789   2.785  0.2490  0.8350  1.5992
 3463SOL    HW211289   1.984   1.663   2.784  0.2840  0.8458  2.5681
 3464SOL     OW11290   0.627   3.583   2.598 -0.5391 -0.9769 -0.2790
 3464SOL    HW111291   0.694   3.625   2.659 -0.7569 -2.2983  0.9383
 3464SOL    HW211292   0.633   3.624   2.507  1.0929 -0.2573  0.1285
 3465SOL     OW11293   2.343   5.530   2.850 -0.4388  0.1432 -0.6787
 3465SOL    HW111294   2.419   5.472   2.818  0.2129  1.4566 -1.6517
 3465SOL    HW211295   2.380   5.617   2.883 -1.1523 -0.8705  3.2399
 3466SOL     OW11296   0.654   1.780   2.798  0.1732  0.5423  0.4313
 3466SOL    HW111297   0.687   1.769   2.892 -2.0137  0.2897  1.2251
 3466SOL    HW211298   0.688   1.866   2.760  1.3848  0.4668  1.2960
 3467SOL     OW11299   6.792   4.770   2.528 -0.2674  0.5123 -0.6075
 3467SOL    HW111300   6.879   4.820   2.525  1.2966 -2.0629 -2.4440
 3467SOL    HW211301   6.763   4.760   2.624 -0.2452  3.9832 -0.0956
 3468SOL     OW11302   1.174   2.046   3.961 -0.0732 -0.7773  0.3964
 3468SOL    HW111303   1.202   2.008   4.049 -3.2842 -0.4726  1.7006
 3468SOL    HW211304   1.145   1.971   3.900  1.4914 -0.9336 -0.1983
 3469SOL     OW11305   5.709   1.355   0.940 -0.6933 -1.1502 -0.1313
 3469SOL    HW111306   5.650   1.411   0.999  0.3088  0.0231 -0.1949
 3469SOL    HW211307   5.785   1.318   0.994  0.5357  0.3749 -0.7319
 3470SOL     OW11308   6.631   0.225   5.802  0.3136  0.6081 -0.3367
 3470SOL    HW111309   6.679   0.153   5.752  0.0984 -0.4614  0.9431
 3470SOL    HW211310   6.533   0.211   5.793  0.2737  0.5173  0.2159
 3471SOL     OW11311   3.845   0.453   4.561  0.1988 -0.1204 -1.2137
 3471SOL    HW111312   3.916   0.468   4.630 -2.9700 -0.9863  2.5755
 3471SOL    HW211313   3.839   0.355   4.540  0.9426  0.1052 -2.5992
 3472SOL     OW11314   0.303   0.721   2.157 -0.2988 -0.0434 -0.4224
 3472SOL    HW111315   0.388   0.703   2.205  0.6077  0.0001 -1.9344
 3472SOL    HW211316   0.243   0.641   2.162  1.9781 -2.2182 -3.6061
 3473SOL     OW11317   2.496   1.130   4.036  0.3449  0.3839  0.1479
 3473SOL    HW111318   2.551   1.213   4.038  0.8915  0.0243  0.9859
 3473SOL    HW211319   2.401   1.152   4.058  0.8281  0.5680  2.2534
 3474SOL     OW11320   0.869   5.159   3.234  0.6392 -0.1601  0.2615
 3474SOL    HW111321   0.952   5.134   3.183  2.4204  0.6524  2.5763
 3474SOL    HW211322   0.810   5.079   3.242  2.1821 -1.3477  0.3033
 3475SOL     OW11323   2.120   5.713   6.593 -0.7120 -0.1142  0.0195
 3475SOL    HW111324   2.189   5.738   6.660  0.4761  0.3364 -1.3145
 3475SOL    HW211325   2.029   5.721   6.634  0.0093 -1.9494  2.2121
 3476SOL     OW11326   1.511   1.861   4.746 -0.0548 -0.2344  0.1460
 3476SOL    HW111327   1.447   1.914   4.802 -2.7447 -0.5204 -2.3751
 3476SOL    HW211328   1.490   1.764   4.754  1.0199 -0.4626  0.3242
 3477SOL     OW11329   5.619   0.614   0.551  0.2804 -0.1400 -0.5635
 3477SOL    HW111330   5.567   0.535   0.583 -1.8588  0.8679 -1.3552
 3477SOL    HW211331   5.660   0.592   0.463  0.9889 -0.8556 -0.0698
 3478SOL     OW11332   5.549   0.373   3.648  0.1855 -0.2787  0.3765
 3478SOL    HW111333   5.626   0.436   3.662 -0.3485  0.0256  2.2155
 3478SOL    HW211334   5.475   0.397   3.710 -1.5243 -0.4244 -1.5038
 3479SOL     OW11335   5.832   2.978   4.574 -0.4914  0.0906 -0.3841
 3479SOL    HW111336   5.845   2.927   4.489 -1.2248 -1.8473  0.6054
 3479SOL    HW211337   5.734   2.979   4.596 -0.2262 -0.1021  0.8218
 3480SOL     OW11338   5.503   4.199   6.225 -0.6580  0.1340  0.3920
 3480SOL    HW111339   5.585   4.154   6.192 -1.1918 -1.0355  0.6105
 3480SOL    HW211340   5.496   4.187   6.325 -0.3240  1.5260  0.6052
 3481SOL     OW11341   5.977   4.688   0.940  0.2192 -0.6422  0.5042
 3481SOL    HW111342   6.035   4.623   0.890 -0.6457 -1.1907  0.1986
 3481SOL    HW211343   6.022   4.777   0.942 -0.5227 -0.0193 -2.9958
 3482SOL     OW11344   5.326   1.478   1.590 -0.1184 -0.2921  0.0415
 3482SOL    HW111345   5.388   1.507   1.663 -0.5820 -2.3151  1.3082
 3482SOL    HW211346   5.341   1.381   1.569 -1.3073 -0.2411 -1.2144
 3483SOL     OW11347   2.117   6.650   1.524  0.1594  0.0451 -0.8558
 3483SOL    HW111348   2.209   6.652   1.486 -0.5230 -0.3785 -2.5984
 3483SOL    HW211349   2.106   6.567   1.579  0.4750 -0.4620 -1.5481
 3484SOL     OW11350   6.253   2.542   6.537 -0.0661  0.3630 -0.3621
 3484SOL    HW111351   6.317   2.609   6.500 -1.5982  1.7235 -0.6180
 3484SOL    HW211352   6.242   2.466   6.472  1.4293 -0.0254 -0.2069
 3485SOL     OW11353   4.909   5.096   2.420 -0.1572  0.0955 -0.3098
 3485SOL    HW111354   4.846   5.026   2.453  0.4825 -1.1181 -1.5776
 3485SOL    HW211355   4.961   5.061   2.342  2.1509  1.0062  0.7142
 3486SOL     OW11356   1.029   3.030   0.694  0.4984  0.0724 -0.2668
 3486SOL    HW111357   1.051   2.943   0.650  1.8751 -0.6607  1.7162
 3486SOL    HW211358   1.090   3.101   0.659  1.8803 -0.5978  0.6451
 3487SOL     OW11359   3.450   1.262   1.809  1.0113 -0.0502  0.2271
 3487SOL    HW111360   3.470   1.164   1.802  1.8437  0.0812  0.6472
 3487SOL    HW211361   3.531   1.314   1.780  1.0059  0.5075  1.1902
 3488SOL     OW11362   1.644   3.980   2.065 -0.5438 -0.0800 -0.0909
 3488SOL    HW111363   1.643   4.079   2.061 -0.6355 -0.1058 -1.1087
 3488SOL    HW211364   1.706   3.949   2.137 -1.4448  0.7144  1.0666
 3489SOL     OW11365   6.895   4.395   5.978 -0.2610 -0.1492  0.2216
 3489SOL    HW111366   6.797   4.415   5.983 -0.1612  0.1124  1.8808
 3489SOL    HW211367   6.930   4.423   5.889 -1.3140  1.6820  0.3239
 3490SOL     OW11368   4.501   2.078   2.812 -0.4030  0.0767  0.2518
 3490SOL    HW111369   4.524   2.165   2.767 -0.9339  0.0114 -0.1611
 3490SOL    HW211370   4.421   2.038   2.767  1.3051 -1.8874 -1.2280
 3491SOL     OW11371   3.358   6.395   2.698 -0.4854 -0.1833 -0.2385
 3491SOL    HW111372   3.276   6.405   2.755 -0.4230  0.0626 -0.1917
 3491SOL    HW211373   3.343   6.323   2.631 -0.2144 -1.1344  0.7016
 3492SOL     OW11374   4.180   0.800   5.963 -0.3159 -0.6968  0.0593
 3492SOL    HW111375   4.247   0.731   5.989  2.3201  1.4303 -0.6602
 3492SOL    HW211376   4.194   0.882   6.018 -0.1657  0.9331 -2.2631
 3493SOL     OW11377   6.353   0.572   3.816 -0.1401  0.0541 -0.1908
 3493SOL    HW111378   6.339   0.582   3.914  2.8981 -0.7149  0.4067
 3493SOL    HW211379   6.369   0.662   3.775  1.9029  0.1283  0.6669
 3494SOL     OW11380   6.276   2.013   5.859  0.4350  0.0691 -0.7157
 3494SOL    HW111381   6.251   1.918   5.879  0.6542 -0.0201 -0.8648
 3494SOL    HW211382   6.247   2.036   5.766 -2.4249  1.1054  0.3168
 3495SOL     OW11383   4.924   4.526   1.013 -0.2685  0.2803  0.4786
 3495SOL    HW111384   4.826   4.524   1.034 -0.2407  0.5313  0.6264
 3495SOL    HW211385   4.975   4.562   1.091  0.1193 -1.4331  1.0685
 3496SOL     OW11386   0.555   5.026   6.219  0.6261 -0.1869  0.4003
 3496SOL    HW111387   0.492   5.095   6.254 -0.3567  0.1085 -1.8122
 3496SOL    HW211388   0.504   4.946   6.189  1.5936 -1.1424  1.1900
 3497SOL     OW11389   1.381   5.833   5.168  0.0860  0.1551 -0.1800
 3497SOL    HW111390   1.407   5.736   5.168 -1.0260 -0.1568  0.7184
 3497SOL    HW211391   1.282   5.841   5.153  0.0618  1.1240  0.4390
 3498SOL     OW11392   4.311   5.721   3.642 -0.1963 -0.3217  0.1358
 3498SOL    HW111393   4.233   5.676   3.598 -0.7251  0.3180  0.4004
 3498SOL    HW211394   4.392   5.712   3.584 -0.5128 -0.8154 -0.2402
 3499SOL     OW11395   3.998   5.149   3.297  0.0715 -0.0702  0.8966
 3499SOL    HW111396   3.958   5.071   3.247 -0.4725  0.1968  0.9030
 3499SOL    HW211397   4.034   5.117   3.385  1.4919 -0.6417  0.1424
 3500SOL     OW11398   0.881   6.279   1.239 -0.1006  0.0646 -0.4454
 3500SOL    HW111399   0.922   6.340   1.307  1.0368 -1.1021 -0.0316
 3500SOL    HW211400   0.844   6.199   1.286  0.5206 -0.6625 -1.1789
 3501SOL     OW11401   1.336   2.104   2.565 -0.0136 -0.6571 -0.4356
 3501SOL    HW111402   1.397   2.146   2.633 -1.7170  1.7400 -0.2458
 3501SOL    HW211403   1.301   2.018   2.600  1.0335 -0.6675  0.6552
 3502SOL     OW11404   2.511   1.685   1.792 -0.1304 -0.0505 -0.0766
 3502SOL    HW111405   2.465   1.601   1.820 -0.8597  0.0966 -0.7644
 3502SOL    HW211406   2.533   1.739   1.873  2.0967 -1.7402  0.5314
 3503SOL     OW11407   4.198   5.241   0.242 -0.1304  0.4526 -0.1437
 3503SOL    HW111408   4.169   5.336   0.258  1.5947  0.6394  2.4225
 3503SOL    HW211409   4.295   5.232   0.266  0.3514 -1.4959 -2.5160
 3504SOL     OW11410   3.440   5.197   1.358  0.4112 -0.2819  0.0961
 3504SOL    HW111411   3.477   5.104   1.366  0.9138 -0.0058  1.1040
 3504SOL    HW211412   3.508   5.263   1.389  0.5414  0.5451 -1.8397
 3505SOL     OW11413   1.229   1.456   1.767  0.1018  0.1171 -0.1258
 3505SOL    HW111414   1.280   1.535   1.735  1.5306 -1.1149 -1.0443
 3505SOL    HW211415   1.131   1.475   1.765  0.4499  2.4031  1.2701
 3506SOL     OW11416   6.573   2.957   1.791 -0.1850  0.6239 -0.3502
 3506SOL    HW111417   6.619   2.923   1.872 -0.4721 -0.3793 -0.5955
 3506SOL    HW211418   6.478   2.979   1.813  0.1628  1.9038 -0.0427
 3507SOL     OW11419   2.128   5.942   0.416  0.1075 -0.3486 -0.1709
 3507SOL    HW111420   2.135   5.844   0.399  0.4003 -0.2702 -0.5264
 3507SOL    HW211421   2.143   5.961   0.513 -0.7661 -0.7335  0.0508
 3508SOL     OW11422   2.496   5.554   6.887 -0.6179 -0.0987 -0.5118
 3508SOL    HW111423   2.582   5.595   6.918  0.0963  1.1335 -3.7468
 3508SOL    HW211424   2.515   5.488   6.815 -2.3740 -0.2132 -0.9020
 3509SOL     OW11425   6.756   1.315   1.315  0.1635  0.0385  0.0234
 3509SOL    HW111426   6.782   1.279   1.404  1.7125  0.0762 -0.3833
 3509SOL    HW211427   6.798   1.405   1.301 -0.2757  0.1550 -0.6491
 3510SOL     OW11428   3.549   2.633   0.450  0.0500 -0.0588 -0.5814
 3510SOL    HW111429   3.635   2.609   0.494  1.0537  1.1588 -1.7589
 3510SOL    HW211430   3.499   2.550   0.426  1.0014 -0.8012 -0.0645
 3511SOL     OW11431   4.103   4.308   6.532 -0.1859  0.2364 -0.6460
 3511SOL    HW111432   4.130   4.375   6.601  0.9673 -0.0583 -0.8060
 3511SOL    HW211433   4.026   4.255   6.566 -0.9807  1.4694 -0.4236
 3512SOL     OW11434   4.460   1.204   1.241  1.1991 -0.1191 -0.0623
 3512SOL    HW111435   4.428   1.141   1.170  0.0211  0.2353  0.1459
 3512SOL    HW211436   4.500   1.151   1.316 -0.1548 -0.6664  0.2966
 3513SOL     OW11437   3.700   0.985   6.260  0.1293 -0.2570 -0.2007
 3513SOL    HW111438   3.795   1.011   6.244 -0.2386  0.9476 -0.5228
 3513SOL    HW211439   3.685   0.971   6.358  0.1423  1.6927  0.1134
 3514SOL     OW11440   6.982   1.127   2.187 -0.5113  0.4687  0.1398
 3514SOL    HW111441   6.941   1.145   2.098 -0.5370 -2.8376 -0.6236
 3514SOL    HW211442   7.077   1.100   2.176 -0.8108 -1.0499  0.9621
 3515SOL     OW11443   6.040   4.172   1.241 -0.1886  0.2351  0.2334
 3515SOL    HW111444   6.104   4.188   1.317 -0.8277 -0.2104  0.8723
 3515SOL    HW211445   5.947   4.168   1.276 -0.6598  1.5733 -0.7860
 3516SOL     OW11446   4.281   6.093   4.250 -0.7865  0.1794  0.7103
 3516SOL    HW111447   4.198   6.041   4.270 -0.4132 -0.7154 -0.0161
 3516SOL    HW211448   4.347   6.081   4.325 -0.8131 -0.1651  0.6788
 3517SOL     OW11449   2.268   6.175   5.855 -0.1959  0.6899 -0.3394
 3517SOL    HW111450   2.218   6.221   5.928 -1.3741 -2.8688  1.2976
 3517SOL    HW211451   2.211   6.104   5.815  1.8402 -0.0918 -2.0266
 3518SOL     OW11452   3.775   2.549   0.593 -0.9643  0.3797  0.3421
 3518SOL    HW111453   3.800   2.461   0.552  0.1409  1.7058 -1.9721
 3518SOL    HW211454   3.842   2.574   0.663 -1.1080 -0.4454  0.7855
 3519SOL     OW11455   3.678   4.871   1.520 -0.2240 -0.3276  0.5739
 3519SOL    HW111456   3.590   4.879   1.475  0.1718  0.3903 -0.0929
 3519SOL    HW211457   3.695   4.952   1.577  0.6019  0.2240 -0.4144
 3520SOL     OW11458   3.213   4.849   0.116  0.2665 -0.2448 -0.1161
 3520SOL    HW111459   3.206   4.927   0.179  0.2679 -0.0567 -0.3499
 3520SOL    HW211460   3.262   4.774   0.161  0.0508 -0.2030  0.1987
 3521SOL     OW11461   2.615   1.846   0.832  0.1688  0.4169 -0.3492
 3521SOL    HW111462   2.520   1.876   0.841  0.5056  1.3612  0.2107
 3521SOL    HW211463   2.674   1.903   0.890  0.9980 -0.5614 -0.2000
 3522SOL     OW11464   4.140   4.883   1.033  0.2239 -0.1309 -0.1085
 3522SOL    HW111465   4.196   4.965   1.021  0.0788 -0.0304 -0.1004
 3522SOL    HW211466   4.101   4.856   0.945  1.5909 -1.1484 -0.4427
 3523SOL     OW11467   4.355   6.143   2.080 -0.3920  0.0606  0.2157
 3523SOL    HW111468   4.340   6.236   2.113  1.1972  0.5858 -0.4411
 3523SOL    HW211469   4.278   6.114   2.024  0.7377  2.5279 -2.9089
 3524SOL     OW11470   3.185   1.190   6.637 -1.0276 -0.0692  0.4761
 3524SOL    HW111471   3.131   1.220   6.559  0.6147  0.4154 -0.5326
 3524SOL    HW211472   3.269   1.244   6.641  1.4055 -3.4634 -0.5378
 3525SOL     OW11473   0.906   6.992   0.416  0.3085 -0.2877  0.5462
 3525SOL    HW111474   0.816   6.954   0.437 -0.4139  0.2732 -1.2921
 3525SOL    HW211475   0.963   6.991   0.498 -0.9192 -1.8581  1.4379
 3526SOL     OW11476   2.745   6.215   0.105 -0.8112 -0.6064  0.4664
 3526SOL    HW111477   2.769   6.228   0.009 -2.1776 -0.0879  0.1710
 3526SOL    HW211478   2.817   6.163   0.151  0.3745  0.0713 -0.5688
 3527SOL     OW11479   6.147   5.919   3.224  0.0353 -0.3816 -0.0977
 3527SOL    HW111480   6.107   5.828   3.212  0.7002 -0.7886  0.6783
 3527SOL    HW211481   6.130   5.951   3.318 -0.6773  0.5416 -0.5276
 3528SOL     OW11482   1.605   5.138   4.147 -0.4934 -0.2784 -0.7184
 3528SOL    HW111483   1.687   5.184   4.181 -0.6653 -0.1408 -0.4850
 3528SOL    HW211484   1.544   5.204   4.105 -2.2402  0.3472  2.4737
 3529SOL     OW11485   6.588   3.593   2.432  0.1542 -0.1575  0.3604
 3529SOL    HW111486   6.684   3.611   2.409 -0.3053 -0.5210 -2.0184
 3529SOL    HW211487   6.557   3.510   2.386 -1.3407 -0.0341  1.0755
 3530SOL     OW11488   5.345   4.881   1.945 -0.5609  1.0399 -0.4825
 3530SOL    HW111489   5.420   4.920   1.999  0.0331  0.5587 -0.9399
 3530SOL    HW211490   5.383   4.819   1.876 -1.4930 -1.5405  1.1420
 3531SOL     OW11491   3.227   1.406   4.958  0.2444  0.2912 -0.4482
 3531SOL    HW111492   3.322   1.434   4.968 -0.4006  2.7808 -0.7178
 3531SOL    HW211493   3.213   1.368   4.866  1.0235 -0.4428 -0.2764
 3532SOL     OW11494   2.459   2.629   5.668 -0.4636 -0.0583 -0.1328
 3532SOL    HW111495   2.497   2.661   5.755  0.9525 -0.5714 -0.5184
 3532SOL    HW211496   2.476   2.531   5.658 -2.7901 -0.5393  0.0650
 3533SOL     OW11497   2.239   2.219   4.270 -0.8758 -0.4742  0.4708
 3533SOL    HW111498   2.192   2.180   4.349 -1.4466  1.7957  1.3205
 3533SOL    HW211499   2.308   2.284   4.301 -1.0753  0.4277 -0.8898
 3534SOL     OW11500   2.643   4.524   1.016  0.5822  0.5044 -0.2141
 3534SOL    HW111501   2.546   4.521   0.990  0.3534 -2.4405  0.5526
 3534SOL    HW211502   2.687   4.602   0.973 -1.9102  1.3402 -1.4189
 3535SOL     OW11503   3.105   4.020   0.010  0.1130 -0.5236 -0.1707
 3535SOL    HW111504   3.030   4.053  -0.048  1.1662 -0.7557 -1.7162
 3535SOL    HW211505   3.086   3.926   0.038 -0.3286 -0.4704 -0.2849
 3536SOL     OW11506   1.654   3.716   0.698 -0.3471  0.2231  0.5875
 3536SOL    HW111507   1.696   3.646   0.755 -0.1191 -0.0082  0.1468
 3536SOL    HW211508   1.581   3.674   0.643 -2.3778  0.9449  2.6032
 3537SOL     OW11509   2.318   0.228   1.493  0.2568  0.6183 -0.7567
 3537SOL    HW111510   2.390   0.165   1.465  1.2462  1.5120 -0.2853
 3537SOL    HW211511   2.330   0.251   1.589  0.1157  1.7833 -1.0056
 3538SOL     OW11512   2.626   0.524   0.791  0.1372 -0.6183  0.5573
 3538SOL    HW111513   2.571   0.580   0.853  1.1608 -0.4259  1.3274
 3538SOL    HW211514   2.635   0.432   0.828  1.0477 -0.4043  0.9040
 3539SOL     OW11515   0.843   1.657   2.231 -0.1967 -0.0320 -0.0413
 3539SOL    HW111516   0.843   1.558   2.215  0.1181 -0.0810  0.2536
 3539SOL    HW211517   0.810   1.704   2.149 -2.4810 -0.4875  0.5288
 3540SOL     OW11518   1.222   2.580   4.738 -0.3905 -0.1206 -0.0511
 3540SOL    HW111519   1.141   2.521   4.746 -0.3966 -0.0052  0.7417
 3540SOL    HW211520   1.298   2.526   4.703 -0.5259 -0.4895  0.2144
 3541SOL     OW11521   3.647   6.679   1.080  0.1904 -0.1524 -0.0890
 3541SOL    HW111522   3.674   6.705   1.173 -1.3706 -2.4284  1.0949
 3541SOL    HW211523   3.612   6.585   1.081 -1.5864  0.4001 -2.6628
 3542SOL     OW11524   3.013   0.559   5.106  0.4465  0.6767 -0.2373
 3542SOL    HW111525   3.013   0.487   5.037 -1.3946 -0.7822  1.2161
 3542SOL    HW211526   3.074   0.534   5.181  1.0881  1.4515 -0.4755
 3543SOL     OW11527   2.996   4.808   4.728 -0.1174 -0.1295 -0.3183
 3543SOL    HW111528   2.989   4.762   4.817 -1.7424 -0.1837 -0.4598
 3543SOL    HW211529   3.031   4.901   4.742 -0.4841 -0.0875  0.3978
 3544SOL     OW11530   6.190   6.254   6.355 -0.0563  0.0359 -0.1934
 3544SOL    HW111531   6.144   6.275   6.269  2.1238  2.3823 -0.8866
 3544SOL    HW211532   6.221   6.339   6.398  1.2301 -1.2606  1.5777
 3545SOL     OW11533   4.820   2.286   2.125 -0.3221 -0.3734  0.3586
 3545SOL    HW111534   4.851   2.367   2.077 -1.8591 -0.1127 -0.2432
 3545SOL    HW211535   4.899   2.236   2.160  0.7576  0.2671 -1.0609
 3546SOL     OW11536   1.662   3.304   6.673  0.8639  0.0443  0.0505
 3546SOL    HW111537   1.632   3.269   6.584 -3.1399 -1.8209  1.8824
 3546SOL    HW211538   1.729   3.240   6.713  0.1311 -0.9321 -0.2550
 3547SOL     OW11539   2.032   2.428   3.285  0.2752  0.2284  0.0050
 3547SOL    HW111540   2.111   2.479   3.319  0.1366  0.5239 -0.1032
 3547SOL    HW211541   2.046   2.330   3.299  0.4081  0.3188  0.5099
 3548SOL     OW11542   3.006   5.540   2.184  0.0525 -0.7074 -0.6082
 3548SOL    HW111543   2.946   5.471   2.225 -0.5409  1.0899  1.7615
 3548SOL    HW211544   2.952   5.618   2.154  1.0044  0.1282 -0.2074
 3549SOL     OW11545   0.323   3.313   3.637 -0.2704  0.3294  0.1294
 3549SOL    HW111546   0.376   3.305   3.721  0.5140  2.0917 -0.1415
 3549SOL    HW211547   0.228   3.288   3.655  0.0979 -0.3270  1.2720
 3550SOL     OW11548   5.449   5.227   0.893  0.7019  0.4804 -0.0659
 3550SOL    HW111549   5.434   5.242   0.991  1.9534 -1.3941  0.4657
 3550SOL    HW211550   5.495   5.307   0.854 -1.7508  2.2069  0.3145
 3551SOL     OW11551   5.642   5.861   2.486  0.2107 -0.1467  0.3455
 3551SOL    HW111552   5.690   5.804   2.420 -2.7568 -2.1057 -0.3231
 3551SOL    HW211553   5.642   5.956   2.454  2.0320 -0.3816 -0.4707
 3552SOL     OW11554   1.321   0.200   5.998 -0.0314  0.0518  0.1758
 3552SOL    HW111555   1.242   0.150   6.036 -1.9971  1.2522 -2.0601
 3552SOL    HW211556   1.358   0.148   5.921 -0.4745  0.8020 -0.5563
 3553SOL     OW11557   4.116   3.730   5.118  0.0559  0.7776  0.0203
 3553SOL    HW111558   4.034   3.743   5.175 -0.3030  1.9189 -0.7266
 3553SOL    HW211559   4.111   3.790   5.038  1.2766  0.3073 -0.4294
 3554SOL     OW11560   2.085   5.409   4.471  0.3288 -0.1006 -0.6696
 3554SOL    HW111561   2.054   5.414   4.376 -0.6466 -1.1304 -0.4303
 3554SOL    HW211562   2.154   5.479   4.488 -0.6773  1.1804 -1.6881
 3555SOL     OW11563   5.810   6.912   0.347  0.0285  0.7266  0.2342
 3555SOL    HW111564   5.748   6.983   0.381 -0.8576  0.6641 -1.1587
 3555SOL    HW211565   5.827   6.927   0.249 -1.0922 -1.5976 -0.3852
 3556SOL     OW11566   5.328   0.542   3.718  0.2325  0.1018  0.5005
 3556SOL    HW111567   5.298   0.637   3.705  1.0290  0.5155  1.5390
 3556SOL    HW211568   5.248   0.484   3.736 -0.4632  0.2240 -1.8363
 3557SOL     OW11569   2.863   1.807   6.003  1.2724 -0.1486  0.1126
 3557SOL    HW111570   2.833   1.757   6.084  2.0313 -0.7368  0.0482
 3557SOL    HW211571   2.790   1.810   5.936  0.5704  0.5093  0.8858
 3558SOL     OW11572   3.317   5.829   0.950 -0.2107 -0.5805  0.1322
 3558SOL    HW111573   3.237   5.845   1.008  0.1804  1.1625  0.2541
 3558SOL    HW211574   3.366   5.747   0.981 -1.3809 -1.0947  0.6728
 3559SOL     OW11575   3.186   2.654   5.345  0.0271  0.3623  0.8904
 3559SOL    HW111576   3.184   2.561   5.308 -1.6276  0.6222  0.2585
 3559SOL    HW211577   3.237   2.714   5.283 -0.6046  0.2740  0.2737
 3560SOL     OW11578   6.934   4.198   0.353  0.0645  0.0839 -0.3684
 3560SOL    HW111579   6.880   4.123   0.315  0.7654 -1.6946  1.9097
 3560SOL    HW211580   6.888   4.234   0.434  0.8460  0.5608 -0.1245
 3561SOL     OW11581   1.786   6.595   5.178 -0.1625 -0.3107 -0.5944
 3561SOL    HW111582   1.800   6.566   5.083 -0.1267  0.9253 -0.9886
 3561SOL    HW211583   1.740   6.684   5.179 -2.6399 -1.5147  0.6015
 3562SOL     OW11584   0.951   0.261   0.883  0.6495 -0.4809 -0.1989
 3562SOL    HW111585   0.877   0.302   0.936  0.0039  0.3079 -1.6607
 3562SOL    HW211586   0.925   0.167   0.858 -0.0971 -0.0633 -1.0838
 3563SOL     OW11587   5.012   0.035   4.935  0.0956 -0.6329 -0.2910
 3563SOL    HW111588   5.099   0.081   4.954 -0.0512 -0.4397 -0.0870
 3563SOL    HW211589   5.031  -0.055   4.895  0.3794 -0.3246 -0.8702
 3564SOL     OW11590   0.951   1.824   0.674  0.3128 -0.3290  0.6180
 3564SOL    HW111591   0.858   1.857   0.686 -0.0086 -1.7173  2.3876
 3564SOL    HW211592   0.953   1.752   0.604  0.0982 -0.1820  0.4601
 3565SOL     OW11593   5.010   2.106   6.843  0.0624 -0.1939  0.0811
 3565SOL    HW111594   5.099   2.098   6.798  0.1556  1.3676 -0.0688
 3565SOL    HW211595   4.942   2.053   6.792  0.4996  0.2492 -0.9916
 3566SOL     OW11596   1.601   4.830   0.995  0.0796  0.2552 -0.0614
 3566SOL    HW111597   1.614   4.742   1.041 -1.9110 -0.8695 -1.4930
 3566SOL    HW211598   1.522   4.877   1.033 -1.5699 -0.6739 -2.1670
 3567SOL     OW11599   3.027   0.555   2.301  0.5748 -0.4810  0.2764
 3567SOL    HW111600   3.015   0.460   2.273  2.0888 -0.9310  1.0577
 3567SOL    HW211601   2.943   0.589   2.344  0.1636 -1.5965  0.3725
 3568SOL     OW11602   0.593   4.530   5.259  0.4201  0.2199 -0.5284
 3568SOL    HW111603   0.593   4.512   5.161 -1.0861 -0.6807 -0.3913
 3568SOL    HW211604   0.563   4.448   5.308 -0.2459  1.1071  0.5793
 3569SOL     OW11605   4.634   5.972   3.030  0.0577 -0.6577  0.3512
 3569SOL    HW111606   4.688   6.041   2.982 -2.2579 -1.0857 -3.3532
 3569SOL    HW211607   4.671   5.881   3.011 -0.0205 -0.7554  0.6567
 3570SOL     OW11608   2.800   2.771   6.599  0.2297  0.2411 -0.4473
 3570SOL    HW111609   2.874   2.710   6.626  0.8900  1.2612  0.1288
 3570SOL    HW211610   2.823   2.816   6.513 -1.2802 -2.0012 -2.1343
 3571SOL     OW11611   5.539   3.088   1.858  0.6272  0.0003 -0.1710
 3571SOL    HW111612   5.492   3.062   1.943  0.5410 -0.3359 -0.3206
 3571SOL    HW211613   5.473   3.126   1.794  0.4074 -1.2212 -0.6882
 3572SOL     OW11614   5.041   2.534   0.089  0.2123 -0.0812  0.2054
 3572SOL    HW111615   4.984   2.495   0.161 -0.0046 -0.4163 -0.1439
 3572SOL    HW211616   5.049   2.469   0.014  1.2315 -0.1233  0.3339
 3573SOL     OW11617   3.512   6.058   3.831 -0.3271 -0.0495 -0.2838
 3573SOL    HW111618   3.437   5.992   3.840 -1.5053  1.2480 -0.1313
 3573SOL    HW211619   3.482   6.133   3.772  1.5403 -0.4175 -1.7716
 3574SOL     OW11620   0.214   2.781   0.848 -0.1718  0.8351  0.9663
 3574SOL    HW111621   0.298   2.774   0.795 -1.5450  0.2184 -1.2999
 3574SOL    HW211622   0.190   2.691   0.884 -0.3230  0.8151  0.8185
 3575SOL     OW11623   5.391   2.450   4.391 -0.2126 -0.4012  0.3075
 3575SOL    HW111624   5.426   2.446   4.297  0.3380 -0.7295  0.5171
 3575SOL    HW211625   5.394   2.544   4.424 -0.1025 -0.3333  0.1068
 3576SOL     OW11626   3.658   6.256   3.413 -0.7316 -0.5529  0.1202
 3576SOL    HW111627   3.675   6.158   3.414 -1.1033 -0.6212  0.8358
 3576SOL    HW211628   3.625   6.284   3.322  1.4586 -0.6918 -0.7605
 3577SOL     OW11629   4.819   4.941   2.765 -0.8000 -0.0574  0.3052
 3577SOL    HW111630   4.795   4.849   2.794 -2.3660  0.8047  1.9511
 3577SOL    HW211631   4.767   4.965   2.683  0.1610 -0.8663 -0.5610
 3578SOL     OW11632   2.125   0.879   4.427  0.3063 -0.0910  0.2213
 3578SOL    HW111633   2.150   0.975   4.418 -0.4409  0.1537  0.6443
 3578SOL    HW211634   2.143   0.831   4.341 -1.6702  0.9827 -0.8704
 3579SOL     OW11635   0.853   0.507   5.977  0.0256 -0.1765  0.2554
 3579SOL    HW111636   0.834   0.604   5.959  0.5922  0.1824  1.4641
 3579SOL    HW211637   0.770   0.462   6.010 -0.4615 -0.3250 -1.1318
 3580SOL     OW11638   1.523   6.786   6.826  0.0926 -0.1554  0.2730
 3580SOL    HW111639   1.601   6.816   6.770  1.2492 -1.0855  1.3144
 3580SOL    HW211640   1.557   6.748   6.912 -1.4634 -1.4791  0.3542
 3581SOL     OW11641   3.068   1.337   6.394 -0.1305 -0.0612 -0.3049
 3581SOL    HW111642   2.982   1.337   6.445 -0.1886 -0.1345 -0.4043
 3581SOL    HW211643   3.084   1.247   6.354  0.9172 -0.6324  1.2737
 3582SOL     OW11644   2.427   2.019   1.169 -0.1154  0.4277 -0.4126
 3582SOL    HW111645   2.399   2.114   1.151  1.1384  0.7637 -0.6571
 3582SOL    HW211646   2.384   1.988   1.254 -1.3105  0.8714 -0.8260
 3583SOL     OW11647   0.674   3.670   4.333 -0.2579  0.0741  0.3088
 3583SOL    HW111648   0.731   3.660   4.415  1.2724  0.5564 -0.6620
 3583SOL    HW211649   0.624   3.584   4.317  1.2655 -0.8658  0.4210
 3584SOL     OW11650   6.001   4.402   6.354 -0.3517 -0.1243 -0.1730
 3584SOL    HW111651   6.063   4.362   6.286 -2.0458 -0.4242 -1.6306
 3584SOL    HW211652   6.050   4.415   6.440  1.1833 -2.1899 -0.6430
 3585SOL     OW11653   2.857   1.331   0.085  0.5164  0.3091 -0.4811
 3585SOL    HW111654   2.761   1.360   0.088  0.2481 -0.5393 -0.6187
 3585SOL    HW211655   2.882   1.309  -0.009  0.5306 -0.4839 -0.2997
 3586SOL     OW11656   2.423   0.890   6.294 -0.3526  0.1906 -0.4810
 3586SOL    HW111657   2.476   0.883   6.209  1.8499 -1.0427  0.8975
 3586SOL    HW211658   2.393   0.800   6.323 -0.8308  0.5635  0.2195
 3587SOL     OW11659   6.210   6.407   4.288  0.2966  0.1501  0.0282
 3587SOL    HW111660   6.171   6.412   4.196 -0.0710 -0.4045  0.1470
 3587SOL    HW211661   6.293   6.349   4.286  1.1651  1.3702 -0.2338
 3588SOL     OW11662   5.826   5.561   3.092  0.4328 -0.1702 -0.3362
 3588SOL    HW111663   5.748   5.526   3.143 -0.0503 -0.1084 -1.0075
 3588SOL    HW211664   5.897   5.591   3.155  0.3544 -1.2106  0.2664
 3589SOL     OW11665   5.904   0.704   6.388 -0.3503 -0.0942 -0.2466
 3589SOL    HW111666   5.874   0.738   6.299  1.1959 -1.5984 -1.3956
 3589SOL    HW211667   5.839   0.733   6.458 -2.0616  0.4009 -1.9619
 3590SOL     OW11668   6.661   3.319   4.864  0.3107 -0.3513  0.1913
 3590SOL    HW111669   6.600   3.245   4.890  0.2115  0.2042  1.6654
 3590SOL    HW211670   6.609   3.404   4.857  0.5234 -0.3004 -0.8963
 3591SOL     OW11671   2.426   6.075   4.494  0.2138  0.8871  0.0561
 3591SOL    HW111672   2.423   5.988   4.445  1.9155 -0.0380  1.4816
 3591SOL    HW211673   2.354   6.077   4.563  0.1999  0.5861  0.0501
 3592SOL     OW11674   6.808   2.714   1.358  0.2258 -0.1197  0.1665
 3592SOL    HW111675   6.805   2.760   1.447  0.3744 -1.2747  0.7751
 3592SOL    HW211676   6.762   2.772   1.290  0.4825  0.9758  0.8852
 3593SOL     OW11677   2.951   3.534   4.032 -0.0084  0.3246  0.0103
 3593SOL    HW111678   2.953   3.435   4.047  0.9522  0.2354 -0.6066
 3593SOL    HW211679   2.986   3.581   4.114  0.5752  0.0961 -0.1063
 3594SOL     OW11680   3.996   6.630   2.077  0.3747 -0.5243  0.0821
 3594SOL    HW111681   4.014   6.679   1.991  2.9195 -2.1839 -0.4378
 3594SOL    HW211682   4.071   6.645   2.141  0.2134 -2.0309  0.6800
 3595SOL     OW11683   6.511   2.021   3.418  0.0627 -0.1351  0.0594
 3595SOL    HW111684   6.605   2.039   3.447  0.1585 -1.2590  0.5010
 3595SOL    HW211685   6.484   1.929   3.447 -1.3598  0.3653  0.3842
 3596SOL     OW11686   4.599   0.813   0.041 -0.0292  0.2201 -0.6135
 3596SOL    HW111687   4.666   0.776  -0.023  0.0517  1.8928 -1.5753
 3596SOL    HW211688   4.622   0.784   0.134  1.3133 -0.2458 -1.0646
 3597SOL     OW11689   3.214   4.887   3.476 -0.0597 -0.1873 -0.0751
 3597SOL    HW111690   3.199   4.970   3.421 -1.8046  1.0034  2.0318
 3597SOL    HW211691   3.312   4.875   3.492  0.2706  1.0885 -0.9910
 3598SOL     OW11692   3.621   2.242   0.902 -0.3542  0.7590  0.1548
 3598SOL    HW111693   3.718   2.254   0.923 -0.6281  0.0130  2.0811
 3598SOL    HW211694   3.601   2.281   0.812  1.8218  0.4422 -0.5316
 3599SOL     OW11695   4.349   1.795   4.442 -0.5092  0.3495 -0.3602
 3599SOL    HW111696   4.348   1.884   4.488  2.1777  1.0082 -1.3747
 3599SOL    HW211697   4.278   1.793   4.372  0.1582  2.2557 -1.1656
 3600SOL     OW11698   4.310   3.885   1.647  0.2192 -0.0793 -0.1520
 3600SOL    HW111699   4.342   3.979   1.631 -0.9228  0.7037  1.8108
 3600SOL    HW211700   4.252   3.856   1.571  1.1077  0.5276 -1.0975
 3601SOL     OW11701   2.512   0.031   2.413  0.3747 -0.4074  0.3196
 3601SOL    HW111702   2.589   0.089   2.439  0.4841 -0.8835  1.1039
 3601SOL    HW211703   2.480   0.056   2.322  1.0288  0.2394  0.2606
 3602SOL     OW11704   0.929   0.729   5.045 -0.3023  0.1970 -0.7768
 3602SOL    HW111705   0.856   0.661   5.029 -1.0552  0.4147  1.4325
 3602SOL    HW211706   1.018   0.682   5.046 -0.8826 -1.0183  1.6874
 3603SOL     OW11707   1.354   5.987   6.489 -0.3551 -0.2321 -0.4536
 3603SOL    HW111708   1.400   5.974   6.577 -0.9639  1.2864  0.1269
 3603SOL    HW211709   1.281   5.920   6.479 -1.3044  0.5365  0.9356
 3604SOL     OW11710   6.047   4.504   4.713 -0.1481 -0.0358 -0.2360
 3604SOL    HW111711   6.036   4.552   4.800  1.4443 -1.1276  0.6198
 3604SOL    HW211712   6.069   4.408   4.730 -0.3606 -0.4137 -1.8727
 3605SOL     OW11713   0.044   2.760   1.715  0.3140  0.0411 -0.5228
 3605SOL    HW111714   0.037   2.664   1.742 -1.1548  0.4893  0.8110
 3605SOL    HW211715   0.110   2.768   1.640  0.4251 -2.0044 -0.7128
 3606SOL     OW11716   5.489   4.470   4.935 -0.7934  0.0490  0.1541
 3606SOL    HW111717   5.456   4.461   5.029 -2.1179  0.1248 -0.2798
 3606SOL    HW211718   5.446   4.549   4.893  2.0391  1.8234  0.3737
 3607SOL     OW11719   4.174   6.484   6.493 -0.4064 -0.0772  0.2441
 3607SOL    HW111720   4.209   6.570   6.456  0.1497  0.3279  1.6464
 3607SOL    HW211721   4.168   6.491   6.593  1.3163 -2.2393  0.5803
 3608SOL     OW11722   6.093   2.826   3.293 -0.2756  0.4114  0.2781
 3608SOL    HW111723   6.012   2.872   3.329 -0.9327 -0.6482  0.1969
 3608SOL    HW211724   6.065   2.741   3.247  0.9188 -0.1864  0.6248
 3609SOL     OW11725   0.825   0.581   3.205  0.4814 -0.3626  0.2138
 3609SOL    HW111726   0.821   0.502   3.266  2.9328  0.2569  1.3013
 3609SOL    HW211727   0.791   0.662   3.253 -0.1128 -0.3581 -0.2016
 3610SOL     OW11728   1.141   2.811   4.087  0.3266 -0.2869  0.0155
 3610SOL    HW111729   1.151   2.877   4.161 -0.5094 -1.0589  0.8363
 3610SOL    HW211730   1.228   2.763   4.074  0.8202  0.6607 -0.3160
 3611SOL     OW11731   1.169   4.446   1.965  0.4782  0.4288 -0.1454
 3611SOL    HW111732   1.261   4.422   1.998  0.7155  0.7016 -0.5946
 3611SOL    HW211733   1.157   4.545   1.972  0.4029  0.4500 -0.5516
 3612SOL     OW11734   1.167   6.712   2.369  0.6955 -0.5680  0.2763
 3612SOL    HW111735   1.113   6.743   2.447  2.8090  0.7079  1.3006
 3612SOL    HW211736   1.149   6.771   2.290 -2.7452 -2.8598 -0.8985
 3613SOL     OW11737   5.329   5.381   0.584 -0.1248 -0.6068 -0.6922
 3613SOL    HW111738   5.390   5.368   0.662  0.7886  1.3263 -1.0321
 3613SOL    HW211739   5.365   5.331   0.504  0.2742 -0.5810 -0.5294
 3614SOL     OW11740   1.408   3.092   2.011 -0.0208 -0.1764 -0.1096
 3614SOL    HW111741   1.423   3.006   1.962  1.4944 -0.6833  1.1907
 3614SOL    HW211742   1.471   3.161   1.977  0.5932 -0.3482  0.6560
 3615SOL     OW11743   3.426   3.522   4.808 -0.6970 -0.0239 -0.6538
 3615SOL    HW111744   3.472   3.548   4.723 -1.0549 -2.5971 -1.7508
 3615SOL    HW211745   3.475   3.447   4.851 -1.6882 -0.1661  0.2815
 3616SOL     OW11746   3.957   0.103   0.408 -0.0221  0.2812  0.0095
 3616SOL    HW111747   3.995   0.172   0.346  0.4269  0.2521  0.2524
 3616SOL    HW211748   4.030   0.066   0.466  0.2235 -2.0233 -1.6326
 3617SOL     OW11749   5.633   5.356   4.300 -0.1174  0.0271  0.6618
 3617SOL    HW111750   5.628   5.340   4.399  1.4437  2.0677  1.1348
 3617SOL    HW211751   5.728   5.362   4.271 -0.5496  0.9396 -0.6915
 3618SOL     OW11752   2.817   6.919   3.649 -0.2446  0.2057 -0.7026
 3618SOL    HW111753   2.720   6.930   3.668 -0.5648  1.1092 -2.6641
 3618SOL    HW211754   2.859   7.009   3.638  0.8755 -0.1683  0.2828
 3619SOL     OW11755   5.919   3.482   6.767 -0.1718  0.3059 -0.0672
 3619SOL    HW111756   5.919   3.417   6.691  1.3511  0.4337 -0.2072
 3619SOL    HW211757   5.825   3.508   6.788 -0.7480 -1.1735 -0.6530
 3620SOL     OW11758   2.730   3.532   5.494 -0.9389 -0.0269 -0.4620
 3620SOL    HW111759   2.737   3.447   5.441 -0.3250 -0.0999 -0.2716
 3620SOL    HW211760   2.752   3.513   5.590  0.1335  0.5158 -0.5875
 3621SOL     OW11761   2.644   7.022   2.737 -0.3351 -0.7494  0.3491
 3621SOL    HW111762   2.607   6.953   2.675 -0.2297  1.2398 -2.0444
 3621SOL    HW211763   2.744   7.021   2.732 -0.2784 -1.1947  1.2550
 3622SOL     OW11764   3.724   3.160   4.474 -0.1404 -0.4736 -0.2465
 3622SOL    HW111765   3.657   3.194   4.539  0.9241 -0.3626  0.8423
 3622SOL    HW211766   3.712   3.205   4.386 -0.7958  0.3340  0.2478
 3623SOL     OW11767   4.833   0.592   0.028 -0.1703 -0.6717 -0.4150
 3623SOL    HW111768   4.917   0.539   0.022 -0.4067 -1.0801 -0.2041
 3623SOL    HW211769   4.758   0.532   0.059 -0.5703 -0.3530 -0.7531
 3624SOL     OW11770   3.219   5.672   5.456 -0.0453 -0.2223 -0.2822
 3624SOL    HW111771   3.275   5.753   5.445  0.0261  0.0568  1.7485
 3624SOL    HW211772   3.272   5.591   5.433  1.2948  0.0297  1.6809
 3625SOL     OW11773   1.684   5.017   2.140  0.0899 -0.2486 -0.2680
 3625SOL    HW111774   1.648   5.017   2.234  2.5310  1.0353  0.7394
 3625SOL    HW211775   1.765   4.959   2.136  0.4759  0.3608 -1.3959
 3626SOL     OW11776   0.182   2.123   6.584  0.0580  0.0112 -0.0594
 3626SOL    HW111777   0.193   2.216   6.547 -0.8517  0.0012 -0.3771
 3626SOL    HW211778   0.237   2.059   6.531  0.6286  0.3511  0.1107
 3627SOL     OW11779   6.272   2.038   4.130 -0.0444 -0.3756  0.4252
 3627SOL    HW111780   6.182   2.019   4.090 -0.8172 -0.4894  2.1665
 3627SOL    HW211781   6.307   1.956   4.174 -0.2395  0.3172  1.9175
 3628SOL     OW11782   4.533   0.292   5.792  0.9913  0.3046 -0.5483
 3628SOL    HW111783   4.490   0.203   5.810 -0.4993  0.7062 -1.8511
 3628SOL    HW211784   4.471   0.365   5.821  1.1589  0.9075 -1.6480
 3629SOL     OW11785   1.767   2.786   6.849 -0.1611  0.3761 -0.5287
 3629SOL    HW111786   1.839   2.740   6.798 -0.2536  0.0422 -0.3605
 3629SOL    HW211787   1.798   2.804   6.943 -0.7468 -0.9233 -0.0673
 3630SOL     OW11788   3.613   0.128   6.228  0.1212  0.2863 -0.2315
 3630SOL    HW111789   3.648   0.040   6.258 -0.2908 -0.0910 -0.8243
 3630SOL    HW211790   3.588   0.123   6.131  0.6846  1.2385 -0.4468
 3631SOL     OW11791   0.182   5.115   2.881 -0.3365  0.1403 -0.0133
 3631SOL    HW111792   0.134   5.199   2.907  0.6838  0.6159  0.4204
 3631SOL    HW211793   0.116   5.042   2.864 -1.2215  0.9143  0.0151
 3632SOL     OW11794   5.377   6.844   1.321  0.1326  0.1303  0.9411
 3632SOL    HW111795   5.318   6.829   1.241 -1.0228  0.3431  1.7336
 3632SOL    HW211796   5.462   6.793   1.309 -0.1813 -0.1568 -0.2415
 3633SOL     OW11797   0.377   0.154   0.792 -0.6358  0.2742  0.1732
 3633SOL    HW111798   0.473   0.182   0.799 -1.1123  1.5741  2.1663
 3633SOL    HW211799   0.328   0.218   0.733 -0.4504  0.0365 -0.2450
 3634SOL     OW11800   1.234   1.752   1.468 -0.6311 -0.2289  0.2931
 3634SOL    HW111801   1.289   1.723   1.546 -0.5653  1.5557  0.9685
 3634SOL    HW211802   1.293   1.775   1.391 -0.5390  0.1639  0.4807
 3635SOL     OW11803   6.262   0.644   5.927 -0.0470  0.5577  0.1319
 3635SOL    HW111804   6.348   0.686   5.958  0.5782 -0.5664 -0.0324
 3635SOL    HW211805   6.278   0.594   5.842 -0.9123  0.4767  0.0091
 3636SOL     OW11806   1.999   4.996   2.381 -0.0991 -0.1411  0.5775
 3636SOL    HW111807   1.934   5.071   2.391 -0.4784 -0.2402 -0.8361
 3636SOL    HW211808   2.044   4.978   2.468 -1.0999  0.7204  1.2928
 3637SOL     OW11809   0.168   2.251   5.844 -0.8449  0.2539  0.5427
 3637SOL    HW111810   0.095   2.217   5.785 -1.2013  0.7808  0.6728
 3637SOL    HW211811   0.251   2.198   5.828 -1.1230 -0.0428  0.0543
 3638SOL     OW11812   0.139   0.386   6.946 -0.1948 -0.9390  0.1780
 3638SOL    HW111813   0.137   0.312   6.879 -0.8424 -0.8476  0.0902
 3638SOL    HW211814   0.046   0.417   6.964  0.0016 -0.7350  0.8689
 3639SOL     OW11815   3.048   3.325   2.416  0.7400  0.4305  0.1114
 3639SOL    HW111816   3.046   3.385   2.496 -1.8153 -0.1886  0.6301
 3639SOL    HW211817   3.063   3.231   2.446 -3.3010 -0.3085  0.4562
 3640SOL     OW11818   0.409   4.994   5.383 -0.6604  0.1564 -0.0046
 3640SOL    HW111819   0.476   4.942   5.330  0.0546  0.7990  0.2447
 3640SOL    HW211820   0.357   4.932   5.441 -1.3201 -0.5418 -1.2857
 3641SOL     OW11821   4.036   3.570   0.970 -0.2983  0.0664  0.3903
 3641SOL    HW111822   3.982   3.486   0.967 -2.0270  1.0969 -2.9387
 3641SOL    HW211823   4.124   3.555   0.924  1.3137 -0.9035  3.5123
 3642SOL     OW11824   1.846   6.508   3.154  0.4524  0.6270 -0.2267
 3642SOL    HW111825   1.848   6.533   3.250  0.1038 -0.9540  0.2104
 3642SOL    HW211826   1.830   6.410   3.144 -0.6610  0.9224 -1.9169
 3643SOL     OW11827   6.354   6.998   5.421 -0.4884 -0.7585 -0.2244
 3643SOL    HW111828   6.377   6.940   5.500  0.1417 -0.9888 -0.5755
 3643SOL    HW211829   6.429   7.062   5.403 -1.1216  0.0964  0.0782
 3644SOL     OW11830   0.730   0.630   0.860 -0.1676 -0.6401 -0.1070
 3644SOL    HW111831   0.779   0.686   0.793 -1.1494  1.2814  0.6948
 3644SOL    HW211832   0.675   0.562   0.812 -1.0983  0.8887 -1.3320
 3645SOL     OW11833   5.510   6.060   4.950 -0.1921  0.5543 -0.5826
 3645SOL    HW111834   5.437   6.085   5.014  0.7525  0.0108  0.7539
 3645SOL    HW211835   5.599   6.082   4.990  0.5166 -1.4950 -0.8721
 3646SOL     OW11836   6.642   1.366   1.757 -0.3429  0.2208  0.9865
 3646SOL    HW111837   6.626   1.329   1.848 -0.5736  1.0346  1.2902
 3646SOL    HW211838   6.640   1.466   1.761 -0.3714  0.2680  0.0874
 3647SOL     OW11839   4.918   3.014   3.664 -0.1611 -0.7242  0.8698
 3647SOL    HW111840   4.903   3.111   3.684 -0.7854 -0.4894 -0.6367
 3647SOL    HW211841   4.976   2.974   3.736 -1.1520  0.3665  2.3411
 3648SOL     OW11842   1.761   2.483   3.674  0.6128 -0.0633  0.2784
 3648SOL    HW111843   1.669   2.473   3.636  0.5832  0.4359  0.2135
 3648SOL    HW211844   1.821   2.521   3.605  0.9623 -0.7425  0.2013
 3649SOL     OW11845   1.745   4.301   5.074 -0.2589  0.3946  0.7327
 3649SOL    HW111846   1.671   4.269   5.016  2.3826 -0.5480 -2.3639
 3649SOL    HW211847   1.800   4.224   5.105  1.9538  1.2740 -0.7682
 3650SOL     OW11848   0.026   1.410   3.008 -0.2831  0.0704 -0.2173
 3650SOL    HW111849   0.034   1.311   3.019  1.2407  0.1363 -0.4706
 3650SOL    HW211850  -0.070   1.435   2.996 -0.8187 -1.2381  1.0170
 3651SOL     OW11851   1.880   2.058   1.164 -0.2334  0.2303 -0.3102
 3651SOL    HW111852   1.836   2.034   1.077 -1.1886 -1.7043  0.6521
 3651SOL    HW211853   1.814   2.100   1.225 -0.2891 -0.8386  0.4068
 3652SOL     OW11854   3.663   6.587   1.785  0.0450 -0.2553 -0.7491
 3652SOL    HW111855   3.645   6.626   1.875  0.0046 -0.1386 -0.8075
 3652SOL    HW211856   3.760   6.563   1.778  0.6154  2.0057 -1.5375
 3653SOL     OW11857   2.066   3.478   1.579 -0.2204  0.6523 -0.7873
 3653SOL    HW111858   2.159   3.442   1.587 -1.5327 -2.7523  2.9805
 3653SOL    HW211859   2.052   3.550   1.646 -0.6276  0.2105 -0.3905
 3654SOL     OW11860   5.970   6.091   1.305  0.2375 -0.2627 -0.0891
 3654SOL    HW111861   5.912   6.100   1.224  0.3681  0.7788 -0.0791
 3654SOL    HW211862   6.000   6.181   1.335 -0.8570 -0.4912  1.8808
 3655SOL     OW11863   2.101   3.156   0.209 -0.6396  0.2473  0.0153
 3655SOL    HW111864   2.166   3.128   0.138 -0.0194 -0.4153  0.8263
 3655SOL    HW211865   2.126   3.247   0.243  0.8182 -0.6059  1.3749
 3656SOL     OW11866   0.746   4.644   4.772  0.3829  0.1993 -0.3341
 3656SOL    HW111867   0.824   4.705   4.759  0.6989  0.2276  1.3972
 3656SOL    HW211868   0.776   4.549   4.766  0.2063  0.2035 -1.3890
 3657SOL     OW11869   0.101   0.063   3.682 -0.1178  0.7115 -0.0012
 3657SOL    HW111870   0.188   0.044   3.637 -0.1357 -1.0590  0.6200
 3657SOL    HW211871   0.068   0.153   3.654  1.4002  0.9913 -1.0342
 3658SOL     OW11872   1.669   2.127   0.678 -0.4070  0.0354 -0.0525
 3658SOL    HW111873   1.627   2.215   0.654 -0.5226 -0.2517 -0.9387
 3658SOL    HW211874   1.613   2.053   0.643 -0.4275 -0.4130  0.8876
 3659SOL     OW11875   2.277   0.954   2.285 -0.5219 -0.1116  0.1616
 3659SOL    HW111876   2.335   0.874   2.273  0.8504  0.7939  0.4302
 3659SOL    HW211877   2.199   0.949   2.223 -0.1303 -1.3454 -0.2601
 3660SOL     OW11878   6.879   2.260   4.265 -0.3674  0.5299  0.3535
 3660SOL    HW111879   6.923   2.171   4.260 -2.0929 -0.3978  0.9474
 3660SOL    HW211880   6.894   2.301   4.355 -0.6199  0.2605  0.5190
 3661SOL     OW11881   6.923   2.957   6.553 -0.0916 -1.0697 -0.4748
 3661SOL    HW111882   6.855   2.908   6.608  0.1214 -1.2719 -0.3935
 3661SOL    HW211883   6.976   3.018   6.612 -0.4133 -0.6751 -0.5895
 3662SOL     OW11884   3.864   0.620   4.978  0.5651 -0.1035  0.0793
 3662SOL    HW111885   3.862   0.717   5.001  0.5167  0.2563 -1.3913
 3662SOL    HW211886   3.771   0.589   4.957  0.7237 -0.2103 -0.4775
 3663SOL     OW11887   3.311   0.947   0.719 -0.0521  0.5444  0.3290
 3663SOL    HW111888   3.318   1.002   0.803 -0.3575  1.2889 -0.1305
 3663SOL    HW211889   3.215   0.926   0.701  0.0431  0.0615  0.3646
 3664SOL     OW11890   6.467   6.515   6.419  0.0971  0.0319  0.0716
 3664SOL    HW111891   6.504   6.502   6.327 -1.3440 -0.4351 -0.4844
 3664SOL    HW211892   6.368   6.528   6.413 -0.4021 -2.3269  1.6773
 3665SOL     OW11893   0.460   1.924   5.030  0.1619 -0.1128 -0.4800
 3665SOL    HW111894   0.435   1.963   5.119 -1.5642 -0.1608 -0.9098
 3665SOL    HW211895   0.465   1.996   4.962  1.0460 -0.1356 -0.4506
 3666SOL     OW11896   4.329   3.996   6.700 -0.0688  0.1866 -0.6453
 3666SOL    HW111897   4.428   3.998   6.706 -0.1116  3.0612  1.3340
 3666SOL    HW211898   4.301   4.023   6.607  1.1034  2.8547 -0.3299
 3667SOL     OW11899   2.755   1.414   3.859  0.4619 -1.0340  0.1339
 3667SOL    HW111900   2.753   1.418   3.759 -1.5642  0.1195  0.1630
 3667SOL    HW211901   2.845   1.444   3.891  0.8769 -0.6086 -1.3338
 3668SOL     OW11902   2.192   5.801   2.482 -0.3395  0.5255 -0.4137
 3668SOL    HW111903   2.116   5.746   2.446 -0.2367 -0.8957  1.4257
 3668SOL    HW211904   2.211   5.875   2.418 -3.6954  1.3483 -0.6697
 3669SOL     OW11905   4.027   1.960   0.854  1.1777 -0.4326  0.6342
 3669SOL    HW111906   3.956   2.023   0.822  0.8326 -1.0023  0.2751
 3669SOL    HW211907   4.004   1.867   0.827  1.5728 -0.7488  1.3633
 3670SOL     OW11908   4.221   0.634   5.467 -0.3307  0.0298  0.6217
 3670SOL    HW111909   4.230   0.732   5.448 -1.0751  0.0012  0.0759
 3670SOL    HW211910   4.311   0.596   5.489  0.3476  0.3785 -1.3502
 3671SOL     OW11911   6.948   3.382   4.059  0.5544  0.0151  0.1367
 3671SOL    HW111912   7.011   3.311   4.030 -0.2159  0.1368 -1.9910
 3671SOL    HW211913   6.885   3.345   4.127  0.8365 -1.0184 -0.1504
 3672SOL     OW11914   6.750   4.310   4.830  0.0397  0.3151 -0.0605
 3672SOL    HW111915   6.685   4.385   4.847 -0.9645 -0.6055  0.2796
 3672SOL    HW211916   6.732   4.236   4.895  2.3242  0.5625  0.9486
 3673SOL     OW11917   6.434   2.189   5.505  0.7777 -0.0596 -1.0413
 3673SOL    HW111918   6.518   2.136   5.520  1.5213  0.5511 -2.7029
 3673SOL    HW211919   6.456   2.287   5.509 -0.1436  0.1235 -0.1766
 3674SOL     OW11920   1.162   5.840   4.708  0.3486 -0.3241  0.3724
 3674SOL    HW111921   1.105   5.796   4.778 -2.6625 -1.2180 -2.3935
 3674SOL    HW211922   1.148   5.938   4.710 -0.2438 -0.4101  0.5852
 3675SOL     OW11923   1.453   2.847   3.862 -0.2715  0.2271 -0.3627
 3675SOL    HW111924   1.416   2.768   3.813 -1.0703  0.5952 -0.3720
 3675SOL    HW211925   1.410   2.930   3.828  0.1626  0.6194  0.0281
 3676SOL     OW11926   6.365   5.713   4.128  0.3870  0.3734 -0.4803
 3676SOL    HW111927   6.280   5.765   4.136 -0.9336 -1.6610 -0.5185
 3676SOL    HW211928   6.374   5.678   4.035  0.0913 -1.2627  0.0749
 3677SOL     OW11929   0.748   0.091   5.336 -0.7495 -0.1978 -0.6573
 3677SOL    HW111930   0.722   0.163   5.400  0.4710  0.7941 -1.2161
 3677SOL    HW211931   0.817   0.033   5.378 -2.6174 -1.8723  0.2553
 3678SOL     OW11932   2.047   1.832   1.085  0.1404 -0.3306 -0.2611
 3678SOL    HW111933   1.993   1.771   1.027 -0.4199  2.0735 -2.5057
 3678SOL    HW211934   2.001   1.920   1.092  3.0424  1.4140 -1.1788
 3679SOL     OW11935   6.232   0.799   5.113  0.7985 -0.2331 -0.9704
 3679SOL    HW111936   6.296   0.862   5.068 -0.1424  2.5815  1.3165
 3679SOL    HW211937   6.264   0.781   5.206 -1.3894  0.8558  0.0536
 3680SOL     OW11938   6.496   1.176   6.194  0.1309  0.2497  0.0865
 3680SOL    HW111939   6.402   1.201   6.174 -0.0159  1.0829  1.7005
 3680SOL    HW211940   6.555   1.257   6.187  0.3921  0.1481  0.9989
 3681SOL     OW11941   0.572   2.941   6.731  0.4051 -0.0477  0.2716
 3681SOL    HW111942   0.624   2.941   6.817  0.8724 -1.3868  0.0176
 3681SOL    HW211943   0.620   2.885   6.663 -0.8444 -0.4558 -0.2982
 3682SOL     OW11944   6.626   2.904   0.792 -0.3120  0.5879 -0.1061
 3682SOL    HW111945   6.563   2.829   0.770  0.2743  0.0863 -0.1285
 3682SOL    HW211946   6.685   2.876   0.867  0.1824  0.8766 -0.3829
 3683SOL     OW11947   6.112   2.570   2.658  0.1077 -0.0589  0.0627
 3683SOL    HW111948   6.128   2.472   2.646  0.0577 -0.2973  1.7615
 3683SOL    HW211949   6.040   2.600   2.596  0.3818 -1.0057 -0.7424
 3684SOL     OW11950   4.015   1.144   3.265 -0.4358 -0.1436 -0.5916
 3684SOL    HW111951   3.969   1.130   3.177  1.5395  0.1878 -1.7248
 3684SOL    HW211952   4.068   1.063   3.289 -0.1306  0.1650 -0.2077
 3685SOL     OW11953   1.873   3.639   3.915 -0.1686  0.1460 -0.4975
 3685SOL    HW111954   1.944   3.663   3.848 -0.0897  0.6395 -0.2435
 3685SOL    HW211955   1.805   3.581   3.872  1.1407 -1.5615 -0.3776
 3686SOL     OW11956   3.343   5.269   0.418  0.7544 -0.2719 -0.6273
 3686SOL    HW111957   3.354   5.320   0.503 -1.2938 -0.0906 -0.4135
 3686SOL    HW211958   3.403   5.189   0.419  1.7357  0.4473  0.3830
 3687SOL     OW11959   5.230   2.717   4.929 -0.1349  0.3289 -0.0921
 3687SOL    HW111960   5.141   2.745   4.965  0.0835  0.6787  0.1833
 3687SOL    HW211961   5.267   2.643   4.985 -0.1207  0.3820 -0.0314
 3688SOL     OW11962   2.808   3.307   6.639  0.1656 -0.0140 -0.1921
 3688SOL    HW111963   2.882   3.300   6.706  1.0336 -0.6462 -1.1886
 3688SOL    HW211964   2.844   3.342   6.552 -0.8225  0.2208 -0.5191
 3689SOL     OW11965   6.070   3.038   1.999  0.3222  0.3626 -0.3351
 3689SOL    HW111966   6.042   3.131   1.977  0.9298  0.2009 -1.9410
 3689SOL    HW211967   5.998   2.993   2.052 -0.9729  1.0407 -1.4636
 3690SOL     OW11968   3.787   5.760   6.311  0.2043  0.3849 -0.3544
 3690SOL    HW111969   3.707   5.788   6.364 -0.4030  1.2442 -1.6799
 3690SOL    HW211970   3.846   5.838   6.294  0.8662 -0.0652 -0.1581
 3691SOL     OW11971   0.152   3.463   0.715 -0.6469 -0.3311  0.0353
 3691SOL    HW111972   0.098   3.392   0.671 -0.0219 -0.5048 -0.4666
 3691SOL    HW211973   0.185   3.430   0.803 -2.3698  0.2198  0.9305
 3692SOL     OW11974   4.300   0.800   2.818  0.3010 -0.4167  0.2752
 3692SOL    HW111975   4.366   0.764   2.883  0.9423  0.1736 -0.0299
 3692SOL    HW211976   4.293   0.738   2.739  3.1622  1.1485 -1.3743
 3693SOL     OW11977   2.943   5.869   6.395 -0.1294  0.1302  0.2881
 3693SOL    HW111978   3.036   5.846   6.423  0.4487  0.6863 -1.0916
 3693SOL    HW211979   2.943   5.894   6.298 -1.9765 -1.3631 -0.1445
 3694SOL     OW11980   4.630   1.593   3.220 -0.4624 -0.7741  0.1618
 3694SOL    HW111981   4.700   1.627   3.283 -2.1586  0.8849  1.2780
 3694SOL    HW211982   4.539   1.610   3.259 -1.6017 -0.0119 -2.5510
 3695SOL     OW11983   0.679   5.667   6.989 -0.0805  0.1375  0.6074
 3695SOL    HW111984   0.601   5.691   7.047  0.3275  0.7498  0.9082
 3695SOL    HW211985   0.728   5.590   7.029 -0.7020 -0.4523  0.2576
 3696SOL     OW11986   6.171   6.713   3.257  0.3996  0.2303 -0.6129
 3696SOL    HW111987   6.267   6.740   3.264  0.9466 -1.7977  0.3519
 3696SOL    HW211988   6.135   6.694   3.348 -0.0173 -1.9018 -1.1745
 3697SOL     OW11989   3.631   5.990   3.525 -0.2233 -0.1055 -0.0827
 3697SOL    HW111990   3.582   5.997   3.612 -1.3144 -1.2976 -0.5666
 3697SOL    HW211991   3.589   5.919   3.469 -0.9186  2.0383 -2.4809
 3698SOL     OW11992   3.889   5.256   1.358 -0.7793 -0.2520 -0.5373
 3698SOL    HW111993   3.925   5.343   1.324 -0.3612  0.1605  0.8787
 3698SOL    HW211994   3.939   5.181   1.316  2.6052  0.2810  2.0003
 3699SOL     OW11995   2.993   2.337   5.360  0.5797  0.3585 -0.6028
 3699SOL    HW111996   2.990   2.382   5.449 -2.8901 -0.2251 -0.2805
 3699SOL    HW211997   3.070   2.372   5.307  0.2069  3.9469  0.9770
 3700SOL     OW11998   6.953   3.892   4.769 -0.0652  0.0537 -0.7134
 3700SOL    HW111999   7.047   3.859   4.773 -0.0928  0.0372 -0.1172
 3700SOL    HW212000   6.932   3.923   4.676  1.2455  2.1922 -0.3337
 3701SOL     OW12001   4.023   3.267   5.368  0.4639  0.0576 -0.0761
 3701SOL    HW112002   4.023   3.331   5.445  0.5489 -0.3327  0.2457
 3701SOL    HW212003   3.929   3.245   5.343  0.4350 -1.3571  1.1933
 3702SOL     OW12004   5.355   0.479   4.371 -0.5187  0.3507  0.2502
 3702SOL    HW112005   5.383   0.399   4.319 -1.0969  0.3474 -0.0714
 3702SOL    HW212006   5.419   0.554   4.354  0.5614 -0.3147  1.2927
 3703SOL     OW12007   2.528   0.585   0.527 -0.2382 -0.8190 -0.4340
 3703SOL    HW112008   2.561   0.568   0.620 -1.8497 -0.2823  0.2850
 3703SOL    HW212009   2.561   0.674   0.495 -0.6852 -0.4334  0.1471
 3704SOL     OW12010   6.244   2.213   6.827 -0.4428 -0.4020  0.4255
 3704SOL    HW112011   6.199   2.190   6.913 -1.8046  1.5706  0.3022
 3704SOL    HW212012   6.198   2.167   6.752 -0.1891 -0.9423  0.5947
 3705SOL     OW12013   5.293   6.251   3.697 -0.0970  0.3760 -0.3180
 3705SOL    HW112014   5.322   6.304   3.618 -0.4393 -1.0853 -1.4845
 3705SOL    HW212015   5.291   6.154   3.672 -1.6991  0.0231  1.0219
 3706SOL     OW12016   0.124   3.698   4.087  0.2855  0.0972  0.4716
 3706SOL    HW112017   0.052   3.667   4.025 -0.7776 -1.1673  2.2493
 3706SOL    HW212018   0.214   3.675   4.048 -0.2953  0.2542 -1.0348
 3707SOL     OW12019   0.520   6.567   0.664 -0.3613  0.0821  0.6033
 3707SOL    HW112020   0.468   6.546   0.581 -0.3146 -0.8276  0.8000
 3707SOL    HW212021   0.557   6.660   0.657  0.0104 -0.1361 -0.5935
 3708SOL     OW12022   6.096   2.725   3.663  0.2758  0.1052 -0.0549
 3708SOL    HW112023   6.192   2.706   3.643 -0.0187 -0.0288 -1.4042
 3708SOL    HW212024   6.075   2.695   3.756  1.4374 -0.2050  0.1234
 3709SOL     OW12025   6.407   1.883   0.596  0.2492  0.5433 -0.1302
 3709SOL    HW112026   6.369   1.972   0.573  0.2519  0.5605 -0.0662
 3709SOL    HW212027   6.395   1.865   0.694  0.1298  0.4169 -0.1665
 3710SOL     OW12028   5.829   6.094   3.519  0.1147  0.4924 -0.1959
 3710SOL    HW112029   5.800   6.008   3.478  0.7600  0.3431 -0.3601
 3710SOL    HW212030   5.786   6.105   3.608 -2.2089  1.3559 -1.3481
 3711SOL     OW12031   1.696   1.654   1.831 -0.2211  0.6763 -0.2451
 3711SOL    HW112032   1.730   1.598   1.907 -0.6697  2.1623  1.0865
 3711SOL    HW212033   1.670   1.744   1.864 -1.6858  0.9378 -1.9476
 3712SOL     OW12034   3.415   0.740   3.762  0.1877 -0.2754  0.0585
 3712SOL    HW112035   3.358   0.704   3.688  2.6186 -1.8090 -1.2037
 3712SOL    HW212036   3.406   0.839   3.766 -0.2854 -0.1932 -2.0920
 3713SOL     OW12037   0.242   4.148   2.318  0.3957 -0.2120  0.0473
 3713SOL    HW112038   0.183   4.228   2.327 -0.5189 -0.7281 -1.1269
 3713SOL    HW212039   0.200   4.070   2.365  0.7624 -0.2784  0.2727
 3714SOL     OW12040   0.204   5.427   6.312 -0.0955 -0.2292 -0.7759
 3714SOL    HW112041   0.241   5.492   6.245 -0.4567  0.5162 -0.2767
 3714SOL    HW212042   0.129   5.375   6.270  0.0574 -0.1722 -1.1225
 3715SOL     OW12043   6.539   0.056   1.887  0.5929 -0.1351  0.3326
 3715SOL    HW112044   6.562   0.031   1.981 -0.0096 -0.8265  0.3037
 3715SOL    HW212045   6.440   0.057   1.876  0.5896 -3.6075 -1.1815
 3716SOL     OW12046   5.889   5.364   2.556 -0.2892 -0.0549  0.0502
 3716SOL    HW112047   5.977   5.317   2.551 -0.5030 -0.4342 -0.2642
 3716SOL    HW212048   5.878   5.405   2.646  0.2758  0.1335  0.0354
 3717SOL     OW12049   2.447   6.064   6.039 -0.4548 -0.2389 -0.0574
 3717SOL    HW112050   2.432   5.989   6.103 -0.2684 -0.9187 -0.7924
 3717SOL    HW212051   2.363   6.082   5.988 -0.1827 -0.7190 -0.6834
 3718SOL     OW12052   1.827   2.966   6.199 -0.1267 -0.6809 -0.5856
 3718SOL    HW112053   1.735   3.005   6.204  0.1132 -0.1500 -0.2100
 3718SOL    HW212054   1.826   2.874   6.238 -0.9345 -1.5403 -2.4921
 3719SOL     OW12055   1.450   1.486   0.382 -0.1043 -0.3933 -0.0720
 3719SOL    HW112056   1.364   1.514   0.424 -0.3359 -1.2818  0.0639
 3719SOL    HW212057   1.503   1.431   0.447 -0.1682 -1.2243 -0.7093
 3720SOL     OW12058   5.540   1.052   3.232  0.0178 -0.4793  0.3438
 3720SOL    HW112059   5.443   1.075   3.217 -0.9707 -2.3336  3.1056
 3720SOL    HW212060   5.551   0.953   3.229  1.8346 -0.3032  0.2755
 3721SOL     OW12061   6.432   5.922   4.995  0.4336  0.1485 -0.5562
 3721SOL    HW112062   6.345   5.949   5.035 -0.2871 -2.0023 -0.5096
 3721SOL    HW212063   6.447   5.971   4.909 -1.0044  0.3131 -0.7390
 3722SOL     OW12064   0.853   6.565   3.469 -0.1199  0.0144  0.1313
 3722SOL    HW112065   0.764   6.536   3.433  0.8646 -0.7254 -1.8609
 3722SOL    HW212066   0.898   6.487   3.512  0.1041  0.0646 -0.0138
 3723SOL     OW12067   6.697   4.466   2.865 -0.0947 -0.1167  0.1430
 3723SOL    HW112068   6.647   4.475   2.951 -0.4155 -1.3029  0.1025
 3723SOL    HW212069   6.794   4.448   2.884 -0.4531 -2.0517  0.3167
 3724SOL     OW12070   1.128   2.034   0.580 -0.2127 -0.4326 -0.1407
 3724SOL    HW112071   1.139   2.066   0.675 -0.2595  1.2993 -0.6786
 3724SOL    HW212072   1.060   1.962   0.577  0.0832 -0.7976  1.2019
 3725SOL     OW12073   6.367   3.776   4.448 -0.1073  0.1809  0.1127
 3725SOL    HW112074   6.342   3.759   4.544 -0.3865 -0.6292 -0.0932
 3725SOL    HW212075   6.285   3.804   4.397 -0.3582 -1.1798 -0.2744
 3726SOL     OW12076   6.722   6.558   4.432 -0.3813  0.2007 -0.1837
 3726SOL    HW112077   6.717   6.651   4.394 -1.1653 -0.0046 -0.6011
 3726SOL    HW212078   6.699   6.492   4.361 -0.4432 -0.2809  0.2803
 3727SOL     OW12079   5.628   6.730   1.237  0.2641  0.3028 -0.0570
 3727SOL    HW112080   5.690   6.807   1.252  0.8943 -0.1356 -0.3491
 3727SOL    HW212081   5.669   6.647   1.275 -1.3420  0.4399  2.1744
 3728SOL     OW12082   5.361   3.223   6.074  0.2840  0.3823 -0.3550
 3728SOL    HW112083   5.345   3.124   6.079  1.0391  0.2148 -0.9744
 3728SOL    HW212084   5.412   3.252   6.154  1.3196  0.0000 -0.8576
 3729SOL     OW12085   3.165   0.531   4.245 -0.1055  0.5910 -0.0065
 3729SOL    HW112086   3.124   0.452   4.200 -0.0574  0.6460 -0.1495
 3729SOL    HW212087   3.227   0.578   4.181 -0.7162  1.1806 -0.1833
 3730SOL     OW12088   5.837   2.328   2.230  0.0281  0.0725  0.6600
 3730SOL    HW112089   5.824   2.425   2.209 -0.1433  0.3086  1.8059
 3730SOL    HW212090   5.865   2.279   2.147  1.2813  1.3095  0.3166
 3731SOL     OW12091   6.626   2.334   3.692  0.7145  0.3732 -0.4148
 3731SOL    HW112092   6.690   2.368   3.762  0.5774  0.1009 -0.1543
 3731SOL    HW212093   6.677   2.280   3.625  0.5525 -1.1064  0.6145
 3732SOL     OW12094   6.972   4.935   3.048 -0.1692 -0.2027 -0.0359
 3732SOL    HW112095   6.878   4.951   3.077  0.0123 -0.1136  0.5043
 3732SOL    HW212096   6.973   4.912   2.950 -0.6112  1.2222 -0.3881
 3733SOL     OW12097   5.450   0.890   1.735  0.3649 -0.3775  0.7700
 3733SOL    HW112098   5.537   0.915   1.777 -0.2098  2.1534  0.5892
 3733SOL    HW212099   5.388   0.855   1.805  1.0253 -0.8363  1.1382
 3734SOL     OW12100   4.593   1.904   1.452  0.1188  0.3860 -0.5631
 3734SOL    HW112101   4.534   1.922   1.531 -1.5517  0.7464 -1.8607
 3734SOL    HW212102   4.635   1.814   1.463 -1.6209 -0.4270 -0.1670
 3735SOL     OW12103   5.727   0.206   4.143  0.3013  0.1515 -0.2875
 3735SOL    HW112104   5.707   0.145   4.220  1.0577  0.7105  0.3647
 3735SOL    HW212105   5.691   0.297   4.163 -0.4608  0.0389 -1.0816
 3736SOL     OW12106   1.888   4.070   0.377 -0.4571  0.9697 -0.8377
 3736SOL    HW112107   1.837   4.155   0.366 -0.2419  1.2487  0.2448
 3736SOL    HW212108   1.882   4.039   0.471 -0.2985 -0.0775 -1.1576
 3737SOL     OW12109   6.313   4.570   0.081 -0.0222  0.1770  0.0867
 3737SOL    HW112110   6.312   4.661   0.122  2.2787 -0.7818  2.5998
 3737SOL    HW212111   6.273   4.574  -0.010  0.2032  3.7259 -0.0018
 3738SOL     OW12112   4.589   0.755   4.285 -0.7269  0.4518  0.4647
 3738SOL    HW112113   4.493   0.780   4.272 -0.5557  0.9034 -0.0044
 3738SOL    HW212114   4.617   0.774   4.379 -0.7156  1.6840  0.2326
 3739SOL     OW12115   3.213   3.266   5.223  0.3166 -0.2967  0.2227
 3739SOL    HW112116   3.234   3.363   5.238  0.2808 -0.3943  0.9479
 3739SOL    HW212117   3.262   3.211   5.290 -1.6075 -0.5851  1.4725
 3740SOL     OW12118   4.233   1.308   4.348  0.0457  0.2735  0.1659
 3740SOL    HW112119   4.185   1.221   4.335  2.0803 -0.7323 -1.0736
 3740SOL    HW212120   4.300   1.321   4.276  1.4896  1.7347  1.6681
 3741SOL     OW12121   3.814   6.059   6.327  0.3305  0.3344  0.1450
 3741SOL    HW112122   3.864   6.134   6.285 -0.7278 -0.2733 -2.3790
 3741SOL    HW212123   3.740   6.030   6.266  0.2700 -2.2940  1.3305
 3742SOL     OW12124   4.890   1.610   3.709  0.0461  0.2786  0.4693
 3742SOL    HW112125   4.919   1.624   3.804  2.7636 -0.0266 -0.2216
 3742SOL    HW212126   4.859   1.516   3.697  1.9055 -0.3998  0.6202
 3743SOL     OW12127   2.858   1.389   2.825  0.2574 -0.1288  0.4038
 3743SOL    HW112128   2.773   1.363   2.872  0.7234  0.3328  1.5430
 3743SOL    HW212129   2.930   1.322   2.847  0.2421 -0.4334 -0.4324
 3744SOL     OW12130   3.966   5.182   4.901 -0.2484 -0.2128  0.3736
 3744SOL    HW112131   3.937   5.086   4.899 -0.6348 -0.1026  0.6743
 3744SOL    HW212132   3.957   5.218   4.994 -1.3062  0.4819  0.0152
 3745SOL     OW12133   1.728   6.905   6.669  0.1693 -0.2640  0.2305
 3745SOL    HW112134   1.722   6.997   6.631 -1.7594 -0.1658  0.6827
 3745SOL    HW212135   1.772   6.844   6.603  0.9388  0.8448 -0.3031
 3746SOL     OW12136   2.618   2.921   5.650  0.1046 -0.1299 -0.2198
 3746SOL    HW112137   2.594   2.912   5.553 -3.0332  0.6191  0.3943
 3746SOL    HW212138   2.665   2.838   5.680  1.8159 -0.0920 -2.4993
 3747SOL     OW12139   6.350   0.512   1.100  0.1289 -0.2144 -0.1366
 3747SOL    HW112140   6.314   0.600   1.070  0.1137 -0.1519  0.0686
 3747SOL    HW212141   6.417   0.479   1.033 -0.0838 -0.1898 -0.3663
 3748SOL     OW12142   5.249   6.187   4.675 -0.3528 -0.0613 -0.0769
 3748SOL    HW112143   5.179   6.138   4.728 -0.4809  1.9140  1.6999
 3748SOL    HW212144   5.208   6.220   4.590 -1.2766  0.0692  0.4000
 3749SOL     OW12145   0.609   3.319   0.613 -0.6477  0.6308  0.3527
 3749SOL    HW112146   0.642   3.343   0.522  0.2094  0.6313  0.6594
 3749SOL    HW212147   0.542   3.245   0.606  0.4109 -0.3043 -0.1690
 3750SOL     OW12148   2.494   5.726   4.646  0.0729  0.0527 -0.5780
 3750SOL    HW112149   2.481   5.815   4.689 -0.8258 -1.1560  1.8607
 3750SOL    HW212150   2.591   5.702   4.647  0.5086  1.5327 -2.5170
 3751SOL     OW12151   2.075   1.479   5.272 -0.0278 -0.0857  0.8579
 3751SOL    HW112152   2.074   1.484   5.372 -1.2977 -1.0023  0.9092
 3751SOL    HW212153   2.013   1.548   5.235  0.4255  0.2395  0.6910
 3752SOL     OW12154   3.938   1.922   5.443 -0.4834  0.7152 -0.0538
 3752SOL    HW112155   4.016   1.879   5.487 -0.2932  1.3027  0.1898
 3752SOL    HW212156   3.959   2.018   5.423 -0.6957  0.5657 -1.0842
 3753SOL     OW12157   4.016   2.502   7.000  0.9190 -0.5626 -0.1425
 3753SOL    HW112158   4.033   2.594   6.965 -0.7074 -0.7498 -1.5831
 3753SOL    HW212159   4.047   2.495   7.094  0.6133  1.6127  0.1560
 3754SOL     OW12160   5.386   4.718   1.749  0.3768 -0.3566  0.2465
 3754SOL    HW112161   5.330   4.783   1.698  2.9453  1.2019 -0.7619
 3754SOL    HW212162   5.422   4.649   1.687  1.5555  0.1310  0.3533
 3755SOL     OW12163   0.402   2.137   1.976  0.0941 -0.2768  0.0304
 3755SOL    HW112164   0.490   2.139   2.023  0.0835 -1.4404  0.1124
 3755SOL    HW212165   0.373   2.231   1.956  1.1586  0.1300  0.3508
 3756SOL     OW12166   6.415   1.451   4.029 -0.4895 -0.5301  0.0437
 3756SOL    HW112167   6.327   1.466   4.074  0.0845  0.5658  0.8407
 3756SOL    HW212168   6.449   1.359   4.051  0.0630  0.1696  2.4238
 3757SOL     OW12169   3.567   3.176   5.477 -0.0522 -0.1650 -0.4929
 3757SOL    HW112170   3.480   3.129   5.463  0.0058 -0.6414  0.6255
 3757SOL    HW212171   3.624   3.167   5.395 -0.6222 -0.7935 -0.8290
 3758SOL     OW12172   3.328   2.114   5.220  0.3556 -0.2009  0.5724
 3758SOL    HW112173   3.272   2.178   5.168 -1.1347 -1.4714  0.5588
 3758SOL    HW212174   3.408   2.162   5.257  1.2643  0.8621 -2.4464
 3759SOL     OW12175   2.927   1.897   4.830 -0.1597  0.0159  0.3933
 3759SOL    HW112176   2.831   1.872   4.834 -0.2699  0.1037 -1.0326
 3759SOL    HW212177   2.943   1.977   4.888 -0.9318 -0.0579  0.7176
 3760SOL     OW12178   6.421   6.930   3.788  0.3495 -0.6148  0.6373
 3760SOL    HW112179   6.386   6.906   3.878  0.3672 -0.5744  0.6548
 3760SOL    HW212180   6.353   6.982   3.738 -0.2512 -1.9268  0.0537
 3761SOL     OW12181   1.872   6.075   2.785 -0.0392  0.3334 -0.0342
 3761SOL    HW112182   1.897   5.984   2.753 -3.1215 -0.6893  0.1737
 3761SOL    HW212183   1.773   6.082   2.793  0.0873  3.7034  0.0852
 3762SOL     OW12184   4.731   3.836   5.824 -0.2780 -0.4913 -0.6102
 3762SOL    HW112185   4.706   3.928   5.854 -1.6006 -1.1880  0.6158
 3762SOL    HW212186   4.669   3.807   5.751 -0.1359 -0.5478 -0.7070
 3763SOL     OW12187   4.109   5.597   3.509  0.5549  0.4410  0.4077
 3763SOL    HW112188   4.110   5.526   3.439 -1.9407  0.8049 -0.0937
 3763SOL    HW212189   4.081   5.557   3.597 -0.5063  0.7010  0.2038
 3764SOL     OW12190   3.226   6.021   5.099  0.4748 -0.0620  0.3360
 3764SOL    HW112191   3.194   5.949   5.161  0.4591  0.1234  0.5461
 3764SOL    HW212192   3.221   5.988   5.005 -0.5418  0.0323  0.3401
 3765SOL     OW12193   6.168   2.937   3.040 -0.7364  0.0570  0.1193
 3765SOL    HW112194   6.117   2.892   3.114 -1.1449  0.1159 -0.1245
 3765SOL    HW212195   6.184   2.873   2.966 -1.2748  0.2915 -0.2061
 3766SOL     OW12196   2.881   5.546   0.581 -0.1665 -0.5537 -0.2919
 3766SOL    HW112197   2.966   5.516   0.538 -0.5564 -0.2399 -1.3297
 3766SOL    HW212198   2.897   5.630   0.632  0.1902 -0.6099 -0.3063
 3767SOL     OW12199   0.023   3.603   6.931  0.1127  0.1774  0.0349
 3767SOL    HW112200   0.036   3.590   6.833 -0.7876  1.5242 -0.2982
 3767SOL    HW212201   0.072   3.533   6.982  1.4367  0.0692 -1.3460
 3768SOL     OW12202   2.865   6.065   1.517 -0.0634 -0.4255  0.0509
 3768SOL    HW112203   2.941   6.003   1.539  0.0519 -0.1319  0.4811
 3768SOL    HW212204   2.805   6.020   1.451  0.4146 -0.7120 -0.2022
 3769SOL     OW12205   1.692   6.103   2.483  0.7173 -0.0652 -0.0857
 3769SOL    HW112206   1.774   6.138   2.529  0.7830  0.2536 -0.4382
 3769SOL    HW212207   1.710   6.094   2.385  0.3669 -0.1133 -0.1474
 3770SOL     OW12208   0.168   0.707   0.449  1.2302 -0.3297  0.1932
 3770SOL    HW112209   0.192   0.612   0.427 -1.0533 -0.9596  0.1252
 3770SOL    HW212210   0.176   0.763   0.366  0.2180 -1.0249 -0.4035
 3771SOL     OW12211   3.508   2.280   6.585  0.0692 -0.2703 -0.2970
 3771SOL    HW112212   3.437   2.225   6.541 -1.2229 -0.5635  2.0370
 3771SOL    HW212213   3.574   2.220   6.630 -0.0632  0.0424  0.3218
 3772SOL     OW12214   5.861   0.655   1.189 -0.6802 -0.4197 -0.0909
 3772SOL    HW112215   5.858   0.628   1.093 -0.5120  2.6339 -1.0571
 3772SOL    HW212216   5.773   0.696   1.215 -0.2290  0.1538  0.5778
 3773SOL     OW12217   1.818   3.561   4.652 -0.2111 -0.3508 -0.1072
 3773SOL    HW112218   1.747   3.627   4.677  1.0431  1.3342 -0.7776
 3773SOL    HW212219   1.906   3.591   4.689  0.9852  0.1446 -3.0935
 3774SOL     OW12220   2.048   2.813   3.275  0.6732 -0.2123 -0.4966
 3774SOL    HW112221   2.112   2.890   3.274 -2.6393  2.7820 -0.3813
 3774SOL    HW212222   2.050   2.768   3.364  1.5375  0.7969  0.0057
 3775SOL     OW12223   2.399   2.881   6.451  0.3178 -0.0233  0.3082
 3775SOL    HW112224   2.464   2.852   6.522  0.0846 -0.7695  0.2223
 3775SOL    HW212225   2.324   2.815   6.445 -0.3017  0.6766  0.2010
 3776SOL     OW12226   1.091   4.132   2.923  0.1761 -0.0522  0.6978
 3776SOL    HW112227   1.023   4.121   2.851 -2.8566  1.7264  3.0203
 3776SOL    HW212228   1.114   4.043   2.961 -0.4072 -0.7487 -0.5181
 3777SOL     OW12229   6.278   3.401   0.846  0.1958  0.1119 -0.4031
 3777SOL    HW112230   6.221   3.354   0.779 -1.5648 -0.0884  1.1403
 3777SOL    HW212231   6.371   3.365   0.843  0.6861  1.3061 -3.8755
 3778SOL     OW12232   1.975   6.704   0.314  0.1047  0.3374 -0.3489
 3778SOL    HW112233   2.058   6.683   0.263  0.7214  0.4466  0.5900
 3778SOL    HW212234   1.956   6.631   0.380 -0.4925  0.3648 -0.4772
 3779SOL     OW12235   4.782   2.135   2.984 -0.2186  0.5515 -0.3368
 3779SOL    HW112236   4.724   2.115   2.905  0.1977  0.0425 -0.5201
 3779SOL    HW212237   4.877   2.114   2.962 -0.3475 -1.9861  1.0693
 3780SOL     OW12238   5.356   4.525   1.557  0.0128 -0.6338 -0.1515
 3780SOL    HW112239   5.282   4.465   1.527 -0.0965  0.1913 -1.6607
 3780SOL    HW212240   5.426   4.472   1.603 -0.7581 -1.6802 -0.1591
 3781SOL     OW12241   4.458   4.507   3.811 -0.1019  0.3896  0.0869
 3781SOL    HW112242   4.505   4.446   3.875  1.5857  1.8729  0.3210
 3781SOL    HW212243   4.437   4.458   3.727  1.1413 -0.5444  0.3036
 3782SOL     OW12244   1.565   3.057   0.499  0.5673  0.7921 -0.2172
 3782SOL    HW112245   1.659   3.072   0.469 -0.1246  0.9301 -2.4749
 3782SOL    HW212246   1.505   3.049   0.419 -1.8129  3.5104  1.1297
 3783SOL     OW12247   2.831   3.075   6.463 -0.2169  0.0809 -0.2138
 3783SOL    HW112248   2.831   3.154   6.525 -3.4521 -1.2256  1.6582
 3783SOL    HW212249   2.757   3.085   6.397  0.3152 -0.6890 -0.9406
 3784SOL     OW12250   6.336   2.976   3.328 -0.2241 -0.6890 -0.3408
 3784SOL    HW112251   6.243   2.940   3.326  0.4780 -2.8341  1.3826
 3784SOL    HW212252   6.396   2.916   3.274  0.2757  0.3988 -1.0304
 3785SOL     OW12253   2.719   3.626   6.881 -0.5312 -0.0471  0.0259
 3785SOL    HW112254   2.804   3.606   6.832  0.7758  4.8178 -0.2233
 3785SOL    HW212255   2.731   3.610   6.979  0.0307 -1.0544 -0.1995
 3786SOL     OW12256   4.539   4.091   1.252 -0.4414  0.2588 -0.1613
 3786SOL    HW112257   4.545   4.006   1.304  0.1523  0.0590 -0.5503
 3786SOL    HW212258   4.489   4.159   1.306  0.5105  0.1811  0.8551
 3787SOL     OW12259   0.703   0.590   4.128 -0.2707 -0.8091 -0.1956
 3787SOL    HW112260   0.643   0.669   4.143 -2.0864 -2.2728  0.7866
 3787SOL    HW212261   0.684   0.550   4.039  2.4231  1.2117 -1.8241
 3788SOL     OW12262   2.419   1.614   2.244  0.2983 -0.0454  0.0355
 3788SOL    HW112263   2.448   1.590   2.152  0.6812 -0.4636  0.2630
 3788SOL    HW212264   2.319   1.628   2.245  0.0114 -1.8751 -0.0663
 3789SOL     OW12265   2.271   1.221   5.248  0.2255  0.5733  0.3226
 3789SOL    HW112266   2.308   1.312   5.227  0.2459  0.1102 -1.9742
 3789SOL    HW212267   2.343   1.164   5.287  0.6236  1.0911  0.3607
 3790SOL     OW12268   5.356   3.570   0.237  0.2718 -0.3439  0.0988
 3790SOL    HW112269   5.422   3.560   0.162  2.3209 -0.4556  1.8206
 3790SOL    HW212270   5.371   3.497   0.304  0.0535  1.0466  1.7250
 3791SOL     OW12271   6.248   1.223   6.489  0.4923 -0.2682 -0.2935
 3791SOL    HW112272   6.208   1.147   6.438  2.4594 -0.3305 -1.8491
 3791SOL    HW212273   6.344   1.203   6.510  0.4580  0.8940  1.1786
 3792SOL     OW12274   6.437   6.540   0.512  0.0004 -0.1594 -0.0067
 3792SOL    HW112275   6.392   6.618   0.468  1.2282  0.8765  0.4980
 3792SOL    HW212276   6.369   6.469   0.531 -0.9664  0.3355 -1.4160
 3793SOL     OW12277   5.437   5.412   2.556  0.3692  0.3433  0.6594
 3793SOL    HW112278   5.434   5.507   2.524  1.6975 -0.5705 -2.5387
 3793SOL    HW212279   5.351   5.367   2.532  1.5790 -0.5038 -2.5965
 3794SOL     OW12280   4.403   4.845   0.897  0.5405  0.9586 -0.0288
 3794SOL    HW112281   4.355   4.773   0.947  0.4976  0.3892 -0.8913
 3794SOL    HW212282   4.498   4.817   0.881  1.1261  1.9655  1.4315
 3795SOL     OW12283   3.816   2.748   1.497  0.1313  0.2200  0.0799
 3795SOL    HW112284   3.873   2.824   1.464 -0.3836  0.0597 -1.2592
 3795SOL    HW212285   3.857   2.661   1.470 -0.3617  0.0887 -0.2752
 3796SOL     OW12286   0.108   2.609   3.155  0.5524 -0.7370  0.1389
 3796SOL    HW112287   0.098   2.525   3.103 -0.6987 -0.5197  0.0117
 3796SOL    HW212288   0.113   2.687   3.093 -0.7678 -0.4931  0.3251
 3797SOL     OW12289   3.369   5.917   3.441  0.4266  0.0085  0.2665
 3797SOL    HW112290   3.284   5.921   3.495  0.7658 -1.4855  0.9688
 3797SOL    HW212291   3.374   5.997   3.381 -1.1776  0.4408  0.6535
 3798SOL     OW12292   4.065   6.081   3.701 -0.0908 -0.0491  0.3115
 3798SOL    HW112293   4.008   6.072   3.620 -1.0856  0.7446  0.9091
 3798SOL    HW212294   4.118   6.166   3.696  0.2996 -0.2920  0.2282
 3799SOL     OW12295   5.322   6.871   4.008 -0.0189 -0.3430  0.1558
 3799SOL    HW112296   5.417   6.840   4.010  0.0116 -0.5272 -1.8554
 3799SOL    HW212297   5.319   6.971   4.010  0.1971 -0.3441  0.5528
 3800SOL     OW12298   0.812   0.958   0.035 -0.5084  0.1441  1.1520
 3800SOL    HW112299   0.911   0.951   0.049 -0.3395 -0.6794 -0.3026
 3800SOL    HW212300   0.785   1.054   0.040  0.6797  0.5944 -0.2590
 3801SOL     OW12301   5.334   6.908   3.611  0.4235  0.0107  0.4222
 3801SOL    HW112302   5.278   6.825   3.610  0.2952  0.0969  0.4280
 3801SOL    HW212303   5.394   6.908   3.531 -1.0504  0.9065 -0.7613
 3802SOL     OW12304   4.783   4.394   1.866 -0.1972 -0.4000 -0.4184
 3802SOL    HW112305   4.755   4.486   1.840  0.9723  0.2941  0.7154
 3802SOL    HW212306   4.709   4.351   1.918  0.2773  0.9666  1.4908
 3803SOL     OW12307   2.546   4.515   2.488  0.2046 -0.1327 -0.4815
 3803SOL    HW112308   2.578   4.539   2.580 -0.5364 -0.0552 -0.2340
 3803SOL    HW212309   2.489   4.588   2.453  1.4312  0.3735 -1.5055
 3804SOL     OW12310   0.801   1.861   5.559 -0.5775 -0.2732 -0.5854
 3804SOL    HW112311   0.837   1.949   5.528 -0.1266 -0.2109  0.0881
 3804SOL    HW212312   0.773   1.806   5.480  1.7218 -0.6458 -1.2203
 3805SOL     OW12313   6.007   5.589   3.499 -0.2609  0.3082  0.0702
 3805SOL    HW112314   5.935   5.537   3.545 -0.2005  1.1875  1.1995
 3805SOL    HW212315   6.093   5.539   3.505 -0.4015  0.0938  0.3205
 3806SOL     OW12316   2.289   2.259   2.206 -0.3630  0.0282 -0.5087
 3806SOL    HW112317   2.253   2.330   2.266 -0.4611 -0.9235  0.6028
 3806SOL    HW212318   2.382   2.284   2.177 -0.9656  1.3247 -1.4139
 3807SOL     OW12319   5.769   1.842   1.884  0.0022 -0.5706  0.0413
 3807SOL    HW112320   5.835   1.769   1.868 -1.3780 -1.7152 -0.6884
 3807SOL    HW212321   5.771   1.907   1.808  1.6238  0.5265  0.9523
 3808SOL     OW12322   3.404   1.233   3.627 -0.1199  0.3685  0.3688
 3808SOL    HW112323   3.426   1.304   3.694  0.8708  1.2496 -0.8295
 3808SOL    HW212324   3.389   1.275   3.537  1.7912 -1.0046 -0.6704
 3809SOL     OW12325   1.512   0.848   0.664 -0.2575 -0.0415 -0.3831
 3809SOL    HW112326   1.529   0.905   0.744  1.6444 -1.1848  0.0951
 3809SOL    HW212327   1.432   0.791   0.680 -0.8217  0.8554  0.0547
 3810SOL     OW12328   5.867   1.321   0.536  0.1541 -0.6589  0.2046
 3810SOL    HW112329   5.844   1.413   0.566 -1.2246 -1.1136  0.6599
 3810SOL    HW212330   5.857   1.314   0.437 -0.1667 -0.4164  0.2180
 3811SOL     OW12331   2.649   3.590   6.409 -0.4378  0.2658  0.4081
 3811SOL    HW112332   2.564   3.613   6.457 -1.0322  1.4131 -1.1222
 3811SOL    HW212333   2.683   3.671   6.361  1.7829 -0.0432  1.3338
 3812SOL     OW12334   0.609   0.497   1.929 -0.1583 -0.0182  0.0814
 3812SOL    HW112335   0.551   0.578   1.921  0.1287  0.4730  2.4071
 3812SOL    HW212336   0.593   0.438   1.850 -2.4630  0.9520 -0.2815
 3813SOL     OW12337   2.841   5.560   6.690 -0.3353  0.1328  0.3255
 3813SOL    HW112338   2.805   5.467   6.675 -0.1049 -0.9008  4.7867
 3813SOL    HW212339   2.771   5.627   6.665 -1.8870 -1.4022  0.3100
 3814SOL     OW12340   5.961   2.196   0.499 -0.4417  0.0911  0.0323
 3814SOL    HW112341   5.863   2.178   0.511 -0.5084  0.2972 -0.1861
 3814SOL    HW212342   5.975   2.293   0.483 -0.3258 -0.0956 -1.0837
 3815SOL     OW12343   3.034   0.304   4.143  0.2547 -0.1866  0.4290
 3815SOL    HW112344   2.988   0.240   4.204  1.4233 -1.0053  0.4855
 3815SOL    HW212345   2.968   0.338   4.075 -0.8277  0.0088  1.5385
 3816SOL     OW12346   6.621   6.371   4.262 -0.7835 -0.0467  0.1668
 3816SOL    HW112347   6.587   6.315   4.337 -0.6424  2.3059  2.0856
 3816SOL    HW212348   6.657   6.312   4.190 -1.1713 -2.3903  1.8022
 3817SOL     OW12349   6.729   2.793   4.340  0.2694 -0.3064  0.4197
 3817SOL    HW112350   6.774   2.879   4.317 -2.3007  1.2043  0.5800
 3817SOL    HW212351   6.632   2.799   4.314  0.1207 -3.3844 -0.0733
 3818SOL     OW12352   2.046   6.877   4.966 -0.5392 -0.0047  0.1279
 3818SOL    HW112353   2.007   6.789   4.939  1.3598 -0.1971 -2.3848
 3818SOL    HW212354   1.986   6.951   4.934 -0.0864 -0.3521 -1.6895
 3819SOL     OW12355   3.791   4.559   6.157  0.1889 -0.3381  0.7338
 3819SOL    HW112356   3.803   4.646   6.205  1.3481  0.6246 -1.1620
 3819SOL    HW212357   3.694   4.536   6.154 -0.4936  2.2908 -0.9317
 3820SOL     OW12358   4.901   2.479   3.795  0.5364 -0.3129 -0.1516
 3820SOL    HW112359   4.932   2.384   3.791 -2.1301 -1.3431  0.9974
 3820SOL    HW212360   4.870   2.508   3.704  0.4953 -0.8708 -0.3162
 3821SOL     OW12361   3.338   2.254   5.682  0.1261 -0.2723 -0.2872
 3821SOL    HW112362   3.341   2.288   5.587  1.8245 -1.4598 -0.7143
 3821SOL    HW212363   3.392   2.170   5.689  0.4554  0.0578  1.8450
 3822SOL     OW12364   2.459   6.427   6.222  0.3789 -0.1244  0.2998
 3822SOL    HW112365   2.416   6.497   6.165  0.6542 -0.2598 -0.0730
 3822SOL    HW212366   2.553   6.453   6.242 -0.0679  0.5420  1.7347
 3823SOL     OW12367   0.781   4.911   2.464 -0.0472  0.2691 -0.1013
 3823SOL    HW112368   0.848   4.837   2.468  2.2386  2.2739  1.9198
 3823SOL    HW212369   0.710   4.895   2.533  1.5027  0.8180  1.6994
 3824SOL     OW12370   0.648   2.925   1.791  0.1050 -0.3116 -0.1720
 3824SOL    HW112371   0.557   2.914   1.831 -0.3192 -0.9473 -1.2572
 3824SOL    HW212372   0.686   2.836   1.768  0.9023 -0.0355  0.0411
 3825SOL     OW12373   2.130   0.708   0.696 -0.4564  0.0989 -0.1160
 3825SOL    HW112374   2.081   0.792   0.669 -0.1304  0.5876  0.7876
 3825SOL    HW212375   2.191   0.680   0.622  0.7418  1.6599  0.2389
 3826SOL     OW12376   4.641   3.250   0.107 -0.3247 -0.4130 -0.4875
 3826SOL    HW112377   4.694   3.280   0.186  2.2392  0.2315 -2.3492
 3826SOL    HW212378   4.613   3.329   0.053  0.1362 -0.9542 -1.5441
 3827SOL     OW12379   1.012   5.318   5.535  0.1230  0.8660 -0.4360
 3827SOL    HW112380   1.077   5.308   5.460  0.5229  1.8839 -0.2325
 3827SOL    HW212381   0.990   5.227   5.572  2.8616  0.5562  0.7001
 3828SOL     OW12382   2.653   1.770   0.149 -0.4433  0.5509 -0.2920
 3828SOL    HW112383   2.613   1.853   0.188 -0.1547  0.9642 -0.8643
 3828SOL    HW212384   2.690   1.790   0.059  0.9759  0.1520  0.1854
 3829SOL     OW12385   2.750   0.518   2.953  0.4048  0.2947  0.1807
 3829SOL    HW112386   2.787   0.607   2.980  1.2069  0.3472 -1.0347
 3829SOL    HW212387   2.706   0.525   2.864 -0.7978 -0.2317  0.7002
 3830SOL     OW12388   5.735   4.077   2.801 -0.6040  0.0186 -0.1157
 3830SOL    HW112389   5.833   4.057   2.808 -0.3598  0.6160 -1.5487
 3830SOL    HW212390   5.718   4.136   2.722 -2.2686 -0.9921 -0.5716
 3831SOL     OW12391   5.101   2.141   2.620 -0.2771  0.3723 -0.1473
 3831SOL    HW112392   5.031   2.092   2.568  0.1518 -0.4062 -0.0199
 3831SOL    HW212393   5.127   2.224   2.571 -0.3400 -0.0201 -0.8637
 3832SOL     OW12394   6.535   1.020   7.022  0.6434 -0.0790  0.0999
 3832SOL    HW112395   6.437   1.034   7.004  0.3957 -0.6272  0.9716
 3832SOL    HW212396   6.547   0.987   7.115  1.6953  0.3008  0.1077
 3833SOL     OW12397   4.592   6.008   2.054 -0.4385  0.3645  0.0669
 3833SOL    HW112398   4.669   6.071   2.051 -0.6590  0.7203  1.2882
 3833SOL    HW212399   4.508   6.059   2.074 -0.7951 -0.1706 -0.0425
 3834SOL     OW12400   6.090   1.719   2.811  0.2126  0.3715  0.5242
 3834SOL    HW112401   5.998   1.742   2.777 -1.1614  1.3184  4.4126
 3834SOL    HW212402   6.140   1.803   2.831  2.4614 -0.1009 -2.3485
 3835SOL     OW12403   3.651   3.312   2.031 -0.2077 -0.2300  0.3635
 3835SOL    HW112404   3.733   3.362   2.060 -1.0119  1.2107  0.2589
 3835SOL    HW212405   3.663   3.215   2.049  2.9157 -0.5936 -2.7829
 3836SOL     OW12406   2.679   5.770   3.125  0.4658 -0.7346  0.8973
 3836SOL    HW112407   2.728   5.857   3.130  0.9116 -0.9855  0.9589
 3836SOL    HW212408   2.627   5.757   3.209  0.8900 -0.8140  1.1506
 3837SOL     OW12409   3.758   0.766   0.200  0.5518  0.3310  0.1464
 3837SOL    HW112410   3.738   0.748   0.104  3.6151  0.1221 -0.5460
 3837SOL    HW212411   3.758   0.865   0.216  2.5332  0.5114 -0.7445
 3838SOL     OW12412   3.013   5.498   0.243 -0.3207 -0.2242  0.0350
 3838SOL    HW112413   2.945   5.567   0.268 -1.3064 -0.7034 -1.1633
 3838SOL    HW212414   2.996   5.468   0.149  0.7529 -1.3269  0.1684
 3839SOL     OW12415   5.637   1.108   0.338 -0.0738 -0.4478 -0.6900
 3839SOL    HW112416   5.705   1.051   0.385  1.2908  1.5398 -0.1572
 3839SOL    HW212417   5.679   1.194   0.310 -2.3012  0.7072 -0.6733
 3840SOL     OW12418   0.250   4.523   2.432  0.1788 -0.1948 -0.6183
 3840SOL    HW112419   0.337   4.472   2.427 -0.9309 -2.3333  0.1807
 3840SOL    HW212420   0.182   4.478   2.375 -0.6650  0.8942 -0.4934
 3841SOL     OW12421   1.381   3.704   0.529 -0.6207 -0.3358 -0.1401
 3841SOL    HW112422   1.304   3.678   0.471 -1.3249  0.3201  0.4793
 3841SOL    HW212423   1.424   3.786   0.492  0.2281 -1.0925 -0.8708
 3842SOL     OW12424   4.316   0.191   3.349 -0.4213 -0.2215 -0.3123
 3842SOL    HW112425   4.371   0.164   3.270 -0.3283 -0.9153 -0.0146
 3842SOL    HW212426   4.242   0.252   3.320  1.9272  2.8494 -0.4388
 3843SOL     OW12427   5.324   7.022   6.222 -0.6205  0.1958  0.1855
 3843SOL    HW112428   5.263   7.032   6.143 -0.1803  0.1828 -0.1544
 3843SOL    HW212429   5.377   7.106   6.234  0.2413 -0.2698 -0.3078
 3844SOL     OW12430   4.244   6.477   4.840  0.7430  0.4193  0.3359
 3844SOL    HW112431   4.149   6.508   4.844  0.5738  0.0441 -0.4899
 3844SOL    HW212432   4.246   6.379   4.824  1.2751  0.3731  0.6823
 3845SOL     OW12433   3.749   3.291   4.233  0.3169 -0.1329  0.0911
 3845SOL    HW112434   3.845   3.263   4.240  0.4131 -0.1085 -0.9975
 3845SOL    HW212435   3.705   3.241   4.158 -0.1591  0.8175 -0.2841
 3846SOL     OW12436   3.519   5.340   4.031 -0.1259 -0.4277  0.2424
 3846SOL    HW112437   3.422   5.321   4.049 -0.2831  1.1827  1.3821
 3846SOL    HW212438   3.532   5.439   4.022  1.4042 -0.6290 -0.0456
 3847SOL     OW12439   0.004   3.852   3.296  0.0473 -0.5969 -0.4929
 3847SOL    HW112440   0.026   3.776   3.234 -0.8507 -0.7540 -0.6272
 3847SOL    HW212441  -0.009   3.935   3.242  1.7070 -0.1787 -0.2878
 3848SOL     OW12442   6.842   5.605   2.245 -0.2358  0.2186 -0.2172
 3848SOL    HW112443   6.933   5.641   2.267 -0.4114  0.3772  0.2499
 3848SOL    HW212444   6.821   5.624   2.149  1.3596 -2.1885 -1.1386
 3849SOL     OW12445   6.500   1.750   5.634 -0.0899 -0.3717 -0.5258
 3849SOL    HW112446   6.420   1.796   5.594  1.3681  2.7561 -0.1954
 3849SOL    HW212447   6.532   1.803   5.713  1.5541 -2.2673  0.1624
 3850SOL     OW12448   3.991   0.686   6.931 -0.2349 -0.2533 -0.2099
 3850SOL    HW112449   3.893   0.694   6.949  0.0382  2.0407  0.5369
 3850SOL    HW212450   4.006   0.669   6.834 -1.3390  0.6405 -0.5540
 3851SOL     OW12451   2.730   0.222   6.790 -0.0009  0.3892 -0.1092
 3851SOL    HW112452   2.779   0.165   6.856 -1.7188 -1.6340 -0.5093
 3851SOL    HW212453   2.738   0.183   6.699 -2.9844 -0.5311 -0.0785
 3852SOL     OW12454   1.642   4.836   4.426  0.4125 -0.0349  0.0608
 3852SOL    HW112455   1.556   4.883   4.447 -0.1876 -1.6446  1.5161
 3852SOL    HW212456   1.717   4.881   4.473  0.2202  0.7980 -0.4150
 3853SOL     OW12457   3.297   1.469   1.910 -0.3642  0.1709 -0.0497
 3853SOL    HW112458   3.314   1.467   2.008  2.1023  2.0968 -0.3433
 3853SOL    HW212459   3.348   1.396   1.865  0.0307  0.4576 -0.0706
 3854SOL     OW12460   1.452   3.933   1.866  0.3060  0.2709 -0.0165
 3854SOL    HW112461   1.521   3.948   1.936  0.1935 -2.4888  0.7830
 3854SOL    HW212462   1.493   3.888   1.787 -0.2607  0.1507 -0.2489
 3855SOL     OW12463   4.747   2.364   2.371 -0.3670 -0.1028 -0.5625
 3855SOL    HW112464   4.788   2.317   2.293 -2.7039 -0.3819 -1.7054
 3855SOL    HW212465   4.650   2.381   2.353 -0.1809  3.0681  0.8017
 3856SOL     OW12466   5.869   1.750   5.109  0.2027  0.4793  0.8481
 3856SOL    HW112467   5.822   1.809   5.174 -1.4973  2.6637 -2.1026
 3856SOL    HW212468   5.962   1.784   5.095  0.7627 -0.3233  2.4344
 3857SOL     OW12469   0.017   0.029   4.286  0.2896  0.3032  0.0372
 3857SOL    HW112470  -0.083   0.033   4.291  0.2885  1.2271 -0.3645
 3857SOL    HW212471   0.056   0.059   4.373  0.2230 -1.2684  0.6279
 3858SOL     OW12472   4.318   0.462   3.489 -0.4628 -0.0074  0.1504
 3858SOL    HW112473   4.230   0.503   3.463  0.5751  1.0289 -2.0401
 3858SOL    HW212474   4.342   0.391   3.422  1.6484  1.7284 -1.0670
 3859SOL     OW12475   4.594   6.490   5.884  0.1444  0.3019  0.1542
 3859SOL    HW112476   4.620   6.552   5.810 -1.6873  2.4740  1.2108
 3859SOL    HW212477   4.502   6.454   5.866  0.3229 -0.4096  0.6261
 3860SOL     OW12478   0.148   4.157   3.355  0.6586  0.3130 -0.7659
 3860SOL    HW112479   0.168   4.252   3.331  0.5468  0.3477 -0.7218
 3860SOL    HW212480   0.234   4.110   3.378  0.6383  0.5913 -0.1086
 3861SOL     OW12481   5.286   3.420   6.322 -0.5156  0.0329 -0.4637
 3861SOL    HW112482   5.276   3.322   6.340  2.1296 -0.3867 -0.8492
 3861SOL    HW212483   5.383   3.441   6.306 -1.2410  2.4090 -2.2323
 3862SOL     OW12484   2.600   1.829   2.027 -0.2887 -0.0332  0.3057
 3862SOL    HW112485   2.579   1.898   2.096 -0.1172  1.4844 -1.1063
 3862SOL    HW212486   2.685   1.853   1.980 -0.5205 -0.9081 -0.6031
 3863SOL     OW12487   3.047   3.194   1.938  0.3645 -0.0355 -0.7803
 3863SOL    HW112488   2.968   3.251   1.920  1.0397  0.0576 -3.9897
 3863SOL    HW212489   3.131   3.247   1.922  1.0990 -0.6656  0.7277
 3864SOL     OW12490   5.467   5.043   6.316 -0.9050  0.0868 -0.5511
 3864SOL    HW112491   5.489   4.968   6.253 -1.4187 -1.7659  1.3472
 3864SOL    HW212492   5.543   5.055   6.380 -2.0185 -0.8823  1.0119
 3865SOL     OW12493   2.247   4.451   1.299 -0.0649  0.0790  0.5624
 3865SOL    HW112494   2.260   4.546   1.268 -3.5351  0.3869 -0.3570
 3865SOL    HW212495   2.276   4.443   1.394  2.8070  1.3048 -0.1053
 3866SOL     OW12496   6.898   1.978   5.372 -0.1234 -0.2485 -0.2806
 3866SOL    HW112497   6.900   2.064   5.321 -0.1008 -0.1467 -0.1099
 3866SOL    HW212498   6.991   1.941   5.378 -0.2092 -0.5547 -0.8058
 3867SOL     OW12499   3.057   0.404   1.878  0.3207 -0.5412  0.1740
 3867SOL    HW112500   2.995   0.353   1.937 -1.1688 -0.7032 -1.4368
 3867SOL    HW212501   3.113   0.341   1.825  1.1305 -0.4111  0.8617
 3868SOL     OW12502   6.353   1.365   1.671 -0.2988 -0.1781  0.4446
 3868SOL    HW112503   6.408   1.282   1.684  0.2389  0.2383  0.8896
 3868SOL    HW212504   6.376   1.406   1.582 -0.8366 -0.7035  0.0604
 3869SOL     OW12505   5.866   2.669   4.543  0.0731  0.1630 -0.6314
 3869SOL    HW112506   5.861   2.570   4.553 -0.2036  0.2143 -0.2571
 3869SOL    HW212507   5.897   2.710   4.628 -0.8461  0.4768 -0.4383
 3870SOL     OW12508   3.629   2.116   3.449  0.3388 -0.1310  0.0502
 3870SOL    HW112509   3.620   2.080   3.542 -1.3230  1.0694  0.3863
 3870SOL    HW212510   3.714   2.169   3.442 -0.0843  0.7295  1.2285
 3871SOL     OW12511   4.733   4.915   1.137  0.2146  0.4288  0.7232
 3871SOL    HW112512   4.681   4.997   1.163  0.5542  1.0354 -0.3889
 3871SOL    HW212513   4.779   4.933   1.049 -1.7724 -1.8357 -0.8978
 3872SOL     OW12514   1.628   5.163   1.942 -0.0105 -0.3140 -0.1405
 3872SOL    HW112515   1.633   5.091   2.012  0.6081  0.1255  0.2870
 3872SOL    HW212516   1.715   5.213   1.941  0.4460 -1.0654 -2.0535
 3873SOL     OW12517   4.455   3.921   0.808 -0.5003 -0.1746  0.1298
 3873SOL    HW112518   4.542   3.969   0.812 -0.5174 -0.1777  0.6509
 3873SOL    HW212519   4.386   3.972   0.859 -0.7928 -0.1987 -0.2323
 3874SOL     OW12520   0.920   5.709   2.598  0.2135 -0.4953 -0.3744
 3874SOL    HW112521   0.836   5.725   2.547 -0.4965  0.3128  0.9904
 3874SOL    HW212522   0.997   5.749   2.549 -0.4834  0.4730 -0.7148
 3875SOL     OW12523   0.023   6.712   0.270  0.5974 -0.0760  0.5325
 3875SOL    HW112524  -0.031   6.732   0.352  0.3136  0.2580  0.2642
 3875SOL    HW212525   0.057   6.797   0.231 -0.4529 -0.1110 -0.5063
 3876SOL     OW12526   5.925   1.986   0.320  1.1327  0.2457  0.0835
 3876SOL    HW112527   5.964   2.058   0.378 -1.3667  0.4452  1.6638
 3876SOL    HW212528   5.878   2.029   0.242  1.1878  0.2011  0.0255
 3877SOL     OW12529   6.358   5.837   1.776 -0.6992  0.1348 -0.4346
 3877SOL    HW112530   6.364   5.788   1.863  1.5659  0.0406 -0.5806
 3877SOL    HW212531   6.449   5.870   1.750 -1.6211  1.6802 -1.9207
 3878SOL     OW12532   2.502   4.970   6.546 -0.7672 -0.0381  0.2240
 3878SOL    HW112533   2.484   4.961   6.643 -2.0667  0.4822  0.0507
 3878SOL    HW212534   2.436   4.916   6.494 -2.2985  2.3130 -0.4492
 3879SOL     OW12535   3.022   5.845   4.169 -0.2827  0.1678 -0.2393
 3879SOL    HW112536   3.019   5.886   4.260  1.0975 -0.6280  0.2091
 3879SOL    HW212537   3.018   5.917   4.100  1.5436  1.0546  0.5091
 3880SOL     OW12538   3.446   5.852   5.141 -0.1964 -0.2265  0.2388
 3880SOL    HW112539   3.486   5.763   5.163 -1.1532 -0.6507  0.2936
 3880SOL    HW212540   3.363   5.840   5.087 -0.0758  0.6546 -0.1709
 3881SOL     OW12541   3.011   4.436   1.153  0.4943  0.4455 -0.4003
 3881SOL    HW112542   3.095   4.391   1.124  1.1129  0.5229  1.1784
 3881SOL    HW212543   2.969   4.384   1.228  0.1080  1.3796  0.0464
 3882SOL     OW12544   5.032   4.626   6.582 -0.1788  0.7098 -0.1231
 3882SOL    HW112545   5.016   4.528   6.583 -0.6811  0.7936  1.2528
 3882SOL    HW212546   5.086   4.653   6.662 -0.5779  1.6358 -0.1468
 3883SOL     OW12547   0.610   4.931   0.993 -0.7337 -0.9164 -0.1048
 3883SOL    HW112548   0.683   4.908   1.058 -0.9162 -0.3120  0.3256
 3883SOL    HW212549   0.642   5.002   0.931 -0.6491 -1.3068 -0.5127
 3884SOL     OW12550   1.495   5.521   4.671  0.1964  0.2084 -0.8724
 3884SOL    HW112551   1.444   5.577   4.736  0.9655 -0.0269 -0.0478
 3884SOL    HW212552   1.582   5.564   4.649  0.3545 -0.1700 -1.0082
 3885SOL     OW12553   5.167   5.504   1.361 -0.2987  0.1043 -0.0223
 3885SOL    HW112554   5.225   5.431   1.397 -1.8116 -0.3962  1.5457
 3885SOL    HW212555   5.115   5.470   1.283  0.7142  0.2375 -0.7673
 3886SOL     OW12556   5.809   3.797   3.563  0.4860 -0.0520  0.6696
 3886SOL    HW112557   5.843   3.862   3.494  0.1876  0.3481  0.8972
 3886SOL    HW212558   5.726   3.753   3.529  1.0024 -0.7589  0.2689
 3887SOL     OW12559   2.643   4.832   6.997  0.4181 -0.1863 -0.1992
 3887SOL    HW112560   2.685   4.742   7.000 -0.7740 -0.7560  1.8375
 3887SOL    HW212561   2.593   4.844   6.911  0.7550 -1.3906 -0.5682
 3888SOL     OW12562   5.287   1.512   0.411  0.2145 -0.1885 -0.0186
 3888SOL    HW112563   5.382   1.506   0.443  0.0279  0.0288  0.5924
 3888SOL    HW212564   5.232   1.443   0.458 -0.2918  0.8694  0.9836
 3889SOL     OW12565   5.209   2.889   0.509  0.3040  0.1958 -0.1716
 3889SOL    HW112566   5.117   2.849   0.503  0.8033 -1.0245 -0.0296
 3889SOL    HW212567   5.228   2.915   0.604  0.3386 -0.1468 -0.0829
 3890SOL     OW12568   0.117   0.386   6.541  0.2672  0.0047  0.1514
 3890SOL    HW112569   0.127   0.345   6.451 -0.5617 -1.7633  0.8239
 3890SOL    HW212570   0.033   0.439   6.545  0.4967  0.3989 -0.2208
 3891SOL     OW12571   0.750   1.269   5.167  0.1553  0.0440 -0.0232
 3891SOL    HW112572   0.710   1.192   5.118 -1.4157  1.3580 -0.9122
 3891SOL    HW212573   0.836   1.296   5.122  0.0403 -0.3649 -0.4987
 3892SOL     OW12574   6.329   2.652   6.793  0.2856  0.4494 -0.1064
 3892SOL    HW112575   6.320   2.579   6.861 -0.2556  1.9996  1.5814
 3892SOL    HW212576   6.332   2.612   6.701  2.8914 -1.8746  0.8315
 3893SOL     OW12577   4.014   6.437   3.396  0.1734 -0.2312 -0.6040
 3893SOL    HW112578   3.944   6.410   3.463 -0.2125 -1.4750 -1.4836
 3893SOL    HW212579   4.019   6.537   3.393  0.1002 -0.1369  1.1568
 3894SOL     OW12580   1.676   6.401   0.431  0.3014  0.0612  0.4515
 3894SOL    HW112581   1.756   6.342   0.438 -0.9015 -1.6882 -0.0056
 3894SOL    HW212582   1.675   6.465   0.508  0.9027 -1.4626  1.7768
 3895SOL     OW12583   5.853   3.921   0.221 -0.3712 -0.5402  0.0445
 3895SOL    HW112584   5.881   3.872   0.138  0.2417 -1.2911  0.6825
 3895SOL    HW212585   5.754   3.915   0.231 -0.5707  0.3562 -1.1190
 3896SOL     OW12586   6.978   3.879   6.084 -0.8923  0.8246 -0.4027
 3896SOL    HW112587   7.025   3.893   6.171 -0.4719 -0.2854 -0.4354
 3896SOL    HW212588   6.927   3.792   6.086 -2.8111  1.8896 -0.4376
 3897SOL     OW12589   0.235   2.994   2.224  0.1256 -0.3102 -0.0475
 3897SOL    HW112590   0.233   2.964   2.129  0.9293 -1.7366  0.3595
 3897SOL    HW212591   0.307   3.062   2.236  1.3505 -1.5519 -0.1005
 3898SOL     OW12592   2.873   3.476   1.725  0.5243 -0.1190  0.4011
 3898SOL    HW112593   2.967   3.461   1.694  1.0873  1.1004  1.4101
 3898SOL    HW212594   2.869   3.467   1.825  0.0840  2.0475  0.6284
 3899SOL     OW12595   0.817   4.126   1.754  0.7352  0.2822 -0.3577
 3899SOL    HW112596   0.895   4.189   1.758 -0.8096  2.3825 -1.3356
 3899SOL    HW212597   0.743   4.167   1.700 -0.4296 -2.3721 -0.9593
 3900SOL     OW12598   6.088   0.044   5.169  0.0085 -0.5931  0.6872
 3900SOL    HW112599   6.082  -0.055   5.156  0.6248 -0.6071  0.4461
 3900SOL    HW212600   6.035   0.072   5.249 -0.9343 -0.9944  0.2138
 3901SOL     OW12601   0.986   4.856   2.853 -0.3212 -0.3732 -0.4415
 3901SOL    HW112602   0.982   4.820   2.759  0.1505  1.9297 -1.4213
 3901SOL    HW212603   0.898   4.899   2.875  0.6845  2.2878 -1.2766
 3902SOL     OW12604   5.081   5.660   2.558  0.4625  0.2054 -0.4160
 3902SOL    HW112605   5.133   5.720   2.619  1.3739  0.0017 -0.9745
 3902SOL    HW212606   5.129   5.573   2.548 -1.5626 -1.2576  1.5479
 3903SOL     OW12607   5.335   6.455   0.332 -0.3907  0.0274 -0.2675
 3903SOL    HW112608   5.317   6.510   0.250 -0.7177 -1.2205 -1.0786
 3903SOL    HW212609   5.383   6.510   0.400 -0.7346  1.3016 -1.0206
 3904SOL     OW12610   1.977   4.214   5.946  0.3759  0.0031  0.2432
 3904SOL    HW112611   2.027   4.272   5.881 -0.5904 -1.7843 -2.2429
 3904SOL    HW212612   1.903   4.267   5.988  3.0130  2.1930  2.6733
 3905SOL     OW12613   4.587   0.280   1.412 -0.3495 -0.0986 -0.5657
 3905SOL    HW112614   4.601   0.375   1.439 -0.6974  0.4986 -2.3368
 3905SOL    HW212615   4.669   0.227   1.432 -0.0386  0.6244  0.1576
 3906SOL     OW12616   0.543   4.085   6.671 -0.2827 -0.1260 -0.5187
 3906SOL    HW112617   0.538   4.096   6.770 -0.1731  1.5599 -0.6675
 3906SOL    HW212618   0.632   4.048   6.646  1.2373  2.9615 -0.1771
 3907SOL     OW12619   0.837   6.212   6.441 -0.1240  0.0797  0.3974
 3907SOL    HW112620   0.805   6.169   6.525 -0.3840  0.4781  0.5083
 3907SOL    HW212621   0.760   6.231   6.381  0.1414 -0.8659 -0.2533
 3908SOL     OW12622   6.192   1.595   1.441 -0.4329  0.4062 -0.2164
 3908SOL    HW112623   6.274   1.615   1.494 -0.7461  1.2540 -0.0355
 3908SOL    HW212624   6.218   1.561   1.350  0.1204  1.2135 -0.3659
 3909SOL     OW12625   0.183   0.748   1.758 -0.4687  0.4937 -0.6157
 3909SOL    HW112626   0.099   0.773   1.806 -0.9640 -0.6224 -0.8840
 3909SOL    HW212627   0.162   0.721   1.664  0.2743  0.8058 -0.8863
 3910SOL     OW12628   1.972   3.428   2.001 -0.6568  0.5308 -0.4795
 3910SOL    HW112629   2.062   3.472   1.997 -0.3299 -0.0555  0.3145
 3910SOL    HW212630   1.905   3.493   2.036 -0.5799  1.0084 -1.1856
 3911SOL     OW12631   5.374   6.156   3.344  0.0855  0.0333  0.1479
 3911SOL    HW112632   5.408   6.100   3.419  2.0445  1.2757  0.2784
 3911SOL    HW212633   5.409   6.121   3.257  2.1030  1.4860  0.3070
 3912SOL     OW12634   0.902   2.620   2.816  0.2067  1.0185 -0.0825
 3912SOL    HW112635   0.954   2.648   2.897  1.8188  0.0786 -0.7410
 3912SOL    HW212636   0.962   2.571   2.753 -1.7454 -1.1594 -0.3991
 3913SOL     OW12637   6.142   2.911   1.526 -0.1266  0.1429  0.5660
 3913SOL    HW112638   6.147   3.011   1.529 -1.8667  0.2412  1.5208
 3913SOL    HW212639   6.233   2.872   1.538  0.7552  1.6139 -0.9817
 3914SOL     OW12640   1.378   0.845   1.629 -0.4373 -0.0119 -0.2273
 3914SOL    HW112641   1.424   0.863   1.541 -1.4269  2.4484 -0.3227
 3914SOL    HW212642   1.290   0.802   1.612 -1.7223  2.6049 -0.7455
 3915SOL     OW12643   3.001   5.358   6.027 -0.2589 -0.1572 -0.2062
 3915SOL    HW112644   2.942   5.438   6.018 -1.0475 -0.5654  1.1273
 3915SOL    HW212645   2.984   5.295   5.951  0.3252  0.8653 -1.2369
 3916SOL     OW12646   5.937   2.093   0.805 -0.0990  0.0875  0.2871
 3916SOL    HW112647   5.972   2.018   0.749 -2.5478 -0.6179 -0.4573
 3916SOL    HW212648   6.005   2.120   0.872  1.1463 -2.3012  0.0864
 3917SOL     OW12649   3.086   4.836   1.218  0.4446  0.8246 -0.3219
 3917SOL    HW112650   3.170   4.851   1.166 -0.0311  0.1062 -1.3362
 3917SOL    HW212651   3.023   4.911   1.202  0.7461  1.1950  0.1748
 3918SOL     OW12652   3.954   6.545   4.477  0.9666  0.1931 -0.3409
 3918SOL    HW112653   3.874   6.515   4.528 -1.3444  0.9827 -3.2624
 3918SOL    HW212654   4.023   6.472   4.478  0.6548 -0.2311  2.8195
 3919SOL     OW12655   4.307   4.600   2.435  0.1095 -0.6212  0.2588
 3919SOL    HW112656   4.312   4.610   2.336  0.5282 -1.5184  0.1794
 3919SOL    HW212657   4.289   4.504   2.458  0.4043 -0.4910  1.0553
 3920SOL     OW12658   1.224   4.072   0.441  0.2390 -0.1690 -0.2072
 3920SOL    HW112659   1.198   4.019   0.360  1.6101 -2.2413  0.6244
 3920SOL    HW212660   1.321   4.094   0.436  0.0738  0.7231  0.3408
 3921SOL     OW12661   5.357   1.547   6.655 -0.3894  0.3346  0.3156
 3921SOL    HW112662   5.332   1.482   6.728  0.5775  1.5496  1.7948
 3921SOL    HW212663   5.276   1.570   6.602 -0.7740 -1.9856 -0.1923
 3922SOL     OW12664   2.973   5.746   4.495 -0.3699 -0.3572  0.3771
 3922SOL    HW112665   3.073   5.739   4.488 -0.2672  1.8816 -1.6858
 3922SOL    HW212666   2.945   5.841   4.483 -2.8102 -0.9726  0.6133
 3923SOL     OW12667   0.599   3.664   0.430 -0.4516  0.6646  1.1485
 3923SOL    HW112668   0.544   3.653   0.513  1.1266  0.9862  2.2819
 3923SOL    HW212669   0.616   3.761   0.414 -2.5769  0.8077 -0.8682
 3924SOL     OW12670   4.365   6.051   2.976 -0.4009  0.5287 -0.4532
 3924SOL    HW112671   4.460   6.022   2.988 -0.4403  1.1200  1.7608
 3924SOL    HW212672   4.348   6.133   3.032 -2.3377  0.1320 -0.4017
 3925SOL     OW12673   5.368   5.656   1.885 -0.3602  0.4403 -0.0393
 3925SOL    HW112674   5.446   5.595   1.867  0.5884  0.7785  2.4481
 3925SOL    HW212675   5.395   5.751   1.866 -0.5489  0.4487 -0.2640
 3926SOL     OW12676   3.099   6.373   2.443 -0.3493  0.0923 -0.0619
 3926SOL    HW112677   3.014   6.414   2.411  0.6201  1.5121 -0.9307
 3926SOL    HW212678   3.085   6.331   2.532 -1.7839  0.8856  0.1016
 3927SOL     OW12679   0.055   2.108   0.356 -0.4359 -0.2035  0.0276
 3927SOL    HW112680   0.016   2.023   0.391 -0.1547 -0.4909 -0.3445
 3927SOL    HW212681   0.001   2.140   0.278  0.0410 -0.5839 -0.4679
 3928SOL     OW12682   1.773   3.355   3.375 -0.0020  0.1300  0.2293
 3928SOL    HW112683   1.831   3.414   3.320  0.4333  0.7702  1.3484
 3928SOL    HW212684   1.828   3.307   3.443 -0.3796 -1.3985 -0.4760
 3929SOL     OW12685   5.437   0.560   1.404 -0.2679 -1.2526 -0.0694
 3929SOL    HW112686   5.352   0.546   1.456 -0.2385 -2.2081 -0.2600
 3929SOL    HW212687   5.504   0.605   1.462 -0.5803 -1.3889  0.4058
 3930SOL     OW12688   2.418   1.433   5.405  0.4558 -0.6479 -0.5891
 3930SOL    HW112689   2.454   1.446   5.313  1.1129 -0.9497 -0.3804
 3930SOL    HW212690   2.363   1.513   5.431  2.5697  0.7625 -0.1788
 3931SOL     OW12691   1.780   5.452   0.875 -0.5988  0.2939  0.3129
 3931SOL    HW112692   1.770   5.354   0.889 -0.5280 -0.0169 -1.5760
 3931SOL    HW212693   1.877   5.475   0.869 -0.5823  0.6547  1.7757
 3932SOL     OW12694   5.092   1.650   1.493 -0.5375  0.1786  0.1436
 3932SOL    HW112695   5.170   1.606   1.538  1.1127 -0.5870 -3.1714
 3932SOL    HW212696   5.007   1.613   1.531  0.7607 -2.4964  0.7123
 3933SOL     OW12697   2.300   2.707   2.540  0.4626 -0.1429 -0.1875
 3933SOL    HW112698   2.278   2.783   2.478  0.2421  0.4436  0.5995
 3933SOL    HW212699   2.318   2.743   2.631 -0.5236 -1.1080  0.4140
 3934SOL     OW12700   6.295   0.708   5.361 -0.0466 -0.1573 -0.1118
 3934SOL    HW112701   6.338   0.618   5.354 -0.5345 -0.4108  0.1072
 3934SOL    HW212702   6.251   0.717   5.450 -1.7034 -0.4763 -0.8604
 3935SOL     OW12703   5.302   6.685   4.847 -0.4390 -0.3173 -0.3390
 3935SOL    HW112704   5.315   6.682   4.748  1.1715  0.2861 -0.1844
 3935SOL    HW212705   5.357   6.613   4.890  0.6277  0.8122  0.2383
 3936SOL     OW12706   2.247   2.190   1.840 -0.3803 -0.4532 -0.0766
 3936SOL    HW112707   2.170   2.225   1.787 -0.9035 -3.5108 -1.5398
 3936SOL    HW212708   2.214   2.124   1.908  0.8761 -1.5282 -0.4644
 3937SOL     OW12709   0.923   1.147   5.341  0.1612 -0.0973 -0.0145
 3937SOL    HW112710   0.900   1.059   5.301  2.4609 -0.6465 -0.2813
 3937SOL    HW212711   0.859   1.217   5.307  1.0812 -0.7892 -3.5951
 3938SOL     OW12712   0.178   3.696   5.310 -0.1144 -0.0752 -0.8511
 3938SOL    HW112713   0.190   3.690   5.211 -0.4806  0.5600 -0.9451
 3938SOL    HW212714   0.115   3.772   5.331 -0.9226 -0.8959 -0.1956
 3939SOL     OW12715   5.224   4.173   2.142  0.3806 -0.2359 -0.1431
 3939SOL    HW112716   5.154   4.242   2.125 -0.6348 -0.9154  1.1144
 3939SOL    HW212717   5.250   4.130   2.056 -0.1905  0.5563 -0.7209
 3940SOL     OW12718   5.434   6.430   2.102  0.2932  0.0578 -0.4245
 3940SOL    HW112719   5.492   6.502   2.065  0.6504 -0.0218 -0.0210
 3940SOL    HW212720   5.462   6.342   2.064  0.0112  0.0960 -0.7319
 3941SOL     OW12721   6.506   3.610   2.722 -0.3332 -0.1889  0.0054
 3941SOL    HW112722   6.533   3.596   2.627 -0.4884 -0.5024  0.0050
 3941SOL    HW212723   6.552   3.542   2.780  0.3526  0.4722  0.2599
 3942SOL     OW12724   5.120   7.005   0.118  0.0827  0.0598 -0.1024
 3942SOL    HW112725   5.168   6.928   0.076  0.4988  0.3245 -0.1143
 3942SOL    HW212726   5.026   6.978   0.139 -0.1998 -0.0249 -1.3764
 3943SOL     OW12727   4.230   5.273   5.312 -0.0066 -0.2334  0.0204
 3943SOL    HW112728   4.326   5.297   5.297 -0.3891  0.5471 -1.2710
 3943SOL    HW212729   4.208   5.288   5.409  0.1442  3.5294 -0.3723
 3944SOL     OW12730   4.762   5.298   2.004 -0.1701  0.3382 -0.4980
 3944SOL    HW112731   4.811   5.301   1.917 -1.9660 -0.8900 -1.6106
 3944SOL    HW212732   4.686   5.364   2.002 -1.1179 -0.7199 -0.4681
 3945SOL     OW12733   3.982   1.597   3.779  0.3563 -0.1763 -0.2241
 3945SOL    HW112734   4.074   1.634   3.774  0.3762 -0.0992  0.5790
 3945SOL    HW212735   3.965   1.561   3.871  0.2100 -1.8405 -0.8792
 3946SOL     OW12736   1.979   1.943   5.322  0.2415  0.3781 -0.0089
 3946SOL    HW112737   2.003   1.868   5.382  0.4205  1.5932  1.5005
 3946SOL    HW212738   1.987   1.914   5.226 -2.3151 -2.3053  0.4795
 3947SOL     OW12739   4.421   4.020   6.009 -0.0058 -0.2778 -0.1491
 3947SOL    HW112740   4.363   4.045   6.086  1.6613  0.2614  1.0034
 3947SOL    HW212741   4.369   4.027   5.924 -2.4569 -2.6746  1.0037
 3948SOL     OW12742   4.724   5.401   0.124  0.1777  0.0939 -0.1160
 3948SOL    HW112743   4.802   5.442   0.076 -0.5983  0.0423 -1.4651
 3948SOL    HW212744   4.669   5.349   0.059 -0.6217 -0.4354  0.9584
 3949SOL     OW12745   1.270   6.131   3.775  0.2529 -0.1286  0.5256
 3949SOL    HW112746   1.225   6.208   3.820  0.2039 -0.3204  0.8084
 3949SOL    HW212747   1.214   6.100   3.698  0.1735 -0.0087  0.5357
 3950SOL     OW12748   0.020   4.569   6.980 -0.1553 -0.1677 -0.0139
 3950SOL    HW112749   0.109   4.584   6.937 -0.5368  0.7915 -0.4846
 3950SOL    HW212750   0.018   4.611   7.070  0.1321 -0.8784  0.3294
 3951SOL     OW12751   3.901   1.978   6.158 -0.0796 -0.5578 -0.0407
 3951SOL    HW112752   3.953   2.049   6.204 -0.8880  0.3713 -0.5305
 3951SOL    HW212753   3.957   1.938   6.085 -0.4760  1.3961 -1.4968
 3952SOL     OW12754   2.885   1.395   5.890 -0.5750  0.4780  0.3115
 3952SOL    HW112755   2.929   1.329   5.951  1.7075  1.0387 -0.6105
 3952SOL    HW212756   2.823   1.453   5.943  0.8048  0.5021  1.9888
 3953SOL     OW12757   6.273   3.727   1.254 -0.1731  0.5221 -0.2212
 3953SOL    HW112758   6.264   3.817   1.212 -0.9638  0.4984 -0.1168
 3953SOL    HW212759   6.255   3.656   1.186  1.4158  0.3964 -0.5574
 3954SOL     OW12760   1.520   0.826   3.263 -0.3930 -0.2359  0.4963
 3954SOL    HW112761   1.424   0.853   3.265 -0.5685 -0.1904 -2.6667
 3954SOL    HW212762   1.535   0.765   3.185  2.5548  1.7370 -0.6548
 3955SOL     OW12763   6.206   6.569   6.311  0.6465 -0.0586 -0.0824
 3955SOL    HW112764   6.109   6.579   6.287  0.6006 -0.2056  0.0384
 3955SOL    HW212765   6.252   6.658   6.302  0.6523 -0.1261 -0.7803
 3956SOL     OW12766   5.307   6.604   6.432 -0.0339  0.2178  1.0101
 3956SOL    HW112767   5.345   6.588   6.524 -2.0243 -1.0785  1.6607
 3956SOL    HW212768   5.381   6.632   6.371  1.3859  1.0005  2.9490
 3957SOL     OW12769   4.782   0.938   3.501  0.3527 -0.0236  0.4924
 3957SOL    HW112770   4.695   0.980   3.474  0.0062  0.0097  1.5783
 3957SOL    HW212771   4.798   0.856   3.446 -1.2210 -0.9796  1.3673
 3958SOL     OW12772   3.063   3.105   4.563 -0.0891 -0.9014  0.5780
 3958SOL    HW112773   2.986   3.161   4.531 -0.3611 -0.9060  1.1976
 3958SOL    HW212774   3.118   3.075   4.485 -0.1235 -0.0384  0.2110
 3959SOL     OW12775   1.923   5.720   5.873  1.2176 -0.9655  0.2857
 3959SOL    HW112776   1.823   5.713   5.877  1.0125  1.5833  2.0992
 3959SOL    HW212777   1.961   5.711   5.965  2.5409 -0.4992 -0.1831
 3960SOL     OW12778   4.901   1.330   6.779 -0.4547  0.2193  0.0364
 3960SOL    HW112779   4.950   1.300   6.860 -0.1799  0.8579  0.1129
 3960SOL    HW212780   4.804   1.312   6.789 -0.8212  2.6082  1.6387
 3961SOL     OW12781   1.536   0.034   6.217  0.3083 -0.2753  0.2578
 3961SOL    HW112782   1.464  -0.036   6.216  1.8358 -1.9077  0.1160
 3961SOL    HW212783   1.560   0.059   6.123  0.4668 -0.3029  0.2916
 3962SOL     OW12784   6.370   3.796   5.392 -0.1192  0.8299  0.7663
 3962SOL    HW112785   6.462   3.756   5.396 -1.2949 -2.0351  0.9558
 3962SOL    HW212786   6.339   3.798   5.297 -0.5765  0.0312  0.8954
 3963SOL     OW12787   2.074   3.074   4.549 -0.4162  0.4462 -0.0065
 3963SOL    HW112788   2.071   3.152   4.612 -0.0918  0.0242  0.5331
 3963SOL    HW212789   2.089   3.107   4.456 -0.9716  1.0784  0.1191
 3964SOL     OW12790   5.175   4.120   1.671  0.0495 -0.1357  0.3925
 3964SOL    HW112791   5.097   4.177   1.700 -0.3734 -0.0326 -0.8730
 3964SOL    HW212792   5.141   4.043   1.617  0.7115 -1.0032  1.1936
 3965SOL     OW12793   2.197   5.246   5.767 -0.1659  0.5596  0.4770
 3965SOL    HW112794   2.171   5.273   5.859  1.3451  2.2431  0.4645
 3965SOL    HW212795   2.247   5.321   5.723  2.0075 -1.3577 -0.5155
 3966SOL     OW12796   3.952   0.166   4.904 -0.0663  0.1915 -0.1970
 3966SOL    HW112797   3.926   0.070   4.889  1.8703 -0.2362 -1.2393
 3966SOL    HW212798   4.048   0.170   4.931 -0.1195  1.8612 -0.1480
 3967SOL     OW12799   4.783   4.677   1.891  1.0197 -0.1812  0.0472
 3967SOL    HW112800   4.760   4.701   1.985  1.1779 -3.0077  0.9006
 3967SOL    HW212801   4.720   4.724   1.828  0.9426  1.7883  1.5163
 3968SOL     OW12802   5.930   5.127   1.410  0.2910  0.1459 -0.0789
 3968SOL    HW112803   5.899   5.033   1.394  0.3643 -0.2666  1.9360
 3968SOL    HW212804   6.021   5.125   1.451  0.0861  1.0696  0.4352
 3969SOL     OW12805   2.072   0.543   5.013  0.1102  0.3958  0.1301
 3969SOL    HW112806   2.106   0.527   5.105  0.0678 -0.5159 -0.0092
 3969SOL    HW212807   2.138   0.598   4.962 -0.3096  1.7623  0.9929
 3970SOL     OW12808   0.224   0.532   1.583  0.4687  0.3153  0.2267
 3970SOL    HW112809   0.130   0.499   1.586  0.7778 -0.5480  0.7452
 3970SOL    HW212810   0.265   0.506   1.495  1.1213 -1.9137  1.1297
 3971SOL     OW12811   3.111   1.708   2.730 -0.1525 -0.1903 -0.1044
 3971SOL    HW112812   3.145   1.670   2.645 -1.3247  1.0696 -1.1845
 3971SOL    HW212813   3.167   1.676   2.806  0.5463 -1.8227 -1.2594
 3972SOL     OW12814   5.587   4.409   3.109  0.6036  0.3262 -0.1308
 3972SOL    HW112815   5.515   4.478   3.098 -0.1012 -0.0748  1.5369
 3972SOL    HW212816   5.632   4.422   3.197  0.9433 -0.8832 -0.1045
 3973SOL     OW12817   4.720   0.212   0.738 -0.0166  0.5347 -0.5372
 3973SOL    HW112818   4.711   0.127   0.790  1.8065  1.3326  1.2358
 3973SOL    HW212819   4.719   0.192   0.640  1.0791 -1.6476 -0.1641
 3974SOL     OW12820   5.433   6.772   5.742 -0.1969 -0.1275  0.3103
 3974SOL    HW112821   5.431   6.806   5.648 -1.3231 -0.3206  0.2508
 3974SOL    HW212822   5.349   6.722   5.762 -0.4121  0.7255  1.7223
 3975SOL     OW12823   0.685   5.452   0.351 -1.1172 -0.0975  0.0938
 3975SOL    HW112824   0.725   5.537   0.385 -0.1548 -0.7928  0.7591
 3975SOL    HW212825   0.598   5.434   0.398 -2.4579  1.6079 -1.6148
 3976SOL     OW12826   0.376   2.493   1.675 -0.2402  0.4512 -0.0201
 3976SOL    HW112827   0.423   2.491   1.763  1.2605  0.3650 -0.7870
 3976SOL    HW212828   0.319   2.412   1.665 -0.1210  0.2730  0.7215
 3977SOL     OW12829   2.988   3.403   0.861  0.5758 -0.8112 -0.8119
 3977SOL    HW112830   2.919   3.350   0.812 -0.4055 -0.9770  0.7053
 3977SOL    HW212831   2.967   3.500   0.854  0.5824 -0.8159 -0.9058
 3978SOL     OW12832   0.801   0.599   2.748  0.4176  0.6023  0.2132
 3978SOL    HW112833   0.706   0.627   2.732  0.7895  2.7708  1.4437
 3978SOL    HW212834   0.862   0.664   2.702  1.3226  0.6474  1.4560
 3979SOL     OW12835   0.972   4.196   4.436  0.4396 -0.5847 -0.2483
 3979SOL    HW112836   0.935   4.250   4.359  0.6666 -0.3364 -0.1837
 3979SOL    HW212837   0.937   4.103   4.430 -0.4535 -0.2809 -0.0224
 3980SOL     OW12838   6.164   3.496   6.019 -0.2116  0.2589 -0.4955
 3980SOL    HW112839   6.094   3.492   6.090 -0.5528  1.0160 -0.7840
 3980SOL    HW212840   6.178   3.404   5.982  1.2977 -0.5165  1.7893
 3981SOL     OW12841   6.053   5.693   4.519 -0.2213 -0.1794  0.2051
 3981SOL    HW112842   6.048   5.623   4.590  1.3737 -0.5068  0.0220
 3981SOL    HW212843   6.077   5.651   4.432  1.0716  0.6043  0.1516
 3982SOL     OW12844   6.168   5.944   2.315 -0.3789  0.0363  0.7552
 3982SOL    HW112845   6.237   5.916   2.248 -2.2482 -1.1122 -0.7708
 3982SOL    HW212846   6.094   5.991   2.269 -1.0895  0.4426  2.2419
 3983SOL     OW12847   3.263   0.906   5.234 -0.3142  0.0522 -0.5930
 3983SOL    HW112848   3.320   0.974   5.189 -0.8399 -0.2710 -1.7899
 3983SOL    HW212849   3.169   0.913   5.200 -0.8782  0.2087  0.9296
 3984SOL     OW12850   0.364   0.431   5.823  0.0410 -0.3153 -0.5936
 3984SOL    HW112851   0.309   0.372   5.764 -0.2888  0.3126 -0.9184
 3984SOL    HW212852   0.306   0.472   5.893  0.2232 -0.1791 -0.5196
 3985SOL     OW12853   4.218   3.053   6.225  0.1397 -0.0256  0.9300
 3985SOL    HW112854   4.188   3.078   6.317  0.2285 -0.1134  0.9830
 3985SOL    HW212855   4.163   2.976   6.192 -0.2287  0.3299  0.7118
 3986SOL     OW12856   1.062   7.018   0.625 -0.1372 -0.1826 -0.1728
 3986SOL    HW112857   1.031   6.953   0.694 -2.7497  1.1152  0.0363
 3986SOL    HW212858   1.094   7.102   0.669 -1.1963  0.3998 -0.4654
 3987SOL     OW12859   1.818   6.014   6.732  0.3964  0.1055 -0.0158
 3987SOL    HW112860   1.719   6.023   6.731  0.5183  1.8165 -0.4076
 3987SOL    HW212861   1.853   6.042   6.821  0.4745 -1.7723  0.5934
 3988SOL     OW12862   6.458   4.005   4.806  0.6461 -0.7415 -0.0348
 3988SOL    HW112863   6.452   4.074   4.734 -0.8390 -0.8685 -0.0714
 3988SOL    HW212864   6.536   4.024   4.866  1.1155  0.1129 -0.8980
 3989SOL     OW12865   1.274   4.095   5.936 -0.1380  0.5368 -0.5242
 3989SOL    HW112866   1.326   4.010   5.947  0.5324  1.0274  0.2526
 3989SOL    HW212867   1.298   4.139   5.850  0.9783  0.8933 -0.0576
 3990SOL     OW12868   2.119   0.425   5.859  0.1370 -0.5170  0.0515
 3990SOL    HW112869   2.070   0.418   5.946  0.9993 -0.1539  0.5779
 3990SOL    HW212870   2.104   0.516   5.821 -1.8465 -1.3004 -1.1829
 3991SOL     OW12871   0.632   4.115   2.569  1.1121  0.7738 -0.7553
 3991SOL    HW112872   0.585   4.055   2.504 -0.8839  0.3153  0.9663
 3991SOL    HW212873   0.731   4.103   2.561  0.8457 -0.8111 -2.2373
 3992SOL     OW12874   0.535   3.488   5.634 -0.1165  0.2381  0.1389
 3992SOL    HW112875   0.465   3.418   5.641  3.0995 -3.2238  0.6153
 3992SOL    HW212876   0.544   3.536   5.721 -1.0091 -0.1388  0.4468
 3993SOL     OW12877   3.434   5.509   6.786  0.4361 -0.2295 -0.2085
 3993SOL    HW112878   3.408   5.562   6.705  2.2184  1.9690  0.5321
 3993SOL    HW212879   3.364   5.520   6.857 -0.3540 -0.8700 -0.8589
 3994SOL     OW12880   5.197   0.555   4.627  0.6383 -0.2186  0.0555
 3994SOL    HW112881   5.231   0.493   4.556  0.8417  1.0999 -1.0397
 3994SOL    HW212882   5.112   0.598   4.596 -0.2561 -0.9566  1.3776
 3995SOL     OW12883   6.448   1.605   2.483 -0.3647  0.2985  0.0883
 3995SOL    HW112884   6.519   1.536   2.497  0.5568  1.5050  1.5728
 3995SOL    HW212885   6.365   1.578   2.533 -0.5448 -0.4673 -0.5963
 3996SOL     OW12886   1.652   0.730   2.158 -0.8106 -0.0365 -0.2112
 3996SOL    HW112887   1.634   0.662   2.087  2.0487 -2.4783  1.1366
 3996SOL    HW212888   1.661   0.684   2.246  1.8590  1.9401  0.6837
 3997SOL     OW12889   3.712   7.001   4.585  0.3255 -0.5491  0.4091
 3997SOL    HW112890   3.691   7.098   4.576  2.5901  0.1131  1.6074
 3997SOL    HW212891   3.629   6.947   4.569 -0.5879  1.4293 -2.3001
 3998SOL     OW12892   0.275   6.706   3.867 -0.0659 -0.6257 -0.6621
 3998SOL    HW112893   0.230   6.667   3.948 -2.1501 -1.5197 -2.1553
 3998SOL    HW212894   0.366   6.666   3.857 -0.0638 -1.0438  0.8135
 3999SOL     OW12895   1.707   3.825   5.989 -0.6123 -0.0012  0.0674
 3999SOL    HW112896   1.663   3.741   6.019  1.3275 -0.4696  1.8245
 3999SOL    HW212897   1.636   3.892   5.964 -2.2695 -1.0844  1.5937
 4000SOL     OW12898   6.687   6.839   4.366 -0.1741 -0.1359 -0.0066
 4000SOL    HW112899   6.591   6.864   4.355  0.0885  1.0801  0.3884
 4000SOL    HW212900   6.743   6.888   4.299  0.3944  0.7171  1.0545
 4001SOL     OW12901   5.015   0.583   6.643 -0.1268  0.0381 -0.0979
 4001SOL    HW112902   4.928   0.625   6.617 -0.4729 -0.4996  0.1815
 4001SOL    HW212903   5.090   0.639   6.608 -0.5088  2.3726  2.3722
 4002SOL     OW12904   0.902   4.868   4.688 -0.2911  0.0031  0.3053
 4002SOL    HW112905   0.900   4.935   4.763  2.6783  0.9187 -0.3222
 4002SOL    HW212906   0.976   4.890   4.625 -2.5144 -0.8651 -2.8804
 4003SOL     OW12907   5.570   0.733   3.823 -0.6532 -0.1206  0.2298
 4003SOL    HW112908   5.521   0.720   3.736 -1.3789 -0.7269  0.7192
 4003SOL    HW212909   5.618   0.648   3.846 -1.0363 -0.1962  0.7648
 4004SOL     OW12910   2.754   4.508   5.479 -0.1830  0.0717 -0.0368
 4004SOL    HW112911   2.698   4.560   5.414 -2.2048  0.2155  1.7069
 4004SOL    HW212912   2.768   4.415   5.446 -2.4066 -0.2921 -0.0815
 4005SOL     OW12913   5.596   4.509   6.772 -0.2080 -0.3396 -0.1496
 4005SOL    HW112914   5.622   4.586   6.830  0.4764 -0.0945 -0.7597
 4005SOL    HW212915   5.625   4.528   6.678 -0.6709 -1.0337 -0.4344
 4006SOL     OW12916   0.523   5.535   6.279 -0.2623 -0.1121 -0.6122
 4006SOL    HW112917   0.525   5.562   6.375 -0.2400 -0.2182 -0.5835
 4006SOL    HW212918   0.476   5.606   6.226  0.3650  0.2931 -0.6308
 4007SOL     OW12919   2.804   6.002   3.110 -0.5051 -0.3057 -0.2156
 4007SOL    HW112920   2.886   6.022   3.163  1.5246 -1.9118 -2.5555
 4007SOL    HW212921   2.745   6.083   3.108  3.2583  2.7441 -2.3458
 4008SOL     OW12922   0.427   1.249   2.615 -0.3568  0.2340 -0.6558
 4008SOL    HW112923   0.374   1.318   2.566 -0.9414  0.4140  0.1978
 4008SOL    HW212924   0.523   1.277   2.620 -0.4671  0.6555 -0.9019
 4009SOL     OW12925   5.816   3.325   3.598 -0.2004  0.1004 -0.5061
 4009SOL    HW112926   5.885   3.302   3.667 -2.0805 -1.5849  0.9573
 4009SOL    HW212927   5.861   3.355   3.514  2.2844 -0.9540  0.3568
 4010SOL     OW12928   4.927   1.397   4.638 -0.0638 -0.2576  0.2716
 4010SOL    HW112929   4.930   1.317   4.578  0.0672  0.3001 -0.4919
 4010SOL    HW212930   4.872   1.377   4.719  1.9026 -1.8781  1.2689
 4011SOL     OW12931   5.022   4.730   2.046 -0.2635  0.3629 -0.0787
 4011SOL    HW112932   4.982   4.721   1.955 -2.4901 -2.1242  0.9780
 4011SOL    HW212933   4.992   4.815   2.088  0.4578  1.3388 -1.4506
 4012SOL     OW12934   2.875   1.622   3.366  0.2956  0.2651 -0.1049
 4012SOL    HW112935   2.883   1.527   3.337 -0.9125  0.4090 -1.0119
 4012SOL    HW212936   2.850   1.679   3.287  0.5172  1.2553  0.5183
 4013SOL     OW12937   1.597   6.046   2.831 -0.0316 -0.3922  0.4908
 4013SOL    HW112938   1.573   5.956   2.794 -0.1939 -1.3295  2.6696
 4013SOL    HW212939   1.514   6.089   2.869 -0.1059  1.0695 -1.2001
 4014SOL     OW12940   1.885   1.983   2.214  0.4935  0.1725  0.4195
 4014SOL    HW112941   1.975   2.004   2.252  0.4529 -1.2136  1.3859
 4014SOL    HW212942   1.893   1.969   2.115  2.3039 -4.0532  0.9247
 4015SOL     OW12943   6.590   0.969   6.654 -0.0675 -0.0972 -0.0878
 4015SOL    HW112944   6.564   1.066   6.654  1.5403  0.3708 -0.8630
 4015SOL    HW212945   6.516   0.915   6.693 -2.2079  1.1056 -2.2353
 4016SOL     OW12946   4.324   5.520   2.063  0.1883 -0.2550  0.2316
 4016SOL    HW112947   4.313   5.556   2.156  0.2592  0.6912 -0.1248
 4016SOL    HW212948   4.240   5.536   2.011  0.3642 -0.2561 -0.0513
 4017SOL     OW12949   6.380   6.855   4.619  0.5261 -0.1334 -0.1897
 4017SOL    HW112950   6.440   6.882   4.694 -1.1456  1.6759  0.5923
 4017SOL    HW212951   6.336   6.768   4.641 -1.4445  1.2935  1.9579
 4018SOL     OW12952   0.248   4.672   6.870 -0.1008  0.2346  0.1778
 4018SOL    HW112953   0.243   4.676   6.770 -1.4593  1.4132  0.2622
 4018SOL    HW212954   0.331   4.718   6.900  0.3458 -0.1722 -0.3997
 4019SOL     OW12955   0.648   0.348   0.289 -0.0177 -0.2619 -0.1028
 4019SOL    HW112956   0.681   0.424   0.233  1.0733  0.8938  1.9876
 4019SOL    HW212957   0.721   0.281   0.299 -0.9176 -1.5700 -1.7856
 4020SOL     OW12958   1.678   3.312   5.469 -0.0362 -0.1146  0.1460
 4020SOL    HW112959   1.687   3.374   5.547 -0.8541 -2.0384  1.8300
 4020SOL    HW212960   1.582   3.304   5.443  0.2835  1.0487 -1.5903
 4021SOL     OW12961   3.769   5.709   5.297  0.2405 -0.1234  0.5339
 4021SOL    HW112962   3.701   5.656   5.247 -1.7363  2.2165  0.5993
 4021SOL    HW212963   3.836   5.646   5.338 -1.6983 -2.5157  0.2685
 4022SOL     OW12964   4.705   1.730   6.794 -0.5806 -0.0239 -0.0381
 4022SOL    HW112965   4.793   1.750   6.836  0.9739 -2.0558 -2.1097
 4022SOL    HW212966   4.678   1.636   6.815 -1.5094  0.0769 -0.6982
 4023SOL     OW12967   5.990   3.472   0.472 -0.5858  0.3799 -0.6382
 4023SOL    HW112968   6.068   3.418   0.439 -1.1051  0.2323 -1.6414
 4023SOL    HW212969   5.954   3.430   0.555  1.3644  1.3154  0.7719
 4024SOL     OW12970   0.455   6.839   4.989 -0.2862  0.5139  0.8083
 4024SOL    HW112971   0.491   6.816   4.899 -1.6864  0.2987  0.2697
 4024SOL    HW212972   0.525   6.887   5.042  1.1757 -0.9708  0.2955
 4025SOL     OW12973   5.665   6.296   3.422  0.8595  0.9698  0.4634
 4025SOL    HW112974   5.600   6.274   3.349 -0.1667  2.8741  0.7349
 4025SOL    HW212975   5.709   6.212   3.454 -1.6478 -0.4814  0.4140
 4026SOL     OW12976   0.377   2.839   4.283  0.4187 -0.1442 -0.1764
 4026SOL    HW112977   0.377   2.896   4.202  1.4734 -0.6656 -0.5654
 4026SOL    HW212978   0.407   2.746   4.259 -1.6892 -1.0172  0.3471
 4027SOL     OW12979   5.280   6.897   6.631  0.0992  0.2504  0.2056
 4027SOL    HW112980   5.188   6.919   6.662 -0.5953 -1.5664 -0.4305
 4027SOL    HW212981   5.311   6.811   6.673  0.5265 -0.4152 -1.3824
 4028SOL     OW12982   1.179   3.089   2.837 -0.1901  0.0440  0.0340
 4028SOL    HW112983   1.112   3.035   2.887  1.1454  0.0551  1.9686
 4028SOL    HW212984   1.132   3.151   2.774 -1.8447 -1.5487 -0.3609
 4029SOL     OW12985   3.019   0.334   6.059 -0.3577  0.0488 -0.1585
 4029SOL    HW112986   3.017   0.409   5.992 -1.2970  0.1469 -0.0298
 4029SOL    HW212987   3.014   0.371   6.151  1.1963 -0.0725  0.0014
 4030SOL     OW12988   6.366   3.434   0.489  0.3600  0.0780  0.1895
 4030SOL    HW112989   6.367   3.515   0.547 -0.9657  0.5108 -0.3743
 4030SOL    HW212990   6.444   3.437   0.426 -0.7361  1.9278 -1.1732
 4031SOL     OW12991   3.424   6.456   0.124  0.5347  0.3755 -0.3603
 4031SOL    HW112992   3.349   6.519   0.105  0.1334 -0.0044 -0.0319
 4031SOL    HW212993   3.485   6.495   0.193 -0.3112 -0.0593  0.6501
 4032SOL     OW12994   4.095   4.809   2.413  0.8896  0.5514 -0.1718
 4032SOL    HW112995   4.083   4.811   2.314  1.5127  2.0272 -0.2415
 4032SOL    HW212996   4.149   4.729   2.438  0.2354 -0.1529 -0.9538
 4033SOL     OW12997   5.830   4.876   1.315  0.1771 -0.1833  0.0707
 4033SOL    HW112998   5.883   4.802   1.273  1.7435 -0.0225  1.6038
 4033SOL    HW212999   5.779   4.840   1.393 -0.4277  0.0280 -0.2287
 4034SOL     OW13000   3.595   1.685   3.520  0.2826  0.6190  0.2768
 4034SOL    HW113001   3.585   1.739   3.436 -2.6637 -0.5309 -0.2501
 4034SOL    HW213002   3.530   1.718   3.589  0.9522  0.0114  1.2220
 4035SOL     OW13003   4.396   5.219   4.491 -0.0152  0.2004 -0.4146
 4035SOL    HW113004   4.486   5.255   4.467  0.0350 -0.1587 -0.7864
 4035SOL    HW213005   4.361   5.166   4.414 -1.8643  2.8002 -1.5040
 4036SOL     OW13006   3.189   0.383   2.515  0.1663 -0.2359  0.1351
 4036SOL    HW113007   3.124   0.459   2.511  0.4613  0.1199  1.6092
 4036SOL    HW213008   3.240   0.387   2.601  1.5727 -0.9850 -0.6342
 4037SOL     OW13009   3.235   2.782   5.585 -0.0671  0.2377  0.3901
 4037SOL    HW113010   3.146   2.809   5.621 -0.2616  0.6194 -0.3512
 4037SOL    HW213011   3.224   2.743   5.494  0.4721 -0.1919  0.5040
 4038SOL     OW13012   6.465   4.771   2.341 -0.1229 -0.8130  0.1500
 4038SOL    HW113013   6.424   4.699   2.285 -1.1794  1.9048 -2.9047
 4038SOL    HW213014   6.422   4.772   2.431 -0.9425 -3.1329 -0.1395
 4039SOL     OW13015   1.310   5.491   1.190  0.0749 -0.2963  0.1430
 4039SOL    HW113016   1.388   5.504   1.129  0.8790  1.0481  1.3914
 4039SOL    HW213017   1.316   5.401   1.233  0.2472 -0.7038 -0.7236
 4040SOL     OW13018   5.441   2.679   2.159  0.3655  0.1086  0.1655
 4040SOL    HW113019   5.463   2.717   2.069 -2.2781  0.2293 -0.5202
 4040SOL    HW213020   5.393   2.592   2.147 -0.0007  0.1141  1.4759
 4041SOL     OW13021   5.558   4.634   4.591  0.5124 -0.1786  0.4569
 4041SOL    HW113022   5.497   4.554   4.593 -0.7777  0.7608  0.1920
 4041SOL    HW213023   5.523   4.704   4.653  2.1016 -0.1192  1.3413
 4042SOL     OW13024   1.094   4.550   3.621 -0.3478 -0.4020 -0.7350
 4042SOL    HW113025   1.107   4.475   3.686  0.1106  0.3331  0.0483
 4042SOL    HW213026   1.077   4.513   3.530  0.5138 -1.4569 -0.4910
 4043SOL     OW13027   4.122   4.750   3.391  0.2271 -0.1294  0.1980
 4043SOL    HW113028   4.091   4.709   3.305 -0.3368  0.5432  0.0713
 4043SOL    HW213029   4.065   4.829   3.413  1.2294  0.5244  0.4975
 4044SOL     OW13030   1.425   4.300   5.460 -0.0540  0.2564  0.3937
 4044SOL    HW113031   1.516   4.262   5.476 -0.6174 -0.7433  1.3597
 4044SOL    HW213032   1.433   4.390   5.418  1.4072  0.6540  1.4715
 4045SOL     OW13033   3.732   3.088   1.674  0.1427 -0.3399 -0.2703
 4045SOL    HW113034   3.822   3.132   1.670  0.8083 -1.6432 -0.0219
 4045SOL    HW213035   3.677   3.117   1.596  1.0141 -0.0460 -0.7780
 4046SOL     OW13036   1.919   2.268   6.722 -0.2030  0.1609  0.3726
 4046SOL    HW113037   2.017   2.258   6.702 -0.4090 -0.7397 -0.2207
 4046SOL    HW213038   1.904   2.354   6.771  0.4158  2.2881 -2.8808
 4047SOL     OW13039   4.591   0.620   5.702 -0.1778  0.1878  0.0300
 4047SOL    HW113040   4.614   0.718   5.705 -0.7207  0.4108 -1.7907
 4047SOL    HW213041   4.523   0.600   5.771  0.3771  0.9680  0.8310
 4048SOL     OW13042   0.073   0.637   2.618  0.0687  0.2715  0.3480
 4048SOL    HW113043   0.058   0.720   2.564 -0.3620  0.8171  1.2859
 4048SOL    HW213044  -0.012   0.584   2.621  0.9265 -1.4385 -2.2055
 4049SOL     OW13045   0.702   5.079   0.269  0.0482  0.4883  0.3579
 4049SOL    HW113046   0.697   5.009   0.198 -1.0127  1.4438 -0.5572
 4049SOL    HW213047   0.658   5.163   0.236  2.4829  2.0642  0.8794
 4050SOL     OW13048   1.509   4.103   3.158  0.3755  0.1054  0.1209
 4050SOL    HW113049   1.535   4.010   3.130  1.9543  0.6220 -0.2119
 4050SOL    HW213050   1.454   4.098   3.242  0.7680 -1.1112  0.3281
 4051SOL     OW13051   6.108   4.850   5.828  0.7790  0.0242 -0.1103
 4051SOL    HW113052   6.055   4.778   5.872  1.5266 -0.5527 -0.1418
 4051SOL    HW213053   6.201   4.850   5.863  1.0554  0.3339 -0.8250
 4052SOL     OW13054   3.268   5.476   3.484 -0.7088  0.4116  0.0541
 4052SOL    HW113055   3.320   5.421   3.418  0.3152  0.5269  0.7366
 4052SOL    HW213056   3.194   5.523   3.437 -1.4004 -1.2717 -0.6137
 4053SOL     OW13057   5.728   3.157   5.934  0.1964  0.2282  0.5147
 4053SOL    HW113058   5.633   3.140   5.959 -0.0772  0.9956  0.0352
 4053SOL    HW213059   5.742   3.256   5.922  1.0720  0.1267  0.6708
 4054SOL     OW13060   4.370   3.192   0.050 -0.5247  0.5211 -0.1423
 4054SOL    HW113061   4.336   3.099   0.043 -0.7517  0.5595  0.3768
 4054SOL    HW213062   4.469   3.190   0.070 -0.4450  0.3974 -0.5534
 4055SOL     OW13063   6.765   6.831   5.653  0.3689 -0.3048  0.0701
 4055SOL    HW113064   6.782   6.832   5.751 -0.7071  0.8902  0.2730
 4055SOL    HW213065   6.826   6.765   5.609 -0.5538 -2.3889  1.7685
 4056SOL     OW13066   6.757   6.985   4.104 -0.0993 -0.0809 -0.0308
 4056SOL    HW113067   6.799   7.024   4.021 -0.7707 -0.1184 -0.3942
 4056SOL    HW213068   6.684   7.046   4.136 -0.3128 -0.4194  0.1247
 4057SOL     OW13069   6.093   5.426   4.054 -0.0054  0.1970 -0.5394
 4057SOL    HW113070   6.166   5.357   4.059 -0.4677 -0.3777 -1.3933
 4057SOL    HW213071   6.087   5.461   3.961 -0.3167  0.8154 -0.2922
 4058SOL     OW13072   5.289   1.807   3.131 -0.0021 -0.3694 -0.0394
 4058SOL    HW113073   5.293   1.747   3.211 -1.5522 -0.3795  0.0711
 4058SOL    HW213074   5.219   1.877   3.145  0.2897  0.1464 -1.0423
 4059SOL     OW13075   1.648   3.277   2.851  0.0617 -0.0121 -0.5080
 4059SOL    HW113076   1.636   3.189   2.897 -1.3087  0.8888  0.9859
 4059SOL    HW213077   1.587   3.282   2.772  0.3819 -0.5016 -0.7959
 4060SOL     OW13078   0.515   4.727   6.739  0.1760  0.1755  0.8805
 4060SOL    HW113079   0.573   4.808   6.746  1.7342 -0.7929 -0.1067
 4060SOL    HW213080   0.502   4.703   6.642  0.4743 -1.2078  1.1492
 4061SOL     OW13081   6.308   5.447   6.775  0.1612  0.0208  0.6858
 4061SOL    HW113082   6.250   5.431   6.855  1.7850  0.0530  1.9404
 4061SOL    HW213083   6.285   5.534   6.733 -0.9793 -0.1829  0.8771
 4062SOL     OW13084   1.584   5.007   5.839 -0.1376 -0.0307  0.5203
 4062SOL    HW113085   1.573   4.941   5.766 -0.3630  0.1127  0.4251
 4062SOL    HW213086   1.677   5.044   5.836  0.0986 -0.5873  0.7827
 4063SOL     OW13087   0.966   2.832   6.500 -0.4602  0.0604 -0.1973
 4063SOL    HW113088   0.973   2.768   6.576  2.3227  1.2037  0.6355
 4063SOL    HW213089   1.054   2.837   6.453 -1.1104  1.9760 -1.3133
 4064SOL     OW13090   1.186   6.196   1.274 -0.5025 -0.3224  0.1675
 4064SOL    HW113091   1.199   6.206   1.373  2.5891  0.7634 -0.2208
 4064SOL    HW213092   1.202   6.285   1.230  0.3948 -1.2415 -1.4505
 4065SOL     OW13093   2.264   2.275   4.894 -0.1305  0.3624 -0.1938
 4065SOL    HW113094   2.318   2.211   4.949  0.5151  0.7970 -0.3040
 4065SOL    HW213095   2.280   2.257   4.797  0.4774  1.0138 -0.2300
 4066SOL     OW13096   0.539   6.181   3.107 -0.1545 -0.2106 -0.1888
 4066SOL    HW113097   0.624   6.143   3.070  0.6203  0.3681  0.9074
 4066SOL    HW213098   0.520   6.141   3.197 -0.7288  0.0765 -0.1752
 4067SOL     OW13099   4.906   3.627   7.002 -0.6231 -0.3042  0.1916
 4067SOL    HW113100   4.921   3.688   7.080 -0.8516  0.5277 -0.4024
 4067SOL    HW213101   4.987   3.570   6.989 -1.1584 -1.5292  1.9529
 4068SOL     OW13102   5.018   0.922   3.919 -0.0136 -0.2525 -0.2672
 4068SOL    HW113103   5.004   0.874   3.832  2.5735 -1.9535  0.1556
 4068SOL    HW213104   4.992   0.862   3.994  1.8316 -0.4947  0.2223
 4069SOL     OW13105   2.990   2.010   1.375 -0.2620  0.0259 -0.4468
 4069SOL    HW113106   2.972   2.041   1.282 -0.6399 -2.5651 -1.3195
 4069SOL    HW213107   2.925   1.938   1.399  2.4566 -2.4226  0.1378
 4070SOL     OW13108   6.325   2.002   5.331  0.1553  0.4927 -0.1902
 4070SOL    HW113109   6.378   2.020   5.248  0.4656  0.6877  0.0463
 4070SOL    HW213110   6.352   2.067   5.402  0.0898  0.1517  0.1497
 4071SOL     OW13111   4.476   1.502   0.507  0.7191  0.0573 -0.2193
 4071SOL    HW113112   4.465   1.529   0.411  1.7929  2.0819  0.1665
 4071SOL    HW213113   4.401   1.441   0.533 -0.5343  0.7827 -1.8899
 4072SOL     OW13114   0.784   6.037   5.494  0.3004 -0.3734  0.3713
 4072SOL    HW113115   0.704   6.086   5.459  0.2026 -0.0547  1.0257
 4072SOL    HW213116   0.771   6.019   5.592  0.7597 -0.8615  0.3431
 4073SOL     OW13117   1.467   0.543   0.528 -0.1348 -0.0027 -0.3772
 4073SOL    HW113118   1.567   0.542   0.530 -0.1001  0.1323 -1.4324
 4073SOL    HW213119   1.436   0.611   0.462 -0.9211 -0.3653 -0.3922
 4074SOL     OW13120   0.174   0.757   1.376  0.1925 -0.0457 -0.4194
 4074SOL    HW113121   0.081   0.777   1.406  0.3941  0.0792  0.1317
 4074SOL    HW213122   0.212   0.683   1.433 -0.1410 -1.2387 -1.6884
 4075SOL     OW13123   4.989   3.408   1.003 -0.3068  0.0755  0.6757
 4075SOL    HW113124   5.085   3.419   0.977 -0.3410 -0.1870  0.4300
 4075SOL    HW213125   4.950   3.496   1.028 -0.3263  0.3783 -0.3682
 4076SOL     OW13126   5.132   0.541   2.472 -0.4020 -0.2213 -0.4727
 4076SOL    HW113127   5.205   0.576   2.414 -0.5730 -0.9283 -1.1253
 4076SOL    HW213128   5.170   0.513   2.560  0.1198 -0.6002 -0.8159
 4077SOL     OW13129   2.232   1.768   3.497 -0.3141  0.0838 -0.3480
 4077SOL    HW113130   2.306   1.705   3.522  1.3672  2.0694 -0.0042
 4077SOL    HW213131   2.229   1.843   3.563 -2.0026  0.5952 -0.9459
 4078SOL     OW13132   1.605   6.228   4.750  0.5270 -0.0961  0.0204
 4078SOL    HW113133   1.701   6.254   4.735 -0.4408  2.1381 -3.5808
 4078SOL    HW213134   1.564   6.288   4.818  1.2458  0.0578  0.3282
 4079SOL     OW13135   1.333   1.029   1.993 -0.0231 -0.1373 -0.2350
 4079SOL    HW113136   1.297   1.092   1.925 -0.6910 -0.2687 -0.0133
 4079SOL    HW213137   1.433   1.035   1.995 -0.0932  1.1613  0.0278
 4080SOL     OW13138   5.438   2.612   7.011  0.5003 -0.1260  0.3338
 4080SOL    HW113139   5.381   2.691   7.033  0.0474  0.2902 -2.0759
 4080SOL    HW213140   5.533   2.642   6.998  0.4006 -0.0224 -0.1888
 4081SOL     OW13141   0.709   5.893   5.143 -0.6979 -0.0041 -0.7297
 4081SOL    HW113142   0.755   5.852   5.221  2.9268  1.5629 -1.8162
 4081SOL    HW213143   0.656   5.823   5.095 -0.8075 -1.5952  1.5451
 4082SOL     OW13144   5.895   3.140   2.938  0.1387 -0.2324  0.1576
 4082SOL    HW113145   5.892   3.104   2.845  0.7423 -0.9950  0.4236
 4082SOL    HW213146   5.985   3.124   2.977 -0.4770 -1.0313  1.3068
 4083SOL     OW13147   1.538   4.206   2.467 -0.5197  0.4517 -0.0231
 4083SOL    HW113148   1.574   4.273   2.402 -1.7740  2.0229  0.8465
 4083SOL    HW213149   1.605   4.133   2.479  2.7365  3.4261  1.8484
 4084SOL     OW13150   1.209   1.116   2.229  0.2028  0.0660 -0.2926
 4084SOL    HW113151   1.286   1.179   2.239 -1.1829  1.6979  0.6159
 4084SOL    HW213152   1.207   1.082   2.135  1.0662  1.3159 -0.8056
 4085SOL     OW13153   0.324   2.093   0.205  0.0788 -0.6865  0.0750
 4085SOL    HW113154   0.354   2.097   0.300 -1.7727 -0.0721  0.6715
 4085SOL    HW213155   0.233   2.132   0.197  0.5051  0.0022 -2.1085
 4086SOL     OW13156   5.930   6.801   6.026  0.3677  0.3167  0.2470
 4086SOL    HW113157   5.842   6.849   6.022 -1.1431 -2.3457 -2.3137
 4086SOL    HW213158   6.002   6.861   5.990 -0.9556  1.5254 -0.5205
 4087SOL     OW13159   1.511   6.802   0.211  0.1868 -0.2918 -0.1289
 4087SOL    HW113160   1.485   6.719   0.161  0.6769 -1.0675  0.8578
 4087SOL    HW213161   1.608   6.823   0.193  0.2134 -0.2569  0.0515
 4088SOL     OW13162   5.023   2.066   5.992 -0.2215  0.3282  0.3064
 4088SOL    HW113163   5.108   2.109   5.960  1.8178 -4.0858 -1.0979
 4088SOL    HW213164   4.964   2.047   5.914  0.5686 -2.3045  0.2457
 4089SOL     OW13165   5.519   4.501   2.709 -0.0601  0.2803 -0.2715
 4089SOL    HW113166   5.587   4.561   2.750 -1.7027  1.9376  0.1801
 4089SOL    HW213167   5.486   4.541   2.623 -0.2907 -0.6202 -0.6167
 4090SOL     OW13168   0.763   4.554   0.540 -0.5140 -0.3574  0.5974
 4090SOL    HW113169   0.668   4.578   0.520 -0.8962 -1.5050  0.9672
 4090SOL    HW213170   0.773   4.454   0.540  1.0223 -0.2599 -0.9850
 4091SOL     OW13171   5.016   0.022   6.485 -0.2949 -0.5694 -0.2172
 4091SOL    HW113172   4.921   0.039   6.458 -0.1987 -1.2440 -1.0248
 4091SOL    HW213173   5.057  -0.043   6.421  0.1237 -1.7835  1.2382
 4092SOL     OW13174   5.729   2.778   4.849  0.3230 -0.3312  0.0824
 4092SOL    HW113175   5.825   2.751   4.847  0.2062 -0.7749  0.1779
 4092SOL    HW213176   5.710   2.844   4.776  0.3179 -1.5798 -1.0812
 4093SOL     OW13177   4.403   4.664   0.360 -0.0018  0.2516  0.1680
 4093SOL    HW113178   4.332   4.596   0.342  0.6800 -0.5563  0.4406
 4093SOL    HW213179   4.386   4.707   0.448 -0.0297 -0.1051  0.3408
 4094SOL     OW13180   2.936   3.568   6.003 -0.2197 -0.3666 -0.1240
 4094SOL    HW113181   3.029   3.601   6.021  0.1510 -0.4174 -1.7613
 4094SOL    HW213182   2.872   3.645   6.006  0.0242 -0.1698  0.0680
 4095SOL     OW13183   1.351   2.800   3.558 -0.1880 -0.9310 -0.5046
 4095SOL    HW113184   1.409   2.881   3.549 -0.7238 -0.2953  1.4137
 4095SOL    HW213185   1.408   2.718   3.559  0.3465 -0.6819 -2.8217
 4096SOL     OW13186   0.131   5.539   3.685 -0.3035  0.7988 -0.2850
 4096SOL    HW113187   0.114   5.537   3.784  1.8222 -1.4212  0.1397
 4096SOL    HW213188   0.085   5.618   3.645 -4.0710 -0.0548  1.8847
 4097SOL     OW13189   4.084   0.445   1.772 -0.0039  0.4207  0.0573
 4097SOL    HW113190   4.019   0.521   1.772 -0.0288  0.4106 -0.6316
 4097SOL    HW213191   4.041   0.365   1.730  0.8743  0.8113 -1.6962
 4098SOL     OW13192   6.019   0.039   1.047 -0.4328 -0.3224 -0.0670
 4098SOL    HW113193   6.073   0.042   1.131 -1.3146 -0.6352  0.5300
 4098SOL    HW213194   5.943   0.103   1.054 -1.6949 -1.8045  0.2344
 4099SOL     OW13195   4.398   5.450   4.248  0.4101  0.5281 -0.4467
 4099SOL    HW113196   4.437   5.438   4.339  1.6204  2.5037 -0.6656
 4099SOL    HW213197   4.298   5.449   4.254  0.4669  1.2510  1.0027
 4100SOL     OW13198   1.906   6.231   6.348  0.2779  0.4819 -0.1868
 4100SOL    HW113199   1.972   6.171   6.394  0.5826 -0.5229 -1.8591
 4100SOL    HW213200   1.813   6.203   6.372  0.4346  0.1121 -0.0022
 4101SOL     OW13201   1.761   5.231   5.196 -0.4508  0.2876 -0.3112
 4101SOL    HW113202   1.860   5.215   5.201 -0.6426 -0.6947  0.7009
 4101SOL    HW213203   1.721   5.169   5.129 -0.5661 -0.2797  0.2795
 4102SOL     OW13204   0.749   4.684   3.024  0.9104  0.3103 -0.4981
 4102SOL    HW113205   0.792   4.608   2.974 -0.8259  0.1368 -1.8381
 4102SOL    HW213206   0.794   4.696   3.112  1.1769 -2.3841 -0.1697
 4103SOL     OW13207   5.964   3.810   2.151 -0.2627 -0.2020  0.2637
 4103SOL    HW113208   5.919   3.740   2.206 -0.3305 -0.5872 -0.2691
 4103SOL    HW213209   5.902   3.887   2.136 -0.6464 -0.6011 -0.2246
 4104SOL     OW13210   6.018   1.118   4.092  0.1607 -0.1725  0.5221
 4104SOL    HW113211   6.116   1.103   4.080  0.1480  0.9334 -1.3177
 4104SOL    HW213212   6.001   1.216   4.102 -0.9217 -0.1681 -1.1564
 4105SOL     OW13213   1.720   5.409   6.941 -0.3678  0.2429  0.0771
 4105SOL    HW113214   1.716   5.313   6.968  1.1224  0.2906  0.5531
 4105SOL    HW213215   1.755   5.416   6.847 -1.7658  0.2742 -0.4633
 4106SOL     OW13216   2.011   4.027   0.126 -0.1722  0.0098 -0.6849
 4106SOL    HW113217   1.981   4.055   0.217  1.7037  1.1445 -0.3671
 4106SOL    HW213218   1.934   4.031   0.062 -1.3728 -0.2456  0.7199
 4107SOL     OW13219   2.143   6.398   3.784 -0.1763 -0.0836 -0.0715
 4107SOL    HW113220   2.218   6.352   3.830  0.0692  1.7720  1.5115
 4107SOL    HW213221   2.180   6.469   3.723 -0.5166 -2.1900 -2.9042
 4108SOL     OW13222   4.855   1.472   1.562 -0.1625 -0.6832 -0.4188
 4108SOL    HW113223   4.937   1.419   1.585  2.0051  2.1377 -1.0652
 4108SOL    HW213224   4.781   1.448   1.624  1.1329 -3.2829  0.2582
 4109SOL     OW13225   6.180   4.538   3.225 -0.1289 -0.3325  0.6809
 4109SOL    HW113226   6.088   4.578   3.229  0.3248  0.7710  0.5820
 4109SOL    HW213227   6.217   4.529   3.317  0.7035  1.8147  0.6198
 4110SOL     OW13228   0.143   2.627   2.590  0.1417 -0.0284  0.0104
 4110SOL    HW113229   0.149   2.673   2.501 -0.0815 -0.2574 -0.1259
 4110SOL    HW213230   0.173   2.690   2.662  1.0339 -0.0849 -0.2987
 4111SOL     OW13231   6.384   0.981   4.990 -0.2095 -0.5261 -0.0370
 4111SOL    HW113232   6.430   0.997   5.077 -1.0052  0.8359  0.1671
 4111SOL    HW213233   6.346   1.067   4.956  0.1168 -1.0275 -1.7599
 4112SOL     OW13234   6.720   2.538   6.675 -0.3151 -0.3154 -0.1322
 4112SOL    HW113235   6.820   2.539   6.685 -0.5092 -0.2653  2.5546
 4112SOL    HW213236   6.687   2.631   6.659 -0.0142 -0.1584  0.1531
 4113SOL     OW13237   1.392   2.326   1.358 -0.6877 -0.2756 -0.4145
 4113SOL    HW113238   1.343   2.403   1.399  0.1487  0.1396 -0.1858
 4113SOL    HW213239   1.460   2.359   1.293  1.2520 -0.6365  1.3156
 4114SOL     OW13240   1.805   3.531   6.784  0.4064 -0.0528  0.5102
 4114SOL    HW113241   1.876   3.526   6.714 -1.2778 -0.5599 -1.2489
 4114SOL    HW213242   1.726   3.477   6.756 -1.0853  1.2722  1.9064
 4115SOL     OW13243   6.892   4.599   4.538  0.7499 -0.4108  0.1323
 4115SOL    HW113244   6.849   4.636   4.456 -0.2895 -1.3374  0.2416
 4115SOL    HW213245   6.907   4.673   4.604 -1.2133 -0.1366  0.3221
 4116SOL     OW13246   4.660   6.581   5.645 -0.2029  0.8105  0.0113
 4116SOL    HW113247   4.680   6.487   5.617 -0.8901 -0.4136  3.1278
 4116SOL    HW213248   4.593   6.621   5.583  0.6911 -0.4433 -1.8417
 4117SOL     OW13249   1.583   5.861   4.775  0.1494 -0.3852  0.3325
 4117SOL    HW113250   1.588   5.866   4.676 -1.3885 -0.5916  0.2172
 4117SOL    HW213251   1.664   5.813   4.811  0.9565  0.1289 -0.7560
 4118SOL     OW13252   4.762   2.952   6.110  0.0215 -0.1828  0.0366
 4118SOL    HW113253   4.815   2.991   6.035 -0.6208 -0.0451 -0.3486
 4118SOL    HW213254   4.823   2.900   6.170  0.4280 -0.9464 -0.9977
 4119SOL     OW13255   6.975   2.741   0.993 -0.3842  0.6312 -0.1173
 4119SOL    HW113256   6.888   2.692   1.001  0.1168 -0.2950 -0.2244
 4119SOL    HW213257   7.046   2.690   1.041 -0.3510  2.5659  2.0715
 4120SOL     OW13258   3.857   0.977   1.526  0.0704 -0.2348  0.3119
 4120SOL    HW113259   3.890   1.060   1.481  0.1791 -0.8532 -0.7765
 4120SOL    HW213260   3.893   0.974   1.619  0.7117  0.5442  0.1067
 4121SOL     OW13261   1.761   6.190   2.213  0.4696 -0.1984 -0.5217
 4121SOL    HW113262   1.829   6.221   2.146 -1.3334 -0.1988 -2.4667
 4121SOL    HW213263   1.710   6.269   2.246  3.1878  0.2524  3.2368
 4122SOL     OW13264   4.878   0.631   1.652 -0.0356  0.4292  0.0276
 4122SOL    HW113265   4.891   0.636   1.553  0.9185  0.9417  0.1697
 4122SOL    HW213266   4.828   0.712   1.683 -0.7906  0.0178 -0.0951
 4123SOL     OW13267   6.811   2.442   4.497  0.0137  0.5834  0.4450
 4123SOL    HW113268   6.774   2.530   4.525  0.6196  0.6872  0.9576
 4123SOL    HW213269   6.769   2.369   4.551  1.9821  0.8726  2.5643
 4124SOL     OW13270   2.866   0.610   0.682 -0.2733  0.4249 -0.5250
 4124SOL    HW113271   2.887   0.548   0.606 -0.4703 -1.2519  0.7276
 4124SOL    HW213272   2.772   0.594   0.713  0.5345 -0.6408  1.5718
 4125SOL     OW13273   5.302   1.690   4.055  0.5962  0.3150  0.4702
 4125SOL    HW113274   5.384   1.723   4.009  1.2804  1.6694  2.5399
 4125SOL    HW213275   5.327   1.632   4.132 -0.3398  0.8376  1.2022
 4126SOL     OW13276   6.352   0.142   5.786  0.1722  0.3797 -0.8247
 4126SOL    HW113277   6.369   0.045   5.805 -2.7009 -0.1120 -0.2475
 4126SOL    HW213278   6.289   0.151   5.709 -1.8424  1.5719  0.8496
 4127SOL     OW13279   1.541   2.251   5.479  0.5077  0.8790  0.1538
 4127SOL    HW113280   1.533   2.171   5.539  0.5702  1.1169  0.4827
 4127SOL    HW213281   1.458   2.260   5.425  0.6462  0.3796 -0.1539
 4128SOL     OW13282   0.763   2.316   2.663  0.4614 -0.5352  0.2294
 4128SOL    HW113283   0.684   2.371   2.635  0.2274 -1.1121 -0.2826
 4128SOL    HW213284   0.847   2.363   2.638  0.2988  0.4006  1.3901
 4129SOL     OW13285   4.067   2.961   6.562 -0.9460  0.7127  0.9147
 4129SOL    HW113286   4.057   3.054   6.526  1.3588 -0.1906 -2.5496
 4129SOL    HW213287   4.015   2.898   6.505  0.8009 -0.5559  0.6738
 4130SOL     OW13288   1.076   3.136   1.519 -0.1432  0.1908 -0.1228
 4130SOL    HW113289   1.026   3.100   1.598  0.2675  1.6611  0.8552
 4130SOL    HW213290   1.049   3.231   1.503  2.8162  1.3448  0.9505
 4131SOL     OW13291   1.312   0.228   2.469  0.4073  0.2592 -0.3076
 4131SOL    HW113292   1.364   0.258   2.389  1.7060 -0.7899  0.1117
 4131SOL    HW213293   1.235   0.171   2.440  1.0248 -0.3301 -0.8006
 4132SOL     OW13294   1.104   5.301   4.016  0.6157  0.5713 -0.6554
 4132SOL    HW113295   1.084   5.331   4.109  1.4595  0.8803 -0.5650
 4132SOL    HW213296   1.135   5.379   3.961 -1.0480  0.6407 -1.5559
 4133SOL     OW13297   0.460   0.353   2.188 -0.1771  0.1112 -0.5144
 4133SOL    HW113298   0.411   0.370   2.103  1.1432  2.1865 -0.9235
 4133SOL    HW213299   0.525   0.427   2.205 -1.7125  0.7844  3.3011
 4134SOL     OW13300   6.428   1.382   0.875 -0.4358 -0.2108  0.0338
 4134SOL    HW113301   6.499   1.452   0.872 -0.3822 -0.2577  0.2152
 4134SOL    HW213302   6.377   1.391   0.961  0.5823 -1.3986  0.7866
 4135SOL     OW13303   0.525   1.715   2.177 -0.2959  0.4994  0.1447
 4135SOL    HW113304   0.551   1.744   2.085  2.5213  1.1122  1.0560
 4135SOL    HW213305   0.528   1.794   2.239  1.8883 -0.5953  1.5360
 4136SOL     OW13306   0.212   5.317   5.249  0.2154 -0.0898 -0.3523
 4136SOL    HW113307   0.166   5.263   5.179 -0.5960 -1.0087  0.8504
 4136SOL    HW213308   0.146   5.343   5.319  1.1122  0.3580  0.3375
 4137SOL     OW13309   4.589   1.013   6.663 -0.2617 -0.0687  1.0835
 4137SOL    HW113310   4.652   1.019   6.740 -0.6879 -2.0572  1.6407
 4137SOL    HW213311   4.519   0.944   6.682 -1.7002  0.9757 -0.1755
 4138SOL     OW13312   2.436   4.633   5.869 -0.0517  0.3898 -0.1604
 4138SOL    HW113313   2.397   4.567   5.933  1.8162  0.0497  0.6945
 4138SOL    HW213314   2.487   4.585   5.798  0.9695  0.8827  0.2207
 4139SOL     OW13315   1.559   0.466   2.404  0.7542 -0.1117  0.4598
 4139SOL    HW113316   1.615   0.397   2.357 -0.7177 -2.3336  1.7925
 4139SOL    HW213317   1.469   0.471   2.361  0.3712 -0.0730  1.2427
 4140SOL     OW13318   4.185   4.534   0.233  0.1089  0.2430 -0.6540
 4140SOL    HW113319   4.175   4.439   0.203 -0.0936  0.5352 -1.5552
 4140SOL    HW213320   4.168   4.596   0.155 -0.2840  1.0301  0.0393
 4141SOL     OW13321   1.024   2.847   0.485  0.0162  0.0491  0.0053
 4141SOL    HW113322   1.020   2.747   0.474  1.1422  0.2462 -3.5040
 4141SOL    HW213323   0.934   2.886   0.467 -0.6471 -0.3223  2.2773
 4142SOL     OW13324   3.462   1.414   4.629 -0.2209 -0.4912  0.0028
 4142SOL    HW113325   3.531   1.357   4.585  0.6359  1.1520 -0.8760
 4142SOL    HW213326   3.506   1.483   4.686 -1.1248  0.3592 -0.2814
 4143SOL     OW13327   1.469   1.965   5.492 -0.6863  0.0301  0.4117
 4143SOL    HW113328   1.520   1.952   5.407  0.6386  0.0770  1.1666
 4143SOL    HW213329   1.490   1.891   5.555 -0.8429  0.5447  1.0746
 4144SOL     OW13330   2.331   2.243   4.635 -0.0621  0.3938  0.2448
 4144SOL    HW113331   2.431   2.250   4.630  0.1606 -0.3616  2.3594
 4144SOL    HW213332   2.290   2.317   4.582  1.6336  1.2709  0.0658
 4145SOL     OW13333   0.910   1.820   6.081 -0.1502 -0.3624 -0.0038
 4145SOL    HW113334   0.909   1.814   5.981  2.3316 -0.0410 -0.1303
 4145SOL    HW213335   0.844   1.888   6.111 -0.8137 -0.3399 -1.4349
 4146SOL     OW13336   6.280   4.711   5.992 -1.3478  0.0767 -0.0396
 4146SOL    HW113337   6.378   4.718   6.009 -1.4531  0.1758  0.5343
 4146SOL    HW213338   6.256   4.615   5.975 -1.0007  0.1705 -1.1636
 4147SOL     OW13339   2.299   1.774   0.163  0.2218  0.9970 -0.4717
 4147SOL    HW113340   2.338   1.735   0.246  1.0154  1.2276 -0.7263
 4147SOL    HW213341   2.199   1.772   0.169  0.2622  0.1076  0.0541
 4148SOL     OW13342   6.887   2.971   5.314 -0.4207 -0.2376 -0.2034
 4148SOL    HW113343   6.855   2.956   5.408  0.8973  0.4395  0.3796
 4148SOL    HW213344   6.938   3.057   5.309  0.2679 -0.6845 -1.3517
 4149SOL     OW13345   5.382   1.528   4.349  0.5984 -0.9060  0.3570
 4149SOL    HW113346   5.380   1.439   4.395  1.7234 -1.0651  0.1128
 4149SOL    HW213347   5.474   1.567   4.355  0.5741 -0.5810 -1.0784
 4150SOL     OW13348   5.848   2.898   0.997  0.6422 -0.2680 -0.2580
 4150SOL    HW113349   5.909   2.836   0.946  1.2304 -0.8526  1.1048
 4150SOL    HW213350   5.876   2.992   0.979  1.6898 -0.5115  0.0023
 4151SOL     OW13351   5.814   4.005   2.458  0.4206  0.6279 -0.3152
 4151SOL    HW113352   5.762   4.061   2.523  1.6126  0.6934  0.6191
 4151SOL    HW213353   5.873   4.063   2.403  0.0771  0.4781 -0.8505
 4152SOL     OW13354   6.913   6.813   2.340  0.0797 -0.0597 -0.4433
 4152SOL    HW113355   6.865   6.871   2.406 -0.0365  0.4653 -0.9737
 4152SOL    HW213356   6.925   6.864   2.254  0.4752 -0.6300 -0.7317
 4153SOL     OW13357   3.183   5.424   2.024  0.5521 -0.0271  0.0476
 4153SOL    HW113358   3.165   5.435   1.926 -0.8354  0.3896  0.3313
 4153SOL    HW213359   3.137   5.496   2.075 -0.3510 -1.3298  1.1485
 4154SOL     OW13360   1.066   4.200   3.439 -0.6901 -0.0567 -0.8143
 4154SOL    HW113361   0.984   4.246   3.473 -0.4956  0.8171 -1.4844
 4154SOL    HW213362   1.139   4.207   3.507 -1.4560 -1.7563  0.2416
 4155SOL     OW13363   0.911   3.746   0.133 -0.0773  0.2095 -0.1234
 4155SOL    HW113364   0.957   3.658   0.144  0.2683  0.4397  0.2820
 4155SOL    HW213365   0.826   3.745   0.186 -1.0145 -0.5334 -1.5613
 4156SOL     OW13366   3.505   4.196   6.997  0.1935  0.4965  0.1274
 4156SOL    HW113367   3.411   4.177   6.970 -0.7539 -0.5241  3.5863
 4156SOL    HW213368   3.507   4.280   7.053  1.2290  0.2155  0.5437
 4157SOL     OW13369   5.745   5.456   2.055  0.6818  0.1734 -0.0209
 4157SOL    HW113370   5.797   5.427   1.975 -1.0197  0.4703 -1.2940
 4157SOL    HW213371   5.711   5.376   2.103  1.1429 -0.0018  0.0175
 4158SOL     OW13372   5.036   0.750   2.324  0.5070  0.7105 -0.4831
 4158SOL    HW113373   5.049   0.689   2.402 -2.3232  2.0579  1.2457
 4158SOL    HW213374   5.081   0.838   2.342  0.8653  0.6208 -0.9301
 4159SOL     OW13375   0.407   5.348   0.683 -0.0621  0.0620  0.3019
 4159SOL    HW113376   0.400   5.254   0.716 -0.2419 -0.0857 -0.1465
 4159SOL    HW213377   0.504   5.372   0.672 -0.0096 -0.9760 -2.0584
 4160SOL     OW13378   5.502   1.906   5.888 -0.0489 -0.2268 -0.1455
 4160SOL    HW113379   5.465   1.867   5.804 -1.8029  1.4877 -0.2677
 4160SOL    HW213380   5.431   1.905   5.959  0.1522  1.6422  0.1490
 4161SOL     OW13381   0.580   0.316   4.264  0.4953  0.3969  0.2224
 4161SOL    HW113382   0.506   0.259   4.228 -1.0770  1.5133  1.5306
 4161SOL    HW213383   0.580   0.404   4.217  0.0916  0.8980  1.1390
 4162SOL     OW13384   4.523   5.183   5.500  0.0730  0.5626  0.4585
 4162SOL    HW113385   4.545   5.249   5.572  1.8195  0.6191 -0.0744
 4162SOL    HW213386   4.506   5.231   5.414  1.0501  0.3832  0.1415
 4163SOL     OW13387   6.847   6.418   0.627 -0.4669  0.1650  0.1168
 4163SOL    HW113388   6.812   6.403   0.719  1.7644  1.8992  1.3447
 4163SOL    HW213389   6.908   6.342   0.602  0.5081  0.6415  0.9485
 4164SOL     OW13390   0.984   2.714   2.467  0.6855 -0.2882 -0.0918
 4164SOL    HW113391   0.927   2.708   2.385  1.3142  1.6732 -0.7343
 4164SOL    HW213392   1.020   2.623   2.489 -2.3401 -1.5579  0.1646
 4165SOL     OW13393   3.319   0.509   2.787 -0.4295 -0.0012  0.2927
 4165SOL    HW113394   3.317   0.605   2.815  0.0266 -0.4701  2.1018
 4165SOL    HW213395   3.227   0.470   2.795 -0.1323 -0.4238  2.4947
 4166SOL     OW13396   1.527   0.726   5.184  0.0536  0.2467  0.0869
 4166SOL    HW113397   1.537   0.651   5.250 -0.4695 -1.3221 -1.5310
 4166SOL    HW213398   1.458   0.790   5.216 -1.7024 -1.5798  0.1714
 4167SOL     OW13399   5.161   1.162   3.684 -0.2188 -0.2427 -0.5512
 4167SOL    HW113400   5.230   1.098   3.719 -0.0313  0.3954  0.2637
 4167SOL    HW213401   5.181   1.254   3.716 -2.8998 -0.3833  1.9836
 4168SOL     OW13402   3.955   5.835   0.457 -0.1088  0.1809  0.0475
 4168SOL    HW113403   3.941   5.849   0.359 -0.2913 -0.4844 -0.0252
 4168SOL    HW213404   3.915   5.747   0.485  0.9601 -0.1796  0.4917
 4169SOL     OW13405   5.624   6.910   0.874 -0.0402  0.6707  0.1689
 4169SOL    HW113406   5.565   6.882   0.951 -1.0902  2.1824 -0.0483
 4169SOL    HW213407   5.607   6.849   0.796 -0.1024  0.0728  0.6405
 4170SOL     OW13408   3.686   6.652   2.393 -0.2802 -0.4568 -0.2562
 4170SOL    HW113409   3.740   6.573   2.364 -0.1854 -0.6856  0.5193
 4170SOL    HW213410   3.746   6.721   2.432 -0.4983 -0.5257  0.2033
 4171SOL     OW13411   3.964   5.570   5.452  0.1799  0.4564 -0.0447
 4171SOL    HW113412   3.977   5.609   5.543  0.0698 -0.9208  0.5793
 4171SOL    HW213413   4.052   5.538   5.417  0.1148  0.4071 -0.1622
 4172SOL     OW13414   5.027   6.042   4.800  0.6968  0.6897  0.2552
 4172SOL    HW113415   4.940   6.091   4.797  0.3030 -0.0192 -0.2576
 4172SOL    HW213416   5.014   5.948   4.767  1.4177  0.2099  1.2706
 4173SOL     OW13417   4.307   6.498   1.031 -0.1144  0.4884  0.3463
 4173SOL    HW113418   4.320   6.399   1.019  1.1036  0.7713 -0.8782
 4173SOL    HW213419   4.350   6.547   0.955 -0.9290  1.9616  0.8043
 4174SOL     OW13420   3.105   5.975   2.015  0.2289 -0.8080  0.0133
 4174SOL    HW113421   3.011   5.978   2.048  0.0934  0.6469 -0.4299
 4174SOL    HW213422   3.167   6.007   2.087  0.1690  0.1346 -0.3412
 4175SOL     OW13423   1.950   2.434   2.222 -0.1393  0.1629  0.0720
 4175SOL    HW113424   1.875   2.445   2.287 -0.4528 -0.1784 -0.2234
 4175SOL    HW213425   2.037   2.457   2.266 -0.2692 -0.7460  0.8293
 4176SOL     OW13426   2.206   6.625   3.608 -0.3421 -0.5628  0.4487
 4176SOL    HW113427   2.150   6.707   3.598  1.1204  0.3108 -1.0206
 4176SOL    HW213428   2.296   6.640   3.568  0.7792 -2.1367  2.1564
 4177SOL     OW13429   1.538   0.800   4.287  0.1578 -0.0050  0.1161
 4177SOL    HW113430   1.467   0.857   4.245  1.3217 -0.4754 -2.6817
 4177SOL    HW213431   1.503   0.708   4.302  0.5052 -0.6547 -2.6214
 4178SOL     OW13432   1.256   5.857   3.879  0.6943 -0.3674 -0.1606
 4178SOL    HW113433   1.289   5.950   3.895  0.5223 -0.3942  0.3970
 4178SOL    HW213434   1.258   5.836   3.782 -1.8675  1.2259 -0.6476
 4179SOL     OW13435   4.186   6.662   5.598 -0.2493  0.0456 -0.0112
 4179SOL    HW113436   4.155   6.572   5.631 -3.1382  0.9281 -0.0817
 4179SOL    HW213437   4.160   6.732   5.664  0.5915  1.0164 -0.6841
 4180SOL     OW13438   1.913   2.264   1.956 -0.3824 -0.0171 -0.2125
 4180SOL    HW113439   1.946   2.310   2.039  1.1428 -1.5482  0.0934
 4180SOL    HW213440   1.901   2.331   1.883 -0.1620  1.1318  0.7758
 4181SOL     OW13441   5.825   0.758   0.621  0.4367  0.3165  0.4355
 4181SOL    HW113442   5.803   0.789   0.713  1.3076  0.7547  0.5101
 4181SOL    HW213443   5.748   0.705   0.584 -0.7178  1.7923  0.6523
 4182SOL     OW13444   5.173   2.100   1.679  0.5235  0.3342  0.4254
 4182SOL    HW113445   5.178   2.036   1.602  2.7914  0.5709  0.3026
 4182SOL    HW213446   5.140   2.052   1.761  0.7437 -0.6120 -0.0317
 4183SOL     OW13447   4.015   6.552   4.916  0.1674 -0.4379  0.1022
 4183SOL    HW113448   4.016   6.530   5.013 -1.6134  1.6289  0.6693
 4183SOL    HW213449   3.921   6.571   4.887  0.9318  1.5032 -1.3624
 4184SOL     OW13450   1.682   0.146   1.252 -0.1105 -0.2650 -0.0897
 4184SOL    HW113451   1.701   0.132   1.154 -0.0147  0.4861 -0.1819
 4184SOL    HW213452   1.618   0.221   1.263 -0.2575 -0.4654  0.4227
 4185SOL     OW13453   6.196   4.538   5.747  0.0678  0.6655  0.3446
 4185SOL    HW113454   6.217   4.441   5.758 -0.6687  0.4115 -0.3653
 4185SOL    HW213455   6.278   4.588   5.721  0.4820  0.2566  0.8574
 4186SOL     OW13456   6.754   5.080   2.114  0.3719 -0.1094 -0.4237
 4186SOL    HW113457   6.759   5.051   2.018 -1.5841  1.0639 -0.9335
 4186SOL    HW213458   6.770   5.179   2.119  0.7956 -0.2219  0.5185
 4187SOL     OW13459   4.047   1.497   2.407 -0.2580  0.0228  0.4341
 4187SOL    HW113460   4.117   1.463   2.345 -0.2191  0.5375  0.1941
 4187SOL    HW213461   4.065   1.592   2.430 -0.4643 -0.0585  0.9662
 4188SOL     OW13462   1.065   1.239   3.847 -0.1225  0.8681 -0.4855
 4188SOL    HW113463   1.041   1.265   3.754  0.6773  0.6417 -0.7626
 4188SOL    HW213464   1.156   1.273   3.869 -0.7780  2.0038  0.6619
 4189SOL     OW13465   1.570   2.440   1.180 -0.0025 -0.1400  0.5605
 4189SOL    HW113466   1.537   2.394   1.097  1.3330  0.2420 -0.2296
 4189SOL    HW213467   1.632   2.514   1.153  0.1099  0.2647  1.9002
 4190SOL     OW13468   1.114   3.089   6.174  0.2118  0.4344  1.3935
 4190SOL    HW113469   1.208   3.101   6.143 -0.0354  1.7198  1.0887
 4190SOL    HW213470   1.095   3.153   6.249 -0.5632  0.5015  1.1505
 4191SOL     OW13471   1.082   4.728   4.903 -0.4656  0.0222  0.3361
 4191SOL    HW113472   1.131   4.642   4.917  1.4258  0.7333 -1.3928
 4191SOL    HW213473   1.042   4.728   4.811 -1.5287  0.5188  0.7807
 4192SOL     OW13474   1.290   2.517   3.281  0.0068 -0.3572  0.4568
 4192SOL    HW113475   1.329   2.599   3.239  2.7119 -1.3466  0.8445
 4192SOL    HW213476   1.196   2.505   3.250 -0.1619  2.3703 -0.3081
 4193SOL     OW13477   2.402   1.571   1.478 -0.7180 -0.2463  0.2019
 4193SOL    HW113478   2.493   1.610   1.490 -0.0064 -1.3014 -1.3183
 4193SOL    HW213479   2.382   1.563   1.380 -2.0396 -0.9178  0.5014
 4194SOL     OW13480   2.207   1.084   6.416  0.5965 -0.5198  0.0424
 4194SOL    HW113481   2.222   1.117   6.509  1.2279  0.4250 -0.3878
 4194SOL    HW213482   2.242   0.990   6.409 -2.2113 -1.7893  1.5654
 4195SOL     OW13483   2.346   0.328   5.742  0.7474 -0.2654 -0.1132
 4195SOL    HW113484   2.426   0.388   5.748  1.1939 -0.9623  3.7331
 4195SOL    HW213485   2.269   0.371   5.790  0.9426 -2.4142  2.3174
 4196SOL     OW13486   3.951   0.199   0.786  0.5079 -0.2319 -0.4637
 4196SOL    HW113487   3.890   0.254   0.842 -2.4250 -0.7537 -2.8539
 4196SOL    HW213488   4.011   0.258   0.733  0.5542  0.4184  0.3044
 4197SOL     OW13489   6.010   6.565   3.712 -0.3675  0.0924  0.3589
 4197SOL    HW113490   5.979   6.656   3.739 -2.1741 -0.0268 -1.1873
 4197SOL    HW213491   5.932   6.503   3.705  0.7832 -1.5177  0.9861
 4198SOL     OW13492   5.471   4.075   4.305  0.3437  0.0792  0.6283
 4198SOL    HW113493   5.569   4.052   4.306  0.4144  0.4024  1.4048
 4198SOL    HW213494   5.429   4.048   4.391 -0.4334 -0.7628  0.0134
 4199SOL     OW13495   0.015   4.286   6.171  0.6161 -0.0008  0.0998
 4199SOL    HW113496  -0.055   4.221   6.201  1.4145 -2.9520 -3.5935
 4199SOL    HW213497  -0.028   4.359   6.117  0.1630 -0.7392 -0.5634
 4200SOL     OW13498   1.487   5.808   3.374  0.5618  0.6182  0.5376
 4200SOL    HW113499   1.519   5.861   3.453  1.0755  1.4827 -0.2397
 4200SOL    HW213500   1.501   5.711   3.392  0.6400  0.7984  1.5288
 4201SOL     OW13501   3.887   5.295   6.071 -0.0688 -0.6704 -0.1064
 4201SOL    HW113502   3.900   5.202   6.036 -0.1381 -0.0959 -1.7492
 4201SOL    HW213503   3.968   5.350   6.051 -1.2162  0.4507 -2.1105
 4202SOL     OW13504   2.006   5.427   2.560  0.1702  0.0965  0.6559
 4202SOL    HW113505   2.049   5.450   2.472  1.1904 -0.1399  1.0775
 4202SOL    HW213506   1.995   5.327   2.566  1.3577 -0.0085  1.3454
 4203SOL     OW13507   0.695   6.444   2.813  0.3338 -0.2144 -0.6502
 4203SOL    HW113508   0.687   6.543   2.800 -0.8099 -0.1191  0.5753
 4203SOL    HW213509   0.775   6.410   2.762  0.9098  1.3715 -0.8663
 4204SOL     OW13510   4.077   5.658   1.057  0.0587  0.3790  0.6774
 4204SOL    HW113511   4.041   5.749   1.040 -0.5499 -0.0114 -0.1780
 4204SOL    HW213512   4.053   5.597   0.981  0.9257 -0.3593  0.9742
 4205SOL     OW13513   6.609   2.174   0.617  0.4157 -0.3927  0.6307
 4205SOL    HW113514   6.548   2.166   0.696 -0.6971  0.4297 -0.1132
 4205SOL    HW213515   6.650   2.266   0.616 -0.5649  0.0654 -0.4017
 4206SOL     OW13516   0.638   5.344   1.368  0.0783  0.2693  0.0654
 4206SOL    HW113517   0.613   5.372   1.460 -1.9257 -0.1616 -0.2924
 4206SOL    HW213518   0.690   5.417   1.324  1.1073  0.4554  1.5197
 4207SOL     OW13519   0.896   2.680   1.946 -0.2372 -0.3875 -0.7191
 4207SOL    HW113520   0.836   2.668   1.868  0.1177  0.3052 -1.1100
 4207SOL    HW213521   0.989   2.652   1.922  0.1994  1.2110 -1.0553
 4208SOL     OW13522   3.645   3.233   6.224  0.1261 -0.3451  0.0417
 4208SOL    HW113523   3.621   3.251   6.319 -0.5897 -0.0404 -0.1889
 4208SOL    HW213524   3.622   3.313   6.168  0.3398 -0.6036 -0.4216
 4209SOL     OW13525   6.248   4.536   2.783 -0.2039  0.6205  0.3424
 4209SOL    HW113526   6.179   4.492   2.841  1.3110 -1.5716  0.5815
 4209SOL    HW213527   6.313   4.468   2.751  2.3490  2.6860  0.7946
 4210SOL     OW13528   2.462   2.316   6.352 -0.0097 -0.1399 -0.1722
 4210SOL    HW113529   2.505   2.405   6.362  0.1211  0.1771 -2.7171
 4210SOL    HW213530   2.531   2.249   6.323 -0.6264 -0.3331 -1.2539
 4211SOL     OW13531   5.743   2.067   4.878 -0.3002  0.1518 -0.2356
 4211SOL    HW113532   5.830   2.064   4.830 -1.1639  0.2279 -1.8719
 4211SOL    HW213533   5.698   1.978   4.871  0.5333 -0.5615  2.4175
 4212SOL     OW13534   5.959   3.162   4.152  0.1962 -0.4465  0.3120
 4212SOL    HW113535   5.881   3.129   4.099 -1.7106  0.9925  2.0236
 4212SOL    HW213536   5.931   3.174   4.248  2.0903  1.4627  0.7128
 4213SOL     OW13537   1.399   4.971   0.011 -0.4601 -0.1488  0.1592
 4213SOL    HW113538   1.312   4.981   0.060  0.1035 -1.1303  1.4192
 4213SOL    HW213539   1.473   4.954   0.076  0.0928 -2.9639 -1.0419
 4214SOL     OW13540   5.200   5.720   6.699  0.1024  0.4941 -0.2052
 4214SOL    HW113541   5.104   5.698   6.717  0.4677 -1.3776 -0.3013
 4214SOL    HW213542   5.248   5.637   6.671  1.4652  1.6666 -1.4921
 4215SOL     OW13543   6.018   0.332   0.634  0.3518 -0.1092  0.2166
 4215SOL    HW113544   5.959   0.324   0.553  1.7375  0.2166 -0.8580
 4215SOL    HW213545   6.061   0.422   0.635 -0.3729  0.2628  1.8703
 4216SOL     OW13546   1.446   6.236   2.538  0.2452 -0.3808  0.1347
 4216SOL    HW113547   1.370   6.183   2.578  0.6286 -2.6242 -1.8585
 4216SOL    HW213548   1.527   6.178   2.532  0.9634  0.7245 -1.3765
 4217SOL     OW13549   2.367   2.497   3.982  0.3029  0.1324  0.0971
 4217SOL    HW113550   2.396   2.479   4.076  0.4990  0.7468  0.1577
 4217SOL    HW213551   2.279   2.545   3.983 -1.0676 -2.1931 -0.0935
 4218SOL     OW13552   4.896   3.842   0.174  0.7669 -0.0371  0.0610
 4218SOL    HW113553   4.907   3.939   0.149  0.9701  0.1085  0.6892
 4218SOL    HW213554   4.890   3.834   0.274 -2.6388 -0.3142 -0.0316
 4219SOL     OW13555   5.968   1.708   0.220  0.5055  0.2328 -0.3000
 4219SOL    HW113556   5.984   1.794   0.269  1.8065 -0.1227 -0.0844
 4219SOL    HW213557   5.889   1.662   0.260  0.0815  1.0982 -0.1111
 4220SOL     OW13558   1.335   4.216   6.806 -0.0963 -0.5771 -0.4634
 4220SOL    HW113559   1.339   4.181   6.713  1.2289  0.0411 -0.6610
 4220SOL    HW213560   1.250   4.267   6.819 -0.4442 -0.9530 -1.2211
 4221SOL     OW13561   1.333   1.061   0.317 -0.2317  0.4247  0.2211
 4221SOL    HW113562   1.256   1.122   0.296 -0.9289 -0.1523  1.0454
 4221SOL    HW213563   1.417   1.099   0.277 -0.7823  1.5290  0.0652
 4222SOL     OW13564   3.447   3.633   4.312 -0.0029  0.2169  0.0533
 4222SOL    HW113565   3.364   3.597   4.355  0.1092 -0.4046 -0.2392
 4222SOL    HW213566   3.429   3.725   4.277 -0.1557  0.6561  1.2243
 4223SOL     OW13567   6.385   1.743   1.865  0.0641 -0.2614 -0.2046
 4223SOL    HW113568   6.350   1.650   1.869  0.0649 -0.2228  3.1590
 4223SOL    HW213569   6.325   1.804   1.916  0.5588  1.4499 -1.5567
 4224SOL     OW13570   0.127   5.878   5.678  0.0405  0.1405  0.1218
 4224SOL    HW113571   0.223   5.879   5.648  0.2372  0.6264  0.7428
 4224SOL    HW213572   0.118   5.930   5.763 -0.2394 -2.3565  1.7242
 4225SOL     OW13573   0.877   2.641   3.698  0.1518 -0.4233  0.3568
 4225SOL    HW113574   0.797   2.701   3.695  0.2159 -0.1327  2.4731
 4225SOL    HW213575   0.933   2.656   3.617 -0.9601  0.7767 -0.2261
 4226SOL     OW13576   1.254   2.500   5.390  0.0647 -0.2378  0.1252
 4226SOL    HW113577   1.280   2.580   5.335 -0.5612  0.4684  0.8194
 4226SOL    HW213578   1.309   2.422   5.364  0.0720  0.1923 -1.2054
 4227SOL     OW13579   4.020   3.167   3.970  0.7002  0.0560  0.2185
 4227SOL    HW113580   3.996   3.149   4.066 -1.7684  0.8550 -0.1773
 4227SOL    HW213581   4.040   3.264   3.958  0.3317  0.0890 -0.1757
 4228SOL     OW13582   6.669   4.374   1.609 -0.1472  0.1164  0.3258
 4228SOL    HW113583   6.625   4.427   1.683 -1.1882 -0.4131  0.1073
 4228SOL    HW213584   6.718   4.436   1.548 -2.5162  1.0708 -0.7427
 4229SOL     OW13585   5.451   1.826   0.087 -0.2428 -0.2597 -0.2559
 4229SOL    HW113586   5.461   1.726   0.092  0.0494 -0.1660  1.8768
 4229SOL    HW213587   5.533   1.866   0.046  1.7167 -0.6411  2.9378
 4230SOL     OW13588   0.101   1.587   5.407  0.1270  0.7911  0.0762
 4230SOL    HW113589   0.195   1.555   5.423  0.1370  1.2005  0.9050
 4230SOL    HW213590   0.041   1.551   5.478 -0.4156  0.2888 -0.6174
 4231SOL     OW13591   2.201   2.339   0.898 -0.0584  0.5134  0.1593
 4231SOL    HW113592   2.297   2.367   0.903  0.2765 -0.6677  0.8912
 4231SOL    HW213593   2.146   2.414   0.861  1.0107  1.5263  0.5451
 4232SOL     OW13594   3.579   0.683   3.011 -0.4172  0.3705  0.7615
 4232SOL    HW113595   3.559   0.660   3.107  0.2549 -1.6603  0.4707
 4232SOL    HW213596   3.494   0.707   2.964 -1.1978 -1.2841  1.2434
 4233SOL     OW13597   2.440   1.054   3.753 -0.6256 -0.3580 -0.3481
 4233SOL    HW113598   2.463   1.062   3.850 -1.1932  1.2960 -0.3237
 4233SOL    HW213599   2.518   1.083   3.698 -1.0085  0.7404 -0.3350
 4234SOL     OW13600   1.343   5.088   5.990  0.0313  0.0834  0.2370
 4234SOL    HW113601   1.390   5.120   6.072 -0.1954  0.6787  0.1379
 4234SOL    HW213602   1.406   5.033   5.936  0.2843 -0.0374  0.6430
 4235SOL     OW13603   3.238   6.930   5.625 -0.2619  0.3294 -0.1559
 4235SOL    HW113604   3.169   6.879   5.678 -1.8911  1.4496 -1.1009
 4235SOL    HW213605   3.203   7.022   5.605  1.7791  1.1358 -0.1950
 4236SOL     OW13606   3.267   0.567   0.651  0.0109 -0.5464 -0.0396
 4236SOL    HW113607   3.239   0.615   0.734  0.9590 -0.6435  0.3414
 4236SOL    HW213608   3.264   0.469   0.666  0.3705 -0.5616 -0.0574
 4237SOL     OW13609   4.792   0.736   5.989 -0.4815  0.4240 -0.6143
 4237SOL    HW113610   4.749   0.790   6.062  0.6739  1.3636 -0.5796
 4237SOL    HW213611   4.810   0.796   5.911 -0.3230 -0.2152 -1.0675
 4238SOL     OW13612   0.001   1.780   6.497  0.1653 -0.5180 -0.2969
 4238SOL    HW113613  -0.054   1.714   6.446 -0.1311 -0.0830 -0.5397
 4238SOL    HW213614  -0.052   1.863   6.514  0.1705 -0.7469  0.9405
 4239SOL     OW13615   2.340   1.098   0.399  0.5622 -0.3180 -0.2332
 4239SOL    HW113616   2.320   1.092   0.496 -1.8800 -0.1848 -0.6598
 4239SOL    HW213617   2.289   1.027   0.350 -0.8253  1.6147 -1.7184
 4240SOL     OW13618   0.405   5.789   3.473 -0.2783  0.1656  0.1268
 4240SOL    HW113619   0.441   5.743   3.554 -0.1559 -0.0689 -0.0601
 4240SOL    HW213620   0.324   5.842   3.498  0.2352  0.7550  0.5616
 4241SOL     OW13621   3.268   5.903   0.680 -0.2550  0.1085  0.4409
 4241SOL    HW113622   3.346   5.957   0.647  0.0038 -0.3737  0.2610
 4241SOL    HW213623   3.296   5.846   0.757 -0.3456 -0.3157  0.1615
 4242SOL     OW13624   4.344   4.804   4.410 -0.3817  0.2046 -0.1471
 4242SOL    HW113625   4.372   4.716   4.450  1.0022  0.5525 -0.2918
 4242SOL    HW213626   4.276   4.847   4.469 -0.2738 -0.4790  0.4903
 4243SOL     OW13627   3.884   6.412   1.889 -0.2106  0.0303  0.1179
 4243SOL    HW113628   3.928   6.481   1.948 -0.5708  0.0270  0.3919
 4243SOL    HW213629   3.819   6.359   1.943  1.5587 -1.9560  0.4498
 4244SOL     OW13630   6.980   0.742   1.887  0.2223  0.0167  0.3915
 4244SOL    HW113631   6.884   0.770   1.886 -0.0487 -0.8849 -0.7256
 4244SOL    HW213632   7.005   0.714   1.980 -1.0965 -1.3282  0.3882
 4245SOL     OW13633   3.809   4.248   6.361 -0.0162  0.7509  0.7554
 4245SOL    HW113634   3.710   4.265   6.362 -0.9241 -2.6417 -3.0482
 4245SOL    HW213635   3.850   4.299   6.285  0.4215 -0.5360  0.1083
 4246SOL     OW13636   6.859   0.274   3.038  0.2382  0.1707  0.3518
 4246SOL    HW113637   6.760   0.268   3.042  0.2036 -1.3138 -1.1684
 4246SOL    HW213638   6.891   0.230   2.954  2.1467  1.1779  0.5004
 4247SOL     OW13639   1.039   6.064   6.315 -0.0437  0.2177  0.1793
 4247SOL    HW113640   1.119   6.057   6.374  0.2194  0.3466 -0.1628
 4247SOL    HW213641   0.962   6.101   6.368  0.6099  1.8429  0.0475
 4248SOL     OW13642   2.796   6.673   1.137  0.0462 -0.1508 -0.1910
 4248SOL    HW113643   2.749   6.647   1.221  0.1657  0.0291 -0.0672
 4248SOL    HW213644   2.864   6.744   1.158 -1.3071  1.3716 -0.7456
 4249SOL     OW13645   0.683   2.595   4.101 -0.3025  0.1926 -0.0600
 4249SOL    HW113646   0.603   2.643   4.137 -0.5369  0.0114 -0.3366
 4249SOL    HW213647   0.766   2.633   4.143 -0.6105 -0.5950  1.3161
 4250SOL     OW13648   5.917   6.298   5.778  0.0216 -0.0864  0.0725
 4250SOL    HW113649   5.940   6.366   5.848  1.5473  0.5032 -0.9311
 4250SOL    HW213650   5.840   6.330   5.723  0.4581  0.6671 -0.1172
 4251SOL     OW13651   3.536   0.453   0.275  0.2327  0.4276 -0.1236
 4251SOL    HW113652   3.491   0.539   0.296  0.5861  0.5146  0.3008
 4251SOL    HW213653   3.586   0.462   0.189  2.2556  1.4583  1.0570
 4252SOL     OW13654   5.320   0.929   6.761 -0.5968 -1.1867 -0.2936
 4252SOL    HW113655   5.228   0.969   6.767  0.5701  1.8703 -1.2280
 4252SOL    HW213656   5.383   0.995   6.722  2.5981 -2.2531  2.5829
 4253SOL     OW13657   2.331   1.846   6.338  0.7939 -0.6307  0.2040
 4253SOL    HW113658   2.273   1.880   6.264  0.3891 -0.0265  0.7927
 4253SOL    HW213659   2.421   1.823   6.301  0.1254 -1.8548 -0.7789
 4254SOL     OW13660   3.509   4.041   6.037 -0.6769 -0.3396 -0.3185
 4254SOL    HW113661   3.576   4.110   6.066 -2.1137  0.3236  1.6460
 4254SOL    HW213662   3.459   4.075   5.957 -1.0187  0.6891  0.3200
 4255SOL     OW13663   3.853   4.196   5.484 -0.6579 -0.0759 -0.0733
 4255SOL    HW113664   3.817   4.198   5.577 -1.8888  1.7931 -0.5296
 4255SOL    HW213665   3.787   4.150   5.423 -1.5240  1.7839 -0.5991
 4256SOL     OW13666   2.833   0.825   6.092 -0.7886  0.0353 -0.4935
 4256SOL    HW113667   2.847   0.840   6.190 -1.1437  0.7084 -0.5372
 4256SOL    HW213668   2.919   0.799   6.049 -0.7450 -0.8258  0.0939
 4257SOL     OW13669   1.003   0.198   2.922 -0.5986 -0.1092 -0.0401
 4257SOL    HW113670   1.031   0.262   2.850 -2.9876  1.6308  0.4500
 4257SOL    HW213671   1.027   0.236   3.011 -1.5167 -0.1719  0.2374
 4258SOL     OW13672   6.584   3.258   5.542  0.5465 -0.3503 -0.1994
 4258SOL    HW113673   6.491   3.221   5.533 -0.1211  1.5738 -1.7003
 4258SOL    HW213674   6.628   3.260   5.452  2.2096 -1.5066  0.5287
 4259SOL     OW13675   2.198   6.995   2.166 -0.3980 -0.7014  0.3171
 4259SOL    HW113676   2.139   7.017   2.088  0.1536  0.5504  0.2266
 4259SOL    HW213677   2.142   6.989   2.249 -0.7783 -0.4913  0.0800
 4260SOL     OW13678   0.884   4.502   0.811 -0.8721  0.2290 -0.2131
 4260SOL    HW113679   0.840   4.532   0.896 -2.0618 -0.0577 -0.7060
 4260SOL    HW213680   0.897   4.580   0.750 -0.0792  0.4233  0.1889
 4261SOL     OW13681   5.577   3.434   3.701 -0.6167  0.0892  0.6670
 4261SOL    HW113682   5.659   3.412   3.648 -1.0209 -0.3025  0.1883
 4261SOL    HW213683   5.496   3.396   3.654 -0.9027 -1.0592  2.0350
 4262SOL     OW13684   3.519   0.956   0.530  0.4107 -0.2037 -0.0985
 4262SOL    HW113685   3.566   0.871   0.556  0.9668 -0.0823 -0.6823
 4262SOL    HW213686   3.441   0.971   0.592  1.1407 -0.3986  0.8911
 4263SOL     OW13687   2.268   3.736   1.799  0.3756 -0.4410  0.6006
 4263SOL    HW113688   2.291   3.639   1.799  0.2556 -0.4699  1.1024
 4263SOL    HW213689   2.260   3.769   1.893 -1.3698 -0.3676  0.4583
 4264SOL     OW13690   3.737   1.436   2.069 -0.0848  0.5948 -0.1523
 4264SOL    HW113691   3.751   1.462   1.973  1.4411 -0.9684 -0.4175
 4264SOL    HW213692   3.659   1.373   2.075 -1.0070  1.7135 -0.1495
 4265SOL     OW13693   5.255   3.616   5.124 -0.5539 -0.2319  0.2879
 4265SOL    HW113694   5.229   3.587   5.217 -0.9450 -0.8292 -0.0020
 4265SOL    HW213695   5.320   3.550   5.086 -0.1327  0.1980  0.2660
 4266SOL     OW13696   6.158   2.898   6.818 -0.2407 -0.2083 -0.0507
 4266SOL    HW113697   6.150   2.818   6.879 -0.0719  0.9753  1.5856
 4266SOL    HW213698   6.241   2.949   6.840 -0.6297  0.7341 -0.7115
 4267SOL     OW13699   0.696   5.424   0.690 -0.3093 -0.9850  0.0956
 4267SOL    HW113700   0.769   5.396   0.628  1.2073  0.9926  0.8836
 4267SOL    HW213701   0.715   5.390   0.781 -0.5041 -0.6965  0.2461
 4268SOL     OW13702   0.117   5.567   4.472  0.3388  0.0602 -0.1931
 4268SOL    HW113703   0.032   5.606   4.508 -0.1482 -0.8709 -0.3202
 4268SOL    HW213704   0.180   5.642   4.448 -0.3267  0.7492  0.1599
 4269SOL     OW13705   2.988   2.997   6.059  0.2208 -0.4256  0.2568
 4269SOL    HW113706   3.088   3.004   6.064  0.2794  0.1041 -1.3663
 4269SOL    HW213707   2.951   3.078   6.014 -0.9605 -0.6183  0.8440
 4270SOL     OW13708   3.767   6.527   5.423  0.0971 -0.0914 -0.1977
 4270SOL    HW113709   3.790   6.493   5.514  1.4636  0.4311 -0.3336
 4270SOL    HW213710   3.786   6.626   5.418  0.6975 -0.2444 -1.2513
 4271SOL     OW13711   0.023   0.712   5.857  0.0879 -0.3205  0.1850
 4271SOL    HW113712   0.067   0.631   5.895  0.9120 -0.1649 -0.4026
 4271SOL    HW213713  -0.073   0.715   5.885 -0.3939 -2.3267 -1.0575
 4272SOL     OW13714   3.845   4.405   1.653 -0.1641  0.1089 -0.0722
 4272SOL    HW113715   3.834   4.504   1.650 -0.4580  0.0705 -2.6270
 4272SOL    HW213716   3.767   4.363   1.699  0.5608  1.0620  2.1897
 4273SOL     OW13717   4.618   1.055   2.602 -0.1872  0.4578  0.2401
 4273SOL    HW113718   4.531   1.105   2.604 -0.0293  0.7843 -0.5254
 4273SOL    HW213719   4.693   1.119   2.583 -0.0408 -0.1016 -1.2641
 4274SOL     OW13720   5.875   0.985   1.527  0.3403  0.7131 -0.2470
 4274SOL    HW113721   5.808   0.989   1.453  0.0632  1.6526  0.0453
 4274SOL    HW213722   5.963   1.021   1.496  0.8007 -0.6939 -0.6887
 4275SOL     OW13723   5.477   2.654   3.380  0.0512 -0.1281  0.3288
 4275SOL    HW113724   5.392   2.637   3.430 -1.0287  1.0443 -1.0428
 4275SOL    HW213725   5.550   2.674   3.446 -0.3271 -2.5672  1.6060
 4276SOL     OW13726   5.610   6.906   5.923 -0.1148  0.0966 -0.4233
 4276SOL    HW113727   5.559   6.992   5.920  0.9616  0.7419 -1.6924
 4276SOL    HW213728   5.565   6.839   5.864 -2.0455 -0.9215  2.0425
 4277SOL     OW13729   3.213   0.115   2.022 -0.2962 -0.0006  0.2325
 4277SOL    HW113730   3.245   0.158   1.937  0.6401 -1.0930  0.0146
 4277SOL    HW213731   3.282   0.050   2.054 -1.4267 -0.8969  0.8754
 4278SOL     OW13732   2.587   5.968   0.622  0.3183  0.2805  0.3106
 4278SOL    HW113733   2.505   5.913   0.639 -1.1300  2.1754 -0.2318
 4278SOL    HW213734   2.601   5.978   0.523 -0.2279  1.9193  0.3654
 4279SOL     OW13735   0.171   3.032   5.808 -0.1555  0.3033  0.4390
 4279SOL    HW113736   0.224   2.947   5.803 -1.2983 -0.3737 -0.8961
 4279SOL    HW213737   0.172   3.066   5.902  0.1071 -1.3258  1.0608
 4280SOL     OW13738   6.732   1.300   6.451  0.7212  0.0772 -0.1361
 4280SOL    HW113739   6.668   1.285   6.526  0.9841  1.5090  0.4042
 4280SOL    HW213740   6.815   1.247   6.467  0.1097 -0.9931 -0.3345
 4281SOL     OW13741   2.535   6.944   1.873  0.2172  0.0583  0.1525
 4281SOL    HW113742   2.440   6.949   1.843  0.5978 -0.5130 -1.2025
 4281SOL    HW213743   2.552   6.854   1.914  0.1271  0.2433  0.6064
 4282SOL     OW13744   0.346   5.586   3.037 -0.4374  0.1683  0.1799
 4282SOL    HW113745   0.402   5.667   3.019 -3.4428  2.4768  0.4165
 4282SOL    HW213746   0.321   5.542   2.951  0.0404  0.3392 -0.0448
 4283SOL     OW13747   4.300   6.506   6.867  0.2224  0.2594 -0.2163
 4283SOL    HW113748   4.274   6.505   6.963  0.4057  0.9289 -0.1586
 4283SOL    HW213749   4.388   6.551   6.856 -0.0473  0.6679 -0.7592
 4284SOL     OW13750   6.899   4.025   4.518 -0.0277  0.8560  0.0879
 4284SOL    HW113751   6.996   4.010   4.497 -0.4770 -1.6319 -0.4982
 4284SOL    HW213752   6.881   4.123   4.523  2.0120  1.4389 -2.2000
 4285SOL     OW13753   0.208   1.786   0.415  0.0997 -0.7397  0.3726
 4285SOL    HW113754   0.261   1.840   0.349 -1.2885 -1.3629 -1.3433
 4285SOL    HW213755   0.111   1.807   0.405 -0.1581 -0.8389  2.2916
 4286SOL     OW13756   5.925   6.932   2.166  0.5544 -0.3904 -0.4875
 4286SOL    HW113757   5.992   6.916   2.239 -1.0902 -0.2512  1.1107
 4286SOL    HW213758   5.905   6.846   2.120  0.4683 -0.7752  0.2549
 4287SOL     OW13759   1.038   4.462   3.309 -0.0097  0.1921 -0.1183
 4287SOL    HW113760   1.071   4.376   3.347  0.2728  0.1442 -0.4691
 4287SOL    HW213761   1.083   4.480   3.222  1.1520  1.4954  0.7009
 4288SOL     OW13762   2.345   6.288   1.885 -0.1088 -0.2649  0.1035
 4288SOL    HW113763   2.410   6.305   1.960 -1.6819 -1.6402  1.8764
 4288SOL    HW213764   2.275   6.358   1.886  0.5402  0.4204 -0.9170
 4289SOL     OW13765   6.656   4.747   5.008 -0.3393  0.1860 -0.5104
 4289SOL    HW113766   6.616   4.656   5.014 -0.7462  0.3010 -1.2785
 4289SOL    HW213767   6.612   4.808   5.074 -0.8603  0.1027 -0.7792
 4290SOL     OW13768   5.581   4.589   0.395  1.0268  0.6255  0.2659
 4290SOL    HW113769   5.535   4.558   0.312  1.0580  0.4114  0.3295
 4290SOL    HW213770   5.526   4.661   0.438 -1.1032 -1.9516  2.2253
 4291SOL     OW13771   6.202   0.903   3.402  0.0546 -0.1652  0.1216
 4291SOL    HW113772   6.212   0.979   3.466 -0.2753  1.1535 -1.3152
 4291SOL    HW213773   6.111   0.909   3.359  1.4463  1.1053 -2.9536
 4292SOL     OW13774   3.608   7.007   2.167 -0.3944  0.4364  0.6219
 4292SOL    HW113775   3.660   6.922   2.172  0.4700  0.8744 -0.6098
 4292SOL    HW213776   3.598   7.045   2.259  0.6891 -0.1174  0.9871
 4293SOL     OW13777   6.199   3.313   0.291 -0.2055 -0.1850  0.2740
 4293SOL    HW113778   6.255   3.373   0.348 -0.7154 -0.2858  0.8919
 4293SOL    HW213779   6.257   3.248   0.243  0.3331  0.6155 -0.1906
 4294SOL     OW13780   2.215   3.954   5.302 -0.0421 -0.2133 -0.0503
 4294SOL    HW113781   2.283   3.998   5.243 -0.3095 -0.9798 -0.9671
 4294SOL    HW213782   2.217   3.996   5.393 -0.6301  2.0620 -0.9962
 4295SOL     OW13783   4.572   4.223   6.308 -0.3399 -0.2833 -0.0481
 4295SOL    HW113784   4.535   4.176   6.228 -1.6655  0.8579 -0.1428
 4295SOL    HW213785   4.498   4.238   6.374  0.4943 -0.1512  0.8791
 4296SOL     OW13786   6.893   6.474   1.434 -0.1963 -0.4112 -0.3096
 4296SOL    HW113787   6.887   6.418   1.516  0.5250  0.2339  0.2109
 4296SOL    HW213788   6.989   6.500   1.419 -0.6741  2.0284  0.4293
 4297SOL     OW13789   1.475   2.521   3.597 -0.2271  0.2513 -0.2516
 4297SOL    HW113790   1.451   2.550   3.690 -1.3879 -1.3077 -0.0280
 4297SOL    HW213791   1.412   2.450   3.567  1.0179 -0.2886 -1.7045
 4298SOL     OW13792   4.157   0.381   2.309 -0.2306  0.0891 -0.5639
 4298SOL    HW113793   4.103   0.464   2.323  0.6844  0.2474  3.2735
 4298SOL    HW213794   4.169   0.365   2.211 -3.4961  2.3819 -1.5285
 4299SOL     OW13795   6.185   6.016   6.866 -0.2850 -0.6708 -0.0277
 4299SOL    HW113796   6.118   5.943   6.880  0.3694 -1.4047 -0.6298
 4299SOL    HW213797   6.140   6.105   6.875 -0.8326 -1.1116  2.0347
 4300SOL     OW13798   6.644   1.309   4.716 -0.3840 -0.0381 -0.0657
 4300SOL    HW113799   6.652   1.400   4.757  1.6820 -0.3790  0.3852
 4300SOL    HW213800   6.691   1.308   4.627  1.1089 -1.0737  0.6966
 4301SOL     OW13801   6.644   1.349   5.560 -0.1678  0.3890  0.4296
 4301SOL    HW113802   6.643   1.421   5.630  0.1119  1.5612 -0.7247
 4301SOL    HW213803   6.724   1.362   5.501  0.4379 -1.4834  0.7809
 4302SOL     OW13804   1.163   4.474   1.268 -0.2813 -0.0875  0.4117
 4302SOL    HW113805   1.148   4.450   1.172  0.6803 -0.9406  0.4581
 4302SOL    HW213806   1.103   4.419   1.326 -0.1244 -0.3294  0.3483
 4303SOL     OW13807   5.900   4.395   5.093  0.4302 -0.2984 -0.3024
 4303SOL    HW113808   6.000   4.402   5.088  0.6420 -1.7602  1.2296
 4303SOL    HW213809   5.867   4.441   5.176 -0.5380  2.8192 -2.2585
 4304SOL     OW13810   2.713   1.903   1.365 -0.1306 -0.3482 -0.0402
 4304SOL    HW113811   2.699   1.843   1.444  2.0250  0.3765  0.9721
 4304SOL    HW213812   2.674   1.993   1.385  0.6760 -0.0748  0.3633
 4305SOL     OW13813   6.409   2.300   1.089 -0.2726 -0.0973  0.4865
 4305SOL    HW113814   6.364   2.388   1.078 -0.5737 -0.4500 -1.3477
 4305SOL    HW213815   6.504   2.307   1.060  0.7984  0.4775  3.7348
 4306SOL     OW13816   5.192   0.155   4.245 -0.2679  0.0605 -0.1748
 4306SOL    HW113817   5.220   0.214   4.170 -0.3520 -0.1679 -0.3900
 4306SOL    HW213818   5.270   0.135   4.304 -0.1061 -0.1017 -0.4422
 4307SOL     OW13819   5.096   2.842   4.521  0.0153 -0.1735  0.2141
 4307SOL    HW113820   5.037   2.923   4.520 -0.3389 -0.3697 -2.1767
 4307SOL    HW213821   5.161   2.848   4.445  1.2361 -1.2947  1.1255
 4308SOL     OW13822   3.962   5.782   5.962  0.6275 -0.1134 -0.7120
 4308SOL    HW113823   4.014   5.730   6.030  0.1976  0.0795 -0.2321
 4308SOL    HW213824   3.970   5.880   5.982 -1.4062 -0.1363  0.4770
 4309SOL     OW13825   2.799   6.565   0.645  0.3711  0.2676  0.5402
 4309SOL    HW113826   2.789   6.636   0.575  1.4229 -0.4164 -0.3469
 4309SOL    HW213827   2.781   6.604   0.735 -0.4978  1.3001 -0.0531
 4310SOL     OW13828   4.769   2.490   0.831  0.6770  0.0546  0.2740
 4310SOL    HW113829   4.772   2.577   0.782 -0.5549  0.2202  0.4507
 4310SOL    HW213830   4.846   2.433   0.804  0.2278  0.2713 -1.6062
 4311SOL     OW13831   6.414   2.412   4.102 -0.6000 -0.4272 -0.2324
 4311SOL    HW113832   6.497   2.461   4.074  1.0194 -2.0041  1.5539
 4311SOL    HW213833   6.384   2.445   4.191 -3.3045  1.6481 -1.7255
 4312SOL     OW13834   0.047   4.274   6.748 -0.4317  0.4225  0.1534
 4312SOL    HW113835   0.140   4.296   6.777 -0.5358 -0.0011  0.8162
 4312SOL    HW213836  -0.008   4.358   6.749 -0.0701  0.6685 -0.2145
 4313SOL     OW13837   2.269   4.196   3.152 -0.2063 -0.6535 -0.0559
 4313SOL    HW113838   2.193   4.140   3.121 -2.1062  0.9007  1.5019
 4313SOL    HW213839   2.274   4.193   3.252  2.4631 -1.4790 -0.1266
 4314SOL     OW13840   1.515   4.551   0.669  0.1822 -0.0888 -0.0706
 4314SOL    HW113841   1.582   4.479   0.652  2.1362  1.3543  1.1058
 4314SOL    HW213842   1.474   4.538   0.760  0.0451 -0.0751 -0.1300
 4315SOL     OW13843   6.203   3.953   3.903  0.1904  0.1894  0.2324
 4315SOL    HW113844   6.284   4.011   3.895 -1.1890  1.9423 -2.9430
 4315SOL    HW213845   6.158   3.946   3.814 -2.3352 -2.0065  1.5280
 4316SOL     OW13846   0.187   2.716   2.288  0.3816 -0.1514 -0.1868
 4316SOL    HW113847   0.111   2.723   2.353 -1.4374 -0.3139 -2.1551
 4316SOL    HW213848   0.225   2.806   2.271  2.0270 -0.2917  2.2670
 4317SOL     OW13849   5.464   3.759   4.335  0.0608  0.8035  0.1818
 4317SOL    HW113850   5.524   3.729   4.409  0.3213 -2.8297 -1.2860
 4317SOL    HW213851   5.369   3.756   4.367  0.0424 -2.0731  0.1696
 4318SOL     OW13852   0.134   3.738   3.497  0.1891  0.2393  0.5544
 4318SOL    HW113853   0.100   3.779   3.413 -0.1685  0.8278  0.9785
 4318SOL    HW213854   0.199   3.666   3.475 -1.2596 -0.8736 -0.2930
 4319SOL     OW13855   2.814   2.342   6.974  0.1539 -0.3078 -0.5516
 4319SOL    HW113856   2.717   2.335   7.000  0.0299  0.0415 -0.9236
 4319SOL    HW213857   2.854   2.251   6.974 -0.2040 -0.4696 -0.5123
 4320SOL     OW13858   2.948   6.011   4.444  0.5634 -0.6738  0.2974
 4320SOL    HW113859   3.021   6.051   4.499  0.6929  0.8403 -0.8908
 4320SOL    HW213860   2.863   6.061   4.460  0.6545 -0.0562 -0.9953
 4321SOL     OW13861   1.841   6.196   0.752  0.1246 -0.2896  0.8092
 4321SOL    HW113862   1.910   6.224   0.685 -0.3173 -0.0259  0.4551
 4321SOL    HW213863   1.801   6.278   0.794  0.8165 -0.4593  1.8379
 4322SOL     OW13864   1.780   2.264   3.356  0.1788  0.0037  0.1734
 4322SOL    HW113865   1.704   2.271   3.421 -0.7946 -1.8764 -0.7040
 4322SOL    HW213866   1.781   2.346   3.298 -0.8373  0.3003  0.5503
 4323SOL     OW13867   5.708   0.974   1.304  0.1303 -0.1609  0.0183
 4323SOL    HW113868   5.697   1.009   1.210 -1.1343 -0.1554  0.1552
 4323SOL    HW213869   5.678   0.879   1.307  1.8005 -0.7152  0.0605
 4324SOL     OW13870   6.637   3.878   1.744  0.3160  0.3431 -0.2662
 4324SOL    HW113871   6.609   3.819   1.668  1.9027  2.4109 -2.6314
 4324SOL    HW213872   6.734   3.861   1.764  0.3526  1.0207  0.1491
 4325SOL     OW13873   2.701   1.618   5.384 -0.1952  0.1271  0.2471
 4325SOL    HW113874   2.779   1.666   5.424  0.9478 -0.1318 -1.5488
 4325SOL    HW213875   2.626   1.616   5.449 -0.3612  4.3977  0.4299
 4326SOL     OW13876   1.853   6.697   1.455 -0.0793 -0.2995 -0.3854
 4326SOL    HW113877   1.930   6.658   1.506 -1.4801  0.0907  2.2020
 4326SOL    HW213878   1.882   6.782   1.410  1.6636 -1.5805 -1.8582
 4327SOL     OW13879   3.635   3.350   3.333  0.3550  0.1154  0.6662
 4327SOL    HW113880   3.707   3.406   3.374  1.6505 -1.6916  0.9702
 4327SOL    HW213881   3.622   3.267   3.388 -1.7632  0.2370  0.4329
 4328SOL     OW13882   1.618   5.042   2.806  1.3145  0.6360  0.3196
 4328SOL    HW113883   1.649   5.135   2.785  0.0196  0.9589 -0.2461
 4328SOL    HW213884   1.560   5.044   2.887 -0.7759  0.7686 -1.0932
 4329SOL     OW13885   0.431   3.829   2.022  0.4146 -0.3007 -0.3298
 4329SOL    HW113886   0.392   3.792   2.106 -1.6775  0.0704 -1.0834
 4329SOL    HW213887   0.429   3.758   1.951  0.7863 -0.1545 -0.4906
 4330SOL     OW13888   4.123   4.915   4.543  0.6783 -0.1011 -0.2347
 4330SOL    HW113889   4.125   4.875   4.635  1.5581 -0.4571 -0.4001
 4330SOL    HW213890   4.055   4.868   4.487  2.4288 -2.1635 -0.7557
 4331SOL     OW13891   1.518   2.530   2.576  0.3099 -0.6580  0.1557
 4331SOL    HW113892   1.467   2.614   2.590  1.9350  0.4302 -0.1467
 4331SOL    HW213893   1.533   2.484   2.664 -0.1625 -0.3815  0.3810
 4332SOL     OW13894   1.882   5.811   3.284 -0.5126  0.0453  0.6032
 4332SOL    HW113895   1.853   5.715   3.280  0.0795 -0.0952 -0.8764
 4332SOL    HW213896   1.905   5.835   3.379 -0.1786 -1.4258  0.9185
 4333SOL     OW13897   1.102   2.669   3.530 -0.3973 -0.0084 -0.0659
 4333SOL    HW113898   1.190   2.715   3.545  0.2256 -0.6384 -1.5875
 4333SOL    HW213899   1.062   2.702   3.445  0.2383 -2.4993 -1.3966
 4334SOL     OW13900   2.210   5.119   5.376 -0.8830  0.5114  0.1612
 4334SOL    HW113901   2.133   5.167   5.334  0.0028  0.2249 -1.9171
 4334SOL    HW213902   2.289   5.181   5.382 -0.3728 -0.0634 -0.5552
 4335SOL     OW13903   4.276   4.998   2.837 -0.6127  0.1415  0.1160
 4335SOL    HW113904   4.182   5.021   2.862  0.1705  1.8289  1.6676
 4335SOL    HW213905   4.321   4.952   2.913  0.8342  2.4484  0.7346
 4336SOL     OW13906   3.835   5.125   6.958  0.5063  0.0331  0.6657
 4336SOL    HW113907   3.773   5.100   7.032 -1.3239 -1.2892 -1.2259
 4336SOL    HW213908   3.919   5.163   6.997 -1.3967  1.8505  3.3308
 4337SOL     OW13909   4.682   0.487   4.321 -0.1915  0.1018 -0.1649
 4337SOL    HW113910   4.688   0.450   4.228 -1.6083  1.0779 -0.6871
 4337SOL    HW213911   4.647   0.581   4.317 -2.3310 -0.5454  1.4752
 4338SOL     OW13912   5.296   1.034   4.759 -0.3237  0.0216  0.2245
 4338SOL    HW113913   5.394   1.012   4.760 -0.9362 -3.3206  1.6943
 4338SOL    HW213914   5.279   1.110   4.821  1.3251  0.6887 -0.0722
 4339SOL     OW13915   1.578   5.320   0.637 -0.1460 -0.0270  0.4393
 4339SOL    HW113916   1.554   5.409   0.600 -1.0345  0.2744  1.6637
 4339SOL    HW213917   1.505   5.255   0.618 -0.0711 -0.1689  0.6275
 4340SOL     OW13918   6.255   1.277   5.248 -0.9821  0.4710 -0.2946
 4340SOL    HW113919   6.252   1.285   5.148 -4.3371  1.0274 -0.2766
 4340SOL    HW213920   6.337   1.323   5.283 -0.9883  2.4924 -2.6607
 4341SOL     OW13921   5.523   2.048   4.329 -0.0816 -0.2665  0.1138
 4341SOL    HW113922   5.424   2.046   4.346 -0.3998  0.7329 -1.4497
 4341SOL    HW213923   5.543   2.111   4.254  1.7775 -0.2991  0.5309
 4342SOL     OW13924   2.131   1.355   5.516  0.2914  0.1342 -0.4624
 4342SOL    HW113925   2.188   1.361   5.598 -0.7214 -1.2719  0.3920
 4342SOL    HW213926   2.186   1.324   5.439  0.8536 -0.4934  0.1757
 4343SOL     OW13927   4.452   6.682   5.487  0.5534  0.7675  0.0413
 4343SOL    HW113928   4.441   6.606   5.424 -0.0897  0.0530  0.9878
 4343SOL    HW213929   4.364   6.703   5.530  0.5371  2.5728 -0.7794
 4344SOL     OW13930   2.379   5.857   1.055 -0.0264  0.3373 -0.3606
 4344SOL    HW113931   2.449   5.907   1.004 -0.1073  0.5051 -0.3076
 4344SOL    HW213932   2.374   5.763   1.021  1.5996 -0.2823  0.9570
 4345SOL     OW13933   4.712   3.596   6.501 -0.5674 -0.0352 -0.0023
 4345SOL    HW113934   4.805   3.603   6.538 -0.5934  2.2807 -0.2214
 4345SOL    HW213935   4.655   3.543   6.563  0.4870 -0.0384  1.0053
 4346SOL     OW13936   6.994   6.316   5.609 -0.4138  0.0081 -0.1671
 4346SOL    HW113937   6.986   6.410   5.575  0.9390  0.2444  0.1007
 4346SOL    HW213938   7.086   6.282   5.589 -0.2405 -0.5546  1.5006
 4347SOL     OW13939   3.958   3.739   5.598 -0.0962 -0.3589  0.5468
 4347SOL    HW113940   3.914   3.742   5.688 -0.3086 -2.5880  0.5718
 4347SOL    HW213941   4.034   3.803   5.596 -1.7183  1.7277  1.3743
 4348SOL     OW13942   6.941   3.306   0.942  0.6939 -0.3532  0.0941
 4348SOL    HW113943   6.943   3.350   0.852  2.5455 -0.9905 -0.2216
 4348SOL    HW213944   7.023   3.331   0.994 -0.3400 -0.0018  1.6301
 4349SOL     OW13945   1.341   0.733   0.361 -0.2050 -0.2768  0.2485
 4349SOL    HW113946   1.323   0.829   0.339  1.1579  0.0603  0.4927
 4349SOL    HW213947   1.376   0.686   0.280  0.0499 -0.3248  0.3879
 4350SOL     OW13948   4.626   1.303   1.534 -0.3345 -0.1250 -0.2954
 4350SOL    HW113949   4.623   1.281   1.631  0.3358  0.5092 -0.1197
 4350SOL    HW213950   4.573   1.385   1.516  0.2965  0.2913 -0.3004
 4351SOL     OW13951   2.061   4.823   3.424  0.8321  0.3431 -0.1184
 4351SOL    HW113952   2.146   4.773   3.438  1.6647  1.3726 -1.2905
 4351SOL    HW213953   2.069   4.914   3.464  0.3653  0.5135 -0.4026
 4352SOL     OW13954   2.055   6.857   3.625 -0.2097 -0.1425  0.3154
 4352SOL    HW113955   2.020   6.901   3.543 -0.0061 -0.0977  0.2533
 4352SOL    HW213956   2.086   6.926   3.690 -1.7601 -0.1044  1.0659
 4353SOL     OW13957   1.415   3.413   5.018  0.3596  0.1193  0.1032
 4353SOL    HW113958   1.495   3.375   5.064  1.6136  2.5805  0.1365
 4353SOL    HW213959   1.336   3.353   5.032  2.0421 -2.1316  0.4869
 4354SOL     OW13960   7.020   2.363   5.537 -0.7589  0.3245 -0.1297
 4354SOL    HW113961   7.087   2.291   5.558  0.6118  2.1980  2.3921
 4354SOL    HW213962   6.942   2.322   5.491  0.4188 -2.5980  0.2372
 4355SOL     OW13963   3.181   4.219   5.914 -0.2419  0.0407 -0.2641
 4355SOL    HW113964   3.103   4.255   5.863  1.1753  0.8841 -1.9191
 4355SOL    HW213965   3.250   4.185   5.851  0.4492 -1.3833  1.1775
 4356SOL     OW13966   5.196   3.725   5.781  0.3434  0.2539  0.6496
 4356SOL    HW113967   5.102   3.694   5.795  0.2069  0.1686 -0.3778
 4356SOL    HW213968   5.228   3.695   5.691  0.5182  2.3103 -0.0274
 4357SOL     OW13969   6.604   3.553   5.204 -0.0532  0.3173 -0.1790
 4357SOL    HW113970   6.639   3.615   5.134  0.5323 -0.0134 -0.1899
 4357SOL    HW213971   6.549   3.481   5.161 -1.0122  1.0122 -0.1320
 4358SOL     OW13972   1.521   0.117   4.942  0.0872  0.4767 -0.1216
 4358SOL    HW113973   1.593   0.180   4.917  1.5139 -0.2301  1.9134
 4358SOL    HW213974   1.446   0.167   4.986  1.2482  0.8210  1.5612
 4359SOL     OW13975   4.848   2.314   2.652  0.0427  0.3946  0.1694
 4359SOL    HW113976   4.831   2.326   2.555  2.9026  1.5215 -0.2963
 4359SOL    HW213977   4.888   2.224   2.668 -0.5547  0.1544  0.3521
 4360SOL     OW13978   4.917   5.325   3.252  0.0726 -0.2991 -0.2299
 4360SOL    HW113979   4.926   5.371   3.341  1.1165 -1.4697  0.3097
 4360SOL    HW213980   4.926   5.226   3.265  2.6318 -0.3848 -1.8772
 4361SOL     OW13981   1.073   6.413   0.227 -0.4112  0.4406 -0.2137
 4361SOL    HW113982   1.170   6.438   0.238 -0.6403  1.5586 -0.6488
 4361SOL    HW213983   1.031   6.472   0.158 -1.6497  0.6031  0.6569
 4362SOL     OW13984   1.876   2.669   6.266 -0.2024  0.0501 -0.5627
 4362SOL    HW113985   1.964   2.692   6.224 -1.0516  2.0978 -1.3080
 4362SOL    HW213986   1.837   2.589   6.220  0.0814  0.6907 -1.9569
 4363SOL     OW13987   6.894   6.109   2.890 -0.1127 -0.3999  0.3161
 4363SOL    HW113988   6.935   6.117   2.799 -0.1668 -0.6908  0.2656
 4363SOL    HW213989   6.864   6.200   2.921 -0.0247 -0.2884  0.0783
 4364SOL     OW13990   2.812   0.896   2.211 -0.3530 -0.2458 -0.4042
 4364SOL    HW113991   2.736   0.833   2.192 -1.0779  0.4499  0.1400
 4364SOL    HW213992   2.781   0.990   2.200  0.7896  0.0364 -1.4352
 4365SOL     OW13993   6.493   3.187   6.343 -0.0662 -0.0546 -0.1509
 4365SOL    HW113994   6.587   3.159   6.363 -0.0006  1.5130  2.1640
 4365SOL    HW213995   6.487   3.287   6.349 -1.8263 -0.1090 -0.5789
 4366SOL     OW13996   5.814   0.082   3.663  0.3838 -0.4215 -0.1611
 4366SOL    HW113997   5.858   0.136   3.735 -0.3704 -0.0624  0.0466
 4366SOL    HW213998   5.717   0.069   3.686  0.4546 -1.5174 -0.4149
 4367SOL     OW13999   0.121   6.357   2.929 -0.6358  0.1815  0.3897
 4367SOL    HW114000   0.179   6.416   2.874 -0.3539  0.2634  0.7722
 4367SOL    HW214001   0.165   6.267   2.939  0.4887  0.8920  2.4619
 4368SOL     OW14002   3.854   0.251   1.755  0.0282  0.2298 -0.3249
 4368SOL    HW114003   3.795   0.240   1.835 -0.8172  1.7998 -0.6923
 4368SOL    HW214004   3.897   0.163   1.733 -0.6241 -0.4888  1.1408
 4369SOL     OW14005   0.183   4.237   6.378  0.1094 -0.8114 -0.7088
 4369SOL    HW114006   0.124   4.274   6.306  0.0436  2.1978  0.7412
 4369SOL    HW214007   0.126   4.195   6.449 -0.2017  0.4143 -0.2116
 4370SOL     OW14008   3.569   2.855   2.597  0.4176  0.6908 -0.0800
 4370SOL    HW114009   3.640   2.924   2.614  1.5323 -0.4609  0.0352
 4370SOL    HW214010   3.560   2.841   2.498  1.1269  0.0551 -0.0582
 4371SOL     OW14011   2.570   1.331   1.245 -0.5961 -0.3103 -0.2003
 4371SOL    HW114012   2.519   1.324   1.159  0.0810 -0.9058 -0.5686
 4371SOL    HW214013   2.575   1.240   1.287 -2.9028  0.3405  1.6647
 4372SOL     OW14014   3.267   1.933   3.513  0.1231  0.4934  0.3286
 4372SOL    HW114015   3.208   1.998   3.560 -1.3612  0.6017 -1.5510
 4372SOL    HW214016   3.212   1.872   3.456  1.7268 -0.2781 -0.4921
 4373SOL     OW14017   3.638   5.893   2.558  1.0007  0.0627 -0.0172
 4373SOL    HW114018   3.596   5.822   2.615  1.2730  0.6351  0.9026
 4373SOL    HW214019   3.689   5.957   2.615  2.1136  0.0832 -1.0052
 4374SOL     OW14020   1.776   3.566   1.646 -0.8549 -0.2154 -0.1320
 4374SOL    HW114021   1.834   3.514   1.583  0.7191  1.7943 -0.4541
 4374SOL    HW214022   1.803   3.546   1.740 -1.3997 -1.2094 -0.1766
 4375SOL     OW14023   7.000   2.261   6.963  0.1784  0.4108 -0.0448
 4375SOL    HW114024   7.071   2.324   6.993 -1.3816  1.7904  0.9415
 4375SOL    HW214025   6.965   2.289   6.874  0.0803  0.4190 -0.0038
 4376SOL     OW14026   0.677   0.015   6.658  0.1911 -0.3677  0.1838
 4376SOL    HW114027   0.674  -0.085   6.662 -0.8424 -0.3335  0.5441
 4376SOL    HW214028   0.758   0.044   6.607  1.7060 -1.3296  1.9027
 4377SOL     OW14029   1.132   3.448   3.617  0.7374 -0.4877  0.4143
 4377SOL    HW114030   1.159   3.429   3.522 -0.0824 -2.2207  0.4973
 4377SOL    HW214031   1.037   3.480   3.619  1.6646  2.6222  0.4154
 4378SOL     OW14032   1.318   3.377   6.425  0.4452  0.0268  0.0633
 4378SOL    HW114033   1.391   3.312   6.445  0.2260 -0.9712 -2.0202
 4378SOL    HW214034   1.229   3.332   6.435  0.2431  0.3552 -0.2065
 4379SOL     OW14035   3.914   4.407   5.966 -0.4123  0.4431 -0.7444
 4379SOL    HW114036   4.005   4.426   5.929  0.1054  0.2652  0.4024
 4379SOL    HW214037   3.896   4.468   6.044 -1.7846  1.3250 -1.7139
 4380SOL     OW14038   4.417   4.912   1.566  0.4708  0.0873 -0.0898
 4380SOL    HW114039   4.333   4.859   1.562  0.7052 -0.4428  1.4419
 4380SOL    HW214040   4.396   5.006   1.595  0.4441 -0.1710  0.7498
 4381SOL     OW14041   6.477   2.356   2.508 -0.2480  0.1227 -0.3664
 4381SOL    HW114042   6.472   2.437   2.566  0.9164  0.1898 -0.3560
 4381SOL    HW214043   6.432   2.279   2.555  1.9152 -0.2171  1.3115
 4382SOL     OW14044   5.187   0.250   0.114 -0.2494 -0.5967  0.0193
 4382SOL    HW114045   5.174   0.152   0.103 -2.2036 -0.2877 -0.7580
 4382SOL    HW214046   5.253   0.283   0.046  0.2751 -1.3222  0.1673
 4383SOL     OW14047   1.822   0.923   6.963  0.4119  0.0306  0.0522
 4383SOL    HW114048   1.913   0.943   6.999  1.0704  0.0164 -1.5374
 4383SOL    HW214049   1.816   0.954   6.868 -1.7431  1.3543  0.5714
 4384SOL     OW14050   4.804   2.478   4.855 -0.0416  0.1001 -0.6604
 4384SOL    HW114051   4.883   2.540   4.856  0.3225 -0.3531 -0.9819
 4384SOL    HW214052   4.799   2.432   4.766  1.6645 -2.8183  0.5875
 4385SOL     OW14053   6.196   4.449   6.059 -0.2582  0.0139  0.0129
 4385SOL    HW114054   6.225   4.386   6.131  1.1161  0.4492 -0.1265
 4385SOL    HW214055   6.135   4.402   5.995  1.5456 -1.5106 -0.6654
 4386SOL     OW14056   0.473   4.376   0.405  0.0993  0.5103 -0.4341
 4386SOL    HW114057   0.431   4.307   0.346  1.1153 -0.0192 -0.5530
 4386SOL    HW214058   0.529   4.330   0.474  0.4580  1.2099 -0.2575
 4387SOL     OW14059   5.680   0.524   6.413 -0.0952 -0.2517  0.4116
 4387SOL    HW114060   5.582   0.534   6.397 -0.2993 -0.8727  1.1956
 4387SOL    HW214061   5.727   0.509   6.326 -0.8603 -1.2548  0.1552
 4388SOL     OW14062   1.499   1.205   5.562  0.0946 -0.2086 -0.2378
 4388SOL    HW114063   1.477   1.188   5.466  0.2500 -0.4355 -0.2340
 4388SOL    HW214064   1.598   1.202   5.576  0.2677  2.3914 -0.5395
 4389SOL     OW14065   0.593   4.359   6.266  0.3587 -0.3692  0.0187
 4389SOL    HW114066   0.644   4.340   6.182  2.0216 -0.1197  0.9228
 4389SOL    HW214067   0.602   4.282   6.329  1.7176  0.6530  1.1462
 4390SOL     OW14068   1.396   4.481   5.959  0.4761 -0.3468 -0.3579
 4390SOL    HW114069   1.318   4.528   6.003 -0.7140 -0.7041 -2.0050
 4390SOL    HW214070   1.439   4.420   6.025 -1.9635 -1.7318  0.0536
 4391SOL     OW14071   4.974   6.875   1.551 -0.0425  0.4321  0.7916
 4391SOL    HW114072   4.921   6.831   1.479 -1.1147  1.1478  1.1324
 4391SOL    HW214073   5.051   6.816   1.576  1.3182  0.8529 -2.0255
 4392SOL     OW14074   5.811   2.262   5.453  0.2087  0.8442 -0.8536
 4392SOL    HW114075   5.805   2.318   5.371 -4.7795 -0.9257 -2.0306
 4392SOL    HW214076   5.842   2.170   5.428 -4.3058 -0.6722 -1.6699
 4393SOL     OW14077   6.299   6.958   2.185 -0.1958  0.1808  0.1948
 4393SOL    HW114078   6.251   6.919   2.265 -0.4194 -0.4507 -0.2396
 4393SOL    HW214079   6.256   7.045   2.160 -0.8211 -0.1461  0.1051
 4394SOL     OW14080   3.034   1.732   5.426 -0.2899  0.0746 -1.0203
 4394SOL    HW114081   3.061   1.782   5.344 -0.3169  0.0227 -1.0612
 4394SOL    HW214082   3.053   1.788   5.507  0.6034 -0.2564 -1.0015
 4395SOL     OW14083   0.002   5.906   5.438  0.0037 -0.0281  0.0059
 4395SOL    HW114084   0.035   5.858   5.519  2.2722 -4.3241 -3.0632
 4395SOL    HW214085  -0.057   5.845   5.385 -0.6257  2.2341 -2.0720
 4396SOL     OW14086   0.153   4.881   6.599  0.6990  0.0828 -0.4007
 4396SOL    HW114087   0.227   4.946   6.615 -0.3088  0.4553  4.4825
 4396SOL    HW214088   0.189   4.788   6.596  1.5009  0.2105  2.5062
 4397SOL     OW14089   2.451   1.407   5.880 -0.5367  0.2013  0.5180
 4397SOL    HW114090   2.352   1.413   5.888 -0.4137  2.8984  0.8276
 4397SOL    HW214091   2.475   1.347   5.804 -2.4313  0.4282 -0.3003
 4398SOL     OW14092   6.609   4.697   6.551  0.2473  0.2123  0.2092
 4398SOL    HW114093   6.678   4.647   6.500  0.4093  0.3796  0.2619
 4398SOL    HW214094   6.583   4.779   6.501  0.2651  0.2763  0.3031
 4399SOL     OW14095   1.810   3.821   0.273  0.5507  0.2626  0.1333
 4399SOL    HW114096   1.887   3.763   0.247 -0.1037  0.4399 -2.4719
 4399SOL    HW214097   1.843   3.914   0.289  1.1315 -0.0907  1.1401
 4400SOL     OW14098   5.557   4.503   0.704 -0.0635 -0.1441 -0.4914
 4400SOL    HW114099   5.627   4.534   0.639 -0.4972 -1.9163 -1.8982
 4400SOL    HW214100   5.601   4.469   0.787  0.5011  2.2058  0.2376
 4401SOL     OW14101   1.647   6.201   1.143  0.1201 -0.4854 -0.6142
 4401SOL    HW114102   1.548   6.206   1.128 -0.1192 -1.6393  0.4470
 4401SOL    HW214103   1.692   6.276   1.094 -1.4300  1.0246  0.1433
 4402SOL     OW14104   3.500   4.333   5.334 -0.3515 -0.6345 -0.0884
 4402SOL    HW114105   3.407   4.302   5.354 -0.7202 -0.7793 -1.9040
 4402SOL    HW214106   3.499   4.431   5.313  0.1672 -0.2791  1.4268
 4403SOL     OW14107   2.196   6.932   0.867  0.3554  0.0272 -0.2348
 4403SOL    HW114108   2.173   7.001   0.799  2.3500  1.0370  0.0621
 4403SOL    HW214109   2.246   6.857   0.824  1.5236  0.6145  0.0721
 4404SOL     OW14110   5.573   1.460   1.766 -0.4636 -0.0016 -0.6174
 4404SOL    HW114111   5.560   1.379   1.708  2.2785 -1.8855  1.1428
 4404SOL    HW214112   5.665   1.497   1.751 -0.3465  0.5475  1.1912
 4405SOL     OW14113   6.515   4.505   3.069 -0.1850  0.1737  0.3240
 4405SOL    HW114114   6.479   4.460   3.151 -1.2160  0.9612  0.3230
 4405SOL    HW214115   6.447   4.570   3.034  1.1250  1.4747  0.1195
 4406SOL     OW14116   4.826   6.298   2.521 -0.0961  0.1124  0.1271
 4406SOL    HW114117   4.892   6.284   2.447 -0.6250 -1.6316 -0.0728
 4406SOL    HW214118   4.772   6.214   2.533 -0.5446  0.6336  1.9868
 4407SOL     OW14119   5.841   3.272   6.931 -0.3975  0.1178  0.6334
 4407SOL    HW114120   5.805   3.331   7.003  0.4795  2.0447 -0.4467
 4407SOL    HW214121   5.892   3.327   6.865 -1.1306 -1.6023 -1.4524
 4408SOL     OW14122   3.716   1.894   0.801  0.1771  0.2434 -0.2107
 4408SOL    HW114123   3.746   1.967   0.739  2.3322 -0.1730  0.2702
 4408SOL    HW214124   3.735   1.805   0.760 -1.0752 -0.0659 -0.1579
 4409SOL     OW14125   1.105   4.323   3.797  0.4596  0.1852  0.6871
 4409SOL    HW114126   1.127   4.227   3.784  0.0791  0.4396 -2.9159
 4409SOL    HW214127   1.165   4.363   3.867  4.5047 -1.4345 -1.5215
 4410SOL     OW14128   4.902   2.880   0.306 -0.3301  0.3227  0.4833
 4410SOL    HW114129   4.960   2.916   0.233  0.9553  1.6554  2.0791
 4410SOL    HW214130   4.955   2.815   0.361 -1.3237 -0.7746  0.1934
 4411SOL     OW14131   5.194   0.201   5.119 -0.2418  0.0106  0.1657
 4411SOL    HW114132   5.285   0.236   5.097 -0.4513  0.3827 -0.1216
 4411SOL    HW214133   5.201   0.133   5.191  0.5064 -1.4515 -1.2220
 4412SOL     OW14134   6.243   1.198   0.281  0.0665  0.2238  0.9656
 4412SOL    HW114135   6.237   1.157   0.190 -1.2059  2.0818  0.1676
 4412SOL    HW214136   6.296   1.282   0.276 -1.2819  1.1477  1.6175
 4413SOL     OW14137   6.176   2.596   5.403 -0.1556  0.1259 -0.1422
 4413SOL    HW114138   6.215   2.555   5.321 -0.7931  1.7985 -1.3225
 4413SOL    HW214139   6.105   2.662   5.378 -2.9574 -1.8499  1.8518
 4414SOL     OW14140   6.058   5.746   2.448  0.6030  0.4689 -0.3098
 4414SOL    HW114141   5.974   5.722   2.400  0.8172  0.6539 -0.7798
 4414SOL    HW214142   6.100   5.825   2.404 -0.1733  1.8440  1.3009
 4415SOL     OW14143   6.740   2.948   2.920 -0.0795  0.4316  0.4891
 4415SOL    HW114144   6.836   2.923   2.914  0.1736  1.6239 -0.9702
 4415SOL    HW214145   6.683   2.869   2.898  0.5816  0.0188  0.2429
 4416SOL     OW14146   0.375   1.695   5.154  0.2253  0.0012  0.3079
 4416SOL    HW114147   0.311   1.622   5.131  0.1997 -0.1001  0.6847
 4416SOL    HW214148   0.398   1.747   5.072  0.3292 -0.4975  0.0177
 4417SOL     OW14149   5.953   4.797   5.617  0.1407 -0.5438  0.0945
 4417SOL    HW114150   5.868   4.778   5.665 -0.3655  1.3252  0.0224
 4417SOL    HW214151   6.022   4.828   5.682 -0.1850  0.8473 -0.1877
 4418SOL     OW14152   1.998   0.881   2.383 -0.0281 -0.2422 -0.9541
 4418SOL    HW114153   1.955   0.942   2.449 -1.0423 -0.6338 -1.2363
 4418SOL    HW214154   1.997   0.924   2.292 -2.1455 -1.2541 -1.4723
 4419SOL     OW14155   2.615   1.370   4.103  0.1696 -0.2076 -0.1322
 4419SOL    HW114156   2.690   1.389   4.040  0.4220  2.0751  0.7546
 4419SOL    HW214157   2.538   1.430   4.080 -0.2919 -0.4451  0.7857
 4420SOL     OW14158   2.432   6.395   2.977  0.0124  0.2107 -0.4002
 4420SOL    HW114159   2.342   6.372   3.015 -0.0980  0.1280 -0.7130
 4420SOL    HW214160   2.427   6.396   2.877 -0.5943  3.8302 -0.4681
 4421SOL     OW14161   4.636   3.206   1.425 -0.5942  0.9689 -0.4795
 4421SOL    HW114162   4.568   3.137   1.397  0.2895 -0.4254  0.6433
 4421SOL    HW214163   4.721   3.191   1.375 -0.5198  1.5113 -0.5170
 4422SOL     OW14164   4.831   1.359   1.266  0.0655  0.5042 -0.3130
 4422SOL    HW114165   4.825   1.413   1.350  0.1694  0.3972 -0.2372
 4422SOL    HW214166   4.744   1.364   1.218 -0.4208 -0.4520  0.4315
 4423SOL     OW14167   5.485   6.335   5.923 -0.6867 -0.0482  0.4120
 4423SOL    HW114168   5.429   6.341   6.006 -0.0311  0.4771  0.8243
 4423SOL    HW214169   5.547   6.258   5.931  0.4184  0.8834  1.0765
 4424SOL     OW14170   6.498   6.772   3.570 -0.5023  0.1733 -0.0533
 4424SOL    HW114171   6.545   6.842   3.517 -1.0862  0.1234 -0.6551
 4424SOL    HW214172   6.471   6.809   3.659  1.4309 -0.0634  0.6708
 4425SOL     OW14173   6.169   4.068   5.385  0.1229 -0.5790 -0.6413
 4425SOL    HW114174   6.220   4.150   5.412 -0.3878 -0.6640  0.6229
 4425SOL    HW214175   6.233   4.001   5.347  0.6829  0.0127 -0.7753
 4426SOL     OW14176   2.625   1.034   0.586 -0.0023  0.1438  0.2356
 4426SOL    HW114177   2.530   1.020   0.615 -0.1466  0.2236 -0.1869
 4426SOL    HW214178   2.660   0.951   0.543  0.7547 -0.5393  2.0680
 4427SOL     OW14179   6.195   0.042   4.252  0.3100  0.1666 -0.2670
 4427SOL    HW114180   6.101   0.007   4.248  1.0200 -2.1576  0.9790
 4427SOL    HW214181   6.195   0.141   4.240 -2.3712  0.3326  0.4826
 4428SOL     OW14182   4.793   5.707   5.933 -0.2450 -0.3002  0.2125
 4428SOL    HW114183   4.712   5.719   5.991  1.8719  2.0912  2.9499
 4428SOL    HW214184   4.808   5.790   5.880  1.3513  0.0176  1.1037
 4429SOL     OW14185   3.228   1.562   5.188  0.1158  0.2556  0.4116
 4429SOL    HW114186   3.175   1.645   5.170 -0.1384  0.0556  0.2206
 4429SOL    HW214187   3.260   1.524   5.101  3.3400  2.1430  0.6463
 4430SOL     OW14188   4.511   3.694   1.617 -0.2025 -0.0430 -0.1982
 4430SOL    HW114189   4.455   3.613   1.598 -0.6941 -0.0658  1.2517
 4430SOL    HW214190   4.453   3.768   1.652  0.5251  0.2573  0.3950
 4431SOL     OW14191   5.116   6.086   4.229 -0.3565  0.9125  0.6627
 4431SOL    HW114192   5.204   6.132   4.218 -0.0058  0.6328  2.0270
 4431SOL    HW214193   5.049   6.126   4.166  0.2269  2.5265  1.0052
 4432SOL     OW14194   4.907   4.763   0.508 -0.1251 -0.1745  0.4624
 4432SOL    HW114195   4.886   4.808   0.421  1.3499  1.6299  0.9619
 4432SOL    HW214196   4.839   4.789   0.576  0.0511  0.3922  0.4334
 4433SOL     OW14197   5.236   6.604   4.084  0.8917  0.0988  0.2179
 4433SOL    HW114198   5.142   6.597   4.051 -0.1439  1.0843  2.7505
 4433SOL    HW214199   5.280   6.683   4.041 -0.5936  1.6827  1.4987
 4434SOL     OW14200   4.187   3.461   4.888  0.0287  0.2124  0.3918
 4434SOL    HW114201   4.251   3.529   4.924 -0.3672 -0.3223  2.2459
 4434SOL    HW214202   4.228   3.413   4.811  1.8831 -0.1259  1.5292
 4435SOL     OW14203   1.500   3.430   3.446  0.3221  0.1593 -0.3960
 4435SOL    HW114204   1.595   3.411   3.420  0.7898  0.7241  0.7903
 4435SOL    HW214205   1.454   3.479   3.373  1.5205  1.5291 -0.2769
 4436SOL     OW14206   6.172   1.280   1.006  0.0382 -0.2070 -0.2923
 4436SOL    HW114207   6.073   1.263   1.005 -0.7315  3.2975 -2.9446
 4436SOL    HW214208   6.216   1.224   0.935 -0.2734 -0.6745 -0.1196
 4437SOL     OW14209   6.028   1.243   1.799  0.0180  0.1126  0.3234
 4437SOL    HW114210   6.037   1.144   1.803  0.6855  0.1664  0.2426
 4437SOL    HW214211   6.049   1.275   1.707 -1.3327  0.2274  0.0351
 4438SOL     OW14212   1.962   1.255   4.193 -0.6340  0.1920  0.0692
 4438SOL    HW114213   2.011   1.207   4.266 -0.2364 -0.2208 -0.4479
 4438SOL    HW214214   1.868   1.222   4.188 -0.7117  0.3472  0.5036
 4439SOL     OW14215   4.644   2.090   0.794  0.3725  0.8387  0.4881
 4439SOL    HW114216   4.657   2.026   0.719 -0.3092 -0.0179  1.0879
 4439SOL    HW214217   4.610   2.177   0.759 -3.3167 -0.6108  0.0694
 4440SOL     OW14218   2.303   3.672   0.139  0.9241  0.1271 -0.2459
 4440SOL    HW114219   2.292   3.725   0.055 -1.6718  0.3024  0.1108
 4440SOL    HW214220   2.356   3.724   0.205  2.9115  0.0321 -1.6868
 4441SOL     OW14221   1.032   3.884   0.496 -0.6936  0.1392  0.5940
 4441SOL    HW114222   0.971   3.953   0.534 -0.2461  0.6700  0.3665
 4441SOL    HW214223   1.097   3.928   0.434 -0.6090 -0.5349  0.1979
 4442SOL     OW14224   0.611   3.869   0.223 -0.3750  0.2106 -0.3657
 4442SOL    HW114225   0.517   3.876   0.258 -1.1362 -2.0691 -1.6961
 4442SOL    HW214226   0.608   3.842   0.127  1.6703 -0.5720 -0.2488
 4443SOL     OW14227   6.732   5.633   4.717 -0.4060  0.1061 -0.0153
 4443SOL    HW114228   6.738   5.539   4.750  0.7090 -0.1796 -0.9520
 4443SOL    HW214229   6.636   5.656   4.698 -1.0375  0.1129  2.7512
 4444SOL     OW14230   5.443   3.178   6.325 -0.9255  0.0136 -0.1750
 4444SOL    HW114231   5.490   3.171   6.413  0.4524 -1.1551 -0.9727
 4444SOL    HW214232   5.383   3.099   6.312 -0.2794 -0.3978 -0.7434
 4445SOL     OW14233   5.684   1.510   2.346 -0.3693 -0.0439 -0.1449
 4445SOL    HW114234   5.776   1.476   2.324 -0.5919 -1.1028  0.4956
 4445SOL    HW214235   5.682   1.539   2.442 -0.9017 -0.7968  0.0863
 4446SOL     OW14236   2.025   5.207   4.914 -0.0487  0.3801 -0.0274
 4446SOL    HW114237   2.095   5.198   4.843 -0.4069  0.6272 -0.4121
 4446SOL    HW214238   1.938   5.174   4.880 -0.9014  3.1017 -0.7228
 4447SOL     OW14239   0.345   5.410   7.010  0.0173 -0.0571 -0.2816
 4447SOL    HW114240   0.444   5.399   6.997  0.1323 -0.2225  0.6428
 4447SOL    HW214241   0.324   5.507   7.024 -0.0143  0.0326 -0.9283
 4448SOL     OW14242   5.361   4.312   3.492  0.4480 -0.3573 -0.1492
 4448SOL    HW114243   5.326   4.373   3.564  1.2112  1.1938 -1.0501
 4448SOL    HW214244   5.452   4.342   3.464  0.4452 -1.3601 -1.2956
 4449SOL     OW14245   2.891   5.623   1.242  0.4739  0.5298 -0.2222
 4449SOL    HW114246   2.921   5.607   1.148 -0.5055  2.0907 -0.8309
 4449SOL    HW214247   2.847   5.540   1.277 -0.1615  0.2805 -1.5387
 4450SOL     OW14248   2.686   3.876   1.470 -0.1818  0.3522 -0.3155
 4450SOL    HW114249   2.686   3.780   1.500  0.7578  0.4556  0.0507
 4450SOL    HW214250   2.780   3.905   1.451  0.0612  2.1923  2.9062
 4451SOL     OW14251   4.618   0.235   3.755  0.0209 -0.8786 -0.5698
 4451SOL    HW114252   4.679   0.243   3.676  0.5103  0.7326 -0.0684
 4451SOL    HW214253   4.665   0.186   3.829  0.7275  0.2998 -0.2092
 4452SOL     OW14254   6.586   1.923   6.594  0.3131 -0.3432  0.2472
 4452SOL    HW114255   6.674   1.945   6.553 -0.3499  1.6962 -0.1982
 4452SOL    HW214256   6.529   2.005   6.598 -1.3908 -1.4879  0.9948
 4453SOL     OW14257   0.756   3.494   1.395 -0.3437  0.3250 -0.6745
 4453SOL    HW114258   0.722   3.517   1.487 -1.1215  0.6090 -1.0248
 4453SOL    HW214259   0.680   3.460   1.339  0.4400 -1.4388 -0.7170
 4454SOL     OW14260   4.624   2.076   5.297 -0.0088 -0.3441  0.0525
 4454SOL    HW114261   4.680   2.101   5.376  0.3207 -1.6651  0.2600
 4454SOL    HW214262   4.539   2.129   5.298  0.2302  0.0476  0.9863
 4455SOL     OW14263   3.773   4.960   3.374 -0.1816  0.2424 -0.3755
 4455SOL    HW114264   3.801   5.001   3.460 -0.4794 -0.7719  0.2306
 4455SOL    HW214265   3.679   4.987   3.353 -0.0921  0.5284 -0.3999
 4456SOL     OW14266   4.783   6.399   0.292  0.2415 -0.0373  0.2132
 4456SOL    HW114267   4.831   6.487   0.298  2.5492 -1.3229  2.1096
 4456SOL    HW214268   4.849   6.327   0.271 -1.4027 -1.5329 -0.0418
 4457SOL     OW14269   3.624   0.911   1.359 -0.5259  0.3442 -0.4072
 4457SOL    HW114270   3.705   0.902   1.418 -2.1158 -0.2260  1.8212
 4457SOL    HW214271   3.547   0.862   1.401 -1.5614 -0.8299 -3.4423
 4458SOL     OW14272   6.619   1.080   0.717 -0.4155 -0.1852  0.0588
 4458SOL    HW114273   6.649   1.069   0.812  0.9308  3.4603  0.2308
 4458SOL    HW214274   6.520   1.090   0.714 -0.4049  0.4928  1.2559
 4459SOL     OW14275   6.990   1.488   1.786  0.4494  0.2560 -0.2421
 4459SOL    HW114276   7.018   1.583   1.770  0.1331  0.4890  0.5351
 4459SOL    HW214277   6.984   1.440   1.699  2.4952  0.3983 -0.5258
 4460SOL     OW14278   6.318   6.287   0.667 -0.3848 -0.2412  0.1780
 4460SOL    HW114279   6.416   6.286   0.650 -0.4827  2.0763 -0.8743
 4460SOL    HW214280   6.285   6.193   0.682  2.0868 -0.9911  1.4217
 4461SOL     OW14281   4.728   1.466   5.232  0.0100  0.5689  0.2841
 4461SOL    HW114282   4.732   1.370   5.206  0.3737  1.0609 -1.6467
 4461SOL    HW214283   4.792   1.483   5.308  1.4986 -0.3407 -0.7099
 4462SOL     OW14284   3.263   2.153   1.564  0.2034  0.6007 -0.4541
 4462SOL    HW114285   3.167   2.170   1.587  0.2204  2.4169 -1.5483
 4462SOL    HW214286   3.321   2.219   1.613  1.0056 -0.9605  0.7912
 4463SOL     OW14287   4.738   3.681   6.094 -0.3612 -0.2691  0.0706
 4463SOL    HW114288   4.734   3.753   6.024  1.4552 -0.5920 -0.4181
 4463SOL    HW214289   4.833   3.657   6.111 -0.7865 -0.5570  2.3327
 4464SOL     OW14290   6.284   1.473   1.903 -0.3780 -0.1232  0.3344
 4464SOL    HW114291   6.215   1.412   1.941 -1.9744  0.6282 -1.1988
 4464SOL    HW214292   6.320   1.434   1.818 -1.5184  1.0527 -0.7377
 4465SOL     OW14293   4.062   2.117   4.520 -0.8441 -0.3351  0.2763
 4465SOL    HW114294   4.063   2.186   4.448  1.3442  1.6193  2.0229
 4465SOL    HW214295   4.155   2.094   4.546 -1.5592 -2.0232  1.5851
 4466SOL     OW14296   6.918   3.949   4.017  0.3057  0.2901  0.5800
 4466SOL    HW114297   6.939   3.851   4.012  4.0827  1.0067 -0.2788
 4466SOL    HW214298   6.888   3.972   4.110 -0.5026 -1.6195  0.8345
 4467SOL     OW14299   1.777   1.497   2.033 -0.4465 -0.1581 -0.0592
 4467SOL    HW114300   1.720   1.513   2.114 -0.8832  1.4752 -0.6539
 4467SOL    HW214301   1.801   1.400   2.028 -2.0312 -0.6373  0.9477
 4468SOL     OW14302   4.765   4.864   1.473 -0.1264 -0.0703  0.0205
 4468SOL    HW114303   4.749   4.778   1.520  0.5793 -0.5437 -0.5953
 4468SOL    HW214304   4.840   4.913   1.516  1.3963 -1.1045 -1.3582
 4469SOL     OW14305   3.007   5.202   2.050 -0.1893  0.3616 -0.5687
 4469SOL    HW114306   3.084   5.139   2.059 -0.5559  0.0497  0.5697
 4469SOL    HW214307   3.038   5.295   2.066  0.1970  0.3930 -1.4411
 4470SOL     OW14308   4.837   4.086   5.362  0.3582 -0.1410  0.4769
 4470SOL    HW114309   4.853   4.176   5.322  0.8878 -0.9761 -1.3007
 4470SOL    HW214310   4.822   4.095   5.460 -0.4606  1.9519  0.2031
 4471SOL     OW14311   1.155   2.509   2.194 -0.5817  0.0481 -0.1444
 4471SOL    HW114312   1.193   2.563   2.119 -2.0520  2.0080  0.4207
 4471SOL    HW214313   1.218   2.510   2.271  0.0604 -0.3001 -0.6615
 4472SOL     OW14314   0.356   5.158   4.860 -0.2566  0.4892 -0.9661
 4472SOL    HW114315   0.338   5.250   4.824 -1.7193  0.6384  0.0515
 4472SOL    HW214316   0.397   5.166   4.951 -0.0953  0.1299 -1.0056
 4473SOL     OW14317   5.914   0.129   3.116 -0.1853 -0.0951 -0.0114
 4473SOL    HW114318   5.937   0.225   3.101 -0.5216 -0.1616 -1.0766
 4473SOL    HW214319   5.990   0.083   3.162  1.5885 -0.1564 -2.7779
 4474SOL     OW14320   2.578   5.468   0.516 -0.0841 -0.3870 -0.6560
 4474SOL    HW114321   2.606   5.420   0.599 -1.6768 -1.2808 -0.5983
 4474SOL    HW214322   2.659   5.502   0.468  0.8582  0.8666  1.6477
 4475SOL     OW14323   6.448   3.675   4.134 -0.4782  0.2883 -1.0190
 4475SOL    HW114324   6.414   3.766   4.115 -2.3165 -0.1135  0.1425
 4475SOL    HW214325   6.371   3.611   4.144  0.5633 -0.7223  1.4647
 4476SOL     OW14326   5.556   6.074   5.597 -0.6240 -0.4077  0.0192
 4476SOL    HW114327   5.554   6.096   5.500 -0.2525 -0.9581 -0.1127
 4476SOL    HW214328   5.627   6.006   5.615 -2.4992 -2.3831  0.2421
 4477SOL     OW14329   6.869   0.562   2.893 -0.3524  0.4855  0.0198
 4477SOL    HW114330   6.813   0.506   2.955 -0.7203 -0.2774 -0.9810
 4477SOL    HW214331   6.959   0.575   2.934  0.2929 -2.1631 -0.3635
 4478SOL     OW14332   1.093   3.888   1.173 -0.0368 -0.8156 -0.0395
 4478SOL    HW114333   1.159   3.964   1.173  0.3810 -1.1704  0.0071
 4478SOL    HW214334   1.000   3.924   1.172  0.1550 -0.3022  0.3932
 4479SOL     OW14335   6.328   5.448   5.146 -0.0585  0.5149 -0.3536
 4479SOL    HW114336   6.330   5.502   5.062 -0.7038 -0.6126 -1.1286
 4479SOL    HW214337   6.416   5.401   5.157  0.5954  1.8510  0.4523
 4480SOL     OW14338   4.160   0.285   5.835 -0.3522  0.0163 -0.3159
 4480SOL    HW114339   4.178   0.245   5.745  0.6815 -0.6058  0.1459
 4480SOL    HW214340   4.072   0.331   5.834 -0.5649 -0.3803 -1.5118
 4481SOL     OW14341   5.569   5.572   0.320  0.0227  0.2873 -0.2489
 4481SOL    HW114342   5.581   5.670   0.337 -1.0637  0.7785 -2.0265
 4481SOL    HW214343   5.534   5.528   0.402 -1.2378  1.7507  0.0560
 4482SOL     OW14344   4.333   3.448   0.185 -0.9728  1.1896 -0.0772
 4482SOL    HW114345   4.370   3.378   0.124  1.7977  1.7154  0.8536
 4482SOL    HW214346   4.343   3.538   0.142 -0.0682  1.4490  0.6588
 4483SOL     OW14347   2.831   2.289   4.454  0.5213  0.1932  0.1323
 4483SOL    HW114348   2.849   2.191   4.446  1.7774  0.5335 -2.0455
 4483SOL    HW214349   2.869   2.322   4.540  3.1704 -0.6679 -0.5985
 4484SOL     OW14350   1.944   1.291   2.783 -0.5055 -0.1447  0.4430
 4484SOL    HW114351   1.933   1.335   2.694  1.8092  1.5099  0.8654
 4484SOL    HW214352   2.018   1.224   2.778  0.3510  0.6983  1.3205
 4485SOL     OW14353   5.052   4.288   1.091  0.4887  0.1071 -0.8239
 4485SOL    HW114354   5.010   4.198   1.084 -0.8210  0.4117  1.8539
 4485SOL    HW214355   4.991   4.357   1.050  0.2207  0.0927 -0.4481
 4486SOL     OW14356   5.089   2.931   6.100 -0.7735  0.3305  0.1637
 4486SOL    HW114357   5.027   2.993   6.053 -0.1469 -0.1964 -1.4349
 4486SOL    HW214358   5.038   2.875   6.165 -1.3820  2.3065  1.4864
 4487SOL     OW14359   4.731   1.641   1.391  0.1634  0.3904 -0.1283
 4487SOL    HW114360   4.790   1.638   1.310  0.2147 -1.7685 -0.0855
 4487SOL    HW214361   4.762   1.572   1.456 -1.3383  0.4426  0.6719
 4488SOL     OW14362   5.311   4.359   5.979 -0.3482 -0.0738  0.0756
 4488SOL    HW114363   5.289   4.287   6.045 -0.1024 -0.2455 -0.0311
 4488SOL    HW214364   5.226   4.399   5.944 -0.5240 -1.2175 -0.8609
 4489SOL     OW14365   4.900   2.844   0.909  0.4795 -0.7646 -0.0995
 4489SOL    HW114366   4.996   2.863   0.931  0.3242 -1.0765  0.8863
 4489SOL    HW214367   4.845   2.850   0.992 -0.0428 -2.5880 -0.2814
 4490SOL     OW14368   1.799   3.718   3.144  0.2071  0.4536 -0.0514
 4490SOL    HW114369   1.851   3.744   3.226 -2.5992 -1.4467  2.5537
 4490SOL    HW214370   1.783   3.619   3.145 -0.3453  0.4425 -2.7146
 4491SOL     OW14371   1.966   3.669   3.564 -0.3510 -0.5859  0.4550
 4491SOL    HW114372   1.920   3.741   3.512 -0.8943  0.1809  1.9349
 4491SOL    HW214373   2.036   3.709   3.623 -0.0329 -1.3832  0.6375
 4492SOL     OW14374   3.368   6.780   3.004 -0.2199  0.5071  0.2331
 4492SOL    HW114375   3.411   6.823   2.925  1.0988  2.0830  1.7298
 4492SOL    HW214376   3.418   6.696   3.027  1.0623  1.4318  0.9353
 4493SOL     OW14377   3.657   1.643   0.688  0.6833 -0.3594  0.2692
 4493SOL    HW114378   3.560   1.663   0.702  0.5991 -1.1096  0.7678
 4493SOL    HW214379   3.678   1.648   0.590  0.1689 -0.0864  0.1690
 4494SOL     OW14380   0.444   5.043   3.179 -0.2513  0.2323  0.1869
 4494SOL    HW114381   0.539   5.051   3.208 -0.2192  0.4793  0.0200
 4494SOL    HW214382   0.384   5.057   3.258 -0.1389 -0.7454  0.4557
 4495SOL     OW14383   6.764   1.896   2.312 -0.3712  0.1331  0.4926
 4495SOL    HW114384   6.794   1.953   2.237  0.7357 -0.8713  0.1532
 4495SOL    HW214385   6.726   1.811   2.276  0.4820 -0.5022  1.0628
 4496SOL     OW14386   1.190   5.277   7.002 -0.1381 -0.0809 -0.1773
 4496SOL    HW114387   1.278   5.295   7.045 -0.0653 -1.0017  0.0864
 4496SOL    HW214388   1.204   5.245   6.908 -0.2066  0.0619 -0.2369
 4497SOL     OW14389   0.453   0.404   2.755 -0.4505 -0.2635  0.2293
 4497SOL    HW114390   0.521   0.406   2.828 -1.3349 -0.8199  1.0798
 4497SOL    HW214391   0.392   0.483   2.765  0.8730  1.0589 -1.3667
 4498SOL     OW14392   1.287   6.983   3.517  0.2148  0.4529  0.2132
 4498SOL    HW114393   1.272   6.925   3.437  1.2883  1.0171 -0.4233
 4498SOL    HW214394   1.358   7.050   3.496  0.8744  0.2855  1.8168
 4499SOL     OW14395   6.430   5.289   2.565  0.6069  0.0733  0.1152
 4499SOL    HW114396   6.466   5.374   2.525  1.9527 -0.2276  0.6324
 4499SOL    HW214397   6.444   5.214   2.500  1.6699 -0.1862  0.6151
 4500SOL     OW14398   3.135   4.018   3.968 -0.1317  0.4726  0.7991
 4500SOL    HW114399   3.159   4.073   3.889  1.6452 -2.2485 -0.7424
 4500SOL    HW214400   3.071   3.946   3.940  2.6968 -2.3170  0.9531
 4501SOL     OW14401   4.037   0.654   2.272 -0.1020 -0.1109 -0.1647
 4501SOL    HW114402   3.999   0.652   2.180 -0.9047  0.0351  0.1497
 4501SOL    HW214403   4.124   0.703   2.272  0.2901 -0.7798 -0.9725
 4502SOL     OW14404   4.350   0.193   5.459  0.2782  0.2966 -0.4448
 4502SOL    HW114405   4.278   0.261   5.446  0.1413  0.1267 -0.5715
 4502SOL    HW214406   4.431   0.238   5.498  0.0015  0.4302 -0.0107
 4503SOL     OW14407   6.954   2.945   2.555 -0.1260 -0.1400  0.4450
 4503SOL    HW114408   6.919   2.866   2.504 -1.9446  1.8174 -1.5118
 4503SOL    HW214409   6.981   3.017   2.491  3.0229  0.3335  2.1052
 4504SOL     OW14410   2.385   1.355   1.616  0.3502  0.4031 -0.4947
 4504SOL    HW114411   2.466   1.305   1.586  0.6341  1.0565 -0.8347
 4504SOL    HW214412   2.383   1.444   1.571 -0.6883  0.2955 -0.6696
 4505SOL     OW14413   5.431   5.094   6.692  0.6017 -0.5004  0.2890
 4505SOL    HW114414   5.332   5.087   6.676  0.5999  0.4807 -0.1980
 4505SOL    HW214415   5.452   5.185   6.726  1.5987  0.0555 -1.6760
 4506SOL     OW14416   0.718   4.373   3.983  0.3449  0.2999  0.2829
 4506SOL    HW114417   0.780   4.295   3.974 -0.2318 -0.3532  1.7608
 4506SOL    HW214418   0.647   4.367   3.912  0.4284 -0.4141  0.2532
 4507SOL     OW14419   3.933   5.036   2.112  0.4222  0.1103 -0.2499
 4507SOL    HW114420   3.977   5.122   2.139 -0.7517  1.7539 -3.0658
 4507SOL    HW214421   3.866   5.009   2.181  0.5169  1.7241  0.5240
 4508SOL     OW14422   6.548   5.517   3.208  0.2728  0.0904 -0.5979
 4508SOL    HW114423   6.537   5.528   3.306  1.8801 -0.3978 -0.3295
 4508SOL    HW214424   6.459   5.516   3.164 -0.4360  1.3475  0.7255
 4509SOL     OW14425   0.868   5.652   0.700  0.0832  0.2018 -0.5621
 4509SOL    HW114426   0.952   5.680   0.748 -1.3287  0.3127  2.0589
 4509SOL    HW214427   0.864   5.553   0.695  0.0023  0.1656  0.0953
 4510SOL     OW14428   4.902   6.440   3.598  0.2272 -0.1462  0.3188
 4510SOL    HW114429   4.826   6.504   3.588 -1.4405 -2.0487  0.0340
 4510SOL    HW214430   4.976   6.465   3.536  0.7371  2.8888  1.9838
 4511SOL     OW14431   0.856   2.679   2.214 -0.0084 -0.0776  0.3121
 4511SOL    HW114432   0.897   2.699   2.125 -2.0959  1.4791 -0.3806
 4511SOL    HW214433   0.815   2.587   2.212 -1.7588  0.6715 -1.0801
 4512SOL     OW14434   6.072   5.192   6.554  0.2878 -0.2089  0.5830
 4512SOL    HW114435   5.977   5.210   6.527  0.4793 -0.0156  0.0212
 4512SOL    HW214436   6.077   5.103   6.598  0.3099 -1.6188 -2.0770
 4513SOL     OW14437   4.802   2.635   1.303  0.3910  0.3118  0.2607
 4513SOL    HW114438   4.722   2.584   1.270  0.2465  0.2895  0.6499
 4513SOL    HW214439   4.782   2.733   1.303  0.4239  0.3189  0.1971
 4514SOL     OW14440   0.503   4.428   4.357 -0.0042  0.3800  0.5522
 4514SOL    HW114441   0.434   4.473   4.413 -1.7917  0.5343 -1.6061
 4514SOL    HW214442   0.490   4.329   4.362  0.0416  0.3794  0.6634
 4515SOL     OW14443   0.517   6.817   4.719 -0.2812  0.5216  0.1338
 4515SOL    HW114444   0.490   6.826   4.623 -1.1901 -1.2267  0.1862
 4515SOL    HW214445   0.617   6.825   4.726 -0.1849  0.4881 -0.9801
 4516SOL     OW14446   2.739   3.654   0.503 -0.4780  0.4422 -0.2453
 4516SOL    HW114447   2.755   3.566   0.458 -1.5432  0.3579 -0.4871
 4516SOL    HW214448   2.827   3.701   0.518  0.2666 -1.2638  1.1523
 4517SOL     OW14449   1.646   1.497   2.827  0.1292  0.1673 -0.7477
 4517SOL    HW114450   1.603   1.576   2.784  0.2179  0.3519 -0.4990
 4517SOL    HW214451   1.720   1.464   2.769 -0.1618  0.0208 -1.0413
 4518SOL     OW14452   5.008   2.118   2.178  0.2654  0.5776 -0.3254
 4518SOL    HW114453   5.105   2.141   2.190  0.3720 -0.3338  0.6117
 4518SOL    HW214454   4.982   2.045   2.241 -0.2482 -1.4271 -2.7023
 4519SOL     OW14455   6.108   0.739   5.593  0.1520  0.0523  0.1101
 4519SOL    HW114456   6.085   0.645   5.618  2.0677 -0.7280 -0.9265
 4519SOL    HW214457   6.026   0.796   5.602 -0.7736 -1.4333  1.9038
 4520SOL     OW14458   1.417   2.201   2.803  0.0503 -0.3618  0.5211
 4520SOL    HW114459   1.398   2.139   2.879 -0.8388 -0.5723  0.1452
 4520SOL    HW214460   1.495   2.259   2.826  0.7298 -1.4332  0.9816
 4521SOL     OW14461   3.296   5.911   3.924  0.0623 -0.4761 -0.5145
 4521SOL    HW114462   3.210   5.905   3.874 -0.6292 -0.8729  0.6758
 4521SOL    HW214463   3.316   5.824   3.968  0.4099 -0.0202  0.2604
 4522SOL     OW14464   6.986   1.940   3.412  0.0629  0.7604  0.3952
 4522SOL    HW114465   6.900   1.913   3.369  0.7405  1.3580 -1.4193
 4522SOL    HW214466   7.010   1.873   3.482 -1.1544 -0.1791 -0.0393
 4523SOL     OW14467   6.784   0.090   0.221  0.1225  0.0483  0.1738
 4523SOL    HW114468   6.851   0.030   0.177 -0.1715  0.0129 -0.2339
 4523SOL    HW214469   6.745   0.043   0.301 -1.6596 -1.2116 -1.3436
 4524SOL     OW14470   3.253   1.342   6.949 -0.5545 -0.2224  0.2519
 4524SOL    HW114471   3.344   1.304   6.963 -0.2767  0.9145  1.7924
 4524SOL    HW214472   3.208   1.355   7.038 -2.4527 -1.2588 -0.4844
 4525SOL     OW14473   2.683   6.392   0.298 -0.8208  0.0274 -0.1551
 4525SOL    HW114474   2.698   6.491   0.290  0.1210 -0.1495 -0.7106
 4525SOL    HW214475   2.717   6.347   0.215  1.0560 -1.0114  1.1129
 4526SOL     OW14476   1.937   2.931   5.300 -0.0657  0.1962  0.1117
 4526SOL    HW114477   2.002   2.949   5.226  0.5623 -2.0784  0.0298
 4526SOL    HW214478   1.869   2.864   5.269 -1.4963  1.2927  0.7440
 4527SOL     OW14479   1.141   5.952   4.263 -0.4028 -0.5950 -0.2114
 4527SOL    HW114480   1.167   5.899   4.344  1.4235  0.4973 -0.0192
 4527SOL    HW214481   1.093   5.893   4.198  2.2193 -2.7095 -0.3648
 4528SOL     OW14482   1.541   5.783   2.888 -0.4426 -0.5136 -0.7352
 4528SOL    HW114483   1.489   5.829   2.960  0.1982  1.4059 -1.4291
 4528SOL    HW214484   1.638   5.788   2.910 -0.3619 -1.6111 -0.8125
 4529SOL     OW14485   0.170   6.100   5.867  0.5267 -0.0799 -0.3423
 4529SOL    HW114486   0.072   6.085   5.872  0.1824  1.8006 -0.5022
 4529SOL    HW214487   0.194   6.136   5.776  1.4661 -1.0723 -0.5135
 4530SOL     OW14488   6.158   3.354   5.143 -0.5441 -0.1022  0.0808
 4530SOL    HW114489   6.257   3.348   5.161 -0.8361 -1.6298  1.4194
 4530SOL    HW214490   6.116   3.264   5.156 -2.1343  0.5309 -0.4346
 4531SOL     OW14491   2.215   0.794   4.156  0.2751  0.3985 -0.1488
 4531SOL    HW114492   2.278   0.720   4.135  1.2919  1.3396 -0.4967
 4531SOL    HW214493   2.182   0.836   4.071 -0.6336  0.0887  0.0336
 4532SOL     OW14494   2.680   6.627   1.372  0.0834  0.0450  0.7837
 4532SOL    HW114495   2.594   6.654   1.328  0.2095  0.7404  0.9635
 4532SOL    HW214496   2.662   6.555   1.439 -0.0693 -1.2988 -0.6399
 4533SOL     OW14497   3.126   1.517   1.431 -0.1351  0.0363  0.6084
 4533SOL    HW114498   3.200   1.572   1.469 -0.8440  1.5788 -0.1500
 4533SOL    HW214499   3.143   1.498   1.334  0.0898 -1.0895  0.8539
 4534SOL     OW14500   2.612   0.208   3.577 -0.0098  0.3292 -0.0753
 4534SOL    HW114501   2.710   0.195   3.560  0.0247 -0.4817  0.6550
 4534SOL    HW214502   2.567   0.119   3.581 -0.7374  0.6897 -0.1641
 4535SOL     OW14503   6.494   5.541   0.628  0.2744 -0.6309  0.3304
 4535SOL    HW114504   6.467   5.446   0.612  0.4327 -1.2085  3.0438
 4535SOL    HW214505   6.424   5.588   0.682 -0.0792  1.0441 -1.4473
 4536SOL     OW14506   0.753   4.297   5.884  0.5072 -0.0999 -0.0114
 4536SOL    HW114507   0.787   4.203   5.892  2.2804  0.5481  0.5413
 4536SOL    HW214508   0.799   4.343   5.808 -0.2374  0.3805 -0.1847
 4537SOL     OW14509   5.810   6.394   6.435 -0.1952  0.6177 -0.0778
 4537SOL    HW114510   5.760   6.308   6.445  1.5525 -0.3062  1.2389
 4537SOL    HW214511   5.746   6.468   6.415 -1.8441 -0.8179 -0.2998
 4538SOL     OW14512   4.757   0.946   6.442 -0.6946 -0.1343 -0.1411
 4538SOL    HW114513   4.703   0.954   6.526 -0.3751  0.3535  0.0215
 4538SOL    HW214514   4.762   1.035   6.398 -0.1813 -0.2217 -0.2564
 4539SOL     OW14515   6.766   6.498   3.469 -0.0555 -0.7045 -0.3502
 4539SOL    HW114516   6.682   6.476   3.519 -0.7360  0.6752 -0.8073
 4539SOL    HW214517   6.747   6.498   3.370  0.4801 -0.4116 -0.4579
 4540SOL     OW14518   1.743   6.810   4.948 -0.3256 -0.3340 -0.4705
 4540SOL    HW114519   1.648   6.802   4.978 -0.6173  0.4725 -1.1248
 4540SOL    HW214520   1.784   6.891   4.989  0.0297 -0.5914 -0.3153
 4541SOL     OW14521   1.821   5.765   2.932 -0.5607 -0.1762  0.3843
 4541SOL    HW114522   1.837   5.853   2.976 -1.4963  0.3222 -0.2389
 4541SOL    HW214523   1.906   5.731   2.893 -0.2450  0.5875  0.3901
 4542SOL     OW14524   0.214   3.461   2.081 -0.3823  0.8113  0.2464
 4542SOL    HW114525   0.203   3.471   1.982 -0.4034  2.0222  0.3495
 4542SOL    HW214526   0.128   3.432   2.122 -1.0162  2.4644  0.1429
 4543SOL     OW14527   1.092   2.310   4.011  0.1775  0.5538  0.1932
 4543SOL    HW114528   1.179   2.326   3.965  0.2929 -0.7603 -0.0914
 4543SOL    HW214529   1.082   2.212   4.030 -1.7787  0.4929 -0.8993
 4544SOL     OW14530   5.672   6.609   6.321  0.2986 -0.2466 -0.7102
 4544SOL    HW114531   5.652   6.666   6.401  0.7971 -0.4958 -0.4092
 4544SOL    HW214532   5.617   6.641   6.243  0.7167  0.7791 -0.5964
 4545SOL     OW14533   4.019   0.081   6.561 -0.2174 -0.4979  0.4866
 4545SOL    HW114534   3.961   0.031   6.625 -1.6312 -0.8074 -0.9643
 4545SOL    HW214535   4.114   0.052   6.571 -0.7756 -2.3537  0.7411
 4546SOL     OW14536   2.544   6.932   3.817 -0.8453 -0.0160  0.8295
 4546SOL    HW114537   2.535   6.945   3.718  1.4374  1.2358  0.7130
 4546SOL    HW214538   2.464   6.970   3.863 -0.7384  1.8719 -0.4059
 4547SOL     OW14539   1.092   4.062   4.850 -0.1229  0.2029 -0.6418
 4547SOL    HW114540   1.027   4.139   4.855  0.2733  0.4965  0.0984
 4547SOL    HW214541   1.047   3.979   4.881  0.0825  0.5706  0.7192
 4548SOL     OW14542   0.292   2.641   2.886 -0.2341  0.4163  0.3066
 4548SOL    HW114543   0.349   2.689   2.819  2.9226 -0.2693  2.2521
 4548SOL    HW214544   0.326   2.548   2.896 -1.1462  0.2600  2.2343
 4549SOL     OW14545   4.362   0.962   6.080  0.3104 -0.3843  0.1505
 4549SOL    HW114546   4.398   0.999   5.994  0.3891 -0.5777  0.1001
 4549SOL    HW214547   4.409   1.005   6.157 -2.1796  2.4728  0.2445
 4550SOL     OW14548   1.320   5.985   0.930  0.0961  0.1208 -0.5903
 4550SOL    HW114549   1.362   6.069   0.963  0.5391  0.0546 -0.9669
 4550SOL    HW214550   1.306   5.992   0.831 -0.4753  0.0093 -0.5210
 4551SOL     OW14551   1.683   4.661   4.016 -0.0184  0.3684  0.0808
 4551SOL    HW114552   1.644   4.674   3.925 -1.8099 -1.0269  0.5842
 4551SOL    HW214553   1.676   4.747   4.067 -1.7995  0.3789 -0.1159
 4552SOL     OW14554   2.968   6.262   3.140  0.8433 -0.1202 -0.4953
 4552SOL    HW114555   2.936   6.276   3.046  0.6917  0.3886 -0.3714
 4552SOL    HW214556   3.057   6.306   3.151  1.4223 -1.2018 -0.7309
 4553SOL     OW14557   0.506   6.581   6.839 -0.3377  0.2402  0.0003
 4553SOL    HW114558   0.422   6.580   6.892  0.6947  2.8767  1.9090
 4553SOL    HW214559   0.566   6.507   6.870  0.3145  1.8179  2.8420
 4554SOL     OW14560   0.943   3.104   3.506 -0.4070 -0.0096 -0.5816
 4554SOL    HW114561   0.886   3.025   3.483 -0.9233 -0.1608  1.1008
 4554SOL    HW214562   1.036   3.073   3.526 -0.2177  0.0054 -1.4008
 4555SOL     OW14563   3.952   4.971   1.745 -0.1946  0.1660 -0.2812
 4555SOL    HW114564   3.994   5.025   1.817  1.5046 -0.4264 -0.7524
 4555SOL    HW214565   3.870   5.016   1.711 -0.0753  1.2743  0.8632
 4556SOL     OW14566   5.525   1.261   1.599  0.2798 -0.5275 -0.1317
 4556SOL    HW114567   5.597   1.269   1.530 -1.0471  2.3773 -1.3349
 4556SOL    HW214568   5.479   1.173   1.588  0.6367 -0.4919 -2.4694
 4557SOL     OW14569   3.180   3.987   6.072  0.1042  0.1242  0.0418
 4557SOL    HW114570   3.176   4.083   6.044 -0.1528  0.2039  0.3427
 4557SOL    HW214571   3.199   3.930   5.992  2.7782  0.6216  0.2270
 4558SOL     OW14572   5.984   6.275   3.348  0.3140 -0.0572  0.1674
 4558SOL    HW114573   5.933   6.245   3.429  2.1205 -0.7325  1.1086
 4558SOL    HW214574   5.939   6.240   3.266 -2.4974  1.9816  0.6728
 4559SOL     OW14575   6.881   4.397   2.120  0.0711  0.1356  0.3938
 4559SOL    HW114576   6.912   4.491   2.106  1.5293 -0.6541 -2.5091
 4559SOL    HW214577   6.803   4.378   2.062  0.5507 -0.7747  0.0261
 4560SOL     OW14578   6.291   4.247   4.165 -0.2421  0.1744  0.2875
 4560SOL    HW114579   6.196   4.228   4.138 -0.2535 -2.0481  1.6690
 4560SOL    HW214580   6.308   4.210   4.256  1.2578  2.8538  1.2174
 4561SOL     OW14581   1.526   6.886   4.460  0.7890  0.5653  0.8016
 4561SOL    HW114582   1.593   6.885   4.534  0.2960  1.7622  1.2752
 4561SOL    HW214583   1.470   6.968   4.466  0.4325  0.4540 -0.6304
 4562SOL     OW14584   5.467   0.066   6.637  0.0801 -0.2052 -0.0749
 4562SOL    HW114585   5.510   0.050   6.549  0.3048  0.6401 -0.1248
 4562SOL    HW214586   5.382   0.014   6.642 -0.2467  0.2154 -1.0337
 4563SOL     OW14587   2.941   4.919   2.440 -0.2436 -0.5094 -0.7528
 4563SOL    HW114588   2.948   4.873   2.351  0.0601 -3.1223  0.5270
 4563SOL    HW214589   3.029   4.914   2.487 -0.5790  0.2363 -0.0241
 4564SOL     OW14590   4.441   6.984   5.189  0.3574  0.7222  0.2686
 4564SOL    HW114591   4.487   7.065   5.154  0.6966  0.9908  1.3010
 4564SOL    HW214592   4.481   6.958   5.277  0.4724 -0.7588 -0.1932
 4565SOL     OW14593   7.005   6.935   0.088  0.2259  0.0986  1.1587
 4565SOL    HW114594   7.096   6.977   0.085  0.7715 -1.0688  0.3808
 4565SOL    HW214595   6.984   6.895  -0.001 -0.8577 -0.0557  1.4734
 4566SOL     OW14596   7.013   3.767   0.107  0.2248  0.1917 -0.3301
 4566SOL    HW114597   6.956   3.849   0.104 -1.0118 -0.4427  2.3567
 4566SOL    HW214598   7.009   3.720   0.018 -0.0031  2.3381 -1.5275
 4567SOL     OW14599   6.100   2.480   4.499 -0.4249 -0.1457 -1.3400
 4567SOL    HW114600   6.132   2.506   4.590 -0.4005 -0.5576 -1.2319
 4567SOL    HW214601   6.002   2.499   4.491 -0.5147 -0.4949 -1.0870
 4568SOL     OW14602   5.142   6.657   1.704 -0.3822  0.3102  0.2341
 4568SOL    HW114603   5.108   6.695   1.790 -0.2603  0.0882  0.3817
 4568SOL    HW214604   5.088   6.577   1.679  0.3319 -0.3381  0.7254
 4569SOL     OW14605   2.310   6.718   2.621  0.5114 -0.6596 -0.3003
 4569SOL    HW114606   2.287   6.743   2.714  1.2721  0.8025 -0.4696
 4569SOL    HW214607   2.260   6.636   2.594 -0.8030 -0.2746  0.8963
 4570SOL     OW14608   1.767   3.267   0.853 -0.2248  0.1892  0.1970
 4570SOL    HW114609   1.773   3.365   0.873 -1.3539  0.1112  1.0447
 4570SOL    HW214610   1.823   3.246   0.773  0.6527  1.3843  0.4616
 4571SOL     OW14611   4.658   4.847   5.707 -0.6089 -0.5061 -0.6978
 4571SOL    HW114612   4.563   4.868   5.684 -0.3036 -0.0500 -1.5915
 4571SOL    HW214613   4.662   4.758   5.752 -1.4116 -0.7350 -1.0541
 4572SOL     OW14614   2.131   1.062   3.462  0.0083  0.2358  0.0547
 4572SOL    HW114615   2.192   1.006   3.406 -2.1184 -3.0557  0.7500
 4572SOL    HW214616   2.051   1.088   3.407 -0.3817  0.1069  0.5620
 4573SOL     OW14617   5.956   4.989   0.406 -0.9059 -0.6071  0.3055
 4573SOL    HW114618   5.887   4.923   0.377 -2.0165  0.7533 -0.2847
 4573SOL    HW214619   5.996   4.960   0.494 -1.5681 -1.8825  0.2039
 4574SOL     OW14620   2.853   2.177   0.240 -0.1149  0.1747  0.0814
 4574SOL    HW114621   2.918   2.124   0.185 -2.3850 -1.5032 -1.1624
 4574SOL    HW214622   2.836   2.129   0.327  1.2043  1.2619  0.9640
 4575SOL     OW14623   1.194   2.144   6.365 -0.2383  0.0398 -0.4251
 4575SOL    HW114624   1.140   2.210   6.313 -0.7976 -1.5982 -2.0369
 4575SOL    HW214625   1.253   2.093   6.302 -0.0714 -1.2104  0.7087
 4576SOL     OW14626   6.679   4.122   0.253 -0.1566  0.3656  0.1518
 4576SOL    HW114627   6.662   4.071   0.337 -0.0806 -0.3261 -0.2446
 4576SOL    HW214628   6.626   4.207   0.254 -2.7393 -1.1179 -0.4970
 4577SOL     OW14629   6.399   5.741   3.832 -0.1682 -0.8403  0.0201
 4577SOL    HW114630   6.487   5.699   3.810  0.1354 -0.0891 -0.2613
 4577SOL    HW214631   6.398   5.836   3.799 -1.0194 -0.7820  0.1764
 4578SOL     OW14632   5.558   2.818   3.837  0.0591 -0.2191 -0.4341
 4578SOL    HW114633   5.491   2.892   3.822 -0.4107 -0.7997 -1.2640
 4578SOL    HW214634   5.575   2.809   3.935 -1.7204 -0.6066 -0.1228
 4579SOL     OW14635   2.995   3.726   4.873  0.2408  0.1278  0.2879
 4579SOL    HW114636   2.998   3.743   4.775 -2.7899 -2.4560 -0.4408
 4579SOL    HW214637   3.068   3.662   4.898  1.3908  1.2439 -0.0924
 4580SOL     OW14638   6.753   2.243   5.744 -0.4668 -0.1221  0.0055
 4580SOL    HW114639   6.720   2.226   5.837  0.5223 -1.6081  0.1072
 4580SOL    HW214640   6.842   2.287   5.748 -0.4265 -0.1813 -0.2484
 4581SOL     OW14641   6.984   4.819   1.203 -0.3524  0.6891 -0.6033
 4581SOL    HW114642   6.886   4.806   1.213 -0.2530 -0.9058 -1.4824
 4581SOL    HW214643   7.001   4.900   1.146 -1.1925  0.1436 -1.6672
 4582SOL     OW14644   5.526   5.604   5.994  0.2879 -0.2324  0.2042
 4582SOL    HW114645   5.495   5.695   6.019 -0.9984 -0.6651  0.2587
 4582SOL    HW214646   5.580   5.609   5.909 -0.9264  0.4167 -0.5474
 4583SOL     OW14647   0.998   3.495   0.160 -0.4179 -0.1779  0.4926
 4583SOL    HW114648   0.917   3.439   0.142  0.7198 -1.2070 -1.8808
 4583SOL    HW214649   1.078   3.436   0.166  0.5684  1.0427 -0.2678
 4584SOL     OW14650   6.078   5.298   0.184  0.0083 -0.0154 -0.4407
 4584SOL    HW114651   6.112   5.348   0.263 -0.1107 -1.0189  0.2672
 4584SOL    HW214652   6.155   5.261   0.132  0.0665 -0.8731  0.2280
 4585SOL     OW14653   2.044   2.026   1.382  0.1424 -0.3490  0.6114
 4585SOL    HW114654   2.132   1.992   1.348 -0.3574  0.0044 -1.1221
 4585SOL    HW214655   1.987   2.055   1.305 -0.8500  1.0243  1.8024
 4586SOL     OW14656   5.315   0.802   3.392  0.2571  0.2284 -0.2460
 4586SOL    HW114657   5.280   0.782   3.484  2.0519  0.0190  0.4321
 4586SOL    HW214658   5.351   0.719   3.351 -0.9135  0.2401 -1.3377
 4587SOL     OW14659   6.643   0.789   2.214  0.4349  0.1760  0.6084
 4587SOL    HW114660   6.692   0.713   2.256  1.5975  0.4046 -0.2838
 4587SOL    HW214661   6.554   0.756   2.181  1.2636 -1.0341 -0.5151
 4588SOL     OW14662   0.162   5.768   6.457  0.3320  0.0759  0.0969
 4588SOL    HW114663   0.178   5.859   6.418 -1.5747  0.0721 -0.7726
 4588SOL    HW214664   0.119   5.709   6.389 -1.8918 -0.3309  1.7399
 4589SOL     OW14665   1.748   0.868   4.566  0.2202 -0.2411  0.2196
 4589SOL    HW114666   1.824   0.831   4.620  0.3006  2.3761  2.0844
 4589SOL    HW214667   1.767   0.856   4.468  1.9499 -1.6100  0.6790
 4590SOL     OW14668   0.313   5.776   3.956  0.0781 -0.0355 -0.4959
 4590SOL    HW114669   0.304   5.677   3.962  1.0605 -0.1380 -0.4633
 4590SOL    HW214670   0.223   5.818   3.958 -0.3688 -0.9450 -0.8791
 4591SOL     OW14671   2.317   2.761   4.499 -0.2806 -0.2674 -0.5317
 4591SOL    HW114672   2.333   2.798   4.407 -0.0529  0.8280 -0.0689
 4591SOL    HW214673   2.226   2.720   4.503 -1.0847  1.4114 -0.7209
 4592SOL     OW14674   5.803   5.336   1.540  0.1062 -0.4917  0.4706
 4592SOL    HW114675   5.836   5.253   1.495 -3.7012 -1.1444 -1.6092
 4592SOL    HW214676   5.847   5.416   1.499  0.2290 -1.3164 -1.0767
 4593SOL     OW14677   0.979   6.740   1.806 -0.2720  0.8859 -0.7839
 4593SOL    HW114678   1.022   6.827   1.831  0.8663  0.0895  0.1446
 4593SOL    HW214679   1.049   6.676   1.774 -1.1747  0.4933 -2.0747
 4594SOL     OW14680   3.208   2.815   1.878 -0.1637 -0.5194  0.2348
 4594SOL    HW114681   3.304   2.841   1.882 -0.2039 -0.4763  0.9988
 4594SOL    HW214682   3.192   2.733   1.934 -0.6316 -0.3156  0.4092
 4595SOL     OW14683   6.993   5.784   6.647  0.4701 -0.1777  0.6496
 4595SOL    HW114684   7.068   5.796   6.581 -1.0782  0.1704 -1.1370
 4595SOL    HW214685   6.947   5.697   6.630 -3.7946  2.3907 -3.0855
 4596SOL     OW14686   4.023   0.240   5.203  0.0712  0.1080  0.3053
 4596SOL    HW114687   4.046   0.143   5.206  3.2154  0.5688 -2.7544
 4596SOL    HW214688   4.058   0.285   5.286  0.7839 -0.9854  0.6175
 4597SOL     OW14689   2.789   2.552   5.306  0.1198 -0.1528 -0.2903
 4597SOL    HW114690   2.856   2.478   5.305  1.8221  1.3456 -0.8348
 4597SOL    HW214691   2.830   2.634   5.347 -0.8876  1.2345 -1.9388
 4598SOL     OW14692   0.352   6.105   2.268 -0.5640 -0.2029 -0.8103
 4598SOL    HW114693   0.359   6.106   2.168  1.7389  0.2231 -0.6807
 4598SOL    HW214694   0.364   6.198   2.303 -0.6916 -0.4551 -0.0789
 4599SOL     OW14695   3.706   2.082   5.979  0.3927  0.1358 -0.4273
 4599SOL    HW114696   3.646   2.024   5.923 -0.1324  0.6857 -0.4454
 4599SOL    HW214697   3.756   2.024   6.044 -0.5169 -0.2906 -0.0798
 4600SOL     OW14698   6.316   0.746   6.431  0.0205 -0.3170  0.3457
 4600SOL    HW114699   6.366   0.831   6.416  0.9802 -0.7338  1.0866
 4600SOL    HW214700   6.324   0.688   6.349  0.6881 -0.3343  0.4137
 4601SOL     OW14701   1.284   1.567   6.918  0.0375  0.5324 -0.5674
 4601SOL    HW114702   1.337   1.492   6.958 -0.9834 -0.1508 -0.4387
 4601SOL    HW214703   1.275   1.640   6.985  0.1380  0.3091 -0.3073
 4602SOL     OW14704   4.336   2.595   1.785 -0.0300 -0.8106 -0.0648
 4602SOL    HW114705   4.379   2.546   1.861  0.4285 -0.9924 -0.4417
 4602SOL    HW214706   4.364   2.554   1.698  0.2049 -0.0056 -0.3763
 4603SOL     OW14707   5.549   4.296   1.306 -0.2496  0.1880  0.6422
 4603SOL    HW114708   5.582   4.390   1.297  0.9878 -0.2251  0.6081
 4603SOL    HW214709   5.452   4.296   1.330 -0.2055  1.4708  0.8682
 4604SOL     OW14710   1.006   2.005   6.521  0.5011  0.3567  0.5840
 4604SOL    HW114711   1.086   2.040   6.472  0.2594  0.4263  0.2346
 4604SOL    HW214712   1.035   1.935   6.586  0.7154 -0.4503 -0.3487
 4605SOL     OW14713   6.661   3.556   3.658 -0.9623 -0.3578  0.2040
 4605SOL    HW114714   6.659   3.502   3.574 -1.4231 -0.9950  0.6160
 4605SOL    HW214715   6.746   3.608   3.662 -0.4166 -1.2037 -0.1044
 4606SOL     OW14716   1.035   3.342   6.638 -0.3392  0.1965  0.6819
 4606SOL    HW114717   1.065   3.254   6.600  0.4683  0.3484  0.9600
 4606SOL    HW214718   0.951   3.328   6.691  0.2177 -0.5600  1.3905
 4607SOL     OW14719   3.247   5.118   3.321  0.3291  0.0149  0.5246
 4607SOL    HW114720   3.292   5.201   3.354  0.4371 -0.1224  0.7307
 4607SOL    HW214721   3.266   5.107   3.224 -0.6917  0.8721  0.2136
 4608SOL     OW14722   3.272   1.514   3.990 -0.3190  0.0493 -0.2612
 4608SOL    HW114723   3.232   1.563   4.068  0.0998  0.2141 -0.1475
 4608SOL    HW214724   3.348   1.458   4.022 -0.7575 -0.6416 -0.3992
 4609SOL     OW14725   2.731   0.183   2.425 -0.0918  0.1293  0.3749
 4609SOL    HW114726   2.782   0.183   2.511  1.1649  1.8548 -0.2935
 4609SOL    HW214727   2.795   0.176   2.348 -1.0500  0.2905 -0.4679
 4610SOL     OW14728   3.349   3.709   5.024  0.3229  0.0726 -0.5776
 4610SOL    HW114729   3.372   3.794   4.978  0.3889 -0.5722 -1.7902
 4610SOL    HW214730   3.385   3.632   4.972 -2.9462 -0.9226 -1.6532
 4611SOL     OW14731   0.996   0.951   2.551  0.3795  0.2478  0.2223
 4611SOL    HW114732   1.046   0.868   2.526 -0.5707 -1.1515  2.6283
 4611SOL    HW214733   0.912   0.956   2.497  1.4320  0.8357 -1.4375
 4612SOL     OW14734   1.928   1.253   2.141 -0.6429 -0.6172 -0.5801
 4612SOL    HW114735   1.860   1.244   2.213 -1.3767 -0.9645 -1.2947
 4612SOL    HW214736   2.015   1.284   2.180 -0.7969 -1.5527  0.5519
 4613SOL     OW14737   5.438   4.705   5.122 -0.4344 -0.1245 -0.1484
 4613SOL    HW114738   5.489   4.626   5.157 -1.1196 -0.7069 -0.4538
 4613SOL    HW214739   5.392   4.750   5.199 -2.5609 -1.8492 -0.2980
 4614SOL     OW14740   6.229   6.820   6.782 -0.6005  0.0280 -0.0102
 4614SOL    HW114741   6.301   6.758   6.811 -0.7079  0.8115  2.1163
 4614SOL    HW214742   6.140   6.787   6.815 -1.3004 -0.9548 -2.6356
 4615SOL     OW14743   4.289   4.626   5.446  0.2808 -0.2018  0.2970
 4615SOL    HW114744   4.197   4.587   5.456  0.8836 -1.2949  2.0520
 4615SOL    HW214745   4.297   4.669   5.356 -1.5549 -1.1036 -0.3606
 4616SOL     OW14746   3.925   2.959   1.336  0.2046 -0.4711  0.1641
 4616SOL    HW114747   4.020   2.981   1.318 -0.3081  1.0920 -0.8619
 4616SOL    HW214748   3.868   2.993   1.260 -1.2408 -0.6491  1.1276
 4617SOL     OW14749   2.830   6.177   6.129  0.0179 -0.5590  0.3127
 4617SOL    HW114750   2.816   6.260   6.076 -1.4702 -0.8537  0.2118
 4617SOL    HW214751   2.866   6.105   6.069  1.4323  0.0199  0.4299
 4618SOL     OW14752   6.381   5.220   3.646 -0.6580  0.7109  0.4692
 4618SOL    HW114753   6.470   5.183   3.673 -0.4970  0.3952 -0.4409
 4618SOL    HW214754   6.316   5.210   3.721 -0.3014 -0.3474  0.6486
 4619SOL     OW14755   6.289   1.575   3.239  0.3911 -0.0500 -0.4342
 4619SOL    HW114756   6.298   1.569   3.338  0.8325  4.0742 -0.0618
 4619SOL    HW214757   6.203   1.621   3.216  0.9479  0.3391 -1.8569
 4620SOL     OW14758   4.265   6.710   2.757 -0.2375  0.9364  0.4221
 4620SOL    HW114759   4.218   6.765   2.688 -2.2018 -1.9482 -0.7101
 4620SOL    HW214760   4.230   6.734   2.848 -1.3476  1.2819 -0.0736
 4621SOL     OW14761   2.092   3.333   5.403 -0.0691 -0.0394  0.1879
 4621SOL    HW114762   2.175   3.282   5.377 -0.2560  0.6785 -1.9688
 4621SOL    HW214763   2.012   3.276   5.388 -0.1394  0.1795 -0.2781
 4622SOL     OW14764   1.511   1.170   2.649  0.6491 -0.1742 -0.5616
 4622SOL    HW114765   1.569   1.196   2.572  1.5486  1.3648  0.5728
 4622SOL    HW214766   1.438   1.238   2.659  0.1399 -0.7314 -0.4553
 4623SOL     OW14767   6.348   1.448   0.216  0.1819 -0.1402 -0.4489
 4623SOL    HW114768   6.314   1.537   0.247 -0.8629 -1.0164  1.0114
 4623SOL    HW214769   6.415   1.462   0.143  0.3444  1.8547  0.0323
 4624SOL     OW14770   5.315   0.349   0.510  0.9109  0.0416 -0.2205
 4624SOL    HW114771   5.379   0.358   0.587 -0.9612 -1.7874  1.6702
 4624SOL    HW214772   5.351   0.281   0.445  1.9150  0.6831 -0.3591
 4625SOL     OW14773   4.869   2.511   3.515 -0.2908  0.6632  0.0488
 4625SOL    HW114774   4.773   2.520   3.490 -0.1413  0.9319 -0.4341
 4625SOL    HW214775   4.911   2.436   3.464  0.1853  1.6440 -1.0590
 4626SOL     OW14776   6.913   2.221   6.188 -0.3276 -0.3112  0.4227
 4626SOL    HW114777   6.933   2.138   6.136  0.3655  1.0754 -1.6764
 4626SOL    HW214778   6.922   2.301   6.128  0.2657  1.4084  2.6425
 4627SOL     OW14779   5.395   6.325   6.495  0.3742 -0.5554 -0.2945
 4627SOL    HW114780   5.450   6.339   6.412  1.0541 -0.7756  0.1081
 4627SOL    HW214781   5.448   6.272   6.561  0.4024  0.8734  0.8741
 4628SOL     OW14782   0.436   5.782   1.992 -0.8157 -0.3348 -0.0614
 4628SOL    HW114783   0.533   5.795   2.014 -0.3390 -3.2235 -0.0481
 4628SOL    HW214784   0.382   5.856   2.032  0.8389 -1.2573  4.4119
 4629SOL     OW14785   6.196   2.347   3.048  0.2803 -0.1158  0.6366
 4629SOL    HW114786   6.239   2.290   3.118 -0.1005 -1.6035 -0.2968
 4629SOL    HW214787   6.124   2.295   3.002 -1.2494  1.6944  0.8814
 4630SOL     OW14788   2.179   0.483   3.157 -0.4938  1.1609  0.5752
 4630SOL    HW114789   2.152   0.395   3.117 -1.7460  1.8209 -0.0863
 4630SOL    HW214790   2.248   0.467   3.228  1.5476 -0.1109 -1.5289
 4631SOL     OW14791   2.291   4.874   6.286 -0.0215 -0.6577 -0.0058
 4631SOL    HW114792   2.238   4.829   6.214 -0.0835 -0.3292 -0.1668
 4631SOL    HW214793   2.230   4.906   6.358 -0.4767  2.5654 -1.6787
 4632SOL     OW14794   0.039   5.437   1.384 -0.4545  0.0648 -0.4026
 4632SOL    HW114795  -0.041   5.401   1.336 -0.3787 -0.3072 -0.2616
 4632SOL    HW214796   0.011   5.512   1.444 -0.6035  0.3026 -0.7740
 4633SOL     OW14797   0.654   2.439   0.653  0.3005 -0.8967  0.3032
 4633SOL    HW114798   0.589   2.371   0.688 -1.3303  1.1765  1.5813
 4633SOL    HW214799   0.638   2.453   0.556  0.2804 -1.8939  0.1492
 4634SOL     OW14800   3.314   3.348   2.362 -0.2619 -0.6405 -0.4540
 4634SOL    HW114801   3.216   3.350   2.382 -0.1826  0.5086 -0.0634
 4634SOL    HW214802   3.363   3.398   2.434  0.3325  1.0303 -1.9555
 4635SOL     OW14803   2.142   1.616   6.883  0.2085  0.0067  0.0037
 4635SOL    HW114804   2.154   1.715   6.888 -1.7319  0.2410  0.9745
 4635SOL    HW214805   2.154   1.586   6.788  1.3840  1.0597 -0.2134
 4636SOL     OW14806   2.607   5.799   2.310 -0.0625  0.0770  0.5139
 4636SOL    HW114807   2.576   5.808   2.215 -0.1651  0.2146  0.5591
 4636SOL    HW214808   2.658   5.714   2.321  1.4470  0.8769 -0.0650
 4637SOL     OW14809   3.120   5.069   1.755  0.0953 -0.1040  0.2669
 4637SOL    HW114810   3.193   5.043   1.818  0.3196 -0.4416 -0.1238
 4637SOL    HW214811   3.158   5.084   1.664 -0.3841 -0.7956 -0.0647
 4638SOL     OW14812   0.666   0.017   1.609 -0.3341 -0.1642 -0.0257
 4638SOL    HW114813   0.696  -0.040   1.532  0.3042  0.7422 -0.4639
 4638SOL    HW214814   0.745   0.065   1.647 -0.8650  0.4127  0.3503
 4639SOL     OW14815   0.981   2.445   5.392  0.5576 -0.0178 -0.2354
 4639SOL    HW114816   0.944   2.492   5.472  1.3648  0.6448 -0.2397
 4639SOL    HW214817   1.081   2.446   5.396  0.6211  0.2489 -1.3721
 4640SOL     OW14818   5.453   6.926   3.126  0.0213 -0.2273  0.0137
 4640SOL    HW114819   5.490   6.923   3.218  1.5873  1.7750 -0.4636
 4640SOL    HW214820   5.402   7.011   3.113  0.0918 -0.3236 -1.0373
 4641SOL     OW14821   6.411   6.725   2.748 -0.0155 -0.3870 -0.0932
 4641SOL    HW114822   6.395   6.696   2.842  1.1643 -1.1958 -0.1085
 4641SOL    HW214823   6.425   6.644   2.691 -1.0050  0.0847 -1.0327
 4642SOL     OW14824   0.235   4.302   1.688 -0.0072  0.5932  0.4359
 4642SOL    HW114825   0.310   4.273   1.749 -0.2113 -0.5413  0.1786
 4642SOL    HW214826   0.180   4.371   1.735 -1.5295 -1.8594  2.5754
 4643SOL     OW14827   6.036   5.881   6.184 -0.3986  0.0880  0.2461
 4643SOL    HW114828   5.944   5.890   6.222  0.3353  2.3945  1.7702
 4643SOL    HW214829   6.099   5.850   6.256  0.3507  0.5311 -0.1976
 4644SOL     OW14830   0.292   4.794   2.491  0.4786  0.4562  0.2468
 4644SOL    HW114831   0.323   4.774   2.584 -0.0995 -0.7540  0.1968
 4644SOL    HW214832   0.267   4.709   2.445 -0.3696  1.1481 -0.6182
 4645SOL     OW14833   2.183   3.773   4.049  0.0127  0.3631  0.0488
 4645SOL    HW114834   2.233   3.852   4.083 -1.1666  1.6185 -1.0005
 4645SOL    HW214835   2.085   3.788   4.059 -0.2456 -0.9887 -0.1555
 4646SOL     OW14836   1.886   5.573   1.397 -0.4505 -0.5496  0.6310
 4646SOL    HW114837   1.979   5.567   1.361 -0.8067  1.5568 -0.7805
 4646SOL    HW214838   1.825   5.520   1.338 -0.5321  0.2312  0.0005
 4647SOL     OW14839   2.456   0.393   3.434  0.2960  0.4104  0.5093
 4647SOL    HW114840   2.491   0.419   3.344  1.2456 -1.4401  0.2938
 4647SOL    HW214841   2.530   0.350   3.487 -0.1898  1.6409  2.2691
 4648SOL     OW14842   6.343   5.100   1.139 -0.0460 -0.4941 -0.1037
 4648SOL    HW114843   6.438   5.124   1.119  0.5915 -0.8041  2.2232
 4648SOL    HW214844   6.296   5.180   1.179 -0.5892 -0.5369 -0.6332
 4649SOL     OW14845   0.803   6.021   1.365  0.0682 -0.1059 -0.4878
 4649SOL    HW114846   0.869   5.958   1.323  0.6042  0.6385 -0.7751
 4649SOL    HW214847   0.788   5.994   1.460 -0.9121 -1.6167 -1.0287
 4650SOL     OW14848   5.702   4.551   1.767 -0.5270  0.4756 -0.0839
 4650SOL    HW114849   5.734   4.516   1.679  2.7334 -1.9572  1.8266
 4650SOL    HW214850   5.747   4.638   1.787 -1.1433  0.9469 -0.7454
 4651SOL     OW14851   3.020   3.769   4.588  0.2508  0.2015  0.9786
 4651SOL    HW114852   3.116   3.792   4.573  0.2005  0.2722  0.7577
 4651SOL    HW214853   2.965   3.853   4.583 -0.1742 -0.1669 -1.6951
 4652SOL     OW14854   5.945   0.331   1.095  0.1184  0.2481 -0.1683
 4652SOL    HW114855   5.915   0.413   1.047 -0.1110  0.0546 -0.3599
 4652SOL    HW214856   5.894   0.321   1.180  0.7173  0.7397  0.2611
 4653SOL     OW14857   0.667   0.571   2.995  0.2030 -0.1072 -0.3195
 4653SOL    HW114858   0.727   0.585   3.074  0.5670  2.6000 -1.0049
 4653SOL    HW214859   0.718   0.587   2.911 -1.0624  0.6650 -0.9694
 4654SOL     OW14860   3.386   1.602   1.557  0.0606 -0.1616 -0.1010
 4654SOL    HW114861   3.440   1.521   1.538  2.1998  0.9560  0.8639
 4654SOL    HW214862   3.446   1.676   1.589 -1.4023  2.6020 -3.1555
 4655SOL     OW14863   1.222   5.430   3.524 -0.5380  0.0470 -0.0860
 4655SOL    HW114864   1.171   5.482   3.456 -0.3205 -2.7725 -2.5862
 4655SOL    HW214865   1.284   5.367   3.479  0.6756 -1.0170  2.8099
 4656SOL     OW14866   0.612   5.937   6.208 -0.7217  0.0380  0.3077
 4656SOL    HW114867   0.650   5.916   6.298 -0.3979  0.9111  0.3881
 4656SOL    HW214868   0.521   5.897   6.200 -0.7149 -0.1286  0.9889
 4657SOL     OW14869   6.787   3.594   0.261 -0.0107  0.0057 -0.2323
 4657SOL    HW114870   6.714   3.653   0.293 -1.7524 -0.9527 -2.2136
 4657SOL    HW214871   6.869   3.648   0.244 -1.4204  1.8323 -1.6028
 4658SOL     OW14872   2.816   4.716   2.649  0.1229  0.5771 -0.0623
 4658SOL    HW114873   2.866   4.773   2.714  0.2705 -0.0442  0.3849
 4658SOL    HW214874   2.825   4.753   2.557  1.6703  0.2950 -0.0389
 4659SOL     OW14875   4.453   1.310   3.133 -0.0606 -0.5832  0.0019
 4659SOL    HW114876   4.410   1.306   3.043  0.1335 -2.1267 -0.0477
 4659SOL    HW214877   4.388   1.280   3.203 -0.5218  1.5177  0.5289
 4660SOL     OW14878   0.065   5.979   1.229  0.3228  0.2142  0.3271
 4660SOL    HW114879   0.117   6.045   1.175  1.0856  0.4054  1.2675
 4660SOL    HW214880   0.125   5.904   1.257  0.0513  0.3178  1.2309
 4661SOL     OW14881   6.257   1.741   0.199 -0.1935 -0.4621 -0.2458
 4661SOL    HW114882   6.165   1.702   0.208 -0.3289  0.0098  0.5057
 4661SOL    HW214883   6.272   1.770   0.104 -1.1848  0.3392 -0.1757
 4662SOL     OW14884   4.690   1.135   3.039  0.3024 -0.3554 -0.7085
 4662SOL    HW114885   4.719   1.214   2.985 -2.3838  0.5042 -1.0597
 4662SOL    HW214886   4.607   1.159   3.090  0.1855 -2.5678  0.2296
 4663SOL     OW14887   4.167   3.627   5.917 -0.4320 -0.1008  0.1300
 4663SOL    HW114888   4.146   3.532   5.939 -1.0325  0.3810  1.7585
 4663SOL    HW214889   4.237   3.662   5.980  1.1671  0.0276 -1.6172
 4664SOL     OW14890   4.795   2.767   5.700 -0.3353 -0.0434 -0.1828
 4664SOL    HW114891   4.889   2.773   5.666 -0.4194  0.4636 -0.3370
 4664SOL    HW214892   4.735   2.819   5.640 -0.5456  0.5609  0.5437
 4665SOL     OW14893   3.141   1.683   2.109  0.6057 -0.0793 -0.2732
 4665SOL    HW114894   3.107   1.746   2.179 -1.4482 -0.6592 -0.6544
 4665SOL    HW214895   3.158   1.733   2.024 -0.3985  0.1112 -0.3824
 4666SOL     OW14896   4.988   3.030   4.032 -0.1692  0.1819 -0.3128
 4666SOL    HW114897   5.059   3.082   4.080 -0.2085  0.0898 -0.1546
 4666SOL    HW214898   5.027   2.988   3.950  0.5598 -1.7989  0.9756
 4667SOL     OW14899   3.675   5.271   2.805  0.3649  0.1203  0.2797
 4667SOL    HW114900   3.652   5.186   2.852  1.9522 -0.4137  0.1600
 4667SOL    HW214901   3.671   5.256   2.706 -1.9520  0.9594  0.1703
 4668SOL     OW14902   5.700   1.616   0.259 -0.0897 -0.1563 -0.7305
 4668SOL    HW114903   5.645   1.545   0.304 -0.6105  0.6658 -0.0288
 4668SOL    HW214904   5.653   1.648   0.177 -2.0454  2.3410  1.1946
 4669SOL     OW14905   6.543   3.478   3.933 -0.2598  0.7189  0.1742
 4669SOL    HW114906   6.611   3.508   3.866  0.2670  0.3557  0.5418
 4669SOL    HW214907   6.514   3.556   3.988  1.0466  0.5943  1.0782
 4670SOL     OW14908   3.146   4.739   5.461  0.8707 -0.1950  0.1163
 4670SOL    HW114909   3.104   4.675   5.526  1.2759 -0.8770 -0.2851
 4670SOL    HW214910   3.093   4.741   5.376  0.4442  0.5600  0.3910
 4671SOL     OW14911   5.862   0.453   3.323 -0.3149 -0.5516 -0.2971
 4671SOL    HW114912   5.946   0.507   3.323 -0.6080 -0.0923 -0.8112
 4671SOL    HW214913   5.860   0.395   3.405 -0.8417  1.5160  1.2470
 4672SOL     OW14914   1.782   3.610   6.338 -0.1052  0.6895 -0.1381
 4672SOL    HW114915   1.700   3.588   6.391  1.3719 -1.8607  1.3513
 4672SOL    HW214916   1.844   3.666   6.394 -0.2273  1.4194 -0.7239
 4673SOL     OW14917   5.209   3.130   0.358 -0.5039 -0.1250 -0.1700
 4673SOL    HW114918   5.244   3.053   0.412  2.0518 -0.0329 -1.5276
 4673SOL    HW214919   5.166   3.197   0.419  2.6759  0.2369  1.8783
 4674SOL     OW14920   4.291   0.336   6.184  0.3999 -0.1156 -0.0233
 4674SOL    HW114921   4.291   0.241   6.214 -0.5503 -0.1052  0.0582
 4674SOL    HW214922   4.197   0.371   6.185  0.6770  0.6764 -0.5135
 4675SOL     OW14923   6.668   6.981   0.466  0.0039  0.3314  0.0928
 4675SOL    HW114924   6.631   6.924   0.392  0.4961  1.5405 -1.1254
 4675SOL    HW214925   6.607   6.975   0.545 -1.3969  0.2268 -0.9448
 4676SOL     OW14926   0.503   4.683   1.027  0.6669 -0.0934 -0.2627
 4676SOL    HW114927   0.526   4.779   1.014 -0.3371 -0.0432 -1.9100
 4676SOL    HW214928   0.427   4.659   0.968  1.6652 -2.2125 -0.7673
 4677SOL     OW14929   1.414   6.182   4.545 -0.4240  0.1504  0.2951
 4677SOL    HW114930   1.328   6.176   4.595 -0.1998  2.3085  1.0529
 4677SOL    HW214931   1.489   6.198   4.610  0.1523  1.0022 -0.5564
 4678SOL     OW14932   0.093   2.086   4.253 -0.1927 -0.2934 -0.0098
 4678SOL    HW114933   0.171   2.074   4.191 -0.1303  1.3824 -0.2840
 4678SOL    HW214934   0.124   2.125   4.340 -0.8019  1.1940 -0.4284
 4679SOL     OW14935   1.391   0.904   2.881 -0.0470 -0.5972  0.1774
 4679SOL    HW114936   1.372   0.943   2.791  0.7010 -3.1433 -1.1851
 4679SOL    HW214937   1.347   0.814   2.888 -0.0237 -0.4884  2.3467
 4680SOL     OW14938   5.652   3.337   0.850  0.5365 -0.3432  0.1414
 4680SOL    HW114939   5.606   3.422   0.824  0.9118  0.1177  0.9330
 4680SOL    HW214940   5.658   3.332   0.950 -0.2710 -1.7315  0.1484
 4681SOL     OW14941   1.573   6.340   2.972  0.1281  0.1798 -0.1765
 4681SOL    HW114942   1.486   6.299   2.945 -1.5644  2.4089  1.5263
 4681SOL    HW214943   1.598   6.310   3.064  1.2218 -0.4730 -0.6642
 4682SOL     OW14944   4.843   5.920   6.480 -0.4495  0.1441  0.5679
 4682SOL    HW114945   4.931   5.964   6.459  0.3087 -1.5473  0.0616
 4682SOL    HW214946   4.769   5.987   6.468  0.7955  1.8220  1.7267
 4683SOL     OW14947   5.883   6.857   0.942 -0.0142 -0.6545 -0.0467
 4683SOL    HW114948   5.939   6.933   0.974  1.0026 -1.0832 -0.7493
 4683SOL    HW214949   5.786   6.882   0.946  0.3544  1.2591 -1.7213
 4684SOL     OW14950   3.852   5.508   1.991 -0.1840 -0.0296 -0.6189
 4684SOL    HW114951   3.808   5.590   2.028  1.2621  0.6343 -0.2981
 4684SOL    HW214952   3.856   5.437   2.062  0.8114  0.5393 -0.0853
 4685SOL     OW14953   4.632   6.014   4.064 -0.3640  0.1979  0.0120
 4685SOL    HW114954   4.638   6.039   4.161  0.1619 -3.1904  1.0003
 4685SOL    HW214955   4.608   6.094   4.010  0.1672  2.4113  2.8180
 4686SOL     OW14956   5.962   0.387   4.509 -0.2698 -0.1144  0.1982
 4686SOL    HW114957   5.947   0.325   4.586  2.6721  0.2805  1.2397
 4686SOL    HW214958   6.048   0.363   4.463 -1.2320  0.5669 -2.1086
 4687SOL     OW14959   0.454   3.741   1.245 -0.1366 -0.4873  0.2024
 4687SOL    HW114960   0.520   3.781   1.182 -0.4610 -0.9353 -0.4279
 4687SOL    HW214961   0.368   3.721   1.197 -0.1899 -1.3666  0.6318
 4688SOL     OW14962   5.156   6.924   4.203 -0.2576 -0.0158 -0.3416
 4688SOL    HW114963   5.168   7.022   4.221  0.6313 -0.3321  0.8406
 4688SOL    HW214964   5.205   6.900   4.119 -0.0557  0.4564 -0.3631
 4689SOL     OW14965   0.547   0.771   1.523  0.6173  0.0172 -0.2317
 4689SOL    HW114966   0.507   0.855   1.487  1.5636  0.6949  0.2401
 4689SOL    HW214967   0.529   0.696   1.459 -0.3262  0.5480 -0.6110
 4690SOL     OW14968   2.796   2.766   6.912 -0.3706  0.0834  0.2517
 4690SOL    HW114969   2.833   2.686   6.865  0.1173  0.5388 -0.1508
 4690SOL    HW214970   2.806   2.847   6.854  1.5038  0.9349  1.6280
 4691SOL     OW14971   6.289   2.464   5.192 -0.1697  0.7189  0.0152
 4691SOL    HW114972   6.365   2.400   5.180 -0.8139  0.1090 -0.8724
 4691SOL    HW214973   6.310   2.550   5.145 -0.2027  0.4089 -0.5648
 4692SOL     OW14974   2.472   2.220   2.611 -0.0514 -0.0903  0.1299
 4692SOL    HW114975   2.467   2.294   2.543 -1.4793 -1.2725 -1.1211
 4692SOL    HW214976   2.398   2.231   2.677  0.2017  0.0115  0.3983
 4693SOL     OW14977   5.110   1.522   1.817 -0.6497  0.7504  0.4216
 4693SOL    HW114978   5.190   1.510   1.759 -1.2764  1.0773 -0.5344
 4693SOL    HW214979   5.122   1.605   1.873  1.1449 -0.9699  2.8260
 4694SOL     OW14980   3.049   6.753   5.715  0.1103 -0.2172  0.2858
 4694SOL    HW114981   3.059   6.662   5.676 -1.3556  0.5668 -2.1183
 4694SOL    HW214982   2.963   6.793   5.685 -0.0992  1.3387  2.6915
 4695SOL     OW14983   0.242   0.869   0.229  0.3508  0.5706 -0.7847
 4695SOL    HW114984   0.318   0.813   0.197  0.8036  0.3738  0.5604
 4695SOL    HW214985   0.277   0.956   0.263  0.2803 -0.3182  1.7499
 4696SOL     OW14986   0.615   1.183   4.649 -0.5799  0.1486 -0.1155
 4696SOL    HW114987   0.613   1.260   4.585 -2.0720  0.9300  0.8072
 4696SOL    HW214988   0.634   1.099   4.600 -2.8289  0.5487 -1.8208
 4697SOL     OW14989   6.730   3.763   4.777  0.1779 -0.5288  0.0294
 4697SOL    HW114990   6.810   3.820   4.796 -1.5224  1.2505  2.3763
 4697SOL    HW214991   6.701   3.776   4.682  2.4180 -0.9836 -0.7652
 4698SOL     OW14992   3.542   0.211   4.547  0.4560  0.2984  0.3120
 4698SOL    HW114993   3.501   0.263   4.472  0.5380  1.0746  0.7917
 4698SOL    HW214994   3.475   0.198   4.620  0.5012 -0.0888  0.2869
 4699SOL     OW14995   0.186   1.594   3.559  0.0420  0.9446 -0.3096
 4699SOL    HW114996   0.131   1.538   3.496  1.3203 -0.6147 -0.1111
 4699SOL    HW214997   0.256   1.643   3.508  0.1457  0.8271 -0.2829
 4700SOL     OW14998   1.127   5.106   2.784 -0.0068 -0.2548 -0.6373
 4700SOL    HW114999   1.097   5.017   2.818 -1.1211 -0.4668 -2.0575
 4700SOL    HW215000   1.071   5.131   2.705 -1.2007  2.6803  0.9824
 4701SOL     OW15001   4.590   6.552   6.878 -0.2406  0.1177  0.2717
 4701SOL    HW115002   4.620   6.515   6.790  0.1477 -1.5839  1.0881
 4701SOL    HW215003   4.670   6.572   6.935 -0.5251 -0.6717  0.9674
 4702SOL     OW15004   1.595   1.987   3.600 -0.3547 -0.9196  0.0035
 4702SOL    HW115005   1.657   2.047   3.649 -0.1685 -1.1602  0.0637
 4702SOL    HW215006   1.648   1.925   3.542 -0.3685 -2.7830  1.8698
 4703SOL     OW15007   5.749   1.197   3.114 -0.0030  0.2807  0.0168
 4703SOL    HW115008   5.698   1.245   3.043  2.1246 -0.5377 -2.2001
 4703SOL    HW215009   5.701   1.113   3.138 -0.4789  0.2800 -0.8998
 4704SOL     OW15010   0.294   1.198   5.259 -0.1079  0.1932 -1.1509
 4704SOL    HW115011   0.316   1.120   5.199 -2.4075 -1.1848 -0.3435
 4704SOL    HW215012   0.205   1.235   5.234 -0.5777  0.3562  0.6232
 4705SOL     OW15013   5.158   4.085   0.844 -0.2121  0.3004 -0.3167
 4705SOL    HW115014   5.206   4.109   0.929 -1.0461 -2.0762  0.9266
 4705SOL    HW215015   5.226   4.069   0.772  0.5994  1.1744  0.2273
 4706SOL     OW15016   5.903   1.612   3.898 -0.1937  0.5877  0.4469
 4706SOL    HW115017   5.850   1.549   3.842  1.6723  0.5870 -1.4243
 4706SOL    HW215018   5.888   1.591   3.995 -1.2693 -1.3050 -0.0866
 4707SOL     OW15019   5.579   5.742   0.005  0.0945 -0.0757 -0.0566
 4707SOL    HW115020   5.582   5.745   0.105  1.1006  1.8005 -0.1015
 4707SOL    HW215021   5.557   5.649  -0.025 -1.9410 -0.3280  1.9186
 4708SOL     OW15022   0.951   1.358   2.327  0.3959  0.0701  0.0490
 4708SOL    HW115023   0.869   1.341   2.382  0.1302 -4.1675 -1.3200
 4708SOL    HW215024   0.926   1.358   2.230  1.8857 -0.4379 -0.3538
 4709SOL     OW15025   4.860   4.167   3.575 -0.0934  0.3126  0.0209
 4709SOL    HW115026   4.932   4.113   3.617 -1.7516 -1.2269  1.0329
 4709SOL    HW215027   4.815   4.224   3.644 -0.5188  0.4802 -0.3815
 4710SOL     OW15028   5.783   1.893   5.937 -0.5411 -0.5151  0.1592
 4710SOL    HW115029   5.698   1.911   5.888  0.8206  2.0952 -1.4890
 4710SOL    HW215030   5.849   1.851   5.875  0.5831  1.0480  0.2351
 4711SOL     OW15031   3.480   6.085   2.454 -0.2395 -1.1375 -0.2659
 4711SOL    HW115032   3.534   6.020   2.507  1.4646  0.1005 -0.4130
 4711SOL    HW215033   3.524   6.175   2.456 -1.4296 -0.4768 -1.7755
 4712SOL     OW15034   2.034   3.875   5.557  0.1035  0.4818  0.3830
 4712SOL    HW115035   1.987   3.917   5.635  1.0657  0.6621  0.8820
 4712SOL    HW215036   2.110   3.820   5.590 -0.5803 -0.9458 -0.3219
 4713SOL     OW15037   3.990   1.702   0.167  0.1187  0.6597  0.3455
 4713SOL    HW115038   4.044   1.673   0.246  0.7187  2.7784  0.7924
 4713SOL    HW215039   3.966   1.623   0.111  0.2254 -0.8267  2.3013
 4714SOL     OW15040   4.701   0.776   4.563  0.2073  0.8759  0.0627
 4714SOL    HW115041   4.742   0.866   4.577 -1.5043  1.7136 -0.0913
 4714SOL    HW215042   4.623   0.765   4.624  0.4405 -0.5571  0.1409
 4715SOL     OW15043   4.478   1.630   2.610 -0.0306  0.0830 -0.1908
 4715SOL    HW115044   4.576   1.613   2.614 -0.3137 -1.5052  0.6646
 4715SOL    HW215045   4.431   1.547   2.582 -1.2135  0.5654  0.2904
 4716SOL     OW15046   3.623   5.580   0.480  0.1629  0.2940 -0.3758
 4716SOL    HW115047   3.593   5.641   0.407 -0.3982 -1.2148 -1.4622
 4716SOL    HW215048   3.624   5.486   0.446 -1.4491 -0.6539  1.9352
 4717SOL     OW15049   3.768   3.482   2.844 -0.4205  0.7182  0.1773
 4717SOL    HW115050   3.804   3.432   2.766  0.0673 -1.0814  1.4782
 4717SOL    HW215051   3.837   3.486   2.916 -1.7902 -0.2861  1.6257
 4718SOL     OW15052   2.011   5.200   3.823  1.0225  0.5913 -0.3314
 4718SOL    HW115053   1.912   5.188   3.823  1.2414 -1.7291 -0.2056
 4718SOL    HW215054   2.049   5.164   3.908  2.1868 -1.4316 -1.6219
 4719SOL     OW15055   5.169   3.152   1.921 -0.1615 -0.0634  0.0557
 4719SOL    HW115056   5.145   3.055   1.926 -1.2187  0.2339  1.9139
 4719SOL    HW215057   5.179   3.188   2.014  0.7344  1.4951 -0.6084
 4720SOL     OW15058   1.200   6.783   2.868 -0.3142  0.0787  0.0893
 4720SOL    HW115059   1.286   6.829   2.888 -0.1680 -0.5431  0.9548
 4720SOL    HW215060   1.169   6.807   2.776  0.9772  0.0157 -0.3768
 4721SOL     OW15061   5.176   0.999   2.903  0.7404 -0.0747 -0.1512
 4721SOL    HW115062   5.135   0.992   2.812 -0.2703  0.5848  0.2366
 4721SOL    HW215063   5.108   0.980   2.972  0.7200  2.1835  0.5461
 4722SOL     OW15064   5.532   6.371   3.024  0.6266  0.5444  0.1296
 4722SOL    HW115065   5.474   6.449   3.047  0.0506  0.0259  0.4564
 4722SOL    HW215066   5.627   6.393   3.049  0.3134  0.7423  1.2318
 4723SOL     OW15067   3.372   2.052   4.831 -0.5301 -0.1375  0.2260
 4723SOL    HW115068   3.325   2.135   4.862 -0.5369 -0.0366 -0.0488
 4723SOL    HW215069   3.374   1.985   4.905 -0.1622  0.2622  0.5856
 4724SOL     OW15070   0.750   2.486   3.286  0.6658 -0.5141  0.1375
 4724SOL    HW115071   0.712   2.460   3.197  0.4962  0.2158 -0.0084
 4724SOL    HW215072   0.732   2.413   3.352  2.5641 -1.9869 -0.8748
 4725SOL     OW15073   1.427   2.144   5.965  0.0682 -0.2523  0.3576
 4725SOL    HW115074   1.400   2.070   6.027  0.6963 -1.0128 -0.2551
 4725SOL    HW215075   1.346   2.194   5.935 -0.3256 -0.4512  1.0799
 4726SOL     OW15076   6.732   0.851   1.939  0.7509 -0.6078 -0.1809
 4726SOL    HW115077   6.760   0.945   1.918  0.5521 -0.5556 -0.2191
 4726SOL    HW215078   6.709   0.844   2.036 -0.3020 -0.3392 -0.4021
 4727SOL     OW15079   1.773   0.519   5.749  0.2979 -0.2613  0.0371
 4727SOL    HW115080   1.760   0.549   5.843 -0.3580 -1.1010  0.2304
 4727SOL    HW215081   1.684   0.507   5.705  0.4031 -3.0024  0.3550
 4728SOL     OW15082   2.326   5.573   1.004 -0.1418 -0.2353 -0.1479
 4728SOL    HW115083   2.251   5.570   1.070 -0.7172  2.3512 -0.5863
 4728SOL    HW215084   2.301   5.522   0.922  0.0207 -2.2878  1.0089
 4729SOL     OW15085   0.755   2.075   4.383 -0.0411  0.0563 -0.5059
 4729SOL    HW115086   0.667   2.041   4.417 -1.2132  3.1358 -0.0441
 4729SOL    HW215087   0.818   2.088   4.460  0.9501 -2.2429 -0.8482
 4730SOL     OW15088   3.964   3.467   6.571 -0.2379  0.0996 -0.2682
 4730SOL    HW115089   3.994   3.562   6.580  2.2834 -0.5036 -1.3417
 4730SOL    HW215090   3.964   3.423   6.661 -1.5898  1.1113  0.2626
 4731SOL     OW15091   5.807   4.643   2.124  0.1899 -0.5050 -0.9208
 4731SOL    HW115092   5.822   4.715   2.191 -3.0780 -0.0157 -0.5509
 4731SOL    HW215093   5.859   4.664   2.041  1.3981  0.8336  0.1200
 4732SOL     OW15094   4.903   5.011   6.524  0.2649  0.0711 -0.2651
 4732SOL    HW115095   4.978   4.946   6.512 -0.4961 -0.7447 -0.7432
 4732SOL    HW215096   4.909   5.083   6.455  0.5524 -0.0326 -0.3486
 4733SOL     OW15097   4.927   2.781   6.259  0.5003  0.2711  0.2155
 4733SOL    HW115098   4.878   2.802   6.343  1.0220  1.5352  0.2217
 4733SOL    HW215099   4.953   2.684   6.258 -0.8438 -0.1107  0.7958
 4734SOL     OW15100   5.686   5.298   7.017  0.1702 -0.3795 -0.5295
 4734SOL    HW115101   5.621   5.354   7.069  1.0216 -0.0071  0.1780
 4734SOL    HW215102   5.668   5.202   7.034 -0.4145 -0.2866 -0.6156
 4735SOL     OW15103   5.198   1.579   3.305  0.5605 -0.1645  0.0867
 4735SOL    HW115104   5.158   1.508   3.247  0.7501  0.4126 -0.7572
 4735SOL    HW215105   5.168   1.565   3.399 -0.3208 -0.6940 -0.2608
 4736SOL     OW15106   5.996   3.447   5.598 -0.3516 -0.3881  0.2844
 4736SOL    HW115107   6.036   3.459   5.507 -0.5238  0.4183  0.3049
 4736SOL    HW215108   6.023   3.358   5.635  0.7253 -0.2066 -0.0454
 4737SOL     OW15109   3.240   3.626   2.155 -0.1400  0.2033 -0.6761
 4737SOL    HW115110   3.255   3.708   2.099  3.5317 -1.6934 -2.9402
 4737SOL    HW215111   3.296   3.551   2.119 -4.0783 -3.7599  0.5401
 4738SOL     OW15112   2.148   0.402   1.926 -0.3765 -0.2932  0.2606
 4738SOL    HW115113   2.183   0.474   1.986  0.9399 -0.8996  0.2554
 4738SOL    HW215114   2.057   0.427   1.895 -0.1828  1.1017  0.7166
 4739SOL     OW15115   5.538   0.232   4.627  0.3558 -0.4314  0.2920
 4739SOL    HW115116   5.505   0.157   4.686 -2.1070 -0.3636 -0.8997
 4739SOL    HW215117   5.513   0.320   4.668  0.4991 -0.3334  0.1684
 4740SOL     OW15118   1.898   5.020   2.826 -0.8385  0.7048 -0.3860
 4740SOL    HW115119   1.802   5.048   2.834 -0.7207  0.5499  4.5352
 4740SOL    HW215120   1.904   4.920   2.823 -0.8414  0.6778  0.3442
 4741SOL     OW15121   6.321   0.350   6.025 -1.1925 -0.1958 -0.1947
 4741SOL    HW115122   6.383   0.283   6.066  1.3823  2.4265  0.5383
 4741SOL    HW215123   6.351   0.372   5.932  0.1123  2.2079  0.6871
 4742SOL     OW15124   4.967   1.629   3.963 -0.2495 -0.3967 -0.2169
 4742SOL    HW115125   5.041   1.683   4.005  1.0795 -1.3669 -1.2264
 4742SOL    HW215126   4.918   1.580   4.035 -0.4507  0.8847  0.5541
 4743SOL     OW15127   3.276   1.892   4.431  0.3527 -0.6088  0.0202
 4743SOL    HW115128   3.321   1.968   4.479  2.2377 -1.4824 -0.2937
 4743SOL    HW215129   3.298   1.806   4.477  0.7199 -1.2725 -1.3447
 4744SOL     OW15130   0.956   0.776   4.455  0.4339  0.6434  0.0488
 4744SOL    HW115131   1.022   0.731   4.514 -0.1954  1.4756  1.4281
 4744SOL    HW215132   0.866   0.774   4.498  0.0646  1.7347 -0.6422
 4745SOL     OW15133   2.194   6.722   3.898 -0.3024 -0.0394  0.3309
 4745SOL    HW115134   2.202   6.695   3.802  1.4808  1.3832  0.0383
 4745SOL    HW215135   2.266   6.677   3.951 -0.3602  0.3376  0.7306
 4746SOL     OW15136   4.591   6.031   6.975 -0.2320 -0.1554  0.2149
 4746SOL    HW115137   4.492   6.046   6.982 -0.2346 -0.5505  1.0353
 4746SOL    HW215138   4.616   5.947   7.023  0.7585  0.9061  1.6174
 4747SOL     OW15139   1.807   5.428   6.669 -0.1367 -0.0518 -0.7507
 4747SOL    HW115140   1.795   5.381   6.582 -1.3009  0.0209 -0.6462
 4747SOL    HW215141   1.786   5.525   6.658 -0.0370  0.0058 -0.4519
 4748SOL     OW15142   2.027   2.412   4.905  0.2929  0.0143 -0.2084
 4748SOL    HW115143   2.112   2.359   4.908  0.3664  0.1448  2.7364
 4748SOL    HW215144   2.049   2.510   4.905  0.1275  0.0508 -0.1165
 4749SOL     OW15145   6.598   0.744   6.994  0.0904  0.1676 -0.0254
 4749SOL    HW115146   6.509   0.710   7.026 -0.0246  0.2440 -0.2622
 4749SOL    HW215147   6.588   0.837   6.960  0.1001 -0.1033 -0.7833
 4750SOL     OW15148   6.430   6.623   6.825  0.7204 -0.5352 -0.2178
 4750SOL    HW115149   6.491   6.606   6.747  0.7388 -0.2327 -0.2713
 4750SOL    HW215150   6.422   6.540   6.880  3.6807  0.2303  1.5779
 4751SOL     OW15151   5.090   5.496   4.786 -0.1352 -0.0287  0.3878
 4751SOL    HW115152   5.023   5.475   4.857 -0.4894 -0.0603  0.0472
 4751SOL    HW215153   5.043   5.535   4.707  0.3456  0.7180  0.4612
 4752SOL     OW15154   3.613   1.347   5.747  0.3603  0.1465  0.5340
 4752SOL    HW115155   3.667   1.268   5.718  1.8738  1.2685  0.1306
 4752SOL    HW215156   3.565   1.386   5.669  0.2695  0.1086  0.5709
 4753SOL     OW15157   0.527   1.324   3.672 -0.6755 -0.2975  0.0451
 4753SOL    HW115158   0.558   1.250   3.731 -0.6283 -0.1436  0.2134
 4753SOL    HW215159   0.556   1.412   3.710  0.0572 -0.2389 -0.6280
 4754SOL     OW15160   0.022   4.026   3.097 -0.3155  0.2169  0.0888
 4754SOL    HW115161   0.054   4.092   3.165  1.1435 -0.6950  0.3200
 4754SOL    HW215162   0.072   4.040   3.011 -0.9658  0.2687 -0.2957
 4755SOL     OW15163   0.723   3.422   0.395  0.5211 -0.0867  0.0916
 4755SOL    HW115164   0.810   3.418   0.444  0.3546 -0.7723  0.3368
 4755SOL    HW215165   0.685   3.514   0.401  0.9487  0.0646  0.4683
 4756SOL     OW15166   5.223   0.497   5.292  0.2311  0.2725 -0.0323
 4756SOL    HW115167   5.302   0.438   5.276  0.2873 -0.3611  2.2306
 4756SOL    HW215168   5.141   0.455   5.253  0.0368 -2.0535  2.5977
 4757SOL     OW15169   1.031   1.246   4.364 -0.2818 -0.2561 -0.4151
 4757SOL    HW115170   0.977   1.161   4.366  0.6083 -0.8513 -0.9003
 4757SOL    HW215171   1.101   1.242   4.435  1.1753 -0.9266 -1.8036
 4758SOL     OW15172   3.223   0.171   1.295  0.5883 -0.1905 -0.1187
 4758SOL    HW115173   3.283   0.248   1.315 -0.0882  0.8759 -1.9193
 4758SOL    HW215174   3.135   0.205   1.261  0.1024 -1.7532 -0.5299
 4759SOL     OW15175   6.072   1.536   3.023 -0.3101 -0.1686  0.1788
 4759SOL    HW115176   6.082   1.601   2.948  1.4989 -0.2457  0.2987
 4759SOL    HW215177   6.028   1.581   3.101 -0.2253  0.5513 -0.1831
 4760SOL     OW15178   5.973   3.978   3.398 -0.1175 -0.1986 -0.1165
 4760SOL    HW115179   6.032   3.917   3.345 -0.4538 -0.2514 -0.4252
 4760SOL    HW215180   5.910   4.026   3.337 -0.2667  0.0035  0.1937
 4761SOL     OW15181   4.707   6.440   6.625  0.3400  0.0348  0.1270
 4761SOL    HW115182   4.709   6.378   6.703  1.9801  2.0036  1.7727
 4761SOL    HW215183   4.800   6.454   6.591 -0.0988  0.9052 -0.7654
 4762SOL     OW15184   3.052   4.000   4.232  0.1427 -0.4284 -0.0525
 4762SOL    HW115185   3.101   4.023   4.148  0.3895  1.6556  0.6028
 4762SOL    HW215186   2.956   3.982   4.211  0.6200 -2.0713 -1.0174
 4763SOL     OW15187   2.883   2.098   0.726 -0.5089 -0.2002 -0.3484
 4763SOL    HW115188   2.937   2.179   0.704  0.1216 -0.9248 -1.5721
 4763SOL    HW215189   2.943   2.026   0.759 -0.6972 -0.9914 -1.6668
 4764SOL     OW15190   1.496   2.345   0.588  0.1727  0.3702  0.2788
 4764SOL    HW115191   1.443   2.349   0.673  0.1458 -0.3912  0.3050
 4764SOL    HW215192   1.469   2.421   0.529  1.7658  2.2831  1.8430
 4765SOL     OW15193   3.293   0.280   5.598 -0.5922 -0.2327 -0.2941
 4765SOL    HW115194   3.273   0.370   5.559 -1.3079 -0.3828 -0.2976
 4765SOL    HW215195   3.354   0.230   5.537 -1.8814 -0.5537 -1.3789
 4766SOL     OW15196   6.238   4.956   6.466 -0.0463  0.6312  0.5889
 4766SOL    HW115197   6.257   4.941   6.369 -0.0333 -0.7814  0.7915
 4766SOL    HW215198   6.301   5.025   6.502  1.2451 -0.2190  0.0329
 4767SOL     OW15199   6.395   4.742   2.612 -0.2531  0.6945 -0.4773
 4767SOL    HW115200   6.373   4.649   2.642  1.5507  0.4430  0.2281
 4767SOL    HW215201   6.465   4.780   2.673 -2.2781  3.2432  0.3917
 4768SOL     OW15202   0.412   1.711   3.438 -0.2328 -0.0908  0.4722
 4768SOL    HW115203   0.419   1.806   3.410 -0.3697 -0.0169  0.6806
 4768SOL    HW215204   0.504   1.672   3.446 -0.0935  0.4522  1.8026
 4769SOL     OW15205   2.421   4.111   1.784  0.5445  0.2521 -0.8996
 4769SOL    HW115206   2.518   4.087   1.779  1.0391  2.1232 -0.9201
 4769SOL    HW215207   2.368   4.049   1.726  1.3414 -2.4718  1.0690
 4770SOL     OW15208   2.464   1.182   2.348 -0.3744  0.2662 -0.5836
 4770SOL    HW115209   2.514   1.172   2.262 -0.1622  0.5722 -0.4972
 4770SOL    HW215210   2.388   1.116   2.350  0.7435 -1.0449 -0.1960
 4771SOL     OW15211   6.599   4.940   6.080  0.5635 -0.3737  0.6312
 4771SOL    HW115212   6.651   5.023   6.060 -0.3575 -0.3399 -1.9338
 4771SOL    HW215213   6.655   4.879   6.137  2.5569  0.5962 -0.1885
 4772SOL     OW15214   6.826   2.251   6.439 -0.2163 -0.1575 -0.6094
 4772SOL    HW115215   6.736   2.291   6.456  0.4612  1.4291 -0.6463
 4772SOL    HW215216   6.835   2.229   6.341  0.2264  1.7557 -1.0286
 4773SOL     OW15217   0.764   3.602   6.259 -0.0487 -0.0090  0.2031
 4773SOL    HW115218   0.779   3.567   6.352 -0.2930  3.3302  1.6316
 4773SOL    HW215219   0.852   3.621   6.216  0.2840  3.7616  2.1079
 4774SOL     OW15220   4.094   0.823   6.656  0.0179  0.3647  0.3489
 4774SOL    HW115221   4.119   0.818   6.559  0.4091  0.5034  0.4411
 4774SOL    HW215222   4.177   0.834   6.711 -0.2118  0.3769  0.6927
 4775SOL     OW15223   3.962   1.129   5.861 -0.3748 -0.0528 -0.6697
 4775SOL    HW115224   3.968   1.228   5.874 -0.6874 -0.3440  2.4109
 4775SOL    HW215225   3.867   1.103   5.846 -0.6852 -0.0981  1.2234
 4776SOL     OW15226   1.676   0.703   0.053  0.0576 -0.1591 -0.6112
 4776SOL    HW115227   1.725   0.783   0.018 -2.3044  0.5509 -2.5617
 4776SOL    HW215228   1.668   0.635  -0.020 -0.4618 -0.9281  0.1483
 4777SOL     OW15229   4.980   5.231   3.683  0.4845 -0.2563  0.7134
 4777SOL    HW115230   4.899   5.193   3.639 -0.7438  2.5541  0.3067
 4777SOL    HW215231   4.960   5.250   3.779  1.4112 -1.5155  1.1738
 4778SOL     OW15232   5.957   1.433   2.244 -0.5494 -0.3714  0.0070
 4778SOL    HW115233   5.951   1.438   2.145 -1.0257 -1.2680 -0.0230
 4778SOL    HW215234   6.047   1.399   2.271 -0.8622 -1.3692 -0.1796
 4779SOL     OW15235   2.190   3.321   3.815  0.2913  0.3791 -0.0981
 4779SOL    HW115236   2.222   3.272   3.734  0.6033  0.6625 -0.1497
 4779SOL    HW215237   2.104   3.281   3.847 -0.9601  1.5452 -1.8156
 4780SOL     OW15238   4.807   0.785   5.042 -0.1622  0.3780 -0.2960
 4780SOL    HW115239   4.846   0.728   4.970 -0.2478  1.4735 -1.2511
 4780SOL    HW215240   4.758   0.728   5.107  1.1801 -0.8030 -0.2616
 4781SOL     OW15241   6.854   6.812   3.567 -0.0855  0.4576 -0.3798
 4781SOL    HW115242   6.933   6.851   3.613  1.4811 -0.7721 -1.9036
 4781SOL    HW215243   6.808   6.747   3.627  0.6607  0.4251  0.1608
 4782SOL     OW15244   3.127   0.806   4.813 -0.0046  0.2252 -0.0662
 4782SOL    HW115245   3.187   0.883   4.835  0.3208  0.1770 -0.7715
 4782SOL    HW215246   3.060   0.794   4.887  0.9186  0.2041  0.7847
 4783SOL     OW15247   1.149   2.345   6.562  0.1069  0.2825  0.6389
 4783SOL    HW115248   1.049   2.344   6.558  0.0740  2.0040  0.3781
 4783SOL    HW215249   1.185   2.265   6.514 -1.1204  0.7938 -1.2441
 4784SOL     OW15250   6.308   4.122   1.986 -0.3818 -0.1502 -0.2342
 4784SOL    HW115251   6.341   4.157   1.898  0.4028 -1.1734 -0.3641
 4784SOL    HW215252   6.283   4.199   2.044 -1.8826  0.5274 -1.6908
 4785SOL     OW15253   2.935   3.800   0.051 -0.2915 -0.3035 -0.4836
 4785SOL    HW115254   2.854   3.746   0.076  0.9342 -2.5004 -1.0277
 4785SOL    HW215255   3.007   3.739   0.019  1.5801  1.6057 -0.1010
 4786SOL     OW15256   5.736   1.827   2.412 -0.4152 -0.1081  0.4554
 4786SOL    HW115257   5.824   1.866   2.386  0.5138 -1.7326  1.0307
 4786SOL    HW215258   5.747   1.770   2.493 -2.1129  0.0810  0.8608
 4787SOL     OW15259   6.725   5.315   2.380 -0.1830 -0.3948 -0.2001
 4787SOL    HW115260   6.785   5.270   2.446  0.0861  0.9735  0.5296
 4787SOL    HW215261   6.780   5.354   2.307 -0.0819  1.3351  0.7533
 4788SOL     OW15262   4.342   3.357   6.842  0.0548 -0.3129  0.1429
 4788SOL    HW115263   4.345   3.265   6.881  0.4270 -1.2468 -1.9690
 4788SOL    HW215264   4.267   3.408   6.883  0.4457 -1.1983  2.0693
 4789SOL     OW15265   5.029   5.029   0.175  0.3490 -0.1496 -0.4024
 4789SOL    HW115266   4.982   5.102   0.225  0.6803 -0.7197  0.7711
 4789SOL    HW215267   4.966   4.953   0.160  0.4318 -0.2348 -0.3141
 4790SOL     OW15268   6.160   4.974   4.143  0.1566  0.0199  0.0912
 4790SOL    HW115269   6.073   4.927   4.154 -0.6631  1.4339 -0.2453
 4790SOL    HW215270   6.235   4.907   4.153 -0.9615 -1.4297 -0.7984
 4791SOL     OW15271   4.921   4.948   2.182  0.2135  0.8129 -0.7059
 4791SOL    HW115272   4.979   5.023   2.149 -0.3020  1.3762 -0.3384
 4791SOL    HW215273   4.828   4.980   2.194 -0.0158  0.1048 -0.5479
 4792SOL     OW15274   1.964   6.162   1.618 -0.6420 -0.5864 -0.1630
 4792SOL    HW115275   1.895   6.205   1.559  0.1977  0.5622 -0.3382
 4792SOL    HW215276   1.977   6.067   1.589 -2.7540 -1.1272  0.4235
 4793SOL     OW15277   1.270   4.267   6.339  0.0073  0.0432  0.0143
 4793SOL    HW115278   1.340   4.246   6.408 -0.4125  1.0363  0.7748
 4793SOL    HW215279   1.194   4.315   6.383 -1.8320 -2.2199 -0.5201
 4794SOL     OW15280   2.726   1.409   3.568 -0.3075  0.5096  0.2710
 4794SOL    HW115281   2.752   1.405   3.472  0.0231  0.4114  0.3643
 4794SOL    HW215282   2.627   1.424   3.575 -0.6376 -1.2200 -0.0962
 4795SOL     OW15283   0.128   4.099   1.538  0.6340 -1.1132 -0.0385
 4795SOL    HW115284   0.179   4.168   1.589  1.8653 -1.7661 -0.3574
 4795SOL    HW215285   0.058   4.145   1.482  0.0107 -0.3090  1.3299
 4796SOL     OW15286   0.480   4.311   7.009  0.0189 -0.3423 -0.3541
 4796SOL    HW115287   0.560   4.324   6.951 -0.5273 -1.1997 -1.3262
 4796SOL    HW215288   0.397   4.328   6.956 -0.4621  1.3460  0.8526
 4797SOL     OW15289   6.363   4.230   1.310  0.0252  0.3659 -0.4997
 4797SOL    HW115290   6.411   4.143   1.315 -0.5529 -0.1336 -2.5479
 4797SOL    HW215291   6.322   4.251   1.399  0.0290 -1.5293 -0.0108
 4798SOL     OW15292   2.779   1.705   3.131  0.6643  0.1397 -0.1450
 4798SOL    HW115293   2.684   1.685   3.107  0.7899 -1.8136  0.7857
 4798SOL    HW215294   2.837   1.684   3.053  0.5120 -0.6820 -0.0522
 4799SOL     OW15295   6.670   4.570   4.716  0.4113 -0.0376  0.0213
 4799SOL    HW115296   6.742   4.608   4.659  0.4032 -0.3264 -0.1776
 4799SOL    HW215297   6.648   4.636   4.789 -0.1675  0.7049 -0.8009
 4800SOL     OW15298   6.357   4.277   4.975 -0.1087  0.2985 -0.6405
 4800SOL    HW115299   6.321   4.312   4.888  1.0046  0.8046 -0.9102
 4800SOL    HW215300   6.301   4.200   5.006 -2.7493  2.3384  0.0355
 4801SOL     OW15301   1.010   1.621   0.455 -0.3533 -0.4462  0.2913
 4801SOL    HW115302   0.962   1.534   0.470  0.2518 -1.2657 -2.0815
 4801SOL    HW215303   0.950   1.683   0.404 -0.0740 -0.2335  0.2201
 4802SOL     OW15304   2.171   4.304   1.619 -0.1945 -0.0113 -0.2367
 4802SOL    HW115305   2.252   4.263   1.661 -0.5681  0.4932  1.0496
 4802SOL    HW215306   2.109   4.232   1.588  0.2645 -0.4024 -0.2513
 4803SOL     OW15307   6.795   2.627   2.800  0.0348  0.0985 -1.0565
 4803SOL    HW115308   6.775   2.539   2.756 -0.5332 -0.3427  0.0565
 4803SOL    HW215309   6.709   2.678   2.812  0.2917  0.5689 -1.1883
 4804SOL     OW15310   0.525   1.211   1.695  0.1194  0.4457 -0.1606
 4804SOL    HW115311   0.564   1.151   1.625  0.0837 -0.1352  0.3025
 4804SOL    HW215312   0.582   1.206   1.778 -1.2460 -0.9300  0.7591
 4805SOL     OW15313   5.964   6.131   5.536  0.4623  0.4312 -0.6317
 4805SOL    HW115314   5.953   6.194   5.459  0.3492  1.3207  0.0905
 4805SOL    HW215315   5.952   6.181   5.622  0.4686 -0.5653 -0.0329
 4806SOL     OW15316   4.027   6.111   4.006  0.2404 -0.1926 -0.2083
 4806SOL    HW115317   3.939   6.159   3.996 -1.1977 -2.7437 -0.7761
 4806SOL    HW215318   4.066   6.093   3.915 -0.5385 -2.1696 -0.2189
 4807SOL     OW15319   0.559   1.496   2.584 -0.2027  0.2460 -0.1509
 4807SOL    HW115320   0.593   1.580   2.626 -0.6636  0.2149  0.2936
 4807SOL    HW215321   0.517   1.517   2.496 -0.3220  0.4841 -0.0368
 4808SOL     OW15322   1.724   6.858   3.133 -0.5743 -0.0446  0.0960
 4808SOL    HW115323   1.726   6.804   3.049  0.6142 -0.2488  0.2413
 4808SOL    HW215324   1.634   6.849   3.176 -1.3527  0.4059 -1.3642
 4809SOL     OW15325   3.709   1.595   3.004 -0.1774  0.4988  0.2535
 4809SOL    HW115326   3.754   1.683   2.991  1.7251 -0.0635  2.4556
 4809SOL    HW215327   3.740   1.530   2.934 -1.2208  1.3991 -1.0815
 4810SOL     OW15328   4.879   5.207   5.888 -0.5566  0.2404 -0.2016
 4810SOL    HW115329   4.965   5.239   5.850 -1.4050 -0.2478 -2.7030
 4810SOL    HW215330   4.895   5.165   5.977  1.9481 -0.7430 -1.0374
 4811SOL     OW15331   0.252   0.987   6.244  0.2354 -0.1244  0.2182
 4811SOL    HW115332   0.243   0.937   6.158  1.8517 -0.3872  0.1793
 4811SOL    HW215333   0.220   1.081   6.230  2.0160  0.3212 -1.1631
 4812SOL     OW15334   5.697   2.141   5.157 -0.0134 -0.2236 -0.0549
 4812SOL    HW115335   5.733   2.234   5.146  2.3492 -0.8601  1.5431
 4812SOL    HW215336   5.699   2.093   5.070 -0.4052  0.9133 -0.7102
 4813SOL     OW15337   5.810   2.956   2.108  0.3334 -0.0309 -0.3295
 4813SOL    HW115338   5.790   3.006   2.193  0.1219  0.9135 -0.9162
 4813SOL    HW215339   5.738   2.889   2.090 -0.6246  1.0723 -0.7278
 4814SOL     OW15340   4.667   1.781   3.661 -0.5599 -0.1089 -0.0616
 4814SOL    HW115341   4.601   1.758   3.733  0.2250 -0.8178  0.4528
 4814SOL    HW215342   4.752   1.730   3.676 -0.4552 -0.4519 -1.6333
 4815SOL     OW15343   6.556   3.759   0.741  0.1725 -0.2511  0.1272
 4815SOL    HW115344   6.592   3.687   0.802  1.2232  0.0272 -0.1491
 4815SOL    HW215345   6.630   3.794   0.683  0.8091  3.9760  3.0543
 4816SOL     OW15346   1.105   2.431   1.666  0.0705  0.5591 -0.0040
 4816SOL    HW115347   1.105   2.440   1.766  1.0507 -0.8579  0.1376
 4816SOL    HW215348   1.010   2.426   1.634 -0.2355 -0.1331  0.9687
 4817SOL     OW15349   1.167   6.071   1.940  0.0272  0.2931 -0.5091
 4817SOL    HW115350   1.142   5.989   1.992  1.1211 -0.6865 -1.4607
 4817SOL    HW215351   1.213   6.136   2.000 -1.6928  0.6572  0.4771
 4818SOL     OW15352   0.930   1.420   0.967 -0.4956 -0.9328 -0.3250
 4818SOL    HW115353   0.973   1.330   0.983  0.8967 -0.1530  0.4935
 4818SOL    HW215354   0.909   1.463   1.054  0.2747  0.1791 -0.6692
 4819SOL     OW15355   3.089   3.259   0.330  0.1098 -0.0788 -0.2706
 4819SOL    HW115356   3.153   3.265   0.406  0.2292 -1.0574 -0.2780
 4819SOL    HW215357   3.139   3.269   0.244 -0.1973  2.3890 -0.2404
 4820SOL     OW15358   6.669   0.842   3.653  0.6217 -0.4178  0.0438
 4820SOL    HW115359   6.653   0.799   3.742  0.9390 -0.6619 -0.0182
 4820SOL    HW215360   6.606   0.920   3.642  1.7111  0.6716  1.1896
 4821SOL     OW15361   3.817   2.294   0.203  0.3725  0.1593  0.1142
 4821SOL    HW115362   3.893   2.360   0.202 -0.2107  0.8393  0.2369
 4821SOL    HW215363   3.746   2.325   0.140 -0.6749  0.5752  1.4565
 4822SOL     OW15364   2.794   4.097   5.663 -0.2481  0.3176 -0.1048
 4822SOL    HW115365   2.848   4.076   5.744 -1.3639  0.0891  0.5969
 4822SOL    HW215366   2.713   4.039   5.660 -0.2654  0.3646 -1.3549
 4823SOL     OW15367   0.797   4.284   4.998  0.2132 -0.6110  0.0181
 4823SOL    HW115368   0.785   4.191   4.964 -0.2864 -0.6650  0.3198
 4823SOL    HW215369   0.873   4.287   5.062 -0.6623 -1.1382  1.1310
 4824SOL     OW15370   2.531   3.766   0.821 -0.4797 -0.1131 -0.4351
 4824SOL    HW115371   2.626   3.790   0.844 -1.0116  2.3580 -0.5482
 4824SOL    HW215372   2.532   3.696   0.749  1.2415 -0.6391  0.0387
 4825SOL     OW15373   5.651   5.096   5.626 -0.5226  0.0619  0.2902
 4825SOL    HW115374   5.572   5.141   5.668  0.5520  0.3390  2.1226
 4825SOL    HW215375   5.650   4.999   5.648 -0.2076  0.1225  0.5875
 4826SOL     OW15376   5.984   1.373   4.153 -0.1103  0.4108 -0.5041
 4826SOL    HW115377   6.072   1.419   4.153 -0.2945  0.7591 -0.1399
 4826SOL    HW215378   5.911   1.439   4.137 -0.4889  0.4759  1.2662
 4827SOL     OW15379   2.713   3.574   5.769 -0.1694 -0.3190 -0.2221
 4827SOL    HW115380   2.693   3.662   5.811 -0.1530  0.0547 -0.9939
 4827SOL    HW215381   2.670   3.501   5.824  1.4990 -0.0316  1.5709
 4828SOL     OW15382   5.166   4.800   4.224  0.4064 -0.0335  0.3544
 4828SOL    HW115383   5.069   4.783   4.235  0.3453 -0.4367 -0.6602
 4828SOL    HW215384   5.218   4.746   4.291  0.0470 -1.8193 -0.7251
 4829SOL     OW15385   2.098   1.266   4.642 -0.2356  0.2788  0.0485
 4829SOL    HW115386   2.118   1.342   4.704 -2.7469  2.7738 -1.9554
 4829SOL    HW215387   2.033   1.203   4.686 -1.4329  1.6208  0.2501
 4830SOL     OW15388   0.357   0.500   5.456  0.1486  0.0761  0.0498
 4830SOL    HW115389   0.267   0.493   5.499  0.0027  1.8316  0.1004
 4830SOL    HW215390   0.427   0.515   5.527 -0.0717  2.8050 -0.1818
 4831SOL     OW15391   4.407   6.880   1.368  0.5498 -0.8814  0.1191
 4831SOL    HW115392   4.314   6.877   1.404  1.1276  0.9054  1.8677
 4831SOL    HW215393   4.470   6.840   1.434  1.3598  0.4680  0.1970
 4832SOL     OW15394   1.104   2.494   4.227 -0.0672  0.0254  0.0435
 4832SOL    HW115395   1.108   2.454   4.136  1.2749  0.1870  0.0205
 4832SOL    HW215396   1.013   2.534   4.242 -0.1444  0.4217 -1.3857
 4833SOL     OW15397   2.676   4.476   0.663 -0.6437 -0.1913  0.4335
 4833SOL    HW115398   2.597   4.529   0.694 -0.0742  0.1947  1.2461
 4833SOL    HW215399   2.661   4.445   0.569 -1.2519  0.8681  0.1710
 4834SOL     OW15400   0.984   6.046   0.569  0.0290  0.3787 -0.1122
 4834SOL    HW115401   0.957   6.094   0.486  1.0322  0.9707 -0.1152
 4834SOL    HW215402   1.033   6.109   0.629 -0.0509 -0.2324  0.6083
 4835SOL     OW15403   1.923   3.533   5.245  0.0457 -0.2584  0.0251
 4835SOL    HW115404   1.968   3.485   5.321  2.4341  3.0651  0.9534
 4835SOL    HW215405   1.898   3.625   5.274 -1.0121  0.3762 -2.6403
 4836SOL     OW15406   0.932   6.901   5.418  0.5473  0.4950 -0.5916
 4836SOL    HW115407   0.839   6.866   5.426  0.8679 -0.1368  0.5630
 4836SOL    HW215408   0.991   6.856   5.485  1.2578  2.3179  0.0821
 4837SOL     OW15409   0.135   0.970   4.742 -0.3077  0.4565  0.1602
 4837SOL    HW115410   0.213   1.005   4.691 -0.0980  0.1846  0.2972
 4837SOL    HW215411   0.085   0.904   4.686 -0.0498  0.1221  0.3274
 4838SOL     OW15412   0.236   1.800   1.407  1.0579  0.3032  0.1132
 4838SOL    HW115413   0.181   1.796   1.324  1.2794  0.7673 -0.0560
 4838SOL    HW215414   0.314   1.860   1.393  2.9913 -2.1633 -0.4759
 4839SOL     OW15415   5.598   3.100   0.264 -0.2295 -0.0168  0.2322
 4839SOL    HW115416   5.557   3.021   0.309  2.7132 -0.5964  2.1336
 4839SOL    HW215417   5.587   3.092   0.165 -0.2669 -2.6285  0.3976
 4840SOL     OW15418   1.200   5.150   6.489  1.0582  0.1314 -0.2306
 4840SOL    HW115419   1.179   5.169   6.393 -0.0195  2.2386  0.3588
 4840SOL    HW215420   1.115   5.135   6.540  1.5858 -0.5330  0.4882
 4841SOL     OW15421   0.203   0.090   6.462  0.5487  0.1500  0.2861
 4841SOL    HW115422   0.261   0.091   6.544  1.0271 -0.7415 -0.0317
 4841SOL    HW215423   0.125   0.029   6.477 -0.2092  1.1747  0.6304
 4842SOL     OW15424   6.010   4.145   2.328  0.3747 -0.4599  0.2090
 4842SOL    HW115425   5.988   4.229   2.277  0.5957 -0.5536 -0.0414
 4842SOL    HW215426   6.075   4.090   2.276 -0.6218 -1.3273 -0.1458
 4843SOL     OW15427   0.347   4.605   5.366 -0.3582 -0.6831 -0.2483
 4843SOL    HW115428   0.289   4.525   5.350  0.7180 -1.5810  0.1872
 4843SOL    HW215429   0.433   4.595   5.315 -0.1257  0.1032 -0.0330
 4844SOL     OW15430   3.996   1.032   6.105  0.2537  0.1091 -0.0114
 4844SOL    HW115431   3.982   1.099   6.031  1.8280  0.6190  0.1090
 4844SOL    HW215432   3.952   0.946   6.081 -0.9844  0.8774 -0.6182
 4845SOL     OW15433   1.690   3.510   4.280  0.0594 -0.1517  0.2044
 4845SOL    HW115434   1.607   3.509   4.225  1.1237 -0.6752 -1.4354
 4845SOL    HW215435   1.688   3.434   4.345  0.8871 -2.5633 -2.4022
 4846SOL     OW15436   0.258   1.016   4.089 -0.3192 -0.2665  0.0593
 4846SOL    HW115437   0.260   1.115   4.101  0.4581 -0.2375 -0.3113
 4846SOL    HW215438   0.315   0.972   4.159  1.2650 -0.3023 -1.1941
 4847SOL     OW15439   1.782   5.881   5.055 -0.1999  0.3801 -0.0807
 4847SOL    HW115440   1.769   5.808   4.989 -4.8031 -0.5462  1.4459
 4847SOL    HW215441   1.810   5.842   5.143  2.3894  1.2040 -0.4458
 4848SOL     OW15442   2.676   2.019   1.030  0.3988  0.9855  0.5503
 4848SOL    HW115443   2.594   2.023   1.088  1.4832  1.4555  2.1032
 4848SOL    HW215444   2.732   1.941   1.058 -0.3319 -0.4679 -1.7169
 4849SOL     OW15445   3.125   3.056   2.166  0.4186 -0.0717 -0.0432
 4849SOL    HW115446   3.092   3.108   2.087  1.6061  1.9220  0.7079
 4849SOL    HW215447   3.066   2.976   2.179 -1.1214  0.7178 -1.6183
 4850SOL     OW15448   4.035   6.094   3.216 -0.6066 -0.5220  0.1813
 4850SOL    HW115449   3.989   6.070   3.301  0.7838  2.2020  1.8352
 4850SOL    HW215450   4.134   6.083   3.226 -0.3321  0.8251 -0.6489
 4851SOL     OW15451   5.280   2.069   2.800 -0.4455 -0.4076  0.3668
 4851SOL    HW115452   5.343   2.146   2.798  1.0011 -1.5805 -0.4491
 4851SOL    HW215453   5.216   2.076   2.723  0.7398 -0.8764 -0.6798
 4852SOL     OW15454   3.275   0.621   2.056  0.4662 -0.6434  0.4315
 4852SOL    HW115455   3.189   0.670   2.043  1.6087  1.2025 -0.5788
 4852SOL    HW215456   3.284   0.550   1.986  1.1446  1.2720 -1.5216
 4853SOL     OW15457   3.284   3.543   0.637  0.4156 -0.0620  0.3642
 4853SOL    HW115458   3.307   3.562   0.541 -0.5412  0.3735  0.2133
 4853SOL    HW215459   3.232   3.458   0.642 -0.2837  0.3632  0.3969
 4854SOL     OW15460   0.534   6.613   3.817  0.4416 -0.1461  0.1914
 4854SOL    HW115461   0.613   6.604   3.878  0.1197  0.3539  0.7017
 4854SOL    HW215462   0.529   6.534   3.756  1.3143 -0.1987  0.1734
 4855SOL     OW15463   2.684   3.186   5.631 -0.7429  0.0411 -0.2514
 4855SOL    HW115464   2.691   3.090   5.657 -2.0987 -0.2590 -0.8949
 4855SOL    HW215465   2.691   3.194   5.531  0.2958  0.7186 -0.1335
 4856SOL     OW15466   4.358   6.847   1.828 -0.0856 -0.6155  0.4166
 4856SOL    HW115467   4.420   6.775   1.859 -1.6219 -1.6821  1.1746
 4856SOL    HW215468   4.405   6.906   1.762  1.1878 -2.4080 -0.3700
 4857SOL     OW15469   6.474   5.664   4.960  0.1093 -0.1892 -0.5603
 4857SOL    HW115470   6.567   5.671   4.996 -0.7026  1.1084  1.4528
 4857SOL    HW215471   6.438   5.755   4.942 -0.5094 -0.7104 -2.0934
 4858SOL     OW15472   6.008   1.693   3.244  0.6305 -0.6104 -0.0289
 4858SOL    HW115473   5.940   1.682   3.317 -1.7378 -2.0314 -2.2793
 4858SOL    HW215474   6.006   1.788   3.211  0.5656 -0.3602  0.6826
 4859SOL     OW15475   4.170   2.568   1.002 -0.9184  0.3857  0.3751
 4859SOL    HW115476   4.125   2.501   1.061  0.0934  0.8329  1.7017
 4859SOL    HW215477   4.196   2.524   0.916 -0.6215 -0.8340  1.0556
 4860SOL     OW15478   2.799   3.867   5.326  0.2278 -0.8521  0.3681
 4860SOL    HW115479   2.701   3.846   5.332  0.2318 -1.1202 -0.4009
 4860SOL    HW215480   2.815   3.961   5.356 -0.5106 -0.2132 -1.1292
 4861SOL     OW15481   4.014   0.043   1.769  0.4716  0.9403  0.4774
 4861SOL    HW115482   4.007  -0.046   1.724  0.8170  1.2358 -0.1714
 4861SOL    HW215483   4.011   0.031   1.868 -3.2469  0.4932  0.4450
 4862SOL     OW15484   2.165   6.899   2.471 -0.8056 -0.9898  0.2164
 4862SOL    HW115485   2.112   6.911   2.555  0.7836 -0.1266  1.1536
 4862SOL    HW215486   2.229   6.822   2.483 -0.0977 -0.4324  0.0800
 4863SOL     OW15487   4.654   6.981   6.927  0.2069  0.4414 -0.5839
 4863SOL    HW115488   4.667   7.041   6.848  0.3750 -1.2050 -1.8777
 4863SOL    HW215489   4.562   6.942   6.923 -1.0197  2.7785  1.8686
 4864SOL     OW15490   1.231   2.511   0.262  0.7166 -0.2985  0.0366
 4864SOL    HW115491   1.204   2.444   0.192  1.3165 -1.1081  0.5624
 4864SOL    HW215492   1.154   2.528   0.323  0.8848 -1.3892  0.5791
 4865SOL     OW15493   4.182   2.137   0.680 -0.7366  0.0135 -0.5429
 4865SOL    HW115494   4.164   2.087   0.764  0.7021  1.2097  0.5363
 4865SOL    HW215495   4.232   2.079   0.616 -0.5378 -0.4363  0.0180
 4866SOL     OW15496   2.893   3.359   3.163  0.3057  0.4348  0.2459
 4866SOL    HW115497   2.795   3.372   3.177 -0.1579 -0.2885 -2.0166
 4866SOL    HW215498   2.908   3.280   3.104  2.2934  0.3082  0.8557
 4867SOL     OW15499   1.590   4.405   1.345 -0.0460 -0.0311 -0.5766
 4867SOL    HW115500   1.683   4.437   1.367 -0.4834 -0.1572  1.6564
 4867SOL    HW215501   1.530   4.421   1.423 -2.0631  0.4929 -2.1587
 4868SOL     OW15502   5.082   2.350   1.608  0.4347  0.1566 -0.2503
 4868SOL    HW115503   5.082   2.361   1.509  0.8106  1.1543 -0.1453
 4868SOL    HW215504   5.105   2.255   1.630 -3.2998 -1.1484 -1.1674
 4869SOL     OW15505   5.166   1.253   0.460 -0.7246  0.2912 -0.5597
 4869SOL    HW115506   5.136   1.194   0.385 -2.0743 -2.4197  1.9244
 4869SOL    HW215507   5.246   1.212   0.504 -1.0150  0.8767  0.5551
 4870SOL     OW15508   3.998   1.884   0.450  0.0415  0.0734 -0.0229
 4870SOL    HW115509   3.966   1.882   0.356 -2.1245  0.9547  0.6356
 4870SOL    HW215510   3.957   1.962   0.498  1.4901 -0.0458  1.5383
 4871SOL     OW15511   4.043   4.543   0.471  0.6283 -0.0760 -0.9150
 4871SOL    HW115512   4.074   4.631   0.507  0.4049 -0.2482 -0.2958
 4871SOL    HW215513   4.068   4.536   0.374  0.6344  0.6698 -0.9702
 4872SOL     OW15514   4.860   2.435   1.723  0.1796  0.2698  0.4626
 4872SOL    HW115515   4.817   2.518   1.688 -3.6689 -1.4830  0.5252
 4872SOL    HW215516   4.946   2.419   1.675  0.0075  3.1613 -1.0016
 4873SOL     OW15517   0.849   4.712   4.460  0.7256  0.3237 -0.8166
 4873SOL    HW115518   0.828   4.768   4.540  1.3003 -1.0563  0.3450
 4873SOL    HW215519   0.944   4.680   4.465  0.5285 -0.4296 -1.6412
 4874SOL     OW15520   5.231   4.706   6.752  0.3286  0.1173 -0.1977
 4874SOL    HW115521   5.302   4.688   6.684  0.3115  0.2337 -0.2480
 4874SOL    HW215522   5.244   4.798   6.789 -0.2041  0.4086 -0.7135
 4875SOL     OW15523   6.733   3.772   5.048 -0.4360  0.0130  0.1537
 4875SOL    HW115524   6.738   3.757   4.949  2.2018 -1.3389  0.3969
 4875SOL    HW215525   6.791   3.849   5.074 -0.8638  0.1651  0.6920
 4876SOL     OW15526   1.920   3.080   3.374 -0.3598 -0.1246 -0.5118
 4876SOL    HW115527   1.866   2.996   3.366 -3.4193  1.6242  0.0242
 4876SOL    HW215528   1.956   3.106   3.284 -1.5884 -0.6973 -1.1972
 4877SOL     OW15529   0.547   1.901   2.366  0.1919  0.0941 -0.0931
 4877SOL    HW115530   0.512   1.863   2.451  0.0688 -1.0167 -0.6291
 4877SOL    HW215531   0.548   2.001   2.373  2.5765  0.0337  2.1844
 4878SOL     OW15532   4.368   5.986   4.502  0.2656  0.0031 -0.3249
 4878SOL    HW115533   4.430   5.913   4.475  0.3079  0.0665 -0.3974
 4878SOL    HW215534   4.275   5.949   4.512  0.5604 -0.4112  1.2025
 4879SOL     OW15535   6.303   1.025   3.855 -0.3360  0.3662 -0.0661
 4879SOL    HW115536   6.316   0.931   3.825 -0.9016  0.1721  0.2608
 4879SOL    HW215537   6.315   1.030   3.955 -1.2075  0.4514  0.0465
 4880SOL     OW15538   6.827   1.098   5.844 -0.0295 -0.1986  0.2971
 4880SOL    HW115539   6.777   1.103   5.757 -0.9816  0.3661  0.8567
 4880SOL    HW215540   6.789   1.025   5.900 -0.1788  0.1820  0.6961
 4881SOL     OW15541   6.903   3.019   5.816  0.7362  0.1893 -0.5890
 4881SOL    HW115542   6.990   3.066   5.807 -0.1463  2.6588  2.2290
 4881SOL    HW215543   6.895   2.979   5.908 -1.6391  1.4126 -0.1650
 4882SOL     OW15544   2.639   2.608   1.386 -0.3493 -0.2039 -0.1311
 4882SOL    HW115545   2.734   2.591   1.411 -0.7124 -2.0550  0.1182
 4882SOL    HW215546   2.618   2.705   1.399  1.3286  0.1247  0.3505
 4883SOL     OW15547   0.631   3.957   6.281  0.6850 -0.0623  0.3639
 4883SOL    HW115548   0.639   3.912   6.371 -1.0617  0.9503  1.0718
 4883SOL    HW215549   0.544   4.007   6.276  0.7606 -0.0603 -1.8999
 4884SOL     OW15550   3.720   5.285   4.222  0.4914  0.2185 -0.1779
 4884SOL    HW115551   3.753   5.379   4.209 -0.7249  0.7563  0.5021
 4884SOL    HW215552   3.654   5.263   4.151 -0.3506  0.4223  0.5274
 4885SOL     OW15553   6.737   1.080   4.553 -0.5618  0.1908  0.6263
 4885SOL    HW115554   6.799   1.039   4.620 -0.8492  0.5333  1.1094
 4885SOL    HW215555   6.733   1.023   4.472 -1.2424 -0.9331  1.4249
 4886SOL     OW15556   1.907   6.735   1.148  0.0598  0.4028  0.0777
 4886SOL    HW115557   1.948   6.654   1.107 -0.1404  0.8772 -1.0808
 4886SOL    HW215558   1.811   6.716   1.170 -0.0190  0.3640 -0.2995
 4887SOL     OW15559   4.371   5.951   2.697  0.1557 -0.1331 -0.4518
 4887SOL    HW115560   4.347   5.854   2.695  0.6201 -0.2747  0.4321
 4887SOL    HW215561   4.389   5.979   2.791 -0.9079  1.0484 -0.5644
 4888SOL     OW15562   0.987   6.033   5.286 -0.6672  0.1827  0.1960
 4888SOL    HW115563   1.070   6.028   5.342 -0.3148 -0.7718 -0.3900
 4888SOL    HW215564   0.907   6.039   5.346 -0.1509  1.8020  0.7622
 4889SOL     OW15565   4.917   5.582   3.530 -0.2401 -0.0390 -0.0485
 4889SOL    HW115566   4.896   5.612   3.437 -1.4718  1.0365  0.5436
 4889SOL    HW215567   4.839   5.532   3.567  0.2813 -0.5500  0.3816
 4890SOL     OW15568   0.286   4.549   0.763 -0.1433  0.1319  0.0718
 4890SOL    HW115569   0.322   4.541   0.670  0.7566  0.0686  0.4180
 4890SOL    HW215570   0.318   4.471   0.818  0.7660  1.0596  0.8977
 4891SOL     OW15571   1.225   4.053   4.392  0.3483 -0.1774 -0.5119
 4891SOL    HW115572   1.154   4.123   4.386 -1.0456 -1.4252  0.5358
 4891SOL    HW215573   1.295   4.083   4.457 -0.6803 -0.0906  0.5925
 4892SOL     OW15574   3.354   6.097   0.931  0.6425 -0.0318 -0.1874
 4892SOL    HW115575   3.437   6.109   0.877  0.7363 -2.1550 -0.5838
 4892SOL    HW215576   3.338   6.000   0.948 -1.1549  0.3890  0.8662
 4893SOL     OW15577   5.896   0.038   1.544 -0.2787  0.1321 -0.1807
 4893SOL    HW115578   5.865  -0.013   1.625 -0.0793  0.5803  0.1869
 4893SOL    HW215579   5.889   0.136   1.562  0.4645  0.2407 -0.4293
 4894SOL     OW15580   2.419   4.150   5.744  0.4821 -0.0589  0.0791
 4894SOL    HW115581   2.363   4.133   5.825 -0.1394  0.1847 -0.2936
 4894SOL    HW215582   2.467   4.237   5.754 -0.3526  0.4425 -0.2277
 4895SOL     OW15583   0.477   4.675   3.435  0.0293  0.3704 -0.3813
 4895SOL    HW115584   0.570   4.637   3.436  0.2466  0.9099 -0.1650
 4895SOL    HW215585   0.475   4.760   3.488 -1.1739 -1.0201  1.9842
 4896SOL     OW15586   0.606   2.589   5.583  0.2239 -0.9005  0.2579
 4896SOL    HW115587   0.585   2.565   5.488  0.4757  0.1826 -0.0889
 4896SOL    HW215588   0.539   2.656   5.615  1.3634  0.3320  0.1279
 4897SOL     OW15589   6.167   3.303   6.950  0.0315  0.5667 -0.1804
 4897SOL    HW115590   6.119   3.348   7.025 -0.2316  1.2089 -0.7134
 4897SOL    HW215591   6.104   3.292   6.873  0.2873 -0.1030 -0.2961
 4898SOL     OW15592   2.716   1.931   6.500 -0.3634  0.0811  0.2169
 4898SOL    HW115593   2.658   1.874   6.559  1.6264 -1.3233  0.9243
 4898SOL    HW215594   2.767   1.996   6.556 -0.2966  0.4479 -0.2624
 4899SOL     OW15595   6.642   5.039   4.283 -0.0542  0.5757 -0.2348
 4899SOL    HW115596   6.641   5.001   4.376 -0.0339  0.4120 -0.3015
 4899SOL    HW215597   6.678   5.132   4.285 -0.9687  0.9356  0.0621
 4900SOL     OW15598   0.678   4.474   6.838 -0.2274 -0.6836  0.7586
 4900SOL    HW115599   0.748   4.417   6.796  0.8857  0.4881  0.9549
 4900SOL    HW215600   0.664   4.556   6.783  0.0496  0.0669  1.7759
 4901SOL     OW15601   2.420   4.691   4.164 -0.5050  0.2628 -0.2910
 4901SOL    HW115602   2.518   4.697   4.180 -0.4064 -0.1238 -0.7133
 4901SOL    HW215603   2.402   4.620   4.095 -1.0895  0.2173 -0.0975
 4902SOL     OW15604   0.135   1.889   5.416 -0.8741  0.2632 -0.4399
 4902SOL    HW115605   0.097   1.831   5.488 -2.5113 -0.8085 -2.0744
 4902SOL    HW215606   0.201   1.836   5.362  0.2124  1.0085  0.1071
 4903SOL     OW15607   2.059   3.665   4.743  0.0211 -0.1438  0.1263
 4903SOL    HW115608   2.103   3.753   4.756 -1.4267  0.4041  1.7354
 4903SOL    HW215609   2.072   3.608   4.825 -1.0053 -0.5120  0.0483
 4904SOL     OW15610   6.210   1.603   3.525  0.1843  0.5863  0.1773
 4904SOL    HW115611   6.184   1.534   3.592  1.0397 -0.7690 -0.8257
 4904SOL    HW215612   6.129   1.655   3.497 -0.4230  0.1826  1.1378
 4905SOL     OW15613   4.106   2.157   6.253 -0.2831 -0.4944  0.1887
 4905SOL    HW115614   4.139   2.139   6.345  0.3924 -0.6281 -0.0702
 4905SOL    HW215615   4.157   2.234   6.214  1.5486 -2.2521 -1.1250
 4906SOL     OW15616   4.020   6.378   4.178 -0.5703  0.0577 -0.0055
 4906SOL    HW115617   4.085   6.316   4.133  0.1366 -0.3766  1.5694
 4906SOL    HW215618   3.981   6.439   4.109 -0.2013 -1.1616 -1.3634
 4907SOL     OW15619   6.586   2.918   5.070 -0.2391  0.0888  0.5382
 4907SOL    HW115620   6.595   2.823   5.099  1.0469  0.6211  2.0224
 4907SOL    HW215621   6.553   2.973   5.147 -0.1693  0.9849 -0.0623
 4908SOL     OW15622   2.252   0.740   6.629 -0.0393  0.5473 -0.4581
 4908SOL    HW115623   2.273   0.833   6.661  1.4627  0.2091 -0.3756
 4908SOL    HW215624   2.195   0.693   6.696  2.4315  0.1094  1.4792
 4909SOL     OW15625   4.388   1.353   4.111  0.2981  0.4530 -0.1940
 4909SOL    HW115626   4.407   1.421   4.182  0.6890 -0.2316  0.3744
 4909SOL    HW215627   4.403   1.393   4.021  0.0349  1.2611  0.1127
 4910SOL     OW15628   6.829   4.576   1.422 -0.2546 -0.2823 -0.0136
 4910SOL    HW115629   6.780   4.531   1.348  0.4548 -1.0954 -0.0014
 4910SOL    HW215630   6.894   4.512   1.463 -1.3783 -0.1939  2.0299
 4911SOL     OW15631   1.450   6.606   5.327 -0.3101 -0.2358  0.7653
 4911SOL    HW115632   1.358   6.610   5.288  0.0789  0.4530 -0.1187
 4911SOL    HW215633   1.475   6.510   5.344 -0.4856 -0.5699 -0.7387
 4912SOL     OW15634   6.183   0.532   2.043 -0.2142  0.0500 -0.6298
 4912SOL    HW115635   6.170   0.538   1.944  1.4031 -1.3153 -0.9836
 4912SOL    HW215636   6.112   0.474   2.082 -0.1085 -0.4865 -1.2069
 4913SOL     OW15637   6.752   0.723   5.624  0.8881 -0.0338 -0.5541
 4913SOL    HW115638   6.786   0.794   5.563 -0.0086  1.1174  0.2646
 4913SOL    HW215639   6.709   0.764   5.704 -0.0038 -1.4956 -0.2426
 4914SOL     OW15640   2.887   6.307   2.864 -0.7698 -0.4379  0.3529
 4914SOL    HW115641   2.796   6.266   2.867 -1.2112  0.5748  1.1115
 4914SOL    HW215642   2.880   6.405   2.847 -0.1010  0.3809  3.9134
 4915SOL     OW15643   3.263   5.787   4.937 -0.8953  0.0857 -0.1446
 4915SOL    HW115644   3.197   5.713   4.924  0.0585 -1.0912  1.3227
 4915SOL    HW215645   3.345   5.768   4.882 -1.1302  0.7281 -0.7347
 4916SOL     OW15646   6.497   1.622   4.641 -0.1518  0.6368 -0.0667
 4916SOL    HW115647   6.580   1.604   4.694  0.1250 -0.6879 -0.9053
 4916SOL    HW215648   6.506   1.581   4.550 -0.9599  2.1325 -0.8590
 4917SOL     OW15649   3.809   2.996   2.499 -0.2358 -0.2718 -0.1923
 4917SOL    HW115650   3.787   2.960   2.409 -3.0892 -1.6590  0.9499
 4917SOL    HW215651   3.773   3.089   2.508  1.9483  0.7399 -1.1203
 4918SOL     OW15652   2.481   1.248   3.231 -0.2378 -0.4242  0.2345
 4918SOL    HW115653   2.509   1.341   3.253 -1.7292 -0.0682  0.7707
 4918SOL    HW215654   2.487   1.191   3.313  2.5226 -1.3605 -0.4927
 4919SOL     OW15655   5.321   2.886   6.430 -0.2890 -0.1085 -0.1065
 4919SOL    HW115656   5.346   2.827   6.353 -1.0590 -0.9576  0.2734
 4919SOL    HW215657   5.403   2.904   6.486  0.2675  0.4901 -1.0795
 4920SOL     OW15658   0.844   3.387   4.945  0.2277  0.0620  0.3316
 4920SOL    HW115659   0.931   3.425   4.913 -0.0797 -0.2613 -0.9615
 4920SOL    HW215660   0.779   3.462   4.960 -0.2041  0.1559 -1.6813
 4921SOL     OW15661   2.159   5.837   1.214  0.2916 -0.5196 -0.1746
 4921SOL    HW115662   2.238   5.872   1.163  0.6344 -3.4352 -1.8555
 4921SOL    HW215663   2.188   5.761   1.272 -0.6160  0.9945  2.4561
 4922SOL     OW15664   4.856   6.819   4.492  0.1834  0.1979 -0.0526
 4922SOL    HW115665   4.956   6.821   4.496  0.3460 -2.7155 -0.7877
 4922SOL    HW215666   4.819   6.805   4.584  0.4698  0.3993  0.0966
 4923SOL     OW15667   5.735   2.667   1.726  0.3010  0.3533  0.2301
 4923SOL    HW115668   5.707   2.713   1.642 -1.9578  0.7870  1.1365
 4923SOL    HW215669   5.833   2.678   1.739  1.2520 -1.7625 -3.5052
 4924SOL     OW15670   0.601   7.005   0.434 -0.2805  0.4399 -0.5295
 4924SOL    HW115671   0.532   6.961   0.377  1.6387 -1.4552 -1.5450
 4924SOL    HW215672   0.591   6.975   0.529 -0.3446 -0.5062 -0.8273
 4925SOL     OW15673   1.916   1.751   4.433 -0.2210  0.1999 -0.1417
 4925SOL    HW115674   1.913   1.762   4.532 -1.5585  0.2018 -0.1703
 4925SOL    HW215675   1.834   1.704   4.402  0.5155 -0.4399 -1.1822
 4926SOL     OW15676   3.288   3.335   1.896  0.4167 -0.1338  0.1786
 4926SOL    HW115677   3.337   3.257   1.858  2.7195  1.3524 -0.0692
 4926SOL    HW215678   3.342   3.376   1.969 -1.1505  0.7384  0.9017
 4927SOL     OW15679   3.376   3.650   3.600 -0.2394  0.3366 -0.6346
 4927SOL    HW115680   3.405   3.612   3.512  1.4429 -2.7219  1.0564
 4927SOL    HW215681   3.444   3.717   3.631  0.9580 -0.9726 -0.2919
 4928SOL     OW15682   0.850   2.583   0.773  0.5244  0.0867 -0.0839
 4928SOL    HW115683   0.839   2.682   0.782 -1.8095 -0.2618  2.2657
 4928SOL    HW215684   0.778   2.547   0.714 -0.4630 -0.4450  1.3794
 4929SOL     OW15685   4.104   1.833   6.531  0.5633 -0.0027  0.1383
 4929SOL    HW115686   4.010   1.829   6.565  0.7954 -0.0890  0.7865
 4929SOL    HW215687   4.133   1.928   6.528  0.6312 -0.0136  0.4337
 4930SOL     OW15688   2.313   4.248   6.564  0.0379 -0.2153 -0.2219
 4930SOL    HW115689   2.410   4.272   6.573  0.0816 -0.6186  0.4757
 4930SOL    HW215690   2.267   4.267   6.650 -0.4015 -0.4915 -0.3973
 4931SOL     OW15691   2.948   3.045   5.427  0.2794  0.4669  0.2150
 4931SOL    HW115692   3.013   3.065   5.353  1.2180  0.8672  1.1285
 4931SOL    HW215693   2.858   3.080   5.402  0.9724  2.1636 -0.0001
 4932SOL     OW15694   5.204   1.459   2.378  0.7210  0.5993  0.3207
 4932SOL    HW115695   5.271   1.473   2.305  1.0189 -1.5194  0.1270
 4932SOL    HW215696   5.207   1.537   2.441  2.0751  1.3934 -0.6668
 4933SOL     OW15697   6.116   2.833   4.126 -0.9357 -0.1877 -0.0647
 4933SOL    HW115698   6.138   2.759   4.062 -1.6344 -1.8301  1.4728
 4933SOL    HW215699   6.159   2.918   4.096  0.6865 -1.4146 -1.4276
 4934SOL     OW15700   6.937   2.903   0.403  0.0825  0.4494  0.2038
 4934SOL    HW115701   6.910   2.895   0.308 -0.6193  0.8852  0.3570
 4934SOL    HW215702   6.867   2.955   0.453  1.9463  3.1140  0.2625
 4935SOL     OW15703   2.572   6.828   2.551 -0.3478  0.4322  0.0993
 4935SOL    HW115704   2.510   6.751   2.565 -0.6132  0.8654  1.4503
 4935SOL    HW215705   2.534   6.890   2.483 -0.7350  0.0150 -0.0698
 4936SOL     OW15706   0.063   2.938   6.314  0.1508 -0.2163 -0.3763
 4936SOL    HW115707  -0.000   2.933   6.391 -1.2415  1.4197 -1.3301
 4936SOL    HW215708   0.119   3.021   6.323  1.9357 -1.4423  0.2520
 4937SOL     OW15709   5.609   3.546   4.951  0.7492 -0.1102  0.2372
 4937SOL    HW115710   5.537   3.477   4.952  0.7903 -0.1474  1.3584
 4937SOL    HW215711   5.622   3.583   5.043  1.9609  0.1055 -0.0003
 4938SOL     OW15712   4.476   5.368   5.307  0.5609  0.0978 -0.2696
 4938SOL    HW115713   4.533   5.346   5.227  0.2844  2.0359 -1.0465
 4938SOL    HW215714   4.518   5.444   5.358 -0.6942  0.7315 -0.1558
 4939SOL     OW15715   1.922   6.872   6.105  0.0504 -0.5756  0.3943
 4939SOL    HW115716   1.900   6.846   6.199 -1.1505 -1.0295  0.0119
 4939SOL    HW215717   1.861   6.823   6.042  0.6318 -0.0503 -0.6015
 4940SOL     OW15718   2.547   6.724   6.885  0.2397  0.1995  0.0416
 4940SOL    HW115719   2.494   6.715   6.801  0.8433 -0.1601 -0.3019
 4940SOL    HW215720   2.641   6.750   6.863  0.5046 -0.2887  0.5721
 4941SOL     OW15721   6.965   4.572   5.232 -0.6332  0.1290 -0.2215
 4941SOL    HW115722   6.906   4.508   5.182 -0.1018 -0.7539  0.2502
 4941SOL    HW215723   7.052   4.581   5.185 -0.6901  0.4711 -0.2594
 4942SOL     OW15724   3.974   2.475   6.312  0.0953  0.0350  0.0582
 4942SOL    HW115725   3.884   2.513   6.289  0.9600  3.3701  1.5161
 4942SOL    HW215726   3.975   2.447   6.408  0.9185  1.3000  0.4485
 4943SOL     OW15727   4.865   5.107   4.340 -0.0217 -0.2005 -0.4583
 4943SOL    HW115728   4.955   5.139   4.370 -0.6332  2.0522 -0.8204
 4943SOL    HW215729   4.811   5.078   4.419 -0.3650  2.3135  0.3277
 4944SOL     OW15730   3.192   3.323   6.697 -0.5118  0.3424 -0.0604
 4944SOL    HW115731   3.224   3.239   6.653  0.5541  0.9635 -0.4885
 4944SOL    HW215732   3.120   3.300   6.763  2.1904 -1.4272  2.5585
 4945SOL     OW15733   4.426   2.099   4.149  0.0371  0.2586  0.1947
 4945SOL    HW115734   4.427   2.072   4.245 -0.8982 -0.5997 -0.0186
 4945SOL    HW215735   4.396   2.022   4.093 -0.7346  1.1404 -0.6462
 4946SOL     OW15736   0.998   5.381   0.917 -0.0412 -0.1060 -0.1847
 4946SOL    HW115737   1.012   5.431   1.003  0.2402 -2.0276  0.9418
 4946SOL    HW215738   1.076   5.398   0.856  0.6894 -0.1976  0.7004
 4947SOL     OW15739   4.818   5.048   1.793 -0.1398  0.3496  0.0077
 4947SOL    HW115740   4.876   5.035   1.873  0.4480  0.3667 -0.4076
 4947SOL    HW215741   4.756   4.970   1.784 -0.0827  0.2594  0.3762
 4948SOL     OW15742   3.507   6.877   6.824 -0.3026  0.1368 -0.4230
 4948SOL    HW115743   3.527   6.904   6.730  0.7121 -0.5445 -0.4296
 4948SOL    HW215744   3.443   6.800   6.824  0.1330 -0.2331 -0.5954
 4949SOL     OW15745   5.002   3.593   6.125  0.1399 -0.1987 -0.4284
 4949SOL    HW115746   5.003   3.562   6.220  2.5476  2.8082  0.7207
 4949SOL    HW215747   5.064   3.536   6.070  0.2819 -0.7445  0.2823
 4950SOL     OW15748   6.393   2.544   0.454  0.2156  0.3833 -0.0502
 4950SOL    HW115749   6.449   2.461   0.442 -1.7923 -1.3744  1.8789
 4950SOL    HW215750   6.439   2.621   0.410  3.1134 -1.3350 -0.3363
 4951SOL     OW15751   3.028   6.312   5.311  0.2912  0.4005 -0.6780
 4951SOL    HW115752   3.088   6.391   5.323  1.5450 -0.3761 -1.4921
 4951SOL    HW215753   2.952   6.335   5.250 -0.7336  1.6335  1.0108
 4952SOL     OW15754   4.663   0.362   4.090  0.1155 -0.3388 -0.0124
 4952SOL    HW115755   4.699   0.270   4.075  0.3318 -0.7114  2.3073
 4952SOL    HW215756   4.571   0.369   4.052  0.4562 -1.2035 -1.0221
 4953SOL     OW15757   6.177   6.547   5.800  0.5105  0.5781 -0.2901
 4953SOL    HW115758   6.206   6.465   5.750  0.1967  1.5051 -2.1113
 4953SOL    HW215759   6.082   6.536   5.830 -0.5241  1.2203 -2.9588
 4954SOL     OW15760   1.773   4.168   6.133 -1.0796 -0.1180 -0.2718
 4954SOL    HW115761   1.843   4.097   6.140  0.8046  1.5163 -1.3814
 4954SOL    HW215762   1.696   4.134   6.078  0.3695 -0.9025 -1.9301
 4955SOL     OW15763   0.109   0.189   4.479  0.3046  0.4542 -0.6730
 4955SOL    HW115764   0.122   0.120   4.551  1.1929  1.2570 -0.0311
 4955SOL    HW215765   0.190   0.248   4.475 -0.9539  2.3123 -0.2782
 4956SOL     OW15766   4.341   6.972   5.570  0.1762  0.0661 -0.3296
 4956SOL    HW115767   4.357   7.056   5.519 -0.8137 -0.5655 -1.7494
 4956SOL    HW215768   4.257   6.928   5.537  1.0277 -1.8219 -0.1261
 4957SOL     OW15769   5.423   6.504   1.271 -0.6494  0.6642  0.2825
 4957SOL    HW115770   5.484   6.536   1.198  1.0967 -0.4189  1.1997
 4957SOL    HW215771   5.450   6.546   1.357 -1.8698  0.9417  0.5410
 4958SOL     OW15772   3.110   0.806   6.006  0.2658  0.2269  0.2977
 4958SOL    HW115773   3.190   0.804   6.065 -0.0923 -0.3903  0.7825
 4958SOL    HW215774   3.105   0.894   5.959  1.4116  0.1439 -0.0095
 4959SOL     OW15775   1.678   3.648   1.138 -0.0976  0.5411 -0.1282
 4959SOL    HW115776   1.737   3.611   1.210  0.6234  0.0608 -0.9564
 4959SOL    HW215777   1.591   3.675   1.179  0.3701  0.4777  0.9666
 4960SOL     OW15778   3.935   3.539   6.193  0.2289  0.0597 -0.0235
 4960SOL    HW115779   3.842   3.510   6.169 -0.3022  1.3307  0.3607
 4960SOL    HW215780   3.934   3.637   6.213  1.3796 -0.1987  1.4530
 4961SOL     OW15781   5.341   4.053   2.352  0.2687  0.0616  0.3112
 4961SOL    HW115782   5.322   3.957   2.376  0.2495 -0.2147 -0.7692
 4961SOL    HW215783   5.306   4.072   2.260  1.3110  0.7865  0.0530
 4962SOL     OW15784   5.728   5.930   3.170 -0.7489 -0.1127 -0.3390
 4962SOL    HW115785   5.726   5.882   3.257  2.2557 -0.4476 -0.3483
 4962SOL    HW215786   5.639   5.974   3.154 -1.9068 -1.3702  2.0664
 4963SOL     OW15787   4.230   6.966   6.763 -0.1759  0.1939  0.2281
 4963SOL    HW115788   4.138   6.984   6.799  0.3480  0.2981  1.5729
 4963SOL    HW215789   4.254   6.871   6.779  0.9786  0.7811  2.4207
 4964SOL     OW15790   1.490   5.542   3.434  0.5122  0.2898  0.3253
 4964SOL    HW115791   1.409   5.503   3.478 -1.0380  2.1178 -0.7342
 4964SOL    HW215792   1.500   5.503   3.342  0.1826  0.8749  0.0412
 4965SOL     OW15793   0.726   6.553   6.283 -0.0300 -0.5273 -0.1032
 4965SOL    HW115794   0.754   6.637   6.328  1.2944 -0.8481 -0.2820
 4965SOL    HW215795   0.695   6.573   6.190  1.9077 -0.3948 -0.7569
 4966SOL     OW15796   1.059   6.201   6.656 -0.0920  0.0279 -0.4610
 4966SOL    HW115797   1.038   6.104   6.670 -3.2971  0.7656  0.9452
 4966SOL    HW215798   0.984   6.243   6.604  0.8824  1.9019 -0.4146
 4967SOL     OW15799   1.510   2.858   1.903 -0.1877 -0.0045  0.4633
 4967SOL    HW115800   1.552   2.808   1.979 -0.9376 -2.3078 -0.5632
 4967SOL    HW215801   1.580   2.884   1.837 -0.1044 -2.7383 -0.6339
 4968SOL     OW15802   0.603   0.936   3.583 -0.2214  0.3251 -0.5182
 4968SOL    HW115803   0.520   0.977   3.544 -2.5056 -0.0144  3.4289
 4968SOL    HW215804   0.598   0.836   3.576  0.5754  0.3406 -1.4872
 4969SOL     OW15805   2.077   6.008   5.484  0.2470 -0.0175  0.4260
 4969SOL    HW115806   2.144   5.974   5.550 -0.1670  0.5340  1.1418
 4969SOL    HW215807   1.986   5.975   5.508  0.2423 -0.6921 -0.4939
 4970SOL     OW15808   6.157   0.147   0.841  0.1782  0.6109  0.1930
 4970SOL    HW115809   6.128   0.107   0.928 -0.4030  1.3291  0.3334
 4970SOL    HW215810   6.089   0.213   0.810  0.7032  0.8490 -0.4798
 4971SOL     OW15811   1.012   2.891   1.378  0.2432  0.7527  0.0243
 4971SOL    HW115812   1.040   2.883   1.283  1.0289  1.8477  0.1400
 4971SOL    HW215813   1.061   2.967   1.421 -1.9419  1.8988  0.6293
 4972SOL     OW15814   4.393   6.805   1.112  0.3904 -0.3027  0.1880
 4972SOL    HW115815   4.482   6.834   1.076 -0.1580  1.7672  0.3306
 4972SOL    HW215816   4.390   6.824   1.210 -0.0759 -0.7389  0.2602
 4973SOL     OW15817   6.157   3.581   6.730  0.0918 -0.1346 -0.7385
 4973SOL    HW115818   6.063   3.551   6.744 -0.0628  1.3156  2.0977
 4973SOL    HW215819   6.218   3.529   6.789  0.7931  0.2251 -1.1346
 4974SOL     OW15820   6.446   6.509   1.368  0.2034  0.2857  0.2469
 4974SOL    HW115821   6.516   6.560   1.418 -1.1278 -0.7071  3.3961
 4974SOL    HW215822   6.380   6.572   1.327 -0.2144  1.1943  2.2110
 4975SOL     OW15823   5.437   6.693   2.436  0.0675  0.6314 -0.1936
 4975SOL    HW115824   5.534   6.701   2.412  0.1804 -0.9024 -0.3417
 4975SOL    HW215825   5.393   6.782   2.426  1.7257  1.6562  1.1386
 4976SOL     OW15826   1.080   6.652   4.153 -0.2084 -0.2322 -0.4865
 4976SOL    HW115827   1.079   6.737   4.206 -1.7738 -0.6755  0.2507
 4976SOL    HW215828   1.172   6.612   4.157 -0.5239 -0.9923  3.2076
 4977SOL     OW15829   3.158   2.287   0.400 -0.1392 -0.0412 -0.2962
 4977SOL    HW115830   3.129   2.343   0.323  0.3853 -1.1761 -1.3447
 4977SOL    HW215831   3.094   2.300   0.476 -1.9060 -0.4852 -1.6328
 4978SOL     OW15832   4.230   1.822   5.012 -0.3855 -0.0975 -0.0176
 4978SOL    HW115833   4.223   1.914   5.052  1.9643  0.1273  0.0188
 4978SOL    HW215834   4.213   1.827   4.914  0.6753  0.5890 -0.1874
 4979SOL     OW15835   3.619   5.814   3.024  0.1102 -0.2416 -0.1971
 4979SOL    HW115836   3.642   5.734   2.969  0.0413 -1.4762  1.4992
 4979SOL    HW215837   3.549   5.868   2.976  0.0895 -1.2241 -1.3293
 4980SOL     OW15838   0.443   6.261   2.674 -0.6385  0.0371 -0.6992
 4980SOL    HW115839   0.519   6.311   2.716 -0.6153  1.2342 -2.1178
 4980SOL    HW215840   0.385   6.223   2.746 -1.4176  3.2486  0.5073
 4981SOL     OW15841   3.462   4.904   2.836  0.0271 -0.3950  0.2627
 4981SOL    HW115842   3.550   4.933   2.871  0.7150 -0.1755 -1.5228
 4981SOL    HW215843   3.466   4.898   2.736 -1.4585 -2.0886  0.2427
 4982SOL     OW15844   2.855   0.362   5.809 -0.4097 -0.1570 -0.0433
 4982SOL    HW115845   2.937   0.420   5.805  0.4509 -1.3897 -0.7477
 4982SOL    HW215846   2.855   0.309   5.893 -1.5481  1.3169  0.9330
 4983SOL     OW15847   1.338   6.563   3.132  0.2192 -0.0736 -0.7280
 4983SOL    HW115848   1.292   6.492   3.079  1.4308  0.0251 -1.9533
 4983SOL    HW215849   1.390   6.622   3.071 -1.2607  2.2983  0.1823
 4984SOL     OW15850   2.243   3.358   6.766  0.0719  0.5265 -0.9026
 4984SOL    HW115851   2.204   3.448   6.745  1.0896  1.2873  0.3101
 4984SOL    HW215852   2.282   3.318   6.684 -3.9142 -0.6894 -2.4416
 4985SOL     OW15853   1.523   0.989   6.869 -0.1174 -0.1302  0.7546
 4985SOL    HW115854   1.608   0.960   6.913  0.6289 -3.7591 -2.4813
 4985SOL    HW215855   1.543   1.064   6.805  0.4428 -0.2634  0.7672
 4986SOL     OW15856   5.693   6.521   5.024  0.3666  0.0912 -0.2445
 4986SOL    HW115857   5.750   6.446   5.059  1.9802  0.8918 -1.0166
 4986SOL    HW215858   5.745   6.572   4.955 -1.9876 -0.2200 -2.3813
 4987SOL     OW15859   2.122   3.649   2.822  0.0403  0.1595  0.3008
 4987SOL    HW115860   2.058   3.726   2.828 -2.0469 -1.2559 -1.9070
 4987SOL    HW215861   2.087   3.573   2.877  1.6201  0.4142  1.7443
 4988SOL     OW15862   3.632   6.991   5.394 -0.1255  0.2818  0.3133
 4988SOL    HW115863   3.688   7.065   5.356  0.8214 -0.0559  1.0383
 4988SOL    HW215864   3.589   6.940   5.319  0.5381  0.5300 -0.2464
 4989SOL     OW15865   5.684   3.536   0.628 -0.1586  0.0691 -0.2794
 4989SOL    HW115866   5.746   3.487   0.567 -0.3758  0.9866 -1.2702
 4989SOL    HW215867   5.590   3.520   0.599 -0.2482  0.7527 -0.3718
 4990SOL     OW15868   1.566   0.610   1.894  0.0222  0.0296  0.6448
 4990SOL    HW115869   1.552   0.707   1.876 -1.8939 -0.3016  0.1604
 4990SOL    HW215870   1.637   0.574   1.833 -0.1350  0.8522 -0.0263
 4991SOL     OW15871   1.396   0.885   3.518 -0.0532  0.5280 -0.4890
 4991SOL    HW115872   1.399   0.894   3.618 -0.4186  0.8316 -0.5019
 4991SOL    HW215873   1.467   0.822   3.488  1.6399  2.1915 -0.2287
 4992SOL     OW15874   5.313   4.418   6.373 -0.4735 -0.5609  0.0729
 4992SOL    HW115875   5.365   4.363   6.308 -1.1843 -1.4387  0.2219
 4992SOL    HW215876   5.301   4.367   6.458  0.7645  0.7196  1.0521
 4993SOL     OW15877   6.289   1.602   5.764  0.3104 -0.1027 -0.1278
 4993SOL    HW115878   6.216   1.592   5.696 -0.4183  1.0338  0.4636
 4993SOL    HW215879   6.367   1.649   5.721  0.7689 -1.4211 -0.7912
 4994SOL     OW15880   5.242   2.832   2.263 -0.1410  0.3036 -0.0760
 4994SOL    HW115881   5.320   2.778   2.230 -0.3241  0.2061 -0.3498
 4994SOL    HW215882   5.270   2.883   2.345  1.1433  2.6303 -1.8461
 4995SOL     OW15883   0.493   2.020   2.909 -0.4380  0.7257  0.3373
 4995SOL    HW115884   0.417   1.979   2.859  0.5639  0.8229 -1.3338
 4995SOL    HW215885   0.566   2.043   2.846  0.5951  1.5617  1.7695
 4996SOL     OW15886   0.075   2.054   5.110  0.1035  0.4364  0.5526
 4996SOL    HW115887   0.163   2.075   5.067 -0.2326  1.3447  0.2711
 4996SOL    HW215888   0.065   1.955   5.120  1.0416  0.3130  0.3492
 4997SOL     OW15889   4.210   0.834   1.859  1.1199  0.4129 -0.5849
 4997SOL    HW115890   4.204   0.810   1.763  0.5412  0.4833 -0.5696
 4997SOL    HW215891   4.163   0.921   1.875  0.1261 -0.1989 -0.0376
 4998SOL     OW15892   1.751   6.696   3.421  0.2064 -0.2675  0.1683
 4998SOL    HW115893   1.677   6.642   3.381  0.1072  0.6487 -0.9068
 4998SOL    HW215894   1.717   6.787   3.445  0.6319 -0.3213  1.0359
 4999SOL     OW15895   0.695   2.404   1.158  0.4763 -0.5727  0.4867
 4999SOL    HW115896   0.759   2.361   1.094  0.7318 -2.5031  1.9455
 4999SOL    HW215897   0.733   2.490   1.190  1.7645 -1.0569  0.3276
 5000SOL     OW15898   1.485   6.577   0.054 -0.1169  0.0411 -0.0474
 5000SOL    HW115899   1.519   6.513   0.123  0.1422 -0.2551 -0.4473
 5000SOL    HW215900   1.467   6.528  -0.032  0.4083  0.5524 -0.4601
 5001SOL     OW15901   6.792   5.775   6.265  0.0547 -0.0694  0.2060
 5001SOL    HW115902   6.694   5.777   6.246  0.3748  2.2443 -1.5791
 5001SOL    HW215903   6.839   5.723   6.193  0.2755 -0.0852  0.3588
 5002SOL     OW15904   0.627   4.913   5.157 -0.1694 -0.6172 -0.3829
 5002SOL    HW115905   0.683   4.968   5.219 -0.3434 -0.0544 -0.7182
 5002SOL    HW215906   0.645   4.939   5.062 -2.3996  1.0353 -0.4579
 5003SOL     OW15907   5.621   3.594   1.835 -0.0722 -0.2126  0.6083
 5003SOL    HW115908   5.612   3.638   1.924  1.6850 -0.2373  0.8263
 5003SOL    HW215909   5.639   3.663   1.765  2.4358 -0.4633  0.9121
 5004SOL     OW15910   2.400   1.901   6.670  0.1817 -0.2536 -0.1731
 5004SOL    HW115911   2.420   1.987   6.623 -0.3096  0.4893  0.9294
 5004SOL    HW215912   2.318   1.912   6.727  1.1123 -0.8984  1.3649
 5005SOL     OW15913   0.770   4.048   2.302  0.9904  0.1772 -0.2067
 5005SOL    HW115914   0.843   4.045   2.233  0.1417 -1.9744 -1.0659
 5005SOL    HW215915   0.681   4.052   2.257  0.4790  0.8311  0.8195
 5006SOL     OW15916   2.419   5.105   1.544  0.3512 -0.3486 -0.0555
 5006SOL    HW115917   2.355   5.031   1.523  1.3082 -1.1211 -0.3810
 5006SOL    HW215918   2.511   5.078   1.515  0.5954  1.3339 -0.9637
 5007SOL     OW15919   6.339   0.912   2.509  0.6525 -0.2347 -0.4128
 5007SOL    HW115920   6.276   0.988   2.494  1.1749  0.2175 -0.3122
 5007SOL    HW215921   6.312   0.863   2.592  1.9381  1.5253  1.1223
 5008SOL     OW15922   0.001   5.924   1.493  0.0217 -0.2126 -0.4606
 5008SOL    HW115923   0.039   5.833   1.506 -0.9160 -1.1315 -3.3729
 5008SOL    HW215924  -0.003   5.945   1.396 -2.0743  1.9543 -0.0089
 5009SOL     OW15925   1.352   6.346   0.717  0.5700  0.2316 -0.4157
 5009SOL    HW115926   1.354   6.418   0.648 -0.5804  0.6495 -0.0358
 5009SOL    HW215927   1.375   6.385   0.806 -0.8038  0.2978 -0.0803
 5010SOL     OW15928   5.788   5.806   0.684 -0.1465 -0.6160  0.7959
 5010SOL    HW115929   5.870   5.863   0.687 -0.8856  0.7641 -2.0316
 5010SOL    HW215930   5.707   5.863   0.671 -1.2225 -2.1558  0.3667
 5011SOL     OW15931   0.527   3.457   1.911  0.4627  0.0340  0.1741
 5011SOL    HW115932   0.493   3.522   1.842  2.3099  1.3069  0.3910
 5011SOL    HW215933   0.616   3.422   1.882  0.1442 -1.3024  0.7762
 5012SOL     OW15934   6.332   5.719   1.404 -0.4097 -0.2209  0.3964
 5012SOL    HW115935   6.431   5.726   1.392 -0.3064  0.6506  1.5725
 5012SOL    HW215936   6.288   5.797   1.359 -0.4266  0.2636  1.2437
 5013SOL     OW15937   1.346   3.768   5.070 -0.2764 -0.3091  0.4671
 5013SOL    HW115938   1.353   3.717   4.985  1.3920 -3.1856  2.1461
 5013SOL    HW215939   1.253   3.762   5.106 -1.0586  1.1538 -1.2049
 5014SOL     OW15940   3.535   3.235   6.960  0.0123  0.2727 -0.0317
 5014SOL    HW115941   3.500   3.322   6.994  1.4298  0.1909  1.8136
 5014SOL    HW215942   3.507   3.161   7.021  0.5559 -0.2705 -0.4252
 5015SOL     OW15943   5.926   4.338   6.715  0.2670  0.3105  0.2047
 5015SOL    HW115944   5.949   4.242   6.696  0.4459  0.4395 -0.2475
 5015SOL    HW215945   5.990   4.397   6.666 -1.2045  0.6824 -1.3673
 5016SOL     OW15946   5.764   3.074   1.677  0.2337 -0.1526  0.5107
 5016SOL    HW115947   5.689   3.078   1.743  0.3207 -0.7605  0.6563
 5016SOL    HW215948   5.728   3.042   1.589  0.3047 -0.3602  0.5567
 5017SOL     OW15949   0.918   3.848   3.795 -0.1267 -0.2924  0.2224
 5017SOL    HW115950   0.839   3.899   3.762 -0.0153  1.1754  1.9993
 5017SOL    HW215951   0.992   3.912   3.816  1.9456 -1.6908 -2.2752
 5018SOL     OW15952   3.549   1.233   2.073  0.1878 -0.2220  0.2953
 5018SOL    HW115953   3.494   1.230   1.989  2.1324 -0.5021 -1.0396
 5018SOL    HW215954   3.581   1.141   2.095  1.6814  0.1927 -0.0629
 5019SOL     OW15955   2.859   0.349   0.147 -0.0666 -0.1227  0.0093
 5019SOL    HW115956   2.780   0.378   0.201 -0.5510  0.9366 -1.2351
 5019SOL    HW215957   2.854   0.388   0.056  0.7679 -1.8367 -0.8240
 5020SOL     OW15958   3.412   4.814   0.498 -0.1844 -0.4637 -0.1418
 5020SOL    HW115959   3.450   4.722   0.488 -0.5344 -0.4589 -1.6894
 5020SOL    HW215960   3.337   4.813   0.564  0.6154 -1.0300  0.7819
 5021SOL     OW15961   2.136   0.826   0.218  0.0792  0.0655 -0.0830
 5021SOL    HW115962   2.155   0.844   0.314  1.2677 -0.1765 -0.2600
 5021SOL    HW215963   2.183   0.743   0.189 -0.5645 -0.0724 -0.7908
 5022SOL     OW15964   2.622   6.183   4.010 -0.0905  0.0808 -0.0994
 5022SOL    HW115965   2.659   6.122   3.941 -0.1981  0.0613 -0.1402
 5022SOL    HW215966   2.654   6.154   4.100 -0.0909  0.0026 -0.1242
 5023SOL     OW15967   2.822   4.614   0.011  0.0892 -0.1434 -0.2040
 5023SOL    HW115968   2.856   4.626   0.104 -2.6147  1.1329  0.7194
 5023SOL    HW215969   2.779   4.525   0.002 -0.8546  0.2596  0.2153
 5024SOL     OW15970   2.384   3.734   1.055 -0.0837  0.2568 -0.1618
 5024SOL    HW115971   2.435   3.776   1.131  0.2256 -0.2110 -0.1057
 5024SOL    HW215972   2.439   3.739   0.972 -0.1148  0.1080 -0.1909
 5025SOL     OW15973   6.027   5.805   1.067  0.1089  0.4479  0.0903
 5025SOL    HW115974   5.949   5.807   1.005 -0.4707 -0.7428  0.7625
 5025SOL    HW215975   6.097   5.868   1.033  1.3389 -2.5858 -3.8211
 5026SOL     OW15976   1.499   0.200   5.383  0.1804 -0.5381 -0.2779
 5026SOL    HW115977   1.404   0.198   5.354 -0.1432  0.4738  0.6848
 5026SOL    HW215978   1.550   0.128   5.334 -1.1372 -1.3377 -0.5238
 5027SOL     OW15979   4.555   1.849   6.289  0.3707  0.3301  0.1614
 5027SOL    HW115980   4.493   1.924   6.264  0.2118  0.3224  0.5380
 5027SOL    HW215981   4.565   1.845   6.388 -0.9131 -1.1755  0.2542
 5028SOL     OW15982   2.750   0.237   5.170 -0.8603 -0.1170  0.1536
 5028SOL    HW115983   2.692   0.192   5.102  0.9838  0.0438 -1.6347
 5028SOL    HW215984   2.723   0.332   5.180  0.1473  0.4526 -2.0172
 5029SOL     OW15985   3.329   2.400   6.412  0.3258 -0.0352  0.3003
 5029SOL    HW115986   3.320   2.301   6.409 -0.9808  0.0594  0.4750
 5029SOL    HW215987   3.414   2.425   6.458  0.9893 -1.0684 -0.3295
 5030SOL     OW15988   6.479   1.047   3.617  0.3816 -0.4265 -0.0587
 5030SOL    HW115989   6.513   1.105   3.543 -1.6359 -0.3443 -0.9915
 5030SOL    HW215990   6.464   1.103   3.699  3.3690 -0.6585  0.7619
 5031SOL     OW15991   0.932   2.070   4.626  0.0608 -0.0019 -0.5562
 5031SOL    HW115992   1.011   2.017   4.595  1.2456  0.8216  0.8954
 5031SOL    HW215993   0.937   2.081   4.725 -0.2644  2.5838 -0.7613
 5032SOL     OW15994   2.226   0.833   2.583  0.5644 -0.0977 -0.3723
 5032SOL    HW115995   2.324   0.813   2.582  0.4125 -1.1030 -2.7095
 5032SOL    HW215996   2.197   0.861   2.491 -1.2102  1.0553  0.4718
 5033SOL     OW15997   0.765   2.937   0.446  0.0579 -0.3715 -0.1614
 5033SOL    HW115998   0.787   3.030   0.418  0.8768 -0.5684 -0.2052
 5033SOL    HW215999   0.697   2.939   0.519  1.2095  0.3365  0.9353
 5034SOL     OW16000   0.112   6.628   1.362  0.5792  0.1834  0.5656
 5034SOL    HW116001   0.073   6.697   1.301  0.8515  0.7578  1.0333
 5034SOL    HW216002   0.188   6.583   1.317 -0.3428 -0.6557 -0.1978
 5035SOL     OW16003   0.952   4.878   4.193  0.6856 -0.8476  0.3450
 5035SOL    HW116004   1.036   4.906   4.240 -1.2185  3.1668  1.7504
 5035SOL    HW216005   0.873   4.897   4.250 -1.4284 -1.8948 -2.0093
 5036SOL     OW16006   2.597   2.214   5.973  0.5284  0.0421  0.5120
 5036SOL    HW116007   2.521   2.276   5.954  0.1829 -0.6075 -0.2890
 5036SOL    HW216008   2.561   2.124   5.999  0.9635 -0.7527 -1.4267
 5037SOL     OW16009   3.701   2.165   2.921  0.4984 -0.2246  0.2455
 5037SOL    HW116010   3.717   2.180   3.019  0.9513 -3.0947  0.6942
 5037SOL    HW216011   3.602   2.168   2.903  0.3507 -0.4505  0.9649
 5038SOL     OW16012   3.752   0.207   5.295  0.2230  0.0057  0.2575
 5038SOL    HW116013   3.852   0.205   5.286  0.2370  1.2747 -0.0479
 5038SOL    HW216014   3.716   0.290   5.251 -0.8734  0.0821  1.2596
 5039SOL     OW16015   0.628   1.492   5.241  0.5513  0.5562 -0.2249
 5039SOL    HW116016   0.666   1.414   5.191 -0.1871  0.4563 -0.6351
 5039SOL    HW216017   0.609   1.567   5.177 -3.2861 -0.6245 -0.7312
 5040SOL     OW16018   2.910   1.961   2.854 -0.2417  0.3182  0.2991
 5040SOL    HW116019   2.966   1.979   2.773  0.8470  1.0193  1.1807
 5040SOL    HW216020   2.926   1.867   2.885  0.6775  0.6015  0.7091
 5041SOL     OW16021   0.397   0.187   3.839  0.2468  0.2521  0.1176
 5041SOL    HW116022   0.305   0.200   3.802  0.2814 -0.6726 -0.3197
 5041SOL    HW216023   0.456   0.144   3.770  0.7513 -0.0126  0.6954
 5042SOL     OW16024   1.007   4.381   6.079  0.3715  0.6061 -0.1599
 5042SOL    HW116025   0.963   4.397   5.990  1.2830  0.5119 -0.6420
 5042SOL    HW216026   1.037   4.286   6.085 -0.7589  0.2884  0.7550
 5043SOL     OW16027   0.295   6.147   0.076 -0.1084  0.0919  0.2698
 5043SOL    HW116028   0.200   6.132   0.050  0.4494 -1.3547 -1.1002
 5043SOL    HW216029   0.343   6.192   0.001  0.3161  0.7143  0.9086
 5044SOL     OW16030   1.614   6.375   6.023 -0.4214  0.3240 -0.4217
 5044SOL    HW116031   1.590   6.391   5.927 -2.0624  1.4417  0.1404
 5044SOL    HW216032   1.580   6.286   6.051 -2.4447  1.1324 -0.1485
 5045SOL     OW16033   0.345   2.273   1.457 -0.3132  0.4631  0.0820
 5045SOL    HW116034   0.322   2.261   1.554  0.9317  1.0363  0.4610
 5045SOL    HW216035   0.311   2.362   1.426  1.1690  1.2367  0.5977
 5046SOL     OW16036   2.587   4.265   6.559  0.0616 -0.4299 -0.1874
 5046SOL    HW116037   2.672   4.299   6.599  0.9749  0.1035 -2.4335
 5046SOL    HW216038   2.579   4.166   6.576  0.4743 -0.2606  1.0968
 5047SOL     OW16039   5.128   2.162   5.338 -0.0309 -0.0675 -0.0476
 5047SOL    HW116040   5.145   2.202   5.248  0.5418  0.3572  0.2422
 5047SOL    HW216041   5.209   2.173   5.395  0.1718 -1.6947  0.0315
 5048SOL     OW16042   4.020   0.785   2.636  0.2128  0.0151 -0.1205
 5048SOL    HW116043   4.106   0.734   2.632  1.3659  1.7607  1.1930
 5048SOL    HW216044   4.017   0.838   2.720 -1.5558  1.0695 -0.8039
 5049SOL     OW16045   1.664   1.974   2.652  0.4560  0.4817  0.0030
 5049SOL    HW116046   1.722   2.005   2.728  1.9479 -1.9517 -0.0374
 5049SOL    HW216047   1.683   2.029   2.571  0.3795  1.7405  0.8005
 5050SOL     OW16048   2.794   0.902   4.256  0.0989  0.0133 -0.2350
 5050SOL    HW116049   2.887   0.880   4.230  0.3453  0.6355  0.0993
 5050SOL    HW216050   2.784   0.894   4.356 -0.1777  0.0441 -0.2582
 5051SOL     OW16051   1.585   4.454   3.460 -0.6179  0.0415 -0.6829
 5051SOL    HW116052   1.504   4.447   3.402 -1.6657  0.7112  0.6306
 5051SOL    HW216053   1.657   4.505   3.412 -1.2956  0.1975 -1.5454
 5052SOL     OW16054   6.819   3.612   3.079  0.3722  0.5343 -0.6284
 5052SOL    HW116055   6.789   3.648   3.167 -2.1125  2.7114 -2.2321
 5052SOL    HW216056   6.896   3.667   3.045  0.7988  0.1978 -0.2356
 5053SOL     OW16057   1.619   4.131   0.260 -0.2389 -0.2343  0.2772
 5053SOL    HW116058   1.586   4.223   0.240 -2.2175 -0.6690  1.2575
 5053SOL    HW216059   1.613   4.114   0.358 -0.8718 -1.7356  0.0068
 5054SOL     OW16060   5.673   0.087   0.506 -0.2970 -0.3532 -0.1509
 5054SOL    HW116061   5.716   0.112   0.593  0.0182  0.5278 -0.5476
 5054SOL    HW216062   5.590   0.035   0.524 -0.0501 -0.4777  0.6743
 5055SOL     OW16063   1.048   5.526   0.405 -0.1105 -0.4363 -0.5373
 5055SOL    HW116064   1.078   5.602   0.463  0.5188 -0.7101 -0.4948
 5055SOL    HW216065   1.013   5.452   0.462 -0.9348 -0.1009 -0.5887
 5056SOL     OW16066   1.972   6.226   3.942 -0.5887 -0.4819  0.5038
 5056SOL    HW116067   1.873   6.214   3.953 -0.5520 -0.4793  0.8459
 5056SOL    HW216068   1.990   6.317   3.903 -0.7845 -0.9578 -0.7351
 5057SOL     OW16069   2.475   1.070   5.368 -0.3905  0.2936 -0.6314
 5057SOL    HW116070   2.397   1.032   5.419 -0.6968 -0.6356 -1.7554
 5057SOL    HW216071   2.528   0.995   5.328  1.1074  0.9187  0.1251
 5058SOL     OW16072   3.953   6.593   4.006  0.1631  0.5092  0.7131
 5058SOL    HW116073   3.866   6.608   3.959  0.6660  0.7499 -0.1541
 5058SOL    HW216074   3.976   6.674   4.059  1.0667  1.4434 -1.0412
 5059SOL     OW16075   6.042   5.758   2.749 -0.3932  0.0737 -0.5108
 5059SOL    HW116076   6.026   5.780   2.653  0.4796  1.1606 -0.4231
 5059SOL    HW216077   5.962   5.786   2.803 -1.3582 -1.5395 -1.0210
 5060SOL     OW16078   3.789   0.540   0.799  0.5827 -0.6087  0.1272
 5060SOL    HW116079   3.811   0.474   0.872  1.3040 -0.3426  0.1626
 5060SOL    HW216080   3.691   0.541   0.783  0.2846  0.0386  1.7949
 5061SOL     OW16081   2.830   6.850   5.587 -0.0974  0.0140 -0.0114
 5061SOL    HW116082   2.801   6.936   5.546 -0.9193 -0.0627  0.3943
 5061SOL    HW216083   2.750   6.792   5.606  0.2663 -0.0823  1.3978
 5062SOL     OW16084   2.235   0.139   2.554 -0.0313 -0.7988  0.5369
 5062SOL    HW116085   2.335   0.137   2.548 -0.0615  0.4619 -0.8031
 5062SOL    HW216086   2.196   0.071   2.492 -0.0281  0.5436 -0.9826
 5063SOL     OW16087   1.195   1.485   5.317 -0.1683 -0.5081  0.3481
 5063SOL    HW116088   1.218   1.389   5.305  0.0868 -0.2546 -1.5536
 5063SOL    HW216089   1.096   1.496   5.306 -0.1223 -0.4885 -0.0848
 5064SOL     OW16090   6.988   1.152   4.387 -0.3951 -0.1828 -0.0693
 5064SOL    HW116091   7.074   1.166   4.436  0.1519  0.0977 -1.0641
 5064SOL    HW216092   6.965   1.055   4.385  0.0566 -0.2905 -0.0484
 5065SOL     OW16093   2.049   5.784   4.864  0.9317  0.0558 -0.5970
 5065SOL    HW116094   1.965   5.745   4.903  2.0565 -4.2305 -1.9344
 5065SOL    HW216095   2.096   5.837   4.935 -0.7091 -1.1830  1.5638
 5066SOL     OW16096   6.246   5.217   4.068 -0.3626 -0.6237  0.0600
 5066SOL    HW116097   6.202   5.136   4.107  0.3785 -0.2665  1.7134
 5066SOL    HW216098   6.332   5.235   4.117  1.6660 -1.2613 -2.9482
 5067SOL     OW16099   4.546   6.879   3.740 -0.3308  0.1407  0.0910
 5067SOL    HW116100   4.458   6.885   3.788  0.0793  2.0305  0.6870
 5067SOL    HW216101   4.544   6.937   3.659  0.2734 -0.0667 -0.0767
 5068SOL     OW16102   4.640   0.165   6.707 -0.0353  0.3510 -0.5740
 5068SOL    HW116103   4.725   0.205   6.742  0.0982  1.0416 -1.6219
 5068SOL    HW216104   4.651   0.145   6.610 -0.6485 -0.7960 -0.4233
 5069SOL     OW16105   2.980   0.057   5.102  0.0746  0.4905  0.0612
 5069SOL    HW116106   2.978   0.014   5.192 -0.0357  2.8364  1.2620
 5069SOL    HW216107   2.914   0.132   5.100 -0.4812  0.0209 -2.2791
 5070SOL     OW16108   5.115   1.560   6.090  0.6945  0.6346  0.2588
 5070SOL    HW116109   5.124   1.538   5.993  0.9395  0.2882  0.3607
 5070SOL    HW216110   5.206   1.561   6.132  0.5505  0.3837  0.5737
 5071SOL     OW16111   0.049   3.878   6.355  0.5228 -0.3233  0.1457
 5071SOL    HW116112   0.090   3.934   6.427  1.1157 -0.5133 -0.0387
 5071SOL    HW216113   0.049   3.782   6.383 -0.0033 -0.2982  0.2372
 5072SOL     OW16114   5.820   6.928   1.280 -0.1302  0.3837  0.5205
 5072SOL    HW116115   5.818   6.954   1.377 -0.2569 -0.1946  0.6798
 5072SOL    HW216116   5.809   7.009   1.223  1.3184  0.9350  0.9668
 5073SOL     OW16117   4.602   5.332   5.039  0.1620 -0.8029 -0.2424
 5073SOL    HW116118   4.620   5.370   4.948 -2.5014  0.8822 -0.1833
 5073SOL    HW216119   4.510   5.293   5.042  0.8678 -2.5430  1.2652
 5074SOL     OW16120   0.058   3.145   5.435  0.2471 -0.7406 -0.3982
 5074SOL    HW116121   0.142   3.165   5.383  0.5437  1.1478  0.6841
 5074SOL    HW216122   0.023   3.230   5.474 -2.5638 -1.3734 -1.3065
 5075SOL     OW16123   1.735   4.073   0.027  0.3563  0.0499  0.4836
 5075SOL    HW116124   1.685   4.096   0.110 -0.1993  1.0803 -0.1151
 5075SOL    HW216125   1.694   3.992  -0.015 -0.0584  0.1792  0.6323
 5076SOL     OW16126   6.439   4.730   5.607 -0.4598 -0.0112 -0.5804
 5076SOL    HW116127   6.369   4.778   5.554  0.4367  1.2116 -0.6910
 5076SOL    HW216128   6.467   4.786   5.685 -0.9317 -1.2942  0.5606
 5077SOL     OW16129   1.367   4.217   5.180 -0.0762  0.3271 -0.6202
 5077SOL    HW116130   1.410   4.134   5.216  1.5901  0.1259 -2.8427
 5077SOL    HW216131   1.299   4.250   5.245  0.7053 -1.5732  1.2938
 5078SOL     OW16132   2.715   2.440   6.567 -0.4529 -0.4664 -0.6317
 5078SOL    HW116133   2.760   2.479   6.647 -1.8443 -0.2651  0.0757
 5078SOL    HW216134   2.720   2.340   6.572 -0.0124 -0.4491 -0.6232
 5079SOL     OW16135   5.048   6.983   0.445 -0.1225  0.0620  0.4132
 5079SOL    HW116136   4.991   6.902   0.463  1.2554 -0.8465  0.7826
 5079SOL    HW216137   5.003   7.040   0.376 -0.3209 -1.8967 -1.1567
 5080SOL     OW16138   0.601   0.490   5.692  0.5658 -0.0229  0.3641
 5080SOL    HW116139   0.505   0.479   5.717  0.4450 -1.2785 -0.5489
 5080SOL    HW216140   0.644   0.557   5.753 -1.4848  2.5068 -0.7889
 5081SOL     OW16141   4.217   1.761   2.025  0.0329  0.5686  0.3729
 5081SOL    HW116142   4.216   1.762   2.125 -4.9922 -0.2455  0.5695
 5081SOL    HW216143   4.192   1.852   1.990 -1.0594  0.1594  0.0374
 5082SOL     OW16144   2.106   3.195   2.882  0.4134  0.3481 -0.0310
 5082SOL    HW116145   2.167   3.116   2.881 -0.2857 -0.3641  2.7998
 5082SOL    HW216146   2.040   3.188   2.808  0.9154 -1.2832 -0.3654
 5083SOL     OW16147   0.018   3.126   4.868 -0.4023 -0.1668  0.0623
 5083SOL    HW116148   0.084   3.053   4.849 -0.1441  0.2874 -0.8673
 5083SOL    HW216149  -0.072   3.086   4.886 -0.6656 -0.6844 -2.1452
 5084SOL     OW16150   6.182   6.877   2.399 -0.0958  0.5327 -0.2827
 5084SOL    HW116151   6.181   6.935   2.480  0.0461  2.0461 -1.3346
 5084SOL    HW216152   6.216   6.786   2.424 -0.5130  0.8113  1.4326
 5085SOL     OW16153   3.875   6.847   3.199 -0.0505 -0.6924 -0.2370
 5085SOL    HW116154   3.835   6.880   3.113 -0.7865  0.3847  0.4925
 5085SOL    HW216155   3.867   6.748   3.204 -3.4722 -0.5100  0.2211
 5086SOL     OW16156   1.516   6.965   3.311  0.1959  0.4110 -0.3159
 5086SOL    HW116157   1.600   6.945   3.362  0.6577  1.0214 -0.8073
 5086SOL    HW216158   1.450   6.891   3.324  0.8513 -0.1271  0.0032
 5087SOL     OW16159   6.603   5.163   1.474  0.0671  0.6829  0.2784
 5087SOL    HW116160   6.669   5.117   1.415  0.2842  0.3352  0.7786
 5087SOL    HW216161   6.514   5.164   1.430  0.8612  3.3132 -1.5106
 5088SOL     OW16162   4.818   1.071   4.865 -0.1790  0.1986 -0.5050
 5088SOL    HW116163   4.876   0.991   4.878 -1.3090 -0.5793 -0.1031
 5088SOL    HW216164   4.872   1.154   4.880  1.4611 -0.3946 -2.6768
 5089SOL     OW16165   3.174   5.371   1.711 -0.3593 -0.2531  0.2980
 5089SOL    HW116166   3.211   5.385   1.619  1.8207  2.3197  1.4162
 5089SOL    HW216167   3.144   5.276   1.721  2.8322 -1.6699 -1.9147
 5090SOL     OW16168   6.944   1.795   0.174 -0.0823  0.3424  0.4784
 5090SOL    HW116169   6.869   1.731   0.159  0.8077 -0.6256 -0.0616
 5090SOL    HW216170   6.942   1.866   0.104 -1.0514  0.8857  1.0482
 5091SOL     OW16171   1.202   4.591   6.124  0.4152 -0.6379  1.0032
 5091SOL    HW116172   1.164   4.498   6.124  1.8878 -1.3496 -1.0300
 5091SOL    HW216173   1.128   4.658   6.123 -0.7386 -1.8596  0.4744
 5092SOL     OW16174   1.175   5.159   0.322  0.0764  0.3913  0.5416
 5092SOL    HW116175   1.093   5.138   0.375 -0.7683  1.2110 -0.3890
 5092SOL    HW216176   1.179   5.099   0.242  1.3488 -0.8477  1.4761
 5093SOL     OW16177   4.609   4.192   0.632  0.4693 -0.0926 -0.1111
 5093SOL    HW116178   4.649   4.266   0.686 -1.5586  0.9949 -0.0411
 5093SOL    HW216179   4.670   4.113   0.635  1.4831  0.6976  1.9187
 5094SOL     OW16180   1.138   0.068   5.741  0.3180  0.0646 -0.2287
 5094SOL    HW116181   1.114   0.163   5.720 -0.2445  0.0704  0.4180
 5094SOL    HW216182   1.062   0.024   5.789  0.5417 -0.7425 -0.6073
 5095SOL     OW16183   2.655   1.112   5.557 -0.7829  0.0388 -0.1834
 5095SOL    HW116184   2.583   1.106   5.487 -0.8622 -1.2570 -0.0025
 5095SOL    HW216185   2.649   1.201   5.602 -0.7876  0.8846 -1.7526
 5096SOL     OW16186   1.927   4.563   2.923 -0.4291 -0.4394  0.1443
 5096SOL    HW116187   1.934   4.588   2.827  3.0604 -0.3956  0.2935
 5096SOL    HW216188   1.883   4.637   2.974 -1.1572  0.0806 -1.1985
 5097SOL     OW16189   4.137   2.088   2.230 -0.0426 -0.7048 -0.3745
 5097SOL    HW116190   4.039   2.103   2.213 -0.6691  0.2737  3.2327
 5097SOL    HW216191   4.186   2.174   2.220 -0.6458  0.2286  3.2033
 5098SOL     OW16192   6.046   0.819   5.933 -0.1070 -0.1794 -0.5194
 5098SOL    HW116193   6.108   0.741   5.943  0.4850  0.2711 -0.6230
 5098SOL    HW216194   6.091   0.891   5.881 -0.0614  0.8552  0.8729
 5099SOL     OW16195   6.296   1.062   4.112  0.3315 -0.3622  0.3658
 5099SOL    HW116196   6.361   1.135   4.134  0.9775 -1.5727  2.7702
 5099SOL    HW216197   6.278   1.008   4.193 -1.8525 -1.5722 -0.8351
 5100SOL     OW16198   4.664   5.905   5.366  0.3399  0.5290  0.8289
 5100SOL    HW116199   4.763   5.902   5.347  0.3946  0.3508  1.1343
 5100SOL    HW216200   4.646   5.860   5.453  0.0595  1.1448  1.0884
 5101SOL     OW16201   6.268   2.477   7.006  0.2335 -0.6034  0.0744
 5101SOL    HW116202   6.169   2.483   7.019  0.0688  0.3041 -1.4283
 5101SOL    HW216203   6.292   2.387   6.971 -0.2945 -0.2631 -1.2246
 5102SOL     OW16204   2.028   5.196   2.095  0.2341 -0.1537 -0.0886
 5102SOL    HW116205   2.077   5.283   2.094  0.6048 -0.3388  0.8469
 5102SOL    HW216206   2.068   5.136   2.165 -1.2420 -0.3585  0.6320
 5103SOL     OW16207   0.285   0.637   2.780 -0.4533  0.2659  0.3885
 5103SOL    HW116208   0.204   0.622   2.723  0.0933 -1.9963  0.1170
 5103SOL    HW216209   0.275   0.724   2.829 -3.2494 -0.1246  0.7029
 5104SOL     OW16210   3.134   0.471   5.334 -0.1924  0.5062  0.2661
 5104SOL    HW116211   3.223   0.446   5.297 -0.0846  0.4869  0.5408
 5104SOL    HW216212   3.145   0.528   5.415 -0.4388  1.3904 -0.3112
 5105SOL     OW16213   3.542   3.745   4.601  0.3859  0.4323 -0.0672
 5105SOL    HW116214   3.565   3.807   4.525  1.5249  2.2515  1.6571
 5105SOL    HW216215   3.591   3.659   4.590  1.2214  1.0023 -0.9520
 5106SOL     OW16216   6.395   2.224   3.230  0.1374  0.5465  0.3274
 5106SOL    HW116217   6.430   2.157   3.295  0.4894  1.3635  0.9838
 5106SOL    HW216218   6.461   2.297   3.217 -0.8762  1.5711  0.7878
 5107SOL     OW16219   5.818   5.790   2.943  0.1661  0.2317  0.5684
 5107SOL    HW116220   5.780   5.864   2.999  1.7919  1.0255  0.6980
 5107SOL    HW216221   5.833   5.709   2.999  0.6944  0.6400  1.0325
 5108SOL     OW16222   6.565   6.709   6.578 -0.4618  0.4968  0.5015
 5108SOL    HW116223   6.523   6.657   6.504 -0.1691 -1.3350  1.5667
 5108SOL    HW216224   6.652   6.748   6.547 -0.8598  0.6696 -0.4180
 5109SOL     OW16225   5.049   0.460   0.000  0.4719  0.3604 -0.7818
 5109SOL    HW116226   5.085   0.430  -0.088  0.1304 -0.3852 -0.6752
 5109SOL    HW216227   5.078   0.396   0.072  0.9354  1.0808 -0.3078
 5110SOL     OW16228   1.611   1.574   3.405  0.0121  0.0872 -0.0913
 5110SOL    HW116229   1.526   1.597   3.454  0.3309  1.8992 -0.2927
 5110SOL    HW216230   1.666   1.512   3.460 -0.8686 -0.0772  0.6283
 5111SOL     OW16231   2.722   6.344   6.687 -0.3396  0.1492 -0.2474
 5111SOL    HW116232   2.628   6.379   6.689 -0.7306 -0.8076 -1.1317
 5111SOL    HW216233   2.724   6.256   6.639  1.1656  0.6345 -1.1267
 5112SOL     OW16234   6.246   0.252   5.461 -0.6659 -0.4658 -0.1642
 5112SOL    HW116235   6.269   0.186   5.389 -0.9947  0.2813 -0.9678
 5112SOL    HW216236   6.155   0.231   5.497 -0.2796 -1.1735  0.4380
 5113SOL     OW16237   1.153   3.340   3.254  0.0452 -0.1836 -0.5140
 5113SOL    HW116238   1.070   3.294   3.223 -0.7945  1.0596 -0.1776
 5113SOL    HW216239   1.182   3.302   3.342 -0.3859 -0.3765 -0.4542
 5114SOL     OW16240   6.127   3.219   6.187  0.0503 -1.0297 -0.1242
 5114SOL    HW116241   6.062   3.294   6.197 -0.0728 -0.8371 -1.9730
 5114SOL    HW216242   6.078   3.132   6.190 -0.0967 -0.9467 -0.1038
 5115SOL     OW16243   2.808   3.877   6.756 -0.1743  0.2514  0.0333
 5115SOL    HW116244   2.739   3.805   6.764 -0.5925  0.6192 -0.2776
 5115SOL    HW216245   2.795   3.944   6.829 -0.0496  0.2456  0.0622
 5116SOL     OW16246   1.479   6.136   1.907 -0.2567  0.2985 -0.3506
 5116SOL    HW116247   1.419   6.191   1.965 -1.2569  1.1736 -2.1572
 5116SOL    HW216248   1.444   6.043   1.901 -0.1604  0.2065  0.3967
 5117SOL     OW16249   1.491   4.812   1.635 -0.8838 -0.2747  0.4817
 5117SOL    HW116250   1.582   4.853   1.626 -1.1568  0.8271  2.1619
 5117SOL    HW216251   1.500   4.722   1.678 -0.5447 -0.3526  0.2483
 5118SOL     OW16252   2.789   0.954   1.035 -0.3284  0.0543 -0.2430
 5118SOL    HW116253   2.796   0.953   0.935  0.4049  0.3340 -0.1972
 5118SOL    HW216254   2.699   0.990   1.061  0.2695  2.1186 -0.7882
 5119SOL     OW16255   6.186   0.997   6.269  0.1721 -0.5132  0.3754
 5119SOL    HW116256   6.096   0.953   6.274 -0.1994  0.2808  1.0578
 5119SOL    HW216257   6.258   0.927   6.270 -0.4129 -1.1232  1.0398
 5120SOL     OW16258   1.364   6.459   0.963  0.1658 -0.2457  0.6072
 5120SOL    HW116259   1.287   6.522   0.969 -0.9398 -1.6036  1.1887
 5120SOL    HW216260   1.429   6.477   1.037 -1.1295 -1.0435  1.9703
 5121SOL     OW16261   5.303   3.827   6.967 -0.0731  0.6482 -0.1534
 5121SOL    HW116262   5.259   3.879   7.041  1.0986  0.1246  0.9477
 5121SOL    HW216263   5.389   3.871   6.943  0.9248 -0.7051  0.7786
 5122SOL     OW16264   0.662   4.117   2.877 -0.3980  0.0897 -0.1669
 5122SOL    HW116265   0.666   4.098   2.975  0.2176 -0.6622 -0.3298
 5122SOL    HW216266   0.626   4.209   2.862  1.6262  1.1026  0.8698
 5123SOL     OW16267   1.386   4.257   1.991  0.0876 -0.2069 -0.2754
 5123SOL    HW116268   1.364   4.160   1.984  2.2668 -0.7274 -0.5199
 5123SOL    HW216269   1.476   4.268   2.032  0.7900  1.6308 -2.1330
 5124SOL     OW16270   3.437   5.705   1.940 -0.3617 -0.2346 -0.1759
 5124SOL    HW116271   3.432   5.802   1.917 -1.8410  0.0706  1.3029
 5124SOL    HW216272   3.456   5.652   1.856 -1.2498  1.1626 -1.3050
 5125SOL     OW16273   1.676   0.504   6.878  0.3306 -0.4012 -0.3654
 5125SOL    HW116274   1.577   0.519   6.875  0.0844 -1.8645 -2.9319
 5125SOL    HW216275   1.696   0.426   6.938 -0.1374 -0.4622 -0.2852
 5126SOL     OW16276   4.532   2.903   5.243 -0.1007 -0.0932 -0.6344
 5126SOL    HW116277   4.438   2.869   5.246 -0.7464  1.4939 -1.4069
 5126SOL    HW216278   4.571   2.886   5.152 -0.4341  1.1544 -1.0311
 5127SOL     OW16279   0.377   6.345   3.346 -0.3789 -0.0405 -0.0001
 5127SOL    HW116280   0.299   6.334   3.408  0.0478 -1.0554  0.3793
 5127SOL    HW216281   0.427   6.259   3.341  1.5089  0.9546  0.8340
 5128SOL     OW16282   4.994   1.580   6.655 -0.6345  0.6703 -0.0619
 5128SOL    HW116283   4.938   1.502   6.682 -1.0457  0.9042 -0.2162
 5128SOL    HW216284   5.016   1.635   6.736 -2.1785  1.5754 -0.2171
 5129SOL     OW16285   5.679   1.249   4.025  0.0109  0.6586  0.4975
 5129SOL    HW116286   5.712   1.235   4.118  0.6218 -1.0278  0.0652
 5129SOL    HW216287   5.682   1.163   3.975  0.1633  1.6258 -1.2526
 5130SOL     OW16288   6.399   2.817   2.494  0.4892  0.1220 -0.3671
 5130SOL    HW116289   6.410   2.916   2.491  0.8894  0.0674 -0.9553
 5130SOL    HW216290   6.327   2.789   2.430 -0.3322  0.1177  0.5414
 5131SOL     OW16291   2.963   3.245   5.781 -0.1807  0.3417 -0.1212
 5131SOL    HW116292   2.876   3.247   5.732 -0.9499  1.6859  1.2252
 5131SOL    HW216293   2.996   3.338   5.795  1.7292 -0.1515 -0.9635
 5132SOL     OW16294   1.713   6.419   1.713  0.1840  0.3876 -0.3912
 5132SOL    HW116295   1.695   6.331   1.669  1.7892  0.6380 -1.6317
 5132SOL    HW216296   1.680   6.416   1.808  1.3838 -2.0109  0.0274
 5133SOL     OW16297   3.933   4.187   6.717 -0.3656  0.5334  0.5173
 5133SOL    HW116298   4.006   4.175   6.785  2.7658  0.6469 -2.5171
 5133SOL    HW216299   3.888   4.099   6.701  0.7318 -0.1085  0.8089
 5134SOL     OW16300   1.088   6.294   2.265 -0.0537 -0.1284  0.6107
 5134SOL    HW116301   1.093   6.197   2.290 -1.1503 -0.4727 -0.4277
 5134SOL    HW216302   0.992   6.321   2.256  0.2676  0.7116 -0.3878
 5135SOL     OW16303   2.457   4.261   0.694  0.2478  0.3276 -0.8137
 5135SOL    HW116304   2.421   4.353   0.707  1.1797  0.4408  1.2906
 5135SOL    HW216305   2.549   4.255   0.734 -0.1456 -1.7375 -0.1032
 5136SOL     OW16306   2.156   5.876   7.011  0.0515  0.2306  0.2017
 5136SOL    HW116307   2.106   5.797   7.049 -0.4114  0.5154  0.1961
 5136SOL    HW216308   2.183   5.937   7.086 -1.0276  0.8891  0.0826
 5137SOL     OW16309   5.278   1.115   3.123  0.0262 -0.5453 -0.7373
 5137SOL    HW116310   5.248   1.101   3.028 -1.4086  1.6407 -0.6824
 5137SOL    HW216311   5.198   1.120   3.182  0.8469 -0.6345  0.3991
 5138SOL     OW16312   1.219   6.196   3.281 -0.1057 -0.2602  0.6120
 5138SOL    HW116313   1.178   6.210   3.191 -0.1358  0.8258  0.7791
 5138SOL    HW216314   1.196   6.273   3.340 -1.1632 -1.5460  1.9692
 5139SOL     OW16315   6.536   3.468   6.133 -0.6611 -0.0486 -0.2404
 5139SOL    HW116316   6.452   3.446   6.184  0.4145  0.9362  2.1224
 5139SOL    HW216317   6.605   3.398   6.151 -0.5651 -0.2046 -1.1747
 5140SOL     OW16318   6.722   2.300   1.464  0.1340 -0.1540  0.6190
 5140SOL    HW116319   6.760   2.309   1.556 -0.2236  0.5554  0.7085
 5140SOL    HW216320   6.750   2.379   1.409 -1.2881  0.4386  0.7183
 5141SOL     OW16321   4.522   3.734   5.671  0.3422 -0.7747  0.0413
 5141SOL    HW116322   4.542   3.761   5.577 -0.0171 -0.9401 -0.0833
 5141SOL    HW216323   4.426   3.705   5.678  0.2972 -0.5277  0.5093
 5142SOL     OW16324   5.995   2.055   5.703  0.8334  0.4293 -0.0325
 5142SOL    HW116325   5.949   2.038   5.616  0.6427 -1.0187  0.3183
 5142SOL    HW216326   5.979   1.977   5.764  3.5365 -0.0259  0.2015
 5143SOL     OW16327   0.957   3.845   4.948  0.7241  0.7012  0.3542
 5143SOL    HW116328   0.994   3.834   5.041  0.7458  0.9827  0.3788
 5143SOL    HW216329   0.959   3.757   4.902 -1.9775 -0.1094  1.6029
 5144SOL     OW16330   4.693   7.017   2.490  0.0583 -0.4150  0.0882
 5144SOL    HW116331   4.754   6.967   2.552 -0.5021 -2.5631 -0.9931
 5144SOL    HW216332   4.748   7.070   2.424  0.6713  0.1862  1.0580
 5145SOL     OW16333   2.443   6.893   0.369  0.6274  0.3872  0.2720
 5145SOL    HW116334   2.495   6.882   0.285  1.2480 -0.9228  0.7935
 5145SOL    HW216335   2.474   6.976   0.417  1.5802  0.1429  0.1041
 5146SOL     OW16336   6.590   0.627   1.159  0.1779 -0.1486  0.0349
 5146SOL    HW116337   6.594   0.718   1.200 -0.5530 -0.8036  1.6699
 5146SOL    HW216338   6.495   0.606   1.135  0.2027 -0.7954  0.4727
 5147SOL     OW16339   3.987   4.287   0.891 -0.4291  0.0120 -0.9084
 5147SOL    HW116340   3.921   4.213   0.886 -0.3235 -0.0616 -1.2302
 5147SOL    HW216341   4.049   4.271   0.968 -0.4465 -0.2016 -0.9376
 5148SOL     OW16342   0.685   4.923   2.903 -0.1944  0.1351 -0.1563
 5148SOL    HW116343   0.690   4.829   2.935 -1.9099 -0.4537 -1.4338
 5148SOL    HW216344   0.589   4.952   2.902  0.1104  1.1906 -1.7134
 5149SOL     OW16345   7.014   6.301   4.159 -0.7746 -0.0609 -0.0282
 5149SOL    HW116346   6.971   6.243   4.090 -1.5167  0.9483 -0.4306
 5149SOL    HW216347   7.010   6.255   4.248  0.3011 -1.4208 -0.6434
 5150SOL     OW16348   1.723   3.496   3.726  0.4891 -0.2320 -0.1602
 5150SOL    HW116349   1.765   3.428   3.666  0.4398  1.4019 -2.1395
 5150SOL    HW216350   1.630   3.514   3.695  0.8777  1.5215 -0.3918
 5151SOL     OW16351   2.512   1.758   1.242 -0.7048  0.0764  0.4386
 5151SOL    HW116352   2.590   1.817   1.261 -0.8941  0.1170  1.1182
 5151SOL    HW216353   2.428   1.801   1.276 -0.9629 -0.1880  0.1514
 5152SOL     OW16354   0.447   1.858   3.855  0.0787 -0.0236 -0.9693
 5152SOL    HW116355   0.387   1.938   3.855  0.9257  0.6413 -1.8279
 5152SOL    HW216356   0.527   1.877   3.798 -0.1455 -1.8219 -1.9526
 5153SOL     OW16357   0.191   3.679   5.020 -0.1280 -0.2253  1.0109
 5153SOL    HW116358   0.103   3.633   5.008  0.4019 -1.0922  0.2915
 5153SOL    HW216359   0.185   3.773   4.985 -0.8936 -0.1229  1.4050
 5154SOL     OW16360   2.671   0.669   2.126 -0.7317 -0.0919  0.0911
 5154SOL    HW116361   2.698   0.589   2.181  0.7242  0.1189 -0.2725
 5154SOL    HW216362   2.711   0.661   2.035 -0.2804  1.2068  0.1599
 5155SOL     OW16363   5.811   6.827   5.329  0.2617  0.0285 -0.1686
 5155SOL    HW116364   5.719   6.807   5.362 -0.4648  0.5010 -1.7851
 5155SOL    HW216365   5.865   6.743   5.328 -1.3441 -1.0946 -2.6765
 5156SOL     OW16366   6.385   1.089   1.907  0.1651  0.1576  0.1362
 5156SOL    HW116367   6.341   1.001   1.925 -0.9343  0.6009 -0.3394
 5156SOL    HW216368   6.398   1.100   1.809 -0.1748  0.7469  0.1547
 5157SOL     OW16369   2.837   1.370   4.704 -0.1049  0.0752  0.7408
 5157SOL    HW116370   2.830   1.281   4.750 -0.9760  0.5839  1.6437
 5157SOL    HW216371   2.861   1.357   4.608 -2.2658 -1.2889  0.3142
 5158SOL     OW16372   2.163   6.475   1.197 -0.1006  0.1181  0.3634
 5158SOL    HW116373   2.228   6.514   1.131  2.4496 -1.0290  2.0145
 5158SOL    HW216374   2.195   6.494   1.290 -3.2338  1.1245  1.3756
 5159SOL     OW16375   5.228   0.715   1.226 -0.2085 -0.2851  0.4561
 5159SOL    HW116376   5.144   0.699   1.173  1.1228 -1.3289 -1.4688
 5159SOL    HW216377   5.273   0.627   1.242  0.4788  0.2599  1.5623
 5160SOL     OW16378   1.738   5.638   4.619  0.0990  0.6121  0.3343
 5160SOL    HW116379   1.809   5.572   4.595  0.8917  1.1448  1.1297
 5160SOL    HW216380   1.740   5.714   4.553 -0.5542  0.0511 -0.3507
 5161SOL     OW16381   4.246   4.006   6.434 -0.0981  0.4814 -0.1094
 5161SOL    HW116382   4.261   3.908   6.420 -1.5705  0.4519 -1.7067
 5161SOL    HW216383   4.148   4.023   6.449  0.1641  1.7010  0.3295
 5162SOL     OW16384   2.686   4.981   4.524 -0.3953  0.6626  0.5848
 5162SOL    HW116385   2.666   5.029   4.439  1.4133  0.2967 -0.1021
 5162SOL    HW216386   2.608   4.987   4.586 -1.5019  1.4735 -0.8499
 5163SOL     OW16387   5.865   5.530   2.773  0.4672 -0.0704 -0.4988
 5163SOL    HW116388   5.931   5.595   2.735  0.9799 -0.8455 -0.9761
 5163SOL    HW216389   5.841   5.557   2.866 -0.5497  1.6788 -1.2287
 5164SOL     OW16390   4.425   6.939   6.337  0.4008 -0.2661  0.0842
 5164SOL    HW116391   4.358   7.008   6.308 -1.1978 -1.7276  0.1570
 5164SOL    HW216392   4.486   6.980   6.405 -1.7191  0.5992  1.5800
 5165SOL     OW16393   4.760   2.961   3.449  0.6592  0.7526 -0.6287
 5165SOL    HW116394   4.817   2.976   3.530 -1.0146  0.9829  0.5584
 5165SOL    HW216395   4.748   3.047   3.401 -1.2938  1.4454  0.9588
 5166SOL     OW16396   6.587   0.356   2.472  0.0006 -0.3409  0.1780
 5166SOL    HW116397   6.681   0.328   2.489  0.2154  0.6526  0.7401
 5166SOL    HW216398   6.557   0.418   2.545 -0.1099  1.6548 -1.4782
 5167SOL     OW16399   0.940   2.956   2.926 -0.3625  0.2969  0.1970
 5167SOL    HW116400   0.897   2.904   2.852 -0.5270  0.4994  0.1507
 5167SOL    HW216401   0.911   3.051   2.922 -2.2179 -0.1277  1.8965
 5168SOL     OW16402   4.676   2.154   3.606  0.7825  0.5389 -0.2939
 5168SOL    HW116403   4.601   2.144   3.671  2.0205  0.1448  1.1427
 5168SOL    HW216404   4.640   2.152   3.513 -0.7506 -1.9587  0.2647
 5169SOL     OW16405   2.887   3.045   0.370  0.2114  0.1263 -0.5214
 5169SOL    HW116406   2.795   3.070   0.340 -0.1200 -0.8497 -0.3400
 5169SOL    HW216407   2.951   3.117   0.343 -0.0426 -0.6737 -3.6395
 5170SOL     OW16408   1.925   5.994   2.323  0.2877 -0.2496  0.2045
 5170SOL    HW116409   1.884   6.054   2.254 -0.0967  0.1951  0.8112
 5170SOL    HW216410   1.973   6.048   2.391  1.0031 -0.7132  0.0817
 5171SOL     OW16411   0.252   4.416   3.132 -0.0573  0.0494  0.5472
 5171SOL    HW116412   0.219   4.504   3.096 -3.5420 -1.0559  0.6418
 5171SOL    HW216413   0.261   4.422   3.231 -1.2615  0.0753  0.6696
 5172SOL     OW16414   6.586   6.670   2.040  0.4353  0.0618  0.3785
 5172SOL    HW116415   6.510   6.605   2.032 -0.3948  0.9167  1.0664
 5172SOL    HW216416   6.587   6.729   1.959 -0.3725  0.7988  0.8883
 5173SOL     OW16417   4.054   4.173   5.255 -0.1204 -0.4853 -0.0407
 5173SOL    HW116418   4.123   4.242   5.234 -0.1313  0.1302  1.7380
 5173SOL    HW216419   3.979   4.215   5.307 -1.2865 -1.3823 -0.9278
 5174SOL     OW16420   4.451   3.061   0.862  0.3010  0.4650  0.7898
 5174SOL    HW116421   4.374   3.069   0.926  0.7514  0.1576  1.3822
 5174SOL    HW216422   4.467   2.964   0.842 -0.5910  0.5952 -0.7410
 5175SOL     OW16423   4.926   1.695   5.065  0.0488 -0.5986  0.0953
 5175SOL    HW116424   4.845   1.636   5.077  0.5088 -1.1610  0.4970
 5175SOL    HW216425   4.935   1.719   4.969 -0.3703 -0.8664 -0.0168
 5176SOL     OW16426   4.108   0.014   3.182  0.0384 -0.8557 -0.0594
 5176SOL    HW116427   4.031  -0.027   3.232 -0.1359  0.1703  0.5288
 5176SOL    HW216428   4.074   0.082   3.118  0.4818 -0.1598  0.4387
 5177SOL     OW16429   4.427   1.710   2.873  0.0563  0.2791 -0.0618
 5177SOL    HW116430   4.438   1.705   2.774  1.9770 -2.3744  0.1774
 5177SOL    HW216431   4.332   1.691   2.897  0.0330 -1.4257 -1.3278
 5178SOL     OW16432   2.133   3.913   3.414  0.1154  0.1312 -0.2347
 5178SOL    HW116433   2.036   3.899   3.393 -0.1920 -1.7441  2.0324
 5178SOL    HW216434   2.188   3.887   3.335 -1.1807  0.4287 -1.2739
 5179SOL     OW16435   5.588   0.785   3.209  0.2909 -0.1704 -0.1329
 5179SOL    HW116436   5.653   0.756   3.138 -0.4598 -0.1690 -0.8341
 5179SOL    HW216437   5.514   0.718   3.217 -0.7585  0.8504 -0.8594
 5180SOL     OW16438   4.394   1.211   2.678 -0.0430  0.1953 -0.0981
 5180SOL    HW116439   4.374   1.256   2.591  1.0906 -1.1178 -1.0900
 5180SOL    HW216440   4.340   1.127   2.685 -1.0050  0.8769  1.0379
 5181SOL     OW16441   3.401   6.434   6.854  0.0599  0.4550 -0.3328
 5181SOL    HW116442   3.426   6.429   6.951 -0.4334 -0.0901 -0.2249
 5181SOL    HW216443   3.413   6.344   6.813  1.4685  0.9692 -1.0924
 5182SOL     OW16444   3.307   6.941   6.591  0.0614 -0.1243  0.0584
 5182SOL    HW116445   3.303   6.842   6.605  2.0014 -0.2520 -0.0591
 5182SOL    HW216446   3.256   6.965   6.508  0.0791 -1.1093 -0.2520
 5183SOL     OW16447   6.037   4.398   0.528  0.4235 -0.1575 -0.4662
 5183SOL    HW116448   5.942   4.416   0.506  0.6827  2.2016  0.1319
 5183SOL    HW216449   6.096   4.447   0.464  1.2767 -1.7241 -0.9353
 5184SOL     OW16450   6.449   3.583   0.018  0.0880 -0.1641  0.9722
 5184SOL    HW116451   6.415   3.528  -0.058 -0.3942 -0.6224  1.5073
 5184SOL    HW216452   6.385   3.577   0.095  0.8023 -0.1042  1.5847
 5185SOL     OW16453   3.927   0.444   5.853  0.0601 -0.2085  0.6409
 5185SOL    HW116454   3.845   0.387   5.855  0.1775 -0.3865  0.4633
 5185SOL    HW216455   3.907   0.529   5.804  0.8379 -1.6407 -2.4381
 5186SOL     OW16456   3.279   4.340   1.048  0.2113  0.2428  0.7730
 5186SOL    HW116457   3.378   4.334   1.049  0.2427  0.0888 -0.5998
 5186SOL    HW216458   3.240   4.254   1.083  0.5627  0.0860  0.7860
 5187SOL     OW16459   2.273   0.660   0.446 -0.2984  0.3931  0.1512
 5187SOL    HW116460   2.259   0.622   0.354  0.4219  1.7270 -0.5527
 5187SOL    HW216461   2.367   0.643   0.475  0.0283  1.5307 -0.1641
 5188SOL     OW16462   3.866   0.803   2.420 -0.0806  0.4482 -0.0996
 5188SOL    HW116463   3.924   0.749   2.358 -0.7285  0.1024 -0.4228
 5188SOL    HW216464   3.903   0.798   2.513  0.3435  0.1426 -0.2795
 5189SOL     OW16465   6.632   0.536   4.727  0.2958  0.0099  0.9029
 5189SOL    HW116466   6.566   0.552   4.801 -0.1956  1.4981  0.1855
 5189SOL    HW216467   6.598   0.464   4.667  0.3552 -0.7026  1.6898
 5190SOL     OW16468   1.733   6.889   4.650  0.2009 -0.0931 -0.2647
 5190SOL    HW116469   1.726   6.895   4.750 -3.7671 -1.1679 -0.3102
 5190SOL    HW216470   1.777   6.803   4.624 -0.1604 -0.5402  0.5781
 5191SOL     OW16471   1.721   2.456   5.901 -0.4908 -0.3831  0.1181
 5191SOL    HW116472   1.744   2.553   5.906 -1.6057  0.0657 -2.0878
 5191SOL    HW216473   1.689   2.434   5.809 -0.5232 -2.8062  0.6369
 5192SOL     OW16474   1.989   5.512   3.829  0.0654 -0.6656  0.5055
 5192SOL    HW116475   1.920   5.534   3.760 -1.5363 -1.9675  1.6082
 5192SOL    HW216476   2.022   5.419   3.815 -0.3334 -0.9721  1.4973
 5193SOL     OW16477   3.578   3.646   0.788 -0.4357 -0.1635  0.1819
 5193SOL    HW116478   3.674   3.617   0.781 -0.8350 -1.2302 -1.2334
 5193SOL    HW216479   3.521   3.567   0.811 -1.0192  0.4214  0.7891
 5194SOL     OW16480   2.983   3.905   1.177  0.4854  0.0186  0.4008
 5194SOL    HW116481   2.914   3.964   1.135 -1.5729 -0.9893  2.1456
 5194SOL    HW216482   2.983   3.816   1.132  0.2135 -0.1744  0.7775
 5195SOL     OW16483   3.946   3.684   1.900  0.6547  0.0375 -0.3670
 5195SOL    HW116484   3.996   3.617   1.956 -0.6120  0.5951  1.5525
 5195SOL    HW216485   3.856   3.699   1.940  0.8856  2.8895 -0.7397
 5196SOL     OW16486   5.110   5.951   5.807  0.2858 -0.1392  0.2829
 5196SOL    HW116487   5.170   5.872   5.797  0.8357  0.0460  1.8903
 5196SOL    HW216488   5.147   6.029   5.756  0.0403 -0.7291 -0.8308
 5197SOL     OW16489   0.886   1.037   4.445 -0.6190  0.0083 -0.0146
 5197SOL    HW116490   0.790   1.030   4.417 -1.1277 -2.7123  2.0118
 5197SOL    HW216491   0.927   0.946   4.447  1.8116  1.0255  0.0025
 5198SOL     OW16492   5.082   3.890   1.515 -0.1697  0.1244  0.3953
 5198SOL    HW116493   4.997   3.927   1.478 -0.4938 -0.1473  0.8532
 5198SOL    HW216494   5.067   3.860   1.609  0.8758  1.6855  1.1026
 5199SOL     OW16495   2.821   7.014   1.958 -0.3186  0.3477  0.4196
 5199SOL    HW116496   2.855   7.019   2.052 -0.0849 -0.3098  0.3697
 5199SOL    HW216497   2.728   6.978   1.958 -0.6213  1.1126  0.4625
 5200SOL     OW16498   3.518   1.015   1.138  0.1944  0.2672 -0.1764
 5200SOL    HW116499   3.582   1.027   1.062  0.8419 -1.4354  0.0672
 5200SOL    HW216500   3.568   0.986   1.219 -0.6636  0.7431  0.5323
 5201SOL     OW16501   1.607   4.091   3.970 -0.4186 -0.1795  0.3354
 5201SOL    HW116502   1.567   4.132   4.053 -1.3417 -0.9526  0.2934
 5201SOL    HW216503   1.611   4.159   3.898  0.0637  0.4111  0.9151
 5202SOL     OW16504   1.729   4.653   4.718 -0.2110 -0.0375  0.7449
 5202SOL    HW116505   1.695   4.744   4.740 -0.2724 -0.2703  1.6319
 5202SOL    HW216506   1.756   4.605   4.802  1.9711  0.0026  0.1386
 5203SOL     OW16507   6.344   2.433   1.532 -0.4125 -0.0764 -0.1748
 5203SOL    HW116508   6.422   2.493   1.510  0.1477 -0.4865  0.6635
 5203SOL    HW216509   6.301   2.404   1.447 -0.4194  1.1546 -0.6144
 5204SOL     OW16510   2.905   2.229   2.852 -0.5162 -0.0272 -0.0263
 5204SOL    HW116511   2.875   2.270   2.766 -1.0797 -0.3401  0.0217
 5204SOL    HW216512   2.881   2.132   2.853 -1.2428  0.1592  0.8262
 5205SOL     OW16513   2.676   5.882   6.772 -0.1344  0.2171 -0.0055
 5205SOL    HW116514   2.638   5.896   6.863  0.3307 -1.6842  0.5228
 5205SOL    HW216515   2.629   5.806   6.727  1.2542 -0.4557 -0.3764
 5206SOL     OW16516   0.337   3.680   6.517  0.2082  0.1614 -0.2171
 5206SOL    HW116517   0.390   3.609   6.563 -1.2366 -1.3511 -0.8171
 5206SOL    HW216518   0.356   3.678   6.419  0.7301  1.1498 -0.1565
 5207SOL     OW16519   0.857   1.200   0.243 -0.1053 -0.1024  0.4832
 5207SOL    HW116520   0.868   1.128   0.312  0.0651 -2.2281 -1.6568
 5207SOL    HW216521   0.946   1.242   0.225  0.1287 -0.5878  0.4859
 5208SOL     OW16522   3.035   2.762   5.747 -0.0848 -0.1793 -0.8028
 5208SOL    HW116523   3.057   2.725   5.837  0.5470  0.5348 -0.6454
 5208SOL    HW216524   2.936   2.777   5.740 -0.2919 -1.3901 -0.6959
 5209SOL     OW16525   1.826   6.428   6.183  0.0004  0.1052 -0.0840
 5209SOL    HW116526   1.853   6.346   6.234  0.3651  1.2996  1.7074
 5209SOL    HW216527   1.745   6.407   6.127 -1.6861 -0.7712  2.5142
 5210SOL     OW16528   5.952   6.629   6.264 -0.5503  0.1334  0.0458
 5210SOL    HW116529   5.947   6.686   6.182 -0.8960 -0.9978 -0.7541
 5210SOL    HW216530   5.860   6.601   6.291 -0.3434 -0.6730 -0.0468
 5211SOL     OW16531   2.360   2.564   6.145 -0.5091 -0.1947 -0.0272
 5211SOL    HW116532   2.353   2.503   6.066 -1.4000  1.5224 -1.3535
 5211SOL    HW216533   2.408   2.518   6.219 -0.4229 -2.1801 -1.2512
 5212SOL     OW16534   3.622   3.935   2.499  0.1380  0.1152  0.3495
 5212SOL    HW116535   3.576   4.017   2.535  0.0264  0.5223 -0.6890
 5212SOL    HW216536   3.574   3.854   2.531 -2.4895  0.5295 -2.1130
 5213SOL     OW16537   4.501   1.029   1.025 -0.2701  0.0848 -1.1431
 5213SOL    HW116538   4.554   1.113   1.014  0.7067  0.0166  2.1117
 5213SOL    HW216539   4.562   0.950   1.013 -0.7451 -0.1517 -2.1374
 5214SOL     OW16540   1.118   0.448   5.970 -0.5089 -0.3204 -0.0235
 5214SOL    HW116541   1.026   0.487   5.982 -0.2151  0.1321  0.8250
 5214SOL    HW216542   1.173   0.466   6.051  0.0216 -1.4824 -0.1054
 5215SOL     OW16543   6.697   4.098   1.910  0.3619 -0.3433 -0.8153
 5215SOL    HW116544   6.646   4.020   1.875 -1.5054  0.1626  0.6007
 5215SOL    HW216545   6.758   4.068   1.984  0.1099 -0.5690 -0.6953
 5216SOL     OW16546   1.594   6.118   6.051  0.0372 -1.0742  0.0952
 5216SOL    HW116547   1.684   6.105   6.009  0.6528  1.3186  0.5365
 5216SOL    HW216548   1.590   6.068   6.138  0.7496 -1.6056 -0.1702
 5217SOL     OW16549   6.328   0.575   4.083 -0.3702 -0.3559  0.2528
 5217SOL    HW116550   6.403   0.612   4.138 -0.0870  1.1854 -1.0822
 5217SOL    HW216551   6.240   0.606   4.120 -0.1550  1.2268 -0.4932
 5218SOL     OW16552   7.003   1.492   0.565 -0.4168  0.2365  0.0876
 5218SOL    HW116553   7.016   1.500   0.466 -0.0779 -1.7474 -0.0739
 5218SOL    HW216554   7.085   1.526   0.612  1.6763 -3.3108 -0.5860
 5219SOL     OW16555   2.625   3.324   6.350 -0.2462  0.3898  0.2547
 5219SOL    HW116556   2.642   3.417   6.384  1.8036 -0.4420  1.6983
 5219SOL    HW216557   2.553   3.282   6.405 -0.1853  0.6438  0.5330
 5220SOL     OW16558   2.790   2.794   0.435 -0.5367 -0.4110  0.2884
 5220SOL    HW116559   2.821   2.887   0.413  2.1196 -1.2167  0.2398
 5220SOL    HW216560   2.694   2.796   0.462 -0.4779  2.3803  0.5623
 5221SOL     OW16561   2.958   5.590   4.243 -0.2973  0.4087 -0.1103
 5221SOL    HW116562   2.967   5.670   4.182 -0.9409  0.9625  0.5062
 5221SOL    HW216563   2.974   5.619   4.337  0.0638 -0.3215  0.0534
 5222SOL     OW16564   3.205   0.601   6.565  0.2198  0.1857  0.3999
 5222SOL    HW116565   3.140   0.526   6.566 -1.9204  1.9324  1.2946
 5222SOL    HW216566   3.288   0.575   6.614  0.0837 -1.9878 -0.4557
 5223SOL     OW16567   3.881   3.995   3.065 -0.6357 -0.6976  0.7150
 5223SOL    HW116568   3.885   3.984   3.164 -0.8601  0.8785  0.9158
 5223SOL    HW216569   3.798   4.045   3.040 -0.7953 -1.4383 -0.3187
 5224SOL     OW16570   1.686   2.148   6.800 -0.0989  0.5788  0.3079
 5224SOL    HW116571   1.771   2.192   6.771 -0.1199  0.0734 -0.5775
 5224SOL    HW216572   1.611   2.178   6.740 -0.2668 -0.0367  0.1993
 5225SOL     OW16573   4.208   1.031   2.681 -0.7219 -0.4283  0.8533
 5225SOL    HW116574   4.242   0.949   2.728 -1.8595 -0.6790  1.2854
 5225SOL    HW216575   4.108   1.036   2.692 -0.5887  1.4969  1.6255
 5226SOL     OW16576   2.620   6.433   1.889  0.6116 -0.3459 -0.8982
 5226SOL    HW116577   2.676   6.480   1.821 -1.0497 -0.2014 -2.2565
 5226SOL    HW216578   2.612   6.336   1.864  2.5664 -1.0416  0.9035
 5227SOL     OW16579   5.831   5.362   0.573 -0.3071 -0.3868 -0.3098
 5227SOL    HW116580   5.865   5.303   0.500 -0.8335 -2.1225  0.7886
 5227SOL    HW216581   5.896   5.360   0.649 -0.7054 -0.1563  0.0342
 5228SOL     OW16582   5.289   2.981   2.515 -0.2754 -0.4502  0.2330
 5228SOL    HW116583   5.215   2.924   2.549 -2.0135 -0.0932 -2.5846
 5228SOL    HW216584   5.254   3.072   2.493  1.3524  0.2159  0.2332
 5229SOL     OW16585   1.309   4.277   2.847 -0.9128 -0.0242  1.0556
 5229SOL    HW116586   1.357   4.278   2.759 -1.4744  0.3136  0.7468
 5229SOL    HW216587   1.227   4.220   2.839 -1.8553  1.3109  0.8682
 5230SOL     OW16588   4.912   1.657   2.420 -0.3876  0.4926  0.0010
 5230SOL    HW116589   4.917   1.669   2.321  1.9985 -0.0558 -0.0065
 5230SOL    HW216590   4.999   1.683   2.461 -0.1389 -2.3613  1.5611
 5231SOL     OW16591   3.987   3.375   2.404 -0.4110 -0.4362 -0.0570
 5231SOL    HW116592   4.055   3.437   2.366 -1.8449  0.6898 -0.9345
 5231SOL    HW216593   3.975   3.297   2.343 -0.8451  0.0498 -0.6115
 5232SOL     OW16594   5.432   4.280   1.678  0.0523  0.1069 -0.1107
 5232SOL    HW116595   5.359   4.212   1.672 -0.3319  0.4986  0.0987
 5232SOL    HW216596   5.519   4.234   1.697 -0.4939 -0.1892  1.9337
 5233SOL     OW16597   2.524   3.975   0.126  0.1179  0.1036 -0.1637
 5233SOL    HW116598   2.474   4.041   0.181  0.1677  0.7603 -0.8822
 5233SOL    HW216599   2.504   3.991   0.029  0.6109 -0.5450 -0.3784
 5234SOL     OW16600   0.529   3.466   2.191 -0.1178  0.2574 -0.1662
 5234SOL    HW116601   0.468   3.405   2.243 -0.3031  0.0496 -0.6259
 5234SOL    HW216602   0.525   3.443   2.094  1.7189 -0.6415 -0.0529
 5235SOL     OW16603   2.592   1.393   0.069 -0.7309 -0.2373 -0.2587
 5235SOL    HW116604   2.523   1.464   0.055 -1.1379 -0.1679  1.7221
 5235SOL    HW216605   2.550   1.314   0.115  0.4240 -0.2705  0.8134
 5236SOL     OW16606   6.271   3.224   2.404  0.6164  0.1524 -0.0879
 5236SOL    HW116607   6.296   3.297   2.467 -0.5228  0.4276  0.0688
 5236SOL    HW216608   6.316   3.139   2.431  0.9039  0.4971  0.5198
 5237SOL     OW16609   6.159   4.467   5.089  0.0396  0.9339 -0.5668
 5237SOL    HW116610   6.185   4.472   5.186 -2.7665 -0.9367  0.3939
 5237SOL    HW216611   6.238   4.436   5.036  1.1803  0.3200  1.3684
 5238SOL     OW16612   5.227   5.140   4.912  0.3094 -0.1581  0.2284
 5238SOL    HW116613   5.205   5.047   4.943  1.9385 -0.7572 -0.2965
 5238SOL    HW216614   5.308   5.137   4.853  0.4015  1.6161  0.2128
 5239SOL     OW16615   6.359   3.265   3.860  0.4490 -0.2441 -0.1278
 5239SOL    HW116616   6.414   3.339   3.900 -1.5553  0.9444  0.5585
 5239SOL    HW216617   6.363   3.270   3.761 -0.2149  1.2552 -0.1035
 5240SOL     OW16618   0.005   5.031   6.224 -0.1927 -0.3281 -0.0967
 5240SOL    HW116619  -0.000   4.962   6.296 -0.2303  0.6421  0.8554
 5240SOL    HW216620  -0.048   5.000   6.144  1.5456 -2.3607 -0.5555
 5241SOL     OW16621   5.295   2.694   6.245  0.0517  0.0299  0.2354
 5241SOL    HW116622   5.384   2.666   6.208  0.9025  1.9342  0.7294
 5241SOL    HW216623   5.228   2.698   6.171  0.6525 -0.3472 -0.3381
 5242SOL     OW16624   3.972   1.433   0.816 -0.0549 -0.4325 -0.1398
 5242SOL    HW116625   3.879   1.458   0.843  0.8439  0.1895  2.7992
 5242SOL    HW216626   4.021   1.516   0.787  0.6630  0.0175  2.1488
 5243SOL     OW16627   3.267   6.558   1.621 -0.2143 -0.7505 -1.2530
 5243SOL    HW116628   3.227   6.568   1.529 -0.5413  0.2506 -1.0131
 5243SOL    HW216629   3.361   6.591   1.620  0.1272 -1.7016 -1.4611
 5244SOL     OW16630   2.636   1.585   4.474 -0.2283 -0.4027  0.3579
 5244SOL    HW116631   2.658   1.682   4.483 -1.4550 -0.0550 -0.1800
 5244SOL    HW216632   2.696   1.543   4.407 -0.5699  0.3011 -0.4045
 5245SOL     OW16633   4.061   6.669   3.776 -0.1700  0.1895  0.3990
 5245SOL    HW116634   4.025   6.628   3.860 -0.9344 -0.2449 -0.1270
 5245SOL    HW216635   3.985   6.695   3.717  0.2813  2.1056  0.5707
 5246SOL     OW16636   6.720   3.023   0.537 -0.5450 -0.2939  0.2978
 5246SOL    HW116637   6.738   3.121   0.545  1.1194 -0.5447 -0.0730
 5246SOL    HW216638   6.694   2.987   0.627  2.4808 -0.1664  1.3120
 5247SOL     OW16639   4.086   6.780   1.830  0.0374 -0.2056 -0.4841
 5247SOL    HW116640   4.034   6.751   1.749 -0.1914 -1.8044  0.1904
 5247SOL    HW216641   4.179   6.803   1.804 -0.7842  2.1945 -1.6376
 5248SOL     OW16642   1.845   4.532   6.068 -0.1001 -0.1520  0.1535
 5248SOL    HW116643   1.872   4.613   6.017 -2.2079  0.7059  0.2810
 5248SOL    HW216644   1.880   4.538   6.162  0.4896  0.1705 -0.0823
 5249SOL     OW16645   4.187   6.813   6.054  0.1121  0.4704 -0.1789
 5249SOL    HW116646   4.252   6.885   6.028 -0.2829  1.5102  1.5399
 5249SOL    HW216647   4.149   6.772   5.971  0.7498  1.8803 -1.2277
 5250SOL     OW16648   5.403   1.844   0.855  0.2362  0.6106  0.1545
 5250SOL    HW116649   5.328   1.819   0.915  0.8250 -0.9431  0.2954
 5250SOL    HW216650   5.375   1.835   0.760  0.5753 -1.2244  0.1892
 5251SOL     OW16651   2.079   0.626   2.351  0.0338  0.2151 -0.0683
 5251SOL    HW116652   2.036   0.708   2.389 -0.3491 -0.0354  0.0434
 5251SOL    HW216653   2.009   0.566   2.313 -0.0898 -1.5676  2.6743
 5252SOL     OW16654   2.280   1.081   1.769  0.5208 -0.1739 -0.1528
 5252SOL    HW116655   2.261   0.998   1.821  0.2377 -1.3118 -1.9478
 5252SOL    HW216656   2.376   1.107   1.780  1.0348 -1.6826 -0.7594
 5253SOL     OW16657   4.460   0.769   3.322 -0.5541 -0.4424 -0.1831
 5253SOL    HW116658   4.454   0.861   3.361  0.0658  0.5168 -2.1953
 5253SOL    HW216659   4.491   0.705   3.393 -0.4741  0.9825  1.1354
 5254SOL     OW16660   4.603   5.639   5.022  0.8576 -0.3262  0.2660
 5254SOL    HW116661   4.543   5.685   4.956  0.6022 -0.3118  0.5034
 5254SOL    HW216662   4.568   5.547   5.040  2.7535 -1.6240 -2.1190
 5255SOL     OW16663   1.971   6.916   2.700 -0.3654 -0.3239 -0.1532
 5255SOL    HW116664   1.928   6.843   2.648 -1.2177  0.2066 -0.2120
 5255SOL    HW216665   2.048   6.879   2.752 -0.8815 -1.2947 -0.0568
 5256SOL     OW16666   1.609   4.703   6.006 -0.3798 -0.3612  0.5058
 5256SOL    HW116667   1.652   4.728   5.919  0.1587  1.4407  1.2329
 5256SOL    HW216668   1.635   4.610   6.030  0.3119 -0.5179 -0.7545
 5257SOL     OW16669   6.964   4.418   1.602 -0.0511 -0.0983  1.1071
 5257SOL    HW116670   6.957   4.485   1.675  0.3509 -1.6958  2.6771
 5257SOL    HW216671   6.948   4.327   1.639  0.9130 -1.0305 -0.6560
 5258SOL     OW16672   3.649   3.230   0.968  0.5542 -0.0879 -0.4820
 5258SOL    HW116673   3.594   3.175   0.906 -1.3042  0.7581  0.3267
 5258SOL    HW216674   3.593   3.303   1.006  1.8882  0.0084  1.4603
 5259SOL     OW16675   6.736   2.193   5.214  0.6366  0.1137  0.2272
 5259SOL    HW116676   6.641   2.164   5.201  0.5376  0.4570  0.1802
 5259SOL    HW216677   6.748   2.225   5.308  0.4610  0.9745 -0.0354
 5260SOL     OW16678   0.686   6.526   0.391  0.1120 -0.8182 -0.0470
 5260SOL    HW116679   0.726   6.434   0.383  1.3452 -0.2615 -0.4123
 5260SOL    HW216680   0.716   6.569   0.476  1.6442  0.2125 -1.0581
 5261SOL     OW16681   2.296   1.050   5.884  0.0921  0.4140 -0.0142
 5261SOL    HW116682   2.278   0.955   5.910 -0.2741  0.5563  0.2553
 5261SOL    HW216683   2.394   1.061   5.866  0.1755  0.0421  0.1941
 5262SOL     OW16684   6.192   5.431   0.394 -0.1342 -0.0881 -0.4002
 5262SOL    HW116685   6.287   5.451   0.419 -0.1420  0.0271 -0.4633
 5262SOL    HW216686   6.141   5.405   0.476 -0.1105  0.1022 -0.3244
 5263SOL     OW16687   5.566   5.134   3.278  0.1282 -0.0578  0.1917
 5263SOL    HW116688   5.632   5.060   3.263  1.3134  0.7028  1.4257
 5263SOL    HW216689   5.474   5.101   3.256  0.9252 -0.9664 -2.1795
 5264SOL     OW16690   4.940   5.865   5.319 -0.2323 -0.1501 -0.6488
 5264SOL    HW116691   4.956   5.882   5.222  0.1376 -0.0022 -0.5667
 5264SOL    HW216692   5.005   5.919   5.373 -0.5148 -0.1378 -0.3159
 5265SOL     OW16693   6.650   3.316   2.381  0.0875  0.3889 -0.2148
 5265SOL    HW116694   6.702   3.269   2.452  0.3845  0.6815 -0.2374
 5265SOL    HW216695   6.666   3.272   2.293 -0.6606 -0.2748 -0.0271
 5266SOL     OW16696   6.098   1.918   2.526 -0.1066 -0.0001 -0.1389
 5266SOL    HW116697   6.167   1.890   2.458  1.2547 -0.9406  1.5601
 5266SOL    HW216698   6.056   1.837   2.565 -2.2893  0.5649 -1.1630
 5267SOL     OW16699   4.108   5.405   3.332 -0.2814 -0.5960 -0.1376
 5267SOL    HW116700   4.106   5.306   3.348 -2.3372 -0.7081 -0.8647
 5267SOL    HW216701   4.069   5.424   3.242 -0.9277  0.9623  0.4548
 5268SOL     OW16702   6.282   4.929   1.359  0.0835 -0.7446 -0.0641
 5268SOL    HW116703   6.303   4.963   1.267 -0.0611 -2.8654 -0.9310
 5268SOL    HW216704   6.364   4.888   1.398  0.2769  0.5801  1.0093
 5269SOL     OW16705   1.592   2.323   1.993  0.3715  0.2857 -0.1218
 5269SOL    HW116706   1.574   2.400   1.932  1.3075  1.4919  1.0454
 5269SOL    HW216707   1.677   2.279   1.966 -0.7093 -1.0865 -1.4603
 5270SOL     OW16708   3.901   5.083   6.679 -0.0300 -0.2887 -0.0636
 5270SOL    HW116709   3.874   5.104   6.773  0.4210  0.4887 -0.0985
 5270SOL    HW216710   3.967   5.007   6.680  1.1584  0.7220  0.3915
 5271SOL     OW16711   4.909   1.959   0.280  0.6255 -0.4448  0.3517
 5271SOL    HW116712   4.956   2.030   0.227  0.1891  1.2257  2.0915
 5271SOL    HW216713   4.977   1.901   0.325  0.9860 -1.2093 -1.1195
 5272SOL     OW16714   1.472   1.784   4.157 -0.8760  0.0967  0.5364
 5272SOL    HW116715   1.519   1.866   4.126 -0.6977  0.6036  2.0829
 5272SOL    HW216716   1.530   1.734   4.220 -1.8695  0.0113  1.4033
 5273SOL     OW16717   2.455   0.830   3.102  0.4086 -0.4621 -0.3062
 5273SOL    HW116718   2.506   0.803   3.184  1.3737 -0.6138 -0.9275
 5273SOL    HW216719   2.419   0.749   3.057  1.2778 -0.5427 -0.8926
 5274SOL     OW16720   2.915   5.093   4.912 -0.8954  0.3019  0.2277
 5274SOL    HW116721   2.823   5.053   4.908 -1.5212  1.7791 -1.4907
 5274SOL    HW216722   2.931   5.129   5.004 -2.1097  0.2125  0.5001
 5275SOL     OW16723   4.658   6.859   4.298  0.0404  0.4451 -0.2316
 5275SOL    HW116724   4.571   6.908   4.308  0.2756  1.0304 -0.9514
 5275SOL    HW216725   4.712   6.870   4.381  0.4195  2.0778 -0.6630
 5276SOL     OW16726   0.486   4.065   5.579  0.6519 -0.3478  0.1271
 5276SOL    HW116727   0.438   4.072   5.666  1.0117  1.6588  0.2069
 5276SOL    HW216728   0.467   4.145   5.523  2.9349 -0.0480 -0.3407
 5277SOL     OW16729   0.027   1.116   3.107 -0.7086 -0.6807  0.0909
 5277SOL    HW116730   0.004   1.029   3.062  1.5907 -1.6019  0.5731
 5277SOL    HW216731   0.047   1.098   3.203 -0.9101  0.5355  0.3698
 5278SOL     OW16732   3.604   4.051   0.423 -0.0236 -0.0370  0.0553
 5278SOL    HW116733   3.584   3.994   0.503 -1.0119  0.9505  0.5407
 5278SOL    HW216734   3.601   3.995   0.340 -2.5379 -0.4322  0.3403
 5279SOL     OW16735   2.255   4.311   5.154 -0.5257  0.3572 -0.1707
 5279SOL    HW116736   2.310   4.230   5.172  1.3156  1.1239 -2.0507
 5279SOL    HW216737   2.299   4.391   5.196 -0.8804  0.7973 -0.6322
 5280SOL     OW16738   0.011   0.375   1.949  0.2914 -0.0668 -0.3124
 5280SOL    HW116739  -0.023   0.468   1.962  0.8036 -0.2053  3.1594
 5280SOL    HW216740   0.111   0.376   1.952  0.2952 -0.7319 -0.0278
 5281SOL     OW16741   2.525   0.075   1.383  0.0686  0.2840 -0.2383
 5281SOL    HW116742   2.567   0.151   1.333  0.6001  1.5534  2.0128
 5281SOL    HW216743   2.581   0.052   1.462 -2.3724  0.6565  1.7305
 5282SOL     OW16744   6.145   2.304   2.575 -0.2501  0.0108  0.3289
 5282SOL    HW116745   6.209   2.241   2.618 -1.1158 -1.0941  0.0384
 5282SOL    HW216746   6.054   2.261   2.569 -0.4059  0.5282 -1.6090
 5283SOL     OW16747   6.361   0.513   3.387 -0.4278  0.1766 -0.3568
 5283SOL    HW116748   6.265   0.538   3.399 -0.2580  1.8412 -2.0084
 5283SOL    HW216749   6.367   0.428   3.334 -0.9813  0.2207 -0.5007
 5284SOL     OW16750   5.481   0.300   5.021 -0.1317 -0.0329  0.1172
 5284SOL    HW116751   5.571   0.275   4.985  0.5565 -0.1926  1.8869
 5284SOL    HW216752   5.486   0.391   5.062 -1.4869  1.1637 -2.1456
 5285SOL     OW16753   6.764   6.196   4.662  0.0709  0.2057 -0.1862
 5285SOL    HW116754   6.801   6.191   4.754  0.4812  1.2035 -0.2810
 5285SOL    HW216755   6.800   6.121   4.607  1.0013  0.4576  0.0605
 5286SOL     OW16756   0.713   4.115   0.977  0.3052  0.4490 -0.1422
 5286SOL    HW116757   0.682   4.073   1.063  1.2187  0.5988  0.2737
 5286SOL    HW216758   0.758   4.047   0.920 -0.9510  0.1796 -0.8496
 5287SOL     OW16759   6.213   4.251   1.525 -0.8625  0.7650 -0.0256
 5287SOL    HW116760   6.189   4.160   1.556 -0.9804  0.1626 -1.7613
 5287SOL    HW216761   6.220   4.313   1.603  0.2074 -0.9353  1.3009
 5288SOL     OW16762   1.947   1.080   6.550 -0.0048  0.9077  0.3834
 5288SOL    HW116763   1.957   1.177   6.571  0.0527  1.9969 -3.7950
 5288SOL    HW216764   2.026   1.048   6.497 -1.5198 -0.4545 -1.1937
 5289SOL     OW16765   4.396   6.613   4.348 -0.7312 -0.8231  0.9257
 5289SOL    HW116766   4.318   6.654   4.396 -0.6190 -0.3410  0.7032
 5289SOL    HW216767   4.480   6.637   4.395 -0.5260  0.4671 -0.0160
 5290SOL     OW16768   3.116   3.073   4.870 -0.2185  0.2371 -0.0318
 5290SOL    HW116769   3.090   3.075   4.773  0.0958  0.8188 -0.1091
 5290SOL    HW216770   3.047   3.120   4.925 -0.8044 -0.7847  0.1376
 5291SOL     OW16771   6.527   5.405   0.249 -0.1389 -1.0552 -0.5805
 5291SOL    HW116772   6.487   5.382   0.160  0.3018 -0.3781 -0.9597
 5291SOL    HW216773   6.548   5.503   0.252 -0.6899 -0.9546  0.4893
 5292SOL     OW16774   4.816   1.931   3.163  0.0283  0.0675  0.2180
 5292SOL    HW116775   4.738   1.898   3.217 -0.4002 -0.4943 -0.7269
 5292SOL    HW216776   4.790   2.014   3.114  1.0549  1.8437  2.4599
 5293SOL     OW16777   1.919   2.186   5.227  0.1705  0.3461 -0.0657
 5293SOL    HW116778   1.939   2.093   5.259 -0.5226  0.5868  1.1442
 5293SOL    HW216779   2.003   2.230   5.196  0.7525 -0.2064  0.6901
 5294SOL     OW16780   1.637   0.765   3.939 -0.1028  0.1557 -0.7118
 5294SOL    HW116781   1.631   0.744   3.841  1.3159 -0.7711 -0.6254
 5294SOL    HW216782   1.560   0.723   3.987 -1.3275  1.3732 -1.5098
 5295SOL     OW16783   3.858   2.116   2.517  0.1662 -0.0335 -0.6727
 5295SOL    HW116784   3.758   2.113   2.519  0.1194 -0.5878 -2.1949
 5295SOL    HW216785   3.894   2.112   2.610 -1.2022 -1.2453 -0.1640
 5296SOL     OW16786   3.754   1.763   4.588 -0.0566 -0.2271 -0.6594
 5296SOL    HW116787   3.850   1.792   4.579  0.2487 -0.6689  0.8385
 5296SOL    HW216788   3.737   1.684   4.529  0.9373 -1.0636  0.1228
 5297SOL     OW16789   5.230   2.990   1.590 -0.4334  0.6506  0.1056
 5297SOL    HW116790   5.318   3.019   1.552  0.2723 -0.9884  0.3908
 5297SOL    HW216791   5.188   3.066   1.639  0.2941  1.7772 -0.9594
 5298SOL     OW16792   6.561   4.495   0.103  0.3111 -0.1268 -0.0515
 5298SOL    HW116793   6.472   4.539   0.110  0.7493  1.1616 -1.8231
 5298SOL    HW216794   6.627   4.544   0.161  0.4809  0.6996 -0.9271
 5299SOL     OW16795   0.204   0.938   2.297  0.4202  0.6387 -0.2213
 5299SOL    HW116796   0.253   0.934   2.384  0.5141 -0.0250 -0.2992
 5299SOL    HW216797   0.247   0.876   2.231  1.2745  2.2151 -1.2267
 5300SOL     OW16798   2.772   4.014   6.991  0.3475 -0.9629 -0.6719
 5300SOL    HW116799   2.697   4.016   7.057 -0.8827 -3.3093 -1.8686
 5300SOL    HW216800   2.850   3.967   7.032  1.2921  1.5537  0.6041
 5301SOL     OW16801   4.520   3.067   6.807 -0.0033  0.5610  0.5992
 5301SOL    HW116802   4.539   2.981   6.855  1.4208 -0.1221 -1.0796
 5301SOL    HW216803   4.548   3.059   6.712 -1.2100  2.4308  0.0337
 5302SOL     OW16804   1.527   3.185   4.018  0.2718  0.3154  0.2039
 5302SOL    HW116805   1.455   3.164   4.085 -0.8966 -1.7298 -1.5565
 5302SOL    HW216806   1.518   3.280   3.989 -2.3983 -0.1124 -0.6383
 5303SOL     OW16807   0.809   0.146   1.143  0.5499  0.3440 -0.2481
 5303SOL    HW116808   0.737   0.109   1.202  1.5396 -0.9646  0.1991
 5303SOL    HW216809   0.786   0.239   1.117 -1.4844 -0.1629 -0.4381
 5304SOL     OW16810   1.359   3.826   6.347 -0.5745  0.6718  0.4618
 5304SOL    HW116811   1.379   3.748   6.287  0.0269 -0.0056  1.5180
 5304SOL    HW216812   1.277   3.873   6.313 -0.3786  0.1822 -0.7606
 5305SOL     OW16813   4.130   6.785   1.073  0.1447  0.4171 -0.1590
 5305SOL    HW116814   4.225   6.759   1.091 -0.4352 -1.2064  0.7955
 5305SOL    HW216815   4.119   6.808   0.977  1.3298 -0.1633 -0.4508
 5306SOL     OW16816   4.844   1.637   3.385  0.3429  0.1439  0.2956
 5306SOL    HW116817   4.933   1.683   3.386 -1.0719  3.3355  3.4933
 5306SOL    HW216818   4.835   1.578   3.465 -0.1524 -0.7807 -0.4244
 5307SOL     OW16819   6.198   6.307   1.878 -0.5631 -0.2430  0.1487
 5307SOL    HW116820   6.235   6.355   1.798  0.2639 -1.4089 -0.2002
 5307SOL    HW216821   6.267   6.244   1.914 -1.4069 -0.7376  0.9470
 5308SOL     OW16822   0.558   0.633   2.198 -0.2297 -0.8942  0.3892
 5308SOL    HW116823   0.631   0.613   2.132 -0.3094  0.7234 -0.2382
 5308SOL    HW216824   0.599   0.664   2.284 -0.0911  1.4104 -0.4160
 5309SOL     OW16825   5.604   4.083   5.695 -0.1229 -0.2869 -0.1677
 5309SOL    HW116826   5.649   4.015   5.753  0.9046  2.2325  2.1584
 5309SOL    HW216827   5.513   4.103   5.731  0.3168  0.9151  0.3027
 5310SOL     OW16828   6.184   5.442   2.041 -0.4175 -0.3111  0.1076
 5310SOL    HW116829   6.138   5.360   2.075  0.1437 -0.8585 -0.4231
 5310SOL    HW216830   6.262   5.416   1.984 -0.1468  0.5944  0.0360
 5311SOL     OW16831   4.201   5.307   5.601  0.0987 -0.2427  0.3139
 5311SOL    HW116832   4.143   5.248   5.657 -1.2693  1.7768  1.1477
 5311SOL    HW216833   4.287   5.324   5.649  0.4411 -1.3534  0.1375
 5312SOL     OW16834   2.457   6.180   0.342  0.5945  0.0830  0.0705
 5312SOL    HW116835   2.553   6.199   0.322  0.6399  0.0792  0.2835
 5312SOL    HW216836   2.423   6.109   0.280  0.5994  0.4113 -0.3128
 5313SOL     OW16837   4.278   0.100   4.262 -0.4095 -0.0585 -0.4820
 5313SOL    HW116838   4.350   0.106   4.193  0.8111  1.6120  0.8408
 5313SOL    HW216839   4.267   0.189   4.306 -0.9130 -1.1232  1.6856
 5314SOL     OW16840   0.164   4.598   3.589 -0.0943  0.1865 -0.1250
 5314SOL    HW116841   0.090   4.566   3.649  0.9085 -0.7477  0.6671
 5314SOL    HW216842   0.126   4.657   3.518 -1.4322  0.7665  1.0045
 5315SOL     OW16843   0.348   4.259   4.057 -0.0178 -0.4539 -0.2254
 5315SOL    HW116844   0.302   4.221   4.138  1.8703 -0.6735  0.8244
 5315SOL    HW216845   0.386   4.349   4.080  0.9969 -0.7517 -0.6970
 5316SOL     OW16846   0.238   6.021   6.407  0.2569 -0.8164  0.1426
 5316SOL    HW116847   0.302   6.082   6.454 -0.5705  0.4975 -0.3981
 5316SOL    HW216848   0.144   6.051   6.423 -0.2637 -2.6916  0.8797
 5317SOL     OW16849   1.833   0.371   3.920 -0.3881  0.1757 -0.3561
 5317SOL    HW116850   1.926   0.335   3.920  0.0490  1.1733 -2.5531
 5317SOL    HW216851   1.776   0.316   3.981  1.1491 -1.7621 -0.5762
 5318SOL     OW16852   0.527   5.723   5.002  0.0004  0.4448 -0.7133
 5318SOL    HW116853   0.533   5.737   4.903  0.0031  1.2820 -0.6042
 5318SOL    HW216854   0.592   5.653   5.031 -0.3747 -0.1897 -1.3722
 5319SOL     OW16855   4.439   1.676   1.687  0.3989  0.1559 -0.3474
 5319SOL    HW116856   4.442   1.619   1.605 -0.4771 -2.2346  1.1597
 5319SOL    HW216857   4.344   1.681   1.719  0.9220 -0.2951  1.3550
 5320SOL     OW16858   1.955   0.422   0.209  0.5281  0.2668 -0.6997
 5320SOL    HW116859   1.979   0.492   0.141  1.9395 -0.8363 -1.3969
 5320SOL    HW216860   1.973   0.457   0.301 -0.2120  1.3368 -0.9481
 5321SOL     OW16861   1.108   2.977   4.290  0.4913 -0.0809 -0.0655
 5321SOL    HW116862   1.064   2.933   4.369  2.1766 -0.3824  0.7478
 5321SOL    HW216863   1.055   3.059   4.264  0.5460  0.7346  2.1681
 5322SOL     OW16864   0.024   5.105   4.357  0.1862  0.3645 -0.1453
 5322SOL    HW116865  -0.044   5.169   4.320  0.6052  0.7625 -0.2318
 5322SOL    HW216866   0.087   5.077   4.285  0.2528  0.1730 -0.0138
 5323SOL     OW16867   4.293   6.057   1.349  0.0330  0.4573  0.1729
 5323SOL    HW116868   4.376   6.019   1.389 -0.4818  0.6467  1.4647
 5323SOL    HW216869   4.289   6.156   1.367 -0.2723  0.5264 -0.2445
 5324SOL     OW16870   6.377   2.536   2.965  0.0901  0.1396  0.1405
 5324SOL    HW116871   6.462   2.512   3.012  0.4380  3.0845  1.2120
 5324SOL    HW216872   6.307   2.468   2.987  1.6108 -1.2976  0.7895
 5325SOL     OW16873   0.184   6.638   4.438  0.3101 -0.8901  0.7182
 5325SOL    HW116874   0.134   6.653   4.352  0.0544 -1.8652  0.6922
 5325SOL    HW216875   0.203   6.727   4.481 -0.4731 -0.4470  0.1743
 5326SOL     OW16876   5.125   4.081   6.712 -0.3201 -0.5990 -0.1339
 5326SOL    HW116877   5.215   4.047   6.685 -0.1652 -1.3491  1.2586
 5326SOL    HW216878   5.136   4.155   6.779 -0.6863  1.5845 -2.3204
 5327SOL     OW16879   4.533   0.451   5.506 -0.1953  0.3505  0.2217
 5327SOL    HW116880   4.602   0.383   5.529 -0.4116 -0.0293 -0.2515
 5327SOL    HW216881   4.547   0.533   5.562  0.7731  0.3591 -0.0209
 5328SOL     OW16882   1.862   6.985   5.792  0.4362 -0.2156  0.0342
 5328SOL    HW116883   1.938   6.945   5.740  0.1448  0.3568 -0.8404
 5328SOL    HW216884   1.860   7.084   5.778  0.8599  0.0798  1.8152
 5329SOL     OW16885   5.771   1.434   3.772 -0.3517 -0.0218 -0.0269
 5329SOL    HW116886   5.712   1.457   3.695 -0.9220 -2.8477 -0.5489
 5329SOL    HW216887   5.716   1.398   3.847  0.5797 -3.0828 -0.6644
 5330SOL     OW16888   1.062   1.146   0.943  0.0698 -0.3488 -0.5243
 5330SOL    HW116889   1.028   1.193   0.862  0.6192 -2.2809 -1.9515
 5330SOL    HW216890   1.056   1.047   0.929  2.3808 -0.7539  0.8041
 5331SOL     OW16891   5.259   0.306   2.609 -0.1649  0.3045 -0.8333
 5331SOL    HW116892   5.322   0.295   2.685  0.6350  2.6850 -1.0843
 5331SOL    HW216893   5.165   0.299   2.643  0.1747 -0.8879 -0.0570
 5332SOL     OW16894   3.617   2.126   0.245 -0.1402 -0.1298  0.1758
 5332SOL    HW116895   3.607   2.064   0.323  0.0872 -0.3594  0.0265
 5332SOL    HW216896   3.710   2.164   0.244 -0.1545 -0.0949  0.0431
 5333SOL     OW16897   0.994   2.256   0.454  0.6499 -0.2118 -0.1803
 5333SOL    HW116898   1.081   2.212   0.475  0.0968 -0.6318  1.3612
 5333SOL    HW216899   0.992   2.282   0.357  1.2805 -2.9254 -0.9882
 5334SOL     OW16900   4.714   5.780   2.149  0.3522  0.3978 -0.0674
 5334SOL    HW116901   4.647   5.848   2.117 -0.8446 -0.7931 -0.1683
 5334SOL    HW216902   4.687   5.747   2.240  0.6091 -0.3387 -0.2541
 5335SOL     OW16903   4.250   6.193   1.104  0.0968 -0.3443 -0.0195
 5335SOL    HW116904   4.260   6.141   1.189 -0.6625 -0.4869 -0.0151
 5335SOL    HW216905   4.161   6.239   1.103  0.7125  0.8909 -0.0650
 5336SOL     OW16906   3.164   0.724   1.326  0.0513 -0.0263 -0.1232
 5336SOL    HW116907   3.120   0.785   1.260  0.4728 -0.1850 -0.5553
 5336SOL    HW216908   3.197   0.642   1.280 -0.2138 -0.4291  0.3995
 5337SOL     OW16909   4.271   0.665   0.182 -0.2482  0.3991  0.4995
 5337SOL    HW116910   4.302   0.755   0.212 -0.4628 -0.0778  2.2290
 5337SOL    HW216911   4.293   0.597   0.252 -1.8901 -0.5626  0.1224
 5338SOL     OW16912   4.819   4.524   1.529  0.3303 -0.0209  0.4045
 5338SOL    HW116913   4.874   4.534   1.612  0.0744  0.6739  0.4980
 5338SOL    HW216914   4.725   4.554   1.547  0.3504  0.4392 -0.2182
 5339SOL     OW16915   5.816   3.825   3.123  0.0810  0.2083 -0.3562
 5339SOL    HW116916   5.893   3.882   3.151 -0.7582  1.9204 -1.3894
 5339SOL    HW216917   5.848   3.757   3.057  0.5219  1.7581 -1.8085
 5340SOL     OW16918   3.675   4.086   5.301 -0.1792 -0.2861  0.2997
 5340SOL    HW116919   3.738   4.011   5.284  0.4318  0.4064 -0.5822
 5340SOL    HW216920   3.612   4.095   5.224 -0.2267  0.1237  0.3816
 5341SOL     OW16921   4.074   2.429   1.333  0.1310 -0.1135 -0.0670
 5341SOL    HW116922   4.124   2.515   1.335  0.1948 -0.1576  0.4162
 5341SOL    HW216923   4.018   2.424   1.251  1.4985 -0.3837 -1.0018
 5342SOL     OW16924   0.031   4.545   5.789 -0.2001 -0.0863  0.0880
 5342SOL    HW116925  -0.013   4.599   5.717 -1.0449 -0.0159  0.6423
 5342SOL    HW216926   0.085   4.606   5.847  0.7828 -0.1967 -0.6919
 5343SOL     OW16927   3.135   3.964   2.902 -0.7354  0.0857 -0.2335
 5343SOL    HW116928   3.090   3.925   2.983  0.0194  2.1473  1.2782
 5343SOL    HW216929   3.189   3.894   2.856 -0.6909 -1.0194  1.4225
 5344SOL     OW16930   2.635   2.175   1.495 -0.1197 -0.1555  0.2720
 5344SOL    HW116931   2.582   2.258   1.511 -1.3069 -0.8608  0.0909
 5344SOL    HW216932   2.619   2.110   1.569  0.8217 -0.2368  0.4257
 5345SOL     OW16933   6.134   3.754   0.372  0.4412 -0.5254  0.1590
 5345SOL    HW116934   6.048   3.801   0.350  1.4073  0.1980 -2.5274
 5345SOL    HW216935   6.117   3.685   0.442 -1.8524  1.0746  1.3040
 5346SOL     OW16936   6.796   1.288   6.759  0.3718 -0.0613 -0.2139
 5346SOL    HW116937   6.862   1.219   6.732  1.2209  1.1492 -1.3795
 5346SOL    HW216938   6.820   1.376   6.717 -1.4690  0.6269  0.0533
 5347SOL     OW16939   3.214   1.045   0.452  0.1848  0.7231  0.4964
 5347SOL    HW116940   3.242   1.110   0.381  0.5383  1.1615  1.0296
 5347SOL    HW216941   3.219   1.089   0.541 -1.2037  0.4938  0.7138
 5348SOL     OW16942   2.777   2.147   4.074  0.7113 -0.0450 -0.3400
 5348SOL    HW116943   2.873   2.157   4.045  0.4785 -0.7812 -1.4598
 5348SOL    HW216944   2.725   2.105   3.999 -0.3889 -0.0745  0.4307
 5349SOL     OW16945   3.600   4.324   1.754 -0.8294 -0.3240  0.2886
 5349SOL    HW116946   3.580   4.422   1.764  1.4513  0.3728 -1.2618
 5349SOL    HW216947   3.565   4.291   1.667  1.1730 -0.0349 -0.6768
 5350SOL     OW16948   6.520   6.942   3.051  0.3266 -0.6016 -0.7605
 5350SOL    HW116949   6.549   7.033   3.079 -3.0014  0.6958 -1.0213
 5350SOL    HW216950   6.542   6.928   2.954 -0.9102  0.8010 -1.2706
 5351SOL     OW16951   5.764   6.738   6.717 -0.2308 -0.7430  0.5494
 5351SOL    HW116952   5.706   6.664   6.684  0.3421 -0.6294 -0.7702
 5351SOL    HW216953   5.843   6.749   6.656  0.2548  0.2531  1.3190
 5352SOL     OW16954   2.906   4.269   1.372 -1.0585  0.0292 -0.2848
 5352SOL    HW116955   2.898   4.172   1.394 -0.6781  0.2429  0.8462
 5352SOL    HW216956   2.892   4.323   1.454  0.1051  0.8794 -0.6252
 5353SOL     OW16957   0.868   6.462   4.873 -0.6779 -0.1506 -0.3814
 5353SOL    HW116958   0.929   6.410   4.812 -0.5813 -0.2126 -0.2340
 5353SOL    HW216959   0.904   6.458   4.966 -0.5755  0.3327 -0.4004
 5354SOL     OW16960   0.171   3.645   3.224 -0.9507 -0.0710 -0.2437
 5354SOL    HW116961   0.213   3.650   3.134  0.7164  3.3697  0.5517
 5354SOL    HW216962   0.167   3.549   3.254  2.4322 -0.9964 -2.2002
 5355SOL     OW16963   2.288   0.910   3.303  0.5713 -0.7468 -0.4317
 5355SOL    HW116964   2.359   0.920   3.234  1.6687 -1.1254  0.5999
 5355SOL    HW216965   2.248   0.819   3.296 -1.2743  0.1279 -2.3080
 5356SOL     OW16966   4.995   0.362   0.755 -0.0804  0.2681  0.0816
 5356SOL    HW116967   5.052   0.313   0.689 -1.0933  1.4894 -1.7896
 5356SOL    HW216968   4.918   0.305   0.782  1.0070 -0.7081  1.2262
 5357SOL     OW16969   3.266   5.766   4.445 -0.1478 -0.0847  0.6343
 5357SOL    HW116970   3.303   5.753   4.354  0.0493  0.4187  0.6414
 5357SOL    HW216971   3.266   5.678   4.494  1.4203 -0.0131  0.7889
 5358SOL     OW16972   0.998   1.918   2.060  0.1102 -0.1353  0.0642
 5358SOL    HW116973   0.943   1.986   2.109  1.4056  0.3749  0.8555
 5358SOL    HW216974   1.047   1.861   2.126  1.5421  0.2694 -0.6162
 5359SOL     OW16975   3.010   0.721   2.097  0.1365  0.3310  0.3209
 5359SOL    HW116976   3.020   0.649   2.166  0.9545  1.6061  1.5795
 5359SOL    HW216977   2.958   0.798   2.135 -1.3103  0.1953 -1.2114
 5360SOL     OW16978   3.097   0.324   4.963 -0.4519 -0.1961 -0.7646
 5360SOL    HW116979   3.123   0.352   4.870  2.5717 -3.8553 -1.2514
 5360SOL    HW216980   3.064   0.229   4.961  0.1720 -0.5521  1.9488
 5361SOL     OW16981   0.545   4.363   3.790 -0.4583  0.2441 -0.5085
 5361SOL    HW116982   0.507   4.455   3.787  0.0751  0.4615 -0.6310
 5361SOL    HW216983   0.540   4.322   3.699 -0.6221  0.1801 -0.4712
 5362SOL     OW16984   3.818   2.827   5.132  0.1514 -0.1628 -0.2766
 5362SOL    HW116985   3.849   2.912   5.090 -0.5214  0.2299  0.0027
 5362SOL    HW216986   3.725   2.806   5.100  0.2760 -0.7475 -0.2722
 5363SOL     OW16987   3.708   2.347   1.205 -0.3466 -0.6042 -0.5834
 5363SOL    HW116988   3.673   2.254   1.218  0.1877 -0.5906  1.3518
 5363SOL    HW216989   3.657   2.410   1.264 -0.6256  0.3241 -1.7885
 5364SOL     OW16990   6.267   4.810   5.366 -0.0633  0.1703  0.0735
 5364SOL    HW116991   6.185   4.754   5.349  0.9754 -0.9052 -1.6653
 5364SOL    HW216992   6.241   4.907   5.365 -1.2587 -0.1265 -0.8811
 5365SOL     OW16993   1.430   3.251   6.768 -0.4218 -0.9787 -0.5132
 5365SOL    HW116994   1.505   3.289   6.713 -1.3966 -0.3738 -1.4826
 5365SOL    HW216995   1.462   3.233   6.861  0.4422  1.0432 -0.3651
 5366SOL     OW16996   4.075   5.154   0.025  0.0235  0.0935 -0.0258
 5366SOL    HW116997   4.133   5.161   0.106  0.6033  0.3254 -0.4532
 5366SOL    HW216998   4.094   5.068  -0.022 -1.1935 -0.6157  0.7439
 5367SOL     OW16999   5.547   2.042   2.485 -0.4580  0.6460 -0.3041
 5367SOL    HW117000   5.565   2.122   2.428  0.1245 -0.2146 -1.3531
 5367SOL    HW217001   5.596   1.963   2.449 -2.5810 -0.6761 -0.4752
 5368SOL     OW17002   2.079   5.767   5.175 -0.2668 -0.1370 -0.3896
 5368SOL    HW117003   2.167   5.811   5.195 -0.8278  1.6026 -1.4811
 5368SOL    HW217004   2.016   5.782   5.251 -0.1344  0.0739 -0.3204
 5369SOL     OW17005   5.960   1.781   5.759  0.5942  0.7111 -0.4832
 5369SOL    HW117006   6.038   1.780   5.822  0.5234  2.0357 -0.3367
 5369SOL    HW217007   5.962   1.700   5.701  0.9901 -0.2402  0.8292
 5370SOL     OW17008   1.341   4.835   4.586 -0.5984  0.1831  0.0658
 5370SOL    HW117009   1.341   4.818   4.487 -0.0395 -0.4608  0.1611
 5370SOL    HW217010   1.361   4.749   4.634  1.6989  0.9510  0.6250
 5371SOL     OW17011   1.737   5.442   1.208 -0.4651 -0.3106 -0.1122
 5371SOL    HW117012   1.749   5.347   1.180  0.3518 -0.9590  2.2721
 5371SOL    HW217013   1.667   5.485   1.150  0.8434 -1.5996 -2.8020
 5372SOL     OW17014   0.069   1.233   5.510  0.0375 -0.3546 -0.7651
 5372SOL    HW117015   0.024   1.319   5.533 -1.1347 -0.9730 -0.6853
 5372SOL    HW217016   0.157   1.252   5.466  1.2825  0.8666  2.0424
 5373SOL     OW17017   3.914   3.470   5.547 -0.2400 -0.4736  0.4361
 5373SOL    HW117018   3.904   3.419   5.633 -0.7482 -0.6240  0.2917
 5373SOL    HW217019   3.937   3.565   5.567 -1.3146 -0.2796  0.7654
 5374SOL     OW17020   3.239   4.849   6.396  0.2240  0.4075  0.0481
 5374SOL    HW117021   3.170   4.793   6.441  0.9745  0.3691  1.1875
 5374SOL    HW217022   3.307   4.880   6.463  0.6523  1.4473 -0.8270
 5375SOL     OW17023   1.197   2.069   5.409  0.1883  0.2761 -0.3328
 5375SOL    HW117024   1.187   1.973   5.381 -0.2819 -0.0353  0.8409
 5375SOL    HW217025   1.128   2.091   5.478 -0.3019  1.7432 -1.2672
 5376SOL     OW17026   3.428   3.623   0.417  0.3816 -0.2316  0.2869
 5376SOL    HW117027   3.462   3.696   0.477  0.9062  0.1055 -0.4071
 5376SOL    HW217028   3.495   3.606   0.344 -0.5610 -0.1402 -0.6211
 5377SOL     OW17029   6.882   6.767   0.522  0.1431  0.3402  0.2882
 5377SOL    HW117030   6.833   6.847   0.558  1.4819  0.5656  1.7057
 5377SOL    HW217031   6.815   6.697   0.494 -1.0080  0.6980  1.9832
 5378SOL     OW17032   3.428   6.112   0.524 -0.3168  0.4256 -0.3731
 5378SOL    HW117033   3.386   6.187   0.575 -2.0200 -1.1182  0.6087
 5378SOL    HW217034   3.527   6.113   0.540 -0.5896  1.0196  1.6219
 5379SOL     OW17035   3.877   5.977   3.416  0.4800  0.2638  0.1726
 5379SOL    HW117036   3.893   5.885   3.381 -0.9761  0.5515 -1.3511
 5379SOL    HW217037   3.783   5.985   3.450  0.5285  1.2452  0.1081
 5380SOL     OW17038   4.800   4.545   6.410  0.3400 -0.6084  0.0949
 5380SOL    HW117039   4.704   4.546   6.435  0.5513 -0.0836  0.9116
 5380SOL    HW217040   4.853   4.595   6.478  0.8489  1.5117 -1.7220
 5381SOL     OW17041   3.617   6.388   3.875 -0.0099  0.7744  0.1586
 5381SOL    HW117042   3.532   6.360   3.832  0.0817  2.0309 -0.9097
 5381SOL    HW217043   3.660   6.310   3.919  0.5344 -0.9584 -3.1199
 5382SOL     OW17044   6.977   6.397   0.368  0.3461  0.0657 -0.7585
 5382SOL    HW117045   7.067   6.413   0.409 -0.1047 -0.2625  0.3897
 5382SOL    HW217046   6.914   6.468   0.397 -0.1501 -0.5347 -0.3410
 5383SOL     OW17047   0.519   4.368   5.472  0.2376  0.0907 -0.3000
 5383SOL    HW117048   0.428   4.390   5.509 -0.5286 -1.9285 -0.8847
 5383SOL    HW217049   0.587   4.379   5.544 -0.4577  1.4796  0.1928
 5384SOL     OW17050   6.185   2.986   2.632 -0.5545  0.4153 -0.2329
 5384SOL    HW117051   6.208   3.078   2.664  1.4860  0.3234 -1.2740
 5384SOL    HW217052   6.203   2.920   2.705  0.1030  0.6267 -0.1981
 5385SOL     OW17053   6.197   3.672   3.667 -0.0100  0.2470 -0.0667
 5385SOL    HW117054   6.291   3.676   3.699  0.4927  0.4846 -1.4678
 5385SOL    HW217055   6.137   3.638   3.740  1.2652 -0.6247  0.6076
 5386SOL     OW17056   2.235   2.536   1.436  0.3345 -0.3932 -0.4014
 5386SOL    HW117057   2.245   2.604   1.363 -0.2284  1.0770  0.8331
 5386SOL    HW217058   2.221   2.446   1.395 -0.7162  0.4786 -2.1198
 5387SOL     OW17059   2.382   6.674   6.596  0.0092 -0.2390  0.2838
 5387SOL    HW117060   2.329   6.696   6.514  0.4300 -0.4753 -0.0571
 5387SOL    HW217061   2.479   6.669   6.572  0.3349  1.2975  1.1144
 5388SOL     OW17062   2.491   2.479   3.502 -0.1627 -0.5295  0.1574
 5388SOL    HW117063   2.522   2.451   3.593 -0.7257 -1.6825  0.0082
 5388SOL    HW217064   2.475   2.398   3.446 -1.9602  0.0829 -0.2635
 5389SOL     OW17065   0.359   3.114   2.960 -0.3620 -0.3910 -0.1986
 5389SOL    HW117066   0.350   3.063   3.045 -0.5788 -2.1390 -1.2271
 5389SOL    HW217067   0.268   3.131   2.921 -0.3365  1.3479  0.4206
 5390SOL     OW17068   3.486   1.570   3.162 -0.1011  0.3935  0.3334
 5390SOL    HW117069   3.474   1.655   3.213 -0.7362  2.1755 -2.5302
 5390SOL    HW217070   3.570   1.576   3.108  0.3943 -1.2967  0.8499
 5391SOL     OW17071   0.209   1.097   1.879 -0.2117  0.1611  0.9267
 5391SOL    HW117072   0.191   1.145   1.793  0.2699  0.6419  1.0859
 5391SOL    HW217073   0.204   0.998   1.864 -0.6733  0.2516  0.4718
 5392SOL     OW17074   3.072   3.606   2.869 -0.1759 -0.2232  0.0205
 5392SOL    HW117075   3.007   3.651   2.930  0.0992 -0.4511  0.4918
 5392SOL    HW217076   3.164   3.614   2.908  0.2062  0.8500 -1.0661
 5393SOL     OW17077   4.013   2.883   6.140 -0.5886  0.1535 -0.2360
 5393SOL    HW117078   3.974   2.975   6.135 -1.4493 -0.1337  0.8667
 5393SOL    HW217079   3.987   2.832   6.058 -5.4740 -1.0876  1.7664
 5394SOL     OW17080   6.381   0.182   4.657  0.6984  0.3640 -0.2003
 5394SOL    HW117081   6.367   0.262   4.598  2.7140  1.1856  0.3490
 5394SOL    HW217082   6.421   0.108   4.604  2.1626  0.9760  0.0126
 5395SOL     OW17083   6.252   4.847   1.926 -0.3454  0.3452  0.3724
 5395SOL    HW117084   6.290   4.930   1.886  1.2105 -0.3613  0.3258
 5395SOL    HW217085   6.250   4.855   2.026  0.8413  0.0435  0.4375
 5396SOL     OW17086   5.653   2.465   3.262  0.4733 -0.1789 -0.0470
 5396SOL    HW117087   5.584   2.536   3.277 -0.6822 -1.1469 -0.5489
 5396SOL    HW217088   5.712   2.458   3.342 -0.1503  0.5217  0.4877
 5397SOL     OW17089   1.963   4.585   6.310  0.2421 -0.1130  0.2077
 5397SOL    HW117090   2.052   4.551   6.341  0.2912 -1.2130 -1.0353
 5397SOL    HW217091   1.890   4.542   6.363  0.3818 -0.7281 -0.0929
 5398SOL     OW17092   3.348   3.201   3.043  0.5536 -0.5573 -0.2236
 5398SOL    HW117093   3.303   3.123   2.999 -0.1322 -0.3311  0.0569
 5398SOL    HW217094   3.447   3.192   3.035  0.5129 -1.8273  0.4097
 5399SOL     OW17095   0.691   1.428   1.671 -0.2736  0.0786  0.4393
 5399SOL    HW117096   0.623   1.355   1.668 -0.2860  0.1178 -0.7725
 5399SOL    HW217097   0.652   1.512   1.634 -0.2359  0.7037  1.7602
 5400SOL     OW17098   2.731   6.642   2.024  0.4888  0.1662 -0.4286
 5400SOL    HW117099   2.713   6.558   1.972 -1.2055 -0.8084  1.6038
 5400SOL    HW217100   2.828   6.645   2.047  0.8374 -0.5374 -1.6469
 5401SOL     OW17101   6.344   4.583   3.873 -0.0124  0.1077 -0.1189
 5401SOL    HW117102   6.347   4.539   3.783 -1.1648 -0.5202  0.1280
 5401SOL    HW217103   6.252   4.619   3.889  0.5092  1.2997  0.3169
 5402SOL     OW17104   6.273   3.459   2.620  0.1259  0.4708  0.0180
 5402SOL    HW117105   6.201   3.528   2.629 -0.2613  0.2982 -1.4705
 5402SOL    HW217106   6.362   3.502   2.633 -0.1705  0.9858  0.3923
 5403SOL     OW17107   3.459   3.464   0.070 -0.3849  0.0894  0.4521
 5403SOL    HW117108   3.463   3.555   0.029 -0.1397 -1.2269 -2.6437
 5403SOL    HW217109   3.543   3.446   0.121  0.6326  0.7096 -0.9617
 5404SOL     OW17110   1.895   4.805   1.012 -0.0714  0.1625  0.1252
 5404SOL    HW117111   1.803   4.768   1.002 -0.0118 -0.2207  0.9260
 5404SOL    HW217112   1.957   4.759   0.948 -0.1520 -0.5952  0.5789
 5405SOL     OW17113   4.236   5.709   3.253  0.6186  0.0830  0.4161
 5405SOL    HW117114   4.222   5.707   3.154 -0.6980  0.0403  0.5873
 5405SOL    HW217115   4.152   5.678   3.299  0.2505  2.6595  1.6232
 5406SOL     OW17116   6.639   4.454   0.742 -0.4501  0.0260 -0.2309
 5406SOL    HW117117   6.685   4.518   0.804  0.6555 -1.3861  0.4585
 5406SOL    HW217118   6.546   4.438   0.774 -0.1442 -0.0811  0.6524
 5407SOL     OW17119   5.831   6.982   4.596 -0.2965 -0.0970  0.5486
 5407SOL    HW117120   5.799   7.063   4.546 -2.1064 -1.3606 -0.4391
 5407SOL    HW217121   5.931   6.977   4.590 -0.4010 -0.4700 -3.5267
 5408SOL     OW17122   3.072   4.896   0.551  0.0148 -0.0163  0.1641
 5408SOL    HW117123   3.030   4.893   0.460 -0.3124  0.9395  0.2725
 5408SOL    HW217124   3.071   4.990   0.585  1.6530 -0.0678  0.4535
 5409SOL     OW17125   3.603   6.338   6.638 -0.3293  0.1677 -0.0017
 5409SOL    HW117126   3.522   6.294   6.597 -0.5117 -0.1107  0.6546
 5409SOL    HW217127   3.668   6.268   6.667  0.1171  0.3901 -0.4405
 5410SOL     OW17128   0.965   6.803   3.470  0.1383  0.5091 -0.4649
 5410SOL    HW117129   1.060   6.788   3.441  0.3493  0.6652  0.1356
 5410SOL    HW217130   0.914   6.717   3.464  0.7001  0.0952  0.6063
 5411SOL     OW17131   4.722   0.717   4.031  0.6276  0.4132 -0.0799
 5411SOL    HW117132   4.748   0.814   4.031 -2.4811  1.3543  0.1326
 5411SOL    HW217133   4.661   0.699   4.108  0.0212 -1.4012 -0.9318
 5412SOL     OW17134   3.530   2.872   2.337  0.6391 -0.2070 -0.3185
 5412SOL    HW117135   3.506   2.814   2.260  1.4409  2.5162 -2.8276
 5412SOL    HW217136   3.484   2.961   2.327  1.1867  0.4079  2.0906
 5413SOL     OW17137   1.908   2.293   2.942 -0.1072 -0.3841  0.4868
 5413SOL    HW117138   1.937   2.295   2.846 -2.0854 -3.3762 -0.3144
 5413SOL    HW217139   1.987   2.306   3.001  1.2206  1.2150 -1.5210
 5414SOL     OW17140   6.568   0.199   3.062  0.7349 -0.0906 -0.0093
 5414SOL    HW117141   6.487   0.238   3.106 -0.6180 -2.7167  0.0380
 5414SOL    HW217142   6.556   0.201   2.963  1.6183  1.4332 -0.1159
 5415SOL     OW17143   5.991   2.735   4.837 -0.4565 -0.5975 -0.0146
 5415SOL    HW117144   6.024   2.711   4.928  2.1945 -1.4607 -1.1092
 5415SOL    HW217145   6.068   2.738   4.773 -2.0929  0.9568 -2.0633
 5416SOL     OW17146   3.689   6.637   3.921  0.6295  0.1789 -0.0324
 5416SOL    HW117147   3.656   6.543   3.910  0.2353  0.3617 -0.4685
 5416SOL    HW217148   3.612   6.700   3.916  0.9999  0.5960 -0.7753
 5417SOL     OW17149   0.458   0.399   1.005 -0.2127  0.2660  0.2311
 5417SOL    HW117150   0.398   0.478   0.990 -1.4666 -0.4275  1.4180
 5417SOL    HW217151   0.403   0.318   1.020  1.0599 -0.5905  0.4184
 5418SOL     OW17152   4.967   3.327   6.607  0.4882 -0.2506 -0.1489
 5418SOL    HW117153   4.967   3.350   6.510  4.1707 -0.7619 -0.4206
 5418SOL    HW217154   4.967   3.411   6.662  0.7543  0.1101 -0.6907
 5419SOL     OW17155   1.213   0.837   5.460  0.2534 -0.1973 -0.1366
 5419SOL    HW117156   1.186   0.885   5.543  0.3434  0.7212 -0.6220
 5419SOL    HW217157   1.138   0.840   5.394  0.1676 -0.9563 -0.0786
 5420SOL     OW17158   3.685   1.979   6.988 -0.1130  0.2062  0.1893
 5420SOL    HW117159   3.778   1.946   6.999 -0.7981 -2.5181 -1.2308
 5420SOL    HW217160   3.660   2.035   7.067  2.3235  0.0452  1.1559
 5421SOL     OW17161   3.167   1.744   3.336  0.3511  0.8173 -0.6263
 5421SOL    HW117162   3.085   1.696   3.366 -0.7258  1.8997 -1.7374
 5421SOL    HW217163   3.162   1.761   3.237  0.9898  2.6166 -0.3914
 5422SOL     OW17164   1.421   3.428   2.885  0.1334 -0.0976 -0.4024
 5422SOL    HW117165   1.506   3.480   2.883  0.1284 -0.0933 -0.4888
 5422SOL    HW217166   1.349   3.480   2.839  0.8055 -1.3999 -3.1216
 5423SOL     OW17167   0.393   6.419   5.468  0.2967  0.9526 -0.0007
 5423SOL    HW117168   0.472   6.366   5.435  0.1048  0.6952 -0.0520
 5423SOL    HW217169   0.425   6.505   5.508  0.8164 -0.1071  2.0108
 5424SOL     OW17170   5.958   6.541   3.377 -0.3063  0.1196  0.3013
 5424SOL    HW117171   5.956   6.444   3.353  1.2398  0.3215 -0.8005
 5424SOL    HW217172   5.968   6.551   3.476 -1.1352 -0.8181  0.4982
 5425SOL     OW17173   3.468   2.115   4.184  0.0593 -0.3721 -0.1932
 5425SOL    HW117174   3.388   2.142   4.238 -0.0272  0.7812 -0.8701
 5425SOL    HW217175   3.536   2.075   4.245 -0.9547 -1.2319  0.4216
 5426SOL     OW17176   2.327   1.850   0.980  0.1365 -0.3160  0.1844
 5426SOL    HW117177   2.234   1.835   1.013 -0.0357 -0.1336 -0.2095
 5426SOL    HW217178   2.370   1.924   1.032 -0.0225 -0.2407  0.2089
 5427SOL     OW17179   0.649   6.900   3.136 -1.1105 -0.3178  0.8587
 5427SOL    HW117180   0.747   6.882   3.127 -1.3001 -1.4690  0.8747
 5427SOL    HW217181   0.598   6.831   3.083 -1.9298 -0.3764  1.6972
 5428SOL     OW17182   3.026   0.864   0.713 -0.3261 -0.3123 -0.1111
 5428SOL    HW117183   2.957   0.936   0.725 -0.0229 -0.2408  1.4894
 5428SOL    HW217184   2.980   0.777   0.695 -0.6967  0.2388 -2.0957
 5429SOL     OW17185   2.686   4.847   6.224  0.4027  0.0912 -0.1263
 5429SOL    HW117186   2.683   4.822   6.321  0.6060  0.9789  0.1273
 5429SOL    HW217187   2.604   4.899   6.201  1.4710  2.0372  0.2272
 5430SOL     OW17188   1.887   6.512   4.294 -0.0057  0.0006  0.2497
 5430SOL    HW117189   1.902   6.551   4.203  1.5557  0.0410  0.4939
 5430SOL    HW217190   1.827   6.432   4.286 -0.7568  0.6311 -0.6591
 5431SOL     OW17191   0.153   5.106   0.165 -0.1248 -0.5085 -0.4079
 5431SOL    HW117192   0.122   5.197   0.193  0.2667 -0.6433  0.4832
 5431SOL    HW217193   0.154   5.045   0.244  0.2270 -1.1242 -0.8748
 5432SOL     OW17194   5.786   6.507   1.856 -0.2170  0.5010 -0.4738
 5432SOL    HW117195   5.773   6.413   1.824  0.6914 -0.3137  1.4212
 5432SOL    HW217196   5.883   6.522   1.876 -0.5920  1.3162  0.7958
 5433SOL     OW17197   6.927   4.088   0.779  0.1114  0.1214  0.2732
 5433SOL    HW117198   7.015   4.134   0.765 -1.9289  4.6213  0.6611
 5433SOL    HW217199   6.931   4.035   0.864  2.5112 -0.1735  0.0655
 5434SOL     OW17200   2.070   1.267   1.740 -0.4153 -0.4740  0.4733
 5434SOL    HW117201   2.097   1.356   1.777 -0.0266 -0.3650 -0.0636
 5434SOL    HW217202   2.144   1.201   1.754  0.3083 -0.0919 -1.2932
 5435SOL     OW17203   4.122   2.232   3.166 -0.3610 -0.3541 -0.0929
 5435SOL    HW117204   4.165   2.162   3.223  0.4017 -0.0144 -0.2334
 5435SOL    HW217205   4.169   2.319   3.179 -1.7348  0.3132  0.6005
 5436SOL     OW17206   4.225   3.044   6.784 -0.0150  0.6029  0.0112
 5436SOL    HW117207   4.325   3.045   6.774  0.4296  0.1973  3.4400
 5436SOL    HW217208   4.186   2.981   6.717  1.8172  1.8015 -2.3607
 5437SOL     OW17209   4.272   0.633   2.598 -0.0176 -0.8305 -0.1065
 5437SOL    HW117210   4.333   0.669   2.527  2.6089 -0.6485  2.0640
 5437SOL    HW217211   4.258   0.535   2.583 -0.6820 -0.5288 -1.6221
 5438SOL     OW17212   6.826   4.036   4.258  0.4269 -0.0113  0.5138
 5438SOL    HW117213   6.838   3.992   4.347 -0.0839 -0.9977  0.1054
 5438SOL    HW217214   6.762   4.113   4.267  0.5163  0.0050  1.0251
 5439SOL     OW17215   2.649   2.392   0.332  0.2087 -0.6006  0.1727
 5439SOL    HW117216   2.703   2.310   0.310  1.5033  0.4021 -0.5002
 5439SOL    HW217217   2.682   2.469   0.278  0.0328  0.7321  1.8960
 5440SOL     OW17218   3.147   0.030   3.864  0.1882 -0.7254 -0.2211
 5440SOL    HW117219   3.125   0.113   3.813 -0.6449  0.1088  1.4242
 5440SOL    HW217220   3.241   0.036   3.899  0.0657 -0.3945  0.0493
 5441SOL     OW17221   6.829   1.982   6.487  0.1556 -0.3228 -0.1548
 5441SOL    HW117222   6.840   2.081   6.478 -1.2168 -0.1205  0.2152
 5441SOL    HW217223   6.798   1.944   6.400 -0.9256 -0.1705  0.1471
 5442SOL     OW17224   1.314   2.599   1.332  0.2141  0.6375  0.8271
 5442SOL    HW117225   1.360   2.643   1.255 -1.0392  2.0225  0.8348
 5442SOL    HW217226   1.315   2.660   1.411  1.2815 -0.6725  1.8883
 5443SOL     OW17227   2.111   2.928   0.394  0.2296  0.4391 -0.0244
 5443SOL    HW117228   2.066   2.998   0.338  1.1365  0.9818 -0.0778
 5443SOL    HW217229   2.121   2.844   0.340 -1.2553  0.0907  0.1796
 5444SOL     OW17230   1.867   0.107   1.650 -0.2899  0.4023  0.5346
 5444SOL    HW117231   1.917   0.175   1.597  3.1589 -1.6823  0.7923
 5444SOL    HW217232   1.802   0.059   1.590  2.5358 -0.9887 -1.6632
 5445SOL     OW17233   4.467   2.931   0.131  0.6016 -0.0148 -0.6110
 5445SOL    HW117234   4.545   2.918   0.193  0.5074  2.9148  0.2996
 5445SOL    HW217235   4.482   2.879   0.047  2.4448 -1.3123  0.4508
 5446SOL     OW17236   1.651   3.392   2.361 -0.0077 -0.5249  0.4038
 5446SOL    HW117237   1.575   3.454   2.341 -0.5768 -1.5005 -0.5683
 5446SOL    HW217238   1.635   3.305   2.315  1.3412 -1.0026  0.8129
 5447SOL     OW17239   1.430   5.223   3.510  0.3951  0.1513  0.7886
 5447SOL    HW117240   1.523   5.214   3.476 -0.1239 -0.5846 -0.5322
 5447SOL    HW217241   1.408   5.145   3.568  0.5057  0.1620  0.8440
 5448SOL     OW17242   2.365   2.856   6.178 -0.3894 -0.1671 -0.3878
 5448SOL    HW117243   2.336   2.760   6.183 -0.0229 -0.3156 -0.9743
 5448SOL    HW217244   2.393   2.887   6.269 -1.1364 -0.4122 -0.0658
 5449SOL     OW17245   6.999   2.852   4.014  0.0894  0.3338  0.0695
 5449SOL    HW117246   7.093   2.842   3.982  1.1353  0.8780  2.6672
 5449SOL    HW217247   6.974   2.773   4.069  0.5514  1.8828  2.6869
 5450SOL     OW17248   0.358   6.673   5.808 -0.0847 -0.2125  0.9032
 5450SOL    HW117249   0.325   6.637   5.895 -0.2213  0.9001  1.3265
 5450SOL    HW217250   0.410   6.757   5.823  1.6003 -1.0512  0.0825
 5451SOL     OW17251   0.492   2.229   0.765 -0.5083 -0.2210  0.1700
 5451SOL    HW117252   0.574   2.171   0.768  1.0223  1.7112 -1.5630
 5451SOL    HW217253   0.411   2.171   0.771  0.9053 -2.6205 -1.6929
 5452SOL     OW17254   3.632   4.964   5.539  0.4400  0.0098  0.2763
 5452SOL    HW117255   3.682   4.911   5.471  0.1261 -0.0041  0.0541
 5452SOL    HW217256   3.546   4.918   5.561 -1.2832  1.8037 -2.0816
 5453SOL     OW17257   2.700   3.235   6.101  0.6903  0.1913 -0.0808
 5453SOL    HW117258   2.691   3.141   6.069  1.1811  0.2831 -0.5035
 5453SOL    HW217259   2.676   3.240   6.198 -0.5938 -0.1277 -0.3759
 5454SOL     OW17260   6.642   1.489   5.840 -0.3965  0.1238  0.1366
 5454SOL    HW117261   6.711   1.516   5.907 -0.8477  0.8628  0.3205
 5454SOL    HW217262   6.565   1.447   5.887 -1.3658  1.9400  0.2932
 5455SOL     OW17263   2.200   4.258   5.604 -0.3073  0.7173  0.3739
 5455SOL    HW117264   2.262   4.199   5.657 -1.2113  2.1791  3.3012
 5455SOL    HW217265   2.253   4.330   5.559  0.6297 -1.2865 -1.9937
 5456SOL     OW17266   3.910   2.809   6.386  0.1956  0.2818 -0.3571
 5456SOL    HW117267   3.942   2.811   6.292  0.0456 -1.0565 -0.4576
 5456SOL    HW217268   3.838   2.740   6.395  0.4256  0.1776  0.8039
 5457SOL     OW17269   1.589   6.029   3.548 -0.5354  0.1708 -0.0428
 5457SOL    HW117270   1.591   5.979   3.635  1.8569  0.3762  0.0925
 5457SOL    HW217271   1.619   6.123   3.563 -2.2477  0.8684 -0.7774
 5458SOL     OW17272   0.484   3.048   6.187  0.1028  0.6368 -0.1331
 5458SOL    HW117273   0.560   2.984   6.180 -0.2532  0.2734 -0.7885
 5458SOL    HW217274   0.517   3.141   6.175  0.3011  0.4067 -1.5142
 5459SOL     OW17275   2.627   2.849   5.349 -0.4257 -0.1202  0.1537
 5459SOL    HW117276   2.698   2.816   5.287  0.2477  0.1395  0.7671
 5459SOL    HW217277   2.572   2.919   5.304 -0.9513 -1.0403 -0.6717
 5460SOL     OW17278   3.790   6.907   6.163 -0.9455 -0.1459  0.2649
 5460SOL    HW117279   3.827   6.987   6.116 -0.2493 -0.5632  0.0788
 5460SOL    HW217280   3.759   6.840   6.096  0.8942 -1.1326  0.3318
 5461SOL     OW17281   6.188   2.188   0.978 -0.1284 -0.2460 -0.0970
 5461SOL    HW117282   6.113   2.251   1.000 -0.5702 -0.8853  0.2339
 5461SOL    HW217283   6.270   2.214   1.030 -1.0242 -1.4525  2.0330
 5462SOL     OW17284   4.582   5.753   4.105 -0.8255 -0.0594 -0.3440
 5462SOL    HW117285   4.529   5.720   4.027  0.9083 -1.2730 -1.0721
 5462SOL    HW217286   4.600   5.851   4.094 -3.2903  0.5327  0.2083
 5463SOL     OW17287   5.102   5.628   5.395  0.0012  0.2954 -0.1869
 5463SOL    HW117288   5.083   5.668   5.305 -0.5420 -0.2035 -0.2998
 5463SOL    HW217289   5.029   5.651   5.459 -1.0388 -1.5980 -0.6142
 5464SOL     OW17290   1.195   0.526   3.056 -0.6990 -0.2636  0.3715
 5464SOL    HW117291   1.177   0.431   3.079 -0.2891 -0.5776 -0.5518
 5464SOL    HW217292   1.158   0.586   3.127 -0.8572 -1.1154  1.0132
 5465SOL     OW17293   5.551   2.753   6.074 -0.7180 -0.8171  0.1635
 5465SOL    HW117294   5.626   2.749   6.139 -1.0462  1.1091  0.7122
 5465SOL    HW217295   5.584   2.787   5.986 -1.3278  2.7718  1.1851
 5466SOL     OW17296   3.242   5.494   5.907  0.3674 -0.3930 -0.1795
 5466SOL    HW117297   3.326   5.507   5.959 -0.1376 -0.6939  0.7518
 5466SOL    HW217298   3.204   5.403   5.928  0.9665 -1.1954 -2.3014
 5467SOL     OW17299   5.822   2.876   5.471 -0.1247 -0.1048  0.8844
 5467SOL    HW117300   5.806   2.972   5.491  0.9973  0.5691 -1.1754
 5467SOL    HW217301   5.735   2.827   5.470 -1.1876  1.6519 -1.5192
 5468SOL     OW17302   5.994   5.982   0.730  0.1790  0.6243  0.7646
 5468SOL    HW117303   5.941   6.064   0.709  0.2633  0.5320  0.1781
 5468SOL    HW217304   6.092   6.004   0.730  0.3366  0.1228 -1.3986
 5469SOL     OW17305   3.353   2.388   5.422  0.1164 -0.5360  0.2330
 5469SOL    HW117306   3.439   2.341   5.402  0.3715 -0.1745  0.4590
 5469SOL    HW217307   3.299   2.396   5.338  0.1134 -1.1398  0.1750
 5470SOL     OW17308   5.790   1.843   6.643 -0.1008  0.0197  0.1624
 5470SOL    HW117309   5.850   1.915   6.679 -0.8231  0.1946  1.0418
 5470SOL    HW217310   5.707   1.838   6.698 -0.8981 -0.2444 -1.0227
 5471SOL     OW17311   4.897   5.891   4.279 -1.0411 -0.0199 -0.4387
 5471SOL    HW117312   4.969   5.960   4.281 -0.6222 -0.4661  0.9710
 5471SOL    HW217313   4.832   5.913   4.206 -0.8046  1.7526 -0.1588
 5472SOL     OW17314   5.764   5.516   5.363 -0.5126 -0.6867  0.5735
 5472SOL    HW117315   5.665   5.503   5.358 -0.6296  0.1229  0.6102
 5472SOL    HW217316   5.794   5.512   5.458 -0.5357 -0.7546  0.5777
 5473SOL     OW17317   1.795   6.892   0.209 -0.3489  0.3195  0.0126
 5473SOL    HW117318   1.810   6.916   0.114  0.8269 -0.0666  0.0847
 5473SOL    HW217319   1.870   6.834   0.241 -0.0340  1.5018  1.5492
 5474SOL     OW17320   1.431   0.033   0.109  0.4315 -0.1926  0.1061
 5474SOL    HW117321   1.451   0.109   0.171  2.1317 -0.7477  0.2879
 5474SOL    HW217322   1.464  -0.053   0.150  1.4910 -0.5850 -1.4646
 5475SOL     OW17323   6.679   1.255   7.003  0.3757 -0.2019  0.0339
 5475SOL    HW117324   6.623   1.173   7.016 -0.0261  0.2321  1.1598
 5475SOL    HW217325   6.706   1.262   6.907 -2.0332 -0.1026 -0.6931
 5476SOL     OW17326   2.152   6.991   3.868 -0.1219 -0.4313  1.1404
 5476SOL    HW117327   2.063   7.023   3.901  0.0456 -0.7329  1.8979
 5476SOL    HW217328   2.165   6.896   3.893 -0.0715 -0.7351  0.0065
 5477SOL     OW17329   4.583   6.341   0.599  0.7009  0.0520 -0.3168
 5477SOL    HW117330   4.579   6.271   0.527 -2.4400  0.3572 -0.5899
 5477SOL    HW217331   4.540   6.305   0.682 -0.0141  1.2565 -0.1386
 5478SOL     OW17332   6.757   2.116   3.512  0.2120 -0.1973  0.5387
 5478SOL    HW117333   6.801   2.160   3.433  0.4760 -2.5602 -0.7311
 5478SOL    HW217334   6.821   2.112   3.588  1.4236 -1.4001 -0.4800
 5479SOL     OW17335   1.930   4.128   4.511  0.1017  0.3983  0.0594
 5479SOL    HW117336   1.910   4.102   4.606 -2.0464  0.4514 -0.3305
 5479SOL    HW217337   1.922   4.049   4.452 -0.9512  0.8250 -0.3872
 5480SOL     OW17338   2.401   3.580   6.234 -0.4446  0.1705  0.2416
 5480SOL    HW117339   2.417   3.632   6.318  1.8313  1.0133 -0.6421
 5480SOL    HW217340   2.438   3.487   6.245 -0.1043  0.2955  0.1655
 5481SOL     OW17341   5.806   5.828   3.457  0.4561 -0.2204 -0.1881
 5481SOL    HW117342   5.882   5.765   3.473  0.8374  0.4319  0.6386
 5481SOL    HW217343   5.720   5.782   3.482  0.8563  0.0431  1.8501
 5482SOL     OW17344   1.034   4.223   2.151  0.9812 -0.1730 -0.1734
 5482SOL    HW117345   1.032   4.316   2.113  1.2984 -1.3480 -3.3289
 5482SOL    HW217346   1.121   4.180   2.128 -0.0947 -2.0439 -0.9441
 5483SOL     OW17347   5.227   1.243   5.292  0.1231 -0.3979 -0.2766
 5483SOL    HW117348   5.175   1.307   5.349 -0.0152 -0.0406 -0.7880
 5483SOL    HW217349   5.315   1.284   5.267  0.2638 -0.6298 -0.1575
 5484SOL     OW17350   6.816   0.383   6.651 -0.2844 -0.1331 -0.2705
 5484SOL    HW117351   6.829   0.354   6.556 -0.0156 -1.2049  0.0772
 5484SOL    HW217352   6.752   0.460   6.654  0.8808  0.9195 -1.4436
 5485SOL     OW17353   5.325   6.389   3.464 -0.1308 -0.4018 -0.7722
 5485SOL    HW117354   5.231   6.414   3.440 -0.2967 -0.4838 -0.2112
 5485SOL    HW217355   5.349   6.303   3.418  0.4154  0.6868 -2.6499
 5486SOL     OW17356   0.995   5.006   3.760  0.3169 -0.6707  0.2311
 5486SOL    HW117357   0.984   5.033   3.664  0.6770  0.9403  0.6276
 5486SOL    HW217358   0.979   4.907   3.768  0.7715 -0.9253 -1.5569
 5487SOL     OW17359   1.749   1.460   4.746  0.4285 -0.3890 -0.1880
 5487SOL    HW117360   1.751   1.399   4.667 -0.5838  0.1270 -0.6264
 5487SOL    HW217361   1.671   1.522   4.739  1.1975  0.6921  0.4553
 5488SOL     OW17362   2.643   1.164   6.218  0.2643  0.1346 -0.3564
 5488SOL    HW117363   2.635   1.090   6.150  0.9743  0.4894 -0.8383
 5488SOL    HW217364   2.659   1.124   6.308 -0.7370 -0.3467 -0.3743
 5489SOL     OW17365   1.463   0.521   4.275  0.0427 -0.6050  0.1862
 5489SOL    HW117366   1.557   0.488   4.286  0.8000  1.2516 -0.3349
 5489SOL    HW217367   1.405   0.479   4.345  2.1282  1.3764  3.4048
 5490SOL     OW17368   3.699   5.808   1.013 -0.2560 -0.3953  0.0803
 5490SOL    HW117369   3.791   5.810   0.974  0.1837 -0.6981  1.0589
 5490SOL    HW217370   3.681   5.895   1.059 -1.3307  0.5414 -1.9559
 5491SOL     OW17371   6.177   5.199   6.141  0.1054  0.1983  0.2415
 5491SOL    HW117372   6.124   5.187   6.056 -0.1475  0.4694  0.3596
 5491SOL    HW217373   6.184   5.111   6.188 -0.5935  0.2402  0.4292
 5492SOL     OW17374   1.087   3.682   3.208  0.3567 -0.6510 -0.0064
 5492SOL    HW117375   1.152   3.613   3.240  0.4781 -0.1260  0.9179
 5492SOL    HW217376   1.014   3.692   3.276  0.8440  0.7922  0.3279
 5493SOL     OW17377   1.862   3.639   5.686  0.0537 -0.4148  0.3830
 5493SOL    HW117378   1.781   3.668   5.635  0.0575  2.1197  1.6240
 5493SOL    HW217379   1.944   3.660   5.633  0.1735  4.0178  1.8487
 5494SOL     OW17380   5.207   0.384   3.275 -0.1452 -0.4861 -0.5197
 5494SOL    HW117381   5.214   0.361   3.372  2.1295 -1.3821 -0.8286
 5494SOL    HW217382   5.112   0.401   3.251 -1.0463 -2.5011  1.3655
 5495SOL     OW17383   6.848   3.045   0.946 -0.0760 -0.0053  0.2421
 5495SOL    HW117384   6.863   3.144   0.949 -0.0787  0.0081 -0.1063
 5495SOL    HW217385   6.867   3.012   0.853 -1.2686 -0.1383  0.0306
 5496SOL     OW17386   0.602   0.457   2.510  0.2704 -0.5245 -0.7980
 5496SOL    HW117387   0.639   0.396   2.440  2.8332  0.0640 -0.0483
 5496SOL    HW217388   0.564   0.402   2.584  0.0733 -1.1592 -1.3493
 5497SOL     OW17389   4.632   6.523   4.569 -0.6675 -0.0182 -0.2420
 5497SOL    HW117390   4.553   6.565   4.614 -0.9709 -1.4676  0.6692
 5497SOL    HW217391   4.615   6.425   4.559  0.5344 -0.1515 -1.1156
 5498SOL     OW17392   6.329   0.343   1.791 -0.4479 -0.2504 -0.1879
 5498SOL    HW117393   6.285   0.297   1.868 -1.7908  0.9803 -0.1820
 5498SOL    HW217394   6.283   0.430   1.773 -0.1070 -0.4649 -2.3313
 5499SOL     OW17395   5.024   4.595   1.744  0.1471  0.4680  0.3618
 5499SOL    HW117396   4.954   4.599   1.815 -0.6518  0.4602 -0.4065
 5499SOL    HW217397   5.113   4.575   1.785 -0.6435 -1.7257  1.1354
 5500SOL     OW17398   1.273   0.770   2.007 -0.5161 -0.1161  0.0706
 5500SOL    HW117399   1.320   0.858   1.997 -0.0695 -0.2045  1.1834
 5500SOL    HW217400   1.329   0.698   1.966 -0.5857  0.0332 -0.2898
 5501SOL     OW17401   3.436   4.866   1.414  0.3388 -0.4642 -0.1244
 5501SOL    HW117402   3.344   4.825   1.415 -0.2240  0.7008 -0.9872
 5501SOL    HW217403   3.473   4.861   1.321  0.5503  0.3152 -0.0883
 5502SOL     OW17404   2.126   5.857   4.599 -0.1125 -0.8003 -0.4936
 5502SOL    HW117405   2.099   5.945   4.559 -1.3347 -0.5883  0.7252
 5502SOL    HW217406   2.103   5.856   4.696 -0.8141 -2.7417 -0.6278
 5503SOL     OW17407   6.476   2.720   4.539  0.3161 -0.2923  0.4892
 5503SOL    HW117408   6.570   2.730   4.571  0.1329  1.0185  0.7185
 5503SOL    HW217409   6.459   2.784   4.464 -0.7853  0.6383  1.4625
 5504SOL     OW17410   1.410   1.824   1.016  0.0490 -0.0696  0.4067
 5504SOL    HW117411   1.486   1.793   1.073 -0.8207  0.0516  1.6539
 5504SOL    HW217412   1.332   1.763   1.028 -0.4159  0.4328 -0.0320
 5505SOL     OW17413   5.446   6.249   0.190 -0.4721 -0.1494  0.0585
 5505SOL    HW117414   5.420   6.334   0.237 -2.0524 -0.7277  0.2789
 5505SOL    HW217415   5.452   6.266   0.092  1.1903  0.6641  0.2649
 5506SOL     OW17416   0.791   3.695   2.804  0.2545  0.5614 -0.2920
 5506SOL    HW117417   0.720   3.765   2.801  1.1911  1.4997 -1.6583
 5506SOL    HW217418   0.881   3.739   2.806  0.8601 -0.5788  2.5152
 5507SOL     OW17419   2.464   1.415   6.641 -0.7190  0.4246 -0.3811
 5507SOL    HW117420   2.452   1.401   6.543 -1.6764  0.3713 -0.2656
 5507SOL    HW217421   2.514   1.500   6.657 -2.9775  1.9217 -0.8590
 5508SOL     OW17422   6.485   2.872   6.840  0.8991 -0.1246  0.5189
 5508SOL    HW117423   6.411   2.813   6.809  1.6123 -1.0414  0.4943
 5508SOL    HW217424   6.448   2.951   6.889 -0.0050 -1.6063  2.2857
 5509SOL     OW17425   2.544   2.480   5.427 -0.2540 -0.5732 -0.1577
 5509SOL    HW117426   2.571   2.400   5.480 -2.0240 -1.0426  0.1197
 5509SOL    HW217427   2.617   2.505   5.364  1.9228 -0.0321  2.3884
 5510SOL     OW17428   2.451   2.006   6.071  0.9889  0.3599  0.0924
 5510SOL    HW117429   2.518   1.963   6.130  1.6962  1.2450 -0.0444
 5510SOL    HW217430   2.367   2.023   6.123  1.4128  0.6345  0.6981
 5511SOL     OW17431   0.299   3.367   2.318  0.2475  0.3356  0.4647
 5511SOL    HW117432   0.273   3.427   2.393 -0.2007  0.2616  0.3726
 5511SOL    HW217433   0.271   3.408   2.231 -1.1032 -0.5182  0.4659
 5512SOL     OW17434   5.120   4.641   0.880  0.3261 -0.7897 -0.1007
 5512SOL    HW117435   5.140   4.603   0.790 -0.5476  1.6549 -1.4326
 5512SOL    HW217436   5.052   4.585   0.926  0.9259 -2.1797 -0.8457
 5513SOL     OW17437   0.607   0.911   1.775 -0.3120  0.5625 -0.1557
 5513SOL    HW117438   0.562   0.905   1.686 -0.6371  0.2206  0.0344
 5513SOL    HW217439   0.562   0.850   1.840  0.2940  0.3643  0.0874
 5514SOL     OW17440   2.013   3.216   6.474 -0.1089  0.1733  0.5561
 5514SOL    HW117441   2.034   3.146   6.542  0.7659  0.7202  0.8658
 5514SOL    HW217442   2.047   3.187   6.385 -0.5237 -0.1781  0.5104
 5515SOL     OW17443   0.202   5.077   4.162  0.2669 -0.2062  0.6279
 5515SOL    HW117444   0.270   5.145   4.186  0.4369 -0.4673  0.8997
 5515SOL    HW217445   0.244   5.004   4.108  0.0246  0.0444  0.0882
 5516SOL     OW17446   2.124   0.083   6.608 -0.1980  0.3384  0.2460
 5516SOL    HW117447   2.168   0.034   6.684 -0.7625  1.1092  1.0898
 5516SOL    HW217448   2.057   0.023   6.565 -1.2068  0.4591  1.5569
 5517SOL     OW17449   2.346   2.964   5.813 -0.3027 -0.1780 -0.4730
 5517SOL    HW117450   2.434   2.964   5.766  0.5927 -1.9603  1.0905
 5517SOL    HW217451   2.356   3.004   5.904 -1.0029 -0.7267 -0.1425
 5518SOL     OW17452   1.103   6.100   2.904  0.0339 -1.1129  0.1119
 5518SOL    HW117453   1.065   6.153   2.981  0.0527  0.6782 -1.0380
 5518SOL    HW217454   1.054   6.013   2.897 -0.9226 -0.7135  1.2970
 5519SOL     OW17455   4.324   5.119   6.831 -0.4963 -0.0201 -0.5204
 5519SOL    HW117456   4.242   5.068   6.856 -0.3715  0.1978  0.3618
 5519SOL    HW217457   4.299   5.212   6.806 -0.5211  0.0371 -0.2825
 5520SOL     OW17458   1.639   2.751   0.826  0.1585 -0.1279 -0.3444
 5520SOL    HW117459   1.572   2.825   0.815  1.5908  1.3477  0.4136
 5520SOL    HW217460   1.591   2.663   0.832 -1.5474  0.5934 -2.1855
 5521SOL     OW17461   4.534   2.194   1.360  0.3888 -0.3827 -0.2386
 5521SOL    HW117462   4.564   2.101   1.381 -0.5754 -0.4290  1.1357
 5521SOL    HW217463   4.525   2.245   1.445  0.9448  0.9955 -0.9852
 5522SOL     OW17464   2.253   6.012   4.934 -0.6152  0.0744  0.1772
 5522SOL    HW117465   2.292   5.930   4.976 -0.4972 -0.2946 -0.6320
 5522SOL    HW217466   2.325   6.081   4.922 -0.3776 -0.2957 -0.5607
 5523SOL     OW17467   0.417   2.952   3.784 -0.3301  0.2935 -1.0575
 5523SOL    HW117468   0.494   3.014   3.771 -1.4669  2.0192  0.0742
 5523SOL    HW217469   0.343   2.976   3.721 -0.2730 -0.8375 -1.5852
 5524SOL     OW17470   6.903   0.616   6.329  0.1806 -0.8630 -0.3605
 5524SOL    HW117471   6.905   0.669   6.245 -0.1449 -0.5022 -0.1418
 5524SOL    HW217472   6.924   0.675   6.407 -3.0900 -0.3079  0.2513
 5525SOL     OW17473   5.588   3.807   4.067  0.1702 -0.1420 -0.9573
 5525SOL    HW117474   5.524   3.882   4.051  1.3794  0.7098 -1.9998
 5525SOL    HW217475   5.543   3.720   4.048 -0.4662  0.4767 -2.4337
 5526SOL     OW17476   1.058   4.916   2.455  0.3379  0.3999  0.3073
 5526SOL    HW117477   1.071   5.010   2.423  1.9024  0.3725  0.7991
 5526SOL    HW217478   1.092   4.852   2.386 -1.8736  0.1129 -0.5853
 5527SOL     OW17479   0.694   1.114   6.007  0.2347 -0.1538  0.3035
 5527SOL    HW117480   0.721   1.168   5.928 -0.0193 -1.8916 -1.0139
 5527SOL    HW217481   0.649   1.174   6.074  0.2870  1.3092 -0.9220
 5528SOL     OW17482   0.706   4.908   3.257  0.1106  0.1516 -0.3132
 5528SOL    HW117483   0.695   4.917   3.356 -0.5967 -1.3799 -0.2260
 5528SOL    HW217484   0.771   4.835   3.237  0.3551  0.5493 -0.9896
 5529SOL     OW17485   1.795   2.599   3.905  0.1232  0.0231 -0.3048
 5529SOL    HW117486   1.723   2.576   3.970  0.5456  1.3230  0.6591
 5529SOL    HW217487   1.787   2.540   3.824 -2.2072  0.3213 -0.3654
 5530SOL     OW17488   5.410   6.403   4.701  0.1872  0.3004 -0.2552
 5530SOL    HW117489   5.373   6.451   4.621 -0.0265 -0.5859 -0.7035
 5530SOL    HW217490   5.358   6.318   4.715 -0.2637  0.8061  1.2805
 5531SOL     OW17491   0.784   6.581   2.452  0.0123 -0.1009 -0.0962
 5531SOL    HW117492   0.861   6.630   2.493 -1.1858  1.3630  0.5140
 5531SOL    HW217493   0.728   6.541   2.524 -1.8937  2.1593 -0.1857
 5532SOL     OW17494   2.191   3.701   1.294  0.0470  0.2221  0.0852
 5532SOL    HW117495   2.238   3.787   1.275  0.6801  0.1301  1.1800
 5532SOL    HW217496   2.139   3.673   1.213  0.2448  1.3619 -0.4573
 5533SOL     OW17497   4.639   1.279   5.550  0.4017 -0.5233 -0.2667
 5533SOL    HW117498   4.673   1.186   5.533 -1.8636 -1.0414 -2.4303
 5533SOL    HW217499   4.554   1.274   5.603  0.5238  0.3786  0.0268
 5534SOL     OW17500   5.160   4.686   6.354  0.1502  0.0035  0.0076
 5534SOL    HW117501   5.108   4.676   6.438  0.7328 -0.5583  0.3056
 5534SOL    HW217502   5.227   4.612   6.346  0.3869  0.2835 -0.7415
 5535SOL     OW17503   3.734   1.715   2.166 -0.2412 -0.2651  0.1573
 5535SOL    HW117504   3.746   1.677   2.258  2.2220 -0.8615 -0.3330
 5535SOL    HW217505   3.740   1.642   2.099 -3.5647 -0.0856 -0.5302
 5536SOL     OW17506   0.208   2.209   4.448  0.7881 -0.2976  0.6076
 5536SOL    HW117507   0.278   2.234   4.381 -1.9104  0.1761 -2.2258
 5536SOL    HW217508   0.177   2.291   4.495  2.4753 -0.5936  2.3744
 5537SOL     OW17509   5.806   6.237   2.083  1.0700 -0.6518  0.1830
 5537SOL    HW117510   5.855   6.152   2.099 -0.4135 -1.6797 -0.5367
 5537SOL    HW217511   5.715   6.217   2.046  0.6230  1.2381  0.1544
 5538SOL     OW17512   0.934   5.541   1.668 -0.6950 -0.3437 -0.4462
 5538SOL    HW117513   0.913   5.444   1.681  0.8526 -0.4777  1.6923
 5538SOL    HW217514   1.005   5.551   1.599  1.8737 -1.1898  1.8924
 5539SOL     OW17515   1.182   5.013   5.386 -0.4900  0.2865  0.1259
 5539SOL    HW117516   1.121   5.019   5.465 -0.4181 -0.2707  0.2241
 5539SOL    HW217517   1.276   5.030   5.416 -0.6425  1.7780 -0.1251
 5540SOL     OW17518   2.466   1.837   2.796  0.3590  0.5536  0.2434
 5540SOL    HW117519   2.427   1.748   2.773 -0.4066  0.7326  0.7806
 5540SOL    HW217520   2.460   1.851   2.895  2.3318  0.3613  0.4322
 5541SOL     OW17521   0.300   1.648   1.671 -0.1525 -0.2688 -0.0684
 5541SOL    HW117522   0.271   1.690   1.584 -0.0732  0.2015  0.1260
 5541SOL    HW217523   0.274   1.709   1.747 -2.1117 -1.6287  0.4288
 5542SOL     OW17524   5.189   0.110   5.606  0.7604 -0.5448  0.4320
 5542SOL    HW117525   5.120   0.097   5.535  0.6745  0.4478  0.3269
 5542SOL    HW217526   5.173   0.045   5.680 -1.0725  0.4845  0.9942
 5543SOL     OW17527   0.473   3.669   6.268  0.5028 -0.2007  0.1981
 5543SOL    HW117528   0.486   3.718   6.182 -0.4571  1.4606  0.9559
 5543SOL    HW217529   0.562   3.644   6.307  0.9369 -1.6400 -1.5985
 5544SOL     OW17530   2.043   0.532   0.441 -0.2722 -0.0346  0.3626
 5544SOL    HW117531   2.125   0.589   0.453  0.2603 -0.3293 -1.4529
 5544SOL    HW217532   1.972   0.562   0.504  0.3979  1.8801  0.2791
 5545SOL     OW17533   4.524   0.591   6.925  0.2656  0.6993 -0.2015
 5545SOL    HW117534   4.526   0.682   6.967 -1.1986  1.0636 -0.8938
 5545SOL    HW217535   4.456   0.588   6.853 -0.1815 -1.1457  0.2412
 5546SOL     OW17536   5.348   6.325   1.586 -0.2649  0.1119 -0.2597
 5546SOL    HW117537   5.323   6.265   1.509  0.6240  0.3801 -0.7629
 5546SOL    HW217538   5.434   6.372   1.566 -0.8247  1.3952  0.2291
 5547SOL     OW17539   1.528   5.681   6.320  0.2088 -0.2722  0.3019
 5547SOL    HW117540   1.622   5.671   6.352  0.7185 -1.9055 -1.5190
 5547SOL    HW217541   1.468   5.623   6.375  0.5427 -0.5462  0.3804
 5548SOL     OW17542   3.662   4.279   6.013 -0.8118  0.1188  0.5434
 5548SOL    HW117543   3.598   4.340   6.060  0.6833  0.0225  2.8962
 5548SOL    HW217544   3.755   4.314   6.023 -0.0552 -1.8124  0.7660
 5549SOL     OW17545   3.701   3.601   4.012  0.0099  0.1501  0.4704
 5549SOL    HW117546   3.720   3.612   3.914  1.1433  0.1392  0.6726
 5549SOL    HW217547   3.604   3.582   4.025 -0.0761 -0.2958 -0.6892
 5550SOL     OW17548   5.167   5.148   6.955  0.1887  0.6085  0.6862
 5550SOL    HW117549   5.141   5.150   6.859 -1.9471  1.4843  1.2241
 5550SOL    HW217550   5.102   5.092   7.006  1.0303  0.5145  1.6937
 5551SOL     OW17551   4.164   2.710   6.861 -0.4642 -0.4728 -0.0094
 5551SOL    HW117552   4.177   2.809   6.853 -1.0660 -0.3518  0.4246
 5551SOL    HW217553   4.131   2.674   6.774 -0.3471 -0.2786 -0.1377
 5552SOL     OW17554   1.792   1.924   6.017  0.7323  0.6288 -0.5635
 5552SOL    HW117555   1.821   1.981   6.094  0.2973  0.1800 -0.0565
 5552SOL    HW217556   1.870   1.905   5.958  1.2148  0.4386  0.1195
 5553SOL     OW17557   5.690   0.630   0.255 -0.1131  0.1968  0.6863
 5553SOL    HW117558   5.745   0.636   0.172 -1.4769 -0.4362 -0.2958
 5553SOL    HW217559   5.638   0.715   0.267 -0.0567  0.2169  0.7936
 5554SOL     OW17560   3.291   0.882   5.538  0.3360 -0.1092  0.0658
 5554SOL    HW117561   3.283   0.904   5.441 -0.8087  1.4664  0.4765
 5554SOL    HW217562   3.355   0.945   5.582  0.7809 -0.7571  0.3634
 5555SOL     OW17563   1.431   1.705   5.869 -0.4709 -0.0970  0.1083
 5555SOL    HW117564   1.352   1.738   5.816 -1.3497 -0.2088  1.2946
 5555SOL    HW217565   1.490   1.783   5.892 -0.5965  0.0920 -0.1933
 5556SOL     OW17566   2.895   5.971   5.924  0.2609 -0.1360 -0.2201
 5556SOL    HW117567   2.935   5.907   5.990 -2.1201 -1.0607  0.4094
 5556SOL    HW217568   2.797   5.956   5.919  0.1317  1.1712 -2.6636
 5557SOL     OW17569   1.572   0.461   5.334 -0.3077 -0.1043  0.4886
 5557SOL    HW117570   1.522   0.375   5.343 -1.3865  0.5216  0.6750
 5557SOL    HW217571   1.596   0.495   5.425 -0.5220  0.1503  0.4510
 5558SOL     OW17572   5.401   6.617   3.133 -0.8285  0.0280  0.6006
 5558SOL    HW117573   5.460   6.645   3.209 -2.2021  1.0007  1.3445
 5558SOL    HW217574   5.420   6.674   3.053 -1.1754  0.7438  1.0257
 5559SOL     OW17575   1.012   2.524   3.212 -0.4334  0.1327 -0.0747
 5559SOL    HW117576   0.913   2.532   3.229 -0.4229 -0.7323  0.4566
 5559SOL    HW217577   1.035   2.574   3.128 -1.3443  0.2350 -0.2826
 5560SOL     OW17578   5.591   0.098   6.402  0.1594  0.2391  0.0924
 5560SOL    HW117579   5.653   0.130   6.473  1.0131  2.1188 -1.4016
 5560SOL    HW217580   5.567   0.175   6.342 -0.0952 -1.3546 -1.9553
 5561SOL     OW17581   2.972   4.781   3.497 -0.1882 -0.5537 -0.0847
 5561SOL    HW117582   3.067   4.811   3.486 -0.2026 -0.0817  0.9459
 5561SOL    HW217583   2.928   4.777   3.407  0.8623 -1.0018 -0.5976
 5562SOL     OW17584   3.301   3.438   5.762 -0.2413  0.3815 -0.3562
 5562SOL    HW117585   3.324   3.424   5.665  1.1630  0.2595 -0.0257
 5562SOL    HW217586   3.214   3.486   5.769 -1.2333 -1.1085 -1.6619
 5563SOL     OW17587   1.087   2.709   3.013 -0.5905  0.0771 -0.0828
 5563SOL    HW117588   1.079   2.802   3.049 -0.7996  0.2632 -0.5957
 5563SOL    HW217589   1.180   2.692   2.982 -0.8851  0.6113 -1.2982
 5564SOL     OW17590   1.862   6.900   6.909 -0.2833 -0.2481  0.0957
 5564SOL    HW117591   1.813   6.924   6.826 -4.1653  1.4401  2.5752
 5564SOL    HW217592   1.924   6.974   6.934 -1.1505  0.5061  0.0654
 5565SOL     OW17593   4.258   2.441   0.745  0.3019  0.0839  0.1728
 5565SOL    HW117594   4.225   2.347   0.754  0.8081 -0.0265  0.9948
 5565SOL    HW217595   4.241   2.474   0.652  0.1638 -0.8328 -0.1351
 5566SOL     OW17596   0.755   4.557   3.507 -0.1960 -0.1477  0.3219
 5566SOL    HW117597   0.717   4.561   3.599 -0.5340  0.8543  0.1502
 5566SOL    HW217598   0.823   4.484   3.502  0.9467  0.7454  1.7883
 5567SOL     OW17599   6.231   5.047   0.303  0.0545 -0.0138 -0.7138
 5567SOL    HW117600   6.141   5.043   0.345  0.6953  1.3254  0.9474
 5567SOL    HW217601   6.246   5.138   0.264  1.0478  0.1615  0.0082
 5568SOL     OW17602   0.522   1.510   6.647 -0.6240  0.0425  0.4907
 5568SOL    HW117603   0.431   1.536   6.613  0.1370  0.5419 -1.2361
 5568SOL    HW217604   0.560   1.584   6.702 -1.2992 -0.2315  1.3596
 5569SOL     OW17605   3.239   0.253   0.659  0.2685 -0.0142 -0.0276
 5569SOL    HW117606   3.266   0.271   0.754 -0.5502 -0.0122  0.2129
 5569SOL    HW217607   3.209   0.158   0.650  3.0606 -0.8932 -0.9407
 5570SOL     OW17608   0.513   4.589   6.500 -0.5294  0.3085  0.2534
 5570SOL    HW117609   0.534   4.493   6.518  0.3347  0.6595  1.1936
 5570SOL    HW217610   0.565   4.620   6.420 -1.6978 -0.2950 -0.7868
 5571SOL     OW17611   2.669   6.817   2.998  0.4869 -0.3134  0.1830
 5571SOL    HW117612   2.576   6.827   2.963  1.4550  0.8775 -2.2699
 5571SOL    HW217613   2.681   6.724   3.033 -1.6380 -0.4448  0.7545
 5572SOL     OW17614   3.376   6.385   2.298 -0.1547 -0.2433 -0.3351
 5572SOL    HW117615   3.297   6.357   2.354  1.0286 -3.8149 -0.1934
 5572SOL    HW217616   3.457   6.337   2.330  1.4012  0.7222 -2.6244
 5573SOL     OW17617   2.851   6.773   7.011  0.6833 -0.3093 -0.0647
 5573SOL    HW117618   2.817   6.703   6.949 -1.1484 -1.0194  1.6360
 5573SOL    HW217619   2.918   6.830   6.964 -0.4449 -0.9540 -2.5861
 5574SOL     OW17620   4.892   5.243   6.376  0.9754  0.0340  0.2628
 5574SOL    HW117621   4.958   5.315   6.356  1.1470 -0.0963  0.3601
 5574SOL    HW217622   4.878   5.187   6.294  1.9833 -0.7467  0.6107
 5575SOL     OW17623   4.961   5.550   1.938  0.4499 -0.0794 -0.0746
 5575SOL    HW117624   4.955   5.639   1.984  0.9968 -0.0269 -0.0932
 5575SOL    HW217625   5.002   5.483   2.000 -1.2780 -0.7030  0.4535
 5576SOL     OW17626   6.933   4.092   5.916 -0.1434 -0.2455  0.0263
 5576SOL    HW117627   6.901   4.181   5.949 -2.8881 -0.6600 -1.2356
 5576SOL    HW217628   6.935   4.027   5.993 -0.0589  0.4043  0.5808
 5577SOL     OW17629   3.918   2.177   5.821 -0.3440  0.5699 -0.1822
 5577SOL    HW117630   3.873   2.146   5.905 -0.3627  0.2853 -0.2944
 5577SOL    HW217631   3.889   2.270   5.799 -0.5456  0.5458 -0.0192
 5578SOL     OW17632   0.925   1.102   2.162 -0.0341 -0.2657  0.1906
 5578SOL    HW117633   0.993   1.105   2.235 -0.4239  1.1604  0.5316
 5578SOL    HW217634   0.971   1.106   2.073  0.3678 -0.2097  0.3968
 5579SOL     OW17635   3.943   0.046   5.940  0.0586 -0.7318  0.2635
 5579SOL    HW117636   4.037   0.014   5.953 -0.5070 -2.1626  1.0378
 5579SOL    HW217637   3.924   0.119   6.006  0.7179 -0.2093 -0.1165
 5580SOL     OW17638   1.080   6.228   0.744 -0.3120  0.5279 -0.4603
 5580SOL    HW117639   1.167   6.277   0.732 -0.9733  1.4281 -1.8450
 5580SOL    HW217640   1.072   6.198   0.839  1.2031  1.0279 -0.1398
 5581SOL     OW17641   2.745   6.018   1.775  0.5909 -0.3775  0.3048
 5581SOL    HW117642   2.796   5.932   1.767  2.8086  1.0072 -2.0195
 5581SOL    HW217643   2.755   6.071   1.691 -2.8215  1.1258  0.6565
 5582SOL     OW17644   3.445   2.598   5.588 -0.2044  0.6782  0.0884
 5582SOL    HW117645   3.369   2.657   5.613 -0.3935  0.6942 -0.4927
 5582SOL    HW217646   3.409   2.508   5.561  0.0754  0.3110  0.9269
 5583SOL     OW17647   0.857   1.464   4.749 -0.3882 -0.3500  0.4572
 5583SOL    HW117648   0.845   1.562   4.766  0.1384 -0.5781  2.5130
 5583SOL    HW217649   0.856   1.446   4.651 -1.7804  1.5309  0.0773
 5584SOL     OW17650   1.087   3.356   5.775  0.0685 -0.8964 -0.0980
 5584SOL    HW117651   1.050   3.272   5.735 -0.1505 -1.1944  0.7070
 5584SOL    HW217652   1.172   3.335   5.824 -0.1961 -0.7179  0.4378
 5585SOL     OW17653   3.589   1.102   6.716 -0.4355  0.2601  0.1969
 5585SOL    HW117654   3.675   1.134   6.677  0.2786 -1.2788  0.4297
 5585SOL    HW217655   3.525   1.079   6.643 -0.5602  1.1518  0.0192
 5586SOL     OW17656   5.669   0.572   1.731  0.3464 -0.4927 -0.1957
 5586SOL    HW117657   5.616   0.494   1.700 -2.2972  0.7881  0.7921
 5586SOL    HW217658   5.669   0.576   1.831 -0.8870  1.5296 -0.2132
 5587SOL     OW17659   3.670   1.167   3.763  0.6156 -0.4475  0.0402
 5587SOL    HW117660   3.748   1.105   3.750  0.2894 -0.9794  0.5498
 5587SOL    HW217661   3.603   1.152   3.690  0.2647 -1.1276  0.4921
 5588SOL     OW17662   7.010   2.164   2.468  0.1197  0.8425 -0.6201
 5588SOL    HW117663   7.017   2.250   2.519  1.5887  2.0257 -2.6593
 5588SOL    HW217664   6.920   2.160   2.423 -0.2294  0.9684  0.0583
 5589SOL     OW17665   2.396   3.669   6.514  0.2864 -0.5555 -0.1663
 5589SOL    HW117666   2.359   3.761   6.518  1.5271 -0.0595  0.3593
 5589SOL    HW217667   2.401   3.630   6.606  0.3941 -0.8805 -0.3074
 5590SOL     OW17668   1.325   2.578   3.837  0.0126  0.3122 -0.1891
 5590SOL    HW117669   1.357   2.484   3.831  0.4246  0.3395  1.2482
 5590SOL    HW217670   1.228   2.583   3.814  0.4670 -0.1135 -2.3978
 5591SOL     OW17671   3.911   4.890   2.650  0.0313  0.2915 -0.0325
 5591SOL    HW117672   3.947   4.883   2.558 -1.0603  1.5148 -0.5803
 5591SOL    HW217673   3.817   4.855   2.652  0.4178 -0.7643  0.8753
 5592SOL     OW17674   6.089   0.801   1.225  0.4797  0.1064  0.2697
 5592SOL    HW117675   6.136   0.786   1.312  2.0116 -2.3881 -0.8905
 5592SOL    HW217676   6.006   0.744   1.222  0.8839 -0.4702 -0.2034
 5593SOL     OW17677   6.174   3.197   0.688 -0.2644 -0.0283  0.3404
 5593SOL    HW117678   6.111   3.157   0.622  0.3503  1.1599 -1.0203
 5593SOL    HW217679   6.251   3.136   0.702  0.2330  0.2548 -1.0400
 5594SOL     OW17680   3.854   6.894   3.885  0.0992 -0.6745 -0.1351
 5594SOL    HW117681   3.849   6.932   3.793  3.2294 -1.1540 -0.6053
 5594SOL    HW217682   3.800   6.810   3.890 -2.1632  0.6804 -0.7346
 5595SOL     OW17683   6.282   6.479   1.678 -0.5745  0.4395  0.0911
 5595SOL    HW117684   6.376   6.447   1.670 -0.9400 -0.6032 -0.3097
 5595SOL    HW217685   6.255   6.527   1.594 -1.1098 -1.3365 -0.8270
 5596SOL     OW17686   3.926   0.707   2.018 -0.5825  0.4860 -0.2950
 5596SOL    HW117687   3.938   0.806   2.026 -0.1684  0.4912 -0.8923
 5596SOL    HW217688   3.947   0.678   1.925 -0.7234 -0.1647 -0.1324
 5597SOL     OW17689   1.469   3.052   5.174 -0.3196  0.0228 -0.4605
 5597SOL    HW117690   1.488   3.024   5.268 -0.7715 -2.6623 -1.1045
 5597SOL    HW217691   1.549   3.034   5.117 -1.0903 -1.3539 -1.1531
 5598SOL     OW17692   1.810   3.054   6.767  0.0364  0.1914 -0.2702
 5598SOL    HW117693   1.779   2.970   6.812 -2.4038  0.6590 -0.9052
 5598SOL    HW217694   1.900   3.039   6.727  0.0678 -1.8180  0.4193
 5599SOL     OW17695   4.513   5.881   1.547  0.0571  0.6374  0.6166
 5599SOL    HW117696   4.476   5.789   1.532 -1.4532  1.0647  1.5475
 5599SOL    HW217697   4.609   5.873   1.575 -0.2782 -0.7355  1.5125
 5600SOL     OW17698   1.019   2.387   4.767 -0.3849 -0.3997 -0.1554
 5600SOL    HW117699   0.942   2.366   4.828  0.8979 -0.4469  1.5115
 5600SOL    HW217700   0.985   2.400   4.674 -2.1907 -2.0798  0.2176
 5601SOL     OW17701   1.574   3.967   0.803  0.2116 -0.0481  0.4692
 5601SOL    HW117702   1.643   3.992   0.871  1.7770 -0.4366 -0.9020
 5601SOL    HW217703   1.596   3.877   0.764  0.4926  0.9482 -1.8758
 5602SOL     OW17704   3.795   4.781   5.393  0.1130  0.1279  0.0459
 5602SOL    HW117705   3.867   4.712   5.394  0.8892  0.9044 -0.5500
 5602SOL    HW217706   3.830   4.865   5.353 -1.2869  0.3749 -0.7165
 5603SOL     OW17707   0.635   2.454   3.872 -0.0184  0.3336  0.5039
 5603SOL    HW117708   0.589   2.511   3.804 -0.6589 -0.4690  0.2578
 5603SOL    HW217709   0.663   2.512   3.949 -0.3731  1.0401  0.1182
 5604SOL     OW17710   6.932   1.144   0.656  0.3082  0.2827 -0.2164
 5604SOL    HW117711   6.889   1.175   0.571 -0.2849 -0.4371 -0.1916
 5604SOL    HW217712   6.889   1.190   0.734  0.8512  0.9420 -0.2995
 5605SOL     OW17713   5.086   0.512   4.302  0.2426  0.5628 -1.4331
 5605SOL    HW117714   5.070   0.413   4.307  1.0780  0.3335 -2.8007
 5605SOL    HW217715   5.182   0.529   4.278  0.6785  1.7733  0.8816
 5606SOL     OW17716   5.340   3.883   2.114 -0.2409  0.0150  0.0697
 5606SOL    HW117717   5.305   3.919   2.028  0.4202  0.4937 -0.0083
 5606SOL    HW217718   5.438   3.864   2.105 -0.4845 -1.4259  0.2365
 5607SOL     OW17719   6.746   0.333   0.128 -0.0841 -0.1359  0.1666
 5607SOL    HW117720   6.648   0.351   0.128 -0.1812 -0.6445 -0.1545
 5607SOL    HW217721   6.763   0.241   0.163  0.2823 -0.0251  0.2811
 5608SOL     OW17722   2.041   5.638   6.353  0.0336  0.3786  0.9944
 5608SOL    HW117723   2.057   5.539   6.347 -0.6526  0.3165 -0.1105
 5608SOL    HW217724   2.069   5.671   6.443  1.1424 -0.6556  1.0558
 5609SOL     OW17725   2.653   0.013   1.609  0.2291  0.8086 -0.0884
 5609SOL    HW117726   2.752   0.024   1.621  0.5379 -1.1599 -0.4452
 5609SOL    HW217727   2.612  -0.019   1.694  0.2553 -0.3303 -0.4840
 5610SOL     OW17728   2.353   6.540   0.982 -0.5863 -0.1464  0.5178
 5610SOL    HW117729   2.363   6.590   0.895 -2.6044 -0.9047 -0.2017
 5610SOL    HW217730   2.430   6.478   0.993  0.1606  0.5970 -0.2805
 5611SOL     OW17731   4.110   1.431   2.671 -0.0366  0.3518 -0.6286
 5611SOL    HW117732   4.065   1.352   2.714  0.4543 -0.3360 -1.3455
 5611SOL    HW217733   4.112   1.418   2.572  0.4348  1.0689 -0.7194
 5612SOL     OW17734   5.723   3.963   4.249 -0.3037  0.0770 -0.1659
 5612SOL    HW117735   5.682   3.884   4.205 -2.3114  0.9946 -0.0327
 5612SOL    HW217736   5.805   3.935   4.298 -1.1023 -1.9651  0.0789
 5613SOL     OW17737   5.750   4.459   1.532 -0.4608  0.1293  0.5008
 5613SOL    HW117738   5.847   4.479   1.545 -0.1910 -1.7488  1.8175
 5613SOL    HW217739   5.727   4.461   1.434  1.6068 -2.1850 -0.1239
 5614SOL     OW17740   0.198   3.538   1.776 -0.6111  0.0483  0.1077
 5614SOL    HW117741   0.140   3.611   1.813 -0.8220 -0.0703  0.0073
 5614SOL    HW217742   0.211   3.552   1.677 -0.4423  0.0926  0.1351
 5615SOL     OW17743   2.976   4.651   0.281 -0.4568  0.4853  0.5229
 5615SOL    HW117744   2.998   4.747   0.265 -1.8215  0.7866  0.3539
 5615SOL    HW217745   3.054   4.606   0.325 -0.1611  1.8988  1.4978
 5616SOL     OW17746   1.840   1.827   6.990  0.1843  0.0576 -0.1171
 5616SOL    HW117747   1.749   1.868   6.996 -0.5258 -1.4604 -0.0524
 5616SOL    HW217748   1.878   1.843   6.899 -0.0843  0.8276 -0.0992
 5617SOL     OW17749   2.149   2.024   2.202  0.3199 -0.3984  0.3529
 5617SOL    HW117750   2.118   1.997   2.111  1.5871  0.1098 -0.2607
 5617SOL    HW217751   2.204   2.108   2.195  0.3024 -0.2569  1.6078
 5618SOL     OW17752   3.240   5.490   2.310  0.2080  0.3834 -0.0539
 5618SOL    HW117753   3.157   5.475   2.258  0.7425  0.8048 -1.0537
 5618SOL    HW217754   3.277   5.581   2.289  1.2412 -0.0291 -0.0958
 5619SOL     OW17755   3.643   4.223   1.304  0.4131 -0.4322 -0.4749
 5619SOL    HW117756   3.735   4.190   1.326  0.8407  0.3273 -1.0678
 5619SOL    HW217757   3.581   4.201   1.379  1.5973  1.1295  1.0256
 5620SOL     OW17758   3.445   5.370   1.823 -0.1453 -0.3394  0.1948
 5620SOL    HW117759   3.426   5.279   1.861 -0.0995 -0.3130  0.2822
 5620SOL    HW217760   3.365   5.404   1.774 -0.2611 -0.3024  0.4122
 5621SOL     OW17761   2.481   4.511   3.600  0.4785  0.2183  0.3891
 5621SOL    HW117762   2.567   4.511   3.548  0.7318 -0.0005  0.8094
 5621SOL    HW217763   2.437   4.422   3.591 -0.2458  0.6601 -0.7049
 5622SOL     OW17764   0.759   1.518   5.949  0.0727 -0.4101 -0.8119
 5622SOL    HW117765   0.768   1.602   5.895  0.2317 -1.1432 -1.9533
 5622SOL    HW217766   0.663   1.507   5.977  0.3117  0.9722  0.7644
 5623SOL     OW17767   2.388   1.518   4.033  0.3803 -0.2133  0.2820
 5623SOL    HW117768   2.314   1.494   4.095  0.8869 -2.2090  0.1993
 5623SOL    HW217769   2.355   1.521   3.939 -0.1941  1.9299  0.4963
 5624SOL     OW17770   3.027   1.165   1.318  0.0641 -0.3089  0.0635
 5624SOL    HW117771   3.007   1.247   1.263 -2.0818 -0.1346  1.0143
 5624SOL    HW217772   3.065   1.193   1.406  0.1531 -0.3950  0.0529
 5625SOL     OW17773   3.882   5.370   2.224 -0.2229 -0.4617 -0.3655
 5625SOL    HW117774   3.960   5.309   2.226 -0.0296 -0.2015  1.1015
 5625SOL    HW217775   3.910   5.462   2.253 -0.6640  0.1386 -1.7817
 5626SOL     OW17776   3.953   6.711   1.591 -0.3375  0.2727  0.1555
 5626SOL    HW117777   3.875   6.748   1.540  0.0903  1.7899  0.5344
 5626SOL    HW217778   3.982   6.624   1.551 -3.3350 -1.2837  1.0879
 5627SOL     OW17779   6.510   0.848   5.466 -0.0196  0.4782 -0.5028
 5627SOL    HW117780   6.464   0.881   5.383  0.4642 -0.1177 -1.0202
 5627SOL    HW217781   6.536   0.752   5.454  0.8348  0.6309 -0.0009
 5628SOL     OW17782   4.504   0.980   1.841  0.0534 -0.1201  0.4704
 5628SOL    HW117783   4.413   0.985   1.882 -0.5861  1.4351 -1.0202
 5628SOL    HW217784   4.524   0.886   1.814 -1.2843 -0.4170  0.4458
 5629SOL     OW17785   1.397   6.944   4.776  0.6301  0.0059  0.0141
 5629SOL    HW117786   1.450   7.018   4.819  1.2939 -1.1360  1.2177
 5629SOL    HW217787   1.317   6.923   4.832  0.5106 -0.2759 -0.2588
 5630SOL     OW17788   5.621   2.922   5.039  0.3574  0.2741  0.8469
 5630SOL    HW117789   5.651   2.844   4.983  1.2194  0.3338  1.2145
 5630SOL    HW217790   5.581   2.888   5.124 -0.6306  0.1967  0.3736
 5631SOL     OW17791   2.378   1.258   4.335 -0.1086 -0.6799  0.0502
 5631SOL    HW117792   2.380   1.300   4.244 -1.0194 -1.8888 -0.5455
 5631SOL    HW217793   2.424   1.319   4.400  0.1873  0.3994 -1.1241
 5632SOL     OW17794   5.323   5.791   0.457 -0.1707 -0.4397 -0.1938
 5632SOL    HW117795   5.361   5.853   0.389  1.0342  0.1233  0.9484
 5632SOL    HW217796   5.264   5.841   0.519 -0.9378 -0.8739 -0.5551
 5633SOL     OW17797   1.761   3.100   1.593  0.4248  0.6793 -0.0533
 5633SOL    HW117798   1.811   3.098   1.506 -0.3069  0.5454 -0.4778
 5633SOL    HW217799   1.819   3.141   1.664  1.0748  0.6734 -0.5725
 5634SOL     OW17800   4.456   6.980   2.660 -0.1659  0.0727  0.8061
 5634SOL    HW117801   4.518   7.031   2.600 -0.6012 -1.2155 -0.7943
 5634SOL    HW217802   4.499   6.894   2.687 -0.3506  0.2285  1.6558
 5635SOL     OW17803   4.966   1.849   4.350  0.2234  0.0295 -0.5290
 5635SOL    HW117804   5.050   1.843   4.404  0.3562 -3.1137 -0.8726
 5635SOL    HW217805   4.887   1.829   4.409 -0.0851  0.9233 -0.6305
 5636SOL     OW17806   1.127   4.712   0.833  0.7046  0.0889  0.3327
 5636SOL    HW117807   1.033   4.719   0.799  0.9428 -0.7270 -0.5172
 5636SOL    HW217808   1.189   4.694   0.757  1.4429 -0.2536  1.0067
 5637SOL     OW17809   6.926   3.867   1.777  0.7626  0.0182  0.4003
 5637SOL    HW117810   6.988   3.850   1.853 -1.4797  0.5860  2.4911
 5637SOL    HW217811   6.932   3.963   1.750 -0.2309  0.4642  1.6524
 5638SOL     OW17812   4.882   5.951   1.186 -0.2465  0.5720 -0.0673
 5638SOL    HW117813   4.824   6.011   1.241  1.9576  2.2114  0.5851
 5638SOL    HW217814   4.922   6.003   1.111  1.1407 -0.2488  0.0731
 5639SOL     OW17815   3.709   2.289   6.397 -0.0744 -0.2941  0.1257
 5639SOL    HW117816   3.646   2.312   6.471  0.4900  0.6704  0.3184
 5639SOL    HW217817   3.723   2.369   6.339  0.2871 -0.7517 -0.4349
 5640SOL     OW17818   0.321   0.365   3.300 -0.0552  0.0929  0.0448
 5640SOL    HW117819   0.310   0.386   3.397  0.4921 -0.9134  0.3404
 5640SOL    HW217820   0.233   0.376   3.253 -0.7790 -1.1846  1.0194
 5641SOL     OW17821   2.418   5.906   1.454  0.8950 -0.1553 -0.0078
 5641SOL    HW117822   2.426   6.006   1.450  0.2941 -0.0597  0.7444
 5641SOL    HW217823   2.352   5.882   1.526  1.6307 -1.1140  0.3620
 5642SOL     OW17824   2.556   3.888   1.216  0.1633 -0.3819 -0.0794
 5642SOL    HW117825   2.615   3.905   1.138  0.7548 -2.0080 -0.0152
 5642SOL    HW217826   2.604   3.912   1.300 -0.6248  1.7775 -0.1824
 5643SOL     OW17827   1.562   1.047   5.028 -0.3553 -0.1049 -0.1231
 5643SOL    HW117828   1.518   1.018   5.113 -1.2010 -0.7055 -0.7410
 5643SOL    HW217829   1.653   1.004   5.022 -1.4429 -2.5076 -0.8579
 5644SOL     OW17830   5.502   4.029   4.848  0.0013  0.1793 -0.2668
 5644SOL    HW117831   5.599   4.046   4.863  0.1588 -0.0477 -0.9577
 5644SOL    HW217832   5.467   3.967   4.918  1.0739 -2.1115 -1.6114
 5645SOL     OW17833   3.855   5.437   3.895 -0.4525 -0.3490 -0.7627
 5645SOL    HW117834   3.941   5.450   3.845 -1.1709  1.2850 -1.6560
 5645SOL    HW217835   3.778   5.444   3.831 -1.3425  0.3170  0.3472
 5646SOL     OW17836   2.780   5.333   2.222 -0.7343 -0.4143  0.1613
 5646SOL    HW117837   2.829   5.258   2.268  0.3406  0.4175  0.4149
 5646SOL    HW217838   2.768   5.309   2.125  1.2761 -0.1559 -0.1934
 5647SOL     OW17839   6.149   1.976   1.942 -0.4136  0.6496 -0.0570
 5647SOL    HW117840   6.129   1.988   1.845  1.0078 -0.2806 -0.4986
 5647SOL    HW217841   6.114   1.887   1.973  3.4053 -1.4500 -1.0783
 5648SOL     OW17842   3.630   6.703   2.032 -0.5123 -0.3476  0.0168
 5648SOL    HW117843   3.706   6.737   2.088 -1.2453  1.4752 -0.0203
 5648SOL    HW217844   3.554   6.678   2.092 -0.7615  0.1910 -0.0688
 5649SOL     OW17845   3.345   0.062   4.241 -0.2288  0.1763  0.1030
 5649SOL    HW117846   3.273  -0.003   4.268  0.5010 -0.1337  1.3701
 5649SOL    HW217847   3.388   0.100   4.323  2.0819 -0.7911 -0.5773
 5650SOL     OW17848   1.439   4.653   2.045 -0.1760 -0.0873 -0.1497
 5650SOL    HW117849   1.449   4.624   1.950 -0.6529  0.1502 -0.2718
 5650SOL    HW217850   1.438   4.753   2.049 -1.9355 -0.0916 -0.0836
 5651SOL     OW17851   6.543   0.472   6.483 -0.0045 -0.6494 -0.5822
 5651SOL    HW117852   6.474   0.517   6.427  2.3403  1.1001 -2.2500
 5651SOL    HW217853   6.550   0.518   6.572 -0.3314 -0.2523 -0.7633
 5652SOL     OW17854   2.413   6.972   2.960 -0.0043 -0.1649 -0.2149
 5652SOL    HW117855   2.463   7.022   2.890 -1.2532  1.2087 -0.1809
 5652SOL    HW217856   2.430   7.014   3.050  1.0837 -1.5170  0.2464
 5653SOL     OW17857   5.584   1.723   5.078  0.1714  0.1109  0.3268
 5653SOL    HW117858   5.683   1.733   5.083  0.0175  2.2729  0.1038
 5653SOL    HW217859   5.544   1.805   5.037 -1.6136 -1.2999 -0.9640
 5654SOL     OW17860   5.218   0.280   3.526  0.1707  0.2363 -0.1088
 5654SOL    HW117861   5.304   0.253   3.569  1.1072  0.6334 -1.6723
 5654SOL    HW217862   5.158   0.200   3.520 -0.1857  0.2567  2.2671
 5655SOL     OW17863   6.327   5.586   2.257 -0.3574 -0.3087 -0.9359
 5655SOL    HW117864   6.379   5.650   2.314 -0.8195 -0.6556 -0.1228
 5655SOL    HW217865   6.245   5.556   2.305 -0.6561 -0.7647 -1.7048
 5656SOL     OW17866   3.238   1.777   1.094  0.2113 -0.3200  1.0853
 5656SOL    HW117867   3.336   1.759   1.085  0.1834  0.0168 -0.1234
 5656SOL    HW217868   3.190   1.691   1.109  0.6078 -0.6078  0.7456
 5657SOL     OW17869   0.381   3.639   2.733 -0.0328  0.9274 -0.4421
 5657SOL    HW117870   0.358   3.736   2.724 -0.3968  0.8933  0.0357
 5657SOL    HW217871   0.472   3.622   2.695  0.6020  1.7114  0.6424
 5658SOL     OW17872   5.393   4.270   0.637 -0.2285 -0.5303  0.3630
 5658SOL    HW117873   5.455   4.348   0.647  0.5842 -1.1408  0.2028
 5658SOL    HW217874   5.429   4.193   0.689  0.1396 -1.4670 -1.2369
 5659SOL     OW17875   3.364   4.111   2.142 -0.0230 -0.1188  0.2862
 5659SOL    HW117876   3.414   4.027   2.166  0.2029 -0.5746 -1.6443
 5659SOL    HW217877   3.278   4.114   2.192 -0.1700 -1.6636  0.1690
 5660SOL     OW17878   5.693   2.160   6.490  0.2677 -0.0465  0.4918
 5660SOL    HW117879   5.697   2.063   6.516  0.6620 -0.3017 -0.4627
 5660SOL    HW217880   5.783   2.202   6.505  0.6948 -0.3619 -0.9863
 5661SOL     OW17881   0.397   1.484   5.699 -0.1300  0.6385 -0.3144
 5661SOL    HW117882   0.493   1.512   5.699  0.3668 -0.9552  0.1010
 5661SOL    HW217883   0.384   1.411   5.766 -1.3711 -0.0040 -1.2195
 5662SOL     OW17884   5.747   4.452   4.827 -0.1943 -0.3501  0.4062
 5662SOL    HW117885   5.656   4.476   4.860 -0.9127 -2.5678  0.1747
 5662SOL    HW217886   5.809   4.440   4.905 -0.7984 -1.3905  0.7500
 5663SOL     OW17887   2.034   4.594   4.402  0.3589 -0.4531 -0.3791
 5663SOL    HW117888   1.957   4.533   4.416  0.3579 -0.2908  0.3352
 5663SOL    HW217889   2.047   4.652   4.482  3.8503 -3.3530  1.4613
 5664SOL     OW17890   0.747   1.991   6.793 -0.5570 -0.1197 -0.1805
 5664SOL    HW117891   0.828   2.049   6.801 -0.2905 -0.6876  1.4449
 5664SOL    HW217892   0.666   2.048   6.775 -0.3903  0.8445  1.9028
 5665SOL     OW17893   3.574   1.012   4.928 -0.5340 -0.1315 -0.3812
 5665SOL    HW117894   3.613   1.078   4.864 -0.7676  0.1539 -0.2329
 5665SOL    HW217895   3.475   1.007   4.914 -0.6461  0.2409  0.2275
 5666SOL     OW17896   6.630   3.271   2.070 -0.5220 -0.1890 -0.1406
 5666SOL    HW117897   6.536   3.283   2.104 -0.4204 -2.0503  0.8939
 5666SOL    HW217898   6.629   3.268   1.970 -1.5208  0.0282 -0.1492
 5667SOL     OW17899   4.286   1.698   6.330  0.1978 -0.4698  0.4819
 5667SOL    HW117900   4.221   1.752   6.384 -1.5683 -1.1215 -0.8655
 5667SOL    HW217901   4.364   1.755   6.305 -0.0574  0.4940  1.7462
 5668SOL     OW17902   6.057   0.361   3.089  0.0082 -0.2878 -0.1526
 5668SOL    HW117903   6.072   0.444   3.143 -0.7502 -0.2972  0.0920
 5668SOL    HW217904   6.043   0.386   2.993  0.6754 -0.2106 -0.2299
 5669SOL     OW17905   2.899   5.812   5.069 -0.6050  0.5105 -0.8847
 5669SOL    HW117906   2.925   5.750   5.143  0.8084 -0.5086 -2.1697
 5669SOL    HW217907   2.936   5.904   5.088  1.3174 -0.1645 -1.1374
 5670SOL     OW17908   0.166   4.927   0.363 -0.0776  0.1745  0.2184
 5670SOL    HW117909   0.186   4.830   0.376 -0.4486  0.2753  1.8313
 5670SOL    HW217910   0.204   4.979   0.440  1.0838  1.4662 -1.1853
 5671SOL     OW17911   4.442   2.499   5.257 -0.1600 -0.4886  0.0456
 5671SOL    HW117912   4.484   2.560   5.324  1.0338  1.9355 -2.7190
 5671SOL    HW217913   4.348   2.528   5.238 -0.1235 -0.4930 -0.1444
 5672SOL     OW17914   2.846   0.995   1.697  0.1906  0.2143 -0.3066
 5672SOL    HW117915   2.758   0.987   1.745  0.2852 -0.8725 -0.2733
 5672SOL    HW217916   2.891   0.906   1.697  0.5367  0.3635 -1.7680
 5673SOL     OW17917   3.904   6.946   3.612  0.5083  0.0361  0.6811
 5673SOL    HW117918   3.870   7.000   3.534  1.1156 -2.3481 -1.3501
 5673SOL    HW217919   3.865   6.854   3.609  2.7997 -1.0418  1.4992
 5674SOL     OW17920   0.159   4.611   4.230  0.4282 -0.1408  0.1504
 5674SOL    HW117921   0.234   4.590   4.168 -0.3497 -3.2372  0.0941
 5674SOL    HW217922   0.195   4.636   4.320  1.5124  0.6795 -0.4889
 5675SOL     OW17923   4.154   5.844   7.008 -0.0125 -0.3978 -0.4228
 5675SOL    HW117924   4.159   5.761   7.063 -0.1967 -0.2986 -0.2559
 5675SOL    HW217925   4.241   5.892   7.011 -0.0284 -0.3823 -0.2006
 5676SOL     OW17926   2.790   0.666   2.437 -0.0663  0.8322  0.0841
 5676SOL    HW117927   2.799   0.709   2.347  2.1293 -1.7321 -1.0703
 5676SOL    HW217928   2.856   0.706   2.500  0.5166  0.5813 -0.3610
 5677SOL     OW17929   0.370   4.307   6.566  0.1297 -0.1787  0.4265
 5677SOL    HW117930   0.421   4.223   6.585 -0.0019 -0.0574  1.4150
 5677SOL    HW217931   0.298   4.289   6.499 -1.5560 -1.5146  2.4505
 5678SOL     OW17932   4.027   3.061   2.223 -0.0543 -0.7015  0.0686
 5678SOL    HW117933   3.930   3.086   2.231 -0.0128 -0.6685  0.5147
 5678SOL    HW217934   4.052   3.000   2.298  0.3847 -0.3410  0.2240
 5679SOL     OW17935   0.526   1.935   4.245  0.1168  0.0301  0.2368
 5679SOL    HW117936   0.440   1.949   4.196 -0.0373  0.5454  0.6591
 5679SOL    HW217937   0.601   1.925   4.178 -0.1522  0.3248 -0.1139
 5680SOL     OW17938   1.622   0.589   6.458  0.3917  0.0634 -0.1291
 5680SOL    HW117939   1.583   0.680   6.473  0.5297  0.1068 -0.0308
 5680SOL    HW217940   1.677   0.563   6.537  0.4371 -0.0621 -0.2022
 5681SOL     OW17941   3.708   2.838   2.045  0.0084  0.0167  0.5155
 5681SOL    HW117942   3.759   2.836   1.959  0.0170 -1.0771  0.5231
 5681SOL    HW217943   3.741   2.764   2.104 -0.8793 -0.0572  0.9347
 5682SOL     OW17944   3.380   0.765   0.067  0.2495  0.2890  0.2382
 5682SOL    HW117945   3.301   0.707   0.049 -0.4336  0.6243  2.0172
 5682SOL    HW217946   3.398   0.768   0.165  2.9341 -0.3582 -0.1399
 5683SOL     OW17947   1.718   2.634   1.426  0.1790 -0.5303  0.5473
 5683SOL    HW117948   1.801   2.681   1.453  0.8103 -1.1045 -0.3381
 5683SOL    HW217949   1.727   2.536   1.445 -1.0208 -0.3758  2.1335
 5684SOL     OW17950   2.498   2.555   4.522 -0.1199 -0.2964  0.4334
 5684SOL    HW117951   2.468   2.651   4.520 -0.2577 -0.3481 -0.0529
 5684SOL    HW217952   2.561   2.542   4.598 -0.2055  0.1522  0.5857
 5685SOL     OW17953   6.562   6.588   0.146 -0.3092 -0.2345 -0.1612
 5685SOL    HW117954   6.465   6.611   0.141  0.2337  2.8569  1.1844
 5685SOL    HW217955   6.604   6.638   0.222  2.3489 -1.5313 -0.6694
 5686SOL     OW17956   3.901   5.772   5.042 -0.4846 -0.1755  0.0314
 5686SOL    HW117957   3.865   5.720   4.964 -1.5220  0.5913 -0.0339
 5686SOL    HW217958   3.838   5.764   5.119  0.4620 -0.8021  0.7623
 5687SOL     OW17959   0.762   0.526   0.061  0.0035 -0.1793  0.0731
 5687SOL    HW117960   0.855   0.513   0.025  0.4122  1.1394  0.5919
 5687SOL    HW217961   0.711   0.586   0.000 -0.3123 -0.4136  0.1080
 5688SOL     OW17962   0.283   4.363   5.645 -0.3705  0.2177  0.1328
 5688SOL    HW117963   0.207   4.351   5.709  0.1019 -1.1488  0.4614
 5688SOL    HW217964   0.366   4.388   5.696  0.2953 -2.0353  0.2392
 5689SOL     OW17965   3.975   0.591   5.244  0.2443 -0.0800  0.3959
 5689SOL    HW117966   4.033   0.564   5.320  1.5685 -0.2494 -0.6379
 5689SOL    HW217967   4.003   0.541   5.162 -2.0526 -0.9573  0.0740
 5690SOL     OW17968   3.123   6.574   6.987  0.1148 -0.0143  0.7128
 5690SOL    HW117969   3.090   6.550   7.078  0.4899  0.6239  1.0216
 5690SOL    HW217970   3.050   6.561   6.920 -0.6167  0.9279  1.3116
 5691SOL     OW17971   5.858   4.610   3.276  0.0008 -0.0422  0.1749
 5691SOL    HW117972   5.865   4.695   3.327  0.4173  0.5127 -0.7898
 5691SOL    HW217973   5.821   4.628   3.185 -1.4707 -1.1205  0.5215
 5692SOL     OW17974   5.658   3.764   1.608  0.8856  0.0476  0.3200
 5692SOL    HW117975   5.711   3.719   1.536 -0.1496 -1.0475  0.2216
 5692SOL    HW217976   5.587   3.821   1.567  2.0015  1.5700  0.4502
 5693SOL     OW17977   6.033   2.015   3.211 -0.1484 -0.3228  0.0790
 5693SOL    HW117978   5.961   2.076   3.178  1.9412  1.3162 -1.7410
 5693SOL    HW217979   6.066   2.047   3.300 -0.0633  0.3374 -0.1860
 5694SOL     OW17980   3.342   3.160   5.800 -0.6940  0.8112 -0.3190
 5694SOL    HW117981   3.278   3.100   5.751  0.9318  0.5935 -2.2745
 5694SOL    HW217982   3.320   3.255   5.779 -2.0567  0.8998  1.2517
 5695SOL     OW17983   0.664   0.333   5.067  0.2261 -0.0110 -0.3709
 5695SOL    HW117984   0.628   0.413   5.116 -0.5037 -0.6999  0.2493
 5695SOL    HW217985   0.721   0.279   5.129 -0.2740 -0.6081 -0.4230
 5696SOL     OW17986   5.642   6.198   0.717  0.2028 -0.1481 -0.1957
 5696SOL    HW117987   5.741   6.203   0.705  0.4875 -0.3294  1.6926
 5696SOL    HW217988   5.621   6.176   0.813 -1.6620 -0.3552 -0.6074
 5697SOL     OW17989   1.745   2.854   1.735  0.1961 -0.5312 -0.4065
 5697SOL    HW117990   1.841   2.830   1.751 -0.3163 -2.9291 -0.6076
 5697SOL    HW217991   1.740   2.928   1.668  1.9041  0.4778  0.4850
 5698SOL     OW17992   0.109   0.445   5.601 -0.5847  0.0693 -0.6198
 5698SOL    HW117993   0.028   0.494   5.634 -0.8270 -1.4554  1.2229
 5698SOL    HW217994   0.133   0.373   5.666  1.9505  0.1217 -1.3971
 5699SOL     OW17995   5.558   6.239   6.702 -0.2371 -0.0760  0.0904
 5699SOL    HW117996   5.523   6.204   6.789  1.4540 -3.0020 -0.2979
 5699SOL    HW217997   5.656   6.259   6.712 -0.1094 -0.0984 -1.0585
 5700SOL     OW17998   5.613   5.370   6.422  0.0871  0.3254 -0.6532
 5700SOL    HW117999   5.651   5.448   6.373  1.5113 -0.4905 -0.9171
 5700SOL    HW218000   5.520   5.352   6.390 -0.5735  2.3528 -0.0279
 5701SOL     OW18001   2.164   1.096   2.724 -0.1840  0.2098  0.2911
 5701SOL    HW118002   2.222   1.090   2.805  0.0007 -1.6205  0.0653
 5701SOL    HW218003   2.183   1.018   2.664 -0.5121  1.3851 -1.3914
 5702SOL     OW18004   3.817   5.400   1.038  0.0703  0.5540 -0.6598
 5702SOL    HW118005   3.847   5.459   1.113  0.9807 -0.7466  0.0503
 5702SOL    HW218006   3.848   5.306   1.055 -0.5301  0.0385 -2.2039
 5703SOL     OW18007   0.102   6.544   4.027 -0.0868 -0.5043 -0.0271
 5703SOL    HW118008   0.089   6.480   4.102 -0.3727  0.4290  0.7462
 5703SOL    HW218009   0.020   6.601   4.016  0.4600  0.2820 -0.1500
 5704SOL     OW18010   6.383   4.429   0.763 -0.4344  0.2785 -0.3325
 5704SOL    HW118011   6.372   4.349   0.822  1.0405  0.9689  0.9409
 5704SOL    HW218012   6.307   4.493   0.780  0.1738  0.6564  1.1912
 5705SOL     OW18013   1.129   1.841   4.461 -0.4145 -0.6245  0.2113
 5705SOL    HW118014   1.081   1.808   4.543 -0.2317 -0.5726  0.3405
 5705SOL    HW218015   1.209   1.895   4.489 -1.6705  1.4306  0.0452
 5706SOL     OW18016   0.918   2.621   1.125 -0.4152 -0.8383  0.2918
 5706SOL    HW118017   0.915   2.582   1.033  0.9914 -0.0474 -0.1249
 5706SOL    HW218018   0.952   2.715   1.120 -1.8424 -0.2156  1.4671
 5707SOL     OW18019   3.710   0.779   2.796 -0.3484  0.2777 -0.1279
 5707SOL    HW118020   3.790   0.839   2.803 -0.7587  0.6558  1.7543
 5707SOL    HW218021   3.682   0.750   2.887 -2.8614  0.8163 -0.6505
 5708SOL     OW18022   0.349   2.189   6.984  0.3662  0.2093 -0.7967
 5708SOL    HW118023   0.368   2.287   6.990 -3.5938  1.1430 -0.6861
 5708SOL    HW218024   0.357   2.147   7.074  0.4252  0.8010 -0.5286
 5709SOL     OW18025   6.536   5.618   2.890 -0.1133  0.0458 -0.0275
 5709SOL    HW118026   6.455   5.673   2.867  0.4129  2.2598  2.8546
 5709SOL    HW218027   6.509   5.541   2.947 -0.4687 -0.9893 -1.5246
 5710SOL     OW18028   6.957   2.874   5.574 -0.4916 -0.7052 -0.8069
 5710SOL    HW118029   6.948   2.900   5.670  1.1184 -2.3799 -0.1607
 5710SOL    HW218030   7.028   2.930   5.531 -0.1326 -0.9985 -0.6006
 5711SOL     OW18031   5.020   3.470   6.367  0.5847 -0.1512 -0.1655
 5711SOL    HW118032   5.118   3.454   6.353  0.8097  0.4299  0.6919
 5711SOL    HW218033   5.005   3.566   6.391 -0.1046 -0.4249  0.5329
 5712SOL     OW18034   3.049   0.891   5.644  0.3696 -0.1298 -0.3322
 5712SOL    HW118035   2.985   0.953   5.601  1.4773  0.9085 -0.5450
 5712SOL    HW218036   3.139   0.901   5.602  1.5446  0.9856  2.2144
 5713SOL     OW18037   5.072   1.930   1.467  0.5359  0.3569  0.3203
 5713SOL    HW118038   5.030   1.937   1.377  0.5538 -2.6613 -0.0151
 5713SOL    HW218039   5.097   1.835   1.485  0.5459  0.8528  3.5187
 5714SOL     OW18040   1.375   2.797   1.538 -0.5170  0.0155  0.2975
 5714SOL    HW118041   1.473   2.794   1.520  0.1188  0.8725  3.2076
 5714SOL    HW218042   1.335   2.875   1.490  0.2625 -0.1334 -0.6329
 5715SOL     OW18043   3.881   2.078   5.061  0.2933  0.1542 -0.1810
 5715SOL    HW118044   3.930   2.130   4.991 -0.9860  2.7431  0.7174
 5715SOL    HW218045   3.928   2.087   5.148  1.1257 -1.9141 -0.3675
 5716SOL     OW18046   0.013   6.603   6.557 -0.4102 -0.1832  0.3374
 5716SOL    HW118047   0.053   6.667   6.623 -0.3552  0.3862 -0.2423
 5716SOL    HW218048   0.084   6.570   6.495 -0.4248 -0.8693  0.6717
 5717SOL     OW18049   3.838   2.946   6.996  0.7714 -0.3037 -0.2223
 5717SOL    HW118050   3.787   2.926   6.911 -0.1693  2.8453 -0.5362
 5717SOL    HW218051   3.901   3.022   6.980  1.4741 -0.4462  1.6264
 5718SOL     OW18052   2.157   7.019   5.557 -0.2248 -0.2174  0.5556
 5718SOL    HW118053   2.103   7.056   5.481  1.5022  0.1717 -0.5387
 5718SOL    HW218054   2.141   7.073   5.639 -0.8429  0.4062  0.0396
 5719SOL     OW18055   1.973   6.330   5.758  0.1120 -0.3850 -0.1527
 5719SOL    HW118056   1.925   6.413   5.733 -0.4913 -1.0341 -1.2524
 5719SOL    HW218057   2.054   6.319   5.700  0.2032 -0.5532  0.0020
 5720SOL     OW18058   1.073   0.944   3.757 -0.8200  0.1416  0.8832
 5720SOL    HW118059   1.114   0.955   3.848  1.5808  0.4222 -0.1426
 5720SOL    HW218060   1.076   0.848   3.731  1.8497  0.4401 -0.2458
 5721SOL     OW18061   4.721   0.085   3.331 -0.2139 -0.1208 -0.4600
 5721SOL    HW118062   4.662   0.105   3.253  1.1057 -0.1045 -1.4884
 5721SOL    HW218063   4.741   0.170   3.380 -1.5061 -0.2093  0.2684
 5722SOL     OW18064   5.025   0.866   6.375 -0.3640 -0.1944 -0.5205
 5722SOL    HW118065   4.930   0.849   6.403 -0.2062 -1.4546 -0.6573
 5722SOL    HW218066   5.041   0.964   6.367 -1.6925  0.0350 -0.6024
 5723SOL     OW18067   3.438   1.763   6.385  0.1764  0.1823 -0.9757
 5723SOL    HW118068   3.363   1.703   6.411  1.4812 -0.5261  1.5032
 5723SOL    HW218069   3.404   1.856   6.373 -0.8734  0.3937  2.4423
 5724SOL     OW18070   6.006   1.644   2.507 -0.4157  0.9349  0.2979
 5724SOL    HW118071   6.000   1.619   2.410  2.4325  0.2231  0.2154
 5724SOL    HW218072   5.967   1.571   2.563 -1.1690  0.8835 -0.2894
 5725SOL     OW18073   5.833   3.376   2.134  0.2458 -0.0922 -0.2599
 5725SOL    HW118074   5.909   3.390   2.198  0.4031  0.7000 -0.6145
 5725SOL    HW218075   5.755   3.339   2.184  0.2750  0.7684  0.4552
 5726SOL     OW18076   6.145   5.018   2.773 -0.0530  0.4881 -0.0844
 5726SOL    HW118077   6.152   4.963   2.689  3.1626 -0.1637  0.5004
 5726SOL    HW218078   6.080   5.093   2.758  0.3804  0.3769 -3.1622
 5727SOL     OW18079   5.576   6.086   4.371 -0.6771  0.6287 -0.0292
 5727SOL    HW118080   5.566   5.992   4.338  0.8688  0.6063 -0.5052
 5727SOL    HW218081   5.613   6.085   4.464 -0.8567  0.7634  0.0441
 5728SOL     OW18082   4.351   5.245   3.798  0.9228 -0.2234 -0.1900
 5728SOL    HW118083   4.343   5.331   3.848  1.6658 -0.2391 -0.0328
 5728SOL    HW218084   4.399   5.261   3.712 -1.4938  0.0526 -1.5656
 5729SOL     OW18085   1.170   4.889   6.087 -0.2078 -0.5856 -0.2955
 5729SOL    HW118086   1.070   4.889   6.085 -0.2045 -0.7461 -0.4839
 5729SOL    HW218087   1.203   4.984   6.083 -0.3473 -0.5434 -0.4543
 5730SOL     OW18088   0.506   2.364   3.483 -0.6692  0.5813  0.0748
 5730SOL    HW118089   0.458   2.428   3.424  0.9083  1.4588 -0.3175
 5730SOL    HW218090   0.588   2.408   3.521 -1.0226 -0.3108  2.0322
 5731SOL     OW18091   1.989   0.288   4.871  0.3210 -0.6687  0.1515
 5731SOL    HW118092   1.976   0.387   4.868 -1.1517 -0.7926  1.1897
 5731SOL    HW218093   2.083   0.266   4.845  1.7357  1.2602  3.0364
 5732SOL     OW18094   3.628   2.545   5.872 -0.1990  0.7517  0.6183
 5732SOL    HW118095   3.543   2.578   5.831 -1.2104  0.2006  2.2053
 5732SOL    HW218096   3.608   2.486   5.950  1.6466  0.9656  1.3225
 5733SOL     OW18097   6.076   1.342   4.592 -0.1611  0.1080 -0.2974
 5733SOL    HW118098   6.009   1.268   4.597 -0.1606  0.2071  1.7780
 5733SOL    HW218099   6.095   1.377   4.683 -0.4233  2.9311 -1.2223
 5734SOL     OW18100   5.609   1.294   4.878  0.1258  0.1345 -0.5152
 5734SOL    HW118101   5.549   1.317   4.954  0.6279 -2.9327  0.9202
 5734SOL    HW218102   5.704   1.309   4.905  0.3265 -1.3201 -0.3518
 5735SOL     OW18103   6.826   2.493   2.040 -0.7895 -0.3720 -0.4691
 5735SOL    HW118104   6.780   2.580   2.059 -0.4229 -0.3110  0.1744
 5735SOL    HW218105   6.858   2.453   2.126 -0.0542 -0.6425 -0.8593
 5736SOL     OW18106   1.532   4.421   0.160 -0.6695  0.0296  0.2349
 5736SOL    HW118107   1.584   4.415   0.075 -0.6229  1.0413  0.1810
 5736SOL    HW218108   1.529   4.516   0.191 -1.9079 -0.1080  0.6002
 5737SOL     OW18109   6.852   6.333   2.283 -0.6141 -0.1950 -0.1175
 5737SOL    HW118110   6.834   6.416   2.231 -0.4109 -0.4262 -0.5747
 5737SOL    HW218111   6.818   6.342   2.376 -1.3026  0.0992 -0.3985
 5738SOL     OW18112   4.648   3.469   5.928 -0.0336 -1.0250 -0.0548
 5738SOL    HW118113   4.671   3.546   5.988  0.5159 -2.4205  1.5961
 5738SOL    HW218114   4.670   3.494   5.833 -0.6297  1.1204  0.3094
 5739SOL     OW18115   6.910   3.016   6.873 -0.2478 -0.0040  0.0645
 5739SOL    HW118116   6.985   3.048   6.815 -0.5080 -0.0190 -0.2818
 5739SOL    HW218117   6.899   3.077   6.952 -0.9199  0.9272 -0.7266
 5740SOL     OW18118   4.171   2.917   5.600 -0.1088  0.1597 -0.2427
 5740SOL    HW118119   4.207   2.927   5.507  0.8069 -1.1350 -0.0516
 5740SOL    HW218120   4.071   2.917   5.597 -0.0912  0.2960 -1.1965
 5741SOL     OW18121   0.890   3.333   1.108 -0.1561  0.8142 -0.6200
 5741SOL    HW118122   0.931   3.275   1.038  1.0703  0.4015  0.4052
 5741SOL    HW218123   0.832   3.278   1.169 -0.4282  0.9962 -0.7083
 5742SOL     OW18124   1.620   1.239   3.837 -0.9437  0.3538 -0.5749
 5742SOL    HW118125   1.691   1.305   3.860 -0.5445  0.2501 -1.4693
 5742SOL    HW218126   1.641   1.151   3.880 -1.3136  0.7128  0.3632
 5743SOL     OW18127   1.083   6.258   4.880  0.0742  0.3569 -0.7444
 5743SOL    HW118128   1.023   6.191   4.922 -0.1369  0.8974 -0.1756
 5743SOL    HW218129   1.174   6.254   4.922  0.2620 -0.0321 -1.1764
 5744SOL     OW18130   6.609   1.839   6.859 -0.3508  0.3471  0.2560
 5744SOL    HW118131   6.695   1.788   6.865 -0.2155  0.5901  0.4216
 5744SOL    HW218132   6.591   1.862   6.764 -0.9162 -0.8525  0.0632
 5745SOL     OW18133   1.514   1.856   3.824  0.5611 -1.1616 -0.4740
 5745SOL    HW118134   1.593   1.873   3.885 -0.1947 -0.8718  0.4538
 5745SOL    HW218135   1.534   1.892   3.733  1.3005 -0.6141 -0.1073
 5746SOL     OW18136   0.638   5.413   3.928 -0.3642  0.1788 -0.3294
 5746SOL    HW118137   0.719   5.373   3.885 -1.9343 -3.4043 -0.3261
 5746SOL    HW218138   0.569   5.430   3.858 -1.0450 -0.7198  0.1032
 5747SOL     OW18139   5.980   6.632   0.811  0.1476 -0.2941  0.1530
 5747SOL    HW118140   5.995   6.712   0.870  1.8067 -0.7882  0.4568
 5747SOL    HW218141   5.912   6.573   0.852 -1.1669  0.9859 -0.1133
 5748SOL     OW18142   0.118   1.098   3.416 -0.7519  0.3340  0.4416
 5748SOL    HW118143   0.125   1.180   3.473 -1.3307  1.4933 -1.0849
 5748SOL    HW218144   0.086   1.021   3.472  3.1676  0.1333  2.7678
 5749SOL     OW18145   2.541   4.536   1.946  0.6322 -0.9604  0.4789
 5749SOL    HW118146   2.525   4.504   2.040 -0.4407  1.3722  1.1563
 5749SOL    HW218147   2.616   4.602   1.945 -0.2156  0.0254 -0.0544
 5750SOL     OW18148   2.871   1.353   6.583 -0.5394  0.4579  0.1004
 5750SOL    HW118149   2.838   1.442   6.552  0.2794  0.8220  0.2431
 5750SOL    HW218150   2.798   1.285   6.573 -1.2772  1.2013  0.2837
 5751SOL     OW18151   1.328   5.469   2.566 -0.1245 -0.3601 -0.1395
 5751SOL    HW118152   1.367   5.558   2.591  0.5027 -0.6900  0.0794
 5751SOL    HW218153   1.230   5.469   2.585  0.3183 -0.6483  2.6576
 5752SOL     OW18154   1.486   1.789   0.431  0.2886  0.3007 -0.1483
 5752SOL    HW118155   1.497   1.689   0.427  1.3114  0.4298 -1.2130
 5752SOL    HW218156   1.560   1.832   0.381 -1.2550  1.5446 -1.4685
 5753SOL     OW18157   5.063   2.814   1.294  0.6825  0.1608  0.1428
 5753SOL    HW118158   4.977   2.766   1.279 -0.5685  2.3534 -0.0019
 5753SOL    HW218159   5.115   2.766   1.365 -1.2409 -0.4888  1.1883
 5754SOL     OW18160   3.366   3.489   2.612  0.0315 -0.2136  0.3451
 5754SOL    HW118161   3.405   3.434   2.687 -0.3243 -1.1908 -0.1622
 5754SOL    HW218162   3.270   3.507   2.630  0.4142  1.2570  1.0631
 5755SOL     OW18163   6.556   2.371   2.801  0.2645  0.5894  0.5895
 5755SOL    HW118164   6.546   2.300   2.871 -0.9069 -1.6912 -1.7203
 5755SOL    HW218165   6.469   2.419   2.790 -0.9083 -1.8583 -1.9643
 5756SOL     OW18166   0.146   4.178   0.723 -0.1851  0.1332  0.0798
 5756SOL    HW118167   0.152   4.258   0.663 -0.9448  0.7570  0.8244
 5756SOL    HW218168   0.236   4.134   0.728  0.2783  1.0241 -0.2243
 5757SOL     OW18169   2.541   1.595   0.342 -0.2033 -0.8715  0.5210
 5757SOL    HW118170   2.607   1.520   0.338  1.3900  0.3986  1.4887
 5757SOL    HW218171   2.570   1.668   0.279 -1.0675 -0.5444  0.4804
 5758SOL     OW18172   4.388   1.189   6.559 -0.1740 -0.3205  0.0612
 5758SOL    HW118173   4.474   1.147   6.587 -0.3436 -0.2473  0.6990
 5758SOL    HW218174   4.408   1.271   6.506  0.1634  0.1544  0.8974
 5759SOL     OW18175   4.098   2.467   5.632  0.1203 -0.1703  0.5536
 5759SOL    HW118176   4.006   2.437   5.657 -0.5736  0.6659 -0.9060
 5759SOL    HW218177   4.142   2.397   5.575  0.5715 -0.7435  1.5659
 5760SOL     OW18178   5.012   4.579   1.252 -0.3247  0.6677 -0.5105
 5760SOL    HW118179   5.032   4.677   1.249 -0.3856  0.6508 -2.0692
 5760SOL    HW218180   4.961   4.558   1.336  1.1294  1.6660  0.6836
 5761SOL     OW18181   6.530   5.338   1.127 -0.4506  0.3319  0.5458
 5761SOL    HW118182   6.564   5.431   1.114 -1.5142  0.4208 -2.3467
 5761SOL    HW218183   6.447   5.340   1.182 -0.4300  1.0741  0.5610
 5762SOL     OW18184   0.482   6.898   6.212  0.2639 -0.3646  0.7726
 5762SOL    HW118185   0.462   6.993   6.188  0.6603 -0.7343 -1.1517
 5762SOL    HW218186   0.464   6.884   6.310  0.1662  1.6659  1.0877
 5763SOL     OW18187   4.273   1.257   1.450 -0.1476 -0.2474 -0.3115
 5763SOL    HW118188   4.279   1.337   1.510 -1.6236  0.7099 -1.3554
 5763SOL    HW218189   4.338   1.266   1.374 -1.6571  1.0144 -1.5287
 5764SOL     OW18190   0.394   1.892   0.675  0.3864  0.6931 -0.2840
 5764SOL    HW118191   0.331   1.816   0.661  0.0704  0.7862  0.6113
 5764SOL    HW218192   0.402   1.912   0.772  1.2285  1.1673 -0.4405
 5765SOL     OW18193   1.470   4.422   4.989  0.1134 -0.3159 -0.1416
 5765SOL    HW118194   1.468   4.333   5.036  0.3180  0.0517  0.5641
 5765SOL    HW218195   1.526   4.414   4.906 -0.8122 -1.1492 -0.7186
 5766SOL     OW18196   6.050   0.271   2.805 -0.3423 -0.1612 -0.0039
 5766SOL    HW118197   6.102   0.207   2.861 -1.6188 -0.1072  1.2990
 5766SOL    HW218198   6.093   0.279   2.715  1.5718 -0.5144  0.8221
 5767SOL     OW18199   0.374   2.555   4.264  0.0309  0.1763 -0.5849
 5767SOL    HW118200   0.385   2.459   4.288 -1.7304  0.2690  0.8374
 5767SOL    HW218201   0.309   2.563   4.188  1.5744  0.1903 -1.9649
 5768SOL     OW18202   4.772   6.550   0.589 -0.8277 -0.1133 -0.3134
 5768SOL    HW118203   4.696   6.486   0.580 -0.9710  0.0760 -0.4638
 5768SOL    HW218204   4.854   6.502   0.621 -1.2123 -0.1722  0.5880
 5769SOL     OW18205   3.729   3.516   6.442  0.1293 -0.2453 -0.2874
 5769SOL    HW118206   3.821   3.491   6.472 -0.5128 -0.0251  2.0462
 5769SOL    HW218207   3.676   3.432   6.426  0.1601 -0.3819  0.3039
 5770SOL     OW18208   3.548   3.897   2.231 -0.1862 -0.2659 -0.2191
 5770SOL    HW118209   3.580   3.889   2.325  1.8499  0.4476 -0.7908
 5770SOL    HW218210   3.609   3.957   2.180  0.7982 -3.1922 -2.8388
 5771SOL     OW18211   5.938   5.267   6.896  0.7789 -0.2636 -0.1434
 5771SOL    HW118212   5.849   5.268   6.941  1.1084  0.5705  0.5162
 5771SOL    HW218213   5.937   5.328   6.817  1.7946  2.8374  2.0278
 5772SOL     OW18214   0.258   2.410   5.168  0.5164 -0.2462  0.3825
 5772SOL    HW118215   0.337   2.419   5.108 -1.4235  0.6570 -2.1931
 5772SOL    HW218216   0.209   2.497   5.172 -2.0695 -1.5427 -0.6854
 5773SOL     OW18217   0.155   3.701   0.846  0.1150  0.0152  0.0790
 5773SOL    HW118218   0.161   3.615   0.795  3.5817  1.2828 -2.0067
 5773SOL    HW218219   0.114   3.771   0.787 -0.9004  0.2681  1.0623
 5774SOL     OW18220   3.862   6.448   5.159  0.4963 -0.0933 -0.1546
 5774SOL    HW118221   3.913   6.485   5.237  0.1219 -0.9956  0.5306
 5774SOL    HW218222   3.773   6.494   5.153  1.1851  1.1715 -1.0872
 5775SOL     OW18223   5.183   2.478   0.400  0.5352  0.3479 -0.2477
 5775SOL    HW118224   5.241   2.410   0.444 -1.1829  0.3827  2.2909
 5775SOL    HW218225   5.110   2.433   0.349 -0.1683  0.2201  0.8275
 5776SOL     OW18226   1.644   1.819   2.180 -0.5434  0.4775  0.5741
 5776SOL    HW118227   1.617   1.861   2.093 -0.3334  0.5158  0.5256
 5776SOL    HW218228   1.734   1.855   2.207 -0.0921 -0.3730  0.2414
 5777SOL     OW18229   0.907   1.274   6.432 -0.2872 -0.0964  0.1032
 5777SOL    HW118230   0.862   1.187   6.456  0.1741 -0.5389 -0.6041
 5777SOL    HW218231   0.866   1.348   6.486 -0.9503 -0.6894  0.4417
 5778SOL     OW18232   5.364   1.186   5.837  0.7228  0.1726  0.3279
 5778SOL    HW118233   5.283   1.134   5.864  0.1286  0.7611 -0.3164
 5778SOL    HW218234   5.442   1.156   5.893  0.0427 -0.3000  1.0480
 5779SOL     OW18235   4.772   5.887   2.704 -0.0926 -0.0217 -0.0415
 5779SOL    HW118236   4.734   5.868   2.795 -0.9673  0.4758 -0.2916
 5779SOL    HW218237   4.779   5.802   2.653  1.4510 -0.4686  0.8747
 5780SOL     OW18238   1.128   0.341   6.415  0.0707 -0.2285  0.3221
 5780SOL    HW118239   1.211   0.386   6.450  0.8499 -1.0293 -0.4565
 5780SOL    HW218240   1.048   0.383   6.457  0.6735  2.7483 -1.2164
 5781SOL     OW18241   2.504   6.311   6.966 -0.2129  0.1069  0.1459
 5781SOL    HW118242   2.590   6.344   7.005  0.4647  0.7317 -1.7286
 5781SOL    HW218243   2.502   6.332   6.868 -1.7928 -1.4053 -0.1958
 5782SOL     OW18244   0.370   1.479   4.672  0.0108 -0.1350  0.2381
 5782SOL    HW118245   0.443   1.421   4.636 -2.2732 -0.8878 -3.7497
 5782SOL    HW218246   0.309   1.423   4.728 -0.9191 -1.1426 -1.6952
 5783SOL     OW18247   3.709   1.209   4.040 -0.2712 -0.1535  0.1412
 5783SOL    HW118248   3.714   1.195   3.941 -1.5322 -0.8633  0.1579
 5783SOL    HW218249   3.629   1.264   4.062  0.2835  0.4252  0.7365
 5784SOL     OW18250   0.184   5.625   1.854 -0.4115 -0.4100 -0.2396
 5784SOL    HW118251   0.278   5.595   1.869 -0.6339 -2.0527 -1.7107
 5784SOL    HW218252   0.181   5.724   1.846  1.3042 -0.3670 -0.7325
 5785SOL     OW18253   5.683   4.199   5.033  0.0179  0.0597 -0.0869
 5785SOL    HW118254   5.607   4.257   5.062  1.1367  1.1348  0.8390
 5785SOL    HW218255   5.769   4.251   5.039  0.8113 -1.0250 -1.3492
 5786SOL     OW18256   6.112   3.131   3.537 -0.4970 -0.4430  0.6102
 5786SOL    HW118257   6.038   3.111   3.472 -1.0059 -3.2658  1.9095
 5786SOL    HW218258   6.073   3.174   3.619 -0.2156  0.7641  0.1382
 5787SOL     OW18259   5.512   4.504   6.172  0.0810 -0.0119  0.2805
 5787SOL    HW118260   5.472   4.453   6.095 -1.3449 -0.8834  1.5426
 5787SOL    HW218261   5.590   4.453   6.208 -1.5407 -1.5941  1.7481
 5788SOL     OW18262   0.039   4.339   2.350  0.0331 -0.3141  0.7871
 5788SOL    HW118263  -0.020   4.378   2.278 -0.0488 -1.1269  0.3915
 5788SOL    HW218264  -0.008   4.344   2.438  0.1258  0.6789  0.7855
 5789SOL     OW18265   6.267   6.504   0.099  0.1112  0.5286  0.1740
 5789SOL    HW118266   6.218   6.453   0.171 -3.3746  0.4182 -2.0326
 5789SOL    HW218267   6.313   6.439   0.039  0.3337  0.3904  0.4897
 5790SOL     OW18268   2.194   6.480   3.258 -0.4843 -0.5088  0.7909
 5790SOL    HW118269   2.220   6.384   3.264 -1.7240 -0.9973 -1.1188
 5790SOL    HW218270   2.110   6.496   3.310 -1.2910 -0.8674 -0.3847
 5791SOL     OW18271   0.894   1.164   2.694  0.3215 -0.2002 -0.1448
 5791SOL    HW118272   0.846   1.229   2.635  1.4108  0.9059  0.1370
 5791SOL    HW218273   0.902   1.076   2.647  0.5604  0.4586 -1.3852
 5792SOL     OW18274   3.507   0.251   0.718 -0.0937  0.1920 -0.3393
 5792SOL    HW118275   3.560   0.302   0.650  1.1149 -0.3361  0.1823
 5792SOL    HW218276   3.413   0.242   0.686  0.0845  1.2689 -1.2267
 5793SOL     OW18277   3.419   2.816   5.236  0.4319 -0.7679 -0.2638
 5793SOL    HW118278   3.484   2.850   5.168  0.9043  0.3541  0.7035
 5793SOL    HW218279   3.468   2.761   5.304  0.9145  2.0068  1.8068
 5794SOL     OW18280   3.925   2.120   2.779 -0.4362 -0.1536 -0.3145
 5794SOL    HW118281   3.847   2.150   2.835  0.4851  0.7353  0.5230
 5794SOL    HW218282   4.010   2.135   2.830  0.1911 -2.9281 -0.4086
 5795SOL     OW18283   0.313   1.163   2.207 -0.6314 -0.0274  0.4454
 5795SOL    HW118284   0.306   1.066   2.231  1.9526 -0.5394 -0.5325
 5795SOL    HW218285   0.266   1.178   2.120 -2.1525 -0.0811  1.2214
 5796SOL     OW18286   4.582   1.424   1.159  0.1019  0.0813  0.3873
 5796SOL    HW118287   4.509   1.448   1.095  0.3576 -0.3547 -0.0729
 5796SOL    HW218288   4.547   1.358   1.226 -0.2809  0.8509  0.9583
 5797SOL     OW18289   4.640   2.271   4.100 -0.0160  0.4627 -0.6704
 5797SOL    HW118290   4.561   2.213   4.078 -1.1743  1.3685  0.8666
 5797SOL    HW218291   4.693   2.228   4.173 -0.3738  0.8971 -0.1470
 5798SOL     OW18292   2.975   2.430   1.667 -0.2156 -0.0239 -0.2420
 5798SOL    HW118293   2.978   2.331   1.654  0.3564  0.1969 -2.0558
 5798SOL    HW218294   2.930   2.450   1.754 -2.1279 -1.8120 -0.7252
 5799SOL     OW18295   1.064   6.339   5.695  0.7204 -0.4993  0.1956
 5799SOL    HW118296   1.024   6.248   5.687 -1.0610  0.1787  0.7304
 5799SOL    HW218297   1.035   6.380   5.781  1.1600  0.7291 -0.2233
 5800SOL     OW18298   4.855   6.930   4.141  0.3301  0.2653  0.2123
 5800SOL    HW118299   4.779   6.917   4.205  0.1732  0.6785  0.1128
 5800SOL    HW218300   4.940   6.941   4.191  0.2032  0.6110  0.3483
 5801SOL     OW18301   4.003   3.341   6.019 -0.1188  0.2044  0.1781
 5801SOL    HW118302   3.974   3.412   6.084  1.1384  0.0774  0.8987
 5801SOL    HW218303   3.961   3.360   5.930  0.8873  2.3887  0.1028
 5802SOL     OW18304   4.048   3.709   3.906 -0.8685 -0.1934 -0.2794
 5802SOL    HW118305   4.037   3.757   3.820  1.2801 -0.1871 -0.6137
 5802SOL    HW218306   4.045   3.774   3.982 -0.2809  0.1584 -0.5520
 5803SOL     OW18307   0.072   1.817   3.626  0.0618  0.4444 -0.3204
 5803SOL    HW118308   0.006   1.804   3.699 -1.2900 -0.0589 -1.5806
 5803SOL    HW218309   0.135   1.740   3.622  0.1305  0.4693  0.2873
 5804SOL     OW18310   6.908   7.009   3.859 -0.3523 -0.3529 -0.0844
 5804SOL    HW118311   6.973   7.042   3.791 -0.4336  3.2028  1.3358
 5804SOL    HW218312   6.815   7.033   3.831 -0.6624 -1.4677 -0.0491
 5805SOL     OW18313   3.430   0.981   2.618  0.0078 -0.1325 -0.0302
 5805SOL    HW118314   3.411   1.075   2.644 -0.6626 -0.2900  0.0596
 5805SOL    HW218315   3.359   0.948   2.557 -0.0682 -0.7634  0.3872
 5806SOL     OW18316   3.507   0.561   0.761  0.2601 -0.0456  0.1153
 5806SOL    HW118317   3.510   0.481   0.821 -1.1546 -0.4511 -0.3154
 5806SOL    HW218318   3.418   0.565   0.715  0.8229  1.0060 -0.9356
 5807SOL     OW18319   0.334   3.640   2.993  0.4713 -0.0526  0.2081
 5807SOL    HW118320   0.405   3.706   3.019  0.8562 -0.9092  1.4143
 5807SOL    HW218321   0.357   3.600   2.904  1.4187 -0.1742  0.4933
 5808SOL     OW18322   3.456   6.518   5.438  0.1927  0.4422  1.0739
 5808SOL    HW118323   3.450   6.610   5.475  1.7841  0.8065  0.5301
 5808SOL    HW218324   3.552   6.492   5.428 -0.2164 -1.3611  1.4031
 5809SOL     OW18325   4.463   4.560   2.019 -0.0267  0.3503 -0.0803
 5809SOL    HW118326   4.444   4.545   1.922  0.4334  0.4766 -0.1908
 5809SOL    HW218327   4.496   4.474   2.059  0.2329  0.4210 -0.1431
 5810SOL     OW18328   5.586   3.882   6.042  0.0781  1.0073  0.0785
 5810SOL    HW118329   5.673   3.909   6.000  0.0251 -0.2338 -0.8729
 5810SOL    HW218330   5.516   3.874   5.972 -0.7038  1.5207  0.7798
 5811SOL     OW18331   3.528   4.313   6.395 -0.3155  0.1303 -0.3484
 5811SOL    HW118332   3.540   4.379   6.322  1.7652  0.2012 -0.0092
 5811SOL    HW218333   3.491   4.359   6.476  0.4008  0.7371 -0.3557
 5812SOL     OW18334   4.588   3.158   6.176  1.6618  0.0253 -0.3724
 5812SOL    HW118335   4.664   3.094   6.162  1.4890 -0.5394  1.0308
 5812SOL    HW218336   4.612   3.223   6.248  1.5890  1.1828 -1.3573
 5813SOL     OW18337   6.102   6.976   5.938 -0.2337 -0.0708 -0.2842
 5813SOL    HW118338   6.049   7.024   5.867  0.2753  3.6241  1.5867
 5813SOL    HW218339   6.184   6.937   5.897 -0.1399  1.6123 -1.8409
 5814SOL     OW18340   4.837   5.765   0.303  0.1534 -1.3848 -0.2686
 5814SOL    HW118341   4.922   5.818   0.306  0.1521 -1.3810 -0.3034
 5814SOL    HW218342   4.831   5.707   0.384 -0.3936 -0.4775  0.3571
 5815SOL     OW18343   4.670   5.997   6.138 -0.2679  0.4066 -0.7966
 5815SOL    HW118344   4.665   5.997   6.238 -0.1904 -0.5341 -0.7798
 5815SOL    HW218345   4.586   5.958   6.101  1.0600 -2.6417 -0.9452
 5816SOL     OW18346   4.726   2.431   6.778 -0.0265  0.3738  0.1695
 5816SOL    HW118347   4.787   2.400   6.706 -1.4543 -1.5729 -0.2977
 5816SOL    HW218348   4.779   2.462   6.857  1.5613 -1.0936 -0.2655
 5817SOL     OW18349   0.166   1.851   6.297  0.3930  0.4043 -0.1888
 5817SOL    HW118350   0.261   1.876   6.313  0.3250 -0.3530  1.6783
 5817SOL    HW218351   0.124   1.822   6.383 -1.2517 -0.2393 -1.1546
 5818SOL     OW18352   0.315   0.757   6.018 -0.2228 -0.5071  0.5489
 5818SOL    HW118353   0.272   0.801   5.940 -0.1591  2.0247  1.8548
 5818SOL    HW218354   0.383   0.818   6.058 -0.8174 -1.3617  3.0781
 5819SOL     OW18355   3.782   0.831   4.682 -0.2790  0.8724 -0.2256
 5819SOL    HW118356   3.723   0.855   4.604  0.4841  1.0601 -0.7583
 5819SOL    HW218357   3.732   0.771   4.744 -0.8454  0.5624 -0.9598
 5820SOL     OW18358   1.038   6.196   1.015 -0.3602  0.7273 -0.6032
 5820SOL    HW118359   0.968   6.138   0.973 -0.9150  1.0330 -0.1133
 5820SOL    HW218360   1.017   6.208   1.112  2.2854 -2.1653  0.5184
 5821SOL     OW18361   2.496   4.876   1.865  0.2820 -0.1617  0.1653
 5821SOL    HW118362   2.400   4.851   1.855  0.4139 -0.9065  0.6343
 5821SOL    HW218363   2.516   4.896   1.961  0.4985  0.4434  0.0041
 5822SOL     OW18364   4.421   6.336   4.336  0.6933 -0.8502  0.2433
 5822SOL    HW118365   4.373   6.297   4.257  0.4691 -0.8048  0.3546
 5822SOL    HW218366   4.441   6.432   4.318  0.4779 -0.7910  0.3146
 5823SOL     OW18367   0.642   0.358   3.967  0.3725 -0.0855  0.3162
 5823SOL    HW118368   0.641   0.270   4.015  0.1972 -0.2342  0.0454
 5823SOL    HW218369   0.651   0.342   3.869 -0.4857  0.1523  0.1858
 5824SOL     OW18370   0.771   0.801   6.677 -0.0863 -0.3131  0.1541
 5824SOL    HW118371   0.871   0.801   6.674 -0.0423 -1.7708  0.7864
 5824SOL    HW218372   0.740   0.778   6.769 -1.0099 -0.0893 -0.0823
 5825SOL     OW18373   6.272   0.770   1.033  0.2051  0.4710 -0.2371
 5825SOL    HW118374   6.226   0.785   0.946  1.5672  2.2250 -0.7207
 5825SOL    HW218375   6.206   0.777   1.108 -0.6739  0.7283 -1.0187
 5826SOL     OW18376   5.065   6.486   0.026 -0.2103  0.0712 -0.5343
 5826SOL    HW118377   5.047   6.393   0.056  0.0288  0.0017 -0.6013
 5826SOL    HW218378   4.982   6.541   0.034 -0.5532 -0.3391 -1.2141
 5827SOL     OW18379   1.352   0.313   0.473  0.2325 -0.0804  0.1695
 5827SOL    HW118380   1.403   0.241   0.427 -1.3472 -1.4472  0.4673
 5827SOL    HW218381   1.412   0.391   0.490  2.1481 -1.5339  0.3628
 5828SOL     OW18382   3.448   6.262   2.036 -0.0605  0.0414 -0.1661
 5828SOL    HW118383   3.371   6.226   1.983 -0.2125  0.5568 -0.3027
 5828SOL    HW218384   3.414   6.297   2.123 -0.2901  2.0509 -1.0218
 5829SOL     OW18385   4.724   0.142   1.113 -0.1375  0.2743 -0.0415
 5829SOL    HW118386   4.725   0.186   1.203  1.4489 -0.9012  0.5494
 5829SOL    HW218387   4.661   0.065   1.114 -3.2012  2.5232 -1.1816
 5830SOL     OW18388   1.617   1.705   5.497  0.2573 -0.2774  0.7437
 5830SOL    HW118389   1.691   1.639   5.513  0.9090  0.5349  1.1696
 5830SOL    HW218390   1.530   1.657   5.494  0.7944 -1.2631  0.2109
 5831SOL     OW18391   5.624   6.860   2.147 -0.0824 -0.3488  0.0674
 5831SOL    HW118392   5.719   6.855   2.178 -0.7023  0.0126  2.1714
 5831SOL    HW218393   5.598   6.773   2.106  0.8798 -0.7732  0.3140
 5832SOL     OW18394   4.631   1.058   1.441  0.4614  0.2949 -0.4843
 5832SOL    HW118395   4.650   1.152   1.469 -0.6469 -0.4011  3.1525
 5832SOL    HW218396   4.558   1.020   1.499  1.0424 -2.9017 -1.6360
 5833SOL     OW18397   3.009   0.013   2.178 -0.1216  0.4172 -0.2538
 5833SOL    HW118398   3.054  -0.047   2.245 -1.5645 -0.8690 -0.3813
 5833SOL    HW218399   3.074   0.039   2.107  0.3884 -1.5817 -0.5702
 5834SOL     OW18400   1.924   5.676   1.651 -0.0191 -0.2119  0.6490
 5834SOL    HW118401   1.896   5.636   1.563 -1.2614  1.4681  0.2161
 5834SOL    HW218402   1.844   5.716   1.696  1.0456  1.3713  1.2300
 5835SOL     OW18403   3.334   5.791   6.961 -0.2543  0.3772  0.4827
 5835SOL    HW118404   3.314   5.693   6.960 -1.2890  0.5304 -1.9009
 5835SOL    HW218405   3.430   5.806   6.940 -0.6365 -0.1376 -1.9123
 5836SOL     OW18406   6.714   0.665   0.387 -0.6858  0.0739  0.0190
 5836SOL    HW118407   6.776   0.640   0.461  0.8321  2.0812 -0.4908
 5836SOL    HW218408   6.650   0.590   0.371 -0.1341 -0.9945  2.3607
 5837SOL     OW18409   5.785   5.166   3.653 -0.9152 -0.0941  0.4297
 5837SOL    HW118410   5.861   5.162   3.588  0.3480 -0.4279  1.8789
 5837SOL    HW218411   5.699   5.157   3.603 -0.0265  0.2594 -1.2541
 5838SOL     OW18412   0.478   3.346   2.630  0.4148 -0.2436  0.5488
 5838SOL    HW118413   0.521   3.436   2.628  1.1440 -0.5983 -0.1772
 5838SOL    HW218414   0.394   3.350   2.685  0.4265  0.8781  0.4988
 5839SOL     OW18415   4.898   6.832   3.642  0.3795 -0.3130  0.2760
 5839SOL    HW118416   4.834   6.760   3.669 -0.6071 -0.0716 -1.3106
 5839SOL    HW218417   4.885   6.912   3.702 -2.2307  0.4612 -1.1474
 5840SOL     OW18418   1.420   3.631   6.172 -0.3045  0.4151 -0.1185
 5840SOL    HW118419   1.357   3.554   6.170 -0.7007  0.7443 -0.6959
 5840SOL    HW218420   1.508   3.603   6.133 -1.0716  0.7611 -2.2508
 5841SOL     OW18421   3.634   6.809   5.941  0.3573 -0.0035 -0.6207
 5841SOL    HW118422   3.653   6.900   5.905 -0.4661 -0.2060 -1.6083
 5841SOL    HW218423   3.680   6.740   5.885  0.0596 -0.2512 -0.5644
 5842SOL     OW18424   2.303   5.148   4.231  0.0896  0.1130  0.2965
 5842SOL    HW118425   2.321   5.140   4.133 -1.8043  2.1515 -0.2968
 5842SOL    HW218426   2.205   5.158   4.246  0.4673  1.2659  2.2929
 5843SOL     OW18427   0.845   3.759   6.655 -0.6148  0.0619  0.2936
 5843SOL    HW118428   0.875   3.768   6.750 -0.4726  1.3982  0.1512
 5843SOL    HW218429   0.891   3.828   6.600  0.3384 -1.5637 -1.0236
 5844SOL     OW18430   5.175   5.536   5.752  0.1801  0.3102 -0.0408
 5844SOL    HW118431   5.121   5.550   5.669 -1.0231 -2.1864  0.2271
 5844SOL    HW218432   5.123   5.567   5.832 -1.8340 -3.6826  0.4021
 5845SOL     OW18433   3.136   6.864   4.311 -0.4738  0.2569 -0.1314
 5845SOL    HW118434   3.054   6.892   4.260 -3.0722  1.3573  4.1305
 5845SOL    HW218435   3.121   6.774   4.351  1.0613 -0.1591 -0.4392
 5846SOL     OW18436   0.919   3.164   0.892  0.3538  0.0023 -0.0443
 5846SOL    HW118437   0.968   3.125   0.814  1.8331  3.5553 -1.0823
 5846SOL    HW218438   0.821   3.163   0.874  0.6408  0.3800 -1.8199
 5847SOL     OW18439   2.700   4.334   0.021 -0.5935  0.1454 -0.8227
 5847SOL    HW118440   2.753   4.276   0.084  0.5746  3.0685  1.0939
 5847SOL    HW218441   2.608   4.296   0.010 -0.1789 -1.5544  1.0459
 5848SOL     OW18442   5.110   2.381   5.769 -0.5342 -0.8810  0.4674
 5848SOL    HW118443   5.095   2.448   5.842  1.3888 -1.6680  1.6706
 5848SOL    HW218444   5.166   2.306   5.804 -0.4877 -1.8514 -1.5492
 5849SOL     OW18445   4.754   0.289   4.492 -0.1845  0.3616  0.0833
 5849SOL    HW118446   4.823   0.227   4.454 -0.2621 -0.0162  0.5530
 5849SOL    HW218447   4.758   0.376   4.444 -0.3460 -0.1398 -0.8601
 5850SOL     OW18448   2.101   3.822   5.116 -0.6896 -0.6847 -0.3010
 5850SOL    HW118449   2.131   3.885   5.044 -1.3021 -1.6642 -1.4435
 5850SOL    HW218450   2.132   3.856   5.205  1.5699 -0.3397 -1.1613
 5851SOL     OW18451   4.843   6.811   6.805  0.5216 -0.5332  0.3376
 5851SOL    HW118452   4.799   6.765   6.729 -0.4211  0.5665  0.1751
 5851SOL    HW218453   4.778   6.876   6.846  1.7564  0.6078  0.5646
 5852SOL     OW18454   6.884   0.325   0.383  0.9976  0.3310 -0.5394
 5852SOL    HW118455   6.843   0.361   0.299  2.0275  1.1997 -0.6967
 5852SOL    HW218456   6.861   0.228   0.392 -1.0594  0.7600 -0.5981
 5853SOL     OW18457   4.277   5.667   2.307 -0.2305 -0.0026  0.1210
 5853SOL    HW118458   4.184   5.674   2.273 -0.8502  1.1022  1.8638
 5853SOL    HW218459   4.321   5.757   2.300 -0.5930  0.4422  2.6066
 5854SOL     OW18460   2.238   0.862   1.919  0.4005  0.6806 -0.7371
 5854SOL    HW118461   2.273   0.769   1.917  3.2067  1.6132 -0.4739
 5854SOL    HW218462   2.155   0.866   1.973  0.8541 -1.4651  0.2078
 5855SOL     OW18463   3.330   5.452   1.491  0.4700 -0.2641  0.1296
 5855SOL    HW118464   3.299   5.440   1.397 -1.6179  2.8374  0.2812
 5855SOL    HW218465   3.429   5.440   1.495  0.4966 -1.4177 -2.2416
 5856SOL     OW18466   2.624   4.583   2.799 -0.0215 -0.0777  0.2693
 5856SOL    HW118467   2.711   4.608   2.756  0.3464  0.2871  1.1812
 5856SOL    HW218468   2.577   4.666   2.830 -1.4426 -0.1406 -1.5406
 5857SOL     OW18469   3.966   0.216   2.423 -0.2382 -0.2442 -0.7880
 5857SOL    HW118470   3.908   0.182   2.349  0.1525 -1.0445 -0.7395
 5857SOL    HW218471   4.054   0.245   2.385  0.5727 -2.1443 -0.4806
 5858SOL     OW18472   1.547   3.360   1.353  0.1137 -0.5710  0.4794
 5858SOL    HW118473   1.618   3.325   1.292  0.4589 -0.8056  0.9965
 5858SOL    HW218474   1.521   3.288   1.418  0.5608  0.0062  1.3199
 5859SOL     OW18475   3.134   6.925   2.937  0.4736 -0.0685 -0.1578
 5859SOL    HW118476   3.114   7.015   2.975  0.2773 -0.6097  1.1101
 5859SOL    HW218477   3.222   6.893   2.972  0.9022 -0.0635 -1.2025
 5860SOL     OW18478   3.758   0.701   5.846 -0.1818  0.0500  0.7411
 5860SOL    HW118479   3.840   0.754   5.869 -0.3102  0.2821  0.6686
 5860SOL    HW218480   3.683   0.727   5.907 -0.3851  0.3111  0.3867
 5861SOL     OW18481   4.173   5.696   2.974 -0.2257 -0.7595  0.7993
 5861SOL    HW118482   4.245   5.698   2.905  0.8675  0.8135  1.9116
 5861SOL    HW218483   4.136   5.788   2.985 -0.2331 -0.9378  2.4449
 5862SOL     OW18484   6.653   5.969   3.897  0.3753 -0.2212  0.5603
 5862SOL    HW118485   6.646   6.060   3.938 -0.3527  0.2992 -0.6485
 5862SOL    HW218486   6.567   5.948   3.850  0.2051 -1.9176  1.5683
 5863SOL     OW18487   6.320   0.098   3.331 -0.2223  0.1764  0.0599
 5863SOL    HW118488   6.273   0.051   3.255 -1.8819  2.2041 -0.2577
 5863SOL    HW218489   6.296   0.053   3.417 -1.0582 -0.1187 -0.3082
 5864SOL     OW18490   1.839   1.339   1.548 -0.7743 -0.4330 -0.3043
 5864SOL    HW118491   1.912   1.347   1.617 -0.6923  1.5941 -0.5751
 5864SOL    HW218492   1.753   1.372   1.587 -1.2005 -1.2357 -0.5387
 5865SOL     OW18493   5.748   2.401   1.759  0.1310  0.1104 -0.1617
 5865SOL    HW118494   5.816   2.384   1.830  2.5181 -1.1221 -2.5511
 5865SOL    HW218495   5.744   2.499   1.740  0.5159  0.2961  0.6623
 5866SOL     OW18496   6.060   5.509   6.041  0.6357 -0.6266  0.2337
 5866SOL    HW118497   6.146   5.544   6.076  0.8832 -1.8011  0.8475
 5866SOL    HW218498   6.018   5.450   6.110 -0.1462 -0.9030 -0.4688
 5867SOL     OW18499   6.679   0.611   3.499  0.2669  0.5738 -0.5162
 5867SOL    HW118500   6.653   0.700   3.535  0.9319  1.2278 -1.6218
 5867SOL    HW218501   6.624   0.589   3.419  0.1477  0.0075 -0.2862
 5868SOL     OW18502   1.224   2.075   2.318  0.1975  0.6668  0.8050
 5868SOL    HW118503   1.273   2.114   2.395 -1.7708  1.1647  1.8902
 5868SOL    HW218504   1.215   1.976   2.330  3.2114  0.0824 -0.8040
 5869SOL     OW18505   5.198   4.654   5.455 -0.1829 -0.0094  0.0016
 5869SOL    HW118506   5.213   4.556   5.455  2.0738  0.2431 -1.9073
 5869SOL    HW218507   5.173   4.685   5.363  0.5065  1.3344  0.2269
 5870SOL     OW18508   3.355   6.892   5.108  0.0742 -0.4236  0.1011
 5870SOL    HW118509   3.389   6.985   5.096 -0.7739 -0.3255 -2.0062
 5870SOL    HW218510   3.432   6.832   5.132  0.9437  0.5285 -0.2022
 5871SOL     OW18511   0.329   6.097   4.073 -0.3573 -0.3077  0.6793
 5871SOL    HW118512   0.286   6.102   4.163  1.9003  1.3297  1.7517
 5871SOL    HW218513   0.290   6.168   4.014 -0.1270  0.2418  1.1805
 5872SOL     OW18514   3.696   1.930   1.973 -0.4395 -0.0142 -0.0061
 5872SOL    HW118515   3.710   1.880   2.058 -0.8584 -0.8066 -0.3964
 5872SOL    HW218516   3.685   2.028   1.993 -0.3270 -0.1673  0.8223
 5873SOL     OW18517   4.595   0.551   1.499  0.3261 -0.6261  0.5419
 5873SOL    HW118518   4.636   0.513   1.581 -0.3521 -0.7426  0.8350
 5873SOL    HW218519   4.664   0.601   1.447  0.3213  1.4049  2.3249
 5874SOL     OW18520   4.650   6.855   4.874 -0.2758 -0.1148  0.2884
 5874SOL    HW118521   4.665   6.948   4.907 -1.9677  0.3939 -0.2367
 5874SOL    HW218522   4.577   6.856   4.805  0.9080 -1.5894 -1.0590
 5875SOL     OW18523   4.417   6.965   2.350  0.7232 -0.5747 -0.7145
 5875SOL    HW118524   4.484   7.040   2.347  2.6116 -2.1257 -4.2743
 5875SOL    HW218525   4.462   6.882   2.383  0.2325 -1.3077 -1.8085
 5876SOL     OW18526   2.266   2.445   0.143  0.7138 -0.0600  0.0991
 5876SOL    HW118527   2.228   2.367   0.094  0.2692  0.2269 -0.0201
 5876SOL    HW218528   2.323   2.412   0.219  0.3889 -0.4985  0.1581
 5877SOL     OW18529   6.158   5.197   3.804  0.3360  0.3574 -0.1458
 5877SOL    HW118530   6.173   5.206   3.902  1.1263  0.8014 -0.3052
 5877SOL    HW218531   6.137   5.101   3.782 -1.0785  0.4656  0.6066
 5878SOL     OW18532   6.590   1.816   5.145 -0.2333 -0.0062 -0.0535
 5878SOL    HW118533   6.662   1.802   5.213 -2.0445  0.3126  2.0427
 5878SOL    HW218534   6.514   1.754   5.163 -1.6870  1.5986 -0.4009
 5879SOL     OW18535   6.472   6.792   5.594  0.6613  0.0397 -0.5753
 5879SOL    HW118536   6.571   6.791   5.608  0.3025  0.1290  2.6179
 5879SOL    HW218537   6.442   6.701   5.566  1.5552 -0.1275 -1.0417
 5880SOL     OW18538   6.899   6.809   6.891 -0.3311 -0.0253  0.5400
 5880SOL    HW118539   6.941   6.736   6.837  0.1402  0.4262  0.2817
 5880SOL    HW218540   6.800   6.795   6.896 -0.2025 -0.9316  0.8805
 5881SOL     OW18541   0.610   6.536   4.957  0.3316  0.3819 -0.2501
 5881SOL    HW118542   0.704   6.528   4.927  0.9334  1.9744  1.0587
 5881SOL    HW218543   0.597   6.623   5.005 -1.0232 -1.0696  2.2445
 5882SOL     OW18544   2.170   1.467   5.845 -0.5532  0.2055  0.5699
 5882SOL    HW118545   2.149   1.376   5.809  0.3915  0.6971 -1.3478
 5882SOL    HW218546   2.091   1.526   5.835 -0.9745 -0.2328  1.2580
 5883SOL     OW18547   3.946   1.925   1.800  0.7387  0.5585 -0.2619
 5883SOL    HW118548   3.878   1.904   1.870  0.8584  0.5178 -0.1586
 5883SOL    HW218549   4.030   1.958   1.843  0.5481  1.2648 -0.4254
 5884SOL     OW18550   2.263   3.152   6.286  0.1669  0.5390 -0.3398
 5884SOL    HW118551   2.203   3.072   6.291  1.8014 -0.7134 -0.1500
 5884SOL    HW218552   2.333   3.146   6.357  1.6940  0.9723 -1.7516
 5885SOL     OW18553   4.260   3.620   5.645  0.3718  0.0703  0.1061
 5885SOL    HW118554   4.254   3.533   5.596  2.1828  0.2520 -0.5058
 5885SOL    HW218555   4.213   3.612   5.733  0.0397 -1.3372 -0.1739
 5886SOL     OW18556   5.717   0.464   6.666  0.3584 -0.1878 -0.6746
 5886SOL    HW118557   5.630   0.447   6.712  0.6709  0.4022  0.1623
 5886SOL    HW218558   5.700   0.497   6.573 -0.3064 -0.2952 -0.5957
 5887SOL     OW18559   6.045   4.103   6.032  0.1702  0.1617 -0.1519
 5887SOL    HW118560   6.096   4.074   6.113 -1.0179  2.7011  1.6506
 5887SOL    HW218561   6.065   4.041   5.956  1.1011 -2.5240  2.1124
 5888SOL     OW18562   1.539   1.225   0.185  0.2217  0.1575 -0.2784
 5888SOL    HW118563   1.631   1.189   0.172  0.7572  1.3196  0.1695
 5888SOL    HW218564   1.544   1.321   0.213 -1.1198  0.1548  0.0460
 5889SOL     OW18565   0.332   5.684   7.015  0.4244  0.8596  0.3840
 5889SOL    HW118566   0.298   5.708   7.106 -3.3608  1.3219 -0.9599
 5889SOL    HW218567   0.322   5.763   6.955  0.6998 -0.1038 -0.9615
 5890SOL     OW18568   3.970   0.273   1.388  0.2136  0.2808  0.0720
 5890SOL    HW118569   4.066   0.301   1.385  0.1609  0.3461 -2.4433
 5890SOL    HW218570   3.953   0.201   1.321 -1.6271  0.6590  0.0612
 5891SOL     OW18571   3.079   0.771   2.822  0.0115 -0.0165  0.1682
 5891SOL    HW118572   3.081   0.683   2.774 -0.3703  0.3830 -0.5967
 5891SOL    HW218573   3.048   0.843   2.759  0.4861  0.6979  0.7301
 5892SOL     OW18574   3.003   5.861   0.834  0.0830 -0.0548 -0.5853
 5892SOL    HW118575   3.091   5.878   0.791  1.1715 -2.6726  0.3715
 5892SOL    HW218576   3.003   5.901   0.926  1.0849 -1.6147  0.1444
 5893SOL     OW18577   4.890   3.860   5.111 -0.2355 -0.1469 -0.3207
 5893SOL    HW118578   4.846   3.779   5.072 -1.9996  1.1527 -1.1705
 5893SOL    HW218579   4.859   3.873   5.205 -0.0748 -0.3639 -0.2371
 5894SOL     OW18580   6.962   4.597   1.814 -0.0146 -0.4910 -0.4083
 5894SOL    HW118581   6.909   4.674   1.779  1.4301  0.4876 -0.4937
 5894SOL    HW218582   6.954   4.593   1.914 -0.0410 -0.1883 -0.3970
 5895SOL     OW18583   5.018   4.314   1.792  0.4138  0.2772 -0.5447
 5895SOL    HW118584   5.099   4.370   1.812  0.3931 -0.0143  0.4296
 5895SOL    HW218585   4.936   4.372   1.797  0.2692 -0.0129  1.6679
 5896SOL     OW18586   2.399   3.941   6.828 -0.4043 -0.0119  0.7816
 5896SOL    HW118587   2.308   3.974   6.852 -0.5144  2.1201 -2.0826
 5896SOL    HW218588   2.395   3.842   6.814 -2.8064  0.2722 -1.1910
 5897SOL     OW18589   0.613   0.085   1.305 -0.2618  0.5901  0.3645
 5897SOL    HW118590   0.633  -0.001   1.353 -0.7045  0.3156  0.0698
 5897SOL    HW218591   0.518   0.110   1.320 -0.7644 -0.1452 -1.3266
 5898SOL     OW18592   3.313   1.860   2.388 -0.3431 -0.5623  0.2639
 5898SOL    HW118593   3.286   1.767   2.416 -0.9547 -0.2399  0.7827
 5898SOL    HW218594   3.343   1.859   2.293 -1.4276 -1.1012 -0.0988
 5899SOL     OW18595   6.581   5.717   6.709  0.0132  0.0585  0.4987
 5899SOL    HW118596   6.621   5.688   6.623  2.3747 -1.0357  1.8580
 5899SOL    HW218597   6.588   5.642   6.776 -1.1137  1.0995  1.8458
 5900SOL     OW18598   6.540   2.031   6.315 -0.8527 -0.5047  0.2420
 5900SOL    HW118599   6.499   2.043   6.224 -1.4678 -1.0636  0.4364
 5900SOL    HW218600   6.491   2.088   6.381 -0.6416 -0.3822  0.2954
 5901SOL     OW18601   6.297   5.361   1.260  0.4685 -0.0047 -0.2338
 5901SOL    HW118602   6.280   5.381   1.356 -0.8491 -2.1834  0.0422
 5901SOL    HW218603   6.232   5.411   1.203  1.9566  2.1797 -0.1594
 5902SOL     OW18604   3.038   2.064   0.101  0.0451 -0.1790 -0.1776
 5902SOL    HW118605   3.012   1.975   0.063 -2.6102  0.5827 -0.3576
 5902SOL    HW218606   3.090   2.050   0.186 -2.4242 -1.9947  1.1829
 5903SOL     OW18607   5.184   5.787   4.809 -0.5023  0.1928  0.7180
 5903SOL    HW118608   5.145   5.745   4.728  0.8938  1.1713 -0.5083
 5903SOL    HW218609   5.276   5.820   4.789 -1.0015  2.6126  1.9718
 5904SOL     OW18610   0.520   4.204   1.301  0.7527 -0.3537 -0.6681
 5904SOL    HW118611   0.474   4.133   1.247  0.0175 -0.2503 -0.1995
 5904SOL    HW218612   0.479   4.293   1.282  0.2436 -0.3642  0.2974
 5905SOL     OW18613   3.706   5.676   4.366 -0.0300 -0.3349 -0.6216
 5905SOL    HW118614   3.792   5.668   4.416 -0.5051  1.3269  0.5451
 5905SOL    HW218615   3.638   5.616   4.407  0.3692 -1.1335 -1.1123
 5906SOL     OW18616   5.366   1.925   1.225 -0.3014  0.0608  0.0261
 5906SOL    HW118617   5.454   1.965   1.202 -0.8165  1.5438  0.5532
 5906SOL    HW218618   5.373   1.878   1.314 -0.0863  0.2992  0.1350
 5907SOL     OW18619   3.092   3.950   2.004 -0.3981  0.5204  0.7319
 5907SOL    HW118620   3.173   3.909   1.962 -0.6861 -0.3060  0.9714
 5907SOL    HW218621   3.022   3.880   2.017 -1.0686  1.1792  0.7416
 5908SOL     OW18622   3.336   1.885   5.043 -0.6353 -0.4842  0.2182
 5908SOL    HW118623   3.412   1.822   5.056  1.2131  1.4252 -0.6487
 5908SOL    HW218624   3.348   1.965   5.102 -3.5913 -1.3697  2.2617
 5909SOL     OW18625   4.120   1.687   1.781  0.1378  0.1332 -0.2175
 5909SOL    HW118626   4.158   1.694   1.873 -0.5639 -0.1374  0.1008
 5909SOL    HW218627   4.024   1.714   1.782 -0.2318 -1.0869 -0.6168
 5910SOL     OW18628   5.545   4.244   2.046  0.2328  0.0373  0.0585
 5910SOL    HW118629   5.552   4.174   2.118 -1.7897 -0.6834 -0.3888
 5910SOL    HW218630   5.475   4.218   1.981  0.0391  2.0852 -0.6192
 5911SOL     OW18631   0.759   1.747   4.149 -0.5193  0.0963  0.0370
 5911SOL    HW118632   0.759   1.830   4.094 -2.4606 -0.1735 -0.4397
 5911SOL    HW218633   0.674   1.696   4.133  0.3341 -1.6596  0.8084
 5912SOL     OW18634   5.369   6.226   4.279  0.1609  0.5848  0.1903
 5912SOL    HW118635   5.448   6.178   4.316 -0.9017 -0.6505  0.9312
 5912SOL    HW218636   5.393   6.266   4.190  1.9126  1.1811  0.8975
 5913SOL     OW18637   6.538   4.019   4.403 -0.6404 -0.6972 -0.2685
 5913SOL    HW118638   6.614   3.960   4.429 -0.3368 -0.0379  0.3881
 5913SOL    HW218639   6.452   3.974   4.426 -0.4036 -0.7003  0.6897
 5914SOL     OW18640   0.440   3.645   1.716 -1.0106 -0.6299  0.1371
 5914SOL    HW118641   0.354   3.667   1.762 -1.1684 -0.8789 -0.0418
 5914SOL    HW218642   0.458   3.713   1.645 -2.5715 -2.1986 -1.8800
 5915SOL     OW18643   4.080   0.793   1.204  0.6077 -0.0798  0.2328
 5915SOL    HW118644   4.130   0.718   1.248 -0.8737 -1.2568 -0.0064
 5915SOL    HW218645   4.025   0.841   1.272  3.7669  2.8513  1.0326
 5916SOL     OW18646   0.784   0.831   3.313 -0.4147 -0.1224  0.3915
 5916SOL    HW118647   0.834   0.856   3.229 -0.5443 -0.6983  0.1360
 5916SOL    HW218648   0.794   0.904   3.381  0.4639 -0.0620  0.2092
 5917SOL     OW18649   4.943   2.877   4.977  0.0251 -0.0632  0.7938
 5917SOL    HW118650   4.926   2.966   5.020 -0.6903 -0.5439  1.5184
 5917SOL    HW218651   4.929   2.885   4.878 -0.3079  0.5665  0.8860
 5918SOL     OW18652   1.951   5.755   3.961 -0.0384  0.1663  0.2479
 5918SOL    HW118653   1.994   5.757   4.052  0.4486 -0.9510  0.0501
 5918SOL    HW218654   1.969   5.667   3.917  0.0797  0.8405 -1.1124
 5919SOL     OW18655   2.500   1.955   2.541  0.2527  0.1972 -0.4577
 5919SOL    HW118656   2.539   1.915   2.625  1.7957 -1.7970 -2.0049
 5919SOL    HW218657   2.501   2.054   2.548  0.3713  0.0944  1.8559
 5920SOL     OW18658   4.319   4.711   2.202  0.0967 -0.3463 -0.6402
 5920SOL    HW118659   4.366   4.679   2.120 -0.2933  0.7506 -1.3154
 5920SOL    HW218660   4.224   4.732   2.180 -0.5005 -1.6917  0.5100
 5921SOL     OW18661   0.696   6.715   1.002  0.2790  0.0847  0.4284
 5921SOL    HW118662   0.716   6.619   1.023 -2.0541 -0.4657  0.4336
 5921SOL    HW218663   0.694   6.768   1.086 -0.5418 -0.3223  0.6725
 5922SOL     OW18664   0.318   5.476   2.753 -0.2030  0.7212 -0.4364
 5922SOL    HW118665   0.381   5.404   2.723 -0.3699  1.0016 -1.5228
 5922SOL    HW218666   0.243   5.436   2.805 -0.3781  0.0866 -1.1609
 5923SOL     OW18667   1.300   4.043   7.019 -0.1998  0.0681  0.4446
 5923SOL    HW118668   1.335   4.098   6.943  1.7627 -0.7424  0.6944
 5923SOL    HW218669   1.308   4.095   7.104 -1.0203  0.4255  0.3142
 5924SOL     OW18670   2.027   3.900   1.473  0.1856  0.3320 -0.4460
 5924SOL    HW118671   2.079   3.891   1.389  1.0447 -0.3180  0.1385
 5924SOL    HW218672   1.934   3.865   1.459  0.1371  0.7853 -1.2786
 5925SOL     OW18673   0.793   4.581   6.245  0.6104  0.0041  0.0302
 5925SOL    HW118674   0.717   4.556   6.185  0.4029 -1.3114  0.7949
 5925SOL    HW218675   0.858   4.505   6.248  1.8557  1.0212 -0.4394
 5926SOL     OW18676   0.086   3.119   6.690 -0.0655  0.0458  0.0690
 5926SOL    HW118677   0.116   3.211   6.665 -0.0871  0.4953  1.5743
 5926SOL    HW218678   0.165   3.065   6.720 -0.2437  0.0842  0.6328
 5927SOL     OW18679   3.894   6.184   4.973 -0.0808  0.2925 -0.6937
 5927SOL    HW118680   3.897   6.264   5.034  3.0132  0.2155 -0.5797
 5927SOL    HW218681   3.881   6.215   4.879  2.5764  1.1799 -0.8469
 5928SOL     OW18682   6.205   2.742   1.012 -0.4904 -0.4191 -0.4951
 5928SOL    HW118683   6.171   2.790   1.093  1.4034 -1.8128  1.2520
 5928SOL    HW218684   6.128   2.712   0.956 -2.0251 -1.3906  1.9749
 5929SOL     OW18685   6.057   6.581   1.892 -0.2497 -0.0008 -0.4546
 5929SOL    HW118686   6.104   6.498   1.863 -3.1616 -1.0653 -2.5968
 5929SOL    HW218687   6.107   6.661   1.859  0.0393 -1.0684 -2.8109
 5930SOL     OW18688   3.175   5.488   3.901  0.1880  0.3913  0.2435
 5930SOL    HW118689   3.105   5.428   3.862 -1.1813  2.7438 -1.1782
 5930SOL    HW218690   3.157   5.501   3.998 -0.6439  0.0392  0.1493
 5931SOL     OW18691   5.009   3.270   3.317  0.2042 -0.2133 -0.7868
 5931SOL    HW118692   4.966   3.359   3.305  0.5809  0.3911  1.7317
 5931SOL    HW218693   4.962   3.201   3.262 -1.2778  1.1989 -1.3275
 5932SOL     OW18694   1.505   3.172   1.562  0.5552 -0.9450 -0.3642
 5932SOL    HW118695   1.472   3.151   1.654  1.3913 -2.3985 -0.3627
 5932SOL    HW218696   1.603   3.157   1.557  1.0747  2.1013 -0.7150
 5933SOL     OW18697   2.426   0.915   4.332 -0.8197 -0.6573 -0.4226
 5933SOL    HW118698   2.501   0.982   4.329 -1.0848 -0.2415  1.2996
 5933SOL    HW218699   2.401   0.890   4.238  1.4217 -0.7781 -1.0610
 5934SOL     OW18700   3.187   6.649   2.495 -0.3879  0.5284  0.5198
 5934SOL    HW118701   3.115   6.586   2.467  0.4819 -0.2911  0.0782
 5934SOL    HW218702   3.263   6.598   2.535  0.2553  1.3069  0.3217
 5935SOL     OW18703   5.149   6.364   6.380 -0.1930  0.2018  0.4972
 5935SOL    HW118704   5.176   6.384   6.286 -1.0597  1.0399  0.4136
 5935SOL    HW218705   5.230   6.368   6.439  0.2763  0.1334 -0.1361
 5936SOL     OW18706   5.293   4.044   1.307 -0.0755  0.2578  0.1280
 5936SOL    HW118707   5.253   4.114   1.247 -1.0038 -0.7743 -0.4923
 5936SOL    HW218708   5.231   4.028   1.384  0.9750  1.3680  1.2593
 5937SOL     OW18709   0.026   3.834   5.521 -0.7878  0.0039  0.0889
 5937SOL    HW118710  -0.040   3.768   5.555 -3.1206  2.2277  0.1316
 5937SOL    HW218711   0.051   3.897   5.595  1.6726 -0.9342  0.1507
 5938SOL     OW18712   3.931   3.190   6.440  0.3696  0.0944 -0.3239
 5938SOL    HW118713   3.914   3.171   6.344 -2.0478 -0.2395  0.1179
 5938SOL    HW218714   3.926   3.288   6.456  0.0392  0.0920 -0.4127
 5939SOL     OW18715   6.256   6.598   1.143  0.0451 -0.2589 -0.0490
 5939SOL    HW118716   6.234   6.549   1.059  1.9422  1.1974 -1.4742
 5939SOL    HW218717   6.171   6.625   1.189 -1.0294 -2.8400 -0.3646
 5940SOL     OW18718   1.742   6.855   0.754  0.0220  0.5835 -0.2909
 5940SOL    HW118719   1.673   6.922   0.782 -0.2427  0.0833  0.2927
 5940SOL    HW218720   1.775   6.806   0.835 -1.4818 -1.6066 -0.9182
 5941SOL     OW18721   0.454   0.689   4.796 -0.3498 -0.7392 -0.7594
 5941SOL    HW118722   0.374   0.749   4.809 -0.1984 -0.7997  0.5217
 5941SOL    HW218723   0.524   0.738   4.744 -0.6711 -0.2026 -0.6929
 5942SOL     OW18724   1.379   4.506   3.312  0.6317 -0.0369 -0.1834
 5942SOL    HW118725   1.397   4.458   3.226  0.5162 -1.9491  0.8202
 5942SOL    HW218726   1.414   4.600   3.305  2.3541 -0.7318 -1.6362
 5943SOL     OW18727   0.186   0.650   6.910 -0.0076 -0.1519 -1.0065
 5943SOL    HW118728   0.187   0.550   6.917  1.9967 -0.2350 -1.7062
 5943SOL    HW218729   0.123   0.688   6.977  0.3191 -1.8269  0.3105
 5944SOL     OW18730   4.119   4.758   3.696 -0.2243  0.6108  0.9131
 5944SOL    HW118731   4.095   4.760   3.599 -0.3136  2.2650  0.9371
 5944SOL    HW218732   4.215   4.781   3.707  0.0372 -0.5404  1.1801
 5945SOL     OW18733   4.013   6.768   6.565  0.4014 -0.7646  0.1221
 5945SOL    HW118734   4.054   6.771   6.474 -0.2628 -1.4055 -0.2020
 5945SOL    HW218735   4.051   6.691   6.616  0.7834 -0.3984  0.4024
 5946SOL     OW18736   4.142   1.584   6.938  0.1680  0.0906 -0.1663
 5946SOL    HW118737   4.046   1.571   6.964 -0.4577  0.6031 -2.0543
 5946SOL    HW218738   4.192   1.499   6.952 -0.9727 -0.6978 -0.7049
 5947SOL     OW18739   5.639   1.883   5.530  0.9323  0.3668  0.2213
 5947SOL    HW118740   5.553   1.843   5.561  1.3948 -0.8735 -0.0401
 5947SOL    HW218741   5.653   1.971   5.575 -0.1540  0.2797  0.7546
 5948SOL     OW18742   3.127   1.039   5.850 -0.6419 -0.3481 -0.1957
 5948SOL    HW118743   3.106   0.975   5.775  0.2094 -1.9397  0.8654
 5948SOL    HW218744   3.222   1.070   5.841 -1.3852  1.7512 -1.3593
 5949SOL     OW18745   2.872   1.550   4.951 -0.4916 -0.0285  0.1589
 5949SOL    HW118746   2.838   1.495   4.874  1.6220 -0.8775 -0.2376
 5949SOL    HW218747   2.927   1.626   4.915 -0.2377  0.0946  0.8025
 5950SOL     OW18748   1.524   6.226   3.233  0.5202 -0.3724 -0.3564
 5950SOL    HW118749   1.579   6.142   3.229 -0.9922 -1.3681 -2.9450
 5950SOL    HW218750   1.433   6.204   3.268 -0.1521 -0.0576 -1.8099
 5951SOL     OW18751   2.194   4.515   0.202  0.0155 -0.2659  0.5417
 5951SOL    HW118752   2.144   4.554   0.125  1.2811 -0.0798 -0.2054
 5951SOL    HW218753   2.192   4.578   0.280  0.8173  0.6690 -0.1714
 5952SOL     OW18754   4.572   5.081   4.743  0.3023  0.3996  0.4442
 5952SOL    HW118755   4.581   5.026   4.825  1.3972 -0.8493 -0.4733
 5952SOL    HW218756   4.606   5.173   4.760  1.5960 -0.1751  1.0812
 5953SOL     OW18757   4.017   0.025   2.051  0.3930  0.1734  0.2685
 5953SOL    HW118758   3.947   0.097   2.056  0.5403  0.3153  0.2897
 5953SOL    HW218759   3.988  -0.053   2.107 -0.8862 -0.7625 -1.5790
 5954SOL     OW18760   3.612   5.378   1.469  0.2710  0.0985  0.2255
 5954SOL    HW118761   3.651   5.392   1.559  0.2322  1.1085  0.1033
 5954SOL    HW218762   3.676   5.410   1.399  0.3704 -0.8259 -0.1193
 5955SOL     OW18763   6.187   2.919   1.227  0.1134 -0.5646 -0.9037
 5955SOL    HW118764   6.188   2.906   1.326  0.0161 -0.1563 -0.8465
 5955SOL    HW218765   6.094   2.941   1.198 -0.1657 -2.0966 -1.2831
 5956SOL     OW18766   5.178   2.289   3.858  0.2341  0.0786  0.1142
 5956SOL    HW118767   5.183   2.291   3.958  0.1476  1.5227  0.1028
 5956SOL    HW218768   5.099   2.234   3.830  0.6209 -0.8581  0.8150
 5957SOL     OW18769   5.494   1.843   3.516 -0.3164  0.3883 -0.1894
 5957SOL    HW118770   5.474   1.763   3.460 -0.5135  0.8644 -0.8156
 5957SOL    HW218771   5.484   1.926   3.460  2.6491  0.7467 -0.3890
 5958SOL     OW18772   4.425   4.734   3.681 -0.0205 -0.5755  0.3521
 5958SOL    HW118773   4.430   4.660   3.748 -0.1620 -1.1018 -0.2095
 5958SOL    HW218774   4.514   4.779   3.675  0.0587 -0.6802  0.7214
 5959SOL     OW18775   5.866   4.869   3.382  0.2861  0.2726  0.3356
 5959SOL    HW118776   5.801   4.899   3.312  0.8531 -0.0170 -0.3219
 5959SOL    HW218777   5.887   4.945   3.443  1.9656  1.3746 -1.5047
 5960SOL     OW18778   0.154   2.725   6.167 -0.4522 -0.6076 -0.2864
 5960SOL    HW118779   0.138   2.812   6.213 -0.2031  0.2419 -1.7456
 5960SOL    HW218780   0.082   2.660   6.193 -0.5956 -0.0191  0.8872
 5961SOL     OW18781   4.129   4.995   6.271 -0.4097  0.1075  0.0052
 5961SOL    HW118782   4.062   5.061   6.304  0.7167  1.1529  0.2484
 5961SOL    HW218783   4.107   4.904   6.307 -2.2238  0.2407 -0.6907
 5962SOL     OW18784   1.616   2.342   4.030  0.7119  0.0477  0.5070
 5962SOL    HW118785   1.609   2.425   4.086  2.7651  0.5213  0.1479
 5962SOL    HW218786   1.672   2.274   4.078  0.1379 -0.6330  0.2246
 5963SOL     OW18787   0.980   6.477   5.943 -0.3283  0.4624 -0.0619
 5963SOL    HW118788   1.076   6.471   5.918 -0.2595 -0.0426  0.2989
 5963SOL    HW218789   0.969   6.450   6.039 -0.9882 -0.7456 -0.4550
 5964SOL     OW18790   5.360   0.065   1.436  0.0512  0.0229 -0.1084
 5964SOL    HW118791   5.397   0.108   1.353 -3.2294  0.3086 -1.5691
 5964SOL    HW218792   5.354  -0.034   1.422  1.0001 -0.1278  0.4688
 5965SOL     OW18793   2.568   5.382   4.364  0.5423 -0.4509 -0.0278
 5965SOL    HW118794   2.474   5.365   4.393  0.0332  0.2651 -1.1878
 5965SOL    HW218795   2.591   5.320   4.289  1.4188 -1.4317  1.0159
 5966SOL     OW18796   1.051   1.325   3.593 -0.2710  0.2369 -0.1619
 5966SOL    HW118797   1.142   1.285   3.583 -0.6951 -1.3566  1.6463
 5966SOL    HW218798   0.982   1.255   3.578 -1.1178  0.8164  0.8355
 5967SOL     OW18799   1.816   0.847   0.328  0.3008 -0.1430  0.2512
 5967SOL    HW118800   1.775   0.817   0.242  1.9579  0.7857 -0.9129
 5967SOL    HW218801   1.907   0.885   0.310 -0.6549  3.3167  1.9041
 5968SOL     OW18802   3.817   3.462   5.813 -0.0816 -0.3400 -0.1871
 5968SOL    HW118803   3.839   3.553   5.848  0.1659 -0.8419  1.0185
 5968SOL    HW218804   3.718   3.448   5.817 -0.5653  1.0749 -3.5092
 5969SOL     OW18805   1.679   0.235   5.595 -0.0301 -0.4997  0.2915
 5969SOL    HW118806   1.593   0.192   5.625 -2.0717  2.7946 -0.3718
 5969SOL    HW218807   1.686   0.229   5.496  0.7925 -1.1554  0.3788
 5970SOL     OW18808   5.107   5.437   6.411 -0.8955  0.0798  0.6464
 5970SOL    HW118809   5.143   5.528   6.392  0.0228 -0.2746  0.6523
 5970SOL    HW218810   5.180   5.369   6.400 -1.9523 -0.8469 -1.0045
 5971SOL     OW18811   2.704   1.163   3.671  0.1606 -0.7293 -0.0997
 5971SOL    HW118812   2.771   1.143   3.744 -0.3385 -0.6716  0.3802
 5971SOL    HW218813   2.719   1.256   3.637 -0.5525 -0.2074  0.9704
 5972SOL     OW18814   1.616   2.678   4.906  0.5699  0.5051 -0.1003
 5972SOL    HW118815   1.686   2.719   4.965  1.6447 -2.4037  0.8479
 5972SOL    HW218816   1.573   2.602   4.954 -0.9023  0.1080 -1.9273
 5973SOL     OW18817   1.427   6.073   0.671  0.2265 -0.5373  0.2348
 5973SOL    HW118818   1.410   6.168   0.699 -2.4498 -1.2540  1.3505
 5973SOL    HW218819   1.517   6.045   0.703 -0.4873  0.4544  3.5201
 5974SOL     OW18820   3.622   6.386   0.688 -0.2779 -0.1010 -0.4091
 5974SOL    HW118821   3.562   6.465   0.700 -0.3059  0.0458 -1.4254
 5974SOL    HW218822   3.712   6.406   0.727 -0.0951  0.6694 -1.2094
 5975SOL     OW18823   1.861   2.202   4.304 -0.0925  0.7064 -0.4162
 5975SOL    HW118824   1.918   2.239   4.230  0.7522 -0.6097 -0.4526
 5975SOL    HW218825   1.867   2.263   4.383  1.7990  0.3676 -0.2455
 5976SOL     OW18826   3.376   4.151   3.818  0.2661  0.6902  0.1550
 5976SOL    HW118827   3.339   4.135   3.727  0.4226 -2.1366  0.5024
 5976SOL    HW218828   3.473   4.128   3.819  0.3147  0.9015  0.9675
 5977SOL     OW18829   4.113   5.231   2.250  0.3162 -0.4153 -0.2344
 5977SOL    HW118830   4.086   5.245   2.345  0.2313 -2.1906  0.0401
 5977SOL    HW218831   4.211   5.242   2.241  0.1696  1.1136 -0.2395
 5978SOL     OW18832   5.036   0.568   5.565 -0.1874 -0.2859  0.0637
 5978SOL    HW118833   5.100   0.633   5.524  0.5992 -1.6042 -0.8733
 5978SOL    HW218834   4.943   0.587   5.532  0.1620 -0.1689 -0.8708
 5979SOL     OW18835   5.770   5.031   2.620 -0.5165  0.0009 -0.3277
 5979SOL    HW118836   5.807   5.092   2.690  0.4303 -0.5930 -0.2979
 5979SOL    HW218837   5.731   5.086   2.546 -1.2598  0.6357  0.5110
 5980SOL     OW18838   0.896   0.269   0.390  0.1190  0.0796 -0.4608
 5980SOL    HW118839   0.987   0.304   0.370  0.0292  0.5948  0.0097
 5980SOL    HW218840   0.901   0.170   0.407  0.6347  0.1647 -0.1049
 5981SOL     OW18841   3.119   5.258   5.621 -0.9558 -0.1437  0.0655
 5981SOL    HW118842   3.137   5.177   5.565 -4.6437 -0.9752 -0.1644
 5981SOL    HW218843   3.198   5.275   5.681 -0.3622 -4.5368  0.8698
 5982SOL     OW18844   6.901   6.256   3.539 -0.6366  0.0063 -0.4426
 5982SOL    HW118845   6.878   6.348   3.508  0.2710 -0.3166 -2.2277
 5982SOL    HW218846   6.868   6.189   3.471 -0.0985 -0.8793  0.1528
 5983SOL     OW18847   1.723   0.281   7.013  0.1542 -0.2931  0.3030
 5983SOL    HW118848   1.772   0.232   7.085 -0.7320 -0.2603  0.9505
 5983SOL    HW218849   1.664   0.217   6.963 -0.8210  0.0335  0.9939
 5984SOL     OW18850   0.513   4.532   2.296  0.3350 -0.6521 -0.1004
 5984SOL    HW118851   0.576   4.515   2.220 -0.5091 -2.0430 -0.5274
 5984SOL    HW218852   0.444   4.599   2.268  2.3385  1.9928  0.8278
 5985SOL     OW18853   3.443   4.340   5.690 -0.0693 -0.1556 -0.5851
 5985SOL    HW118854   3.385   4.261   5.709  1.9741 -1.2980  1.4721
 5985SOL    HW218855   3.535   4.309   5.668  0.5583  1.6415 -0.6323
 5986SOL     OW18856   2.312   2.924   0.564 -0.2211  0.0481  0.3148
 5986SOL    HW118857   2.362   3.005   0.596 -1.1445  0.9651 -0.4728
 5986SOL    HW218858   2.261   2.947   0.481 -2.3587 -0.6615  1.3441
 5987SOL     OW18859   0.951   0.157   1.422  0.3388 -0.3651 -0.4497
 5987SOL    HW118860   0.876   0.131   1.362  0.1145  0.7892 -0.6947
 5987SOL    HW218861   1.022   0.203   1.369  2.3989 -3.4916 -0.6928
 5988SOL     OW18862   4.285   0.533   2.956 -0.0751 -0.0059  0.0116
 5988SOL    HW118863   4.252   0.456   2.901  0.6815  0.1292 -0.6568
 5988SOL    HW218864   4.384   0.526   2.966  0.2341  1.6519 -1.3226
 5989SOL     OW18865   6.491   0.470   0.877  0.1855  0.4089 -0.7887
 5989SOL    HW118866   6.462   0.377   0.854 -0.1903  0.2630  0.2199
 5989SOL    HW218867   6.516   0.518   0.793  0.2094 -0.5361 -1.3487
 5990SOL     OW18868   2.321   2.839   4.254  0.8463  0.0666 -0.0802
 5990SOL    HW118869   2.364   2.921   4.215  0.9060 -0.4451 -1.1057
 5990SOL    HW218870   2.226   2.860   4.276  0.6678  0.2355 -0.9589
 5991SOL     OW18871   4.573   1.916   3.289 -0.7072 -0.2143  0.5105
 5991SOL    HW118872   4.547   1.833   3.339 -0.9346 -0.2157  0.3922
 5991SOL    HW218873   4.514   1.925   3.208 -0.8000  0.1585  0.6186
 5992SOL     OW18874   1.711   2.806   5.492  0.5787  0.1806  0.2271
 5992SOL    HW118875   1.794   2.860   5.508  0.6319  0.3876 -0.7066
 5992SOL    HW218876   1.729   2.740   5.419  0.1230 -0.2385  0.4926
 5993SOL     OW18877   4.240   0.400   2.020 -0.5640  0.0235  0.4673
 5993SOL    HW118878   4.274   0.489   2.050 -1.6698  0.5143  0.3059
 5993SOL    HW218879   4.156   0.412   1.968 -1.3977 -1.1932  1.4617
 5994SOL     OW18880   0.263   0.011   5.135  0.6253 -0.2667  0.2725
 5994SOL    HW118881   0.190   0.076   5.158  2.0260  2.1053 -1.5875
 5994SOL    HW218882   0.316  -0.010   5.217  1.2246  2.3896  0.6445
 5995SOL     OW18883   1.796   6.887   2.105 -0.5426  0.1821  0.0850
 5995SOL    HW118884   1.772   6.807   2.050  0.1938 -0.8867  1.2748
 5995SOL    HW218885   1.791   6.969   2.047 -2.4071 -0.5403 -0.8839
 5996SOL     OW18886   0.547   7.006   2.389 -0.4291  0.2005 -0.1587
 5996SOL    HW118887   0.464   7.050   2.357 -1.5636 -1.3684  0.5026
 5996SOL    HW218888   0.535   6.974   2.483  1.2732  0.7845  0.2973
 5997SOL     OW18889   5.863   2.211   1.574 -0.7141 -0.4311 -0.4891
 5997SOL    HW118890   5.827   2.279   1.638  1.8775 -0.7732  1.5374
 5997SOL    HW218891   5.901   2.257   1.494 -1.7541  0.2157 -0.6319
 5998SOL     OW18892   1.859   5.310   1.918 -0.1214 -0.0763 -1.0218
 5998SOL    HW118893   1.914   5.259   1.984 -1.4824 -1.6505 -1.0425
 5998SOL    HW218894   1.913   5.324   1.835  0.9087  0.1681 -0.3452
 5999SOL     OW18895   5.971   4.327   3.803 -0.7216  0.0129  0.5078
 5999SOL    HW118896   6.016   4.326   3.892  1.2512  3.1356 -0.2904
 5999SOL    HW218897   5.886   4.380   3.810  0.2216  1.6167  0.2930
 6000SOL     OW18898   6.653   2.689   5.595 -0.9583  0.4410  0.2589
 6000SOL    HW118899   6.588   2.646   5.533 -0.9621  1.2486 -0.3276
 6000SOL    HW218900   6.746   2.658   5.574 -0.6789  2.3067 -1.6731
 6001SOL     OW18901   1.977   6.550   3.420 -0.7683 -0.4386  0.1016
 6001SOL    HW118902   1.898   6.606   3.446 -1.4184 -1.8871  1.4099
 6001SOL    HW218903   2.058   6.584   3.467 -0.8253  0.3599 -0.3590
 6002SOL     OW18904   4.378   0.139   6.685 -0.0246  0.1473  0.1981
 6002SOL    HW118905   4.339   0.057   6.727 -0.1920  0.3254  0.3937
 6002SOL    HW218906   4.477   0.138   6.696 -0.1596  0.8447  1.8089
 6003SOL     OW18907   2.942   5.790   0.269 -0.4347  0.7989 -0.4919
 6003SOL    HW118908   2.991   5.806   0.183 -1.2407 -0.3625 -1.2027
 6003SOL    HW218909   2.986   5.841   0.343  1.2956  0.4980 -1.2684
 6004SOL     OW18910   6.846   0.901   4.746 -0.1746  0.5118  0.3777
 6004SOL    HW118911   6.940   0.867   4.739  0.4765  2.3055 -0.1159
 6004SOL    HW218912   6.800   0.855   4.822  0.7191 -1.1991 -0.0510
 6005SOL     OW18913   5.010   2.409   6.048 -0.1649 -0.2999 -0.6574
 6005SOL    HW118914   4.910   2.413   6.040 -0.1688 -0.7679 -0.8653
 6005SOL    HW218915   5.036   2.326   6.098  0.0860  0.1993  0.0674
 6006SOL     OW18916   3.343   1.072   4.456  0.0321  0.1269  0.3395
 6006SOL    HW118917   3.362   1.006   4.383  0.0879 -1.6602  1.9015
 6006SOL    HW218918   3.246   1.068   4.480 -0.1398  1.2468 -0.1100
 6007SOL     OW18919   5.302   5.977   2.409  0.2620  0.6911 -0.6807
 6007SOL    HW118920   5.246   6.048   2.452  0.3223  0.7107 -0.6335
 6007SOL    HW218921   5.380   6.020   2.363 -0.3172  0.7542 -1.6325
 6008SOL     OW18922   6.956   1.801   5.668 -0.2593  0.3849  0.6333
 6008SOL    HW118923   6.914   1.838   5.751  2.5982  1.0214  1.9042
 6008SOL    HW218924   7.045   1.761   5.690 -0.6391 -2.0344 -1.7118
 6009SOL     OW18925   4.433   1.263   5.715  0.0956 -0.4418 -0.0749
 6009SOL    HW118926   4.361   1.218   5.768  0.5465 -0.0667  0.8889
 6009SOL    HW218927   4.502   1.299   5.777  0.1511  0.8821 -0.8592
 6010SOL     OW18928   6.482   3.871   5.952 -0.5450 -0.0354  0.3249
 6010SOL    HW118929   6.578   3.887   5.928 -1.1043  1.6317 -0.9289
 6010SOL    HW218930   6.458   3.777   5.931  0.0204  0.3242 -2.2898
 6011SOL     OW18931   0.572   4.549   2.593 -0.1254 -0.3071  0.5110
 6011SOL    HW118932   0.595   4.493   2.514 -0.3521 -0.9001  0.8589
 6011SOL    HW218933   0.568   4.645   2.566  0.8411 -0.3971  0.0370
 6012SOL     OW18934   6.006   4.956   3.033  0.4195  0.0807 -0.1591
 6012SOL    HW118935   6.029   4.906   3.116 -1.2681  0.1040  0.3686
 6012SOL    HW218936   6.072   4.936   2.962  1.5759 -0.3879  1.0150
 6013SOL     OW18937   4.907   5.437   6.129  0.0119  0.3021  0.1029
 6013SOL    HW118938   4.963   5.508   6.086  0.3283 -0.0817 -0.1195
 6013SOL    HW218939   4.898   5.359   6.067 -0.5497  0.2502  0.2417
 6014SOL     OW18940   5.168   3.318   5.694 -0.1355 -0.0693  0.5003
 6014SOL    HW118941   5.150   3.223   5.716 -0.2735 -0.3244 -0.6560
 6014SOL    HW218942   5.111   3.346   5.616  0.3095  0.7960  0.4718
 6015SOL     OW18943   2.590   2.562   6.336 -0.1848  0.0746 -0.2808
 6015SOL    HW118944   2.658   2.568   6.263  0.0987 -1.3928 -0.1571
 6015SOL    HW218945   2.637   2.573   6.425 -0.1271 -0.7679 -0.2035
 6016SOL     OW18946   4.701   6.888   5.837  0.0970  0.4312 -0.7955
 6016SOL    HW118947   4.627   6.917   5.898 -0.1934 -0.1314 -0.8744
 6016SOL    HW218948   4.679   6.799   5.797 -0.4472  1.4574 -2.9342
 6017SOL     OW18949   1.686   0.733   2.827  0.3481  0.2015  0.5093
 6017SOL    HW118950   1.649   0.788   2.752  1.7218  1.6634  0.8314
 6017SOL    HW218951   1.636   0.754   2.911 -0.0369 -0.0946  0.3551
 6018SOL     OW18952   5.235   5.307   4.194  0.1268 -0.5872  0.3107
 6018SOL    HW118953   5.238   5.229   4.258 -1.5926 -1.1527 -0.2405
 6018SOL    HW218954   5.189   5.384   4.238 -1.0467 -0.9721 -0.1999
 6019SOL     OW18955   0.842   4.517   5.697 -0.7001  0.4837  0.5834
 6019SOL    HW118956   0.853   4.502   5.599  1.4904  0.6084  0.7455
 6019SOL    HW218957   0.855   4.614   5.718 -1.3500  0.4902  0.9780
 6020SOL     OW18958   6.115   6.312   6.885  0.2474 -0.6787  0.3614
 6020SOL    HW118959   6.214   6.303   6.892  0.4057  1.1028  0.9862
 6020SOL    HW218960   6.086   6.295   6.791  1.5078  1.3379 -0.4577
 6021SOL     OW18961   4.815   6.859   0.709  0.7669 -0.1634 -0.1493
 6021SOL    HW118962   4.727   6.903   0.729  1.2845  1.1963 -0.8133
 6021SOL    HW218963   4.798   6.772   0.662 -0.1989  0.4754 -1.0225
 6022SOL     OW18964   6.461   1.444   5.018 -1.1596 -0.3109 -0.6783
 6022SOL    HW118965   6.522   1.492   4.955 -1.1530 -1.4965 -1.6143
 6022SOL    HW218966   6.437   1.504   5.095  1.5762  0.0387 -0.0026
 6023SOL     OW18967   5.666   6.142   2.443  0.2928 -0.5442 -0.1180
 6023SOL    HW118968   5.709   6.155   2.532  1.6828 -0.1348 -0.8368
 6023SOL    HW218969   5.674   6.225   2.389 -2.1645 -0.1434 -0.0041
 6024SOL     OW18970   6.925   3.629   3.944 -0.0896  0.3882  0.1800
 6024SOL    HW118971   6.827   3.645   3.934 -0.3856 -0.3958  1.5805
 6024SOL    HW218972   6.941   3.536   3.977  1.0993  0.6665  0.4533
 6025SOL     OW18973   1.528   6.922   3.907  0.3377 -0.1453 -0.5536
 6025SOL    HW118974   1.478   6.999   3.947  0.6414  1.0666 -2.3697
 6025SOL    HW218975   1.467   6.872   3.845 -0.3652 -2.4764  1.8178
 6026SOL     OW18976   0.639   3.170   0.847  0.7263 -0.5151  0.0590
 6026SOL    HW118977   0.648   3.245   0.782 -0.7876 -0.1274  0.2512
 6026SOL    HW218978   0.633   3.208   0.940 -0.1970 -0.8392  0.1423
 6027SOL     OW18979   5.694   2.720   6.925 -0.2681  0.5920 -0.4758
 6027SOL    HW118980   5.672   2.818   6.925 -1.0696  0.4232 -0.2641
 6027SOL    HW218981   5.678   2.684   6.833  1.2694  0.9124 -0.8877
 6028SOL     OW18982   6.199   6.983   7.011  0.0479 -0.2682  0.2104
 6028SOL    HW118983   6.223   7.079   7.006 -1.7490  0.4019  2.3449
 6028SOL    HW218984   6.201   6.942   6.920  0.2843  1.9316 -0.8215
 6029SOL     OW18985   1.294   1.368   5.644 -0.4199 -0.4433 -0.1594
 6029SOL    HW118986   1.219   1.319   5.688 -0.3720  0.4208  0.9292
 6029SOL    HW218987   1.360   1.302   5.608 -2.1326 -1.2703 -2.0239
 6030SOL     OW18988   1.573   1.578   3.141 -0.5354  0.0397 -0.1069
 6030SOL    HW118989   1.511   1.647   3.104  0.3693  1.4418  0.8811
 6030SOL    HW218990   1.574   1.583   3.241  2.7151  1.5897 -0.0746
 6031SOL     OW18991   2.193   2.035   4.734  0.0130  0.8998  0.3473
 6031SOL    HW118992   2.236   1.965   4.677 -1.5442 -0.4097  0.7338
 6031SOL    HW218993   2.208   2.125   4.692 -0.9680  0.0142 -2.1003
 6032SOL     OW18994   3.839   6.836   2.194 -0.2846  0.0888 -0.4119
 6032SOL    HW118995   3.907   6.765   2.175  1.1582  1.6613 -1.4419
 6032SOL    HW218996   3.838   6.855   2.292 -1.0449 -1.6358 -0.0460
 6033SOL     OW18997   0.897   5.268   6.488 -0.2712 -0.0586 -0.5436
 6033SOL    HW118998   0.923   5.213   6.408  0.2018  0.1490 -0.5362
 6033SOL    HW218999   0.801   5.252   6.509  0.0211 -1.3993 -0.1391
 6034SOL     OW19000   0.426   6.586   2.545  0.4806 -0.3277  0.1806
 6034SOL    HW119001   0.441   6.589   2.446 -1.1094 -3.2017 -0.2487
 6034SOL    HW219002   0.435   6.493   2.578 -1.0290  0.2286  2.4027
 6035SOL     OW19003   5.416   1.803   6.761 -0.2011 -0.1246 -0.5801
 6035SOL    HW119004   5.383   1.710   6.746 -2.8098  0.3363  1.4319
 6035SOL    HW219005   5.462   1.809   6.849  1.9388  0.1175 -1.6435
 6036SOL     OW19006   3.503   4.487   6.146 -0.3474 -0.6358  0.0764
 6036SOL    HW119007   3.446   4.497   6.064 -0.2995  0.4390  0.1612
 6036SOL    HW219008   3.477   4.557   6.213  0.2701 -0.8942  0.5886
 6037SOL     OW19009   2.717   1.434   1.497  0.3201 -0.3738  0.3728
 6037SOL    HW119010   2.657   1.355   1.508  1.3804 -1.0559  1.4882
 6037SOL    HW219011   2.767   1.426   1.410 -1.0029  0.0981 -0.4633
 6038SOL     OW19012   0.981   4.561   6.978 -0.5490  0.2212 -0.0187
 6038SOL    HW119013   0.891   4.588   7.012 -1.5474 -0.9343 -1.6302
 6038SOL    HW219014   1.050   4.584   7.047 -2.4334 -2.1533  2.9081
 6039SOL     OW19015   5.206   5.205   3.509 -0.3471 -0.3690  0.9063
 6039SOL    HW119016   5.128   5.217   3.569 -1.1440 -1.0708  0.0433
 6039SOL    HW219017   5.225   5.291   3.460 -0.6003 -0.2095  1.0901
 6040SOL     OW19018   2.808   3.214   0.784 -0.0243  0.1626 -0.0071
 6040SOL    HW119019   2.864   3.146   0.736 -0.2982  0.1009 -0.2391
 6040SOL    HW219020   2.763   3.170   0.862 -0.2834  0.0519 -0.2178
 6041SOL     OW19021   0.549   3.613   3.707 -0.2572  0.2151  0.3854
 6041SOL    HW119022   0.574   3.560   3.627  3.0329 -0.0838  1.4739
 6041SOL    HW219023   0.558   3.711   3.686 -1.9187  0.2694 -0.2754
 6042SOL     OW19024   4.807   3.243   5.733 -0.6993 -0.0060  0.2387
 6042SOL    HW119025   4.872   3.229   5.658 -2.4413  0.3598 -1.4107
 6042SOL    HW219026   4.757   3.328   5.718 -0.7118  0.3714  2.1596
 6043SOL     OW19027   6.796   4.590   3.919 -0.2541  0.1431 -0.9654
 6043SOL    HW119028   6.872   4.648   3.947  0.0870 -0.1295 -1.3203
 6043SOL    HW219029   6.744   4.561   4.000  0.9357 -0.9498 -0.5591
 6044SOL     OW19030   1.134   3.944   0.230 -0.1062 -0.2516  0.5387
 6044SOL    HW119031   1.174   3.936   0.138  0.2939 -1.7399  0.8233
 6044SOL    HW219032   1.038   3.915   0.227 -1.3888  3.4681 -0.1777
 6045SOL     OW19033   0.970   6.771   0.138 -0.3252 -0.1939 -0.4543
 6045SOL    HW119034   0.903   6.697   0.143  0.2674 -0.6724  1.1072
 6045SOL    HW219035   1.055   6.741   0.180 -0.4473  1.7449  1.3376
 6046SOL     OW19036   1.011   0.764   3.092 -0.2552 -0.2124 -0.0028
 6046SOL    HW119037   1.005   0.781   2.994 -0.4076  0.4675  0.1120
 6046SOL    HW219038   0.981   0.671   3.113  1.0653 -0.8253 -0.7387
 6047SOL     OW19039   4.255   6.068   5.919  0.0936  0.2733 -0.1252
 6047SOL    HW119040   4.196   6.052   5.840 -0.6533  0.3390  0.4059
 6047SOL    HW219041   4.224   6.149   5.968  0.6326  0.3108  0.1619
 6048SOL     OW19042   2.699   5.220   2.811 -0.0176  0.2946  0.0516
 6048SOL    HW119043   2.654   5.245   2.725  0.4798  1.7518  0.1970
 6048SOL    HW219044   2.685   5.122   2.828 -1.6169  0.3432 -0.7845
 6049SOL     OW19045   2.593   1.488   4.995 -0.0533 -0.1178 -0.0331
 6049SOL    HW119046   2.571   1.513   4.901  1.3908  2.2745  0.1782
 6049SOL    HW219047   2.692   1.496   5.010 -0.3390  0.4062  1.9206
 6050SOL     OW19048   1.368   4.833   4.000  0.3204 -0.1127 -0.4766
 6050SOL    HW119049   1.458   4.861   3.966  0.6333  1.0139  1.1595
 6050SOL    HW219050   1.303   4.908   3.988  0.1985 -0.0599  0.4670
 6051SOL     OW19051   1.114   5.514   4.908 -0.4289 -0.7474 -0.5704
 6051SOL    HW119052   1.189   5.567   4.948 -1.9294  0.8836  0.1901
 6051SOL    HW219053   1.125   5.418   4.934 -0.7464  0.0468  3.0368
 6052SOL     OW19054   4.305   1.454   5.579  0.3093 -0.0252 -0.2576
 6052SOL    HW119055   4.357   1.446   5.494  0.5690 -0.7014 -0.0408
 6052SOL    HW219056   4.338   1.387   5.645 -0.8602 -0.5207 -0.1352
 6053SOL     OW19057   5.746   5.900   6.195 -0.1926 -0.2127  0.1496
 6053SOL    HW119058   5.665   5.946   6.232 -1.1502 -0.0979 -1.9528
 6053SOL    HW219059   5.727   5.803   6.183  0.7287 -0.6066  1.5384
 6054SOL     OW19060   3.501   1.552   6.837  0.8167  0.2800 -0.5420
 6054SOL    HW119061   3.551   1.524   6.919 -0.9991  0.3890  0.6499
 6054SOL    HW219062   3.562   1.604   6.777  3.0139 -2.2426 -0.6919
 6055SOL     OW19063   2.739   3.202   5.340  0.0505  0.4671  0.0862
 6055SOL    HW119064   2.815   3.227   5.280 -0.6581  0.1457 -0.9646
 6055SOL    HW219065   2.669   3.154   5.287 -0.6271  0.2415  1.1592
 6056SOL     OW19066   1.718   5.565   2.779  0.1447 -0.0596 -0.0901
 6056SOL    HW119067   1.748   5.584   2.686  0.7958  0.2482  0.1736
 6056SOL    HW219068   1.728   5.648   2.834  2.6918 -0.9926  1.0111
 6057SOL     OW19069   0.464   5.675   0.640  0.4250 -0.3902  0.5046
 6057SOL    HW119070   0.505   5.620   0.567  0.9487  1.0167 -0.3048
 6057SOL    HW219071   0.527   5.678   0.718  1.5214  1.0180 -0.3874
 6058SOL     OW19072   4.416   1.235   0.661  0.4412 -0.3193 -0.4711
 6058SOL    HW119073   4.504   1.255   0.619  1.4647 -0.9781  1.2141
 6058SOL    HW219074   4.420   1.144   0.704 -0.7639  0.0064  0.3907
 6059SOL     OW19075   2.973   4.933   4.438  0.6995 -0.0349 -0.2112
 6059SOL    HW119076   2.935   5.024   4.420  0.2432 -0.5799 -2.2479
 6059SOL    HW219077   3.059   4.923   4.387  1.2748 -0.4088  0.8055
 6060SOL     OW19078   4.992   6.365   1.801  0.2394 -0.0176  0.0825
 6060SOL    HW119079   5.022   6.281   1.846  2.1593 -0.1662 -1.3405
 6060SOL    HW219080   4.999   6.442   1.865 -0.4117 -0.7271  1.0359
 6061SOL     OW19081   5.902   1.232   1.090 -0.6150  0.9108 -0.1986
 6061SOL    HW119082   5.912   1.136   1.064  1.1927  0.6940  1.1826
 6061SOL    HW219083   5.910   1.242   1.189 -1.6836  2.4032 -0.2183
 6062SOL     OW19084   5.514   3.384   4.590 -0.0206  0.4523 -0.1025
 6062SOL    HW119085   5.565   3.338   4.663 -0.7762  1.2700  0.9876
 6062SOL    HW219086   5.416   3.369   4.605 -0.2606  2.0156  0.0274
 6063SOL     OW19087   1.458   3.411   0.093  0.1089  0.1490  0.3196
 6063SOL    HW119088   1.468   3.435   0.190 -0.6323  1.8419  0.0099
 6063SOL    HW219089   1.466   3.494   0.038 -0.8160 -0.6053 -0.9818
 6064SOL     OW19090   5.937   1.680   1.493 -0.2872  0.8123  0.1976
 6064SOL    HW119091   5.901   1.596   1.454  0.3943 -0.9090  2.9553
 6064SOL    HW219092   6.037   1.680   1.484 -0.2898  1.3751  0.1447
 6065SOL     OW19093   0.721   6.635   4.034 -0.4197  0.4733 -0.9778
 6065SOL    HW119094   0.655   6.603   4.102 -0.2640  0.6798 -0.7264
 6065SOL    HW219095   0.808   6.589   4.049 -0.3241  0.6792 -0.8998
 6066SOL     OW19096   4.395   2.574   6.985  0.5196 -0.8642  0.0230
 6066SOL    HW119097   4.401   2.477   6.962 -0.0210 -0.7170 -0.7706
 6066SOL    HW219098   4.301   2.606   6.975  0.5988 -0.3711  0.7730
 6067SOL     OW19099   0.839   4.392   4.721  0.3705  0.2492  0.4269
 6067SOL    HW119100   0.933   4.390   4.686  0.7535  0.5771  1.3801
 6067SOL    HW219101   0.837   4.347   4.811 -0.4506 -0.0285  0.2731
 6068SOL     OW19102   3.525   6.248   4.300 -0.4400 -0.1361  0.5831
 6068SOL    HW119103   3.622   6.261   4.280 -0.3768  1.7919  1.8114
 6068SOL    HW219104   3.481   6.201   4.223  1.3726 -0.7367 -0.1472
 6069SOL     OW19105   1.813   3.999   0.955 -0.0830 -0.3908  0.0917
 6069SOL    HW119106   1.860   4.084   0.935 -2.4102  1.0281  0.2583
 6069SOL    HW219107   1.804   3.988   1.054  0.5679 -1.0561  0.0843
 6070SOL     OW19108   3.623   0.873   2.325  0.4884  0.1199  0.3095
 6070SOL    HW119109   3.713   0.850   2.360  1.0303  0.9875 -0.4591
 6070SOL    HW219110   3.555   0.866   2.398  1.4728  1.2300  1.3603
 6071SOL     OW19111   4.979   6.223   5.695 -0.0205  0.1458  0.0424
 6071SOL    HW119112   4.921   6.297   5.659  1.4489  1.8073  0.9295
 6071SOL    HW219113   5.072   6.234   5.660  1.2452  1.2527  3.3936
 6072SOL     OW19114   3.190   1.055   0.092  0.3448 -0.3649  0.1690
 6072SOL    HW119115   3.174   1.041  -0.006 -0.7765  2.1050 -0.0693
 6072SOL    HW219116   3.180   0.968   0.140  0.2193 -1.5035 -1.8082
 6073SOL     OW19117   4.920   1.254   3.955 -0.1285 -0.9082  0.3003
 6073SOL    HW119118   4.910   1.179   3.889  2.2371  0.2297 -1.4995
 6073SOL    HW219119   4.913   1.342   3.907  0.0262  0.0053  1.8799
 6074SOL     OW19120   4.728   2.865   4.584  0.5430 -0.0743  0.4200
 6074SOL    HW119121   4.636   2.861   4.623  0.4212  3.1755  0.7092
 6074SOL    HW219122   4.722   2.854   4.484 -0.2121  0.4777  0.3954
 6075SOL     OW19123   0.561   3.398   4.329 -0.7101  0.0753 -0.5767
 6075SOL    HW119124   0.590   3.394   4.233  0.2941 -0.8701 -0.2457
 6075SOL    HW219125   0.473   3.353   4.339 -0.5108 -0.3973 -0.9431
 6076SOL     OW19126   2.246   6.713   6.358 -0.2709  0.3045 -0.0039
 6076SOL    HW119127   2.287   6.765   6.284 -0.7864  1.3380  0.4215
 6076SOL    HW219128   2.164   6.666   6.324 -1.3507  1.9556  0.2288
 6077SOL     OW19129   3.796   0.216   4.365  0.0577  0.2277  0.0612
 6077SOL    HW119130   3.707   0.238   4.404 -0.8125  0.2998 -1.8884
 6077SOL    HW219131   3.785   0.154   4.287  1.5472  1.5293 -1.2620
 6078SOL     OW19132   5.834   5.135   6.123  0.5252  0.5762 -0.4506
 6078SOL    HW119133   5.874   5.078   6.195 -0.9401 -0.5837 -0.5201
 6078SOL    HW219134   5.903   5.151   6.052  1.8995  1.5011  1.0351
 6079SOL     OW19135   3.789   1.130   4.329  0.1281  0.2667  0.3383
 6079SOL    HW119136   3.857   1.061   4.303 -0.4620 -0.6398  1.1080
 6079SOL    HW219137   3.743   1.165   4.248  0.4607 -0.2316 -0.0697
 6080SOL     OW19138   2.653   2.026   3.853 -0.9058  0.1014  0.1751
 6080SOL    HW119139   2.710   1.946   3.836  1.0494  0.9835  2.0859
 6080SOL    HW219140   2.700   2.108   3.820 -1.4806  0.7611  0.9590
 6081SOL     OW19141   4.682   5.338   4.782 -0.1714 -0.0209 -0.0840
 6081SOL    HW119142   4.636   5.415   4.736  2.1911  1.9316  0.5855
 6081SOL    HW219143   4.759   5.308   4.726 -1.1237 -2.0601 -0.3746
 6082SOL     OW19144   0.134   1.987   1.700  0.1270  0.7696  0.5532
 6082SOL    HW119145   0.099   1.933   1.623 -1.0106  0.2154  1.4286
 6082SOL    HW219146   0.072   1.979   1.778  1.1155  1.5357  1.4592
 6083SOL     OW19147   2.101   4.788   6.114  0.4643 -0.1680  0.2527
 6083SOL    HW119148   2.073   4.761   6.022  0.6571 -2.1475  0.7347
 6083SOL    HW219149   2.069   4.720   6.180  0.5821  1.0672  1.6224
 6084SOL     OW19150   5.793   2.768   3.216 -0.9127  0.2056 -0.3414
 6084SOL    HW119151   5.838   2.712   3.146  0.2130  1.3321 -0.5386
 6084SOL    HW219152   5.830   2.745   3.306 -0.5688  0.5126 -0.4037
 6085SOL     OW19153   6.718   5.579   4.413 -0.1734  0.2119 -0.2436
 6085SOL    HW119154   6.741   5.597   4.509 -2.1428  1.0936  0.0944
 6085SOL    HW219155   6.670   5.492   4.406 -0.0119  0.1371 -0.4474
 6086SOL     OW19156   0.524   4.319   3.263 -1.0395 -0.2553  0.2977
 6086SOL    HW119157   0.467   4.372   3.326  0.6978  1.4945  0.5018
 6086SOL    HW219158   0.533   4.368   3.177  1.9547  0.7460  1.0657
 6087SOL     OW19159   4.970   3.687   3.914  0.2466 -0.2247  0.1795
 6087SOL    HW119160   4.934   3.629   3.841 -0.4467 -0.5920  0.7930
 6087SOL    HW219161   5.052   3.735   3.882  1.1993 -1.9974 -0.1565
 6088SOL     OW19162   1.598   1.345   6.794  0.5238 -0.0704 -0.1541
 6088SOL    HW119163   1.623   1.436   6.827  1.4326  0.3365 -1.8496
 6088SOL    HW219164   1.559   1.353   6.702  2.2025 -1.5138 -1.0446
 6089SOL     OW19165   1.220   0.560   5.495  0.2357  0.5899  0.2817
 6089SOL    HW119166   1.221   0.659   5.500  0.8702  0.7373 -1.7858
 6089SOL    HW219167   1.311   0.524   5.516  0.2458  0.5169  0.1179
 6090SOL     OW19168   2.833   0.094   6.554  0.3762 -0.4195  0.1243
 6090SOL    HW119169   2.852   0.002   6.589  0.3820  0.2940  2.1404
 6090SOL    HW219170   2.887   0.110   6.472  0.2827 -2.2414 -0.3450
 6091SOL     OW19171   6.678   4.505   3.352  0.3053  0.3999 -0.1558
 6091SOL    HW119172   6.696   4.597   3.386  2.7915  0.3379 -1.0639
 6091SOL    HW219173   6.667   4.508   3.252 -1.0512 -0.1367 -0.0437
 6092SOL     OW19174   0.859   5.547   1.320 -0.6584 -0.5135  0.5859
 6092SOL    HW119175   0.880   5.485   1.395 -1.0005  0.2166  1.3040
 6092SOL    HW219176   0.911   5.521   1.239  2.2046  0.5406  1.9328
 6093SOL     OW19177   5.765   3.119   6.293  0.0450  0.0342  0.2727
 6093SOL    HW119178   5.816   3.169   6.363  3.6436 -1.0442 -1.3475
 6093SOL    HW219179   5.702   3.182   6.247 -0.4424  1.3843  2.6444
 6094SOL     OW19180   3.877   2.116   2.240  0.3713 -0.8117  0.2149
 6094SOL    HW119181   3.802   2.133   2.176  0.8341 -1.1367 -0.4206
 6094SOL    HW219182   3.842   2.117   2.334 -0.1738  0.4576  0.0130
 6095SOL     OW19183   6.979   4.408   2.841  0.5130 -0.0441  0.1449
 6095SOL    HW119184   6.989   4.418   2.940  0.0344  2.0047  0.0318
 6095SOL    HW219185   6.968   4.311   2.818  2.1648 -0.7173  1.9252
 6096SOL     OW19186   4.743   6.474   3.967  0.0544  0.7831 -0.3834
 6096SOL    HW119187   4.838   6.450   3.989  0.1654  0.2512 -1.3974
 6096SOL    HW219188   4.713   6.549   4.027  0.4373 -0.3749  1.3324
 6097SOL     OW19189   2.468   1.393   2.531  0.0168  0.4545 -0.4983
 6097SOL    HW119190   2.473   1.323   2.460  0.6222  0.6822 -0.6853
 6097SOL    HW219191   2.399   1.462   2.506  0.8849  1.0368 -1.3278
 6098SOL     OW19192   0.548   3.493   0.977  0.4296 -0.0935  0.2297
 6098SOL    HW119193   0.584   3.508   0.885 -1.2688  0.5302 -0.3666
 6098SOL    HW219194   0.602   3.545   1.043  0.9630  0.3611 -0.5513
 6099SOL     OW19195   6.215   3.558   1.059  0.5666 -0.4009  0.5635
 6099SOL    HW119196   6.129   3.528   1.102  1.0239 -0.5185  1.4218
 6099SOL    HW219197   6.255   3.482   1.008  0.7073 -0.6873  1.0818
 6100SOL     OW19198   2.705   5.382   5.345  0.3401  0.4152  0.6474
 6100SOL    HW119199   2.658   5.300   5.379  0.3853  0.6252  1.2248
 6100SOL    HW219200   2.772   5.412   5.413  1.4555  0.0090 -0.2366
 6101SOL     OW19201   0.864   3.573   3.652  1.0992  0.2999  0.1892
 6101SOL    HW119202   0.812   3.575   3.566 -1.5242  1.0060  1.6738
 6101SOL    HW219203   0.853   3.661   3.699  0.1076 -0.9555  2.4931
 6102SOL     OW19204   2.602   5.167   5.489 -0.6456  0.5464 -0.4152
 6102SOL    HW119205   2.525   5.113   5.524  0.2388 -1.3716 -1.2762
 6102SOL    HW219206   2.688   5.130   5.524  0.1887 -0.6737 -3.4315
 6103SOL     OW19207   0.622   2.568   2.819 -0.1773 -0.2923  0.0550
 6103SOL    HW119208   0.584   2.661   2.820  0.3825 -0.0578  0.9585
 6103SOL    HW219209   0.721   2.573   2.805 -0.2998 -0.8366 -1.1450
 6104SOL     OW19210   3.994   6.519   1.015 -0.5817 -0.7661  0.1353
 6104SOL    HW119211   4.093   6.511   1.028 -0.7515 -2.3935  0.6714
 6104SOL    HW219212   3.969   6.615   1.004  0.7586 -0.0742  2.4644
 6105SOL     OW19213   0.223   3.476   6.256 -0.1741  0.7489  0.2834
 6105SOL    HW119214   0.288   3.549   6.276 -0.0513  0.5953  0.4521
 6105SOL    HW219215   0.131   3.513   6.254 -0.2761  0.6470  1.8809
 6106SOL     OW19216   6.932   3.935   1.005 -0.3627  0.0904  0.3806
 6106SOL    HW119217   6.910   3.845   0.968  0.6551  0.4311 -1.1730
 6106SOL    HW219218   6.980   3.925   1.092 -0.7748 -0.8308  0.5168
 6107SOL     OW19219   2.530   6.946   3.542  0.0710 -0.2158  0.1415
 6107SOL    HW119220   2.538   6.974   3.446  1.4621 -0.6084  0.1095
 6107SOL    HW219221   2.483   6.858   3.547 -1.3556  0.5057 -0.0295
 6108SOL     OW19222   5.405   1.803   5.669 -0.0880 -0.6516 -0.0323
 6108SOL    HW119223   5.307   1.811   5.688 -0.0623 -1.4385  0.4530
 6108SOL    HW219224   5.430   1.707   5.658  0.9545 -0.6145  1.6541
 6109SOL     OW19225   3.623   6.406   1.001  0.4015  0.5279  0.0678
 6109SOL    HW119226   3.574   6.360   0.927  1.2266 -0.8338  0.3375
 6109SOL    HW219227   3.704   6.453   0.964 -1.1185  2.9624 -0.4126
 6110SOL     OW19228   1.960   7.009   3.404  0.3927 -0.3245 -0.1898
 6110SOL    HW119229   1.922   7.091   3.360  2.3484  1.1115  0.6173
 6110SOL    HW219230   2.003   6.951   3.335 -0.2272 -0.2258 -0.6673
 6111SOL     OW19231   3.843   6.944   4.287  0.2519 -0.2591  0.4312
 6111SOL    HW119232   3.911   6.979   4.353  1.4363 -1.8115  0.1108
 6111SOL    HW219233   3.794   6.868   4.329  2.1090 -2.3202 -0.8899
 6112SOL     OW19234   1.399   0.392   1.965 -0.1728  0.7679  0.3329
 6112SOL    HW119235   1.309   0.391   1.923 -0.0255 -1.7727 -0.0486
 6112SOL    HW219236   1.453   0.468   1.928 -0.6519 -0.2843 -2.7765
 6113SOL     OW19237   2.081   5.582   2.802  0.5712 -0.0992 -0.1961
 6113SOL    HW119238   2.174   5.548   2.820 -0.1926 -1.5893  1.2411
 6113SOL    HW219239   2.046   5.541   2.718  0.7458 -0.6112 -0.0280
 6114SOL     OW19240   5.766   5.519   4.887  0.1044  0.1525 -0.0574
 6114SOL    HW119241   5.812   5.559   4.966 -0.3905 -0.2078  0.4219
 6114SOL    HW219242   5.691   5.461   4.918  1.3724 -1.9306 -0.6619
 6115SOL     OW19243   4.995   5.599   1.642  0.3813  0.1304 -0.6767
 6115SOL    HW119244   5.094   5.598   1.630  0.4679 -1.5733 -0.0947
 6115SOL    HW219245   4.973   5.598   1.740 -0.1601 -1.2162 -0.7816
 6116SOL     OW19246   5.318   4.588   0.153  0.3316  0.2538 -0.5719
 6116SOL    HW119247   5.261   4.574   0.072 -0.8536  0.7966  0.1389
 6116SOL    HW219248   5.282   4.534   0.229 -0.3508  1.9784  0.3848
 6117SOL     OW19249   5.494   4.761   3.365  0.1706 -0.5854 -0.2334
 6117SOL    HW119250   5.446   4.844   3.334  0.1036 -0.7517 -0.5819
 6117SOL    HW219251   5.484   4.752   3.464  2.7829  1.5079  0.3500
 6118SOL     OW19252   2.311   1.158   0.033  0.2110 -0.0750  0.2882
 6118SOL    HW119253   2.261   1.185  -0.049 -1.1424 -0.5113  0.9379
 6118SOL    HW219254   2.403   1.131   0.008  0.4663  1.6647 -0.8299
 6119SOL     OW19255   0.651   2.043   2.657 -0.5949  0.1466 -0.1559
 6119SOL    HW119256   0.715   2.121   2.664 -0.5282  0.2901 -1.9348
 6119SOL    HW219257   0.577   2.067   2.595 -0.4194 -1.3000 -0.9594
 6120SOL     OW19258   0.020   4.833   2.791  0.4069 -0.0972 -0.6880
 6120SOL    HW119259   0.035   4.739   2.761 -0.8422 -0.4359 -0.3219
 6120SOL    HW219260  -0.005   4.890   2.713 -0.9006 -0.5472 -0.6264
 6121SOL     OW19261   3.483   3.664   6.891  0.3139  0.7538  0.0230
 6121SOL    HW119262   3.462   3.759   6.869 -2.0047  0.4742  0.7776
 6121SOL    HW219263   3.521   3.619   6.810 -1.8039  1.4509 -1.4507
 6122SOL     OW19264   1.816   2.663   5.290  0.5378  0.2837  0.1761
 6122SOL    HW119265   1.773   2.574   5.302  0.8234  0.1712  0.3937
 6122SOL    HW219266   1.914   2.655   5.311  0.8403  0.3388 -1.1353
 6123SOL     OW19267   4.266   6.743   5.145  0.5005  0.2311  0.1030
 6123SOL    HW119268   4.317   6.676   5.092  0.1985  0.3680 -0.3653
 6123SOL    HW219269   4.323   6.824   5.159  0.7941 -0.0401  0.5001
 6124SOL     OW19270   5.272   6.417   0.695 -0.1728 -0.5156 -0.4225
 6124SOL    HW119271   5.237   6.476   0.621 -2.7528 -0.9749  0.3316
 6124SOL    HW219272   5.210   6.340   0.708  1.2146 -1.4465  1.0412
 6125SOL     OW19273   4.996   5.054   3.263  0.2556 -0.1722 -0.2054
 6125SOL    HW119274   4.904   5.041   3.227 -0.0118  1.3919 -0.1608
 6125SOL    HW219275   5.062   5.011   3.201 -0.4818 -1.2897 -0.2463
 6126SOL     OW19276   5.949   0.592   6.760 -0.3557  0.1322 -0.3301
 6126SOL    HW119277   6.023   0.574   6.696  0.3228  1.7146 -0.0366
 6126SOL    HW219278   5.864   0.550   6.726  0.3169 -0.3575 -1.4621
 6127SOL     OW19279   1.514   5.865   1.646 -0.1588 -0.4529  0.1254
 6127SOL    HW119280   1.523   5.823   1.556  0.6703  0.7579 -0.3836
 6127SOL    HW219281   1.473   5.956   1.636 -3.2521 -1.5825  1.3225
 6128SOL     OW19282   2.548   0.289   2.743 -0.1191 -0.4072  0.6014
 6128SOL    HW119283   2.589   0.199   2.759  0.9593  0.2621  1.7751
 6128SOL    HW219284   2.476   0.305   2.810  0.3217 -0.0348  0.9945
 6129SOL     OW19285   1.953   2.623   3.479 -0.0576  0.2131 -0.0974
 6129SOL    HW119286   1.973   2.545   3.419  0.0859  1.5170 -1.8094
 6129SOL    HW219287   1.879   2.678   3.439 -0.1425  0.9953  1.0714
 6130SOL     OW19288   4.195   2.104   6.510  0.1183  0.5805  0.7027
 6130SOL    HW119289   4.284   2.137   6.543  0.9108  2.2912 -2.7336
 6130SOL    HW219290   4.127   2.178   6.519 -0.1311  0.4005  0.2998
 6131SOL     OW19291   0.173   6.495   2.057 -0.4486 -0.7206  0.7471
 6131SOL    HW119292   0.171   6.584   2.011  1.0133 -1.3806 -0.6560
 6131SOL    HW219293   0.176   6.509   2.156  1.4245  0.8532  0.5204
 6132SOL     OW19294   4.364   3.549   5.187 -0.2881 -0.5006 -0.1660
 6132SOL    HW119295   4.460   3.578   5.191 -0.4170  0.1170 -1.2492
 6132SOL    HW219296   4.308   3.626   5.158 -1.3717 -0.3400  2.1145
 6133SOL     OW19297   2.326   5.284   3.500  0.1087  0.4510 -0.7710
 6133SOL    HW119298   2.325   5.197   3.451  0.8044  0.1658 -0.2987
 6133SOL    HW219299   2.303   5.268   3.596  0.5725  0.7349 -0.6104
 6134SOL     OW19300   6.793   5.657   0.682 -0.3771 -0.0604 -0.3376
 6134SOL    HW119301   6.735   5.604   0.621  0.7459  0.2863 -1.7573
 6134SOL    HW219302   6.776   5.755   0.668 -0.0911  0.0220 -0.1283
 6135SOL     OW19303   6.080   5.495   1.741  0.4282 -0.4183  0.5443
 6135SOL    HW119304   6.163   5.493   1.798  0.4374  0.0444  0.5476
 6135SOL    HW219305   6.106   5.511   1.646  0.3465 -0.3765  0.5298
 6136SOL     OW19306   0.001   5.069   1.098  0.2577 -0.1539 -0.2113
 6136SOL    HW119307   0.005   5.131   1.020  1.5169  1.4172  1.0219
 6136SOL    HW219308  -0.083   5.087   1.151 -0.6429 -1.2833 -1.1951
 6137SOL     OW19309   6.100   1.292   6.706  0.1362 -0.3911  0.0609
 6137SOL    HW119310   6.153   1.265   6.625 -1.3693  0.2707 -1.2038
 6137SOL    HW219311   6.020   1.233   6.715  1.3803 -1.8739  2.3929
 6138SOL     OW19312   0.091   3.782   1.964 -0.1119  0.7147 -0.0413
 6138SOL    HW119313   0.160   3.819   1.903 -0.0263  0.0645 -0.3451
 6138SOL    HW219314   0.114   3.806   2.059 -0.6205  2.3338 -0.2849
 6139SOL     OW19315   6.094   1.192   5.442  0.2735  0.0801  0.2133
 6139SOL    HW119316   6.123   1.107   5.486  1.6848  1.5309  2.2477
 6139SOL    HW219317   6.157   1.215   5.368 -0.4393 -0.8736 -0.7318
 6140SOL     OW19318   1.651   6.689   1.634 -0.1269 -0.0809 -0.0184
 6140SOL    HW119319   1.706   6.705   1.552 -0.6399 -1.6332 -0.6963
 6140SOL    HW219320   1.654   6.592   1.658 -0.5177  0.2372  1.4288
 6141SOL     OW19321   0.716   0.708   2.480  0.0816 -0.4843  0.7228
 6141SOL    HW119322   0.672   0.745   2.562 -0.6798  0.1148  0.0599
 6141SOL    HW219323   0.704   0.608   2.478 -1.0141 -0.3640  0.6978
 6142SOL     OW19324   2.561   5.524   3.900 -0.1556  0.3006 -0.3639
 6142SOL    HW119325   2.529   5.606   3.852 -0.7237  0.8531  0.8879
 6142SOL    HW219326   2.537   5.532   3.997 -0.7347 -1.6306 -0.3234
 6143SOL     OW19327   2.778   6.741   5.917  0.1001 -0.1807  0.4203
 6143SOL    HW119328   2.719   6.818   5.940  0.2790 -0.2145  1.0145
 6143SOL    HW219329   2.870   6.775   5.894  0.4458 -0.2637  1.5984
 6144SOL     OW19330   5.110   1.470   5.521 -0.6577 -0.1352 -0.5854
 6144SOL    HW119331   5.035   1.534   5.538  0.8731  1.6501 -0.2236
 6144SOL    HW219332   5.186   1.519   5.477  1.6386 -0.9870  2.1006
 6145SOL     OW19333   2.326   2.097   6.477 -0.2604 -0.4101 -0.2591
 6145SOL    HW119334   2.415   2.130   6.446  1.0220 -1.7080  1.7707
 6145SOL    HW219335   2.312   2.003   6.444 -1.3786  0.1272 -1.4065
 6146SOL     OW19336   1.344   2.858   2.191 -0.1803  0.0359  0.5442
 6146SOL    HW119337   1.365   2.944   2.146 -0.6399  0.1281  0.5070
 6146SOL    HW219338   1.324   2.788   2.122  1.2800 -0.4014  0.5220
 6147SOL     OW19339   2.566   3.349   0.737  0.2717  0.8011  0.1605
 6147SOL    HW119340   2.659   3.320   0.759 -0.1637 -0.7339  0.0816
 6147SOL    HW219341   2.504   3.317   0.809 -0.1999  1.8714  0.2438
 6148SOL     OW19342   3.159   6.731   5.178 -0.3349  0.1126  0.2108
 6148SOL    HW119343   3.219   6.803   5.142  1.3029 -2.1686 -1.9746
 6148SOL    HW219344   3.090   6.772   5.238 -1.1367  3.8133 -2.8916
 6149SOL     OW19345   1.157   3.259   5.064  0.5619  0.2274  0.4392
 6149SOL    HW119346   1.126   3.325   4.995  3.9387  0.6565 -0.8582
 6149SOL    HW219347   1.161   3.168   5.022  0.3365  0.0388  0.8246
 6150SOL     OW19348   0.649   2.642   6.045 -0.4100 -0.1644 -0.4174
 6150SOL    HW119349   0.687   2.726   6.008 -2.2912  1.3192  0.8648
 6150SOL    HW219350   0.635   2.576   5.970  2.9411 -0.2110 -1.1638
 6151SOL     OW19351   0.098   3.914   1.271  0.1928 -0.4027 -0.6160
 6151SOL    HW119352   0.075   3.922   1.368 -1.3692 -0.0653 -0.9844
 6151SOL    HW219353   0.113   3.818   1.247  1.0165 -0.4476  0.0324
 6152SOL     OW19354   5.441   0.317   6.755  0.0424 -0.1429  0.4846
 6152SOL    HW119355   5.408   0.302   6.848  1.6282 -0.2792  1.0412
 6152SOL    HW219356   5.438   0.231   6.704 -0.6373 -0.1090  0.4592
 6153SOL     OW19357   0.891   3.207   4.448 -0.1734  0.3456  0.4681
 6153SOL    HW119358   0.881   3.173   4.354 -1.7814  2.1604 -0.0789
 6153SOL    HW219359   0.855   3.139   4.512  0.6092 -0.7596 -0.2163
 6154SOL     OW19360   3.189   6.434   3.913  0.2196 -0.0587 -0.3255
 6154SOL    HW119361   3.103   6.390   3.888 -0.5329  0.7110  0.8326
 6154SOL    HW219362   3.176   6.533   3.921  0.2312 -0.2139  3.3650
 6155SOL     OW19363   6.880   5.723   3.446  0.4687 -0.2323 -0.1155
 6155SOL    HW119364   6.871   5.673   3.359 -1.9474  0.0485 -0.0723
 6155SOL    HW219365   6.812   5.690   3.511  1.7695  0.0716  1.4642
 6156SOL     OW19366   6.640   5.223   0.900  0.7112  0.1743 -0.0837
 6156SOL    HW119367   6.631   5.125   0.886 -0.1629  0.2909 -0.3730
 6156SOL    HW219368   6.606   5.248   0.990 -1.1298  0.4883 -0.8250
 6157SOL     OW19369   4.378   4.787   2.633  0.5452 -0.2653  0.6950
 6157SOL    HW119370   4.437   4.851   2.585 -0.4858 -0.2241 -0.5643
 6157SOL    HW219371   4.339   4.721   2.569 -1.0857 -0.0443  1.3850
 6158SOL     OW19372   5.163   6.631   5.784 -0.2522  0.1642  0.6255
 6158SOL    HW119373   5.089   6.620   5.718  0.1573 -0.2610  0.2306
 6158SOL    HW219374   5.125   6.656   5.873 -0.7657  1.3340  0.0936
 6159SOL     OW19375   0.243   2.834   4.522 -0.2381  0.4684  0.4133
 6159SOL    HW119376   0.285   2.859   4.435 -0.7712  1.8587  0.5150
 6159SOL    HW219377   0.249   2.736   4.536  2.0582  0.5020 -0.0209
 6160SOL     OW19378   2.354   6.181   0.743 -0.4689  0.1699 -0.1252
 6160SOL    HW119379   2.355   6.277   0.717  0.7265  0.5608  1.1799
 6160SOL    HW219380   2.392   6.125   0.669 -3.1428  0.3811 -1.7662
 6161SOL     OW19381   0.495   3.821   1.517 -0.3870  0.3343 -0.1767
 6161SOL    HW119382   0.543   3.909   1.515  0.3708 -0.0780 -1.0817
 6161SOL    HW219383   0.500   3.779   1.427  0.0467 -1.0512  0.4666
 6162SOL     OW19384   6.604   0.640   4.158 -0.3340  0.1017 -0.5325
 6162SOL    HW119385   6.644   0.557   4.196 -1.2276 -0.8291 -1.5284
 6162SOL    HW219386   6.559   0.693   4.230 -1.9105 -1.5609 -0.2257
 6163SOL     OW19387   2.922   6.991   1.699 -0.4087  0.3841  0.4271
 6163SOL    HW119388   2.896   6.996   1.796  0.3587  2.5498  0.5766
 6163SOL    HW219389   2.942   6.896   1.675 -0.2892 -0.1677  2.4888
 6164SOL     OW19390   6.003   3.151   1.047 -0.0950  0.1942  0.5138
 6164SOL    HW119391   6.016   3.232   1.104  2.5335 -1.2511  2.1924
 6164SOL    HW219392   6.046   3.165   0.958  0.4777  0.6428  0.8506
 6165SOL     OW19393   6.418   1.718   3.894  0.3540 -0.2999 -0.0286
 6165SOL    HW119394   6.325   1.737   3.865  1.5602  3.1342 -2.2536
 6165SOL    HW219395   6.423   1.628   3.936 -3.8195 -0.7605 -0.2075
 6166SOL     OW19396   6.344   2.860   0.612  0.6368  0.2707  0.2289
 6166SOL    HW119397   6.380   2.770   0.639 -1.6918 -1.0649 -0.8223
 6166SOL    HW219398   6.244   2.859   0.619  0.6127  3.5286  2.2503
 6167SOL     OW19399   1.713   2.167   3.778  0.2490  0.5219 -0.1966
 6167SOL    HW119400   1.663   2.221   3.846 -1.3034  0.3503 -1.1346
 6167SOL    HW219401   1.809   2.194   3.777  0.6311 -0.4154  2.9525
 6168SOL     OW19402   5.484   5.502   5.349  0.0206 -0.4444 -0.6125
 6168SOL    HW119403   5.408   5.565   5.367  1.1930  1.0935 -0.7605
 6168SOL    HW219404   5.473   5.419   5.402 -0.5860  0.7142  1.1623
 6169SOL     OW19405   0.120   1.453   6.299 -0.3199 -0.2714 -0.4499
 6169SOL    HW119406   0.046   1.493   6.245 -1.1090 -1.7571 -0.5195
 6169SOL    HW219407   0.186   1.524   6.322 -2.8480  1.6452  1.5287
 6170SOL     OW19408   1.547   3.971   1.291 -0.1131 -0.5447  0.3556
 6170SOL    HW119409   1.575   4.047   1.232  0.0857 -0.3420  0.7093
 6170SOL    HW219410   1.499   3.902   1.236 -0.8012  0.0957  0.1421
 6171SOL     OW19411   4.993   6.214   5.368 -0.1245 -0.0559 -0.1982
 6171SOL    HW119412   5.023   6.209   5.273  0.4046  0.7637 -0.0848
 6171SOL    HW219413   5.046   6.150   5.423 -2.1697 -2.4638 -0.8421
 6172SOL     OW19414   0.204   6.506   6.389 -0.4323  0.1528 -0.0797
 6172SOL    HW119415   0.270   6.444   6.431 -1.1035 -0.6627 -0.1785
 6172SOL    HW219416   0.250   6.566   6.325 -0.0074 -1.6990 -1.6084
 6173SOL     OW19417   6.467   1.216   2.424 -0.3030 -0.1263  0.5992
 6173SOL    HW119418   6.536   1.281   2.456 -1.6208  1.5360  0.1959
 6173SOL    HW219419   6.513   1.142   2.374  1.1245  1.8785 -1.2668
 6174SOL     OW19420   4.834   4.157   6.862  0.0050 -0.1113  0.0506
 6174SOL    HW119421   4.758   4.221   6.854  2.2036  2.4995 -2.8115
 6174SOL    HW219422   4.839   4.100   6.780 -0.7386 -2.6967  1.6982
 6175SOL     OW19423   1.542   2.371   4.669  0.2124  0.7214 -0.3795
 6175SOL    HW119424   1.558   2.462   4.633 -0.4932  0.6186 -0.9706
 6175SOL    HW219425   1.554   2.303   4.597 -0.6916  0.4715 -0.3075
 6176SOL     OW19426   4.687   1.868   4.928 -0.1957 -0.0800  0.3918
 6176SOL    HW119427   4.603   1.818   4.951 -0.4989 -0.8346 -2.0626
 6176SOL    HW219428   4.678   1.963   4.957 -1.9176 -0.1563  0.2068
 6177SOL     OW19429   1.850   1.022   5.007 -0.2849  0.2203  0.5903
 6177SOL    HW119430   1.857   1.116   4.974 -0.1671  0.9297  2.5168
 6177SOL    HW219431   1.935   0.974   4.987  0.3290  1.0598  1.1052
 6178SOL     OW19432   0.289   5.407   1.262  0.1566  0.2297  0.2134
 6178SOL    HW119433   0.366   5.444   1.314  1.0376 -2.4603  1.0207
 6178SOL    HW219434   0.204   5.422   1.313  0.5838  0.4653  0.8633
 6179SOL     OW19435   0.807   1.861   1.326 -0.8692 -0.4781  0.3395
 6179SOL    HW119436   0.836   1.799   1.398 -0.8498  0.0273  0.7763
 6179SOL    HW219437   0.875   1.933   1.314 -1.2427 -0.1170  0.3558
 6180SOL     OW19438   0.462   1.471   1.908 -0.5736 -0.2933 -0.1954
 6180SOL    HW119439   0.555   1.509   1.900 -0.3982 -0.7906 -0.6143
 6180SOL    HW219440   0.395   1.543   1.892 -0.2472 -0.0868 -0.6630
 6181SOL     OW19441   3.360   5.471   4.235  0.2663  0.2211 -0.3821
 6181SOL    HW119442   3.303   5.389   4.236 -1.7806  1.5127 -1.5988
 6181SOL    HW219443   3.435   5.461   4.300 -1.1263 -1.7375  1.0422
 6182SOL     OW19444   0.881   5.072   1.832  0.5211 -0.7505 -0.0679
 6182SOL    HW119445   0.863   5.002   1.764  0.1156 -2.0267  1.2940
 6182SOL    HW219446   0.975   5.066   1.863  0.3878 -0.9263  0.3070
 6183SOL     OW19447   4.536   1.202   4.858  0.0388 -0.7537 -0.2476
 6183SOL    HW119448   4.512   1.163   4.947  0.3713  0.5606  0.4483
 6183SOL    HW219449   4.633   1.185   4.839  0.0266 -0.8244 -0.2458
 6184SOL     OW19450   3.747   1.212   4.817  0.1348  0.3186  0.2891
 6184SOL    HW119451   3.764   1.311   4.826 -0.1602  0.2710  1.5708
 6184SOL    HW219452   3.808   1.162   4.879 -0.5785 -0.2216  0.5649
 6185SOL     OW19453   3.062   2.372   6.539 -0.3936 -0.1802 -0.0046
 6185SOL    HW119454   2.981   2.413   6.497 -1.0659 -0.7621  0.6825
 6185SOL    HW219455   3.130   2.352   6.468 -1.5535 -1.2839 -0.8619
 6186SOL     OW19456   0.398   6.597   1.799  0.1602 -0.2008 -0.0308
 6186SOL    HW119457   0.456   6.675   1.774  0.2623 -1.0461 -2.8640
 6186SOL    HW219458   0.306   6.612   1.763 -0.2693 -0.6795  0.8510
 6187SOL     OW19459   6.983   3.176   6.056  0.6940 -0.2487 -0.4353
 6187SOL    HW119460   7.075   3.209   6.076 -0.0802  1.4361  0.6432
 6187SOL    HW219461   6.972   3.083   6.089  2.2843 -0.8344 -1.4666
 6188SOL     OW19462   6.380   6.576   5.273  0.0092  0.3478 -0.1217
 6188SOL    HW119463   6.394   6.561   5.371  1.3134  1.6789 -0.0709
 6188SOL    HW219464   6.467   6.569   5.225 -0.7815 -1.5232 -1.4151
 6189SOL     OW19465   1.822   3.625   4.991  0.1358 -0.3587  0.3573
 6189SOL    HW119466   1.898   3.633   4.926 -0.5248 -0.6947 -0.4846
 6189SOL    HW219467   1.856   3.590   5.078  1.1805  0.8725  0.4732
 6190SOL     OW19468   5.091   5.291   0.381 -0.1380 -0.1103  0.8521
 6190SOL    HW119469   5.090   5.228   0.459 -1.1556  0.8112  1.5976
 6190SOL    HW219470   5.121   5.381   0.411  1.0518 -0.1394 -0.1622
 6191SOL     OW19471   1.247   1.012   4.021  0.5430  0.0329  0.0644
 6191SOL    HW119472   1.228   0.942   4.090 -1.3106  1.6736  1.3049
 6191SOL    HW219473   1.222   1.102   4.057 -1.7259  0.8536 -3.1112
 6192SOL     OW19474   2.304   0.605   0.169  0.0461 -0.0441  0.1338
 6192SOL    HW119475   2.339   0.676   0.109  0.3884 -0.2055  0.1434
 6192SOL    HW219476   2.295   0.520   0.117  0.7285 -0.2887  0.4106
 6193SOL     OW19477   5.874   5.361   1.806  0.3238  0.3041  0.5546
 6193SOL    HW119478   5.834   5.324   1.722  0.9523 -0.5264  0.6013
 6193SOL    HW219479   5.967   5.392   1.788  0.7897 -0.7083  1.1177
 6194SOL     OW19480   5.930   4.947   6.283  0.2715 -0.0169 -0.6064
 6194SOL    HW119481   5.950   4.925   6.378  0.6463  0.7653 -0.4914
 6194SOL    HW219482   5.882   4.870   6.240 -0.6840 -0.0479  0.4523
 6195SOL     OW19483   1.428   4.598   4.694 -0.4857  0.1734 -0.1598
 6195SOL    HW119484   1.527   4.582   4.692 -0.4743  0.2991 -0.9403
 6195SOL    HW219485   1.385   4.532   4.755  0.3100  1.5131  1.9722
 6196SOL     OW19486   0.388   0.671   0.950 -0.1080 -0.1151 -0.0593
 6196SOL    HW119487   0.408   0.752   1.005  0.1310 -0.6664  0.6943
 6196SOL    HW219488   0.321   0.693   0.880 -3.9490 -0.2938  3.1891
 6197SOL     OW19489   3.225   6.484   4.187  0.4283  0.4032 -0.6794
 6197SOL    HW119490   3.283   6.564   4.197  0.2372  0.5260 -0.5529
 6197SOL    HW219491   3.223   6.456   4.091  0.6309  0.4448 -0.6974
 6198SOL     OW19492   3.197   2.168   3.035 -0.1885 -0.8004  0.1740
 6198SOL    HW119493   3.128   2.229   2.996  0.3567  0.0776  0.5289
 6198SOL    HW219494   3.182   2.159   3.133 -0.5150 -1.5799  0.0531
 6199SOL     OW19495   2.545   4.331   5.938 -0.5696 -0.7548  0.2755
 6199SOL    HW119496   2.487   4.364   6.012 -0.1960 -0.9549  0.6572
 6199SOL    HW219497   2.582   4.242   5.961 -0.9269 -1.0922 -0.4104
 6200SOL     OW19498   6.938   1.030   6.117 -0.2928  0.3203  0.3555
 6200SOL    HW119499   6.858   1.091   6.123 -0.1561  0.5052  0.3278
 6200SOL    HW219500   6.959   0.994   6.207 -0.8830 -0.3494  0.2315
 6201SOL     OW19501   3.690   4.297   0.422 -0.0578  0.0092  0.2402
 6201SOL    HW119502   3.752   4.306   0.500 -0.7942 -0.6352  0.9249
 6201SOL    HW219503   3.669   4.200   0.408 -0.4012  0.1712 -0.3841
 6202SOL     OW19504   4.694   0.149   6.433  0.1854  0.2605  0.6541
 6202SOL    HW119505   4.759   0.217   6.468  1.8776 -1.0475  0.2085
 6202SOL    HW219506   4.634   0.191   6.365  0.2405  1.6252  1.4227
 6203SOL     OW19507   3.393   3.272   4.302  0.0660  0.1797  0.2455
 6203SOL    HW119508   3.464   3.202   4.293 -0.9445 -0.9075  0.3871
 6203SOL    HW219509   3.336   3.271   4.219 -1.0423 -0.4273  0.9936
 6204SOL     OW19510   1.440   6.411   6.856 -0.2269  0.0062 -0.0917
 6204SOL    HW119511   1.536   6.398   6.830 -0.3854 -0.7878 -0.3280
 6204SOL    HW219512   1.383   6.395   6.775 -0.6109 -0.5238  0.2809
 6205SOL     OW19513   2.891   1.314   0.870  0.4565  0.1608  0.4054
 6205SOL    HW119514   2.941   1.399   0.862 -0.9573  0.8960 -1.4342
 6205SOL    HW219515   2.819   1.310   0.800 -1.1808 -1.4180  2.0316
 6206SOL     OW19516   3.247   1.731   6.009  0.3871  0.1176  0.1544
 6206SOL    HW119517   3.170   1.775   5.963  0.3575  0.0521  0.1416
 6206SOL    HW219518   3.315   1.703   5.942  0.5792  0.4808  0.1946
 6207SOL     OW19519   1.909   2.011   1.659 -0.5405 -0.1796 -0.4888
 6207SOL    HW119520   1.914   1.911   1.653 -0.8991 -0.2445  0.1818
 6207SOL    HW219521   1.814   2.038   1.675 -0.1196  0.0866  1.9688
 6208SOL     OW19522   0.636   3.832   5.585 -0.0584 -0.9065 -0.5060
 6208SOL    HW119523   0.570   3.906   5.574  1.4955  1.0395  2.0267
 6208SOL    HW219524   0.590   3.744   5.575 -2.6758  0.3570 -0.3610
 6209SOL     OW19525   3.862   6.588   3.150  0.7646  0.3685  0.3011
 6209SOL    HW119526   3.915   6.522   3.203  3.0414 -1.0406 -3.3274
 6209SOL    HW219527   3.818   6.541   3.073 -0.2434  2.6235 -0.5909
 6210SOL     OW19528   3.582   2.367   6.075 -0.4069 -0.3910 -0.0029
 6210SOL    HW119529   3.650   2.297   6.052 -1.0745 -0.4738 -1.8580
 6210SOL    HW219530   3.495   2.345   6.031 -0.8404  1.2164  0.0021
 6211SOL     OW19531   4.847   5.369   2.968  0.5441  0.1322  0.0843
 6211SOL    HW119532   4.919   5.438   2.962  0.0614  0.5687 -0.8551
 6211SOL    HW219533   4.837   5.340   3.063  1.6450  0.3947  0.2930
 6212SOL     OW19534   0.555   1.681   0.242 -0.0589 -0.1493  0.2806
 6212SOL    HW119535   0.539   1.657   0.338  3.1717  2.2044  1.6079
 6212SOL    HW219536   0.474   1.727   0.206 -1.0561 -0.3048  2.1645
 6213SOL     OW19537   5.154   5.818   1.315 -0.0988 -0.5158 -0.3708
 6213SOL    HW119538   5.134   5.721   1.303 -0.7870 -0.3245 -0.8466
 6213SOL    HW219539   5.148   5.864   1.227 -2.1439  0.3701  0.1741
 6214SOL     OW19540   5.227   0.885   2.491  0.0574 -0.1340  0.1438
 6214SOL    HW119541   5.289   0.857   2.418 -0.4666  0.8149 -0.6892
 6214SOL    HW219542   5.240   0.982   2.511 -0.5674 -0.1244  0.5406
 6215SOL     OW19543   5.812   1.898   0.573 -0.0999 -0.2519  0.1671
 6215SOL    HW119544   5.841   1.893   0.478  0.5215 -1.0510  0.3895
 6215SOL    HW219545   5.773   1.989   0.592  0.2637  0.0911 -0.7028
 6216SOL     OW19546   0.164   2.520   4.088 -0.8134 -0.0635  0.1643
 6216SOL    HW119547   0.101   2.538   4.165 -0.3094 -3.5222  1.5367
 6216SOL    HW219548   0.131   2.443   4.035  3.4543 -4.2617  2.7921
 6217SOL     OW19549   3.857   3.804   5.282 -0.9183  0.0752  0.3769
 6217SOL    HW119550   3.807   3.718   5.265  0.6872 -0.5119 -1.9960
 6217SOL    HW219551   3.907   3.797   5.368  1.0616 -2.4293 -0.8376
 6218SOL     OW19552   4.341   0.651   2.055 -0.1656  0.3430  0.6503
 6218SOL    HW119553   4.297   0.705   1.983  0.6510  0.2766  0.0823
 6218SOL    HW219554   4.353   0.707   2.137 -0.4334  0.6440  0.4860
 6219SOL     OW19555   5.361   4.445   4.542  0.5313  0.0563 -0.1570
 6219SOL    HW119556   5.358   4.373   4.473  0.9433 -0.0856 -0.0301
 6219SOL    HW219557   5.345   4.406   4.632  0.6969  0.1328 -0.0944
 6220SOL     OW19558   4.712   6.642   3.753 -0.0999  0.0994  0.0639
 6220SOL    HW119559   4.703   6.571   3.823  1.2834 -0.8307 -0.6519
 6220SOL    HW219560   4.654   6.720   3.777 -0.8779 -0.8491  1.3981
 6221SOL     OW19561   6.728   5.148   0.024 -0.4237 -0.8237 -0.1316
 6221SOL    HW119562   6.698   5.063   0.067 -1.9811 -0.8397 -1.1812
 6221SOL    HW219563   6.688   5.155  -0.067  0.5451  0.5388 -0.4791
 6222SOL     OW19564   4.571   2.629   0.178  0.2056 -0.6019  0.3386
 6222SOL    HW119565   4.498   2.573   0.138  0.5954 -1.0435  0.2471
 6222SOL    HW219566   4.655   2.616   0.126  0.4909 -0.5102  0.7751
 6223SOL     OW19567   6.015   5.417   5.778 -0.1877 -0.6771  0.3144
 6223SOL    HW119568   6.029   5.455   5.870 -0.5176 -0.3456  0.2306
 6223SOL    HW219569   5.918   5.400   5.763 -0.1490 -0.6301 -0.0118
 6224SOL     OW19570   5.105   6.056   2.170  0.3399 -0.2901 -0.3952
 6224SOL    HW119571   5.030   6.042   2.235  0.1731 -0.4479 -0.6166
 6224SOL    HW219572   5.177   5.989   2.187 -0.8300 -2.0521 -1.9947
 6225SOL     OW19573   2.058   5.851   2.743  0.1760 -0.5059 -0.0516
 6225SOL    HW119574   2.069   5.760   2.782 -0.2108 -1.6323 -2.3634
 6225SOL    HW219575   2.073   5.846   2.644 -0.6525  1.7994 -0.3469
 6226SOL     OW19576   0.468   4.062   3.868 -0.7635 -0.7499  0.1727
 6226SOL    HW119577   0.387   4.022   3.911 -1.3743 -0.5812 -0.7716
 6226SOL    HW219578   0.471   4.160   3.887 -0.3272 -0.8925  0.8781
 6227SOL     OW19579   5.282   2.437   1.085  0.0599 -0.2720  0.4250
 6227SOL    HW119580   5.261   2.396   0.996  1.5483 -0.8936  0.3203
 6227SOL    HW219581   5.198   2.447   1.138 -1.0900  1.3710 -1.5438
 6228SOL     OW19582   1.695   4.944   0.761 -0.4457 -0.3703 -0.8166
 6228SOL    HW119583   1.681   4.908   0.853 -1.1802 -0.0379 -0.7962
 6228SOL    HW219584   1.750   5.027   0.766  2.2617 -2.0158 -0.9495
 6229SOL     OW19585   1.260   1.310   3.196  0.0046  0.0939  0.4568
 6229SOL    HW119586   1.325   1.301   3.272 -0.7285  0.5135  1.1502
 6229SOL    HW219587   1.224   1.220   3.171 -0.0922  0.0010  0.9205
 6230SOL     OW19588   4.969   0.679   4.511 -0.8893  0.7838  0.5865
 6230SOL    HW119589   4.873   0.706   4.523 -1.3495  0.2921 -1.4856
 6230SOL    HW219590   4.977   0.623   4.428  1.2389  1.0106  0.5868
 6231SOL     OW19591   6.881   1.559   1.326 -0.0478 -0.5754 -0.0050
 6231SOL    HW119592   6.817   1.587   1.397 -0.9460 -2.3551 -0.0620
 6231SOL    HW219593   6.975   1.570   1.360 -0.4541 -1.0571  1.3396
 6232SOL     OW19594   2.899   0.734   1.656  0.6651  0.0949 -0.8329
 6232SOL    HW119595   2.841   0.690   1.724  2.1212 -0.1065  0.3389
 6232SOL    HW219596   2.849   0.745   1.570 -0.3050 -2.3115 -0.6410
 6233SOL     OW19597   2.567   0.918   6.064  0.2738  0.1241 -0.3827
 6233SOL    HW119598   2.664   0.901   6.082  0.4240  0.9832 -0.3397
 6233SOL    HW219599   2.552   0.921   5.965  0.0930 -1.0306 -0.4067
 6234SOL     OW19600   4.437   1.977   1.673  0.0058 -0.0892 -0.1071
 6234SOL    HW119601   4.427   2.060   1.728  0.5896  0.7971 -1.2856
 6234SOL    HW219602   4.454   1.899   1.733  4.9106  1.4510  0.9140
 6235SOL     OW19603   3.716   6.246   2.836  0.4139 -0.1993  0.0457
 6235SOL    HW119604   3.777   6.250   2.915  0.4551 -0.3750  0.0218
 6235SOL    HW219605   3.765   6.276   2.754 -0.0068  1.3005  0.3151
 6236SOL     OW19606   1.722   4.086   1.776  0.2827  0.2490 -0.1829
 6236SOL    HW119607   1.786   4.074   1.852 -1.0815 -0.1065  0.9606
 6236SOL    HW219608   1.672   4.001   1.760 -0.0821  0.5839 -0.8874
 6237SOL     OW19609   0.130   4.199   0.101 -0.2038  0.1262 -0.1770
 6237SOL    HW119610   0.070   4.205   0.181  0.5021  2.4628  0.2616
 6237SOL    HW219611   0.106   4.272   0.037  0.5292 -0.4948 -1.1729
 6238SOL     OW19612   5.907   6.538   5.938 -0.5948  0.4934 -0.1263
 6238SOL    HW119613   5.920   6.633   5.965 -0.7362  0.3990  0.2738
 6238SOL    HW219614   5.810   6.521   5.921 -0.7901  0.0092  1.3717
 6239SOL     OW19615   6.625   4.269   6.751  0.2460  0.3905  0.7434
 6239SOL    HW119616   6.570   4.212   6.812 -0.4727 -0.2509 -0.4853
 6239SOL    HW219617   6.635   4.360   6.792 -0.5713  0.1060  1.6150
 6240SOL     OW19618   1.022   0.381   2.712  0.2549  0.4611 -0.0696
 6240SOL    HW119619   0.929   0.416   2.701  0.1026 -0.0864 -0.5417
 6240SOL    HW219620   1.087   0.449   2.676 -0.1025 -0.2370 -2.1816
 6241SOL     OW19621   3.977   5.613   2.272  0.3263  0.3555 -0.0506
 6241SOL    HW119622   3.966   5.659   2.360 -1.5855 -0.3587  0.1267
 6241SOL    HW219623   3.927   5.663   2.202 -0.6247 -0.6718 -0.1260
 6242SOL     OW19624   3.705   4.337   6.733 -0.0495 -0.0784 -0.1647
 6242SOL    HW119625   3.768   4.266   6.700 -1.3102 -1.0078 -0.6345
 6242SOL    HW219626   3.724   4.423   6.685  1.1443 -0.2155  0.0253
 6243SOL     OW19627   2.125   0.690   3.356  0.4426 -0.3247 -0.1743
 6243SOL    HW119628   2.131   0.645   3.445 -1.4811  0.1882  0.2573
 6243SOL    HW219629   2.029   0.698   3.329  0.8887  1.1458 -1.4612
 6244SOL     OW19630   4.788   5.120   5.092  0.0890  0.3061 -0.0650
 6244SOL    HW119631   4.741   5.208   5.085  0.9186  0.7559 -0.2051
 6244SOL    HW219632   4.736   5.051   5.043 -0.6710  0.6776  0.1996
 6245SOL     OW19633   0.482   4.628   3.011 -0.1969  0.5671 -0.2615
 6245SOL    HW119634   0.441   4.674   3.090 -1.9510 -1.5275  0.1195
 6245SOL    HW219635   0.580   4.647   3.009 -0.2222  1.1790  2.0707
 6246SOL     OW19636   5.257   0.926   0.145 -0.5316 -0.1718  1.0790
 6246SOL    HW119637   5.194   0.998   0.173 -2.3335 -0.9176 -0.7704
 6246SOL    HW219638   5.229   0.839   0.184 -0.9611 -0.5839 -0.0888
 6247SOL     OW19639   3.662   6.288   1.383 -0.3544  0.5123 -0.0863
 6247SOL    HW119640   3.683   6.218   1.451 -1.7104  0.3862  0.2355
 6247SOL    HW219641   3.572   6.327   1.403 -0.7545  0.5184 -1.7670
 6248SOL     OW19642   5.111   6.939   5.775 -0.0704  0.1054 -0.2275
 6248SOL    HW119643   5.030   6.968   5.827 -0.1387  0.5707 -0.5892
 6248SOL    HW219644   5.090   6.855   5.725 -0.5473  0.5832 -0.8489
 6249SOL     OW19645   2.275   3.960   1.637  0.2865  0.2125 -0.0838
 6249SOL    HW119646   2.190   3.956   1.585  0.0769 -2.0490  0.3194
 6249SOL    HW219647   2.276   3.885   1.704  1.2568  2.0298  2.0640
 6250SOL     OW19648   5.170   1.005   4.526  0.2353  0.4039  0.8195
 6250SOL    HW119649   5.188   0.977   4.432  0.4256  3.0751  0.0029
 6250SOL    HW219650   5.213   0.939   4.588  0.3776 -1.2402 -0.9225
 6251SOL     OW19651   4.411   2.076   5.992 -0.2867 -0.2117  0.0734
 6251SOL    HW119652   4.359   2.073   6.077 -1.8351  1.0711 -0.7615
 6251SOL    HW219653   4.506   2.099   6.011 -0.8386  1.1247  1.4078
 6252SOL     OW19654   5.249   4.887   1.566  0.1670 -0.0169  0.1335
 6252SOL    HW119655   5.228   4.822   1.493 -0.2979 -1.0442  1.1570
 6252SOL    HW219656   5.224   4.980   1.536  1.0841 -0.2418 -1.4426
 6253SOL     OW19657   0.429   5.002   2.899 -0.0600  0.1075 -0.2516
 6253SOL    HW119658   0.342   5.041   2.868 -1.4598 -3.0989 -0.8846
 6253SOL    HW219659   0.445   5.028   2.994 -0.7299  2.2849 -0.6960
 6254SOL     OW19660   6.747   3.293   6.146 -0.0208  0.3904 -0.2524
 6254SOL    HW119661   6.770   3.284   6.243  0.9264  1.1747 -0.3829
 6254SOL    HW219662   6.831   3.293   6.091 -0.6064 -1.5915 -1.2414
 6255SOL     OW19663   4.567   6.406   0.122 -0.3296  0.4299 -1.1098
 6255SOL    HW119664   4.642   6.403   0.188 -0.7894  0.8557 -0.5612
 6255SOL    HW219665   4.582   6.337   0.051 -1.2439 -2.0432  0.9561
 6256SOL     OW19666   0.108   4.925   5.035 -0.0398  0.2034 -0.2906
 6256SOL    HW119667   0.104   4.919   4.936 -0.1699 -1.0463 -0.2281
 6256SOL    HW219668   0.189   4.876   5.068 -1.1238 -1.2174  0.3367
 6257SOL     OW19669   0.609   5.445   1.622 -0.9941  0.2847  0.3077
 6257SOL    HW119670   0.679   5.383   1.657 -1.4301 -0.5069 -0.1852
 6257SOL    HW219671   0.646   5.538   1.618 -0.3410  0.0715  1.0885
 6258SOL     OW19672   2.446   6.080   2.374  0.0425 -0.1028  0.8728
 6258SOL    HW119673   2.392   6.006   2.335 -0.0079  0.1470  0.4689
 6258SOL    HW219674   2.544   6.061   2.361  0.0417 -0.3113  1.1612
 6259SOL     OW19675   1.693   6.224   3.982  0.4982 -0.0474  0.2479
 6259SOL    HW119676   1.674   6.126   3.992  0.7356 -0.2278 -0.8455
 6259SOL    HW219677   1.663   6.253   3.891  0.5198  0.8794  0.5349
 6260SOL     OW19678   6.415   2.031   2.266 -0.2964  0.8089  0.2927
 6260SOL    HW119679   6.453   2.026   2.358 -1.5960  2.8990  1.0245
 6260SOL    HW219680   6.325   1.988   2.265 -0.7517  1.7287  0.3153
 6261SOL     OW19681   1.505   3.523   1.602  0.5606  0.0155 -0.3835
 6261SOL    HW119682   1.508   3.479   1.513 -0.5088 -1.0436  0.0843
 6261SOL    HW219683   1.597   3.556   1.626  0.9078  0.0649 -1.7371
 6262SOL     OW19684   1.716   2.774   3.403  0.1665  0.0761 -0.1840
 6262SOL    HW119685   1.687   2.837   3.331 -1.4387  0.1890  0.4968
 6262SOL    HW219686   1.722   2.824   3.490  1.5208 -0.1701 -0.1238
 6263SOL     OW19687   3.157   5.615   0.484  0.3651  0.2869 -0.0560
 6263SOL    HW119688   3.193   5.593   0.394 -0.5981  0.3976 -0.4749
 6263SOL    HW219689   3.231   5.653   0.541  1.0819 -0.2195 -0.6324
 6264SOL     OW19690   2.878   5.001   6.101 -0.6605  0.2692 -0.4033
 6264SOL    HW119691   2.857   5.055   6.021 -1.7828 -1.2107 -1.1701
 6264SOL    HW219692   2.797   4.948   6.127  0.6282 -1.7538 -0.3013
 6265SOL     OW19693   2.191   2.692   1.664  0.4616  0.0007  0.2839
 6265SOL    HW119694   2.281   2.700   1.707 -0.0518 -2.2118  1.9133
 6265SOL    HW219695   2.197   2.627   1.588  0.2498 -0.1378  0.3857
 6266SOL     OW19696   6.673   0.679   5.230  0.2724  0.2877  0.2365
 6266SOL    HW119697   6.593   0.619   5.223  0.7008 -0.2894  0.1721
 6266SOL    HW219698   6.756   0.623   5.231  0.6498  0.8450  0.9084
 6267SOL     OW19699   6.024   2.709   0.769  0.5089 -0.2128  0.3476
 6267SOL    HW119700   6.042   2.782   0.703  1.7617  0.2292  1.1518
 6267SOL    HW219701   5.933   2.671   0.752  0.1599  0.9840 -0.5993
 6268SOL     OW19702   5.569   2.259   2.328  0.3645 -0.2386 -0.1344
 6268SOL    HW119703   5.512   2.244   2.248 -0.3406 -0.7372  0.4430
 6268SOL    HW219704   5.656   2.299   2.300 -0.1577  0.2885 -1.0583
 6269SOL     OW19705   4.253   2.334   2.216 -0.4047 -0.0574 -0.8903
 6269SOL    HW119706   4.216   2.416   2.173  0.7195  0.3165 -1.2020
 6269SOL    HW219707   4.352   2.331   2.200 -0.1054 -0.4263  0.8284
 6270SOL     OW19708   7.006   6.853   1.200 -0.2878 -1.0227 -0.2545
 6270SOL    HW119709   6.913   6.850   1.164  0.2483 -0.8071 -1.7099
 6270SOL    HW219710   7.065   6.902   1.137  0.0655  2.4613  2.4724
 6271SOL     OW19711   6.963   4.848   5.260  0.0757 -0.0606 -0.2706
 6271SOL    HW119712   7.016   4.876   5.180  1.9261 -1.6213  0.3354
 6271SOL    HW219713   6.931   4.754   5.247 -2.7274  0.8485 -0.6460
 6272SOL     OW19714   2.761   0.838   2.999 -0.2975  0.1423 -0.3360
 6272SOL    HW119715   2.685   0.856   3.062 -0.3871 -1.6608  0.1378
 6272SOL    HW219716   2.839   0.802   3.050  1.0439  2.2717 -0.7733
 6273SOL     OW19717   1.408   4.104   6.512  0.4499 -0.0213 -0.0760
 6273SOL    HW119718   1.502   4.097   6.546  0.8428  2.0332 -0.6131
 6273SOL    HW219719   1.387   4.024   6.455  2.3526  0.1428 -1.0685
 6274SOL     OW19720   5.118   6.107   2.998  0.7907 -0.0218 -0.5047
 6274SOL    HW119721   5.109   6.137   3.093 -0.4120  3.0466 -1.4593
 6274SOL    HW219722   5.185   6.165   2.952  0.1309 -0.3811 -1.9404
 6275SOL     OW19723   3.206   2.068   1.145  0.0584  0.1409 -0.2412
 6275SOL    HW119724   3.112   2.098   1.131  0.2272  1.3328  0.9659
 6275SOL    HW219725   3.208   1.968   1.151 -0.8989  0.0006 -1.6891
 6276SOL     OW19726   0.843   1.070   5.620 -0.3129  0.5110  0.2124
 6276SOL    HW119727   0.856   1.149   5.679 -0.3971  0.6854  0.0007
 6276SOL    HW219728   0.864   1.095   5.525  0.5082  0.0482  0.2598
 6277SOL     OW19729   1.272   4.660   5.238 -0.0906  0.0003 -0.1314
 6277SOL    HW119730   1.228   4.651   5.327  1.5115  1.1073  0.8252
 6277SOL    HW219731   1.362   4.617   5.241  0.1402  0.3891 -1.0922
 6278SOL     OW19732   5.432   0.288   6.187  0.0021 -0.5936  0.2730
 6278SOL    HW119733   5.343   0.329   6.165 -0.5078 -2.1470 -0.6714
 6278SOL    HW219734   5.492   0.358   6.225 -1.5142  0.5628  0.6460
 6279SOL     OW19735   1.309   4.220   4.753 -0.0957  0.4063 -0.0899
 6279SOL    HW119736   1.379   4.169   4.704  2.2273  1.6239  1.7723
 6279SOL    HW219737   1.252   4.157   4.806 -0.4722 -0.5932 -1.6116
 6280SOL     OW19738   5.792   4.427   0.445 -0.5438  0.4139 -0.2319
 6280SOL    HW119739   5.708   4.478   0.426 -1.3382 -0.9669 -0.5689
 6280SOL    HW219740   5.800   4.352   0.379  0.3911 -0.1305  0.4897
 6281SOL     OW19741   0.163   1.513   5.147  0.4070  0.5576  0.2741
 6281SOL    HW119742   0.113   1.427   5.157  1.4647 -0.1324 -0.1432
 6281SOL    HW219743   0.150   1.569   5.229  0.2095 -0.2840  0.8290
 6282SOL     OW19744   0.713   5.743   2.010  0.4746 -0.3854 -0.0686
 6282SOL    HW119745   0.791   5.749   1.948  1.5619 -0.2963  1.2456
 6282SOL    HW219746   0.746   5.743   2.105 -0.8930 -3.1298  0.5381
 6283SOL     OW19747   6.901   2.289   0.532 -0.2181  0.0189 -0.5185
 6283SOL    HW119748   6.934   2.210   0.479 -0.1921  1.0135 -2.0348
 6283SOL    HW219749   6.878   2.363   0.470  0.9852  1.6922  0.9541
 6284SOL     OW19750   3.608   2.608   5.360 -0.3732  0.7373 -0.1452
 6284SOL    HW119751   3.684   2.669   5.380 -0.0939 -0.0685  1.3231
 6284SOL    HW219752   3.552   2.596   5.442 -0.8417 -0.4046 -0.6155
 6285SOL     OW19753   1.898   0.536   2.194 -0.5052  0.6421  0.7799
 6285SOL    HW119754   1.895   0.636   2.192  1.9085  0.7720 -0.5138
 6285SOL    HW219755   1.890   0.500   2.101 -0.5355 -0.3141  1.1385
 6286SOL     OW19756   2.958   3.359   6.174 -0.2566 -0.3293  0.1661
 6286SOL    HW119757   2.886   3.292   6.153 -0.0071 -0.1507 -1.3050
 6286SOL    HW219758   2.957   3.432   6.106  1.8927 -0.7905 -0.4089
 6287SOL     OW19759   1.010   0.290   4.367 -0.6059 -0.2051  0.2222
 6287SOL    HW119760   1.091   0.234   4.352  0.2399  1.4971 -1.9801
 6287SOL    HW219761   0.935   0.231   4.399  0.3961 -2.4902 -1.3723
 6288SOL     OW19762   5.965   3.457   6.240 -0.5397 -0.0647 -0.2104
 6288SOL    HW119763   5.962   3.540   6.295  1.6217  1.6117 -2.3577
 6288SOL    HW219764   5.873   3.419   6.230 -1.2671  0.7488  2.6621
 6289SOL     OW19765   2.241   4.536   2.706  0.5030  0.2626  0.3194
 6289SOL    HW119766   2.325   4.488   2.732  1.0211  1.4038  0.8097
 6289SOL    HW219767   2.222   4.609   2.771 -0.5074  0.4517 -0.1645
 6290SOL     OW19768   4.123   1.126   6.565  0.8302  0.1789 -0.2984
 6290SOL    HW119769   4.208   1.135   6.617  1.1583 -2.0390 -0.3745
 6290SOL    HW219770   4.129   1.183   6.483  1.5182  1.3994  0.5640
 6291SOL     OW19771   3.101   4.045   4.787 -0.6577 -0.5308 -0.3913
 6291SOL    HW119772   3.021   4.037   4.847 -1.3121 -1.2942 -1.3323
 6291SOL    HW219773   3.079   4.103   4.709 -0.2075 -0.5316 -0.5203
 6292SOL     OW19774   0.206   1.239   4.444  0.7041 -0.0707  0.6928
 6292SOL    HW119775   0.227   1.325   4.397 -0.9871 -0.3336 -0.6449
 6292SOL    HW219776   0.280   1.217   4.508  1.4802  2.0174  0.5793
 6293SOL     OW19777   5.852   6.719   4.496  0.4266  0.1315  0.3341
 6293SOL    HW119778   5.944   6.716   4.458  0.9292 -0.8826  1.5838
 6293SOL    HW219779   5.842   6.800   4.555  0.0400  1.0100 -0.8786
 6294SOL     OW19780   6.159   1.242   2.039  0.3888 -0.3444  0.1045
 6294SOL    HW119781   6.254   1.224   2.013  0.7981  2.2255 -0.4802
 6294SOL    HW219782   6.101   1.236   1.958  0.1765 -1.1167  0.3100
 6295SOL     OW19783   5.171   6.128   5.125  0.2697  0.5042 -0.2006
 6295SOL    HW119784   5.145   6.032   5.114 -1.9762  0.8631  1.2180
 6295SOL    HW219785   5.101   6.186   5.084  1.8522  1.5832 -1.4988
 6296SOL     OW19786   4.518   6.096   3.254 -0.3192  0.0560  0.0968
 6296SOL    HW119787   4.566   6.048   3.180 -2.2456 -0.6411 -0.7684
 6296SOL    HW219788   4.482   6.183   3.219  1.5764  1.3490  1.1658
 6297SOL     OW19789   6.456   3.125   1.076  0.2413  0.0637 -0.0648
 6297SOL    HW119790   6.412   3.201   1.123  0.0755  0.4376 -0.8101
 6297SOL    HW219791   6.400   3.097   0.998 -0.4240 -1.7540  0.9984
 6298SOL     OW19792   5.630   1.478   0.692  0.2886 -0.4945 -0.0568
 6298SOL    HW119793   5.617   1.476   0.791 -0.4403 -0.8226 -0.1527
 6298SOL    HW219794   5.707   1.538   0.669 -0.7449  1.1133  0.5795
 6299SOL     OW19795   5.052   2.179   2.970 -0.2510 -0.1160  0.5141
 6299SOL    HW119796   5.078   2.276   2.980  0.0025 -0.0829 -0.3782
 6299SOL    HW219797   5.126   2.130   2.925 -0.1290 -0.8668  1.5060
 6300SOL     OW19798   0.996   2.096   5.622 -0.2026  0.0199 -0.3489
 6300SOL    HW119799   0.981   2.058   5.713 -2.9499 -1.8574 -1.4862
 6300SOL    HW219800   0.971   2.193   5.622  4.0804  1.3896  1.8443
 6301SOL     OW19801   0.153   0.183   6.747  0.4474 -0.0372 -0.1588
 6301SOL    HW119802   0.178   0.249   6.676 -0.1202  0.3100 -0.0432
 6301SOL    HW219803   0.063   0.144   6.726  0.1281  0.3124  0.5416
 6302SOL     OW19804   4.720   0.126   3.984 -0.4736 -0.2236  0.4305
 6302SOL    HW119805   4.627   0.094   4.003 -0.3969  0.1581  1.5425
 6302SOL    HW219806   4.786   0.060   4.019 -0.3320  0.2445  1.0877
 6303SOL     OW19807   5.232   1.897   3.835  0.0076  1.0059 -0.2176
 6303SOL    HW119808   5.262   1.805   3.809  0.2526  1.2125 -0.6744
 6303SOL    HW219809   5.159   1.927   3.773  0.1967  1.2724 -0.3118
 6304SOL     OW19810   3.688   0.284   4.942 -0.6157 -0.4596  0.3990
 6304SOL    HW119811   3.646   0.360   4.893  0.7655  1.1618  1.6194
 6304SOL    HW219812   3.779   0.265   4.904 -0.2664 -0.3688  1.1598
 6305SOL     OW19813   3.254   0.246   5.158  0.5279  0.0045  0.5729
 6305SOL    HW119814   3.197   0.269   5.079  0.6856 -2.1098 -0.2306
 6305SOL    HW219815   3.206   0.179   5.215  1.0461  0.3792  1.4764
 6306SOL     OW19816   3.128   0.668   0.003 -0.2830 -0.2579  0.6403
 6306SOL    HW119817   3.103   0.715  -0.082 -0.0741  0.1855  0.8215
 6306SOL    HW219818   3.128   0.569  -0.012  2.0993 -0.1412 -0.5365
 6307SOL     OW19819   0.415   3.532   4.943 -0.3247  0.3091  0.1378
 6307SOL    HW119820   0.387   3.437   4.935  0.8881 -0.0870  0.3583
 6307SOL    HW219821   0.336   3.589   4.966 -1.5377 -0.2827 -2.3065
 6308SOL     OW19822   4.301   5.429   6.772 -0.0097 -0.1893  0.0940
 6308SOL    HW119823   4.239   5.485   6.717  0.3346  2.4391  2.1934
 6308SOL    HW219824   4.394   5.462   6.762  0.5019 -1.6175 -0.0446
 6309SOL     OW19825   4.340   6.406   5.878  0.5740 -0.2943  0.2229
 6309SOL    HW119826   4.302   6.397   5.970  0.9968 -0.4174  0.3914
 6309SOL    HW219827   4.267   6.401   5.810  0.1309  0.8217  0.5948
 6310SOL     OW19828   2.001   1.800   2.545  0.4506 -0.3992  0.5908
 6310SOL    HW119829   2.078   1.852   2.509 -0.7190 -1.0259 -3.2457
 6310SOL    HW219830   1.920   1.859   2.552  0.0055 -0.8630 -0.4221
 6311SOL     OW19831   5.786   1.120   5.753 -0.0976  0.4018  0.0890
 6311SOL    HW119832   5.827   1.035   5.721 -1.5800 -1.1039  1.9235
 6311SOL    HW219833   5.856   1.178   5.794  1.4704  1.4555 -3.6138
 6312SOL     OW19834   4.143   4.448   5.832 -0.5736 -0.5703 -0.0497
 6312SOL    HW119835   4.132   4.546   5.846 -0.4020 -0.3822 -1.1803
 6312SOL    HW219836   4.233   4.430   5.792 -0.6790 -1.1701 -0.0248
 6313SOL     OW19837   4.116   2.723   1.384  0.0858 -0.0534 -0.1943
 6313SOL    HW119838   4.124   2.821   1.368  1.0153 -0.0941  0.0130
 6313SOL    HW219839   4.104   2.706   1.482 -0.9382 -0.1038 -0.3138
 6314SOL     OW19840   1.820   5.201   2.462 -0.2406  0.3607 -0.4252
 6314SOL    HW119841   1.865   5.172   2.547 -0.4922  1.3401  0.0561
 6314SOL    HW219842   1.738   5.253   2.484 -0.4325  0.4337 -1.2806
 6315SOL     OW19843   0.586   4.365   2.917  0.7098  0.3286  0.3258
 6315SOL    HW119844   0.528   4.442   2.944 -0.4210 -0.2493 -0.3868
 6315SOL    HW219845   0.681   4.396   2.914  0.3276  1.6047  0.3896
 6316SOL     OW19846   4.559   4.282   5.219 -0.0640 -0.0796  0.4413
 6316SOL    HW119847   4.523   4.201   5.266  0.0981 -0.9909 -0.9430
 6316SOL    HW219848   4.657   4.291   5.239  0.0207 -0.5035  0.2363
 6317SOL     OW19849   3.831   0.024   3.351 -0.0051 -0.1616 -0.3135
 6317SOL    HW119850   3.732   0.035   3.365 -0.2841 -1.8407 -0.7449
 6317SOL    HW219851   3.848  -0.054   3.291  1.6288 -0.6991  0.7629
 6318SOL     OW19852   6.410   5.461   3.932 -0.1858 -0.4050  0.1805
 6318SOL    HW119853   6.371   5.456   3.840  0.6180  2.1506 -0.3707
 6318SOL    HW219854   6.504   5.496   3.926  1.0174 -3.0401  1.7581
 6319SOL     OW19855   2.465   6.078   5.666  0.4377 -0.0465 -0.0020
 6319SOL    HW119856   2.398   6.113   5.731 -0.1585  0.4637 -0.8768
 6319SOL    HW219857   2.469   6.138   5.586 -1.3933 -2.4383 -2.0513
 6320SOL     OW19858   5.231   4.134   6.141  0.2467  0.0375 -0.4175
 6320SOL    HW119859   5.182   4.047   6.130  0.5321 -0.1771 -0.0250
 6320SOL    HW219860   5.326   4.115   6.168 -0.1415  0.5113  1.3547
 6321SOL     OW19861   5.896   4.141   4.655 -0.5712  0.0926  0.0453
 6321SOL    HW119862   5.991   4.167   4.671 -1.0400  1.6117  0.5761
 6321SOL    HW219863   5.844   4.222   4.627 -1.7532 -0.6702 -0.0506
 6322SOL     OW19864   2.110   3.909   6.923 -0.3360 -0.1746 -0.1270
 6322SOL    HW119865   2.092   3.975   6.997 -0.5973 -0.7133  0.2997
 6322SOL    HW219866   2.044   3.835   6.928  1.2554 -1.6157  0.7698
 6323SOL     OW19867   5.466   1.643   3.004 -0.1779 -0.2146 -0.1430
 6323SOL    HW119868   5.557   1.651   2.962 -0.2754  1.5042 -0.1078
 6323SOL    HW219869   5.435   1.733   3.033 -1.8910 -0.7790 -0.1042
 6324SOL     OW19870   6.181   4.599   1.822  0.0230 -0.2966 -0.2568
 6324SOL    HW119871   6.112   4.611   1.751  0.3840  0.9035 -0.4245
 6324SOL    HW219872   6.220   4.688   1.847 -2.5676 -0.0309  3.9515
 6325SOL     OW19873   6.046   4.797   6.561  0.1214  0.5799 -0.0216
 6325SOL    HW119874   5.996   4.854   6.626  0.7969 -0.2106  1.2182
 6325SOL    HW219875   6.126   4.848   6.528 -0.0420  0.8641  0.0191
 6326SOL     OW19876   5.818   6.619   1.614 -0.3291  0.2139 -0.2491
 6326SOL    HW119877   5.779   6.579   1.697  0.3224 -0.6103 -0.3269
 6326SOL    HW219878   5.856   6.709   1.635 -1.4014  0.6124  0.0318
 6327SOL     OW19879   4.047   2.449   0.247 -0.1990  0.1904  0.3055
 6327SOL    HW119880   4.099   2.400   0.317  0.1007 -0.3179 -0.2635
 6327SOL    HW219881   4.020   2.539   0.282 -2.7746 -1.2078  2.2749
 6328SOL     OW19882   0.413   0.783   6.874 -0.7364 -0.2524  0.4488
 6328SOL    HW119883   0.341   0.721   6.904  0.7926 -1.3317  2.0857
 6328SOL    HW219884   0.438   0.844   6.948  1.2411 -1.1278  0.5833
 6329SOL     OW19885   4.745   6.629   6.048 -0.2171  0.4935 -0.2020
 6329SOL    HW119886   4.689   6.622   6.130 -0.0789 -2.2510 -0.2234
 6329SOL    HW219887   4.703   6.576   5.974  1.0707  0.5379 -1.0002
 6330SOL     OW19888   1.711   0.364   4.295  0.0946 -0.2377 -0.4470
 6330SOL    HW119889   1.808   0.383   4.282  0.1846  0.7093  1.3084
 6330SOL    HW219890   1.682   0.293   4.230  1.8260 -0.2142 -1.3099
 6331SOL     OW19891   4.384   0.508   5.868 -0.5075  0.4489  0.4926
 6331SOL    HW119892   4.399   0.566   5.948  0.6147 -0.1757  0.7540
 6331SOL    HW219893   4.303   0.452   5.881 -0.5480  0.6299  1.0208
 6332SOL     OW19894   6.648   1.429   2.498  0.2190  0.6395 -0.2207
 6332SOL    HW119895   6.682   1.450   2.590 -1.4158  4.0718 -0.2358
 6332SOL    HW219896   6.723   1.438   2.432  1.1155 -0.5704  0.5968
 6333SOL     OW19897   4.550   3.448   0.828 -0.1174  0.0395  0.4408
 6333SOL    HW119898   4.632   3.398   0.800  0.3377  0.3576  1.1658
 6333SOL    HW219899   4.564   3.546   0.813 -0.5299  0.0607  0.1744
 6334SOL     OW19900   5.436   6.986   0.566  0.2036 -0.5466  0.2369
 6334SOL    HW119901   5.368   6.946   0.627 -0.3134 -0.4988 -0.2999
 6334SOL    HW219902   5.401   6.985   0.473  1.1996 -1.0813 -0.1381
 6335SOL     OW19903   6.954   5.724   4.578  0.0310 -0.8104  0.7586
 6335SOL    HW119904   6.930   5.785   4.502 -0.3613  0.1228  1.6125
 6335SOL    HW219905   6.870   5.692   4.622  0.2685 -0.1901  1.6911
 6336SOL     OW19906   6.344   2.990   0.347  0.0455 -0.0806 -0.5314
 6336SOL    HW119907   6.260   3.014   0.300 -0.2509 -1.3593 -0.7138
 6336SOL    HW219908   6.329   2.988   0.446  0.3673  1.4952 -0.4339
 6337SOL     OW19909   2.778   4.841   0.918 -0.0825  0.3812  0.2622
 6337SOL    HW119910   2.778   4.838   0.818  0.4097  0.7621  0.2470
 6337SOL    HW219911   2.789   4.936   0.949  0.9980  0.1420  0.6686
 6338SOL     OW19912   2.020   4.883   6.920 -0.1131 -0.5389  0.3014
 6338SOL    HW119913   2.072   4.876   6.835  0.0207  1.6804  0.1556
 6338SOL    HW219914   2.072   4.934   6.988 -2.3258  2.6090 -0.1513
 6339SOL     OW19915   6.694   4.000   5.463 -0.1637  0.7703  0.0643
 6339SOL    HW119916   6.646   4.035   5.543 -0.3065  1.0659 -0.1486
 6339SOL    HW219917   6.702   3.901   5.470  1.4679  0.9586  1.3469
 6340SOL     OW19918   6.498   0.625   0.662  0.3501  0.1889 -0.1004
 6340SOL    HW119919   6.560   0.701   0.646 -0.3908  0.7427 -0.3860
 6340SOL    HW219920   6.415   0.637   0.607 -1.1508  0.8035  2.2050
 6341SOL     OW19921   1.368   3.773   1.196  0.1998  0.2092 -0.0551
 6341SOL    HW119922   1.368   3.678   1.228  0.7141  0.2026 -0.0681
 6341SOL    HW219923   1.277   3.797   1.163 -0.9968  0.8941  3.4015
 6342SOL     OW19924   2.310   1.313   3.028 -0.5256 -0.0127  0.0738
 6342SOL    HW119925   2.369   1.295   3.107 -1.1156  0.3696  0.6096
 6342SOL    HW219926   2.278   1.227   2.989  0.8335 -0.2615 -0.5890
 6343SOL     OW19927   2.125   4.974   3.950 -0.1285 -0.5310 -0.1044
 6343SOL    HW119928   2.027   4.954   3.957 -0.3262 -0.1659 -1.5921
 6343SOL    HW219929   2.173   4.894   3.915  0.0763 -0.6128  0.3507
 6344SOL     OW19930   2.908   6.975   1.109 -0.0418 -0.5001 -0.0268
 6344SOL    HW119931   3.006   6.984   1.124 -0.0516 -0.3880 -0.0304
 6344SOL    HW219932   2.879   7.035   1.035 -0.2459  0.0783  0.5103
 6345SOL     OW19933   4.944   1.712   2.153  0.2574  0.0708 -0.1764
 6345SOL    HW119934   4.936   1.623   2.108  0.9578  1.3199 -2.9552
 6345SOL    HW219935   4.870   1.772   2.124  1.1595  1.1635 -0.3141
 6346SOL     OW19936   5.408   4.674   5.904 -0.0277  0.2748  0.3810
 6346SOL    HW119937   5.336   4.740   5.928 -1.5069 -1.5321  1.1381
 6346SOL    HW219938   5.399   4.649   5.807 -0.0110  0.5310  0.3126
 6347SOL     OW19939   4.080   5.469   3.764  0.5316 -0.4163 -0.0318
 6347SOL    HW119940   4.081   5.369   3.752  1.1504 -0.0863 -4.3372
 6347SOL    HW219941   4.170   5.499   3.797  0.0257 -1.2431  2.3324
 6348SOL     OW19942   6.565   1.243   2.029 -0.0564  0.0537 -0.9571
 6348SOL    HW119943   6.492   1.204   1.972 -0.8447  0.3992 -0.1961
 6348SOL    HW219944   6.586   1.179   2.103 -3.1490  1.9622  1.8680
 6349SOL     OW19945   1.917   0.745   1.567 -0.1886  0.1539  0.3594
 6349SOL    HW119946   1.917   0.819   1.634  1.3536  1.0272 -0.5601
 6349SOL    HW219947   1.970   0.772   1.487 -0.8198 -1.4022 -0.6323
 6350SOL     OW19948   6.863   5.817   4.340  0.2303 -0.0961 -0.4376
 6350SOL    HW119949   6.819   5.727   4.332  0.8469 -0.3284 -1.4141
 6350SOL    HW219950   6.851   5.867   4.254  2.0234 -0.2498 -0.8188
 6351SOL     OW19951   6.108   5.927   1.715  0.2857 -0.3086  0.1214
 6351SOL    HW119952   6.055   5.890   1.791 -0.4409 -0.3979 -0.4194
 6351SOL    HW219953   6.205   5.906   1.728  0.2779  0.3433  1.4090
 6352SOL     OW19954   0.127   2.978   1.018 -0.4101 -0.3852 -0.4858
 6352SOL    HW119955   0.030   2.963   0.997 -0.9424  0.5710  1.1341
 6352SOL    HW219956   0.183   2.925   0.954 -2.0053 -1.5928 -0.9629
 6353SOL     OW19957   3.811   5.976   2.774  0.0996  0.4688  0.1946
 6353SOL    HW119958   3.781   6.039   2.846  0.2119  1.1872 -0.3694
 6353SOL    HW219959   3.894   6.011   2.731 -0.0941  0.1768 -0.4394
 6354SOL     OW19960   3.262   5.324   4.518  0.2647 -0.0302 -0.0209
 6354SOL    HW119961   3.330   5.253   4.498  0.9154  0.6225 -0.1508
 6354SOL    HW219962   3.172   5.293   4.489  0.8279 -0.0359 -1.8795
 6355SOL     OW19963   2.085   6.588   0.767 -0.3959  0.3694 -0.0712
 6355SOL    HW119964   2.063   6.554   0.675 -0.2188 -0.0468  0.0373
 6355SOL    HW219965   2.183   6.610   0.771 -0.4980  0.8264 -0.1201
 6356SOL     OW19966   5.255   6.840   6.979  0.4236 -0.1600  0.3004
 6356SOL    HW119967   5.347   6.851   6.941  0.8501 -3.0697  0.2223
 6356SOL    HW219968   5.187   6.866   6.912  1.2015 -2.3538 -1.4643
 6357SOL     OW19969   2.319   3.266   5.873  0.7205 -1.0961 -0.4863
 6357SOL    HW119970   2.279   3.270   5.781  2.6682 -1.3144 -1.3977
 6357SOL    HW219971   2.413   3.302   5.870  0.6811 -0.7057  1.5175
 6358SOL     OW19972   6.868   3.485   1.168  0.0978  0.3283 -0.0364
 6358SOL    HW119973   6.818   3.570   1.187 -0.8397 -0.1799 -0.1750
 6358SOL    HW219974   6.825   3.438   1.090 -0.0419 -0.7868  0.6949
 6359SOL     OW19975   0.819   2.254   3.997  0.2021 -0.2529  0.2610
 6359SOL    HW119976   0.911   2.281   4.024  0.6411 -1.5787  0.1771
 6359SOL    HW219977   0.783   2.320   3.931  1.0810  0.2934  0.3095
 6360SOL     OW19978   6.524   1.530   0.015  0.1281  0.0853 -0.0659
 6360SOL    HW119979   6.568   1.614   0.046 -1.2179  0.3353  1.2958
 6360SOL    HW219980   6.594   1.462  -0.009  1.2367  1.5870 -1.2837
 6361SOL     OW19981   6.206   5.104   2.329  0.7397  0.4043  0.1844
 6361SOL    HW119982   6.306   5.098   2.331  0.7338  0.3168  0.2231
 6361SOL    HW219983   6.171   5.098   2.422  0.7924  2.0668  0.3430
 6362SOL     OW19984   1.160   0.472   3.887  0.3592  0.4605  0.4417
 6362SOL    HW119985   1.205   0.469   3.976 -2.3198 -0.1847  1.8944
 6362SOL    HW219986   1.082   0.410   3.888 -0.9299  1.9324 -1.6869
 6363SOL     OW19987   2.558   1.837   4.145 -0.0909  0.0225  0.2824
 6363SOL    HW119988   2.602   1.895   4.213  0.0468 -0.2499  0.4267
 6363SOL    HW219989   2.582   1.869   4.053 -0.2861  0.3953  0.3617
 6364SOL     OW19990   0.060   3.233   4.614  0.7398 -0.4613 -0.3630
 6364SOL    HW119991   0.029   3.328   4.616  1.7754 -0.0706 -1.6129
 6364SOL    HW219992   0.054   3.195   4.706  0.6048  0.9207  0.2326
 6365SOL     OW19993   5.396   3.849   5.082 -0.2030 -0.3091  0.9911
 6365SOL    HW119994   5.334   3.770   5.081  0.7623 -1.1821 -2.3902
 6365SOL    HW219995   5.482   3.823   5.126 -1.0585 -0.0343  2.9153
 6366SOL     OW19996   1.366   6.707   6.312  0.2431 -0.0275  0.1278
 6366SOL    HW119997   1.314   6.651   6.376 -1.0533 -0.0296 -0.8928
 6366SOL    HW219998   1.309   6.782   6.278  1.4347  0.9574  0.2190
 6367SOL     OW19999   0.166   3.524   5.806 -0.5913 -0.0137  0.1259
 6367SOL    HW120000   0.138   3.620   5.815 -1.1666 -0.2178  0.5894
 6367SOL    HW220001   0.181   3.502   5.710  0.5086  0.8066  0.0952
 6368SOL     OW20002   0.748   0.639   0.539  0.1410  0.4061 -0.1852
 6368SOL    HW120003   0.793   0.687   0.464  1.2900  1.0056  0.8387
 6368SOL    HW220004   0.649   0.643   0.527  0.2343  2.1810 -0.6608
 6369SOL     OW20005   5.359   3.802   2.802 -0.3588  0.0023 -0.1917
 6369SOL    HW120006   5.351   3.763   2.894  0.9429 -0.3948 -0.2318
 6369SOL    HW220007   5.349   3.901   2.808  3.3511  0.4645  0.9940
 6370SOL     OW20008   5.463   3.534   4.157 -0.2709 -0.3948 -0.0791
 6370SOL    HW120009   5.544   3.484   4.185  2.1643  1.8255 -2.5556
 6370SOL    HW220010   5.452   3.616   4.214 -0.9518 -0.8083  0.4010
 6371SOL     OW20011   4.834   0.683   1.383  0.1435  0.4954  0.5666
 6371SOL    HW120012   4.870   0.659   1.293 -3.8646 -1.2649 -0.8196
 6371SOL    HW220013   4.839   0.782   1.397  2.9719  0.5759 -0.4608
 6372SOL     OW20014   1.940   1.657   5.148  0.8233  0.7061 -0.1322
 6372SOL    HW120015   2.017   1.713   5.116  0.8231  0.9629  0.3071
 6372SOL    HW220016   1.856   1.688   5.103  0.7247  1.4576  0.5358
 6373SOL     OW20017   1.162   3.025   3.649  0.2627  0.9093  0.0844
 6373SOL    HW120018   1.236   3.060   3.706  2.1572 -1.1149 -0.9473
 6373SOL    HW220019   1.123   2.943   3.692 -0.3725  1.1286 -0.0725
 6374SOL     OW20020   4.560   4.662   1.570 -0.6242  0.2542 -0.3258
 6374SOL    HW120021   4.489   4.606   1.613  0.3244 -1.0413 -0.3814
 6374SOL    HW220022   4.522   4.751   1.545 -1.5732  0.5544  1.9403
 6375SOL     OW20023   1.354   0.564   3.398  0.3588 -0.4709 -0.1955
 6375SOL    HW120024   1.329   0.633   3.329 -0.3040 -0.1248  0.3732
 6375SOL    HW220025   1.451   0.544   3.391  0.3498 -0.2531 -1.0663
 6376SOL     OW20026   0.450   5.286   1.091  0.1687  0.1073  0.2977
 6376SOL    HW120027   0.372   5.341   1.122  0.6602  0.2274  1.3879
 6376SOL    HW220028   0.495   5.244   1.170  1.6422  0.6165 -0.2274
 6377SOL     OW20029   0.730   5.233   5.884  0.1350  0.5446  0.4725
 6377SOL    HW120030   0.722   5.331   5.901 -1.3497  0.4026  0.7854
 6377SOL    HW220031   0.715   5.183   5.969  0.5305  0.0440  0.2477
 6378SOL     OW20032   2.979   0.023   6.920  0.1734  0.4979  0.0780
 6378SOL    HW120033   3.077   0.007   6.912  0.1278 -0.2022  0.7500
 6378SOL    HW220034   2.935   0.012   6.831  1.0330  3.4604 -0.8114
 6379SOL     OW20035   1.398   2.825   4.133 -0.2120 -0.6628 -0.1659
 6379SOL    HW120036   1.433   2.808   4.040  3.0605 -1.1165  1.0136
 6379SOL    HW220037   1.420   2.919   4.160 -0.9015 -0.6182  0.2551
 6380SOL     OW20038   5.404   2.331   5.798 -0.1345 -0.1128 -0.3048
 6380SOL    HW120039   5.395   2.430   5.813  1.0428  0.0231 -0.4450
 6380SOL    HW220040   5.470   2.294   5.863 -0.3286 -0.7617 -0.4781
 6381SOL     OW20041   0.842   3.318   1.878 -0.1755  0.0146 -0.0747
 6381SOL    HW120042   0.891   3.366   1.952 -0.1614  0.3907 -0.3220
 6381SOL    HW220043   0.822   3.225   1.906 -0.0357  0.1090  0.3484
 6382SOL     OW20044   2.911   1.048   5.489 -0.5143 -0.2502  0.4111
 6382SOL    HW120045   2.813   1.051   5.507 -0.6011 -1.7357  0.2968
 6382SOL    HW220046   2.944   1.141   5.472 -1.5389  0.5000  2.1995
 6383SOL     OW20047   2.607   2.175   0.807 -0.0109 -0.7830 -0.1340
 6383SOL    HW120048   2.671   2.131   0.743 -1.7818 -3.3543 -0.2877
 6383SOL    HW220049   2.623   2.139   0.899 -0.3685 -0.4264  0.0696
 6384SOL     OW20050   2.293   6.719   2.177 -0.4537 -0.1073 -0.5532
 6384SOL    HW120051   2.208   6.692   2.222  0.4292 -2.9845 -0.4422
 6384SOL    HW220052   2.294   6.819   2.166 -2.7273  0.2687  1.6418
 6385SOL     OW20053   6.708   4.945   5.352 -0.0924 -0.6303  0.1238
 6385SOL    HW120054   6.800   4.916   5.324 -0.4638 -1.5125 -0.2214
 6385SOL    HW220055   6.651   4.957   5.270 -0.4734 -0.7427  0.3714
 6386SOL     OW20056   3.725   4.638   6.696  0.2296 -0.1345  0.5333
 6386SOL    HW120057   3.730   4.717   6.757  0.0798  0.0560  0.3021
 6386SOL    HW220058   3.629   4.614   6.682 -0.0255  1.9591 -2.3386
 6387SOL     OW20059   5.633   3.395   4.317  0.1268  0.4330  0.2238
 6387SOL    HW120060   5.598   3.427   4.405 -0.5388 -0.0384  0.1331
 6387SOL    HW220061   5.714   3.337   4.333 -2.6655 -3.6874  1.0056
 6388SOL     OW20062   5.317   5.594   2.806  0.2598 -0.3538  0.5130
 6388SOL    HW120063   5.376   5.595   2.726 -0.2027 -0.5757  0.1622
 6388SOL    HW220064   5.372   5.610   2.888  1.1444 -2.4482  0.3974
 6389SOL     OW20065   6.099   0.214   3.552  0.6441 -0.1820  0.2922
 6389SOL    HW120066   6.020   0.217   3.492  2.4655 -0.0092 -2.2763
 6389SOL    HW220067   6.097   0.292   3.615 -2.2376 -1.3556  1.8469
 6390SOL     OW20068   5.238   1.712   0.262 -0.0924  0.0447 -0.1630
 6390SOL    HW120069   5.322   1.747   0.222 -0.4200 -0.2017 -1.0905
 6390SOL    HW220070   5.257   1.628   0.314  0.2842  0.1887 -0.0684
 6391SOL     OW20071   4.115   3.687   2.655 -0.0640  0.0270  0.1819
 6391SOL    HW120072   4.063   3.756   2.705  0.7996  1.2485 -0.5394
 6391SOL    HW220073   4.087   3.686   2.559 -0.2105 -0.7800  0.2257
 6392SOL     OW20074   1.522   0.382   1.296 -0.3062  0.6015  0.5458
 6392SOL    HW120075   1.453   0.375   1.368  0.1225  1.8637  1.1030
 6392SOL    HW220076   1.485   0.430   1.217 -0.0077  1.4792  0.9333
 6393SOL     OW20077   3.081   0.142   5.643 -0.4735 -0.6382 -0.0462
 6393SOL    HW120078   3.034   0.154   5.555  1.3220  0.4969 -0.9158
 6393SOL    HW220079   3.161   0.202   5.646 -0.3028 -0.9162  2.2511
 6394SOL     OW20080   4.948   1.929   6.605  0.5120 -0.1820  0.4241
 6394SOL    HW120081   5.041   1.910   6.636  0.9444 -0.3219 -0.8810
 6394SOL    HW220082   4.910   1.848   6.561  0.7113  0.5672 -1.2194
 6395SOL     OW20083   6.206   4.540   6.845 -0.2182 -0.0602 -0.0206
 6395SOL    HW120084   6.260   4.593   6.778 -1.0851  0.5550 -0.2428
 6395SOL    HW220085   6.230   4.443   6.836 -0.8795 -0.1089 -1.7969
 6396SOL     OW20086   3.445   5.487   2.495  0.4011  0.5417  0.1909
 6396SOL    HW120087   3.469   5.426   2.420 -1.0861  0.4055 -0.2146
 6396SOL    HW220088   3.348   5.510   2.489  0.8798  2.8572  0.3911
 6397SOL     OW20089   1.238   1.467   5.015  0.0902  0.0118 -0.0392
 6397SOL    HW120090   1.155   1.411   5.007 -0.7818  1.0473  1.3526
 6397SOL    HW220091   1.318   1.407   5.018 -0.7817 -1.1531  0.8892
 6398SOL     OW20092   6.012   0.215   2.455 -0.1562 -0.0284  0.2109
 6398SOL    HW120093   5.937   0.214   2.521  0.6772  0.5059  1.1946
 6398SOL    HW220094   5.978   0.246   2.367 -0.8038  1.7527  1.0304
 6399SOL     OW20095   6.590   2.898   3.174 -0.8514 -0.0435  0.2423
 6399SOL    HW120096   6.659   2.877   3.105 -0.6029  1.2108  0.0990
 6399SOL    HW220097   6.622   2.867   3.264 -1.7867 -3.0288 -0.3316
 6400SOL     OW20098   0.781   5.705   0.439  0.4013  0.0442 -0.0263
 6400SOL    HW120099   0.805   5.704   0.536  0.3975 -0.8228 -0.0207
 6400SOL    HW220100   0.861   5.730   0.385  0.3086  0.8867  0.2168
 6401SOL     OW20101   6.436   1.931   0.041 -0.1925  0.2374  0.3555
 6401SOL    HW120102   6.517   1.889  -0.001  0.0112 -0.3351  1.2980
 6401SOL    HW220103   6.359   1.927  -0.022  0.5347  0.8744 -0.5967
 6402SOL     OW20104   1.670   4.258   2.060  0.1211  0.7398 -0.2356
 6402SOL    HW120105   1.680   4.314   2.142  0.8348  0.6510 -0.2577
 6402SOL    HW220106   1.694   4.312   1.979  0.3211  0.5553 -0.3008
 6403SOL     OW20107   1.348   0.142   2.720  0.1285  0.2085 -0.3922
 6403SOL    HW120108   1.379   0.223   2.769 -1.4680  0.7498 -0.2220
 6403SOL    HW220109   1.353   0.159   2.621  0.0534  0.4089 -0.3619
 6404SOL     OW20110   0.848   3.466   0.831 -0.4826 -0.6238 -0.9909
 6404SOL    HW120111   0.891   3.376   0.833  0.4147 -0.2006  1.1982
 6404SOL    HW220112   0.902   3.530   0.885 -2.3912  0.6416 -0.4917
 6405SOL     OW20113   1.771   4.355   3.005  0.1344 -0.4398 -0.7952
 6405SOL    HW120114   1.672   4.360   3.000  0.0467 -1.1400  0.0351
 6405SOL    HW220115   1.811   4.440   2.970 -0.7342 -0.2863 -1.4341
 6406SOL     OW20116   4.010   5.179   4.462  0.2238 -0.1674 -0.5654
 6406SOL    HW120117   4.033   5.184   4.364 -1.7642 -1.7755 -1.1908
 6406SOL    HW220118   4.038   5.090   4.498 -2.3926 -1.1201 -0.6957
 6407SOL     OW20119   4.481   1.026   4.491 -0.0266  0.0869 -0.9770
 6407SOL    HW120120   4.415   1.066   4.554 -0.9953 -3.0218  0.2048
 6407SOL    HW220121   4.567   1.010   4.540 -0.6631 -1.9977 -0.4224
 6408SOL     OW20122   6.766   6.781   0.232 -0.0956  0.0801 -0.4994
 6408SOL    HW120123   6.853   6.787   0.182 -0.0830  0.0253 -0.4841
 6408SOL    HW220124   6.777   6.722   0.312 -0.6371 -1.4987 -1.5393
 6409SOL     OW20125   5.284   0.679   2.660 -0.1070 -0.1646 -0.0215
 6409SOL    HW120126   5.252   0.769   2.631  0.0631  0.0044  0.3105
 6409SOL    HW220127   5.370   0.689   2.710 -0.2197 -0.4865  0.2373
 6410SOL     OW20128   4.562   5.043   1.372  0.2960  0.4861 -0.0102
 6410SOL    HW120129   4.642   4.984   1.365  0.6389  0.9755 -0.2873
 6410SOL    HW220130   4.494   5.000   1.431  0.8312  0.1446  0.3648
 6411SOL     OW20131   5.413   0.182   0.305  0.3707 -0.8514  0.4550
 6411SOL    HW120132   5.362   0.205   0.222 -2.2078 -0.6800  2.0049
 6411SOL    HW220133   5.456   0.092   0.294  0.5855 -0.5681 -1.2647
 6412SOL     OW20134   6.781   3.165   2.688 -0.0929  0.5301 -0.0794
 6412SOL    HW120135   6.792   3.066   2.677  0.0808  0.4751  0.5655
 6412SOL    HW220136   6.857   3.211   2.641 -1.0121  0.4364 -1.7331
 6413SOL     OW20137   3.783   6.901   0.642 -0.1820  0.4051  0.4240
 6413SOL    HW120138   3.872   6.946   0.645  0.1496 -0.0695 -1.2849
 6413SOL    HW220139   3.718   6.958   0.591 -0.6256  0.3650  0.9356
 6414SOL     OW20140   4.148   1.835   4.271  0.4139 -0.1689  0.2441
 6414SOL    HW120141   4.107   1.917   4.310  1.5099 -0.0140  1.1176
 6414SOL    HW220142   4.172   1.852   4.175 -0.4448  0.1279  0.0757
 6415SOL     OW20143   2.222   4.129   2.288  0.3665 -0.1224  0.2332
 6415SOL    HW120144   2.266   4.186   2.357  1.8655 -0.2752 -0.5303
 6415SOL    HW220145   2.265   4.146   2.199 -0.9723 -0.5100 -0.5115
 6416SOL     OW20146   3.304   0.701   4.478  0.4186  0.3079  0.3115
 6416SOL    HW120147   3.301   0.782   4.421  0.5930 -0.3340 -0.6371
 6416SOL    HW220148   3.225   0.643   4.458  2.1085 -1.4780 -1.6911
 6417SOL     OW20149   6.302   5.062   0.785  0.0768  0.4543 -0.2974
 6417SOL    HW120150   6.298   5.159   0.810  1.7524  0.4988 -0.1043
 6417SOL    HW220151   6.349   5.051   0.698 -1.1023 -0.1214 -0.8859
 6418SOL     OW20152   3.402   1.980   5.966 -0.1947 -0.1882  0.7932
 6418SOL    HW120153   3.391   1.976   5.866  0.8108 -0.8974  0.6904
 6418SOL    HW220154   3.328   1.930   6.010  0.0351 -0.9462  0.3382
 6419SOL     OW20155   0.726   0.391   1.690 -0.3851  0.2409  0.0554
 6419SOL    HW120156   0.663   0.435   1.626  0.4620  0.9957 -0.2771
 6419SOL    HW220157   0.820   0.403   1.658  0.0737  0.7932  1.5392
 6420SOL     OW20158   2.413   6.404   2.706  0.0189 -0.1719 -0.0780
 6420SOL    HW120159   2.433   6.314   2.669  0.1148  0.3298 -1.2983
 6420SOL    HW220160   2.360   6.457   2.639  0.2339  0.7856  0.4865
 6421SOL     OW20161   5.438   0.537   4.012 -0.3341  0.3264 -0.7451
 6421SOL    HW120162   5.430   0.619   4.067  0.2828 -0.1953  0.1471
 6421SOL    HW220163   5.405   0.555   3.919  0.0446  1.6426 -0.6388
 6422SOL     OW20164   2.526   6.161   1.405  0.0490 -0.3468  0.0742
 6422SOL    HW120165   2.580   6.228   1.456  0.4563 -1.1805  0.7466
 6422SOL    HW220166   2.585   6.088   1.371 -0.6118 -1.1655  0.6405
 6423SOL     OW20167   2.019   2.152   2.732  0.3181  0.1756 -0.6035
 6423SOL    HW120168   2.102   2.137   2.785 -0.3690 -0.1180  0.4097
 6423SOL    HW220169   1.958   2.074   2.743 -0.0032  0.2846 -1.5214
 6424SOL     OW20170   4.111   3.419   3.926  0.0449 -0.3115 -0.5884
 6424SOL    HW120171   4.180   3.377   3.867  0.1535 -1.4075  0.2648
 6424SOL    HW220172   4.134   3.515   3.941  1.0978 -0.5179 -0.7508
 6425SOL     OW20173   5.050   1.040   3.283 -0.2106  0.2782 -0.1238
 6425SOL    HW120174   5.057   1.112   3.352  1.3691 -0.8055  0.9445
 6425SOL    HW220175   5.093   0.956   3.318 -2.4100 -1.3670 -1.1144
 6426SOL     OW20176   3.091   0.690   3.561  0.1559  0.4250 -0.1171
 6426SOL    HW120177   3.152   0.688   3.481  0.9447 -0.8068  0.4773
 6426SOL    HW220178   3.109   0.772   3.615  0.4413  0.6768 -0.5937
 6427SOL     OW20179   3.378   4.120   4.378 -0.0543 -0.1378  0.1703
 6427SOL    HW120180   3.282   4.115   4.406 -0.7791 -1.1328 -2.1846
 6427SOL    HW220181   3.383   4.159   4.286  1.9235  0.9150  0.6889
 6428SOL     OW20182   2.441   4.560   7.017  0.4163  0.5240 -0.4117
 6428SOL    HW120183   2.366   4.587   7.077  0.1998  0.7118 -0.7609
 6428SOL    HW220184   2.528   4.589   7.056  0.2908  0.4840 -0.1014
 6429SOL     OW20185   2.529   5.234   1.104  0.2037 -0.3668  0.6105
 6429SOL    HW120186   2.518   5.328   1.137 -0.2325 -0.2726  0.2134
 6429SOL    HW220187   2.443   5.185   1.114 -0.1248 -0.1642 -0.8798
 6430SOL     OW20188   1.596   1.354   1.127 -0.0766  0.3892  0.8745
 6430SOL    HW120189   1.531   1.381   1.056 -1.0504 -3.4136  0.1359
 6430SOL    HW220190   1.554   1.363   1.217 -0.6980  0.3921  0.5846
 6431SOL     OW20191   0.323   1.957   5.991 -0.2722  0.0911  0.4936
 6431SOL    HW120192   0.227   1.950   6.015 -0.6800  0.7924 -0.8466
 6431SOL    HW220193   0.376   1.890   6.043 -1.4184 -0.0321  1.5301
 6432SOL     OW20194   4.040   3.716   6.574 -0.1344  0.4320  0.2661
 6432SOL    HW120195   4.115   3.724   6.508 -0.7152  2.7114 -0.2091
 6432SOL    HW220196   4.052   3.784   6.646 -0.0828 -1.3194  1.9962
 6433SOL     OW20197   0.306   5.698   6.678 -0.7269 -0.0618 -0.0087
 6433SOL    HW120198   0.225   5.719   6.624 -1.4674  0.1693  1.1616
 6433SOL    HW220199   0.330   5.777   6.734 -1.2013 -0.9622  1.5108
 6434SOL     OW20200   2.949   2.110   6.157 -0.8642 -0.4715 -0.3541
 6434SOL    HW120201   2.968   2.033   6.096 -0.7129  0.7243 -1.8706
 6434SOL    HW220202   3.032   2.165   6.168 -0.3658 -1.5858  2.3932
 6435SOL     OW20203   5.460   2.194   6.608 -0.3667 -0.5247  0.3974
 6435SOL    HW120204   5.492   2.240   6.691  2.3269 -2.0979  0.3377
 6435SOL    HW220205   5.534   2.192   6.541 -2.2672  0.1156 -1.8633
 6436SOL     OW20206   3.800   1.692   5.476  0.2057  0.4311  0.1519
 6436SOL    HW120207   3.862   1.763   5.442  2.8633 -0.9565  1.8336
 6436SOL    HW220208   3.787   1.624   5.404  1.5030  0.2112  0.0975
 6437SOL     OW20209   2.024   2.399   6.078 -0.0027  0.0552  0.2117
 6437SOL    HW120210   2.050   2.465   6.008  1.7703  0.6352  1.3320
 6437SOL    HW220211   2.079   2.415   6.160  0.2784 -2.6262  0.6322
 6438SOL     OW20212   5.004   0.267   2.759 -0.1606 -0.2616  0.0019
 6438SOL    HW120213   5.060   0.199   2.806 -1.1041 -0.0825  1.4770
 6438SOL    HW220214   4.907   0.243   2.769 -0.4795  0.9122 -0.0479
 6439SOL     OW20215   0.811   5.025   3.998  0.0468  0.2479  0.1230
 6439SOL    HW120216   0.858   4.958   4.056  0.4724  2.0675  1.9768
 6439SOL    HW220217   0.859   5.033   3.911  1.2012 -0.3535  0.6887
 6440SOL     OW20218   6.235   0.981   5.517  0.3603 -0.1263  0.7506
 6440SOL    HW120219   6.181   0.896   5.513 -0.5108  0.4490 -1.4992
 6440SOL    HW220220   6.330   0.961   5.494 -0.3775 -0.2139 -2.8367
 6441SOL     OW20221   6.699   0.036   1.365 -0.4839  0.1724 -0.4821
 6441SOL    HW120222   6.615   0.084   1.342 -0.1819  0.9785  0.0871
 6441SOL    HW220223   6.734  -0.010   1.283 -0.4531  1.4198 -1.1922
 6442SOL     OW20224   2.151   2.834   7.006 -0.1740 -0.2873 -0.2940
 6442SOL    HW120225   2.052   2.849   7.006 -0.5519 -2.3048 -1.6835
 6442SOL    HW220226   2.198   2.916   7.038 -2.2949  0.6804  0.4698
 6443SOL     OW20227   3.466   3.121   1.830  0.5578 -0.2035  0.0111
 6443SOL    HW120228   3.549   3.132   1.775 -0.3415 -0.9416 -1.5824
 6443SOL    HW220229   3.458   3.026   1.860 -0.2684 -0.4188 -0.8386
 6444SOL     OW20230   3.325   1.427   6.690 -0.0917  0.2628 -0.0806
 6444SOL    HW120231   3.276   1.372   6.757  0.4566 -0.2569 -0.0962
 6444SOL    HW220232   3.405   1.470   6.732  0.2212 -0.0164 -0.3788
 6445SOL     OW20233   0.551   0.469   6.100 -0.2120  0.2669  0.1726
 6445SOL    HW120234   0.522   0.514   6.015 -2.0174 -0.7085  0.2066
 6445SOL    HW220235   0.481   0.485   6.170  0.3613 -0.4683  0.9190
 6446SOL     OW20236   1.650   4.353   1.792  0.6557 -0.2691 -0.0174
 6446SOL    HW120237   1.665   4.261   1.758 -0.4608 -0.9942  1.3493
 6446SOL    HW220238   1.672   4.419   1.720  0.8959 -1.6141 -1.2173
 6447SOL     OW20239   6.302   6.215   2.550  0.0749  0.1794 -0.4405
 6447SOL    HW120240   6.322   6.313   2.552 -0.0572  0.2479 -1.7075
 6447SOL    HW220241   6.262   6.187   2.638 -0.9528  1.4899 -0.4636
 6448SOL     OW20242   3.745   3.762   3.592 -0.7947  0.0711  0.2312
 6448SOL    HW120243   3.770   3.704   3.515  1.1799  0.1001  0.7935
 6448SOL    HW220244   3.683   3.713   3.653 -0.4409 -0.8388 -0.1332
 6449SOL     OW20245   6.043   5.720   0.300  0.0592 -0.2825 -0.0621
 6449SOL    HW120246   5.983   5.674   0.365  0.0488 -0.0919  0.0637
 6449SOL    HW220247   6.091   5.652   0.245 -2.0156 -0.4503 -1.7837
 6450SOL     OW20248   5.402   6.789   1.022  0.3545  0.2610 -0.0549
 6450SOL    HW120249   5.470   6.749   1.083 -0.2225 -1.0402 -0.2357
 6450SOL    HW220250   5.311   6.780   1.063  0.0642  0.1366 -0.7126
 6451SOL     OW20251   4.769   0.426   1.109  0.7666  0.6364  0.3390
 6451SOL    HW120252   4.712   0.387   1.037 -0.3405  1.2416  0.8472
 6451SOL    HW220253   4.806   0.514   1.078  0.2407  0.9262  0.5133
 6452SOL     OW20254   4.970   5.787   2.077  0.2137  0.1620  0.4081
 6452SOL    HW120255   4.871   5.795   2.088  0.1994  0.1283  0.3104
 6452SOL    HW220256   5.014   5.792   2.166  0.0409 -1.0465  0.5782
 6453SOL     OW20257   0.914   4.097   4.014 -0.2222 -0.0627  0.5133
 6453SOL    HW120258   0.978   4.085   3.938 -1.0244 -1.1723 -0.0274
 6453SOL    HW220259   0.945   4.044   4.093  0.4222  0.8024  0.8541
 6454SOL     OW20260   3.226   1.273   4.725 -0.7141 -0.0547  0.0978
 6454SOL    HW120261   3.314   1.310   4.695 -0.9851  1.9230  1.5489
 6454SOL    HW220262   3.188   1.214   4.653  0.8800  0.5951 -1.3401
 6455SOL     OW20263   1.524   0.692   4.643  0.8116 -0.1475  0.1582
 6455SOL    HW120264   1.593   0.763   4.632 -0.6251  1.3045  0.1308
 6455SOL    HW220265   1.562   0.604   4.617  2.2953  0.7781 -0.9440
 6456SOL     OW20266   3.681   1.806   1.508 -0.3127  0.8840  0.1114
 6456SOL    HW120267   3.622   1.834   1.583 -0.7286 -0.6676  0.3953
 6456SOL    HW220268   3.628   1.801   1.423 -0.6117 -0.3962  0.3443
 6457SOL     OW20269   4.818   6.633   4.878  0.3503 -0.1582  0.9409
 6457SOL    HW120270   4.767   6.712   4.846  1.1370 -0.9559 -2.6858
 6457SOL    HW220271   4.758   6.553   4.878  0.6039 -0.3499  0.4937
 6458SOL     OW20272   2.508   6.001   5.313  0.0268  0.2249  0.2865
 6458SOL    HW120273   2.591   5.996   5.368  0.5360 -0.2369 -0.5049
 6458SOL    HW220274   2.480   5.908   5.287  0.4313  0.4869 -1.1577
 6459SOL     OW20275   2.330   3.052   0.059 -0.1323 -0.5628  0.2623
 6459SOL    HW120276   2.378   3.131   0.022 -1.8670  1.8933  2.8182
 6459SOL    HW220277   2.385   3.010   0.131 -0.0701 -0.4011  0.3084
 6460SOL     OW20278   3.142   1.084   3.394 -0.0704 -0.4229 -0.6673
 6460SOL    HW120279   3.120   1.137   3.476 -1.4141 -1.3949 -0.3670
 6460SOL    HW220280   3.233   1.045   3.403  0.7340  1.3400 -0.6585
 6461SOL     OW20281   2.822   6.359   2.493  0.3845 -0.3477 -0.1850
 6461SOL    HW120282   2.799   6.353   2.590 -2.1675  0.1715 -0.7009
 6461SOL    HW220283   2.809   6.453   2.461 -0.8343 -0.9152 -1.4598
 6462SOL     OW20284   2.771   6.221   0.847  0.3252  0.6400 -0.5974
 6462SOL    HW120285   2.710   6.147   0.876  1.2429 -0.2695 -0.9225
 6462SOL    HW220286   2.810   6.198   0.758 -0.3007  2.0986 -1.2809
 6463SOL     OW20287   1.243   2.888   2.451 -0.0311  0.3102  0.1318
 6463SOL    HW120288   1.279   2.873   2.359  0.6576 -0.0230  0.4516
 6463SOL    HW220289   1.172   2.820   2.471 -1.2580  1.2923 -0.6953
 6464SOL     OW20290   5.656   3.646   0.877 -0.3333 -0.3442 -0.4608
 6464SOL    HW120291   5.689   3.610   0.790 -0.1432  1.0099 -0.9610
 6464SOL    HW220292   5.557   3.651   0.876 -0.3469 -0.5904 -0.4840
 6465SOL     OW20293   6.152   2.091   6.611  0.2211  0.3345 -0.1222
 6465SOL    HW120294   6.237   2.106   6.561 -0.3980 -0.1491 -1.3793
 6465SOL    HW220295   6.114   2.002   6.585 -1.1634  0.9608 -0.3284
 6466SOL     OW20296   3.378   5.111   1.905 -0.1852 -0.3836 -0.3576
 6466SOL    HW120297   3.469   5.070   1.918 -0.9020 -2.2657 -0.9208
 6466SOL    HW220298   3.332   5.116   1.994  0.8134  1.5402  0.0973
 6467SOL     OW20299   0.662   4.073   3.163 -0.5131 -0.0756 -0.1144
 6467SOL    HW120300   0.610   4.143   3.212 -0.0575 -0.6161  1.1974
 6467SOL    HW220301   0.753   4.065   3.203 -0.6901 -1.6843  0.0293
 6468SOL     OW20302   0.013   0.143   2.876  0.3512 -0.1568  0.0466
 6468SOL    HW120303   0.043   0.100   2.961  0.1071 -0.0453  0.1921
 6468SOL    HW220304   0.065   0.227   2.861  1.0936 -0.6937 -0.4339
 6469SOL     OW20305   4.319   4.803   6.682 -0.2796 -0.5126 -0.1066
 6469SOL    HW120306   4.375   4.858   6.620 -0.8284  1.5543  1.1320
 6469SOL    HW220307   4.308   4.711   6.644  2.0781 -0.3353 -1.4504
 6470SOL     OW20308   3.121   1.958   6.731  0.0232 -0.2121  0.4895
 6470SOL    HW120309   3.151   2.042   6.775  0.1867  0.5346 -0.9909
 6470SOL    HW220310   3.143   1.880   6.790  0.1884  0.7333  1.7271
 6471SOL     OW20311   4.794   3.361   1.678  0.8725  0.0394 -0.1064
 6471SOL    HW120312   4.809   3.408   1.765 -1.7327 -1.0483  1.0368
 6471SOL    HW220313   4.831   3.268   1.683  0.7482 -0.0142 -0.1516
 6472SOL     OW20314   6.772   1.436   0.689  0.1538  0.0396  0.2187
 6472SOL    HW120315   6.705   1.418   0.617 -0.0475  2.5146 -0.3186
 6472SOL    HW220316   6.861   1.456   0.648 -0.1058  2.0989  0.5290
 6473SOL     OW20317   2.338   6.642   0.500  0.5030  0.0385 -0.3537
 6473SOL    HW120318   2.364   6.728   0.457  1.7401 -0.5335 -0.7627
 6473SOL    HW220319   2.343   6.568   0.434 -2.9802 -0.0567 -0.7326
 6474SOL     OW20320   6.830   6.899   0.779  0.0349 -0.1509  0.3556
 6474SOL    HW120321   6.788   6.824   0.829  0.6447 -1.4685 -1.0490
 6474SOL    HW220322   6.927   6.905   0.803  0.0239  0.1021  0.3427
 6475SOL     OW20323   1.079   3.267   2.528  0.5245  0.3616 -0.0981
 6475SOL    HW120324   1.093   3.339   2.460 -0.5066 -0.0189 -0.7261
 6475SOL    HW220325   1.137   3.189   2.505  1.4415  0.8609  0.4317
 6476SOL     OW20326   6.383   1.623   5.243  0.1479  0.5091  0.4657
 6476SOL    HW120327   6.290   1.641   5.277 -1.2510 -0.8738 -2.2292
 6476SOL    HW220328   6.425   1.551   5.297 -2.4750 -2.5175 -1.1955
 6477SOL     OW20329   6.418   6.914   4.353 -0.2310  0.1442 -0.0184
 6477SOL    HW120330   6.419   6.890   4.451 -1.1175 -0.1029 -0.0653
 6477SOL    HW220331   6.324   6.926   4.323 -0.0627 -1.1907 -1.1906
 6478SOL     OW20332   5.834   1.070   4.306  0.3127 -0.0446  0.2311
 6478SOL    HW120333   5.902   1.086   4.235  0.6826  1.1828  0.8258
 6478SOL    HW220334   5.780   1.153   4.319 -0.5237 -0.6322  0.5787
 6479SOL     OW20335   6.318   4.279   5.467 -0.4699 -0.3485 -0.0194
 6479SOL    HW120336   6.373   4.226   5.403 -1.5685 -1.1764 -0.3197
 6479SOL    HW220337   6.345   4.375   5.464 -0.3207 -0.4177 -1.5278
 6480SOL     OW20338   4.989   0.675   2.081  0.4954 -0.0490 -0.3512
 6480SOL    HW120339   4.911   0.723   2.040  0.6812  1.1191  0.5933
 6480SOL    HW220340   4.995   0.699   2.178  1.7753 -0.4678 -0.3127
 6481SOL     OW20341   1.482   3.951   5.197  0.1351 -0.2253  0.7239
 6481SOL    HW120342   1.420   3.877   5.173  0.5956  0.0391 -1.4791
 6481SOL    HW220343   1.577   3.919   5.193  0.2733 -0.0082  1.7588
 6482SOL     OW20344   5.831   4.572   6.561 -0.2985 -0.3529  0.1438
 6482SOL    HW120345   5.915   4.622   6.582 -1.0472  1.3790 -0.7969
 6482SOL    HW220346   5.844   4.520   6.477  0.4505 -1.7346  1.0742
 6483SOL     OW20347   1.578   0.832   5.585  0.2320 -0.5537 -0.7833
 6483SOL    HW120348   1.674   0.861   5.576 -0.5254  2.4471 -0.2588
 6483SOL    HW220349   1.531   0.846   5.498 -0.0793 -0.4955 -0.6065
 6484SOL     OW20350   0.499   5.940   4.443 -0.0987  0.4131 -0.2529
 6484SOL    HW120351   0.519   6.038   4.444 -0.6892  0.5409  0.7646
 6484SOL    HW220352   0.530   5.900   4.357 -1.7064  1.8877 -1.5988
 6485SOL     OW20353   0.847   4.458   5.402 -0.0850 -0.7003  0.4078
 6485SOL    HW120354   0.930   4.469   5.346 -0.9134 -0.6848 -0.8668
 6485SOL    HW220355   0.776   4.519   5.368 -0.0525  0.7577  2.7243
 6486SOL     OW20356   0.958   0.180   5.166  0.9264  0.7380  0.3421
 6486SOL    HW120357   0.880   0.170   5.228  0.9603  0.8013  0.3949
 6486SOL    HW220358   1.004   0.092   5.155 -1.0211 -0.0959 -2.1654
 6487SOL     OW20359   3.013   2.773   1.564 -0.4215 -0.4558 -0.0702
 6487SOL    HW120360   3.007   2.838   1.640 -0.3173 -0.3674 -0.1385
 6487SOL    HW220361   3.085   2.801   1.501 -1.8475  0.6359 -1.2985
 6488SOL     OW20362   0.531   2.850   2.479  0.1859  0.5899  0.3343
 6488SOL    HW120363   0.599   2.839   2.551  0.6627  1.4168  0.0213
 6488SOL    HW220364   0.576   2.854   2.390 -0.2040  1.6554  0.1634
 6489SOL     OW20365   1.104   7.019   2.738 -0.2900  0.6167  0.1250
 6489SOL    HW120366   1.188   7.067   2.715 -0.7210  0.6384 -1.5202
 6489SOL    HW220367   1.065   7.058   2.822  0.6644  1.4542  0.1952
 6490SOL     OW20368   5.216   5.998   3.672 -0.0212  0.4070  0.4740
 6490SOL    HW120369   5.188   5.941   3.750  3.7316 -0.2342  1.5442
 6490SOL    HW220370   5.234   5.939   3.593  2.5725  0.1178  1.1906
 6491SOL     OW20371   3.216   4.685   0.668 -0.0958 -0.4899  0.2328
 6491SOL    HW120372   3.156   4.754   0.628 -1.1726 -1.4033  0.2421
 6491SOL    HW220373   3.166   4.632   0.736  1.2296 -0.0859  1.5950
 6492SOL     OW20374   4.413   2.465   3.940  0.1278 -0.2417  0.3628
 6492SOL    HW120375   4.423   2.556   3.900  0.0478 -0.2893  0.2317
 6492SOL    HW220376   4.443   2.466   4.035 -0.0345 -0.0367  0.4129
 6493SOL     OW20377   1.250   2.146   3.263  0.1640 -0.1280  0.0995
 6493SOL    HW120378   1.154   2.164   3.284  0.3241 -0.7553  1.5435
 6493SOL    HW220379   1.298   2.122   3.348  1.2895 -1.1771 -0.8003
 6494SOL     OW20380   1.618   5.878   0.361 -0.9579 -0.1558  0.0831
 6494SOL    HW120381   1.681   5.827   0.419  0.1716  0.6135 -0.4452
 6494SOL    HW220382   1.656   5.968   0.342 -1.7968 -0.0207 -1.0156
 6495SOL     OW20383   1.858   4.456   3.887 -0.1604  0.1270 -0.1939
 6495SOL    HW120384   1.860   4.518   3.965 -1.1170  1.6180 -1.2969
 6495SOL    HW220385   1.765   4.420   3.876 -0.0818  0.0883 -0.7563
 6496SOL     OW20386   6.952   6.050   1.965  0.6274 -0.3140 -0.0419
 6496SOL    HW120387   6.917   6.025   2.055 -0.6625  2.0880  0.2046
 6496SOL    HW220388   6.954   6.149   1.956  4.5247 -0.3401 -1.2543
 6497SOL     OW20389   2.997   6.658   2.091  0.6119  0.1658  1.1611
 6497SOL    HW120390   3.068   6.598   2.055  0.5528  1.1472 -0.7007
 6497SOL    HW220391   3.019   6.753   2.068 -1.6032  0.4353 -0.0326
 6498SOL     OW20392   6.751   5.666   2.499 -0.0161 -0.1585  0.5084
 6498SOL    HW120393   6.761   5.633   2.405 -2.9440 -0.3656  0.1720
 6498SOL    HW220394   6.747   5.766   2.499  0.8257 -0.1174  0.5432
 6499SOL     OW20395   5.264   6.123   1.386  0.5047  0.1083 -0.2499
 6499SOL    HW120396   5.219   6.044   1.427  0.0173  0.5354  0.0496
 6499SOL    HW220397   5.353   6.096   1.350  1.6682  0.0449  2.4829
 6500SOL     OW20398   4.186   4.161   1.695 -0.1167 -0.2589  0.0795
 6500SOL    HW120399   4.138   4.092   1.748 -1.6571 -0.1007 -1.0376
 6500SOL    HW220400   4.251   4.209   1.754 -0.9283 -0.8565  1.5228
 6501SOL     OW20401   1.899   6.624   6.885  0.5612 -0.7913  0.1974
 6501SOL    HW120402   1.995   6.609   6.908  0.5231 -0.1172  0.8037
 6501SOL    HW220403   1.871   6.716   6.912  0.0857 -0.5172 -1.1474
 6502SOL     OW20404   3.597   4.496   1.348 -0.0234 -0.2060  0.2260
 6502SOL    HW120405   3.610   4.536   1.258  0.3962  0.0498  0.3933
 6502SOL    HW220406   3.608   4.397   1.344 -0.6859 -0.2660 -0.1244
 6503SOL     OW20407   1.639   6.158   6.453  0.2708  0.4163  0.2121
 6503SOL    HW120408   1.614   6.147   6.550  0.3914 -0.0573  0.1914
 6503SOL    HW220409   1.626   6.072   6.405 -0.5957  0.8736 -0.3887
 6504SOL     OW20410   5.824   1.854   2.763  0.2078 -1.0326 -0.3576
 6504SOL    HW120411   5.762   1.926   2.732  1.3823  0.3687  0.3842
 6504SOL    HW220412   5.810   1.838   2.861  1.1071 -0.5456 -0.1280
 6505SOL     OW20413   5.396   1.152   2.251 -0.8103  0.1058  0.2274
 6505SOL    HW120414   5.361   1.152   2.345  1.5580 -0.1241  1.1764
 6505SOL    HW220415   5.420   1.245   2.224  0.1267 -0.0395  0.5236
 6506SOL     OW20416   4.629   5.157   0.714  0.6403  0.2680 -0.0893
 6506SOL    HW120417   4.545   5.147   0.661 -0.2295 -0.5899  1.4173
 6506SOL    HW220418   4.690   5.080   0.696  0.2282 -0.1647  0.3684
 6507SOL     OW20419   5.927   4.811   1.919 -0.3853 -1.1237  0.1411
 6507SOL    HW120420   5.909   4.890   1.859 -0.1063 -0.8602  0.3974
 6507SOL    HW220421   6.026   4.795   1.923 -0.4345 -1.4270  0.1724
 6508SOL     OW20422   5.707   2.594   0.253 -0.2368  0.3723  0.3887
 6508SOL    HW120423   5.614   2.620   0.280 -0.4160 -1.1315  1.3093
 6508SOL    HW220424   5.710   2.497   0.232  1.7578 -0.4087  3.5827
 6509SOL     OW20425   4.853   3.985   3.022  0.3189 -0.5997 -0.1192
 6509SOL    HW120426   4.937   4.039   3.012 -0.0972  0.1886  0.6142
 6509SOL    HW220427   4.877   3.893   3.054  0.9318 -0.5271 -0.3430
 6510SOL     OW20428   1.130   5.787   0.509  0.3511 -0.4653  0.4238
 6510SOL    HW120429   1.216   5.834   0.490 -0.0819 -0.6203 -2.2527
 6510SOL    HW220430   1.055   5.854   0.513  0.4754 -0.3719  2.3902
 6511SOL     OW20431   0.472   5.638   3.703 -0.8778 -0.0610  0.4295
 6511SOL    HW120432   0.391   5.652   3.760 -0.1032  0.6813  1.3930
 6511SOL    HW220433   0.547   5.694   3.739 -0.1008 -0.3056 -0.7797
 6512SOL     OW20434   5.316   2.606   4.703 -0.5952 -0.1567 -0.0769
 6512SOL    HW120435   5.269   2.668   4.767  0.4243 -0.2414  0.7764
 6512SOL    HW220436   5.399   2.571   4.746  0.2996  0.0467 -1.5756
 6513SOL     OW20437   5.813   4.161   6.134  0.0722 -0.1781  0.3282
 6513SOL    HW120438   5.794   4.254   6.103  1.5032  0.8087  2.1785
 6513SOL    HW220439   5.897   4.128   6.090 -0.2137 -0.4414 -0.0226
 6514SOL     OW20440   1.847   4.524   1.084 -0.1684 -0.0632  0.0587
 6514SOL    HW120441   1.882   4.532   0.991 -1.4629  0.1364 -0.4409
 6514SOL    HW220442   1.911   4.472   1.140  0.3289 -0.7615 -1.1166
 6515SOL     OW20443   1.233   4.957   3.186  0.2572  0.0019 -0.1005
 6515SOL    HW120444   1.183   4.999   3.262  1.0608 -1.0897  1.0753
 6515SOL    HW220445   1.189   4.871   3.160  1.8756 -1.4057  1.5084
 6516SOL     OW20446   6.646   0.216   3.603  0.0719  0.2880 -0.3201
 6516SOL    HW120447   6.648   0.218   3.503  0.8026  0.4193 -0.3079
 6516SOL    HW220448   6.603   0.299   3.638  2.8380  1.9456 -0.4760
 6517SOL     OW20449   3.732   0.137   6.914 -0.3577 -0.1168 -0.2792
 6517SOL    HW120450   3.695   0.051   6.947 -2.3377 -0.0373 -2.0428
 6517SOL    HW220451   3.771   0.189   6.990 -2.1621 -1.1059  1.4013
 6518SOL     OW20452   5.836   0.694   5.824 -0.3519  0.2397 -0.5682
 6518SOL    HW120453   5.914   0.744   5.861  2.0321 -2.2726 -1.8019
 6518SOL    HW220454   5.783   0.654   5.899  0.2474  1.0053  0.2804
 6519SOL     OW20455   2.882   4.409   1.605  0.0537  0.3002  0.0500
 6519SOL    HW120456   2.890   4.507   1.622 -1.5897  0.6955 -1.1497
 6519SOL    HW220457   2.800   4.373   1.650 -0.4921 -0.0518 -1.1507
 6520SOL     OW20458   1.255   6.405   5.932  0.3847 -0.1334 -0.4257
 6520SOL    HW120459   1.307   6.419   5.848  1.0704  0.3485  0.0693
 6520SOL    HW220460   1.294   6.462   6.005  0.4901 -1.3577  0.5016
 6521SOL     OW20461   4.543   5.325   4.052 -0.1931  0.3526  0.7628
 6521SOL    HW120462   4.477   5.365   4.116 -1.7748  0.2351 -0.7075
 6521SOL    HW220463   4.540   5.226   4.058 -0.5026  0.3340  0.3928
 6522SOL     OW20464   3.084   6.814   0.866 -0.1327 -0.0820  0.1617
 6522SOL    HW120465   3.159   6.750   0.853 -0.8670 -1.4166  2.0341
 6522SOL    HW220466   3.119   6.903   0.894  0.7999 -0.2204 -0.5274
 6523SOL     OW20467   4.735   2.768   0.720  0.2965 -0.3447  0.4496
 6523SOL    HW120468   4.746   2.818   0.635  0.2064  0.0697  0.6771
 6523SOL    HW220469   4.794   2.808   0.790  0.5323 -0.8200  0.5252
 6524SOL     OW20470   7.002   3.453   2.873  0.2008  0.0349 -0.4767
 6524SOL    HW120471   6.910   3.462   2.836  0.3148  0.1829 -0.7267
 6524SOL    HW220472   7.001   3.389   2.950  0.1540 -1.1586 -1.4354
 6525SOL     OW20473   2.373   0.138   3.944 -0.7046 -0.4734  0.4428
 6525SOL    HW120474   2.301   0.080   3.906 -1.3824  0.6610 -0.0323
 6525SOL    HW220475   2.333   0.209   4.001 -0.1018  1.0564 -0.9742
 6526SOL     OW20476   6.908   2.013   4.622 -0.5979  0.1867  0.1517
 6526SOL    HW120477   7.007   2.006   4.608 -0.4984  2.3255 -0.5562
 6526SOL    HW220478   6.860   1.972   4.544 -0.2820 -0.5355  0.3301
 6527SOL     OW20479   0.110   0.710   6.559 -0.1684 -0.5176  0.1531
 6527SOL    HW120480   0.204   0.744   6.562 -0.5989  0.7555 -0.0064
 6527SOL    HW220481   0.093   0.667   6.470 -0.0493  0.2322 -0.2416
 6528SOL     OW20482   6.767   0.946   4.305  0.0202 -0.1835 -0.3149
 6528SOL    HW120483   6.762   1.003   4.223  0.7814 -2.1951 -1.8517
 6528SOL    HW220484   6.733   0.854   4.284  1.2189 -1.0635  1.3110
 6529SOL     OW20485   5.289   4.077   2.731 -0.3198  0.2636 -0.3687
 6529SOL    HW120486   5.255   4.129   2.810 -1.9673 -0.6729 -0.4123
 6529SOL    HW220487   5.342   4.137   2.671  0.0893  1.2291  0.9238
 6530SOL     OW20488   5.188   5.561   4.440 -0.0233  0.0972 -0.1317
 6530SOL    HW120489   5.261   5.628   4.423  1.0252 -0.2500  2.5225
 6530SOL    HW220490   5.100   5.602   4.420  0.6551  1.9808  0.4807
 6531SOL     OW20491   2.152   4.492   3.771  0.7090 -0.2868 -0.3356
 6531SOL    HW120492   2.053   4.481   3.778  0.7684 -1.3852 -0.9675
 6531SOL    HW220493   2.191   4.414   3.722  1.5617  1.4495 -2.5921
 6532SOL     OW20494   6.284   5.746   2.864 -0.8565  0.2484 -0.1932
 6532SOL    HW120495   6.196   5.751   2.815 -0.0236  1.4712 -1.6784
 6532SOL    HW220496   6.325   5.837   2.867  0.8552 -0.4726 -0.4727
 6533SOL     OW20497   1.399   4.945   2.085  0.4442  0.6535  0.2186
 6533SOL    HW120498   1.489   4.987   2.095 -0.6619  3.1866  0.2315
 6533SOL    HW220499   1.329   5.009   2.114 -1.4462 -0.8697 -0.7608
 6534SOL     OW20500   5.118   2.024   3.176  0.1483  0.1856 -0.2135
 6534SOL    HW120501   5.030   1.981   3.193  0.3555  0.5078  2.0365
 6534SOL    HW220502   5.105   2.104   3.117 -0.8409 -0.4942 -0.9559
 6535SOL     OW20503   6.525   4.218   3.919 -0.3714 -0.0843  0.3961
 6535SOL    HW120504   6.609   4.270   3.905  0.5845 -1.4524  0.8190
 6535SOL    HW220505   6.465   4.268   3.981  0.5782  0.4494  0.9123
 6536SOL     OW20506   2.907   6.838   2.825  0.0488 -0.3711  0.1973
 6536SOL    HW120507   2.836   6.831   2.895 -0.2875  0.2106 -0.0816
 6536SOL    HW220508   2.995   6.854   2.870 -0.0169 -0.9189  0.5339
 6537SOL     OW20509   5.460   1.363   2.613 -0.0101  0.3243  0.5682
 6537SOL    HW120510   5.449   1.455   2.650 -2.8673  1.1548 -1.9137
 6537SOL    HW220511   5.555   1.349   2.586  0.5029  2.5569  1.0078
 6538SOL     OW20512   3.624   0.424   0.542 -0.0944 -0.5452  0.1890
 6538SOL    HW120513   3.579   0.443   0.455  0.5869 -2.4805 -0.6375
 6538SOL    HW220514   3.624   0.507   0.598 -2.3817  0.1871 -0.7782
 6539SOL     OW20515   4.321   0.838   5.202 -0.3448 -0.0924 -0.1185
 6539SOL    HW120516   4.243   0.861   5.143 -0.1843 -0.5166 -0.4998
 6539SOL    HW220517   4.298   0.860   5.297 -0.4318  1.0413 -0.3784
 6540SOL     OW20518   5.195   4.883   2.887 -0.3610  0.0671  0.1001
 6540SOL    HW120519   5.143   4.880   2.973 -0.4869  0.3174  0.0339
 6540SOL    HW220520   5.132   4.895   2.811 -0.0990  2.3382  0.1641
 6541SOL     OW20521   3.302   6.779   0.437  0.3652  0.1444  0.1223
 6541SOL    HW120522   3.326   6.697   0.489  0.2367  0.2646  0.3715
 6541SOL    HW220523   3.320   6.763   0.340  2.8017  0.6827  0.4011
 6542SOL     OW20524   0.383   6.454   6.588  0.4001  0.1817  0.1664
 6542SOL    HW120525   0.480   6.441   6.570  0.0996 -2.4490 -0.0586
 6542SOL    HW220526   0.371   6.517   6.665  2.1996  1.3872 -0.4773
 6543SOL     OW20527   5.650   0.804   6.499  0.1041  0.2104 -0.1809
 6543SOL    HW120528   5.666   0.884   6.441 -1.0608  0.2872 -0.4282
 6543SOL    HW220529   5.632   0.724   6.442 -1.1141  0.2998  0.0576
 6544SOL     OW20530   0.767   1.531   3.315  0.1106  0.0347 -0.1333
 6544SOL    HW120531   0.716   1.446   3.323 -0.8105  0.4528 -1.2374
 6544SOL    HW220532   0.859   1.512   3.280 -0.3027 -0.4684 -0.9742
 6545SOL     OW20533   6.664   0.050   5.463  0.5744  0.4240 -0.2807
 6545SOL    HW120534   6.681  -0.037   5.508  0.0374  1.0039  1.0883
 6545SOL    HW220535   6.712   0.052   5.375  1.1810 -0.9552 -0.0015
 6546SOL     OW20536   3.138   3.545   5.043 -0.3046 -0.1208 -0.3847
 6546SOL    HW120537   3.227   3.587   5.064 -0.2986 -1.0915  1.8092
 6546SOL    HW220538   3.073   3.566   5.115 -1.6059 -0.2223 -1.4877
 6547SOL     OW20539   0.951   3.622   3.953 -0.2078 -0.0636 -0.6200
 6547SOL    HW120540   0.944   3.710   3.905  0.8974 -0.3840 -1.3945
 6547SOL    HW220541   1.013   3.561   3.904 -0.5734 -1.1167  0.1734
 6548SOL     OW20542   5.000   5.142   0.599 -0.4248  0.6070  0.0562
 6548SOL    HW120543   5.027   5.093   0.682  1.3356 -0.2826 -1.0041
 6548SOL    HW220544   4.921   5.096   0.558 -0.9430  0.7151  0.9013
 6549SOL     OW20545   0.766   3.004   1.393 -0.1474 -0.1406  0.0593
 6549SOL    HW120546   0.759   3.086   1.451 -0.8379 -0.4814  0.4745
 6549SOL    HW220547   0.853   2.958   1.411  0.8030  1.1240 -1.0435
 6550SOL     OW20548   1.496   3.652   4.081  0.0096 -0.1296  0.0798
 6550SOL    HW120549   1.509   3.716   4.005  1.3831 -0.2167  0.2109
 6550SOL    HW220550   1.493   3.702   4.167 -0.0154 -0.1444  0.0874
 6551SOL     OW20551   4.603   4.936   3.374 -0.2607  0.1086  0.6031
 6551SOL    HW120552   4.507   4.943   3.346 -0.1772  1.9195  0.6065
 6551SOL    HW220553   4.613   4.862   3.441 -1.6621 -0.0830  0.6380
 6552SOL     OW20554   5.146   5.849   3.408 -0.2019 -0.8098  0.1038
 6552SOL    HW120555   5.054   5.886   3.421  0.7828  1.5440  0.6916
 6552SOL    HW220556   5.152   5.808   3.317 -2.3258 -2.7170  0.7188
 6553SOL     OW20557   5.340   1.679   3.707 -0.1408 -0.2380  0.1492
 6553SOL    HW120558   5.396   1.749   3.662 -0.6357  0.5532  0.7478
 6553SOL    HW220559   5.388   1.591   3.703  0.9093  0.3112  0.1742
 6554SOL     OW20560   2.727   0.355   5.564  0.9667  0.3448 -0.7465
 6554SOL    HW120561   2.790   0.344   5.640  0.5684  0.0991 -0.4481
 6554SOL    HW220562   2.765   0.420   5.498  1.1293  0.8691 -0.1415
 6555SOL     OW20563   1.637   6.924   2.774  0.1694  0.4400  0.6310
 6555SOL    HW120564   1.693   7.004   2.752  0.1195  0.4820  0.6577
 6555SOL    HW220565   1.697   6.848   2.801  0.3142 -0.0240 -0.9305
 6556SOL     OW20566   0.466   2.614   6.496 -0.0680 -0.1075  0.0892
 6556SOL    HW120567   0.558   2.650   6.511  0.9621 -2.5422  0.1072
 6556SOL    HW220568   0.443   2.620   6.399  1.2642 -1.8761 -0.3878
 6557SOL     OW20569   1.883   0.917   6.323 -0.2744 -0.2382 -0.7637
 6557SOL    HW120570   1.914   0.965   6.242 -2.0700 -1.0083 -1.9607
 6557SOL    HW220571   1.860   0.983   6.395 -1.2472  0.6307 -1.8417
 6558SOL     OW20572   6.674   1.364   6.180  0.5601  0.3905 -0.5333
 6558SOL    HW120573   6.742   1.400   6.116 -0.1708  0.3737 -1.3298
 6558SOL    HW220574   6.717   1.351   6.270  1.5276  0.6579 -0.9441
 6559SOL     OW20575   1.145   6.755   5.538 -0.2364  0.3952 -0.1465
 6559SOL    HW120576   1.180   6.739   5.630  1.7611 -1.0871 -1.0749
 6559SOL    HW220577   1.219   6.786   5.479 -1.3463  0.7528 -1.4117
 6560SOL     OW20578   5.789   6.955   2.999  0.1275 -0.0913 -0.2734
 6560SOL    HW120579   5.798   6.864   3.040 -2.0217 -0.2916 -0.1417
 6560SOL    HW220580   5.841   7.021   3.052  2.2698 -1.3132 -0.7440
 6561SOL     OW20581   6.215   1.938   1.495  0.5480 -0.2073 -0.2758
 6561SOL    HW120582   6.256   1.966   1.408  1.5921 -0.2908  0.1682
 6561SOL    HW220583   6.217   1.838   1.502  1.0738 -0.1737  0.1191
 6562SOL     OW20584   0.687   2.788   6.515  0.4531 -0.1880 -0.5140
 6562SOL    HW120585   0.785   2.795   6.529  0.3926  3.0049 -0.9140
 6562SOL    HW220586   0.665   2.812   6.420 -0.7468 -0.3634 -0.2989
 6563SOL     OW20587   2.799   1.742   5.175 -0.1609  0.2053 -0.0880
 6563SOL    HW120588   2.740   1.687   5.235  0.2524  2.0871  2.1872
 6563SOL    HW220589   2.884   1.692   5.158  0.0501 -0.0963  1.6022
 6564SOL     OW20590   1.603   3.156   6.110  0.3548  0.2525  0.2974
 6564SOL    HW120591   1.578   3.180   6.203  1.1623  0.3155  0.5054
 6564SOL    HW220592   1.674   3.218   6.077 -0.6523  0.9018 -0.7461
 6565SOL     OW20593   5.608   1.526   6.793 -0.1894  0.6037 -0.4609
 6565SOL    HW120594   5.622   1.427   6.795  0.5471  0.7020  1.3697
 6565SOL    HW220595   5.535   1.549   6.729  0.5116 -0.9905 -1.8834
 6566SOL     OW20596   5.923   4.991   3.825  0.3815  0.6130  0.2519
 6566SOL    HW120597   5.891   5.007   3.918 -1.3468 -1.3355  0.0656
 6566SOL    HW220598   5.893   5.066   3.766 -0.6813  0.6555  0.8195
 6567SOL     OW20599   5.495   1.598   3.393 -0.0419  0.2056 -0.2058
 6567SOL    HW120600   5.401   1.570   3.376 -0.2783  1.1252 -0.4419
 6567SOL    HW220601   5.556   1.522   3.369 -0.6810 -0.2001 -0.5949
 6568SOL     OW20602   0.258   5.980   3.111  0.1876  0.4402 -0.7533
 6568SOL    HW120603   0.335   5.916   3.114 -0.1251  0.0231 -1.4210
 6568SOL    HW220604   0.179   5.934   3.071 -0.7445  0.5156  0.8949
 6569SOL     OW20605   0.535   5.944   1.274 -0.3775  0.1080  0.2707
 6569SOL    HW120606   0.482   5.928   1.357 -1.6631 -0.2732 -0.5870
 6569SOL    HW220607   0.629   5.968   1.298  0.1269 -2.8637  1.8130
 6570SOL     OW20608   6.668   5.644   3.626  0.1315 -0.1140  0.1111
 6570SOL    HW120609   6.698   5.590   3.704 -1.3662  0.2608  0.9712
 6570SOL    HW220610   6.585   5.605   3.588  0.3560  0.2238 -0.7621
 6571SOL     OW20611   2.079   0.621   6.805  0.6798 -0.5963 -0.1570
 6571SOL    HW120612   1.989   0.617   6.761  1.0582 -0.2925 -0.9758
 6571SOL    HW220613   2.124   0.532   6.799  0.0784 -1.0084  1.0550
 6572SOL     OW20614   5.755   5.064   4.061  0.0634  0.1674  0.1194
 6572SOL    HW120615   5.666   5.044   4.019 -0.7464  2.3363  0.6602
 6572SOL    HW220616   5.757   5.160   4.090  1.9100 -0.3212  1.8132
 6573SOL     OW20617   5.743   2.344   4.806 -0.0606  0.0961 -0.0122
 6573SOL    HW120618   5.690   2.264   4.834  0.1689 -0.5783 -1.4013
 6573SOL    HW220619   5.818   2.358   4.870 -0.3602 -0.5301  0.4940
 6574SOL     OW20620   6.531   6.985   2.707 -0.2845  0.4046  1.0383
 6574SOL    HW120621   6.499   7.025   2.620  0.5690 -0.8448  0.1238
 6574SOL    HW220622   6.487   6.897   2.721 -0.2004  0.4718  1.7440
 6575SOL     OW20623   3.299   6.501   5.835 -0.4533  0.4210 -0.1415
 6575SOL    HW120624   3.333   6.584   5.879  0.7454  0.1288 -0.4736
 6575SOL    HW220625   3.201   6.492   5.852 -0.0788  0.4075  2.3034
 6576SOL     OW20626   5.511   4.007   3.736 -0.0594  0.1637  0.0890
 6576SOL    HW120627   5.524   3.920   3.784  0.4678  0.3854  0.3503
 6576SOL    HW220628   5.600   4.049   3.719 -0.3365  0.8257  0.2689
 6577SOL     OW20629   3.393   0.294   2.949  0.1661  0.6390  0.0152
 6577SOL    HW120630   3.399   0.220   2.882 -1.7034  1.2599 -0.9162
 6577SOL    HW220631   3.431   0.377   2.911  1.7486  0.3392  0.8545
 6578SOL     OW20632   6.089   2.214   2.038  0.2628 -0.3888  0.8575
 6578SOL    HW120633   6.169   2.229   2.096 -0.2832  1.2290  1.2351
 6578SOL    HW220634   6.096   2.124   1.996  3.2824  0.4321 -0.7068
 6579SOL     OW20635   0.787   3.210   6.173 -0.5869  0.1755 -0.5452
 6579SOL    HW120636   0.693   3.240   6.155 -1.0422 -0.3796  0.7576
 6579SOL    HW220637   0.820   3.154   6.097 -0.1893  2.7735 -2.4241
 6580SOL     OW20638   4.060   6.171   6.683  0.1266  0.0053 -0.5240
 6580SOL    HW120639   3.986   6.105   6.672 -0.4974  0.3550  1.2702
 6580SOL    HW220640   4.083   6.180   6.780  0.2075  2.4049 -0.7043
 6581SOL     OW20641   5.281   2.304   0.840  0.9017  0.3524 -0.3860
 6581SOL    HW120642   5.343   2.233   0.876  0.4756  0.1282 -0.0771
 6581SOL    HW220643   5.292   2.311   0.741  1.1836  0.0824 -0.3766
 6582SOL     OW20644   2.685   6.131   4.596  0.2213  0.0592  0.6207
 6582SOL    HW120645   2.683   6.224   4.632  0.4550 -0.2250  1.3948
 6582SOL    HW220646   2.602   6.114   4.543  0.6397  1.0332 -0.3816
 6583SOL     OW20647   6.920   6.639   5.093 -0.6227 -0.1426 -0.4068
 6583SOL    HW120648   6.964   6.587   5.020  3.1395 -1.3639  2.3942
 6583SOL    HW220649   6.973   6.721   5.113 -2.4862  1.0436 -0.0190
 6584SOL     OW20650   2.129   2.679   0.207  0.2599  0.1765  0.1609
 6584SOL    HW120651   2.163   2.585   0.203 -2.7719 -1.0325  0.0378
 6584SOL    HW220652   2.156   2.729   0.125  1.7577 -0.6244  0.1479
 6585SOL     OW20653   4.549   1.787   6.579  0.5281  0.0960 -0.5154
 6585SOL    HW120654   4.586   1.766   6.669  0.5661  1.3281 -0.2304
 6585SOL    HW220655   4.469   1.730   6.562 -1.6426  2.1993  1.8022
 6586SOL     OW20656   1.650   6.421   5.740  0.6668 -0.3272 -0.0560
 6586SOL    HW120657   1.712   6.482   5.690  1.1616 -0.4290  0.4290
 6586SOL    HW220658   1.678   6.326   5.726  0.7110 -0.3651  0.2824
 6587SOL     OW20659   4.167   1.540   0.345 -0.3164 -0.6440 -0.2322
 6587SOL    HW120660   4.161   1.458   0.401 -0.4205 -1.2734 -1.1459
 6587SOL    HW220661   4.252   1.540   0.292  1.6326  1.7167  2.5724
 6588SOL     OW20662   1.994   3.814   0.840 -0.0313  0.5285 -0.0309
 6588SOL    HW120663   2.000   3.822   0.740  1.8812  3.4472  0.2122
 6588SOL    HW220664   1.926   3.879   0.874 -0.9340 -0.7052  0.6082
 6589SOL     OW20665   3.297   3.962   0.410 -0.2111  0.1844 -0.2371
 6589SOL    HW120666   3.315   3.870   0.446 -0.7678 -0.4682 -1.5771
 6589SOL    HW220667   3.304   3.962   0.311 -1.7693  1.2247 -0.3884
 6590SOL     OW20668   5.967   1.118   2.688  0.4666  0.6652  0.0829
 6590SOL    HW120669   5.886   1.059   2.693  0.5193  0.6636  1.1680
 6590SOL    HW220670   6.024   1.089   2.611 -1.0861  1.3697 -1.3829
 6591SOL     OW20671   3.573   6.423   5.820 -0.3192  0.4219 -0.4988
 6591SOL    HW120672   3.600   6.369   5.900  1.5109  2.7951  0.6276
 6591SOL    HW220673   3.478   6.453   5.831 -0.8178 -1.1171 -0.3519
 6592SOL     OW20674   3.454   5.412   6.383 -0.3902  0.0062  0.3730
 6592SOL    HW120675   3.429   5.477   6.454  1.5559  0.4918  0.6783
 6592SOL    HW220676   3.385   5.340   6.377 -0.0586 -0.7040  3.5823
 6593SOL     OW20677   1.591   5.865   3.765  0.4189  0.4964  0.0339
 6593SOL    HW120678   1.522   5.876   3.837  0.5771  0.4105  0.1989
 6593SOL    HW220679   1.681   5.889   3.801  0.9035 -1.8886  0.6344
 6594SOL     OW20680   1.947   3.467   2.446  0.0429 -0.3321 -0.2276
 6594SOL    HW120681   2.010   3.501   2.377 -0.3294 -0.3295 -0.5757
 6594SOL    HW220682   1.854   3.465   2.408 -0.1558 -0.4003  0.2495
 6595SOL     OW20683   5.596   3.758   2.080 -0.2611  0.1501  0.0525
 6595SOL    HW120684   5.649   3.839   2.054 -1.3185  1.5958  2.1237
 6595SOL    HW220685   5.634   3.718   2.163 -0.6497 -0.5970 -0.1199
 6596SOL     OW20686   0.235   1.364   6.894  0.2620  1.0128 -0.1927
 6596SOL    HW120687   0.315   1.395   6.946 -1.8258  3.7073  1.6991
 6596SOL    HW220688   0.202   1.278   6.932  1.6301  0.4004 -0.3382
 6597SOL     OW20689   0.300   2.815   0.547  0.3924  0.3239 -0.4117
 6597SOL    HW120690   0.214   2.764   0.539 -0.3042  1.5372 -0.8183
 6597SOL    HW220691   0.361   2.765   0.609 -0.0728 -1.2440 -1.1473
 6598SOL     OW20692   1.872   1.768   3.107  0.7356  0.4581 -0.1272
 6598SOL    HW120693   1.803   1.839   3.090 -0.4760 -0.5025  0.5736
 6598SOL    HW220694   1.934   1.798   3.179 -0.8572  0.1454  1.4489
 6599SOL     OW20695   6.112   4.880   0.632  0.2199 -0.1975 -0.0206
 6599SOL    HW120696   6.057   4.802   0.663 -1.0529  0.8867  0.5605
 6599SOL    HW220697   6.139   4.935   0.711 -0.8200  1.1594 -0.5609
 6600SOL     OW20698   1.515   2.599   2.907 -0.2866  0.1800  0.2827
 6600SOL    HW120699   1.595   2.654   2.881  0.4505 -0.0019  2.0154
 6600SOL    HW220700   1.541   2.502   2.906 -0.6219  0.0903  0.4258
 6601SOL     OW20701   4.984   0.378   5.124  0.1844  0.7822  0.5440
 6601SOL    HW120702   4.917   0.343   5.189 -1.5742  1.2862 -0.9239
 6601SOL    HW220703   5.051   0.306   5.104 -0.4116 -0.0297  1.3747
 6602SOL     OW20704   4.950   5.361   2.195  0.0463 -0.2283 -0.2028
 6602SOL    HW120705   5.013   5.284   2.182  0.1548 -0.2756  0.5448
 6602SOL    HW220706   4.868   5.347   2.139  1.0944  0.3086 -1.9378
 6603SOL     OW20707   6.282   6.470   4.943  0.3597 -0.3771 -0.5087
 6603SOL    HW120708   6.360   6.407   4.942 -0.5329 -1.5298  0.4235
 6603SOL    HW220709   6.197   6.419   4.931 -0.2284  0.9696 -2.5819
 6604SOL     OW20710   4.704   4.266   2.402 -0.2814  0.5660  0.0177
 6604SOL    HW120711   4.627   4.203   2.402 -0.0497  0.2796 -0.7170
 6604SOL    HW220712   4.748   4.266   2.312  0.2958  1.0683  0.2913
 6605SOL     OW20713   4.702   0.478   2.606 -0.1945 -0.3714 -0.2021
 6605SOL    HW120714   4.746   0.501   2.519  1.0641 -1.0711  0.2288
 6605SOL    HW220715   4.701   0.559   2.665 -1.5765  0.2704 -1.0476
 6606SOL     OW20716   5.979   0.699   2.768 -0.4845 -0.4023  0.0893
 6606SOL    HW120717   5.957   0.613   2.814 -1.5259  0.2323  0.8282
 6606SOL    HW220718   5.918   0.711   2.690 -0.6155 -0.1369  0.2336
 6607SOL     OW20719   0.413   6.391   1.991  0.1627 -0.1683 -0.2348
 6607SOL    HW120720   0.327   6.415   2.036 -0.2277  0.1068 -1.1083
 6607SOL    HW220721   0.430   6.454   1.916  0.6332 -0.8090 -0.6784
 6608SOL     OW20722   6.159   5.151   4.747  0.4579  0.1132  0.3914
 6608SOL    HW120723   6.161   5.174   4.845  0.0409 -1.9075  0.9292
 6608SOL    HW220724   6.064   5.149   4.715  0.6378  1.6206 -0.3096
 6609SOL     OW20725   0.297   5.366   4.703 -0.0621 -0.5628  0.1313
 6609SOL    HW120726   0.256   5.322   4.622 -3.4952 -1.0714  1.9467
 6609SOL    HW220727   0.267   5.462   4.707 -1.8063 -1.1155  1.8344
 6610SOL     OW20728   1.979   5.759   1.998 -0.2152 -0.2816  0.2346
 6610SOL    HW120729   1.987   5.849   1.955 -0.8499  1.1188  2.8117
 6610SOL    HW220730   1.885   5.727   1.990  0.1597 -1.0828 -1.2716
 6611SOL     OW20731   3.451   3.110   0.817  0.3989  0.6860 -0.3948
 6611SOL    HW120732   3.369   3.162   0.843  0.0237  1.6476 -3.1214
 6611SOL    HW220733   3.423   3.028   0.766  1.1117  0.6657 -0.7562
 6612SOL     OW20734   0.344   4.976   4.456  0.0971  0.4719 -0.0653
 6612SOL    HW120735   0.357   5.075   4.456  0.5762  0.4143  0.7074
 6612SOL    HW220736   0.338   4.944   4.361  1.1476  1.0907 -0.3617
 6613SOL     OW20737   2.033   1.813   4.788 -0.1910 -0.3871 -0.7709
 6613SOL    HW120738   2.088   1.896   4.779  0.5993 -0.5076  1.9876
 6613SOL    HW220739   1.937   1.834   4.770  0.0896  0.9677 -0.7506
 6614SOL     OW20740   3.104   6.301   0.434  0.0902 -0.0877 -0.1917
 6614SOL    HW120741   3.181   6.258   0.480 -0.4025 -2.2032 -1.2633
 6614SOL    HW220742   3.034   6.233   0.413  0.1322  0.7461 -3.7895
 6615SOL     OW20743   2.181   3.589   4.257  0.5495 -0.0278  0.3925
 6615SOL    HW120744   2.189   3.668   4.196  2.5679  1.8272  2.8673
 6615SOL    HW220745   2.112   3.607   4.327  1.1975 -0.3184  1.1228
 6616SOL     OW20746   5.701   1.823   1.469  0.2980 -0.0118 -0.0725
 6616SOL    HW120747   5.723   1.892   1.537  2.4511  2.0396 -2.6359
 6616SOL    HW220748   5.781   1.766   1.453 -1.3282 -3.1293  1.7504
 6617SOL     OW20749   4.421   0.093   3.599 -0.3148 -0.3262  0.2812
 6617SOL    HW120750   4.481   0.149   3.656  1.6473  0.2367 -2.1913
 6617SOL    HW220751   4.412   0.135   3.509 -2.3287 -1.8179 -0.2821
 6618SOL     OW20752   6.314   3.821   2.442  0.0586 -0.2712  0.0602
 6618SOL    HW120753   6.303   3.882   2.364 -0.5959 -1.3040 -0.6913
 6618SOL    HW220754   6.408   3.828   2.477  0.0723  0.9417 -0.1671
 6619SOL     OW20755   3.632   3.527   6.720 -0.1486 -0.1150  0.4979
 6619SOL    HW120756   3.630   3.428   6.725  2.0597 -0.1953  0.5633
 6619SOL    HW220757   3.669   3.556   6.632  0.2949  0.6186  0.9114
 6620SOL     OW20758   5.548   4.531   0.099 -0.5187 -0.6583 -0.1489
 6620SOL    HW120759   5.458   4.569   0.118 -0.1749  0.5800 -0.9211
 6620SOL    HW220760   5.601   4.594   0.043  1.2767 -0.8084  1.2614
 6621SOL     OW20761   4.247   5.663   4.409  0.1834 -0.3226  0.4263
 6621SOL    HW120762   4.223   5.741   4.467  1.0076 -0.4272  0.9209
 6621SOL    HW220763   4.250   5.580   4.465  1.0388 -0.4149  0.2592
 6622SOL     OW20764   0.559   2.223   5.415  0.4480 -0.0301  0.3021
 6622SOL    HW120765   0.506   2.139   5.410  3.2273 -1.8145 -1.1084
 6622SOL    HW220766   0.576   2.245   5.511 -0.6903 -0.7802  0.7015
 6623SOL     OW20767   3.055   4.003   3.452  0.3250 -0.4140 -0.4256
 6623SOL    HW120768   2.979   4.042   3.400 -0.4596 -1.2136  0.0697
 6623SOL    HW220769   3.018   3.936   3.517  1.1805  0.9766  1.5790
 6624SOL     OW20770   4.812   0.275   3.542 -0.3423 -0.1009 -0.0515
 6624SOL    HW120771   4.862   0.355   3.575  3.1355 -1.0177 -2.4870
 6624SOL    HW220772   4.862   0.192   3.566 -1.4565 -1.2197 -1.3905
 6625SOL     OW20773   1.602   3.823   3.416 -0.0786  0.4762 -0.4306
 6625SOL    HW120774   1.602   3.791   3.511 -1.4141 -0.2295 -0.6490
 6625SOL    HW220775   1.541   3.766   3.362  0.4374  1.0620 -1.6663
 6626SOL     OW20776   3.578   1.430   0.114  0.1253  0.5809  0.0129
 6626SOL    HW120777   3.587   1.525   0.084  2.4776  0.2801 -0.4384
 6626SOL    HW220778   3.514   1.425   0.191  0.5770  2.6497  0.5936
 6627SOL     OW20779   2.697   5.701   2.657  0.1819  0.3330 -0.9948
 6627SOL    HW120780   2.678   5.754   2.740  1.0740 -1.0905  0.1597
 6627SOL    HW220781   2.615   5.700   2.600 -0.4091  1.4642 -0.2138
 6628SOL     OW20782   0.049   2.092   5.598  0.0382  0.3206 -0.1834
 6628SOL    HW120783  -0.016   2.017   5.613  0.7151 -0.3327 -0.4221
 6628SOL    HW220784   0.116   2.063   5.530  0.5927  0.9775  0.0817
 6629SOL     OW20785   4.937   0.296   2.482  0.0590 -0.0349  0.4679
 6629SOL    HW120786   4.948   0.267   2.577  0.9800  2.1902  1.0960
 6629SOL    HW220787   4.964   0.392   2.473 -1.7690  0.3489 -1.6906
 6630SOL     OW20788   2.654   6.185   2.837  0.1901 -0.2625 -0.3784
 6630SOL    HW120789   2.580   6.175   2.770 -0.1184 -0.1129 -0.0647
 6630SOL    HW220790   2.615   6.208   2.926  0.7204  2.1803 -0.6918
 6631SOL     OW20791   4.821   6.922   0.135  0.3106  0.3233  0.1894
 6631SOL    HW120792   4.772   6.951   0.053  1.0723  2.3035  0.3991
 6631SOL    HW220793   4.768   6.947   0.217 -0.2236 -1.2232  0.3533
 6632SOL     OW20794   0.693   6.375   1.974  0.1500 -0.4009  0.5433
 6632SOL    HW120795   0.598   6.364   2.004  0.2574 -1.5635  0.5201
 6632SOL    HW220796   0.705   6.465   1.932 -1.4325 -0.9581 -1.2299
 6633SOL     OW20797   5.794   5.271   5.263 -0.2470 -0.2754 -0.1100
 6633SOL    HW120798   5.808   5.359   5.308 -0.1958 -0.0890 -0.4818
 6633SOL    HW220799   5.871   5.210   5.283  0.6001  0.3645 -1.2461
 6634SOL     OW20800   6.666   4.050   7.002  0.0923 -0.8696  0.0652
 6634SOL    HW120801   6.677   4.065   7.100  0.9617  1.9419 -0.3483
 6634SOL    HW220802   6.756   4.050   6.958 -0.2241 -2.9190 -0.7002
 6635SOL     OW20803   6.735   7.015   4.869  0.3855 -0.4595 -0.0488
 6635SOL    HW120804   6.697   7.106   4.880 -1.6128 -1.2022 -0.4805
 6635SOL    HW220805   6.667   6.946   4.897  1.4349 -1.8521 -0.7934
 6636SOL     OW20806   5.181   3.538   3.168  0.3468 -0.2682  0.9224
 6636SOL    HW120807   5.084   3.520   3.178  0.5047 -2.8246 -1.0967
 6636SOL    HW220808   5.222   3.553   3.258 -1.5138 -1.4051  2.0207
 6637SOL     OW20809   6.246   6.340   3.390  0.5896  0.1706  0.1656
 6637SOL    HW120810   6.165   6.292   3.358  0.8313 -0.5262  0.5774
 6637SOL    HW220811   6.221   6.431   3.422  0.3934  1.1102 -2.4440
 6638SOL     OW20812   3.255   3.826   5.820  0.5345  0.1434  0.0225
 6638SOL    HW120813   3.270   3.757   5.892 -0.4598  0.8436  0.9327
 6638SOL    HW220814   3.169   3.806   5.773 -0.7338  1.7632  1.5325
 6639SOL     OW20815   3.360   6.274   6.552 -0.4369  0.3546  0.0065
 6639SOL    HW120816   3.289   6.343   6.541 -1.0015 -0.2670 -0.3238
 6639SOL    HW220817   3.318   6.183   6.550  0.4630 -0.0687 -1.2317
 6640SOL     OW20818   5.428   3.303   1.072 -0.1930  0.0318 -0.5133
 6640SOL    HW120819   5.420   3.205   1.090  1.8100 -0.2201 -0.7837
 6640SOL    HW220820   5.436   3.352   1.159  0.2066 -0.1942 -0.4210
 6641SOL     OW20821   3.087   1.510   4.346 -0.6910  0.2027  0.0628
 6641SOL    HW120822   3.132   1.578   4.286  0.5335 -1.0431 -0.5048
 6641SOL    HW220823   3.097   1.538   4.441 -0.0215  0.7208 -0.1492
 6642SOL     OW20824   2.017   5.178   2.644  0.3680 -0.1875 -0.1152
 6642SOL    HW120825   2.115   5.198   2.651  0.7018 -1.4622 -0.7382
 6642SOL    HW220826   1.991   5.113   2.715 -0.0424  0.1584  0.0580
 6643SOL     OW20827   6.277   5.745   5.861 -0.1696 -0.9053  0.0895
 6643SOL    HW120828   6.295   5.841   5.881  2.6068 -1.2802 -0.2307
 6643SOL    HW220829   6.224   5.738   5.777 -0.8473  0.3380  0.3926
 6644SOL     OW20830   3.704   2.088   6.641  0.2695 -0.2245 -0.0759
 6644SOL    HW120831   3.771   2.055   6.708 -1.1245 -1.7813  0.6210
 6644SOL    HW220832   3.722   2.046   6.553  0.2508 -0.5812  0.0885
 6645SOL     OW20833   2.700   2.369   3.271 -0.3938 -0.1132  0.7142
 6645SOL    HW120834   2.790   2.365   3.229 -0.8306  0.8712 -0.3656
 6645SOL    HW220835   2.651   2.450   3.238 -2.6143 -1.9015 -0.6946
 6646SOL     OW20836   2.849   2.848   6.272 -0.2028  0.1328 -0.0583
 6646SOL    HW120837   2.834   2.760   6.227  0.1444  0.5768 -1.0742
 6646SOL    HW220838   2.877   2.916   6.204  0.0705  0.8975  0.7957
 6647SOL     OW20839   5.717   6.122   6.473 -0.2079 -0.0277 -0.3705
 6647SOL    HW120840   5.749   6.072   6.553 -2.6339 -1.0247  0.0488
 6647SOL    HW220841   5.640   6.074   6.432 -0.2000  1.4361 -2.2318
 6648SOL     OW20842   1.738   1.027   3.957 -0.2667 -0.1928 -0.8891
 6648SOL    HW120843   1.826   1.043   3.911 -0.7996 -0.5820 -2.1001
 6648SOL    HW220844   1.724   0.928   3.966 -0.2735 -0.1213 -0.0641
 6649SOL     OW20845   2.603   1.754   5.909  0.7748  0.6050  0.3854
 6649SOL    HW120846   2.563   1.810   5.982 -0.3392 -0.7481  0.8574
 6649SOL    HW220847   2.529   1.707   5.860  1.5755  0.8274 -1.0678
 6650SOL     OW20848   6.805   4.269   2.508 -0.1578 -0.2229 -0.0496
 6650SOL    HW120849   6.808   4.252   2.607  2.8673  2.1357  0.3803
 6650SOL    HW220850   6.773   4.362   2.491  0.3365 -0.2503 -1.2294
 6651SOL     OW20851   6.697   3.632   4.241 -0.0372  0.4976  0.5205
 6651SOL    HW120852   6.612   3.670   4.205  0.4409 -0.0406 -1.3077
 6651SOL    HW220853   6.697   3.533   4.230  1.5412  0.6352 -1.2773
 6652SOL     OW20854   5.953   6.761   6.896  0.0284  0.3429  0.3145
 6652SOL    HW120855   5.979   6.664   6.896  0.9033  0.5762 -0.0665
 6652SOL    HW220856   5.876   6.775   6.833 -0.0276 -0.0779  0.2845
 6653SOL     OW20857   3.990   3.129   1.962 -0.9595 -0.8589  0.1015
 6653SOL    HW120858   4.013   3.107   2.057  0.0736 -0.7044 -0.1063
 6653SOL    HW220859   3.964   3.045   1.914  0.4105 -1.2539  0.0142
 6654SOL     OW20860   5.814   5.693   4.387 -0.1669  0.5335 -0.0232
 6654SOL    HW120861   5.894   5.690   4.447  0.2866 -1.7975 -0.6639
 6654SOL    HW220862   5.739   5.641   4.427  0.0767 -0.8916 -1.3258
 6655SOL     OW20863   0.889   1.821   1.828 -0.4191  0.1956  0.3131
 6655SOL    HW120864   0.859   1.886   1.758  0.0581  0.1196  0.0351
 6655SOL    HW220865   0.950   1.869   1.893  0.4579 -0.1200 -0.2620
 6656SOL     OW20866   6.183   1.885   2.257  0.6114  0.3112  0.1977
 6656SOL    HW120867   6.084   1.878   2.269  0.4432 -0.0609 -1.2752
 6656SOL    HW220868   6.223   1.794   2.245  0.7848  0.5934 -1.6009
 6657SOL     OW20869   1.753   6.059   1.869 -0.0022 -0.4065 -0.2798
 6657SOL    HW120870   1.738   5.960   1.871 -2.2536 -0.1187 -0.2568
 6657SOL    HW220871   1.672   6.106   1.903  1.4830  1.4587  0.9383
 6658SOL     OW20872   0.628   5.248   6.539  0.5178 -0.0061 -0.3307
 6658SOL    HW120873   0.615   5.292   6.628 -0.6325  0.0249 -0.4939
 6658SOL    HW220874   0.547   5.264   6.482  0.3314 -1.7863 -0.6285
 6659SOL     OW20875   3.049   6.712   6.651 -0.0190  0.1490  0.5332
 6659SOL    HW120876   3.143   6.677   6.652  0.7293  1.7366 -2.5812
 6659SOL    HW220877   3.034   6.765   6.568 -3.6632  0.1421  1.0343
 6660SOL     OW20878   4.708   4.183   0.371 -0.4196  0.2741 -0.0240
 6660SOL    HW120879   4.804   4.209   0.384 -0.4564  1.1540 -1.3661
 6660SOL    HW220880   4.674   4.139   0.455  0.4888  2.0018  1.3151
 6661SOL     OW20881   5.874   3.595   2.979 -0.8970  0.0531  0.1058
 6661SOL    HW120882   5.832   3.527   3.038 -0.5494 -1.0259 -0.8564
 6661SOL    HW220883   5.895   3.554   2.890 -1.5793  1.6696 -0.8475
 6662SOL     OW20884   5.553   6.241   2.782 -0.0137  0.0343 -0.1364
 6662SOL    HW120885   5.491   6.263   2.707  0.4274  1.1494 -0.1866
 6662SOL    HW220886   5.581   6.325   2.829 -0.0742 -0.6094  1.1209
 6663SOL     OW20887   5.949   2.676   2.022 -0.3694 -0.4692 -0.0365
 6663SOL    HW120888   5.930   2.579   2.006  0.9212 -0.5654 -1.1949
 6663SOL    HW220889   5.970   2.720   1.934 -0.6824  0.8074  0.5104
 6664SOL     OW20890   6.323   6.056   6.226 -0.2092  0.4129  0.5099
 6664SOL    HW120891   6.284   6.138   6.268  0.4640  0.3183  1.3384
 6664SOL    HW220892   6.269   5.976   6.253  1.3220  0.0774  2.8572
 6665SOL     OW20893   4.687   0.504   0.354 -0.5781  0.3938  0.5577
 6665SOL    HW120894   4.769   0.458   0.322 -0.4880  0.0678  1.2430
 6665SOL    HW220895   4.701   0.603   0.351 -0.0297  0.3371  0.9910
 6666SOL     OW20896   1.755   0.557   1.697  0.0878  0.5113 -0.3664
 6666SOL    HW120897   1.738   0.488   1.627 -1.4607  1.4471 -0.9944
 6666SOL    HW220898   1.797   0.637   1.655  0.1105  0.6784 -0.0293
 6667SOL     OW20899   6.517   2.475   3.220  0.6027  0.3522  0.3636
 6667SOL    HW120900   6.570   2.450   3.301  0.3563 -0.9406  0.1377
 6667SOL    HW220901   6.442   2.535   3.247  0.0913 -0.6413  1.2215
 6668SOL     OW20902   2.295   1.662   5.491 -0.1481 -0.2012 -0.1006
 6668SOL    HW120903   2.312   1.699   5.400 -0.1899  0.9630  0.3488
 6668SOL    HW220904   2.204   1.691   5.522 -0.0587 -0.4332  0.3914
 6669SOL     OW20905   4.106   6.013   6.222  0.7263 -0.3365 -0.0483
 6669SOL    HW120906   4.078   6.083   6.288  0.1792 -1.6613  1.1841
 6669SOL    HW220907   4.206   6.005   6.221  0.7247 -0.8432  1.2601
 6670SOL     OW20908   6.849   4.922   0.411 -0.1223  0.4146 -0.0486
 6670SOL    HW120909   6.811   5.005   0.451  2.5594  0.1962  3.5270
 6670SOL    HW220910   6.935   4.943   0.364 -0.7535 -0.0399 -1.4575
 6671SOL     OW20911   6.524   2.092   2.020  0.6951  0.6223 -0.1127
 6671SOL    HW120912   6.445   2.108   1.960  0.6879 -2.2638 -1.0458
 6671SOL    HW220913   6.492   2.062   2.110  0.5985 -1.7380 -0.8547
 6672SOL     OW20914   1.442   5.367   2.212  0.8105  0.7716 -0.3662
 6672SOL    HW120915   1.463   5.356   2.309  0.5346  1.3361 -0.2333
 6672SOL    HW220916   1.395   5.454   2.198 -0.8881 -0.1716 -0.7366
 6673SOL     OW20917   2.978   1.850   4.021  0.2140  0.2194  0.3464
 6673SOL    HW120918   3.004   1.913   4.094 -1.0403  1.4419 -0.2132
 6673SOL    HW220919   2.907   1.788   4.054  1.8210 -1.3386  1.0620
 6674SOL     OW20920   3.252   3.705   0.890  0.5224 -0.5329  0.4906
 6674SOL    HW120921   3.310   3.785   0.907  0.0175 -0.4595  2.0585
 6674SOL    HW220922   3.285   3.656   0.809 -0.4047  2.3738 -1.8137
 6675SOL     OW20923   2.940   6.333   3.830 -0.3510  0.5729 -0.2217
 6675SOL    HW120924   2.888   6.304   3.749 -0.0266  0.8814 -0.5396
 6675SOL    HW220925   2.943   6.257   3.896 -0.6708  0.3425 -0.4667
 6676SOL     OW20926   1.852   1.294   4.980 -0.3489  0.6540  0.1186
 6676SOL    HW120927   1.834   1.352   4.901 -0.9921  0.8240  0.3868
 6676SOL    HW220928   1.868   1.351   5.061  1.3917  0.5170 -0.0909
 6677SOL     OW20929   3.799   6.212   2.194 -0.1020  0.3385 -0.3458
 6677SOL    HW120930   3.741   6.163   2.129 -0.2359 -0.2597  0.2124
 6677SOL    HW220931   3.883   6.160   2.209  0.0687  0.6319 -0.2841
 6678SOL     OW20932   4.411   5.444   6.396 -0.0605 -0.6400 -0.0914
 6678SOL    HW120933   4.425   5.543   6.385 -0.1061 -0.7897 -1.6924
 6678SOL    HW220934   4.320   5.427   6.433  0.0941 -0.0709  0.5686
 6679SOL     OW20935   2.959   4.104   1.817  0.0799 -0.7674 -0.5870
 6679SOL    HW120936   2.945   4.183   1.876  0.7005 -0.2486 -1.1068
 6679SOL    HW220937   3.042   4.055   1.845 -1.5927 -2.7346  1.3096
 6680SOL     OW20938   3.176   6.287   0.067 -0.5911 -0.0635  0.0040
 6680SOL    HW120939   3.167   6.385   0.087 -2.7957  0.0506 -1.2183
 6680SOL    HW220940   3.199   6.275  -0.029 -1.5758 -0.7600 -0.1512
 6681SOL     OW20941   2.933   6.485   4.629 -0.6090  0.1195 -0.0070
 6681SOL    HW120942   2.834   6.482   4.615 -0.8259  0.5586  1.2824
 6681SOL    HW220943   2.958   6.422   4.703 -0.1855  1.3498  0.9276
 6682SOL     OW20944   1.689   3.745   5.495 -0.1477  0.1170  0.0847
 6682SOL    HW120945   1.636   3.671   5.537 -0.1417 -0.3164 -0.6481
 6682SOL    HW220946   1.675   3.744   5.396 -0.5069  1.4014  0.1091
 6683SOL     OW20947   4.905   2.396   0.291 -0.0000 -0.3896  0.0631
 6683SOL    HW120948   4.883   2.443   0.376 -1.0970  0.2923 -0.5736
 6683SOL    HW220949   4.828   2.338   0.264  0.7869 -1.4876  0.1057
 6684SOL     OW20950   0.803   1.300   5.794  0.0161  0.2083 -0.5228
 6684SOL    HW120951   0.758   1.365   5.732  2.3526  0.9237 -1.5915
 6684SOL    HW220952   0.815   1.344   5.884  0.3299  0.7576 -0.8242
 6685SOL     OW20953   1.400   5.189   4.842 -0.0793  0.0703  0.6538
 6685SOL    HW120954   1.360   5.258   4.902 -0.2184  0.2528  0.3502
 6685SOL    HW220955   1.350   5.103   4.851 -0.2703  0.1762  0.5921
 6686SOL     OW20956   4.311   4.206   0.065  0.0026 -0.0281  0.1869
 6686SOL    HW120957   4.218   4.214   0.101 -0.0527  0.1092  0.0184
 6686SOL    HW220958   4.373   4.178   0.138 -0.4671 -1.8805 -0.0810
 6687SOL     OW20959   5.256   5.413   3.941  0.2060  1.0397  0.2352
 6687SOL    HW120960   5.324   5.370   3.882 -0.7035  0.0967 -0.1681
 6687SOL    HW220961   5.261   5.372   4.032 -0.5162  0.1798 -0.0904
 6688SOL     OW20962   4.334   2.561   6.464  0.0452  0.3757  0.2252
 6688SOL    HW120963   4.244   2.601   6.483 -0.7630 -0.7405 -1.0692
 6688SOL    HW220964   4.361   2.584   6.371  0.1714 -0.9733 -0.0800
 6689SOL     OW20965   2.729   0.792   0.508 -0.3467 -0.1373  0.3418
 6689SOL    HW120966   2.756   0.782   0.412 -3.1994 -0.9722 -0.4720
 6689SOL    HW220967   2.780   0.727   0.564  0.3894 -0.6018 -0.8363
 6690SOL     OW20968   5.152   5.291   5.841 -0.4619  0.2397 -0.9385
 6690SOL    HW120969   5.210   5.234   5.782  0.2162  0.2495 -0.3061
 6690SOL    HW220970   5.157   5.386   5.810  0.7629  0.4298 -0.2453
 6691SOL     OW20971   5.326   4.815   0.979  0.1172  0.1644  0.0127
 6691SOL    HW120972   5.257   4.749   0.948 -0.1210  0.0898  0.6809
 6691SOL    HW220973   5.343   4.882   0.907 -0.3128 -0.0925 -0.3320
 6692SOL     OW20974   2.179   3.072   2.271 -0.1181  0.3729  0.0032
 6692SOL    HW120975   2.153   3.154   2.323 -0.5230 -0.3283  0.9240
 6692SOL    HW220976   2.279   3.070   2.262  0.0016  0.3145  1.1155
 6693SOL     OW20977   6.509   6.430   3.581 -0.6116  0.0377 -0.0308
 6693SOL    HW120978   6.422   6.477   3.565 -1.1435 -0.2302  1.8575
 6693SOL    HW220979   6.501   6.335   3.552 -0.8095  0.1228 -0.2625
 6694SOL     OW20980   3.979   1.861   3.061  0.2848 -0.4038 -0.4141
 6694SOL    HW120981   3.928   1.881   2.978  0.4386  0.8879 -0.2327
 6694SOL    HW220982   4.005   1.765   3.063  0.9564 -0.2973 -2.2333
 6695SOL     OW20983   5.455   1.524   5.597  0.3423 -0.4120 -0.3202
 6695SOL    HW120984   5.407   1.545   5.512 -1.7388 -1.2598  0.5664
 6695SOL    HW220985   5.484   1.428   5.596  1.8482  0.0201 -0.7318
 6696SOL     OW20986   0.951   5.801   4.123  0.3963 -0.6979  0.1311
 6696SOL    HW120987   0.924   5.758   4.209  0.8438  0.1123  0.6842
 6696SOL    HW220988   0.922   5.743   4.047 -1.8717 -0.4367  0.7228
 6697SOL     OW20989   2.728   6.255   5.517  0.2276  0.4371 -0.1668
 6697SOL    HW120990   2.768   6.276   5.606  0.8251 -1.1448 -0.0181
 6697SOL    HW220991   2.689   6.338   5.477  1.1885  1.4625  0.9394
 6698SOL     OW20992   1.293   5.168   1.304  0.0196 -0.1030  0.2286
 6698SOL    HW120993   1.206   5.119   1.312  0.8760 -1.7481 -0.0116
 6698SOL    HW220994   1.325   5.195   1.395 -0.2744 -0.3687  0.4117
 6699SOL     OW20995   0.578   3.539   5.902 -0.1910  0.4448  0.2592
 6699SOL    HW120996   0.614   3.615   5.957 -0.0773 -0.7211  1.8649
 6699SOL    HW220997   0.482   3.524   5.925 -0.0269 -0.3291  0.4476
 6700SOL     OW20998   4.357   6.643   3.308 -0.1412  0.3133  0.6025
 6700SOL    HW120999   4.312   6.730   3.330 -1.5779  0.0250 -0.9499
 6700SOL    HW221000   4.348   6.580   3.385 -0.4237  1.0305  1.1691
 6701SOL     OW21001   0.450   1.964   1.745  0.2741 -0.0165 -0.3927
 6701SOL    HW121002   0.446   2.049   1.797  1.9421 -0.9595  1.3920
 6701SOL    HW221003   0.358   1.940   1.715 -0.2915  2.1956 -0.6442
 6702SOL     OW21004   1.932   2.794   0.625  0.0075 -0.6465 -0.1121
 6702SOL    HW121005   1.963   2.813   0.532 -2.1838 -1.3040 -1.0526
 6702SOL    HW221006   1.858   2.726   0.623 -0.3088 -0.4592  2.0814
 6703SOL     OW21007   0.928   1.337   6.067  0.3907  0.8500  0.2431
 6703SOL    HW121008   0.920   1.314   6.164  0.5398  1.9533  0.5331
 6703SOL    HW221009   0.873   1.419   6.048 -1.3668 -0.5490 -1.0557
 6704SOL     OW21010   0.554   0.562   6.780 -0.1991  0.0996 -0.4791
 6704SOL    HW121011   0.489   0.507   6.726 -2.8587 -1.4230  3.7369
 6704SOL    HW221012   0.514   0.652   6.799  0.1730  0.2057 -0.1953
 6705SOL     OW21013   6.445   4.986   6.665 -0.4491  0.4089 -0.1269
 6705SOL    HW121014   6.489   5.064   6.710  1.7164 -0.5798 -0.3886
 6705SOL    HW221015   6.515   4.921   6.636 -2.1032 -1.0079 -1.1259
 6706SOL     OW21016   1.152   1.774   4.987 -0.2852 -0.1357  0.3502
 6706SOL    HW121017   1.183   1.679   4.989 -1.9130 -0.8039 -1.9865
 6706SOL    HW221018   1.231   1.835   4.979  0.7322 -1.6296 -3.0593
 6707SOL     OW21019   6.661   3.667   6.318 -0.0082 -0.2661  0.2031
 6707SOL    HW121020   6.580   3.613   6.340  0.8420 -1.8348 -0.3760
 6707SOL    HW221021   6.706   3.697   6.402 -0.5389 -0.3861  0.5316
 6708SOL     OW21022   4.874   1.678   3.078  0.0602  0.3171 -0.6102
 6708SOL    HW121023   4.858   1.772   3.108  0.6207 -0.3518  2.0542
 6708SOL    HW221024   4.806   1.618   3.119 -0.6083 -0.4138 -2.7145
 6709SOL     OW21025   4.219   1.354   2.209  0.6596  0.2145 -0.2336
 6709SOL    HW121026   4.259   1.387   2.123  0.0118 -1.7252 -1.3381
 6709SOL    HW221027   4.130   1.312   2.190 -0.3175  1.3099  1.6725
 6710SOL     OW21028   3.398   3.807   3.904  0.0790 -0.1048  0.3077
 6710SOL    HW121029   3.401   3.713   3.939  1.1753 -0.5317 -0.8514
 6710SOL    HW221030   3.322   3.855   3.947  1.7077 -0.3126  3.8552
 6711SOL     OW21031   1.186   3.698   5.925  0.5352 -0.8970 -0.2474
 6711SOL    HW121032   1.115   3.658   5.867 -0.2129  0.9149 -0.6607
 6711SOL    HW221033   1.192   3.647   6.010  0.4473 -2.5602 -1.1961
 6712SOL     OW21034   2.633   5.028   3.309 -0.1890 -0.4092 -0.4184
 6712SOL    HW121035   2.668   5.099   3.371  1.2657 -0.7371 -0.8081
 6712SOL    HW221036   2.616   5.068   3.219  0.2454 -0.4542 -0.5256
 6713SOL     OW21037   6.229   4.377   2.060 -0.2458  0.4743 -0.0285
 6713SOL    HW121038   6.154   4.401   2.121 -0.3121  0.7344 -0.2144
 6713SOL    HW221039   6.287   4.457   2.045 -0.5920  0.5841 -0.8194
 6714SOL     OW21040   6.276   6.837   0.794 -0.1926  0.1407 -0.2573
 6714SOL    HW121041   6.235   6.885   0.717  0.8833  0.2985 -0.7428
 6714SOL    HW221042   6.293   6.902   0.869 -0.4908  0.1437 -0.1916
 6715SOL     OW21043   3.428   2.078   1.959  0.2769 -0.4103  0.2313
 6715SOL    HW121044   3.337   2.117   1.945 -0.4873 -2.1079  0.2262
 6715SOL    HW221045   3.497   2.148   1.942 -1.0379  1.3535  1.7164
 6716SOL     OW21046   5.288   6.095   6.187  0.3154 -0.0849  0.3166
 6716SOL    HW121047   5.202   6.094   6.237 -0.4153 -0.4303 -0.9201
 6716SOL    HW221048   5.278   6.150   6.104  0.4392 -2.3283 -1.2589
 6717SOL     OW21049   3.850   3.895   0.079 -0.2952 -0.0397 -0.2524
 6717SOL    HW121050   3.923   3.960   0.055 -1.2015  0.1622 -2.8023
 6717SOL    HW221051   3.885   3.828   0.144  2.5409 -0.5704 -2.1370
 6718SOL     OW21052   3.000   1.771   0.068 -0.1404  0.2714  0.3807
 6718SOL    HW121053   2.903   1.777   0.094 -0.2812  3.4440 -0.4143
 6718SOL    HW221054   3.008   1.735  -0.024 -0.5941  0.1790  0.3757
 6719SOL     OW21055   3.836   3.930   6.666  0.4927  0.6827 -0.2594
 6719SOL    HW121056   3.746   3.938   6.623  0.8606  1.2887 -0.9345
 6719SOL    HW221057   3.842   3.842   6.713  0.6555 -0.7486 -2.8110
 6720SOL     OW21058   0.512   5.024   0.518 -0.2506 -0.2019  0.3898
 6720SOL    HW121059   0.413   5.030   0.527 -0.3182 -0.2191 -0.3602
 6720SOL    HW221060   0.546   5.098   0.460  0.1407 -0.3782  0.3876
 6721SOL     OW21061   4.680   3.150   0.977  0.2534 -0.6107  0.2116
 6721SOL    HW121062   4.596   3.116   0.934  0.7561 -0.3782 -0.9859
 6721SOL    HW221063   4.730   3.207   0.912  1.7000 -1.3234  0.6710
 6722SOL     OW21064   2.228   1.223   3.655 -0.5324  0.2382  0.3651
 6722SOL    HW121065   2.290   1.167   3.711 -0.6840 -1.3996 -1.0055
 6722SOL    HW221066   2.174   1.163   3.596  0.0021  1.8866 -1.9436
 6723SOL     OW21067   0.170   1.354   1.001  0.2694  0.2066  0.0083
 6723SOL    HW121068   0.077   1.352   0.964 -0.0283 -1.2047  0.7880
 6723SOL    HW221069   0.212   1.442   0.979 -0.6534  0.2571 -1.7822
 6724SOL     OW21070   1.045   3.956   5.778 -0.4125  0.5073  0.5070
 6724SOL    HW121071   1.060   3.861   5.808 -0.5416  0.5034  0.5592
 6724SOL    HW221072   1.130   3.993   5.742 -0.4684  0.2220  0.0753
 6725SOL     OW21073   2.391   5.554   3.497  0.3983  0.4812 -0.5621
 6725SOL    HW121074   2.320   5.598   3.552  0.3509 -0.4693  0.1833
 6725SOL    HW221075   2.378   5.455   3.501  2.4707  0.1968  0.6175
 6726SOL     OW21076   0.484   2.447   4.996 -0.0910 -0.0985 -0.7094
 6726SOL    HW121077   0.542   2.526   5.013 -0.4107  0.1320 -0.6854
 6726SOL    HW221078   0.448   2.452   4.903 -1.9792  1.0055  0.0341
 6727SOL     OW21079   2.218   4.781   4.300 -0.2606  0.2481  0.0338
 6727SOL    HW121080   2.279   4.737   4.233 -0.3399  0.4903 -0.2006
 6727SOL    HW221081   2.167   4.711   4.349  3.3934 -0.3785  3.4395
 6728SOL     OW21082   6.738   4.781   6.839 -0.3953  0.2207  0.5781
 6728SOL    HW121083   6.685   4.776   6.754  0.2976  0.0020  0.1517
 6728SOL    HW221084   6.802   4.858   6.834  2.0223 -1.7370 -0.5108
 6729SOL     OW21085   1.646   2.268   6.080  0.7619  0.4042  0.6582
 6729SOL    HW121086   1.573   2.206   6.051 -0.6332  0.1755  4.1494
 6729SOL    HW221087   1.660   2.339   6.011 -2.9285  0.5428 -0.1208
 6730SOL     OW21088   5.727   4.789   1.552 -0.3276  0.3354 -0.5915
 6730SOL    HW121089   5.672   4.848   1.612 -1.0624 -1.0048  0.0901
 6730SOL    HW221090   5.704   4.694   1.569  0.9031 -0.1692 -1.6221
 6731SOL     OW21091   1.068   2.052   2.809 -0.5071 -0.2809 -0.3343
 6731SOL    HW121092   1.083   1.982   2.738  0.7307 -0.9019  0.4861
 6731SOL    HW221093   1.064   2.142   2.766 -3.1683 -0.8721 -1.5391
 6732SOL     OW21094   6.676   4.852   1.157 -0.5615 -0.0288  0.5509
 6732SOL    HW121095   6.673   4.884   1.063 -0.0010 -0.6080  0.3305
 6732SOL    HW221096   6.595   4.797   1.177 -1.0326  0.6841  0.6283
 6733SOL     OW21097   2.085   2.647   5.899  0.2085 -0.3094  0.1074
 6733SOL    HW121098   2.149   2.698   5.842 -0.9599  2.8424  1.4070
 6733SOL    HW221099   1.994   2.687   5.892 -0.7083 -1.9534  1.6289
 6734SOL     OW21100   3.652   3.265   6.721  0.2286 -0.8558 -0.1662
 6734SOL    HW121101   3.594   3.224   6.791 -0.3126 -1.0022 -0.6946
 6734SOL    HW221102   3.730   3.205   6.703 -0.2273 -1.3578 -0.4873
 6735SOL     OW21103   2.297   4.320   6.825 -0.8696 -0.7708 -0.2902
 6735SOL    HW121104   2.202   4.350   6.824 -1.9760 -3.6200  2.5736
 6735SOL    HW221105   2.357   4.400   6.837 -3.1105  0.8397  0.9343
 6736SOL     OW21106   4.276   2.373   4.441 -0.0220  0.1262 -0.2866
 6736SOL    HW121107   4.281   2.334   4.533 -1.1433 -0.3596 -0.4118
 6736SOL    HW221108   4.343   2.446   4.432  0.5316 -0.2402  0.7111
 6737SOL     OW21109   1.411   0.009   6.637  0.1832  0.1000 -0.0875
 6737SOL    HW121110   1.467  -0.072   6.653  0.1673  0.3798  1.5845
 6737SOL    HW221111   1.457   0.071   6.573  1.9229  0.4333  1.4223
 6738SOL     OW21112   3.295   2.627   0.086  0.3045 -0.3025 -0.4322
 6738SOL    HW121113   3.306   2.530   0.067  0.8644 -0.8929  2.4100
 6738SOL    HW221114   3.270   2.640   0.182  0.2036  2.3780 -0.7250
 6739SOL     OW21115   4.443   0.267   0.568 -0.1262  0.2624  0.0338
 6739SOL    HW121116   4.487   0.241   0.482 -1.1308 -1.4031 -0.0310
 6739SOL    HW221117   4.506   0.321   0.624  1.1187 -0.0469 -1.0362
 6740SOL     OW21118   6.501   4.068   5.666 -0.0164  0.0007 -0.2500
 6740SOL    HW121119   6.417   4.014   5.662  0.2024 -0.3229 -0.6334
 6740SOL    HW221120   6.524   4.087   5.761 -0.8179  0.5661 -0.1570
 6741SOL     OW21121   2.080   6.173   5.096 -0.2992 -0.2768  0.0135
 6741SOL    HW121122   2.136   6.131   5.024 -0.2216 -0.9318  0.4456
 6741SOL    HW221123   2.095   6.125   5.182 -0.4442  0.4616  0.4565
 6742SOL     OW21124   6.030   4.088   6.680  0.3116  0.3639  0.1117
 6742SOL    HW121125   6.051   4.053   6.772  0.3173  0.9832  0.3499
 6742SOL    HW221126   6.095   4.049   6.614 -0.1717 -0.6793  0.2423
 6743SOL     OW21127   4.327   0.808   4.342  0.7045  0.5592 -0.2538
 6743SOL    HW121128   4.365   0.871   4.410  1.0607 -1.2505  1.2936
 6743SOL    HW221129   4.249   0.759   4.382  0.5444 -0.1183 -1.3678
 6744SOL     OW21130   2.297   2.066   3.275  0.9545  0.4173 -0.0940
 6744SOL    HW121131   2.337   2.148   3.234 -0.7752  0.6513 -1.4311
 6744SOL    HW221132   2.207   2.090   3.313  0.4346 -0.8444 -0.4956
 6745SOL     OW21133   0.069   0.122   5.386  0.1447 -0.0637  0.5703
 6745SOL    HW121134   0.082   0.064   5.467  0.2543 -0.7249  0.0853
 6745SOL    HW221135   0.146   0.184   5.376 -0.1818  0.4856  1.3448
 6746SOL     OW21136   4.958   6.172   4.041 -0.9620 -0.6926  0.6727
 6746SOL    HW121137   4.970   6.171   3.942 -0.3648  1.0414  0.6958
 6746SOL    HW221138   4.871   6.128   4.064 -2.4026  1.1663 -0.8450
 6747SOL     OW21139   4.725   1.501   4.477  0.3749  0.2452  0.0172
 6747SOL    HW121140   4.686   1.426   4.423 -1.3837 -0.0250  1.5438
 6747SOL    HW221141   4.809   1.470   4.521  0.6321 -0.2328 -0.7955
 6748SOL     OW21142   5.202   6.295   6.027  0.1169  0.5897  0.7074
 6748SOL    HW121143   5.123   6.281   5.967  0.2173 -1.8311  1.0488
 6748SOL    HW221144   5.199   6.388   6.064 -0.7299  1.6740 -1.8544
 6749SOL     OW21145   1.591   4.606   3.153 -0.1323 -0.0691  0.2569
 6749SOL    HW121146   1.536   4.543   3.098 -0.1992  0.9030 -0.8486
 6749SOL    HW221147   1.537   4.688   3.172  1.3628  1.6489 -2.2582
 6750SOL     OW21148   3.071   3.333   2.834  0.0629 -0.6673  0.3263
 6750SOL    HW121149   3.054   3.428   2.860  0.2403 -0.7886  0.8923
 6750SOL    HW221150   3.169   3.319   2.818 -0.1139 -0.4318 -1.0825
 6751SOL     OW21151   1.486   5.856   2.125  0.0161 -0.3316 -0.7637
 6751SOL    HW121152   1.452   5.921   2.193 -0.8464 -1.8284  0.2880
 6751SOL    HW221153   1.584   5.872   2.111 -0.1088  0.9926 -0.3196
 6752SOL     OW21154   2.046   6.002   1.848 -0.0196  0.6035 -0.0165
 6752SOL    HW121155   1.974   6.068   1.825  0.4552  1.1407  0.0323
 6752SOL    HW221156   2.123   6.014   1.787 -0.2401 -0.4460 -0.5280
 6753SOL     OW21157   0.035   2.978   4.471  0.7826  0.6808 -0.0175
 6753SOL    HW121158   0.077   3.068   4.483  2.8230  0.0459 -1.8718
 6753SOL    HW221159   0.104   2.907   4.484 -0.8483 -0.6921  1.6674
 6754SOL     OW21160   4.949   6.278   5.023 -0.4042 -0.1311  0.3646
 6754SOL    HW121161   4.946   6.323   4.933 -0.6694 -1.5745 -0.3763
 6754SOL    HW221162   4.859   6.239   5.043 -0.4333  0.4380  1.4193
 6755SOL     OW21163   3.689   1.864   1.065  0.3295  0.5518  0.5345
 6755SOL    HW121164   3.668   1.945   1.120 -0.0821  0.8477 -0.0466
 6755SOL    HW221165   3.719   1.893   0.974  1.4554  0.0801  0.7434
 6756SOL     OW21166   6.479   1.871   2.911 -0.0904 -0.3609 -0.0547
 6756SOL    HW121167   6.445   1.788   2.954 -1.9396  0.3730 -0.0186
 6756SOL    HW221168   6.479   1.859   2.812  0.8055 -0.8054 -0.0137
 6757SOL     OW21169   0.609   5.967   1.012 -0.0296  0.0753 -0.2133
 6757SOL    HW121170   0.587   5.929   1.102 -1.2977 -0.6953 -0.8208
 6757SOL    HW221171   0.560   6.054   1.000 -0.0217  0.0751 -0.2479
 6758SOL     OW21172   4.526   4.191   6.659  0.3786  0.0763  0.0338
 6758SOL    HW121173   4.460   4.233   6.596 -0.9324 -0.1476  1.2156
 6758SOL    HW221174   4.553   4.102   6.623 -2.9049 -1.5892  1.2579
 6759SOL     OW21175   2.175   0.959   5.180 -0.0434  0.3306 -0.1789
 6759SOL    HW121176   2.183   1.043   5.234  1.1776 -0.2368  0.5722
 6759SOL    HW221177   2.132   0.888   5.235 -1.2390  0.4957 -0.8757
 6760SOL     OW21178   5.778   0.541   5.385  0.5119 -0.0411  0.1400
 6760SOL    HW121179   5.753   0.451   5.350  0.3484 -0.1736  0.5860
 6760SOL    HW221180   5.852   0.579   5.330 -0.1972  0.0553 -0.7719
 6761SOL     OW21181   4.169   4.747   6.419 -0.1682 -0.1555  0.0001
 6761SOL    HW121182   4.114   4.712   6.495  0.7493  0.3084  0.8908
 6761SOL    HW221183   4.176   4.677   6.348  0.0295 -1.0614  0.8987
 6762SOL     OW21184   3.050   1.172   5.000  0.4214 -0.4631 -0.1952
 6762SOL    HW121185   2.978   1.151   4.934  0.0583 -1.8524  0.6021
 6762SOL    HW221186   3.093   1.259   4.976 -2.0088  0.7801 -0.2474
 6763SOL     OW21187   2.420   6.551   0.031  0.2001 -0.4681 -0.7356
 6763SOL    HW121188   2.496   6.604  -0.007  1.9417 -0.6817  2.2012
 6763SOL    HW221189   2.439   6.453   0.019 -0.1191 -0.5148 -0.8731
 6764SOL     OW21190   4.933   3.360   4.995  0.1854  0.0952  0.4857
 6764SOL    HW121191   4.886   3.448   5.000 -0.7841 -0.1879 -1.9693
 6764SOL    HW221192   5.022   3.368   5.039 -0.3142  1.9825  1.2720
 6765SOL     OW21193   1.484   0.552   3.819  0.2472 -0.0470  0.5756
 6765SOL    HW121194   1.421   0.496   3.765 -1.1382 -0.5303  2.6106
 6765SOL    HW221195   1.559   0.583   3.760 -0.2743 -1.9354 -1.1934
 6766SOL     OW21196   1.215   6.433   3.430 -0.2553 -0.1744 -0.5250
 6766SOL    HW121197   1.261   6.494   3.494 -2.4320  1.0177  0.0021
 6766SOL    HW221198   1.133   6.395   3.473 -1.1181 -0.3088 -2.1925
 6767SOL     OW21199   2.291   6.856   3.304  0.5824  0.6653  0.5687
 6767SOL    HW121200   2.357   6.781   3.304  3.0848  2.6742 -0.4129
 6767SOL    HW221201   2.211   6.830   3.249  1.8192 -0.9318 -0.5905
 6768SOL     OW21202   5.302   6.302   1.067 -0.1699 -0.0559  0.1787
 6768SOL    HW121203   5.312   6.339   1.159 -2.1410  2.2246 -0.4052
 6768SOL    HW221204   5.297   6.378   1.002  0.2007 -1.5850 -1.7008
 6769SOL     OW21205   6.125   5.450   2.358  0.1242  0.2828  0.0610
 6769SOL    HW121206   6.146   5.386   2.285 -0.1012 -1.9412  1.8253
 6769SOL    HW221207   6.034   5.488   2.345 -0.7058 -1.5895  0.1509
 6770SOL     OW21208   5.754   5.367   5.689 -0.9751  0.3126  0.0051
 6770SOL    HW121209   5.710   5.348   5.777  3.1691 -2.4472  1.7840
 6770SOL    HW221210   5.750   5.285   5.631  1.3785  0.0233  0.1496
 6771SOL     OW21211   5.542   1.635   0.926 -0.3364  0.0213  0.1457
 6771SOL    HW121212   5.589   1.634   1.015 -2.4313 -1.0894  1.3403
 6771SOL    HW221213   5.496   1.723   0.914  0.3291  0.3449 -0.0654
 6772SOL     OW21214   0.773   2.405   4.290  0.0691  0.2056  0.0812
 6772SOL    HW121215   0.773   2.306   4.294  1.5085  0.1695 -0.2368
 6772SOL    HW221216   0.717   2.436   4.213 -0.8157 -0.3270  0.5035
 6773SOL     OW21217   2.087   5.074   3.542 -0.0098 -0.6333  0.1308
 6773SOL    HW121218   2.066   5.123   3.627  1.0010 -1.1672  0.7069
 6773SOL    HW221219   2.100   5.140   3.468  0.4775 -0.0764  0.6984
 6774SOL     OW21220   6.675   1.439   4.256 -0.3747 -0.0648  0.1463
 6774SOL    HW121221   6.746   1.444   4.186  0.5841 -0.3532  1.0691
 6774SOL    HW221222   6.717   1.415   4.344 -1.7318 -1.0831  0.5427
 6775SOL     OW21223   6.792   1.712   5.276 -0.3127  0.4656  0.6681
 6775SOL    HW121224   6.805   1.704   5.375 -1.3142  0.5811  0.8268
 6775SOL    HW221225   6.869   1.762   5.236  0.7820 -0.7675  1.1762
 6776SOL     OW21226   2.763   6.465   3.381  0.3437 -0.1146 -0.3752
 6776SOL    HW121227   2.796   6.559   3.391 -0.0837  0.0763 -0.7554
 6776SOL    HW221228   2.825   6.414   3.322  1.0150 -0.3009  0.4691
 6777SOL     OW21229   4.550   1.394   0.079  0.7042 -0.5858  0.6009
 6777SOL    HW121230   4.573   1.304   0.115  3.0190 -0.5426 -0.5926
 6777SOL    HW221231   4.634   1.443   0.056 -0.5564  0.7401 -1.4868
 6778SOL     OW21232   2.061   1.918   0.501 -0.1730 -0.1796  0.0024
 6778SOL    HW121233   2.074   1.903   0.404  0.6008  1.1508 -0.1275
 6778SOL    HW221234   2.007   2.001   0.515 -0.0032 -0.1800  0.7111
 6779SOL     OW21235   3.278   4.984   3.047  0.3591  0.0873 -0.0975
 6779SOL    HW121236   3.191   4.941   3.071  0.4301 -0.2217 -0.3823
 6779SOL    HW221237   3.319   4.935   2.969  0.4839  0.6097 -0.3677
 6780SOL     OW21238   6.198   1.193   0.562  0.1440  0.2316 -0.0333
 6780SOL    HW121239   6.100   1.193   0.584  0.1638 -0.9958  0.1073
 6780SOL    HW221240   6.210   1.197   0.463 -0.0695 -0.3284 -0.0854
 6781SOL     OW21241   0.368   3.049   1.162  0.6070 -0.3419 -0.1186
 6781SOL    HW121242   0.295   3.080   1.102 -2.0440 -0.5506  2.7157
 6781SOL    HW221243   0.376   2.950   1.157 -0.0894 -0.4296  0.2903
 6782SOL     OW21244   3.551   0.360   6.317 -0.3227  1.0558 -0.0147
 6782SOL    HW121245   3.581   0.276   6.272  0.6273  1.1081  0.4943
 6782SOL    HW221246   3.502   0.336   6.401 -0.8487  0.9956 -0.3335
 6783SOL     OW21247   0.200   5.510   0.842 -0.1093 -0.1886 -0.5279
 6783SOL    HW121248   0.125   5.538   0.782  0.7014  0.5394 -1.2236
 6783SOL    HW221249   0.258   5.444   0.795  0.9577  0.9507 -0.8547
 6784SOL     OW21250   6.630   4.729   1.866 -0.0905  0.4830  0.1988
 6784SOL    HW121251   6.695   4.791   1.823  1.0960 -0.1897  0.9785
 6784SOL    HW221252   6.577   4.778   1.935  2.1932  0.2877  2.2257
 6785SOL     OW21253   1.808   6.208   1.382 -0.2323 -0.3395 -0.3056
 6785SOL    HW121254   1.905   6.199   1.358  0.1771  2.3226 -0.0564
 6785SOL    HW221255   1.752   6.188   1.301  0.5990 -0.6009 -0.8334
 6786SOL     OW21256   6.394   6.154   2.972  0.3592  0.3128 -0.0149
 6786SOL    HW121257   6.408   6.089   2.898 -0.3252 -2.2604  1.9768
 6786SOL    HW221258   6.298   6.153   3.000  0.6482  1.0208  1.0688
 6787SOL     OW21259   2.451   0.311   6.066  0.1809 -1.0236  0.2519
 6787SOL    HW121260   2.501   0.237   6.021  0.5432 -0.0806 -0.9676
 6787SOL    HW221261   2.357   0.283   6.083  0.9583 -2.6929  2.2209
 6788SOL     OW21262   6.716   5.787   0.007  0.4128  0.1675 -0.0060
 6788SOL    HW121263   6.676   5.855  -0.055  1.4064  0.8071  0.0239
 6788SOL    HW221264   6.814   5.779  -0.011  0.5803 -0.1863  0.9791
 6789SOL     OW21265   3.595   1.555   4.806 -0.6608 -0.3950  0.1735
 6789SOL    HW121266   3.533   1.634   4.808 -0.2582 -0.0803  0.3260
 6789SOL    HW221267   3.688   1.586   4.824 -0.6122 -1.0146  0.9886
 6790SOL     OW21268   4.378   4.468   6.716 -0.2495  0.0133  0.1265
 6790SOL    HW121269   4.387   4.464   6.815 -0.0606 -0.3887  0.0924
 6790SOL    HW221270   4.463   4.503   6.676 -0.8219  1.5980  0.2017
 6791SOL     OW21271   2.905   3.660   5.191 -0.1511 -0.8948 -0.3405
 6791SOL    HW121272   2.873   3.655   5.097 -0.0766 -2.1644 -0.3138
 6791SOL    HW221273   2.877   3.747   5.231  0.3335 -0.0750 -1.7110
 6792SOL     OW21274   4.398   2.572   1.358  0.5301  0.1302 -0.4977
 6792SOL    HW121275   4.331   2.637   1.324  0.2714  0.1265 -0.0045
 6792SOL    HW221276   4.450   2.534   1.281  0.2272  0.4132 -0.8453
 6793SOL     OW21277   2.732   6.439   4.230 -0.5302 -0.0790  0.9861
 6793SOL    HW121278   2.732   6.502   4.307 -0.7461  0.2512  0.7171
 6793SOL    HW221279   2.792   6.361   4.250  1.6486  1.3526  0.4080
 6794SOL     OW21280   5.515   6.014   3.967 -0.0140  0.1455  0.6265
 6794SOL    HW121281   5.521   5.984   4.062 -0.7086 -2.1371  0.0098
 6794SOL    HW221282   5.428   6.060   3.952 -0.2639 -0.2361  0.9056
 6795SOL     OW21283   4.540   4.615   4.197  0.1998 -0.6797  0.6393
 6795SOL    HW121284   4.559   4.649   4.289 -0.2597 -0.8985  0.8203
 6795SOL    HW221285   4.567   4.684   4.129 -0.0084 -0.2737  0.9631
 6796SOL     OW21286   1.516   3.125   0.933 -0.1043  0.0414 -0.8440
 6796SOL    HW121287   1.601   3.158   0.892 -0.8792  1.2534 -1.5299
 6796SOL    HW221288   1.453   3.201   0.946 -0.4494 -0.5375  1.2919
 6797SOL     OW21289   5.195   3.659   4.718  0.1966 -0.1014  0.0417
 6797SOL    HW121290   5.148   3.709   4.645  0.5884 -1.0596 -0.9000
 6797SOL    HW221291   5.140   3.660   4.800 -0.4529  0.6475 -0.3883
 6798SOL     OW21292   2.937   5.356   2.715  0.3676  0.0227 -0.1127
 6798SOL    HW121293   2.967   5.346   2.621 -1.3332  1.8415 -0.9120
 6798SOL    HW221294   2.847   5.312   2.726  0.9297 -0.9362  0.9234
 6799SOL     OW21295   2.015   5.037   0.681 -0.4000 -0.3627 -0.2788
 6799SOL    HW121296   1.972   5.081   0.602 -2.9201 -1.9111  0.1172
 6799SOL    HW221297   1.983   4.942   0.688  2.1932 -1.2466  0.8476
 6800SOL     OW21298   3.412   6.327   1.504 -0.4987  0.2257  0.0521
 6800SOL    HW121299   3.466   6.342   1.587  0.1277 -1.4097 -0.0263
 6800SOL    HW221300   3.322   6.368   1.515 -0.1348  0.7543  1.2041
 6801SOL     OW21301   2.161   6.116   2.457  0.0486 -0.1347  0.2799
 6801SOL    HW121302   2.232   6.159   2.401 -1.2470  1.6525 -0.0866
 6801SOL    HW221303   2.193   6.110   2.552  0.3983  1.4223  0.2938
 6802SOL     OW21304   3.701   5.771   6.051  0.3962 -0.0817 -0.4173
 6802SOL    HW121305   3.711   5.713   6.131 -0.4212  0.7427  0.3043
 6802SOL    HW221306   3.788   5.776   6.002  0.7698 -0.9817  0.1431
 6803SOL     OW21307   0.764   6.036   4.108 -0.1166  0.0766  0.4902
 6803SOL    HW121308   0.678   5.998   4.141 -1.0046  1.3701 -0.2608
 6803SOL    HW221309   0.820   5.963   4.068 -1.3616 -0.5792 -0.0822
 6804SOL     OW21310   0.234   6.208   5.560  0.1110 -0.0715  0.0867
 6804SOL    HW121311   0.275   6.300   5.563 -1.2706  0.5547  0.6082
 6804SOL    HW221312   0.206   6.187   5.467  0.3247  0.0783 -0.0133
 6805SOL     OW21313   6.368   4.768   0.643 -0.0889  0.7067  0.7237
 6805SOL    HW121314   6.275   4.785   0.609  0.0431 -1.4499 -0.8980
 6805SOL    HW221315   6.365   4.755   0.742 -1.7705 -0.6855  0.5414
 6806SOL     OW21316   2.445   3.637   6.812 -0.4891  0.2041 -0.7204
 6806SOL    HW121317   2.395   3.593   6.886  1.7969 -1.7998 -0.2116
 6806SOL    HW221318   2.542   3.641   6.836 -0.2235  3.2848 -1.9234
 6807SOL     OW21319   6.664   5.202   6.007  0.0748  0.4799  0.5619
 6807SOL    HW121320   6.613   5.221   5.923 -0.1875  1.0975  0.8510
 6807SOL    HW221321   6.762   5.210   5.989  0.0341  0.2699  0.2373
 6808SOL     OW21322   2.526   4.822   0.583  0.7532 -0.2011 -0.5209
 6808SOL    HW121323   2.485   4.843   0.672 -0.1145  0.8374 -1.1371
 6808SOL    HW221324   2.625   4.832   0.588  0.5971  1.3751 -0.0425
 6809SOL     OW21325   4.673   6.252   3.460 -0.0675 -0.6837  0.6061
 6809SOL    HW121326   4.619   6.331   3.487  1.5690  0.7837 -0.2488
 6809SOL    HW221327   4.633   6.211   3.378  0.8722  1.3079 -0.9234
 6810SOL     OW21328   6.423   3.451   6.807  0.1156  0.2922  0.2932
 6810SOL    HW121329   6.468   3.510   6.741  0.7384  0.7614  1.1122
 6810SOL    HW221330   6.437   3.355   6.782  2.5395  0.3693  1.0752
 6811SOL     OW21331   5.979   4.284   5.514  0.4629  0.1017 -0.1382
 6811SOL    HW121332   5.939   4.369   5.548  0.2493 -0.1761  0.3214
 6811SOL    HW221333   6.070   4.303   5.476 -0.7901  1.0368 -2.8571
 6812SOL     OW21334   0.586   2.638   6.854  0.3477 -0.2313 -0.2767
 6812SOL    HW121335   0.623   2.718   6.902  0.6600  0.2839 -1.3479
 6812SOL    HW221336   0.571   2.661   6.758 -1.2930 -0.9219 -0.2126
 6813SOL     OW21337   0.410   3.644   4.044 -0.1950  0.3323  0.2361
 6813SOL    HW121338   0.436   3.710   4.114  1.2155  0.9808 -0.8398
 6813SOL    HW221339   0.493   3.603   4.004 -1.0169 -1.4147  0.2252
 6814SOL     OW21340   5.995   2.643   3.909 -0.1196  0.2426 -0.2244
 6814SOL    HW121341   5.895   2.647   3.906 -0.2876 -1.8428  0.8134
 6814SOL    HW221342   6.024   2.602   3.996  1.6952  1.4405 -0.2036
 6815SOL     OW21343   1.877   5.005   1.756 -0.2281 -0.5179 -0.7522
 6815SOL    HW121344   1.846   5.074   1.821  0.5539  0.6008 -1.5269
 6815SOL    HW221345   1.804   4.985   1.691 -0.6886 -0.9391 -0.1159
 6816SOL     OW21346   4.561   1.278   4.386  0.2580  0.3636 -0.1927
 6816SOL    HW121347   4.489   1.324   4.437  0.3356  0.2191  0.0472
 6816SOL    HW221348   4.594   1.199   4.437  0.8335  0.6349 -0.1324
 6817SOL     OW21349   4.598   6.571   6.259  0.1711  0.1024  0.2592
 6817SOL    HW121350   4.500   6.557   6.270  0.1319 -1.4436 -1.6581
 6817SOL    HW221351   4.647   6.492   6.296  0.5782 -0.0663 -0.6378
 6818SOL     OW21352   7.017   2.643   0.182  0.4193  0.0344 -0.1164
 6818SOL    HW121353   6.995   2.738   0.162  0.5201  0.2618  0.8304
 6818SOL    HW221354   6.933   2.590   0.193  0.3586 -0.0792 -0.9881
 6819SOL     OW21355   3.715   0.468   3.502  0.1589 -0.3842 -0.4429
 6819SOL    HW121356   3.768   0.393   3.464 -0.7126 -1.7388  0.8901
 6819SOL    HW221357   3.763   0.555   3.487  2.1538 -1.4191 -0.3228
 6820SOL     OW21358   5.959   3.456   1.887  0.0505  0.3331  0.2374
 6820SOL    HW121359   5.934   3.548   1.857 -0.0527  0.7423  1.5008
 6820SOL    HW221360   5.910   3.435   1.972  0.7972 -0.5126  0.4683
 6821SOL     OW21361   0.065   2.389   4.592  0.1573  0.2825 -0.0309
 6821SOL    HW121362  -0.029   2.411   4.566  0.2212  2.7007  1.4768
 6821SOL    HW221363   0.069   2.369   4.690  0.7325 -3.4436 -0.6605
 6822SOL     OW21364   5.908   4.768   5.204  0.3733 -0.3347 -0.3333
 6822SOL    HW121365   5.842   4.804   5.269  1.2298  0.6061  0.0447
 6822SOL    HW221366   5.955   4.844   5.158  1.1531 -0.9691 -0.6222
 6823SOL     OW21367   4.080   6.873   5.754 -0.1409 -0.4279  0.2050
 6823SOL    HW121368   3.999   6.830   5.795 -0.3421 -0.5189 -0.2784
 6823SOL    HW221369   4.051   6.938   5.685  0.2084 -0.6919 -0.1918
 6824SOL     OW21370   2.787   4.062   6.442 -0.0412 -0.2399 -0.5419
 6824SOL    HW121371   2.729   4.024   6.515 -0.1191  0.8922  0.0106
 6824SOL    HW221372   2.873   4.093   6.482 -0.5513  1.4720 -0.6926
 6825SOL     OW21373   6.523   6.329   5.901 -0.1331 -0.3036 -0.4331
 6825SOL    HW121374   6.614   6.367   5.882  0.6389 -0.8937  1.7195
 6825SOL    HW221375   6.529   6.230   5.911 -0.8357 -0.2774  0.4656
 6826SOL     OW21376   3.793   5.848   6.733 -0.1880  0.0053  0.0624
 6826SOL    HW121377   3.848   5.767   6.752 -0.6218  0.1025  1.9720
 6826SOL    HW221378   3.783   5.860   6.634 -0.9379 -2.8252 -0.2803
 6827SOL     OW21379   0.418   2.772   5.624 -0.1508 -0.0587 -0.6846
 6827SOL    HW121380   0.381   2.839   5.560  0.1777  1.0683  0.2549
 6827SOL    HW221381   0.362   2.771   5.707  1.9105  1.8216  0.8517
 6828SOL     OW21382   2.471   3.228   1.216  0.2603 -0.4796  0.2953
 6828SOL    HW121383   2.431   3.316   1.191  0.6322 -0.9698 -2.2015
 6828SOL    HW221384   2.497   3.230   1.313  0.9613  2.4126  0.1229
 6829SOL     OW21385   4.354   1.092   6.932  0.1466 -0.1164  0.5129
 6829SOL    HW121386   4.285   1.028   6.964 -1.5711  1.8993  1.0495
 6829SOL    HW221387   4.418   1.044   6.872 -0.5215 -2.4841  1.5791
 6830SOL     OW21388   3.623   5.933   4.247 -0.1972 -0.2552 -0.2106
 6830SOL    HW121389   3.562   5.982   4.310 -0.7304 -2.5102  1.1682
 6830SOL    HW221390   3.652   5.847   4.290  0.7073 -1.1437 -2.4611
 6831SOL     OW21391   4.309   2.520   5.946 -0.5732  0.2524  0.1503
 6831SOL    HW121392   4.316   2.547   5.850 -0.9145  1.9403  0.5608
 6831SOL    HW221393   4.401   2.513   5.985 -0.4415 -0.2326 -0.2360
 6832SOL     OW21394   6.120   6.259   1.081 -0.0163  0.0193 -0.3878
 6832SOL    HW121395   6.164   6.289   1.166 -0.6042  0.3259 -0.1873
 6832SOL    HW221396   6.116   6.336   1.017 -1.5624  0.4117  0.1410
 6833SOL     OW21397   1.532   1.021   0.883 -0.4197  0.0986  0.0766
 6833SOL    HW121398   1.476   1.102   0.900  0.5465  1.0638 -1.1093
 6833SOL    HW221399   1.622   1.033   0.925 -0.3518 -0.4925  0.1146
 6834SOL     OW21400   4.286   1.827   0.061  0.1486  0.0008 -0.2259
 6834SOL    HW121401   4.258   1.737   0.026  1.9159 -0.7445  0.1570
 6834SOL    HW221402   4.248   1.899   0.003  2.0345 -1.1372 -3.1248
 6835SOL     OW21403   0.766   6.873   6.128 -0.2233 -0.7558 -0.4408
 6835SOL    HW121404   0.684   6.891   6.181 -0.9893 -0.6710 -1.6146
 6835SOL    HW221405   0.841   6.931   6.161 -1.0302  0.2184 -0.2956
 6836SOL     OW21406   2.450   6.947   5.672  0.0894 -0.1101 -0.2655
 6836SOL    HW121407   2.365   6.934   5.724  1.3943 -2.2676  1.5020
 6836SOL    HW221408   2.520   6.987   5.730  0.6501  0.5295 -1.3504
 6837SOL     OW21409   4.859   0.672   3.412 -0.6541 -0.2459 -0.8807
 6837SOL    HW121410   4.885   0.592   3.467 -0.1975 -1.3060 -2.5549
 6837SOL    HW221411   4.925   0.683   3.337 -2.1356  0.1452 -2.1768
 6838SOL     OW21412   6.722   6.487   3.192 -0.1149 -0.0019 -0.4033
 6838SOL    HW121413   6.789   6.422   3.157 -0.3012  0.2443 -1.2525
 6838SOL    HW221414   6.630   6.460   3.161 -0.5345 -0.8049  1.4315
 6839SOL     OW21415   2.597   2.883   1.376 -0.4182 -0.2974  0.0250
 6839SOL    HW121416   2.587   2.934   1.461 -0.3162 -1.2063  0.5891
 6839SOL    HW221417   2.680   2.913   1.329 -2.1508  2.6335 -1.4756
 6840SOL     OW21418   2.124   4.910   2.589 -0.3114  0.1519 -0.2994
 6840SOL    HW121419   2.196   4.893   2.521  0.3227 -0.6248  0.5366
 6840SOL    HW221420   2.165   4.919   2.679 -0.8863  3.5330 -0.2422
 6841SOL     OW21421   6.181   1.908   6.979 -0.4667 -0.3799  0.4929
 6841SOL    HW121422   6.124   1.977   7.024 -0.9277 -2.1474  2.7973
 6841SOL    HW221423   6.130   1.867   6.904 -0.1688  1.7261 -0.9555
 6842SOL     OW21424   5.310   5.532   0.899  0.2846  0.6272 -0.0448
 6842SOL    HW121425   5.217   5.556   0.873  0.4196  1.0053 -0.1955
 6842SOL    HW221426   5.370   5.537   0.819  0.2433 -0.6649 -0.1765
 6843SOL     OW21427   6.350   6.507   2.063  0.5370  0.0854  0.0856
 6843SOL    HW121428   6.314   6.565   2.137 -0.1792 -0.5119  0.2262
 6843SOL    HW221429   6.275   6.453   2.024  1.2769 -1.2580  0.4229
 6844SOL     OW21430   6.235   2.580   5.867  0.0723  0.0692  0.1553
 6844SOL    HW121431   6.257   2.677   5.880  1.3671 -0.3075  1.0329
 6844SOL    HW221432   6.186   2.568   5.781 -0.1798  1.5079  0.0722
 6845SOL     OW21433   5.717   5.715   5.782 -0.1708  0.0825  0.7944
 6845SOL    HW121434   5.733   5.783   5.710  1.3916 -1.6467 -0.5766
 6845SOL    HW221435   5.801   5.703   5.835 -0.3157 -1.0142  0.7947
 6846SOL     OW21436   3.870   4.406   6.937  0.3563 -0.5370  0.0232
 6846SOL    HW121437   3.795   4.406   6.870  0.8238  0.0494 -0.5131
 6846SOL    HW221438   3.833   4.421   7.029 -0.1092  0.7309 -0.3486
 6847SOL     OW21439   5.837   2.409   4.557  0.2601 -0.1859  0.5242
 6847SOL    HW121440   5.807   2.340   4.624 -1.3286 -1.8613 -1.7224
 6847SOL    HW221441   5.863   2.363   4.473 -0.0078  1.9560 -0.7904
 6848SOL     OW21442   6.622   6.520   4.852  0.2388 -0.4369  0.5897
 6848SOL    HW121443   6.705   6.532   4.798 -0.0518 -0.7112  0.0739
 6848SOL    HW221444   6.597   6.423   4.853  1.6702 -0.8694  3.3706
 6849SOL     OW21445   2.811   1.888   1.836  0.5707  0.3253 -0.1185
 6849SOL    HW121446   2.792   1.982   1.810 -1.5960 -0.1349 -0.3996
 6849SOL    HW221447   2.901   1.883   1.879  0.2025  2.7373  1.1070
 6850SOL     OW21448   0.179   2.935   0.322  0.4346 -0.0523 -0.9717
 6850SOL    HW121449   0.093   2.902   0.362  0.2459 -3.2448 -3.5964
 6850SOL    HW221450   0.256   2.901   0.377  0.0871 -0.0904 -0.5019
 6851SOL     OW21451   4.049   5.632   6.360  0.1938 -0.0346 -0.1632
 6851SOL    HW121452   4.018   5.539   6.343  0.5865 -0.7873  2.8159
 6851SOL    HW221453   3.973   5.696   6.344 -1.3780 -1.3089  1.7199
 6852SOL     OW21454   1.818   2.730   5.896  0.2147 -0.4158 -0.5317
 6852SOL    HW121455   1.843   2.823   5.924 -1.7630 -0.5429  2.0529
 6852SOL    HW221456   1.774   2.734   5.806  3.1745  0.6070 -2.0667
 6853SOL     OW21457   1.196   3.053   1.170  0.0501 -0.2908 -0.0278
 6853SOL    HW121458   1.256   3.032   1.246 -1.9586 -1.7316  1.2774
 6853SOL    HW221459   1.160   3.146   1.179  0.5055 -0.1477  0.3001
 6854SOL     OW21460   0.942   1.335   5.008  0.2785  0.4470 -0.4399
 6854SOL    HW121461   0.932   1.386   4.922 -1.5600 -1.3245 -1.3400
 6854SOL    HW221462   1.004   1.258   4.994  2.4709  1.8553  0.7393
 6855SOL     OW21463   5.692   2.209   3.622  0.2131 -0.2418  0.6176
 6855SOL    HW121464   5.738   2.159   3.548 -0.0518 -0.4946  0.6218
 6855SOL    HW221465   5.602   2.239   3.591  0.8499  1.3007  0.2063
 6856SOL     OW21466   5.050   5.861   5.053 -0.2349  0.2228 -0.1317
 6856SOL    HW121467   5.047   5.761   5.045  2.6513  0.0932 -0.7522
 6856SOL    HW221468   5.072   5.900   4.963 -2.0035  1.5101 -0.0482
 6857SOL     OW21469   0.592   5.510   5.469 -0.6212  0.2525  0.3259
 6857SOL    HW121470   0.507   5.511   5.416 -1.3572 -0.6965  1.4409
 6857SOL    HW221471   0.657   5.448   5.425 -1.4893 -1.1073  0.8786
 6858SOL     OW21472   3.495   3.218   3.548 -0.6857 -0.3846  0.0031
 6858SOL    HW121473   3.481   3.137   3.604 -0.5904 -2.5399 -2.8611
 6858SOL    HW221474   3.407   3.245   3.507 -0.4542  0.0667 -0.2003
 6859SOL     OW21475   4.792   4.223   3.150  0.0631  0.4714  0.4839
 6859SOL    HW121476   4.785   4.125   3.132 -0.1058  0.5700  0.0039
 6859SOL    HW221477   4.843   4.267   3.076  1.3534  0.5381  1.3819
 6860SOL     OW21478   3.320   1.672   2.909  0.3782 -0.0793  0.4526
 6860SOL    HW121479   3.367   1.754   2.941 -0.8650  1.2966 -1.0691
 6860SOL    HW221480   3.335   1.598   2.974  2.4324  1.0193  1.3368
 6861SOL     OW21481   1.912   5.738   1.086  0.2874  0.1808  0.0388
 6861SOL    HW121482   1.900   5.649   1.130 -1.2194 -0.2276 -1.0974
 6861SOL    HW221483   1.988   5.786   1.129 -0.1309 -0.8056  2.0231
 6862SOL     OW21484   6.738   1.151   1.089 -0.0498 -0.1731  0.6520
 6862SOL    HW121485   6.737   1.218   1.164 -0.4667  1.0376 -0.3938
 6862SOL    HW221486   6.765   1.062   1.125 -1.3661  0.0897  2.4647
 6863SOL     OW21487   4.655   5.686   3.770 -0.0630 -0.8447 -0.1293
 6863SOL    HW121488   4.572   5.712   3.818 -0.2552 -0.8872 -0.4375
 6863SOL    HW221489   4.664   5.741   3.686  0.4087 -0.5771  0.0902
 6864SOL     OW21490   6.917   1.747   2.515 -0.1539  0.0788 -0.3798
 6864SOL    HW121491   6.872   1.811   2.453 -0.1917  0.2310 -0.1948
 6864SOL    HW221492   6.903   1.776   2.610 -0.4890 -0.4076 -0.2764
 6865SOL     OW21493   2.594   1.166   4.977 -0.0240  0.5252 -0.1920
 6865SOL    HW121494   2.681   1.158   5.025  0.1444  0.0191 -0.5727
 6865SOL    HW221495   2.566   1.262   4.974 -1.7732  0.3485  3.9848
 6866SOL     OW21496   4.604   4.512   2.660  0.1185  0.3669 -0.0571
 6866SOL    HW121497   4.515   4.515   2.705  0.0613 -0.5656 -0.0765
 6866SOL    HW221498   4.597   4.554   2.569  0.1827  2.0570  0.6956
 6867SOL     OW21499   1.142   5.532   1.482 -0.5640 -0.2793  0.3324
 6867SOL    HW121500   1.178   5.495   1.396  0.9539 -0.0515  0.8322
 6867SOL    HW221501   1.215   5.580   1.530 -1.4390 -0.2391  1.6624
 6868SOL     OW21502   6.324   5.258   5.768 -0.3887 -0.2149  0.0776
 6868SOL    HW121503   6.294   5.342   5.723 -2.0113 -0.0361  1.3594
 6868SOL    HW221504   6.343   5.277   5.864  0.2003 -1.1346  0.1540
 6869SOL     OW21505   1.973   6.506   1.001 -0.6361 -0.0450  0.3427
 6869SOL    HW121506   2.030   6.535   0.924 -1.3483  0.2857 -0.0645
 6869SOL    HW221507   2.032   6.469   1.074  0.0173 -0.7050 -0.4958
 6870SOL     OW21508   0.464   2.644   0.711  0.2770  0.2513 -0.2418
 6870SOL    HW121509   0.553   2.616   0.674  1.8231  2.1346  1.8448
 6870SOL    HW221510   0.472   2.663   0.808 -3.2542 -2.9240  0.9366
 6871SOL     OW21511   5.516   3.218   3.891 -0.2678  0.3200 -0.0818
 6871SOL    HW121512   5.447   3.266   3.945 -1.7177  0.0412 -1.6207
 6871SOL    HW221513   5.549   3.278   3.818 -0.8624 -0.4374 -0.9920
 6872SOL     OW21514   0.370   3.216   6.960 -0.1148  0.1843 -0.2225
 6872SOL    HW121515   0.353   3.194   6.864 -1.2075  2.1568 -0.5326
 6872SOL    HW221516   0.305   3.166   7.018 -0.4468  0.1417 -0.6294
 6873SOL     OW21517   6.954   0.800   6.748  0.0507 -0.0766 -0.6441
 6873SOL    HW121518   7.041   0.769   6.711  0.8009  0.5227  0.5758
 6873SOL    HW221519   6.942   0.763   6.840 -0.0899  1.3878 -0.0556
 6874SOL     OW21520   3.832   1.135   3.061 -0.5643  0.2502  0.0838
 6874SOL    HW121521   3.768   1.071   3.103 -1.5038  1.3128  0.3392
 6874SOL    HW221522   3.820   1.226   3.101  0.2316  0.7571 -0.7626
 6875SOL     OW21523   4.783   2.990   0.530 -0.1332 -0.2440  0.6983
 6875SOL    HW121524   4.704   3.049   0.513 -0.0638 -0.4021 -0.2374
 6875SOL    HW221525   4.820   2.957   0.443  0.2119 -1.1647  1.1703
 6876SOL     OW21526   5.396   5.130   4.694  0.5730 -0.0258 -0.0331
 6876SOL    HW121527   5.488   5.151   4.729  1.1437 -0.2630 -1.3331
 6876SOL    HW221528   5.354   5.215   4.661 -0.2482  0.3221  1.7890
 6877SOL     OW21529   2.787   1.466   0.333  0.5070 -0.1434 -0.0810
 6877SOL    HW121530   2.845   1.543   0.357  0.7528 -0.0576 -0.9083
 6877SOL    HW221531   2.794   1.449   0.234 -1.1423  0.0880 -0.2583
 6878SOL     OW21532   4.230   5.334   0.953 -0.0840 -0.3251 -0.1879
 6878SOL    HW121533   4.263   5.363   1.043  1.6258  0.8516 -1.1582
 6878SOL    HW221534   4.250   5.237   0.939  2.7512  0.2516 -0.5869
 6879SOL     OW21535   4.112   1.974   1.172  0.0604 -0.2142  0.0864
 6879SOL    HW121536   4.178   2.043   1.200 -0.4398 -0.0288  0.8404
 6879SOL    HW221537   4.073   1.998   1.084 -1.6646  1.6201  1.2720
 6880SOL     OW21538   5.366   3.967   4.072 -0.5432 -0.2281 -0.0503
 6880SOL    HW121539   5.377   3.977   4.171 -0.0532  1.0538 -0.2165
 6880SOL    HW221540   5.354   4.057   4.031  1.1472 -0.5613 -1.3692
 6881SOL     OW21541   1.548   2.607   4.483 -0.0211 -0.0145 -0.0257
 6881SOL    HW121542   1.490   2.615   4.402 -0.2273  0.5819  0.1807
 6881SOL    HW221543   1.520   2.674   4.551 -0.7601 -1.4222  1.1172
 6882SOL     OW21544   1.445   0.581   0.171  0.0497 -0.9606  0.1180
 6882SOL    HW121545   1.372   0.555   0.108  0.2937 -1.8498  0.1965
 6882SOL    HW221546   1.513   0.637   0.122 -0.7517  0.0236  0.0867
 6883SOL     OW21547   5.614   1.331   6.060 -0.8734  0.0044  0.2733
 6883SOL    HW121548   5.567   1.389   5.994 -0.1041 -0.3510 -0.6191
 6883SOL    HW221549   5.627   1.239   6.021  2.0769  0.5533 -0.2753
 6884SOL     OW21550   3.288   5.545   4.631 -0.7550  0.0205  0.3622
 6884SOL    HW121551   3.240   5.539   4.718 -2.1509  0.6680 -0.3342
 6884SOL    HW221552   3.277   5.459   4.581  1.0802 -0.8076  1.3107
 6885SOL     OW21553   6.605   1.153   3.360 -0.3844 -0.1669  0.9309
 6885SOL    HW121554   6.692   1.103   3.354 -0.3992 -0.1352  0.4112
 6885SOL    HW221555   6.613   1.240   3.311  0.2022  1.1925  3.2810
 6886SOL     OW21556   4.544   4.662   7.005  0.1579 -0.7427  0.5077
 6886SOL    HW121557   4.473   4.601   6.971 -0.2948  0.4830 -0.8634
 6886SOL    HW221558   4.565   4.639   7.100 -1.3519 -1.7691  0.6321
 6887SOL     OW21559   1.284   6.934   6.167 -0.1143 -0.2940 -0.6587
 6887SOL    HW121560   1.231   7.013   6.199 -1.0119 -0.3501 -1.9299
 6887SOL    HW221561   1.231   6.884   6.098  0.8832 -1.3915 -0.6583
 6888SOL     OW21562   2.362   6.729   0.763 -0.1687  0.5557 -0.1106
 6888SOL    HW121563   2.353   6.700   0.668 -2.2349 -0.0509  0.2110
 6888SOL    HW221564   2.448   6.778   0.776  0.1620  0.6129 -2.2651
 6889SOL     OW21565   6.704   0.539   3.171 -0.2115 -0.2976 -0.5891
 6889SOL    HW121566   6.610   0.568   3.157 -0.0202  0.3705 -0.5263
 6889SOL    HW221567   6.766   0.616   3.155  0.4674 -1.1531 -2.4936
 6890SOL     OW21568   4.867   3.960   2.723  0.1336  0.2501 -0.7318
 6890SOL    HW121569   4.844   3.865   2.701  1.0127 -0.1659  0.0725
 6890SOL    HW221570   4.846   3.978   2.819 -0.3829  0.9859 -0.9814
 6891SOL     OW21571   4.661   6.685   3.242 -0.0362  0.6153  0.5937
 6891SOL    HW121572   4.561   6.676   3.247 -0.0330  0.7517  1.0022
 6891SOL    HW221573   4.693   6.734   3.323  0.5287 -0.8317  1.2757
 6892SOL     OW21574   0.859   3.717   3.366 -0.0794  0.0934  0.5891
 6892SOL    HW121575   0.874   3.816   3.366  3.1630 -0.3032 -0.4751
 6892SOL    HW221576   0.767   3.698   3.333 -0.5610  2.7017  0.1961
 6893SOL     OW21577   6.322   5.724   2.557  0.1789  0.1902  0.0708
 6893SOL    HW121578   6.228   5.720   2.524 -0.3396 -0.0928  1.4784
 6893SOL    HW221579   6.321   5.749   2.654  1.4603 -1.4716  0.5540
 6894SOL     OW21580   2.864   3.503   0.054 -0.1224 -0.1592  0.3566
 6894SOL    HW121581   2.806   3.423   0.066 -1.6643  1.0105  1.0355
 6894SOL    HW221582   2.925   3.512   0.133 -1.1179  0.2329  1.1066
 6895SOL     OW21583   5.535   5.608   3.907  0.0758 -0.1347  0.2369
 6895SOL    HW121584   5.545   5.684   3.844 -2.1141  1.8974  2.1610
 6895SOL    HW221585   5.456   5.553   3.881 -0.8496  0.7248  1.1447
 6896SOL     OW21586   0.128   3.351   3.223 -0.1378 -0.0780 -0.4426
 6896SOL    HW121587   0.227   3.340   3.225  0.1552  1.4707 -2.3755
 6896SOL    HW221588   0.088   3.279   3.167 -0.1920 -0.9943  0.7416
 6897SOL     OW21589   2.903   0.974   3.828  0.3069  0.4399 -0.2389
 6897SOL    HW121590   2.857   0.896   3.785  1.8542 -0.7629  0.2245
 6897SOL    HW221591   2.989   0.992   3.781  0.2642  1.4843  0.0582
 6898SOL     OW21592   1.420   3.551   1.893 -0.1978 -0.0669  0.6424
 6898SOL    HW121593   1.356   3.482   1.925  0.7609 -1.2295  0.1402
 6898SOL    HW221594   1.430   3.543   1.793 -1.0214  1.6392  0.3944
 6899SOL     OW21595   5.450   3.819   6.263  0.2520  0.1657  0.3173
 6899SOL    HW121596   5.495   3.861   6.184 -0.6545 -0.4333 -0.5456
 6899SOL    HW221597   5.500   3.737   6.290  0.2220  0.0319 -0.0270
 6900SOL     OW21598   2.118   0.618   3.632 -0.1905 -0.6871  0.3586
 6900SOL    HW121599   2.044   0.612   3.699 -0.6970  2.3133  0.2361
 6900SOL    HW221600   2.200   0.652   3.677 -0.0855 -0.1340 -0.2446
 6901SOL     OW21601   6.864   5.454   2.977 -0.5337  0.0431 -0.1914
 6901SOL    HW121602   6.795   5.383   2.992 -0.6816  0.5001  1.4342
 6901SOL    HW221603   6.830   5.521   2.911 -2.3062  1.0747  1.6733
 6902SOL     OW21604   6.694   1.010   1.483 -0.1048 -0.4116 -0.1008
 6902SOL    HW121605   6.738   0.931   1.526 -0.4661 -0.3244  0.4312
 6902SOL    HW221606   6.756   1.089   1.487  1.6334 -1.4103 -3.4782
 6903SOL     OW21607   0.135   4.269   3.869  0.0735 -0.0592 -0.0213
 6903SOL    HW121608   0.207   4.230   3.927  0.5169  0.1578 -0.4178
 6903SOL    HW221609   0.068   4.317   3.926  0.2122 -0.3082  0.3560
 6904SOL     OW21610   6.427   3.019   3.000 -0.6593  0.8030  0.3577
 6904SOL    HW121611   6.478   2.973   3.073  1.1285  0.5581 -0.9424
 6904SOL    HW221612   6.329   3.013   3.018 -0.4479 -2.2393  1.0232
 6905SOL     OW21613   2.842   6.875   6.691 -0.6725 -0.1450  0.4586
 6905SOL    HW121614   2.919   6.812   6.677 -1.0534 -0.1919 -1.7193
 6905SOL    HW221615   2.761   6.839   6.645 -1.3388  1.1427  0.5779
 6906SOL     OW21616   3.094   2.458   5.622  0.2771  0.0036 -0.1445
 6906SOL    HW121617   3.174   2.400   5.609  0.1000 -0.5809  1.2648
 6906SOL    HW221618   3.123   2.551   5.644  0.5635  0.5533 -2.5094
 6907SOL     OW21619   1.902   6.108   0.350 -0.0669 -0.4442  0.7044
 6907SOL    HW121620   1.884   6.086   0.254  2.0492  1.9832 -0.3697
 6907SOL    HW221621   1.954   6.034   0.391  1.2661 -0.4452 -0.8526
 6908SOL     OW21622   2.879   6.949   6.183  0.1090 -0.1641  0.9260
 6908SOL    HW121623   2.791   6.909   6.209  0.0682 -0.7560 -0.0711
 6908SOL    HW221624   2.866   7.010   6.104  0.1199  2.1082  2.5787
 6909SOL     OW21625   2.869   0.002   1.376 -0.5221  0.3543  0.7183
 6909SOL    HW121626   2.847  -0.018   1.281 -0.3716  0.7192  0.6055
 6909SOL    HW221627   2.854   0.099   1.394 -1.2012  0.1634  1.2451
 6910SOL     OW21628   7.000   0.438   1.636 -0.2542 -0.4513 -0.0064
 6910SOL    HW121629   6.909   0.476   1.648  0.5509  1.0459  2.0114
 6910SOL    HW221630   7.032   0.401   1.724  1.4936  0.0701 -0.3889
 6911SOL     OW21631   3.378   4.112   0.634 -0.5804  0.7194 -0.2777
 6911SOL    HW121632   3.301   4.176   0.626 -1.7065 -0.4662  0.5774
 6911SOL    HW221633   3.406   4.081   0.543 -0.9194  1.3925 -0.6132
 6912SOL     OW21634   0.368   4.776   3.214  0.1367 -0.4223 -0.0832
 6912SOL    HW121635   0.401   4.865   3.184 -0.4207 -0.4925 -0.9397
 6912SOL    HW221636   0.417   4.748   3.296  0.3862  0.6245  0.1356
 6913SOL     OW21637   1.429   2.961   2.833 -0.2098 -0.1399 -0.0351
 6913SOL    HW121638   1.355   3.028   2.834 -0.8885 -0.6364 -3.6065
 6913SOL    HW221639   1.512   3.005   2.797  0.1227 -0.5340  0.2514
 6914SOL     OW21640   4.776   2.907   1.433 -0.3661 -0.2266  0.0460
 6914SOL    HW121641   4.706   2.925   1.502 -0.2851  0.6973 -0.1015
 6914SOL    HW221642   4.865   2.938   1.468 -0.1818 -0.5598 -0.1255
 6915SOL     OW21643   6.904   5.232   2.556 -0.6159 -0.0343  0.2276
 6915SOL    HW121644   6.852   5.190   2.630  0.4570  1.1229  1.7105
 6915SOL    HW221645   6.942   5.319   2.588  0.0697  0.3965 -1.6346
 6916SOL     OW21646   2.962   1.309   5.406  0.3179  0.1307 -0.5314
 6916SOL    HW121647   2.979   1.359   5.321  0.5906 -0.6635 -0.9538
 6916SOL    HW221648   2.925   1.371   5.474  2.2013  1.2761 -0.5052
 6917SOL     OW21649   3.373   2.103   3.300  0.3076 -0.1609  0.0079
 6917SOL    HW121650   3.353   2.023   3.356 -0.0572  0.5042  0.8379
 6917SOL    HW221651   3.456   2.148   3.334 -0.1088  0.4429  0.2330
 6918SOL     OW21652   2.569   6.884   4.634 -0.3593  0.0265 -0.0505
 6918SOL    HW121653   2.553   6.788   4.612  0.6514 -0.0687 -0.4272
 6918SOL    HW221654   2.662   6.895   4.670 -0.6365  0.7898  0.4761
 6919SOL     OW21655   4.324   1.983   3.767  0.4402  0.1771 -0.3761
 6919SOL    HW121656   4.282   1.952   3.682 -0.7908  0.6356  0.0313
 6919SOL    HW221657   4.374   2.068   3.750 -0.2905  0.5854 -0.5511
 6920SOL     OW21658   1.435   3.859   4.276  0.1679 -0.4930  0.4732
 6920SOL    HW121659   1.361   3.914   4.313 -1.3875 -1.9834 -0.2659
 6920SOL    HW221660   1.490   3.822   4.351  0.1394  0.5772  1.0374
 6921SOL     OW21661   4.407   0.276   1.001  0.3977  0.6057 -0.6304
 6921SOL    HW121662   4.372   0.208   0.937 -0.6749  0.9420 -0.4303
 6921SOL    HW221663   4.429   0.232   1.088  0.4913  0.3783 -0.7688
 6922SOL     OW21664   0.405   4.270   2.621  0.0616  0.5862 -0.4232
 6922SOL    HW121665   0.484   4.209   2.616  0.9884  1.8623 -2.0696
 6922SOL    HW221666   0.436   4.362   2.645 -1.1603  0.7472  0.6459
 6923SOL     OW21667   6.067   6.317   5.346 -0.1081  0.7407  0.1294
 6923SOL    HW121668   6.155   6.274   5.327 -0.1072  0.7062  0.2097
 6923SOL    HW221669   6.077   6.381   5.422  0.2714  2.1245 -1.0337
 6924SOL     OW21670   0.283   2.943   5.455  0.0788 -0.1638 -0.0347
 6924SOL    HW121671   0.244   2.932   5.363 -0.0867  1.1931 -0.1432
 6924SOL    HW221672   0.339   3.026   5.458  1.4637 -1.1001  0.6455
 6925SOL     OW21673   2.459   6.386   6.688 -0.0445 -0.2415  0.1006
 6925SOL    HW121674   2.407   6.469   6.665  0.5432  0.7732  2.1418
 6925SOL    HW221675   2.419   6.308   6.641 -1.0802  1.0709 -1.3195
 6926SOL     OW21676   3.047   4.644   6.449 -0.3780 -0.1800  0.0709
 6926SOL    HW121677   2.952   4.674   6.460  0.1246  1.4309  0.2470
 6926SOL    HW221678   3.071   4.582   6.524 -1.3778 -0.8615 -0.1547
 6927SOL     OW21679   1.479   1.172   3.358  0.0162 -0.1921  0.0457
 6927SOL    HW121680   1.415   1.102   3.327  0.4018 -0.6386  0.2395
 6927SOL    HW221681   1.531   1.207   3.280  0.7550 -1.0790  0.1168
 6928SOL     OW21682   5.531   6.152   1.965  0.0086  0.1001 -0.0720
 6928SOL    HW121683   5.551   6.064   1.921 -0.6934 -1.0733  1.8376
 6928SOL    HW221684   5.445   6.188   1.930  0.1000 -0.1470 -0.5654
 6929SOL     OW21685   4.778   5.018   3.861  0.0647 -0.8066 -0.9364
 6929SOL    HW121686   4.848   5.080   3.897  1.6378 -2.0900 -1.7073
 6929SOL    HW221687   4.772   5.028   3.762 -1.0343 -0.5566 -0.8646
 6930SOL     OW21688   1.568   1.171   1.512  0.6798 -0.0192  0.0707
 6930SOL    HW121689   1.660   1.158   1.475  1.0729 -1.3620  1.4311
 6930SOL    HW221690   1.569   1.154   1.611 -1.0747 -0.2277  0.0789
 6931SOL     OW21691   4.978   0.675   1.136  0.8052 -0.1970  0.2641
 6931SOL    HW121692   5.023   0.642   1.053  0.3397 -0.9966  0.3235
 6931SOL    HW221693   4.951   0.771   1.123 -0.9802 -0.8538 -1.2364
 6932SOL     OW21694   2.758   1.674   4.049  0.0198  0.6475 -0.2715
 6932SOL    HW121695   2.678   1.697   4.104  0.4495 -1.4158  1.3332
 6932SOL    HW221696   2.743   1.587   4.003  2.4211 -1.5004  2.6475
 6933SOL     OW21697   2.450   5.378   1.554  0.1672 -0.2229 -0.2508
 6933SOL    HW121698   2.452   5.279   1.548 -1.7250 -0.3159 -0.0604
 6933SOL    HW221699   2.462   5.406   1.650 -2.4060 -0.4810  0.2162
 6934SOL     OW21700   1.236   4.976   4.889  0.4435  0.1003 -0.4230
 6934SOL    HW121701   1.192   4.889   4.868 -1.0155  0.5928  0.4650
 6934SOL    HW221702   1.310   4.961   4.954  0.1130 -0.4577 -0.1653
 6935SOL     OW21703   6.997   3.285   0.540 -0.5306 -0.3238  0.1513
 6935SOL    HW121704   7.032   3.310   0.449 -0.5539  1.8422  0.6741
 6935SOL    HW221705   7.027   3.192   0.563  0.4031 -0.5020 -1.6050
 6936SOL     OW21706   0.185   3.058   4.229 -0.0060  0.5456 -0.2527
 6936SOL    HW121707   0.088   3.039   4.219  0.1773 -0.0707 -0.8754
 6936SOL    HW221708   0.222   3.091   4.142  0.1591  1.6320  0.2136
 6937SOL     OW21709   6.927   3.382   5.806 -0.1348  0.3443 -0.1811
 6937SOL    HW121710   7.012   3.432   5.818 -0.6425  1.2396 -0.2248
 6937SOL    HW221711   6.915   3.318   5.882 -0.1353  1.2800  0.6275
 6938SOL     OW21712   4.503   5.685   6.007 -0.3917  0.9258 -0.8231
 6938SOL    HW121713   4.571   5.621   6.043  1.8859  2.7241 -1.6575
 6938SOL    HW221714   4.438   5.709   6.079 -0.2338 -0.9209 -0.0175
 6939SOL     OW21715   2.434   6.981   5.405 -0.0515  0.4131  0.2569
 6939SOL    HW121716   2.476   6.959   5.492 -0.1537 -1.7636 -0.1811
 6939SOL    HW221717   2.339   7.011   5.420 -0.4613 -1.0786  0.8663
 6940SOL     OW21718   3.956   6.639   2.734 -0.1426  0.2336  0.0028
 6940SOL    HW121719   3.992   6.732   2.742  0.5188  0.0698 -0.8456
 6940SOL    HW221720   3.945   6.617   2.637  1.1886 -1.1123  0.1342
 6941SOL     OW21721   6.041   6.295   6.108 -0.2676  0.0547  0.1063
 6941SOL    HW121722   6.045   6.394   6.121 -1.3154  0.0393  0.6712
 6941SOL    HW221723   5.957   6.260   6.148  1.4532 -1.4822  2.6916
 6942SOL     OW21724   1.116   0.296   1.257 -0.9540  0.4361 -0.2023
 6942SOL    HW121725   1.168   0.378   1.232  1.0956 -0.3396  1.2748
 6942SOL    HW221726   1.115   0.232   1.180  1.5411 -0.0990  0.1255
 6943SOL     OW21727   2.848   4.999   0.014  0.6609  0.0260 -0.8352
 6943SOL    HW121728   2.772   4.938  -0.008  0.4361 -0.2504  0.6057
 6943SOL    HW221729   2.932   4.962  -0.026 -0.1693  1.3929 -4.2168
 6944SOL     OW21730   5.484   4.802   3.674 -0.0774  0.7545  0.2609
 6944SOL    HW121731   5.420   4.878   3.661 -0.0900  0.9524  1.4135
 6944SOL    HW221732   5.571   4.837   3.707  0.0862  0.3071  0.3138
 6945SOL     OW21733   0.300   4.629   4.468  0.2542 -0.2726  0.1041
 6945SOL    HW121734   0.383   4.682   4.488  0.6633 -0.6278 -0.6036
 6945SOL    HW221735   0.242   4.626   4.549  0.7764  0.2667  0.5076
 6946SOL     OW21736   6.961   0.513   1.268 -0.1438 -0.0205  0.0146
 6946SOL    HW121737   6.972   0.417   1.242  1.5717  0.1000  0.1558
 6946SOL    HW221738   7.031   0.569   1.222 -0.0530  0.8963  1.1933
 6947SOL     OW21739   1.043   6.891   2.195 -0.7221 -0.4691 -0.3767
 6947SOL    HW121740   0.948   6.863   2.209 -0.3424 -1.1243  1.0287
 6947SOL    HW221741   1.056   6.916   2.099 -2.3394 -0.2413 -0.5651
 6948SOL     OW21742   1.518   4.256   4.184  0.3339 -0.0748  0.7038
 6948SOL    HW121743   1.514   4.354   4.162  0.7709  0.1040  1.4032
 6948SOL    HW221744   1.517   4.244   4.283 -1.0269 -0.8448  0.6163
 6949SOL     OW21745   5.014   2.759   3.491  0.3052 -0.3527 -0.2712
 6949SOL    HW121746   4.979   2.666   3.478 -0.0587  0.0065 -2.0391
 6949SOL    HW221747   4.938   2.822   3.503  0.5346 -0.1856  0.3722
 6950SOL     OW21748   6.393   5.456   4.213  0.6751 -0.3113 -0.2239
 6950SOL    HW121749   6.383   5.429   4.117  1.5394 -1.7029  0.0546
 6950SOL    HW221750   6.421   5.551   4.218 -3.1390  1.0416 -1.2417
 6951SOL     OW21751   2.897   2.984   6.783 -0.2483  0.9165 -0.4151
 6951SOL    HW121752   2.838   2.956   6.708  1.3793 -0.5264 -1.2231
 6951SOL    HW221753   2.993   2.981   6.754  0.6884 -2.1570  2.3267
 6952SOL     OW21754   2.183   2.194   5.961  0.0012 -0.0089 -0.0279
 6952SOL    HW121755   2.138   2.258   6.024  1.5105  0.6714  0.4087
 6952SOL    HW221756   2.114   2.151   5.903 -1.3781 -0.1985  1.6577
 6953SOL     OW21757   0.714   3.507   2.976  0.2721  0.3673 -0.3080
 6953SOL    HW121758   0.650   3.462   2.913  1.3435 -1.0907 -0.4037
 6953SOL    HW221759   0.766   3.576   2.926  1.7314 -1.3781 -1.2944
 6954SOL     OW21760   0.907   6.367   2.678  0.5586  0.1763  0.2641
 6954SOL    HW121761   0.968   6.322   2.743  1.4682  1.2858  0.2038
 6954SOL    HW221762   0.961   6.414   2.609 -0.3541  1.3761  0.3352
 6955SOL     OW21763   3.461   0.726   4.692 -0.8329  0.0804 -0.0110
 6955SOL    HW121764   3.383   0.719   4.630 -0.5307  1.5419 -0.6079
 6955SOL    HW221765   3.519   0.803   4.664 -1.1242  1.3500  2.5583
 6956SOL     OW21766   3.683   1.002   2.098  0.9201  0.4157  0.1269
 6956SOL    HW121767   3.659   0.951   2.180  1.4500 -0.1623 -0.0653
 6956SOL    HW221768   3.782   0.994   2.082  0.9696  1.2927 -0.0504
 6957SOL     OW21769   4.709   0.147   0.458  0.3341  0.0039 -0.2785
 6957SOL    HW121770   4.797   0.182   0.427 -0.2229  0.4638 -1.4290
 6957SOL    HW221771   4.690   0.059   0.415 -0.6764  0.8873 -1.7583
 6958SOL     OW21772   3.616   3.164   4.033 -0.0884 -0.1135 -0.7954
 6958SOL    HW121773   3.606   3.214   3.946 -0.2136 -1.1755 -1.4037
 6958SOL    HW221774   3.528   3.125   4.058 -0.0484  0.1849 -0.1811
 6959SOL     OW21775   3.155   1.780   0.798  0.5556  0.0949 -0.6639
 6959SOL    HW121776   3.191   1.815   0.885  0.9574  0.1812 -0.8650
 6959SOL    HW221777   3.195   1.832   0.722 -0.3320  0.4980 -0.8711
 6960SOL     OW21778   4.581   6.691   0.261  0.2272 -0.4620  0.5313
 6960SOL    HW121779   4.539   6.648   0.341 -0.1401  1.2290  1.2984
 6960SOL    HW221780   4.552   6.644   0.178  0.4593 -2.1377  1.3675
 6961SOL     OW21781   3.477   2.779   5.794  0.3559  0.4804  0.1471
 6961SOL    HW121782   3.426   2.855   5.756 -1.0173 -1.0373 -1.1880
 6961SOL    HW221783   3.517   2.725   5.721 -0.9516 -1.5713  0.8477
 6962SOL     OW21784   5.857   6.810   3.788 -0.1640 -0.1873  0.3965
 6962SOL    HW121785   5.827   6.902   3.816 -0.8616  0.4508 -2.2058
 6962SOL    HW221786   5.816   6.787   3.700  0.7800 -2.6373  0.5229
 6963SOL     OW21787   5.901   2.077   6.777 -0.7057  0.2116 -0.8356
 6963SOL    HW121788   5.873   2.138   6.851  0.5871 -0.1785  0.0138
 6963SOL    HW221789   5.955   2.128   6.710  2.4503 -0.3399  1.0762
 6964SOL     OW21790   5.445   1.339   0.152  0.0072  0.1537  0.0868
 6964SOL    HW121791   5.449   1.357   0.250  0.0768  1.5182 -0.1526
 6964SOL    HW221792   5.455   1.241   0.136  0.3887 -0.0440  1.4147
 6965SOL     OW21793   1.437   5.875   4.470 -0.4153  0.4965 -0.7002
 6965SOL    HW121794   1.410   5.966   4.502 -2.3842  0.5012 -2.2068
 6965SOL    HW221795   1.536   5.872   4.460 -0.1711  1.9676  0.8165
 6966SOL     OW21796   6.257   3.818   5.109 -0.0458 -0.1054  0.1219
 6966SOL    HW121797   6.168   3.840   5.149  0.7493 -2.4078  3.7103
 6966SOL    HW221798   6.246   3.746   5.041 -0.9668 -0.2250  0.3862
 6967SOL     OW21799   0.067   0.338   0.889  1.4277 -0.3181 -0.3830
 6967SOL    HW121800   0.027   0.370   0.803  1.0743 -2.0963 -0.9213
 6967SOL    HW221801  -0.002   0.285   0.940  1.9284 -0.1072  0.5377
 6968SOL     OW21802   3.182   0.211   6.655  0.2295  0.2071  0.4306
 6968SOL    HW121803   3.268   0.223   6.605 -0.2861 -0.1622 -0.5593
 6968SOL    HW221804   3.187   0.127   6.709  0.3988  0.0568  0.1832
 6969SOL     OW21805   1.186   5.385   0.658 -0.2155 -0.1224 -0.1068
 6969SOL    HW121806   1.244   5.307   0.682 -1.7288 -0.5437  2.6936
 6969SOL    HW221807   1.241   5.468   0.658  0.6988 -0.6981  0.9054
 6970SOL     OW21808   1.324   3.572   0.744 -0.2960  0.0350 -0.2191
 6970SOL    HW121809   1.226   3.578   0.766 -0.1390  2.1977  0.1002
 6970SOL    HW221810   1.341   3.615   0.655  0.5001  0.7219  0.2484
 6971SOL     OW21811   1.019   2.288   2.307  0.1628  0.3428 -0.8116
 6971SOL    HW121812   1.101   2.232   2.295  0.1396 -0.0648  0.7030
 6971SOL    HW221813   1.033   2.378   2.266 -0.2038 -1.0550 -4.3450
 6972SOL     OW21814   3.811   0.486   3.008  0.1046 -0.7139  0.1046
 6972SOL    HW121815   3.764   0.440   2.933 -0.2746 -3.3396  1.8057
 6972SOL    HW221816   3.744   0.520   3.074  0.4821  0.0459  0.1135
 6973SOL     OW21817   5.109   3.970   4.964  0.0532  0.4096 -0.0619
 6973SOL    HW121818   5.180   3.902   4.946  1.2133  1.6150 -0.1242
 6973SOL    HW221819   5.026   3.923   4.996  1.2495 -0.9330  1.2159
 6974SOL     OW21820   4.042   2.567   5.988  0.0362  0.0461 -0.0245
 6974SOL    HW121821   4.140   2.560   5.972  0.0400  0.2247 -0.0791
 6974SOL    HW221822   4.020   2.532   6.079 -0.1289 -2.0541 -0.8225
 6975SOL     OW21823   0.037   4.173   1.265  0.0235 -0.0398  0.6981
 6975SOL    HW121824   0.037   4.073   1.272  0.5246 -0.1915 -0.9034
 6975SOL    HW221825  -0.018   4.200   1.186  2.0360  0.7556 -0.5114
 6976SOL     OW21826   3.154   5.750   1.849  0.0977  0.2137  0.3437
 6976SOL    HW121827   3.245   5.728   1.884 -0.9553 -1.5794  2.2126
 6976SOL    HW221828   3.109   5.814   1.912 -0.9912 -1.2744  1.1533
 6977SOL     OW21829   5.416   0.293   0.002  0.5270 -0.2079  0.2359
 6977SOL    HW121830   5.482   0.218   0.002 -0.7214 -1.4194 -2.1912
 6977SOL    HW221831   5.457   0.374   0.046  3.1753 -1.2221 -0.1954
 6978SOL     OW21832   1.147   6.021   5.732  0.1946 -0.0754 -0.4101
 6978SOL    HW121833   1.243   6.028   5.756 -0.1698 -0.4791  1.3605
 6978SOL    HW221834   1.122   5.924   5.724  0.3151  0.0287 -2.7324
 6979SOL     OW21835   0.284   3.242   5.293  0.2601  0.3731  0.0690
 6979SOL    HW121836   0.224   3.251   5.213 -1.2232  1.9554  1.2531
 6979SOL    HW221837   0.347   3.320   5.296 -0.2624  0.7781  0.8542
 6980SOL     OW21838   6.127   5.782   3.728 -0.1389  0.2741 -0.2256
 6980SOL    HW121839   6.216   5.779   3.774  1.3997 -0.3471 -2.9991
 6980SOL    HW221840   6.082   5.693   3.739  0.6863 -0.2255 -0.7364
 6981SOL     OW21841   6.655   6.228   4.027 -0.2163  0.1082 -0.0563
 6981SOL    HW121842   6.688   6.313   3.987 -0.2629  0.1354 -0.0379
 6981SOL    HW221843   6.556   6.223   4.018 -0.0785 -0.5960 -1.3150
 6982SOL     OW21844   5.724   3.851   5.414 -0.3260 -0.0424  0.0759
 6982SOL    HW121845   5.820   3.830   5.430 -0.4535 -0.1931  0.6864
 6982SOL    HW221846   5.713   3.950   5.404 -0.2573  0.0847  1.1537
 6983SOL     OW21847   0.748   6.448   4.389  0.3664  0.4456  0.2436
 6983SOL    HW121848   0.675   6.491   4.336 -0.8006  3.1685  3.6037
 6983SOL    HW221849   0.729   6.351   4.400 -1.0729  0.4871 -1.4738
 6984SOL     OW21850   3.984   3.334   4.538  0.6792  0.1101  0.1113
 6984SOL    HW121851   3.960   3.255   4.594 -0.7457  0.3011 -0.1912
 6984SOL    HW221852   3.961   3.418   4.587  0.8578  0.3054 -0.1383
 6985SOL     OW21853   5.157   2.113   4.130  0.1398 -0.0882 -0.2476
 6985SOL    HW121854   5.132   2.034   4.073  3.5061  0.3048 -2.5572
 6985SOL    HW221855   5.085   2.182   4.124 -0.9506 -1.2800 -1.6660
 6986SOL     OW21856   2.554   0.747   5.522  0.0164 -0.2484  0.4555
 6986SOL    HW121857   2.632   0.728   5.582 -0.6933  0.0120  1.4746
 6986SOL    HW221858   2.589   0.776   5.432  1.0844 -1.0555  0.5854
 6987SOL     OW21859   5.624   2.292   2.934  0.2732  0.1152 -0.1787
 6987SOL    HW121860   5.542   2.266   2.984 -0.7394  1.2678 -1.1683
 6987SOL    HW221861   5.642   2.389   2.949  0.2911  0.3376 -1.5404
 6988SOL     OW21862   1.501   0.895   5.856  0.2196 -0.2460  0.0238
 6988SOL    HW121863   1.535   0.886   5.763  1.8795  1.4801  0.4037
 6988SOL    HW221864   1.427   0.962   5.858  0.2534 -0.2076 -0.0287
 6989SOL     OW21865   4.811   1.358   3.653  0.0488 -0.0663  0.3560
 6989SOL    HW121866   4.854   1.268   3.654  0.5900  0.1888  1.5851
 6989SOL    HW221867   4.714   1.349   3.631 -0.0630 -1.0410  1.1975
 6990SOL     OW21868   3.184   4.075   2.646  0.0132 -0.5842  0.2822
 6990SOL    HW121869   3.202   3.979   2.671 -0.6681 -1.2342 -1.5719
 6990SOL    HW221870   3.106   4.108   2.699  0.1491 -1.0882  0.8201
 6991SOL     OW21871   3.057   6.617   4.400 -0.2645 -0.3443 -0.8244
 6991SOL    HW121872   3.101   6.549   4.340 -1.8164 -0.7212 -1.5731
 6991SOL    HW221873   3.034   6.574   4.487 -1.5319 -0.8869 -1.4144
 6992SOL     OW21874   5.321   0.108   3.773 -0.2212  0.1181 -0.4494
 6992SOL    HW121875   5.354   0.026   3.725 -1.4022 -0.0142 -1.0756
 6992SOL    HW221876   5.224   0.122   3.751 -1.0811 -0.4617  2.5701
 6993SOL     OW21877   0.360   5.972   0.870 -0.4893  0.1642  0.1829
 6993SOL    HW121878   0.322   5.895   0.921 -1.7557  0.5785 -0.0920
 6993SOL    HW221879   0.330   5.966   0.774  0.9863 -0.0332 -0.2908
 6994SOL     OW21880   4.989   1.218   5.085  0.0110  0.2086 -0.5081
 6994SOL    HW121881   4.893   1.238   5.102 -0.0394 -0.5483  0.1501
 6994SOL    HW221882   5.026   1.165   5.162  1.1027  0.9844 -0.4819
 6995SOL     OW21883   3.709   0.322   2.797  0.3336  0.7963  0.4948
 6995SOL    HW121884   3.702   0.372   2.711  0.1203  2.0354  1.2055
 6995SOL    HW221885   3.793   0.267   2.797  1.0187  1.8095  0.0158
 6996SOL     OW21886   4.952   4.857   5.738 -0.0349  0.4928 -0.2155
 6996SOL    HW121887   4.857   4.854   5.708 -0.1941 -0.4105  0.3474
 6996SOL    HW221888   5.002   4.781   5.696  0.8036  1.7471 -1.6250
 6997SOL     OW21889   6.655   3.746   4.500  0.8231 -0.5129 -0.1363
 6997SOL    HW121890   6.557   3.765   4.494  0.9400  0.4943  0.8130
 6997SOL    HW221891   6.687   3.708   4.414 -0.3116 -0.4287 -0.6119
 6998SOL     OW21892   5.885   5.280   4.223 -0.1819  0.3516 -0.1209
 6998SOL    HW121893   5.943   5.249   4.299 -0.4353  1.8518  0.7220
 6998SOL    HW221894   5.941   5.326   4.155 -0.1563  0.3024 -0.1332
 6999SOL     OW21895   0.503   3.389   3.864 -0.3437  0.2671  0.7545
 6999SOL    HW121896   0.536   3.465   3.809 -0.6485  0.5247  0.9291
 6999SOL    HW221897   0.568   3.371   3.939 -0.8541  1.1133  1.4099
 7000SOL     OW21898   1.676   1.145   3.560 -0.3304  0.3953  0.3010
 7000SOL    HW121899   1.675   1.197   3.646 -2.6017 -0.7475  1.0571
 7000SOL    HW221900   1.608   1.183   3.497 -1.5254 -1.1489  0.5996
 7001SOL     OW21901   2.048   4.242   2.042  0.5926 -0.1906  0.0213
 7001SOL    HW121902   2.041   4.293   2.128 -2.3908 -3.6930  2.1703
 7001SOL    HW221903   1.992   4.286   1.972 -1.1563  0.0358  1.5008
 7002SOL     OW21904   4.173   0.783   1.616  0.5288  0.1988  0.0904
 7002SOL    HW121905   4.076   0.762   1.617  0.4471  0.5829  0.8308
 7002SOL    HW221906   4.226   0.701   1.637  0.3188  0.1769  0.5532
 7003SOL     OW21907   1.042   5.183   2.446 -0.9889 -0.3686  0.6026
 7003SOL    HW121908   0.945   5.182   2.469 -1.6469 -2.5717 -1.7213
 7003SOL    HW221909   1.055   5.233   2.360  0.6501  3.4937  2.8483
 7004SOL     OW21910   5.621   6.590   5.876 -0.0916 -0.3826 -0.4221
 7004SOL    HW121911   5.592   6.614   5.783 -0.7630  0.4769 -0.0056
 7004SOL    HW221912   5.585   6.499   5.899 -1.4496  0.1479 -0.3675
 7005SOL     OW21913   5.628   1.577   4.615  0.1297 -0.0710 -0.1879
 7005SOL    HW121914   5.572   1.660   4.607 -0.0497 -0.0451  1.1389
 7005SOL    HW221915   5.710   1.597   4.667  0.7719 -0.4200 -1.0441
 7006SOL     OW21916   4.426   4.307   0.946  0.0908 -0.0107 -0.2587
 7006SOL    HW121917   4.372   4.225   0.964  0.2278 -0.0656 -0.1029
 7006SOL    HW221918   4.518   4.282   0.916 -0.3624  0.0577 -1.8294
 7007SOL     OW21919   1.823   4.334   7.022  0.7946 -0.4338 -0.6855
 7007SOL    HW121920   1.765   4.378   6.953  1.5706  0.9312 -0.5020
 7007SOL    HW221921   1.813   4.234   7.015 -1.6969 -0.2556 -0.5446
 7008SOL     OW21922   5.146   0.656   4.877  0.2485  0.1946 -0.5508
 7008SOL    HW121923   5.169   0.605   4.794  1.2922 -0.2044 -0.0387
 7008SOL    HW221924   5.048   0.649   4.895 -0.1887  1.1695 -2.3176
 7009SOL     OW21925   0.278   0.450   1.320  0.2795 -0.3530  0.7163
 7009SOL    HW121926   0.233   0.472   1.233  0.2724 -1.2322  0.4963
 7009SOL    HW221927   0.315   0.358   1.317  2.2380  0.3964  0.8529
 7010SOL     OW21928   4.788   5.735   3.325  0.1512 -0.0527 -0.4346
 7010SOL    HW121929   4.734   5.778   3.398 -0.0218 -0.0621 -0.5592
 7010SOL    HW221930   4.768   5.779   3.238 -0.6763 -0.9494 -0.7143
 7011SOL     OW21931   0.826   2.157   1.509  0.7870  0.4298 -0.0421
 7011SOL    HW121932   0.787   2.081   1.562  1.4897  0.2161  0.1869
 7011SOL    HW221933   0.756   2.195   1.449  0.7299 -1.2350 -1.1123
 7012SOL     OW21934   3.460   2.985   6.569  0.1267 -0.0049 -0.2843
 7012SOL    HW121935   3.400   2.966   6.491  0.2668  0.8226 -0.5954
 7012SOL    HW221936   3.556   2.976   6.540  0.1786  0.3147 -0.2097
 7013SOL     OW21937   2.225   0.254   4.750  0.5780 -0.0622  0.0429
 7013SOL    HW121938   2.252   0.194   4.675  0.6661 -0.1294  0.1290
 7013SOL    HW221939   2.207   0.346   4.714  0.7272 -0.0670 -0.0426
 7014SOL     OW21940   4.215   1.691   1.090  0.2018 -0.1426 -0.0685
 7014SOL    HW121941   4.148   1.765   1.096 -0.1842 -0.5754  1.1977
 7014SOL    HW221942   4.273   1.706   1.010 -1.6547  0.0198 -1.4531
 7015SOL     OW21943   6.220   2.904   5.469  0.6279 -0.1667 -0.1392
 7015SOL    HW121944   6.188   2.859   5.386 -0.4976  1.5662 -0.6977
 7015SOL    HW221945   6.261   2.836   5.530 -1.4435 -2.0617 -0.6999
 7016SOL     OW21946   0.331   5.470   2.236 -0.6404 -0.6205 -0.6617
 7016SOL    HW121947   0.381   5.524   2.168  0.9521 -2.1583 -0.7937
 7016SOL    HW221948   0.378   5.383   2.250 -1.9405 -1.0969  1.0981
 7017SOL     OW21949   6.042   0.542   6.060 -0.0045  0.5615  0.3315
 7017SOL    HW121950   6.123   0.582   6.018  0.7112 -0.0767  1.0876
 7017SOL    HW221951   6.019   0.456   6.012  1.1901 -0.5033  1.5977
 7018SOL     OW21952   2.220   5.644   2.054  0.0264  0.0609 -0.1248
 7018SOL    HW121953   2.232   5.696   2.138  0.6791 -0.3374  0.0339
 7018SOL    HW221954   2.135   5.672   2.010 -0.2108  0.4303  0.5499
 7019SOL     OW21955   4.155   1.737   2.540 -0.5897  0.8422  0.6887
 7019SOL    HW121956   4.146   1.836   2.532 -1.7510  0.8783  2.0593
 7019SOL    HW221957   4.202   1.714   2.626  3.7009  0.2742 -1.5595
 7020SOL     OW21958   1.461   1.214   4.306 -0.0343 -0.2222 -0.4815
 7020SOL    HW121959   1.415   1.231   4.394 -0.0459 -0.9066 -0.3517
 7020SOL    HW221960   1.401   1.161   4.247  0.0434  0.0913 -0.8425
 7021SOL     OW21961   5.949   5.569   5.101 -0.3550 -0.1909 -0.0460
 7021SOL    HW121962   5.911   5.563   5.193 -0.6555  3.1548  0.1658
 7021SOL    HW221963   6.049   5.576   5.106 -0.0754 -2.9764 -0.2472
 7022SOL     OW21964   2.237   1.164   4.066 -1.0286 -0.0246 -0.0978
 7022SOL    HW121965   2.175   1.241   4.078 -1.2724 -0.1197 -0.6985
 7022SOL    HW221966   2.188   1.078   4.082 -1.5159 -0.1896 -2.1103
 7023SOL     OW21967   5.694   2.152   0.484 -0.1470  0.0624  0.3234
 7023SOL    HW121968   5.682   2.089   0.408  0.0154 -0.7345  0.9417
 7023SOL    HW221969   5.619   2.142   0.549  1.3506 -1.6697  1.9138
 7024SOL     OW21970   3.071   3.688   4.233  0.4102  0.4630 -0.0034
 7024SOL    HW121971   3.127   3.687   4.316  0.1633  1.7542  0.1984
 7024SOL    HW221972   3.059   3.783   4.202 -2.3770  0.3434  0.4530
 7025SOL     OW21973   6.393   5.845   6.884  0.2186  0.1403 -0.0246
 7025SOL    HW121974   6.324   5.917   6.872  0.6198  0.6617  0.7030
 7025SOL    HW221975   6.484   5.883   6.866  0.6600  0.4332  2.3962
 7026SOL     OW21976   4.330   6.849   2.123 -0.3449  0.5802 -0.5193
 7026SOL    HW121977   4.335   6.872   2.025  1.2638 -0.3616 -0.6923
 7026SOL    HW221978   4.371   6.922   2.177 -0.3459  0.6649 -0.6328
 7027SOL     OW21979   6.340   2.554   1.155  0.0147  0.1150  0.0535
 7027SOL    HW121980   6.372   2.597   1.239 -0.5464 -0.0951  0.3854
 7027SOL    HW221981   6.291   2.621   1.099  0.8736  0.3956 -0.3789
 7028SOL     OW21982   1.145   6.850   4.533  0.1650 -0.4415 -0.2395
 7028SOL    HW121983   1.219   6.909   4.564  0.6566 -0.7878 -0.7244
 7028SOL    HW221984   1.061   6.903   4.523  0.7812  0.3484 -1.4173
 7029SOL     OW21985   3.743   5.172   0.846 -0.4491  0.6421 -0.0488
 7029SOL    HW121986   3.809   5.184   0.920 -1.1230  0.9578  0.5038
 7029SOL    HW221987   3.693   5.257   0.831  0.5448  0.9918 -1.7313
 7030SOL     OW21988   5.702   5.001   6.883 -0.2498  0.4403 -0.0001
 7030SOL    HW121989   5.646   5.081   6.862  0.6611  1.0900 -0.0055
 7030SOL    HW221990   5.764   4.983   6.806  1.9662  1.8413  1.3418
 7031SOL     OW21991   5.512   3.029   1.205 -0.2813 -0.6114  0.0597
 7031SOL    HW121992   5.483   2.950   1.151  0.4688 -0.5114 -0.5149
 7031SOL    HW221993   5.604   3.012   1.241  0.4497  0.5055 -1.1635
 7032SOL     OW21994   4.960   2.234   4.424 -0.2496 -0.5020  0.4347
 7032SOL    HW121995   5.043   2.274   4.386  0.2956 -1.6671  0.3829
 7032SOL    HW221996   4.983   2.173   4.500 -1.0947 -0.4688  0.7285
 7033SOL     OW21997   0.700   2.285   6.262 -0.1755  0.1835  0.2059
 7033SOL    HW121998   0.612   2.250   6.295  0.0324 -0.3257  0.2291
 7033SOL    HW221999   0.756   2.312   6.341  0.6970 -1.9266  0.3877
 7034SOL     OW22000   2.522   5.582   5.218 -0.3994  0.3602  0.1629
 7034SOL    HW122001   2.598   5.525   5.250 -0.9267  0.2602  1.3002
 7034SOL    HW222002   2.490   5.640   5.293 -0.9654  0.9381 -0.5099
 7035SOL     OW22003   5.173   2.547   6.620  0.4984  0.2450  0.1503
 7035SOL    HW122004   5.205   2.454   6.640  0.0586 -0.0688 -0.5403
 7035SOL    HW222005   5.103   2.574   6.686  0.0973 -0.2092 -0.0836
 7036SOL     OW22006   1.515   6.805   5.779 -0.4810 -0.1780  0.2220
 7036SOL    HW122007   1.546   6.816   5.685 -2.0998  0.1186 -0.3027
 7036SOL    HW222008   1.582   6.750   5.830  0.4874 -0.2143 -1.0405
 7037SOL     OW22009   6.774   2.307   4.028 -0.5524  0.5630 -0.0295
 7037SOL    HW122010   6.700   2.240   4.031 -0.1610  0.0880 -0.6859
 7037SOL    HW222011   6.836   2.292   4.105  0.7618 -1.3067 -1.3499
 7038SOL     OW22012   3.011   0.418   6.634 -0.4205 -0.2286  0.7750
 7038SOL    HW122013   2.927   0.404   6.582 -0.5938 -0.8400  1.2195
 7038SOL    HW222014   3.062   0.332   6.640  1.9827  0.7401 -2.4634
 7039SOL     OW22015   0.027   1.245   1.638  0.8444 -0.1061  0.2421
 7039SOL    HW122016   0.109   1.288   1.676  1.5522  0.7693 -2.0811
 7039SOL    HW222017   0.054   1.181   1.566 -0.4574 -1.3171  0.7914
 7040SOL     OW22018   4.953   1.184   4.493 -0.6580 -0.8978  0.3864
 7040SOL    HW122019   4.963   1.207   4.397  0.4247  2.0676  1.0980
 7040SOL    HW222020   5.033   1.135   4.525  0.4733  0.8492  0.3956
 7041SOL     OW22021   0.443   1.228   5.781  0.3034 -0.5704  0.1010
 7041SOL    HW122022   0.460   1.129   5.782  0.6070 -0.5181  0.5595
 7041SOL    HW222023   0.483   1.267   5.698  2.4518 -0.4697  1.1075
 7042SOL     OW22024   2.500   3.593   0.599  0.1876  0.0311 -0.2420
 7042SOL    HW122025   2.591   3.619   0.567  0.0025  0.1379 -0.6950
 7042SOL    HW222026   2.508   3.513   0.659  0.6601  0.5436  0.3927
 7043SOL     OW22027   5.279   2.212   6.027  0.3159  0.2451 -0.4592
 7043SOL    HW122028   5.292   2.123   5.983  3.2446 -0.2903  1.2231
 7043SOL    HW222029   5.340   2.279   5.985 -0.9698  1.2028 -0.8773
 7044SOL     OW22030   4.036   6.801   6.276  0.3869 -0.2834  0.1801
 7044SOL    HW122031   4.090   6.802   6.191 -1.6019 -0.6458 -1.1512
 7044SOL    HW222032   3.941   6.821   6.255 -0.6565 -2.8626  1.9719
 7045SOL     OW22033   1.425   4.491   3.706 -0.4530 -0.1074  0.1398
 7045SOL    HW122034   1.401   4.525   3.797 -1.6337  0.6360 -0.4211
 7045SOL    HW222035   1.406   4.561   3.638 -2.9357 -1.7948 -1.0637
 7046SOL     OW22036   2.766   0.864   4.551  0.5558 -0.4930  0.2688
 7046SOL    HW122037   2.712   0.916   4.618  1.4017  1.4477 -0.4955
 7046SOL    HW222038   2.734   0.770   4.550 -1.0418 -0.0316  1.7265
 7047SOL     OW22039   4.927   6.712   6.342 -0.0193  0.0277 -0.0743
 7047SOL    HW122040   4.902   6.711   6.245  3.1145 -0.8562 -1.0193
 7047SOL    HW222041   5.011   6.765   6.354 -0.9877  1.1581  2.4162
 7048SOL     OW22042   5.441   1.498   5.049 -0.1436 -0.3336  0.0177
 7048SOL    HW122043   5.445   1.444   5.133 -0.6933 -1.1524 -0.4670
 7048SOL    HW222044   5.482   1.587   5.065 -0.4089 -0.4074  1.2125
 7049SOL     OW22045   2.935   0.969   3.234  0.0714  0.2271 -0.4174
 7049SOL    HW122046   2.845   0.985   3.275 -0.1205 -1.9077  0.1244
 7049SOL    HW222047   3.007   1.002   3.295 -0.3062 -0.0636  0.1964
 7050SOL     OW22048   6.192   3.621   2.333 -0.0914  0.3006 -0.1968
 7050SOL    HW122049   6.222   3.650   2.242  2.1174 -0.6557  0.1438
 7050SOL    HW222050   6.235   3.679   2.402  2.0528 -1.7615  0.3565
 7051SOL     OW22051   4.165   1.832   5.604  0.1402  0.0082  0.3749
 7051SOL    HW122052   4.129   1.913   5.651 -1.4636 -0.3194 -0.2197
 7051SOL    HW222053   4.142   1.750   5.657 -0.2438 -0.2335 -0.1652
 7052SOL     OW22054   2.013   3.654   1.803  0.6051 -0.6322 -0.0570
 7052SOL    HW122055   2.065   3.706   1.736  1.5979  0.5475  1.5367
 7052SOL    HW222056   2.075   3.619   1.874 -0.6674  0.4344  1.6750
 7053SOL     OW22057   1.611   2.367   6.368  0.3924  0.2148 -0.2231
 7053SOL    HW122058   1.598   2.345   6.271 -0.8186 -0.8769  0.1587
 7053SOL    HW222059   1.609   2.467   6.379  0.4947  0.3546 -1.3074
 7054SOL     OW22060   6.416   4.244   6.535 -0.4283  0.9355  0.3127
 7054SOL    HW122061   6.485   4.271   6.602 -0.2270  0.2511  0.3941
 7054SOL    HW222062   6.461   4.218   6.449 -0.6297  1.0859  0.1607
 7055SOL     OW22063   1.952   2.742   1.502  0.4172  0.1303  0.6411
 7055SOL    HW122064   1.995   2.711   1.587  1.5020 -0.6667 -0.1712
 7055SOL    HW222065   2.012   2.808   1.456 -1.0425  2.1260  1.4261
 7056SOL     OW22066   0.565   1.081   3.795 -0.3039  0.6056  0.1656
 7056SOL    HW122067   0.650   1.091   3.847 -0.4738 -0.2209  0.6103
 7056SOL    HW222068   0.584   1.034   3.708 -0.6741 -1.9896  1.3994
 7057SOL     OW22069   6.357   5.882   2.148 -0.2833  0.9080 -0.7808
 7057SOL    HW122070   6.332   5.808   2.085 -2.7233  2.7418 -2.1418
 7057SOL    HW222071   6.456   5.881   2.163 -0.1874 -2.6129 -0.6368
 7058SOL     OW22072   6.649   0.306   4.511  0.3056  0.0351 -0.2480
 7058SOL    HW122073   6.724   0.241   4.507 -0.3407 -0.7113 -0.4535
 7058SOL    HW222074   6.594   0.298   4.428 -1.0159 -0.6650  0.6609
 7059SOL     OW22075   1.053   4.260   5.119 -0.8837  0.2894 -0.1346
 7059SOL    HW122076   1.091   4.299   5.203 -0.4986  0.7396 -0.5106
 7059SOL    HW222077   1.064   4.161   5.120 -0.7142  0.3121  0.2661
 7060SOL     OW22078   5.059   6.095   6.383 -0.3597  0.1337  0.1889
 7060SOL    HW122079   5.091   6.185   6.410 -0.2448  0.5758 -1.3028
 7060SOL    HW222080   5.001   6.103   6.302 -0.9361 -1.0667  0.4552
 7061SOL     OW22081   4.668   4.079   5.927 -0.0540 -0.0284  0.3951
 7061SOL    HW122082   4.578   4.053   5.962  0.4896 -1.2844  0.9413
 7061SOL    HW222083   4.665   4.173   5.893 -2.1501 -0.7018 -1.6173
 7062SOL     OW22084   2.197   5.615   4.179  0.0112  0.5284  1.0156
 7062SOL    HW122085   2.225   5.560   4.101 -1.7009  3.7048 -2.1297
 7062SOL    HW222086   2.270   5.614   4.248  1.2727 -3.0553 -0.1113
 7063SOL     OW22087   3.505   5.680   2.694  0.3604  0.4274  0.3017
 7063SOL    HW122088   3.506   5.611   2.621  1.0484  1.0781 -0.3146
 7063SOL    HW222089   3.551   5.643   2.775 -1.1691 -0.6269  0.7501
 7064SOL     OW22090   3.809   6.735   4.817 -0.0445 -0.0276 -0.1778
 7064SOL    HW122091   3.880   6.778   4.761  0.1464  0.1930  0.2323
 7064SOL    HW222092   3.772   6.802   4.881 -2.2938  0.5678 -1.9484
 7065SOL     OW22093   1.020   3.686   0.679 -0.0019 -0.1308 -0.1178
 7065SOL    HW122094   1.049   3.743   0.755 -0.8663  0.8739 -0.5120
 7065SOL    HW222095   1.029   3.737   0.593  0.6027 -1.1096 -0.6597
 7066SOL     OW22096   5.285   2.738   1.857 -0.1672  0.2792  0.0051
 7066SOL    HW122097   5.288   2.720   1.758  0.0263 -1.1707  0.2400
 7066SOL    HW222098   5.374   2.716   1.897 -0.7548 -0.8434  0.7450
 7067SOL     OW22099   3.214   3.711   6.290  0.9730 -0.1057 -1.1687
 7067SOL    HW122100   3.301   3.755   6.271  1.0682 -0.0400 -0.5834
 7067SOL    HW222101   3.208   3.687   6.387 -0.0815  0.8354 -0.9768
 7068SOL     OW22102   4.252   0.779   4.069  0.1916 -0.3155  0.6656
 7068SOL    HW122103   4.262   0.827   4.156  0.8756 -0.7104  0.8119
 7068SOL    HW222104   4.263   0.844   3.993 -2.1669  0.3863  0.8418
 7069SOL     OW22105   0.429   1.104   6.988 -0.0099 -0.3135 -0.6468
 7069SOL    HW122106   0.421   1.202   7.006 -0.4977 -0.1206 -1.8756
 7069SOL    HW222107   0.448   1.057   7.074 -0.9584  0.7253  0.1720
 7070SOL     OW22108   1.840   3.963   3.741 -0.5873  0.4501  0.3289
 7070SOL    HW122109   1.933   3.986   3.768 -0.2275  0.9186 -1.1777
 7070SOL    HW222110   1.791   4.046   3.714 -0.8729  0.0219 -0.5132
 7071SOL     OW22111   0.864   1.368   2.866 -0.1044 -0.2615  0.1159
 7071SOL    HW122112   0.893   1.350   2.960  0.6304  0.5296  0.0538
 7071SOL    HW222113   0.869   1.284   2.812  0.7001 -0.4447  0.4678
 7072SOL     OW22114   6.213   0.002   1.267 -0.3052  0.0217  0.5071
 7072SOL    HW122115   6.270  -0.018   1.347 -1.0556  0.5503  1.2035
 7072SOL    HW222116   6.228   0.097   1.238  2.5158 -1.0992 -2.1641
 7073SOL     OW22117   2.448   2.408   0.812  0.4370  0.0977 -0.1290
 7073SOL    HW122118   2.503   2.325   0.820  1.5287  0.7571 -0.7158
 7073SOL    HW222119   2.504   2.488   0.830 -0.7831  0.7124  1.2333
 7074SOL     OW22120   4.131   5.547   1.873 -0.6585 -0.0731 -0.0737
 7074SOL    HW122121   4.149   5.638   1.911 -1.2645 -1.3369  3.6811
 7074SOL    HW222122   4.035   5.523   1.890 -0.3730 -1.6168 -0.5151
 7075SOL     OW22123   4.864   3.750   0.456  0.0348  0.1764 -0.2833
 7075SOL    HW122124   4.843   3.718   0.549  0.7763  0.2202 -0.0948
 7075SOL    HW222125   4.905   3.675   0.404  0.0649  0.2926 -0.4247
 7076SOL     OW22126   0.959   4.022   0.849 -0.5511 -0.7717  0.3385
 7076SOL    HW122127   0.994   3.929   0.855 -2.1495 -1.4398 -0.1112
 7076SOL    HW222128   0.994   4.066   0.767 -1.8269 -1.9166 -0.8611
 7077SOL     OW22129   3.667   4.029   3.592 -0.1746  0.3744 -0.1366
 7077SOL    HW122130   3.648   4.067   3.682  1.8171 -1.7004  1.2641
 7077SOL    HW222131   3.702   3.936   3.602 -0.1604 -0.0276 -3.0943
 7078SOL     OW22132   6.774   5.099   3.949 -0.1851 -0.5579 -0.5329
 7078SOL    HW122133   6.773   5.163   3.872  1.5706  0.6696  0.3936
 7078SOL    HW222134   6.684   5.056   3.958 -2.0027  2.8902 -0.3080
 7079SOL     OW22135   1.456   1.449   2.144 -0.0566  0.6416 -0.1343
 7079SOL    HW122136   1.370   1.455   2.195  0.0074  0.5925 -0.0191
 7079SOL    HW222137   1.528   1.493   2.196  0.3220 -0.6915  0.5148
 7080SOL     OW22138   6.396   3.055   0.795  0.7621  0.2962  0.6556
 7080SOL    HW122139   6.383   2.978   0.733 -0.7066  1.2199 -0.2521
 7080SOL    HW222140   6.493   3.080   0.798  1.5546 -2.4904  2.1652
 7081SOL     OW22141   0.484   5.019   1.706 -0.2466  0.5444 -0.3889
 7081SOL    HW122142   0.534   5.010   1.792 -0.0478 -0.0627 -0.5643
 7081SOL    HW222143   0.449   5.113   1.698 -2.0415  0.1161  1.3332
 7082SOL     OW22144   3.476   2.825   0.236 -0.1200 -0.4156 -0.2188
 7082SOL    HW122145   3.455   2.759   0.309  0.4202 -0.0560  0.2694
 7082SOL    HW222146   3.444   2.916   0.264 -0.9341 -0.4717 -0.9241
 7083SOL     OW22147   4.987   3.728   3.007 -0.1731  0.5404 -0.3113
 7083SOL    HW122148   5.009   3.699   2.913 -0.4972 -1.5433  0.1968
 7083SOL    HW222149   5.071   3.756   3.053  0.2676 -0.0593 -0.7202
 7084SOL     OW22150   0.236   5.730   1.275  0.7741 -0.2359  0.5161
 7084SOL    HW122151   0.229   5.705   1.179 -0.8705 -0.7647  0.7322
 7084SOL    HW222152   0.321   5.695   1.314  0.6107 -1.5674 -0.2974
 7085SOL     OW22153   6.330   4.283   0.174  0.3791 -0.2878 -0.4962
 7085SOL    HW122154   6.292   4.374   0.189  2.1290  0.3651  0.1755
 7085SOL    HW222155   6.344   4.268   0.077  1.9154  0.9699 -0.5057
 7086SOL     OW22156   3.186   4.904   2.584 -0.2046  0.5898  0.5371
 7086SOL    HW122157   3.285   4.891   2.584  0.1499  1.9143 -3.4675
 7086SOL    HW222158   3.161   4.961   2.663  2.5834  2.0928  0.5004
 7087SOL     OW22159   4.483   2.347   6.864 -0.6015  0.0035 -0.3196
 7087SOL    HW122160   4.573   2.377   6.834 -0.1556 -0.2416  0.7321
 7087SOL    HW222161   4.449   2.276   6.802  0.3058 -0.5047 -0.2493
 7088SOL     OW22162   6.076   6.779   1.298  0.6010 -0.5712  0.0909
 7088SOL    HW122163   5.980   6.804   1.286  0.8468 -0.5266 -2.4788
 7088SOL    HW222164   6.134   6.849   1.257  1.5681 -2.0820 -1.2686
 7089SOL     OW22165   0.882   5.310   3.846 -0.2228 -0.0286 -0.2717
 7089SOL    HW122166   0.919   5.271   3.762  0.4271 -1.6540  0.7028
 7089SOL    HW222167   0.945   5.293   3.921  0.1718  3.1424  0.2502
 7090SOL     OW22168   4.539   5.251   6.218 -0.1086  0.3865 -0.1254
 7090SOL    HW122169   4.547   5.169   6.161  3.2823  0.1076  0.5110
 7090SOL    HW222170   4.478   5.231   6.295 -2.6492 -0.0734 -2.1132
 7091SOL     OW22171   0.288   4.682   0.348  0.2167  0.3145  0.4328
 7091SOL    HW122172   0.219   4.624   0.389 -0.7509  2.0778  1.4301
 7091SOL    HW222173   0.336   4.632   0.276 -1.3722 -1.2924  0.4328
 7092SOL     OW22174   3.075   6.483   5.640 -0.4143 -0.3035 -0.0274
 7092SOL    HW122175   3.042   6.390   5.653 -0.3871 -0.6700 -2.2153
 7092SOL    HW222176   3.168   6.480   5.601  0.0892  0.6645  1.0438
 7093SOL     OW22177   3.355   3.213   4.996  0.2075 -0.2995 -0.0291
 7093SOL    HW122178   3.302   3.230   5.078 -0.0503  1.3950 -0.5126
 7093SOL    HW222179   3.314   3.138   4.944  0.0886 -1.0478  1.1195
 7094SOL     OW22180   2.525   4.765   3.018  0.1244  0.2091 -0.1734
 7094SOL    HW122181   2.567   4.686   3.062 -2.0300 -0.5956  0.5863
 7094SOL    HW222182   2.428   4.770   3.043 -0.4650  1.5288 -2.3835
 7095SOL     OW22183   6.789   3.514   6.831  0.0406 -0.1653 -0.1745
 7095SOL    HW122184   6.877   3.550   6.861  0.4044  0.9971 -2.4581
 7095SOL    HW222185   6.720   3.586   6.839 -0.7553 -1.0524  1.5457
 7096SOL     OW22186   1.858   2.266   6.440 -0.0608 -0.3080  0.5238
 7096SOL    HW122187   1.861   2.226   6.531 -0.3941  0.1502  0.7398
 7096SOL    HW222188   1.769   2.308   6.425 -0.3742 -1.2503 -0.3923
 7097SOL     OW22189   4.774   6.249   2.115 -0.7274 -0.9837 -0.0393
 7097SOL    HW122190   4.756   6.331   2.169 -2.7717 -0.5965 -1.2399
 7097SOL    HW222191   4.834   6.188   2.168  0.9742  1.2770  0.8241
 7098SOL     OW22192   0.174   4.595   5.109  0.2044 -0.3910  0.1231
 7098SOL    HW122193   0.234   4.667   5.143  0.3670 -0.3780 -0.1909
 7098SOL    HW222194   0.228   4.514   5.086  0.1792 -0.1607 -0.7612
 7099SOL     OW22195   3.773   6.115   6.601 -0.3700  0.1500 -0.1917
 7099SOL    HW122196   3.788   6.079   6.509  0.1370  0.4955 -0.2482
 7099SOL    HW222197   3.750   6.040   6.663  0.2528 -0.2182 -0.3971
 7100SOL     OW22198   6.187   4.513   2.455  0.1631  0.2567  0.6398
 7100SOL    HW122199   6.283   4.501   2.427 -0.0528 -1.2872  0.4618
 7100SOL    HW222200   6.151   4.426   2.488 -1.0272  0.9536  1.2301
 7101SOL     OW22201   2.436   1.414   6.374 -0.5100  0.0464  0.3345
 7101SOL    HW122202   2.345   1.394   6.336 -1.1154 -0.4750  1.9620
 7101SOL    HW222203   2.504   1.410   6.301 -1.7018 -0.2230 -0.8031
 7102SOL     OW22204   2.430   4.567   0.808 -0.0612  0.0854 -0.2538
 7102SOL    HW122205   2.406   4.664   0.799 -2.3450 -0.3920  0.0788
 7102SOL    HW222206   2.365   4.522   0.869  1.7468 -1.4182  0.6697
 7103SOL     OW22207   5.354   4.079   1.899 -0.4931 -0.7841 -0.2479
 7103SOL    HW122208   5.306   4.106   1.816  0.2855 -1.0679 -0.8049
 7103SOL    HW222209   5.441   4.035   1.874  0.5213  0.5617  0.7328
 7104SOL     OW22210   5.444   5.870   4.793 -0.1297 -0.1907 -0.2258
 7104SOL    HW122211   5.463   5.951   4.848 -1.0682  0.1864 -0.4389
 7104SOL    HW222212   5.459   5.788   4.847 -1.0275  0.1717  0.5861
 7105SOL     OW22213   2.487   4.194   0.403  0.2860  0.5420  0.1836
 7105SOL    HW122214   2.474   4.192   0.502 -0.4336  0.1329  0.0894
 7105SOL    HW222215   2.401   4.219   0.359  0.3887 -0.0614 -0.3715
 7106SOL     OW22216   3.867   6.039   1.203  0.5494  0.3759  0.0701
 7106SOL    HW122217   3.770   6.066   1.201  0.0031 -1.4733 -1.3627
 7106SOL    HW222218   3.885   5.985   1.285  1.1494  3.1019  1.8670
 7107SOL     OW22219   5.578   0.011   4.016  0.0336 -0.0296  0.8340
 7107SOL    HW122220   5.648  -0.031   4.073  2.1801  1.8076 -0.3146
 7107SOL    HW222221   5.549   0.098   4.057 -1.6880 -0.7655  1.3070
 7108SOL     OW22222   2.834   0.096   4.282 -0.4625  0.2831 -0.1391
 7108SOL    HW122223   2.857   0.044   4.364  0.1878 -1.5494 -1.4198
 7108SOL    HW222224   2.859   0.043   4.201 -2.0930  1.5652 -1.5473
 7109SOL     OW22225   5.438   3.285   0.334  0.1575  0.3181 -0.4822
 7109SOL    HW122226   5.347   3.244   0.339  0.1364  0.4814  0.8930
 7109SOL    HW222227   5.501   3.219   0.293 -0.4404 -0.0232 -0.8848
 7110SOL     OW22228   2.478   2.476   2.494 -0.7717  0.1719  0.3448
 7110SOL    HW122229   2.438   2.562   2.524  0.2726  0.8216 -0.0626
 7110SOL    HW222230   2.507   2.484   2.398  2.0626  0.4163  1.1460
 7111SOL     OW22231   3.569   5.772   5.558 -0.4307 -0.3540  0.0432
 7111SOL    HW122232   3.645   5.809   5.506 -0.8373  1.4048  0.6397
 7111SOL    HW222233   3.483   5.802   5.517 -0.9495 -3.4649 -1.4879
 7112SOL     OW22234   4.957   6.725   3.994  0.4272  0.5057  0.5215
 7112SOL    HW122235   4.902   6.796   4.036  0.5403  0.2471  1.1145
 7112SOL    HW222236   4.934   6.636   4.034  0.0772  0.1569 -0.4075
 7113SOL     OW22237   0.829   1.564   6.239 -0.3439  0.2996 -0.2038
 7113SOL    HW122238   0.850   1.611   6.154  1.4594  0.3924  0.2638
 7113SOL    HW222239   0.902   1.579   6.305 -0.5785 -1.6531  0.5774
 7114SOL     OW22240   2.347   0.773   3.720  0.2279  0.0628  0.3583
 7114SOL    HW122241   2.405   0.777   3.801  2.3079  1.5881 -1.0841
 7114SOL    HW222242   2.317   0.865   3.696 -0.4839 -0.3811 -0.5128
 7115SOL     OW22243   1.684   5.927   1.050  1.0469  0.5995 -0.2007
 7115SOL    HW122244   1.774   5.887   1.061  0.3846 -0.5028  1.7133
 7115SOL    HW222245   1.681   6.016   1.097  0.7539 -0.0634  1.1023
 7116SOL     OW22246   4.967   0.480   0.461  0.5989  0.0901  0.6263
 7116SOL    HW122247   4.957   0.382   0.445  1.8728 -0.2155  1.6211
 7116SOL    HW222248   5.044   0.515   0.408  1.6019  0.0768  2.0282
 7117SOL     OW22249   6.419   3.857   2.934 -0.0995  0.4268 -0.0575
 7117SOL    HW122250   6.339   3.815   2.891 -0.2528  0.3607  0.2924
 7117SOL    HW222251   6.391   3.943   2.978  0.4484  1.6261 -1.9206
 7118SOL     OW22252   0.831   4.258   0.181 -0.2434 -0.6466  0.1745
 7118SOL    HW122253   0.833   4.185   0.112  1.5110 -1.4087  0.9725
 7118SOL    HW222254   0.749   4.313   0.168 -1.6182 -2.7102 -0.5220
 7119SOL     OW22255   3.987   2.189   5.323 -0.2446 -0.2513 -0.3842
 7119SOL    HW122256   3.896   2.229   5.318 -0.0920  0.1085 -0.3320
 7119SOL    HW222257   4.049   2.253   5.369 -0.6648 -1.7589  2.5538
 7120SOL     OW22258   5.772   0.187   6.591 -0.4456  0.0105 -0.1859
 7120SOL    HW122259   5.757   0.286   6.601 -0.1795  0.1235 -0.8555
 7120SOL    HW222260   5.743   0.141   6.675  1.6123  0.8932  1.0795
 7121SOL     OW22261   2.274   5.679   0.390 -0.2112 -0.8909  0.1522
 7121SOL    HW122262   2.306   5.725   0.308 -0.1109 -1.3560 -0.0715
 7121SOL    HW222263   2.352   5.657   0.449 -0.4266  1.2817  1.3742
 7122SOL     OW22264   6.591   3.856   2.565  0.2540 -0.0812  0.5086
 7122SOL    HW122265   6.586   3.773   2.508 -1.8309  0.0286  0.4598
 7122SOL    HW222266   6.609   3.830   2.660 -0.9079 -0.6490  0.5865
 7123SOL     OW22267   3.359   2.886   3.554  0.6333 -0.0814 -0.2742
 7123SOL    HW122268   3.334   2.870   3.459  0.5911 -1.8975  0.0112
 7123SOL    HW222269   3.281   2.925   3.603 -0.6366 -2.5789 -0.1626
 7124SOL     OW22270   0.715   2.967   4.270  0.4482 -0.3079 -0.4540
 7124SOL    HW122271   0.637   2.945   4.327  1.2575 -1.6902  0.1779
 7124SOL    HW222272   0.771   2.885   4.256  0.3047 -0.0202 -3.2258
 7125SOL     OW22273   5.596   6.523   6.651 -0.0774  0.5879  0.0587
 7125SOL    HW122274   5.546   6.442   6.621 -0.5143  1.5020 -1.7675
 7125SOL    HW222275   5.684   6.494   6.690 -0.6593 -0.8115  0.4257
 7126SOL     OW22276   0.845   6.380   6.785  0.1309  0.3647  0.3214
 7126SOL    HW122277   0.934   6.421   6.768 -0.1666  1.4354  1.2232
 7126SOL    HW222278   0.785   6.395   6.706  0.1442  1.3893  0.4855
 7127SOL     OW22279   6.404   1.171   2.712 -0.4074 -0.2691  0.1762
 7127SOL    HW122280   6.387   1.074   2.724  1.0624 -0.4805  0.8092
 7127SOL    HW222281   6.439   1.189   2.620 -0.3482 -0.3831  0.1774
 7128SOL     OW22282   3.804   2.040   0.593  0.3587 -0.1948 -0.4980
 7128SOL    HW122283   3.736   1.998   0.531  0.1288 -0.9641  0.2588
 7128SOL    HW222284   3.790   2.139   0.594 -1.4750 -0.4181  0.4448
 7129SOL     OW22285   3.361   5.095   5.910 -0.1815  0.5125  0.4280
 7129SOL    HW122286   3.445   5.082   5.963 -1.4682  0.1153  2.4525
 7129SOL    HW222287   3.376   5.168   5.842  1.6360  0.7711  1.0514
 7130SOL     OW22288   1.254   6.294   5.482  0.0614  0.2156 -0.0739
 7130SOL    HW122289   1.195   6.335   5.551 -0.5291  1.2652 -1.1688
 7130SOL    HW222290   1.211   6.211   5.446  0.8762 -0.9793  1.5488
 7131SOL     OW22291   1.903   6.308   1.931  0.2195  0.5816  0.6725
 7131SOL    HW122292   1.987   6.361   1.917 -0.4332  1.7319  0.9227
 7131SOL    HW222293   1.897   6.236   1.862  0.5628  1.6039 -0.4673
 7132SOL     OW22294   2.125   4.692   0.425  0.2242 -0.3020 -0.6845
 7132SOL    HW122295   2.222   4.713   0.439  0.5509 -0.4176 -2.6105
 7132SOL    HW222296   2.069   4.768   0.461  1.0656  0.2995 -0.6117
 7133SOL     OW22297   2.569   5.237   2.579 -0.4153 -0.4452 -0.3448
 7133SOL    HW122298   2.568   5.159   2.517  0.8122 -0.5064 -0.3101
 7133SOL    HW222299   2.542   5.319   2.529 -0.3009 -0.6447 -0.7401
 7134SOL     OW22300   0.434   5.374   5.664  0.1649  0.0224  0.1586
 7134SOL    HW122301   0.374   5.441   5.708 -0.0077  0.0819 -0.1684
 7134SOL    HW222302   0.510   5.421   5.620 -0.2067  0.0398 -0.4679
 7135SOL     OW22303   4.922   3.794   5.460  0.1957  0.5157  0.5713
 7135SOL    HW122304   4.982   3.746   5.524  1.7160 -0.6674 -1.5969
 7135SOL    HW222305   4.937   3.893   5.468  0.6906  0.3682  1.6690
 7136SOL     OW22306   1.626   2.644   4.154 -0.4290  0.4859  0.5825
 7136SOL    HW122307   1.691   2.680   4.222 -0.3145  0.6886  0.3703
 7136SOL    HW222308   1.550   2.708   4.144  0.3913  1.3126 -0.6996
 7137SOL     OW22309   2.317   0.266   0.348 -0.0591  0.6807  0.5408
 7137SOL    HW122310   2.302   0.301   0.256  1.7925  3.2837  1.1275
 7137SOL    HW222311   2.406   0.221   0.354  0.7220  2.2557  1.4437
 7138SOL     OW22312   2.049   2.568   0.837  0.1365 -0.3880  0.2750
 7138SOL    HW122313   2.078   2.659   0.808  1.0748 -0.0694  2.0585
 7138SOL    HW222314   1.975   2.576   0.904  0.5487 -0.9018  0.8017
 7139SOL     OW22315   1.882   5.393   4.670  0.1096 -0.0599  0.2830
 7139SOL    HW122316   1.954   5.409   4.603 -0.7474  1.3239 -0.3395
 7139SOL    HW222317   1.910   5.430   4.759 -0.1045  1.1352 -0.1304
 7140SOL     OW22318   6.885   4.090   6.270 -0.2831  0.1653  0.4502
 7140SOL    HW122319   6.813   4.028   6.239 -0.1815 -0.1186  0.7711
 7140SOL    HW222320   6.947   4.041   6.332  0.2944  0.3526  0.0374
 7141SOL     OW22321   4.878   4.037   6.644  0.3471 -0.3810  0.4188
 7141SOL    HW122322   4.863   4.000   6.552 -0.2786  1.3863 -0.2580
 7141SOL    HW222323   4.976   4.043   6.663  0.4834 -0.6525 -0.1791
 7142SOL     OW22324   3.709   6.067   4.008 -0.4870 -0.5329 -1.3104
 7142SOL    HW122325   3.692   6.013   4.091 -0.2670 -1.9959 -2.1885
 7142SOL    HW222326   3.626   6.068   3.952 -0.6544  0.5074 -1.0529
 7143SOL     OW22327   3.357   6.873   2.135 -0.0758  0.1905  0.0324
 7143SOL    HW122328   3.370   6.788   2.185 -0.3994  0.7898  1.1853
 7143SOL    HW222329   3.444   6.923   2.131 -0.5324  1.3001  2.2586
 7144SOL     OW22330   6.564   4.927   6.391 -0.0554  0.1452  0.3029
 7144SOL    HW122331   6.617   4.868   6.331  1.9719  1.2271  0.9494
 7144SOL    HW222332   6.517   4.997   6.336  0.3374  0.0440 -0.1643
 7145SOL     OW22333   5.237   2.079   5.779 -0.0809  0.0802  0.3191
 7145SOL    HW122334   5.318   2.108   5.728 -0.5128 -1.7357 -1.5396
 7145SOL    HW222335   5.202   1.994   5.740 -1.8471 -0.1460  2.2288
 7146SOL     OW22336   1.841   3.446   5.875 -0.5587  0.3900  0.0282
 7146SOL    HW122337   1.840   3.506   5.795  0.9437  0.7514  0.2634
 7146SOL    HW222338   1.817   3.353   5.847 -0.4235  0.5886 -0.7679
 7147SOL     OW22339   3.190   5.096   0.271 -0.0100 -0.0396  0.3122
 7147SOL    HW122340   3.106   5.100   0.324 -1.2654  0.3352 -1.6141
 7147SOL    HW222341   3.258   5.157   0.312 -1.4280  1.3457  0.6930
 7148SOL     OW22342   5.778   3.988   6.571 -0.0998  0.7879 -0.6183
 7148SOL    HW122343   5.866   4.009   6.613 -1.2626  3.1130  0.9165
 7148SOL    HW222344   5.730   3.920   6.627 -0.3567  1.5544  0.1240
 7149SOL     OW22345   5.989   6.022   2.105  0.3716  0.4309 -0.0040
 7149SOL    HW122346   5.905   5.970   2.118  0.9429  0.0078  2.5129
 7149SOL    HW222347   6.038   5.987   2.025 -0.9958 -0.4333 -0.5002
 7150SOL     OW22348   3.771   0.096   1.500  0.1117 -0.0731  0.5636
 7150SOL    HW122349   3.839   0.170   1.497  0.1824 -0.0039  2.7142
 7150SOL    HW222350   3.689   0.129   1.547 -0.4725 -0.9199  0.1587
 7151SOL     OW22351   0.059   3.506   3.700 -0.2234 -0.1264  0.1035
 7151SOL    HW122352  -0.030   3.546   3.722 -1.2401 -1.5763 -1.2600
 7151SOL    HW222353   0.131   3.560   3.745 -1.7652  0.9986  1.3280
 7152SOL     OW22354   6.789   1.502   3.025  0.3701 -0.0966 -0.0090
 7152SOL    HW122355   6.735   1.431   3.071  0.4515  0.1402  0.4608
 7152SOL    HW222356   6.770   1.591   3.067 -0.4720  0.3198 -1.2348
 7153SOL     OW22357   2.402   3.748   6.015 -0.3756 -0.2626  0.7575
 7153SOL    HW122358   2.316   3.772   5.971  0.3545 -1.3579 -1.3632
 7153SOL    HW222359   2.388   3.673   6.079 -0.9302 -0.6425  0.1836
 7154SOL     OW22360   3.073   2.082   2.680  0.2536 -0.0220 -0.1606
 7154SOL    HW122361   3.051   2.149   2.751 -1.5327  0.8249 -1.4624
 7154SOL    HW222362   3.093   2.129   2.594 -1.3033 -1.1310 -1.1670
 7155SOL     OW22363   5.861   5.173   3.165 -0.4692 -0.1493 -0.2263
 7155SOL    HW122364   5.772   5.192   3.123 -0.9097 -1.4202  0.0715
 7155SOL    HW222365   5.886   5.078   3.147  0.5979  0.0541  0.1281
 7156SOL     OW22366   6.860   2.884   0.111 -0.6655 -0.0191 -0.6378
 7156SOL    HW122367   6.797   2.827   0.058  0.1252  0.1256 -1.7621
 7156SOL    HW222368   6.837   2.980   0.099 -1.1982 -0.0269  0.2285
 7157SOL     OW22369   1.014   4.905   5.112 -0.0840  0.3343  0.5764
 7157SOL    HW122370   1.080   4.877   5.182  0.6989  0.6948  0.0008
 7157SOL    HW222371   1.034   4.856   5.027 -0.0264  1.0689  0.1608
 7158SOL     OW22372   4.598   1.072   5.988  0.2216 -0.5456  0.0417
 7158SOL    HW122373   4.589   1.170   6.006 -1.4159 -0.1006 -2.6290
 7158SOL    HW222374   4.678   1.056   5.931 -0.2154 -0.5602 -0.5798
 7159SOL     OW22375   1.972   0.106   2.307 -0.3682  0.2268  0.3235
 7159SOL    HW122376   2.040   0.163   2.260 -2.0817  1.8444 -0.2890
 7159SOL    HW222377   1.945   0.031   2.247 -0.0349  0.2961  0.0838
 7160SOL     OW22378   1.599   6.994   5.167  0.4633 -0.1104  0.3942
 7160SOL    HW122379   1.568   7.045   5.087 -1.7120  0.8404  1.7239
 7160SOL    HW222380   1.562   6.901   5.163  0.0876  0.0356  0.4471
 7161SOL     OW22381   3.232   3.064   2.436 -0.3912 -0.0673 -0.1859
 7161SOL    HW122382   3.215   3.064   2.338  0.3533 -0.2228 -0.3218
 7161SOL    HW222383   3.309   3.125   2.457  1.5062 -2.3650 -0.0978
 7162SOL     OW22384   1.127   4.491   2.918  0.4124  0.6363 -0.2095
 7162SOL    HW122385   1.181   4.408   2.937 -0.6315  0.0295  0.1746
 7162SOL    HW222386   1.182   4.554   2.864  1.5661  0.0990  0.2958
 7163SOL     OW22387   1.842   1.253   6.894 -0.1725  0.7821  0.6243
 7163SOL    HW122388   1.829   1.245   6.992 -2.9444 -3.1006  0.1869
 7163SOL    HW222389   1.757   1.285   6.851 -0.1829 -0.8133 -0.6621
 7164SOL     OW22390   6.440   1.757   3.488 -0.1416 -0.7887  0.7059
 7164SOL    HW122391   6.518   1.698   3.470  0.1829 -0.3595  0.6744
 7164SOL    HW222392   6.365   1.703   3.526 -0.0327 -1.3021  0.1962
 7165SOL     OW22393   1.968   5.766   0.785  0.1204 -0.1098  0.7189
 7165SOL    HW122394   2.007   5.674   0.796  1.6787  0.4839  0.3253
 7165SOL    HW222395   1.945   5.802   0.876 -2.0189 -1.4707  0.8009
 7166SOL     OW22396   6.259   6.618   2.439 -0.0931  0.4844  0.4407
 7166SOL    HW122397   6.283   6.557   2.516 -0.8015 -0.3010  0.0537
 7166SOL    HW222398   6.163   6.607   2.417  0.3483 -0.1585 -1.3107
 7167SOL     OW22399   0.491   5.677   5.927 -0.4831 -0.2238 -0.3164
 7167SOL    HW122400   0.487   5.771   5.960  0.1527  0.4567 -2.0863
 7167SOL    HW222401   0.418   5.661   5.860 -1.1907 -1.3108  0.6569
 7168SOL     OW22402   6.884   1.463   6.034 -0.2835 -0.0852  0.1907
 7168SOL    HW122403   6.912   1.405   5.957 -0.5030 -1.3687  1.0433
 7168SOL    HW222404   6.949   1.538   6.045 -0.6888  0.6049 -1.7308
 7169SOL     OW22405   0.952   6.841   0.769  0.5633 -0.0244 -0.5857
 7169SOL    HW122406   0.941   6.878   0.862  1.5661 -1.0966 -0.0074
 7169SOL    HW222407   0.862   6.829   0.727  0.0562 -0.0640  0.4813
 7170SOL     OW22408   1.108   4.629   6.755  0.1759 -0.6215  0.1631
 7170SOL    HW122409   1.186   4.683   6.786 -0.5211  1.2811 -1.1732
 7170SOL    HW222410   1.060   4.590   6.834  0.3338  1.2987  1.2606
 7171SOL     OW22411   5.180   0.671   1.896  0.0349 -0.3340  0.6201
 7171SOL    HW122412   5.117   0.671   1.974 -0.6388  1.5096  0.1346
 7171SOL    HW222413   5.157   0.747   1.836 -0.0372 -2.2181 -1.8799
 7172SOL     OW22414   4.836   6.451   3.305  0.7916 -0.4807 -0.6968
 7172SOL    HW122415   4.785   6.394   3.370 -0.3034  0.4984 -0.6575
 7172SOL    HW222416   4.774   6.519   3.265  1.6577 -0.4746 -2.0853
 7173SOL     OW22417   3.529   7.008   0.592 -0.5439 -0.2661  0.3546
 7173SOL    HW122418   3.586   7.085   0.564 -1.7604 -0.0041 -1.6155
 7173SOL    HW222419   3.439   7.041   0.618 -0.7559 -0.9423  0.4989
 7174SOL     OW22420   3.057   0.503   6.278  0.3173  0.2623  0.1789
 7174SOL    HW122421   3.138   0.511   6.336 -1.0040 -0.1603  2.1923
 7174SOL    HW222422   2.981   0.552   6.320 -1.1299 -1.4155 -0.3473
 7175SOL     OW22423   1.135   3.309   1.217 -0.0434 -0.4663  0.0121
 7175SOL    HW122424   1.117   3.337   1.311  1.5492  2.3265 -0.3911
 7175SOL    HW222425   1.059   3.336   1.158  0.3595  0.8466  0.0484
 7176SOL     OW22426   1.177   3.483   6.817  0.0501  0.0881 -0.6156
 7176SOL    HW122427   1.141   3.431   6.895  0.5591  0.2136 -0.2904
 7176SOL    HW222428   1.140   3.445   6.732 -2.2965  1.3238 -0.2455
 7177SOL     OW22429   6.877   4.542   6.434 -0.4023 -0.5040  0.2280
 7177SOL    HW122430   6.955   4.541   6.372 -0.6961  1.8652 -0.2875
 7177SOL    HW222431   6.909   4.537   6.529  0.2982 -0.4203  0.0004
 7178SOL     OW22432   0.447   5.971   3.817  0.3491  0.1678 -0.6285
 7178SOL    HW122433   0.382   5.970   3.894 -1.1187  0.8130 -1.7941
 7178SOL    HW222434   0.518   5.902   3.832 -1.0995 -1.1969  0.2975
 7179SOL     OW22435   0.917   4.644   0.303 -0.3725  0.2306  0.4614
 7179SOL    HW122436   0.865   4.577   0.250  1.7604 -0.5972 -0.7249
 7179SOL    HW222437   0.898   4.632   0.400 -2.4329  0.0657  0.0783
 7180SOL     OW22438   1.688   2.403   5.320 -0.0015  0.2478 -0.1645
 7180SOL    HW122439   1.631   2.343   5.376  1.0949 -0.3298  0.3648
 7180SOL    HW222440   1.755   2.348   5.270  1.0445  1.0178  0.3534
 7181SOL     OW22441   5.748   0.854   5.016 -0.1861  0.1674 -0.1706
 7181SOL    HW122442   5.746   0.758   5.044 -1.6594  0.6610  1.6286
 7181SOL    HW222443   5.841   0.889   5.023  0.2740 -0.9764 -0.3424
 7182SOL     OW22444   0.201   4.696   5.938  0.4238 -0.1549  0.0711
 7182SOL    HW122445   0.294   4.701   5.901 -0.2230 -1.4795 -1.9203
 7182SOL    HW222446   0.201   4.728   6.033  2.4788  1.9912 -0.5662
 7183SOL     OW22447   4.920   0.951   3.044  0.6871 -0.0942  0.0590
 7183SOL    HW122448   4.823   0.952   3.020  1.0730  0.2086 -1.6194
 7183SOL    HW222449   4.936   1.012   3.122 -0.2709  0.8600 -0.4658
 7184SOL     OW22450   0.290   1.399   4.031  0.0013  0.3674  0.0920
 7184SOL    HW122451   0.196   1.397   4.064 -0.4276 -1.6451 -1.0799
 7184SOL    HW222452   0.291   1.385   3.932  1.5975 -2.2204  0.3693
 7185SOL     OW22453   6.548   6.520   6.133 -0.0511  0.3706  0.1289
 7185SOL    HW122454   6.516   6.450   6.069  0.3807  0.8865 -0.6858
 7185SOL    HW222455   6.513   6.610   6.104 -0.5944  0.4994  1.1551
 7186SOL     OW22456   6.336   0.551   6.234  0.0402 -0.6694  0.3335
 7186SOL    HW122457   6.316   0.465   6.186  0.4687 -0.7232  0.2494
 7186SOL    HW222458   6.402   0.604   6.181  0.7276 -0.8520  0.9825
 7187SOL     OW22459   4.202   3.888   5.591 -0.1359 -0.2213 -0.1553
 7187SOL    HW122460   4.238   3.800   5.620 -2.0105 -0.8260  0.4640
 7187SOL    HW222461   4.202   3.894   5.491  1.2667 -0.3442 -0.1737
 7188SOL     OW22462   3.495   4.893   3.483  0.1298  0.7699  0.1252
 7188SOL    HW122463   3.578   4.872   3.535  2.9380  0.2859 -4.0449
 7188SOL    HW222464   3.476   4.991   3.487  2.3845  1.2923 -0.6701
 7189SOL     OW22465   0.176   2.102   3.548 -0.5568  0.5025  0.0494
 7189SOL    HW122466   0.125   2.036   3.494  0.2861  0.7962 -1.1736
 7189SOL    HW222467   0.140   2.194   3.531 -0.7917  0.5090  0.5957
 7190SOL     OW22468   6.289   5.579   3.077 -0.4191 -0.2793 -0.5994
 7190SOL    HW122469   6.258   5.487   3.056  0.0818 -0.4169 -0.7549
 7190SOL    HW222470   6.299   5.631   2.991 -3.2927  0.7923 -0.3873
 7191SOL     OW22471   4.938   5.650   5.602  0.2748 -0.7020  0.3498
 7191SOL    HW122472   4.914   5.741   5.637  0.0287 -0.3730 -0.6563
 7191SOL    HW222473   4.867   5.585   5.628  0.1058 -0.4699  0.4748
 7192SOL     OW22474   5.905   5.164   2.844  0.3978 -0.3557 -0.0300
 7192SOL    HW122475   5.946   5.099   2.908 -0.2641  0.5284  1.3311
 7192SOL    HW222476   5.819   5.198   2.881  0.2998  0.6481 -1.1101
 7193SOL     OW22477   2.768   6.798   3.925 -0.7177  0.0519 -0.2928
 7193SOL    HW122478   2.738   6.705   3.946 -0.3341  0.1749  0.8363
 7193SOL    HW222479   2.688   6.853   3.898 -1.2565 -0.1039  0.9212
 7194SOL     OW22480   6.915   5.372   7.019 -0.2712  0.0747 -0.9305
 7194SOL    HW122481   6.882   5.283   7.050 -1.4745  0.7787 -0.1144
 7194SOL    HW222482   6.990   5.402   7.077 -0.3612 -0.0714 -0.7377
 7195SOL     OW22483   6.014   0.719   3.682  0.0241  0.0900 -1.5893
 7195SOL    HW122484   5.978   0.770   3.605 -0.7955 -0.7724 -1.8002
 7195SOL    HW222485   6.021   0.779   3.762 -1.4959  0.4006 -1.6627
 7196SOL     OW22486   0.088   6.600   5.807  0.4398 -0.3893  0.1343
 7196SOL    HW122487   0.118   6.517   5.855 -0.5539  0.1904  1.8290
 7196SOL    HW222488   0.169   6.648   5.772  1.0481 -1.9009 -0.6566
 7197SOL     OW22489   5.050   3.978   5.771 -0.4225  0.0818 -0.3980
 7197SOL    HW122490   5.132   3.922   5.754 -0.5417 -0.0170 -0.6572
 7197SOL    HW222491   5.026   3.974   5.868  0.1619  0.4967 -0.2317
 7198SOL     OW22492   0.810   3.158   2.586 -0.5319 -0.1657 -0.0258
 7198SOL    HW122493   0.747   3.233   2.567 -0.6509 -0.5529 -1.2898
 7198SOL    HW222494   0.904   3.191   2.578 -0.5833 -0.0759 -0.2648
 7199SOL     OW22495   2.781   2.193   1.794 -0.4570 -0.0472  0.3668
 7199SOL    HW122496   2.821   2.267   1.848  0.3349 -0.7729  0.7945
 7199SOL    HW222497   2.682   2.195   1.803 -0.3316 -0.4080  2.2222
 7200SOL     OW22498   6.448   3.953   1.454 -0.1122 -0.4911  0.3887
 7200SOL    HW122499   6.404   3.871   1.490  0.5849 -1.6681 -1.3343
 7200SOL    HW222500   6.482   3.935   1.362 -1.3183  2.2035 -0.6859
 7201SOL     OW22501   4.342   6.556   3.795 -0.2545  0.1551  0.1816
 7201SOL    HW122502   4.377   6.601   3.877  0.7406 -0.3667  0.0621
 7201SOL    HW222503   4.263   6.607   3.760 -0.2812  0.7546  1.0781
 7202SOL     OW22504   0.280   3.651   3.804  0.1431  0.4036 -0.2346
 7202SOL    HW122505   0.334   3.670   3.886  0.7389  1.2089 -0.7917
 7202SOL    HW222506   0.341   3.640   3.725 -0.4660  0.7682 -0.7698
 7203SOL     OW22507   2.098   2.235   1.160 -0.4755  0.4984  0.4784
 7203SOL    HW122508   2.118   2.270   1.069  1.3289 -1.4076  0.0754
 7203SOL    HW222509   2.006   2.195   1.160 -1.0761  1.8289 -0.0601
 7204SOL     OW22510   4.061   3.921   0.469  0.3128 -0.0849 -0.3498
 7204SOL    HW122511   4.039   3.843   0.410 -1.2081 -1.3038  1.7200
 7204SOL    HW222512   4.134   3.896   0.533  0.3043  0.4337 -0.1283
 7205SOL     OW22513   3.007   2.713   6.069  0.4711  0.5263  0.3819
 7205SOL    HW122514   3.078   2.680   6.131  1.1033  2.2166  0.6112
 7205SOL    HW222515   3.004   2.813   6.073 -1.4503  0.5186 -0.1582
 7206SOL     OW22516   2.747   0.096   0.103  0.1518  0.3712  0.3906
 7206SOL    HW122517   2.816   0.050   0.048  2.2825  2.9115  0.7333
 7206SOL    HW222518   2.781   0.186   0.130 -3.0305  1.4312  1.2640
 7207SOL     OW22519   6.850   5.235   4.228  0.1516  0.3182 -0.5720
 7207SOL    HW122520   6.898   5.322   4.225  0.1064  0.3332 -1.0163
 7207SOL    HW222521   6.851   5.194   4.137 -0.1938  0.0556 -0.4594
 7208SOL     OW22522   4.898   4.304   4.605  0.4371  0.4155 -0.0810
 7208SOL    HW122523   4.927   4.376   4.541  0.4064  0.6994  0.2264
 7208SOL    HW222524   4.979   4.255   4.637  0.4283  0.0715 -0.5723
 7209SOL     OW22525   4.323   1.155   5.104 -0.0542 -0.0216 -0.0320
 7209SOL    HW122526   4.245   1.098   5.076 -0.1562  0.5542 -0.9387
 7209SOL    HW222527   4.402   1.097   5.122 -0.6730 -0.6130  0.8628
 7210SOL     OW22528   5.334   5.746   5.466  0.1534  0.2423  0.0242
 7210SOL    HW122529   5.246   5.705   5.441 -0.1926  0.4611  0.8361
 7210SOL    HW222530   5.345   5.743   5.566  1.1275  0.1040 -0.0736
 7211SOL     OW22531   5.263   6.888   0.774  0.1308  0.4633 -0.1159
 7211SOL    HW122532   5.182   6.923   0.821 -0.5504 -1.1357 -0.0498
 7211SOL    HW222533   5.329   6.854   0.841 -1.0589 -2.2953 -0.2157
 7212SOL     OW22534   0.894   4.832   6.119 -0.0845  0.1842 -0.1729
 7212SOL    HW122535   0.848   4.746   6.142  0.2663  0.0437  0.0109
 7212SOL    HW222536   0.841   4.880   6.049 -0.6666  0.1667  0.2466
 7213SOL     OW22537   6.304   0.083   3.621  0.2421 -0.0960 -0.3650
 7213SOL    HW122538   6.217   0.118   3.585  0.2300 -1.1034 -1.3610
 7213SOL    HW222539   6.366   0.159   3.636 -0.5009  0.5523 -0.4838
 7214SOL     OW22540   4.646   2.851   5.005  0.0917  0.0300 -0.2098
 7214SOL    HW122541   4.626   2.753   5.008  1.6579 -0.2933  0.8351
 7214SOL    HW222542   4.727   2.867   4.948 -0.2968  0.7490 -0.5741
 7215SOL     OW22543   0.623   3.690   2.318  0.1770 -0.3668  0.0274
 7215SOL    HW122544   0.693   3.705   2.248  0.0035 -1.1344 -0.3159
 7215SOL    HW222545   0.555   3.626   2.285 -0.2918 -0.2029  0.6445
 7216SOL     OW22546   0.954   6.959   4.865 -0.0727  0.3329  0.3058
 7216SOL    HW122547   0.886   6.912   4.808  1.1736  0.6446 -1.5365
 7216SOL    HW222548   0.931   7.056   4.871 -0.9418  0.0783  1.5188
 7217SOL     OW22549   6.151   3.300   3.008 -0.2289  0.9813  0.4779
 7217SOL    HW122550   6.094   3.357   2.949 -0.9019 -0.7539 -0.6309
 7217SOL    HW222551   6.230   3.267   2.956  0.1071  0.8352  1.0694
 7218SOL     OW22552   6.034   1.487   0.055  0.1652 -0.3057  0.2094
 7218SOL    HW122553   6.034   1.573   0.106  1.7825 -0.1370 -0.0149
 7218SOL    HW222554   5.991   1.501  -0.034 -0.1775  0.0924  0.4320
 7219SOL     OW22555   6.675   3.753   3.936  0.2763  0.1787  0.2001
 7219SOL    HW122556   6.619   3.795   4.007  0.6801  0.2734  0.4637
 7219SOL    HW222557   6.700   3.822   3.868 -0.5885 -0.0311 -0.3511
 7220SOL     OW22558   2.927   6.757   4.990  0.0035  0.0591  0.0266
 7220SOL    HW122559   3.001   6.689   4.993 -0.2246 -0.2286 -0.6367
 7220SOL    HW222560   2.934   6.817   5.069 -0.1607 -1.1287  0.9748
 7221SOL     OW22561   1.637   0.115   5.945  0.3497  0.1007  0.0973
 7221SOL    HW122562   1.560   0.089   5.887 -0.5338 -1.6951  1.9413
 7221SOL    HW222563   1.720   0.124   5.890 -0.5712 -0.9024 -1.5059
 7222SOL     OW22564   3.556   4.909   4.252 -0.4545 -0.1198 -0.5064
 7222SOL    HW122565   3.517   4.845   4.187  1.8329 -3.0351  0.7753
 7222SOL    HW222566   3.647   4.937   4.221  0.0873 -0.4542  0.7300
 7223SOL     OW22567   6.591   2.473   0.764 -0.3852  0.3701 -0.4657
 7223SOL    HW122568   6.518   2.481   0.696 -0.1642  0.9467 -0.6420
 7223SOL    HW222569   6.658   2.546   0.749 -0.9908  1.3123  1.1892
 7224SOL     OW22570   3.935   4.022   6.434 -0.1745 -0.0729 -0.7494
 7224SOL    HW122571   3.904   3.996   6.525  1.9439 -0.3474 -0.0505
 7224SOL    HW222572   3.902   4.114   6.412  0.8276  0.7990  1.1256
 7225SOL     OW22573   2.658   4.621   5.244  0.2170  0.1816  0.0332
 7225SOL    HW122574   2.728   4.621   5.173  0.5739 -1.6022  0.3453
 7225SOL    HW222575   2.642   4.715   5.276  0.8779  0.8651 -1.5643
 7226SOL     OW22576   0.970   6.795   2.530 -0.2888  0.1905 -0.3411
 7226SOL    HW122577   0.923   6.818   2.445 -1.4713  0.0343  0.2507
 7226SOL    HW222578   0.986   6.878   2.583  1.2467  0.4020 -1.0927
 7227SOL     OW22579   0.175   6.627   6.918 -0.8384  0.1353  0.5249
 7227SOL    HW122580   0.078   6.605   6.927 -1.1366  1.2800  0.2183
 7227SOL    HW222581   0.190   6.677   6.832 -0.1332  0.7808  1.0153
 7228SOL     OW22582   6.156   5.080   1.550  0.1704  0.3495 -0.5523
 7228SOL    HW122583   6.215   5.028   1.488  0.3909  0.9414 -0.8420
 7228SOL    HW222584   6.206   5.157   1.588 -0.4324  0.9058 -0.8613
 7229SOL     OW22585   2.250   1.892   1.930  0.5298 -0.1024  0.8383
 7229SOL    HW122586   2.343   1.912   1.959  0.4799  0.2505  0.7597
 7229SOL    HW222587   2.250   1.809   1.875  1.0975  0.8997 -0.7626
 7230SOL     OW22588   6.064   6.523   3.103  0.5512  0.2252  0.5854
 7230SOL    HW122589   6.115   6.440   3.129 -2.4119 -1.3348  1.9182
 7230SOL    HW222590   6.098   6.601   3.155  1.3340 -0.8261  1.7143
 7231SOL     OW22591   6.252   6.981   4.013 -0.2277  0.5741 -0.0452
 7231SOL    HW122592   6.244   6.884   4.036  1.6983  0.3015 -0.3788
 7231SOL    HW222593   6.236   7.036   4.094 -2.5173  0.0830 -0.0833
 7232SOL     OW22594   0.277   2.734   5.862  0.9093 -0.8634 -0.1036
 7232SOL    HW122595   0.322   2.648   5.840  0.6014 -0.9550 -0.3719
 7232SOL    HW222596   0.230   2.726   5.950  0.7172 -1.0299 -0.2218
 7233SOL     OW22597   6.618   4.838   4.099 -0.7205 -0.1922 -0.0967
 7233SOL    HW122598   6.693   4.776   4.123 -1.3703 -0.7819  0.4565
 7233SOL    HW222599   6.614   4.913   4.166 -1.0288 -0.5178  0.2521
 7234SOL     OW22600   2.395   5.723   5.412  0.3586  0.2856 -0.2607
 7234SOL    HW122601   2.434   5.754   5.498  0.7538 -0.6833 -0.0790
 7234SOL    HW222602   2.296   5.712   5.422  0.7388 -3.0810  1.1744
 7235SOL     OW22603   0.239   3.754   0.502  0.4785 -0.5910  0.2860
 7235SOL    HW122604   0.172   3.801   0.559 -0.4747 -1.8687  0.2812
 7235SOL    HW222605   0.291   3.690   0.558 -1.3516 -2.8121 -0.3917
 7236SOL     OW22606   0.268   5.148   1.940  0.3008  0.2406 -0.3927
 7236SOL    HW122607   0.194   5.216   1.940  0.0553 -0.0202 -0.5982
 7236SOL    HW222608   0.305   5.141   1.847 -0.0029 -0.2540 -0.4775
 7237SOL     OW22609   3.583   2.082   2.521  0.2564 -0.1436 -0.4407
 7237SOL    HW122610   3.508   2.051   2.579 -0.1283  0.6771 -0.4804
 7237SOL    HW222611   3.549   2.102   2.430  0.5741 -0.0092 -0.5315
 7238SOL     OW22612   3.568   2.056   2.237  0.6300 -0.5360  0.1791
 7238SOL    HW122613   3.511   1.983   2.198 -0.1071 -0.6304  1.4014
 7238SOL    HW222614   3.611   2.107   2.163  0.3196 -1.5441 -0.7267
 7239SOL     OW22615   3.413   1.804   3.679  0.1177  0.7021  0.0765
 7239SOL    HW122616   3.359   1.792   3.762 -0.3790  1.0456 -0.1943
 7239SOL    HW222617   3.359   1.853   3.611 -0.0167 -0.8190 -0.9780
 7240SOL     OW22618   1.148   5.184   6.235  1.0079  0.3735 -0.0146
 7240SOL    HW122619   1.052   5.163   6.216  1.3970 -0.4797 -1.1695
 7240SOL    HW222620   1.182   5.250   6.168  1.3040  0.4695  0.2248
 7241SOL     OW22621   4.574   4.407   4.918 -0.5063  0.0695 -0.0784
 7241SOL    HW122622   4.632   4.330   4.948 -2.0075 -0.8083  0.6734
 7241SOL    HW222623   4.501   4.422   4.984  0.5353  3.1084  0.5126
 7242SOL     OW22624   1.066   4.744   1.539 -0.3726  0.1996 -0.5781
 7242SOL    HW122625   1.135   4.735   1.467 -0.3495 -0.1500 -0.5120
 7242SOL    HW222626   0.975   4.732   1.499 -0.2760 -4.6554  0.0943
 7243SOL     OW22627   5.127   6.153   2.518  0.8354 -0.0916 -0.6193
 7243SOL    HW122628   5.076   6.212   2.457  0.0519 -0.8237 -0.6847
 7243SOL    HW222629   5.069   6.126   2.595  1.8681  1.0060  0.6023
 7244SOL     OW22630   3.376   1.254   1.198  0.6682  0.1117  0.0844
 7244SOL    HW122631   3.417   1.164   1.183  0.3195 -0.1210  0.4876
 7244SOL    HW222632   3.355   1.265   1.295 -1.1171 -0.1814 -0.2371
 7245SOL     OW22633   1.133   2.070   0.855  0.2722  0.8871 -0.2129
 7245SOL    HW122634   1.050   2.033   0.897  0.0075  4.1483  2.5831
 7245SOL    HW222635   1.195   2.101   0.928  2.0761  2.4141 -2.2887
 7246SOL     OW22636   3.885   0.489   1.563 -0.1695 -0.3940  0.1215
 7246SOL    HW122637   3.926   0.413   1.513  0.4864  0.3895 -0.5526
 7246SOL    HW222638   3.788   0.469   1.580 -0.1174 -1.1702 -0.4472
 7247SOL     OW22639   5.873   0.697   2.526 -0.3002 -0.2222 -0.2094
 7247SOL    HW122640   5.931   0.728   2.450 -1.1379 -1.1766 -1.2742
 7247SOL    HW222641   5.778   0.719   2.507 -0.6644 -1.5357 -0.0212
 7248SOL     OW22642   1.951   4.134   1.566 -0.0319 -0.0180  0.1732
 7248SOL    HW122643   1.915   4.098   1.652  1.9791 -1.1833  0.5963
 7248SOL    HW222644   1.990   4.060   1.513 -1.7447  0.5873 -2.0763
 7249SOL     OW22645   3.883   6.828   2.475 -0.0750  0.4127 -0.1173
 7249SOL    HW122646   3.827   6.880   2.540 -1.4380  0.5019 -1.3297
 7249SOL    HW222647   3.977   6.864   2.477 -0.0028  0.2687  1.9355
 7250SOL     OW22648   6.538   5.663   0.204  0.4472 -0.2222  0.0034
 7250SOL    HW122649   6.454   5.664   0.150  0.4685  1.5180 -0.0804
 7250SOL    HW222650   6.611   5.708   0.152  1.0650 -0.5107  0.6063
 7251SOL     OW22651   2.283   4.231   3.908 -0.0704 -0.3591 -0.3090
 7251SOL    HW122652   2.194   4.186   3.920 -0.8245  1.4873  1.7972
 7251SOL    HW222653   2.294   4.301   3.978  0.8880  2.9612 -3.4681
 7252SOL     OW22654   3.267   3.929   3.251  0.6156  0.6082  0.0465
 7252SOL    HW122655   3.328   4.007   3.260 -0.6601  1.4139  2.8210
 7252SOL    HW222656   3.173   3.959   3.265  0.2112 -1.5757  3.0125
 7253SOL     OW22657   5.933   3.016   5.843  0.7101  0.2005 -0.2559
 7253SOL    HW122658   5.907   2.932   5.794  0.4583 -0.0580  0.3169
 7253SOL    HW222659   5.852   3.060   5.880  0.6782  1.4238 -1.6651
 7254SOL     OW22660   1.816   4.543   2.485 -0.1381  0.4258 -0.0633
 7254SOL    HW122661   1.907   4.508   2.504 -0.1046  0.6723  0.2439
 7254SOL    HW222662   1.823   4.635   2.445 -0.2462  0.3822 -0.1853
 7255SOL     OW22663   0.808   2.315   4.931  0.0289  0.4765  0.8348
 7255SOL    HW122664   0.772   2.254   4.861  0.4868  0.1012  0.9197
 7255SOL    HW222665   0.752   2.308   5.014 -0.4818  0.8830  0.5304
 7256SOL     OW22666   0.271   2.469   5.540  0.2844 -0.2336 -0.0175
 7256SOL    HW122667   0.307   2.439   5.628  0.2886 -1.7986 -0.5203
 7256SOL    HW222668   0.179   2.506   5.553  0.1540 -0.7567  0.5965
 7257SOL     OW22669   3.074   2.098   3.645  0.3320  0.8784 -0.2224
 7257SOL    HW122670   2.999   2.147   3.601  0.7729 -0.4662 -2.6586
 7257SOL    HW222671   3.037   2.023   3.700 -0.1668  1.3303  0.0669
 7258SOL     OW22672   2.854   1.471   5.608  0.1980  0.1170  0.4790
 7258SOL    HW122673   2.880   1.445   5.701  0.1881  1.1686  0.7896
 7258SOL    HW222674   2.812   1.561   5.609 -1.5514 -0.6544 -0.3064
 7259SOL     OW22675   5.852   1.525   1.736  0.3135 -0.3394  0.0118
 7259SOL    HW122676   5.850   1.610   1.683  2.5402  0.9081  1.7520
 7259SOL    HW222677   5.879   1.449   1.676  1.8758  0.8533 -0.8806
 7260SOL     OW22678   0.338   1.222   2.866 -0.0114  0.1827  0.5545
 7260SOL    HW122679   0.357   1.245   2.771  1.4109 -1.0499  0.5037
 7260SOL    HW222680   0.304   1.128   2.872  3.3627 -1.1381  1.4711
 7261SOL     OW22681   3.810   1.022   0.465  0.5609  0.1118 -0.0169
 7261SOL    HW122682   3.717   0.988   0.447 -0.0386  1.7188 -0.1626
 7261SOL    HW222683   3.843   0.984   0.551  0.6208 -2.1101 -0.9723
 7262SOL     OW22684   0.965   3.012   6.800 -0.1173  0.4567  0.5778
 7262SOL    HW122685   1.059   3.012   6.833 -0.3924  0.0786  1.3868
 7262SOL    HW222686   0.964   3.000   6.701  0.6527 -0.5918  0.6839
 7263SOL     OW22687   1.516   5.068   5.473 -0.4471  0.1689  0.0585
 7263SOL    HW122688   1.591   5.035   5.416 -0.0333  0.0323  0.6756
 7263SOL    HW222689   1.550   5.137   5.537 -0.2545 -1.6969  2.1074
 7264SOL     OW22690   0.968   1.061   1.504  0.1262  0.0895  1.0518
 7264SOL    HW122691   0.956   1.006   1.421 -0.5097  1.5665  0.1372
 7264SOL    HW222692   0.937   1.008   1.583 -0.6324 -0.8014  0.1852
 7265SOL     OW22693   5.975   2.041   5.414 -0.0455  0.2845 -0.4148
 7265SOL    HW122694   5.948   1.953   5.374  0.7680  0.1806 -0.7445
 7265SOL    HW222695   5.996   2.105   5.341  0.4977  0.3955 -0.1601
 7266SOL     OW22696   6.480   1.097   1.649  0.1106  0.0250 -0.0327
 7266SOL    HW122697   6.467   1.003   1.618 -3.1524  0.9534 -1.9330
 7266SOL    HW222698   6.550   1.141   1.592  0.0277 -0.6049 -0.6372
 7267SOL     OW22699   0.667   4.682   3.983  0.2998  0.4818  0.4861
 7267SOL    HW122700   0.761   4.702   4.011  0.8346 -1.6348  0.4044
 7267SOL    HW222701   0.652   4.583   3.988 -1.4657  0.6323 -0.9392
 7268SOL     OW22702   6.369   3.271   2.146 -0.7251  0.6423 -0.2385
 7268SOL    HW122703   6.319   3.246   2.228 -2.5838 -1.4662 -1.8828
 7268SOL    HW222704   6.312   3.327   2.087 -0.7371 -0.6791 -1.5536
 7269SOL     OW22705   4.296   0.466   0.364 -0.1628  0.4826  0.2273
 7269SOL    HW122706   4.381   0.451   0.415 -1.1237 -0.1699  1.7038
 7269SOL    HW222707   4.226   0.504   0.425 -1.2618 -0.0353 -0.6664
 7270SOL     OW22708   5.549   6.600   3.810 -0.2448 -0.0912  0.0755
 7270SOL    HW122709   5.538   6.677   3.872 -0.0664 -0.6023  0.7611
 7270SOL    HW222710   5.461   6.555   3.797  0.0219 -1.0557  1.4058
 7271SOL     OW22711   0.768   4.362   1.238  0.6359 -0.0151  0.1611
 7271SOL    HW122712   0.830   4.391   1.311 -1.4696  3.6036  0.8039
 7271SOL    HW222713   0.687   4.319   1.278  1.5562 -2.4779 -0.4902
 7272SOL     OW22714   0.175   3.496   5.511  0.1634  0.2066  0.5304
 7272SOL    HW122715   0.209   3.569   5.452  1.0234  1.5728  2.6091
 7272SOL    HW222716   0.080   3.475   5.487  0.2062  1.3239 -0.7281
 7273SOL     OW22717   3.407   0.671   0.344  0.0532 -0.3466  0.2030
 7273SOL    HW122718   3.491   0.714   0.376 -0.9144  2.4455 -0.6822
 7273SOL    HW222719   3.328   0.722   0.380 -1.2385 -1.7738 -0.4680
 7274SOL     OW22720   3.746   0.818   5.568 -0.2540  0.4483 -0.1308
 7274SOL    HW122721   3.749   0.735   5.512 -0.9271  0.4649 -0.1972
 7274SOL    HW222722   3.740   0.792   5.664 -1.9421  0.3887 -0.2192
 7275SOL     OW22723   1.543   5.510   1.015  0.8009 -0.0628  0.0620
 7275SOL    HW122724   1.625   5.489   0.961  0.1926  2.2343 -1.9576
 7275SOL    HW222725   1.500   5.593   0.979 -0.8618  0.4189  2.8609
 7276SOL     OW22726   5.536   6.428   0.747  0.0998 -0.6278  0.1571
 7276SOL    HW122727   5.578   6.348   0.704  0.8257 -0.2270  0.1168
 7276SOL    HW222728   5.437   6.414   0.754 -0.1115 -0.5336 -2.0143
 7277SOL     OW22729   6.137   6.127   3.044 -1.0140 -0.2595  0.0417
 7277SOL    HW122730   6.148   6.053   3.110 -0.9437  0.8699  1.3237
 7277SOL    HW222731   6.052   6.176   3.063 -1.2751 -0.2579 -1.0633
 7278SOL     OW22732   1.213   0.765   1.337 -0.1086  0.0479  0.1316
 7278SOL    HW122733   1.302   0.808   1.329  0.5727 -1.3150  0.0083
 7278SOL    HW222734   1.149   0.807   1.273  1.0511 -0.4088 -1.3717
 7279SOL     OW22735   3.574   3.234   4.677 -0.3047 -0.0354  0.0087
 7279SOL    HW122736   3.603   3.329   4.663  1.2721 -0.6933 -1.7231
 7279SOL    HW222737   3.475   3.227   4.665 -0.5114  1.4600  0.6606
 7280SOL     OW22738   6.245   6.620   4.667 -0.9638 -0.0815 -0.1866
 7280SOL    HW122739   6.325   6.559   4.664  0.5237  1.5490  2.3808
 7280SOL    HW222740   6.182   6.588   4.738 -2.2537 -0.8768 -1.6349
 7281SOL     OW22741   0.775   3.296   0.176 -0.4785 -0.0553 -0.0708
 7281SOL    HW122742   0.754   3.347   0.259  0.4027 -0.4979  0.4254
 7281SOL    HW222743   0.825   3.213   0.199 -0.3590 -0.2614 -1.0329
 7282SOL     OW22744   2.854   0.522   3.253 -0.4969 -0.0589 -0.2911
 7282SOL    HW122745   2.894   0.579   3.181  0.8645 -1.3489 -0.5990
 7282SOL    HW222746   2.846   0.575   3.337  1.4135  0.4186 -0.3654
 7283SOL     OW22747   0.471   3.550   0.209  0.1230 -0.0381 -1.2176
 7283SOL    HW122748   0.496   3.602   0.291  2.5955  0.1013 -1.9657
 7283SOL    HW222749   0.505   3.597   0.128 -0.3354 -1.2791 -2.1591
 7284SOL     OW22750   5.234   3.271   6.909 -0.2461 -0.1054 -0.3560
 7284SOL    HW122751   5.198   3.338   6.974  0.1828 -1.2998  1.1669
 7284SOL    HW222752   5.242   3.314   6.819 -0.4219  1.7437  0.4529
 7285SOL     OW22753   1.239   6.715   5.800  0.4920  0.2435  0.1463
 7285SOL    HW122754   1.310   6.781   5.777  0.3522 -0.1513 -1.5139
 7285SOL    HW222755   1.277   6.622   5.792 -0.5952 -0.0637 -2.5298
 7286SOL     OW22756   6.039   4.676   4.937 -0.1771  0.4316 -0.4360
 7286SOL    HW122757   6.077   4.605   4.996  0.2284  1.0028 -0.0047
 7286SOL    HW222758   5.968   4.726   4.986  0.0406  0.7935 -0.4863
 7287SOL     OW22759   5.015   0.476   3.533 -0.2575 -0.4734 -0.1678
 7287SOL    HW122760   5.007   0.526   3.619 -3.6264 -0.0869 -0.5651
 7287SOL    HW222761   5.090   0.410   3.539  0.9098  0.9557  2.2678
 7288SOL     OW22762   6.758   6.528   2.779  0.7022 -0.0585  0.0227
 7288SOL    HW122763   6.746   6.616   2.735 -1.2017  1.3925  3.1073
 7288SOL    HW222764   6.701   6.459   2.734 -0.7300  1.2100 -0.1611
 7289SOL     OW22765   2.072   0.344   5.510  0.1000 -0.1261  0.0444
 7289SOL    HW122766   1.999   0.286   5.475  0.0450  0.1885 -0.3703
 7289SOL    HW222767   2.035   0.402   5.583 -0.1133  0.1561 -0.2825
 7290SOL     OW22768   5.451   4.026   0.771 -0.0330  0.3299  0.4185
 7290SOL    HW122769   5.454   4.025   0.871 -0.3030 -2.0141  0.4664
 7290SOL    HW222770   5.466   3.933   0.736 -0.2141  1.0442 -1.7197
 7291SOL     OW22771   1.300   4.254   0.154 -0.4432  0.4972  0.0982
 7291SOL    HW122772   1.216   4.307   0.165 -0.4849  0.1772  1.6399
 7291SOL    HW222773   1.377   4.317   0.144 -0.7164  0.8211  0.0199
 7292SOL     OW22774   1.323   4.599   2.486 -0.2402 -0.5548  0.0558
 7292SOL    HW122775   1.256   4.602   2.412  0.2126 -0.4904 -0.3585
 7292SOL    HW222776   1.300   4.668   2.555 -0.6937 -0.6518  0.0040
 7293SOL     OW22777   5.248   5.356   0.142 -0.0755 -0.7148  0.1548
 7293SOL    HW122778   5.185   5.341   0.218 -0.8015  0.2985 -0.2107
 7293SOL    HW222779   5.244   5.278   0.080 -1.4814 -0.4195 -0.1826
 7294SOL     OW22780   3.942   0.226   3.075  0.0720  0.2397  0.1692
 7294SOL    HW122781   3.858   0.178   3.103  0.3852  0.6428  1.8703
 7294SOL    HW222782   3.918   0.311   3.029 -0.5500  1.7230  3.0039
 7295SOL     OW22783   4.760   4.696   3.101  0.8070 -0.9009 -0.2128
 7295SOL    HW122784   4.665   4.693   3.132 -0.0733  3.6074 -1.7075
 7295SOL    HW222785   4.762   4.695   3.001  1.9824  1.9162 -0.3013
 7296SOL     OW22786   4.002   0.645   0.269  0.4280 -0.3500  0.1999
 7296SOL    HW122787   4.076   0.666   0.205 -0.3800  0.3764 -0.5149
 7296SOL    HW222788   3.923   0.702   0.249  0.2938  0.2389  2.1379
 7297SOL     OW22789   0.088   4.414   1.355  0.2674  0.1374  0.4740
 7297SOL    HW122790   0.054   4.403   1.448  1.5627 -3.7013  0.6853
 7297SOL    HW222791   0.091   4.324   1.310 -0.1534  1.7973 -3.2616
 7298SOL     OW22792   5.886   5.605   4.133  0.6773 -0.1573 -0.0515
 7298SOL    HW122793   5.856   5.644   4.220  0.3093  0.2545 -0.3587
 7298SOL    HW222794   5.950   5.530   4.150  0.5372 -0.1371  0.5739
 7299SOL     OW22795   1.449   3.537   3.678 -0.0634 -1.2848  0.9590
 7299SOL    HW122796   1.391   3.618   3.680  1.4528 -0.1715  1.4093
 7299SOL    HW222797   1.464   3.509   3.583 -1.2717 -1.5685  0.8346
 7300SOL     OW22798   6.509   2.771   0.331 -0.5151 -0.5597 -0.6310
 7300SOL    HW122799   6.588   2.775   0.270  3.1643  1.5650  3.6826
 7300SOL    HW222800   6.464   2.860   0.332 -0.1049 -0.3486  0.1504
 7301SOL     OW22801   6.288   1.122   4.682  0.4899 -0.3505  0.3193
 7301SOL    HW122802   6.205   1.131   4.627 -0.3894 -0.0107  1.6517
 7301SOL    HW222803   6.308   1.025   4.696 -0.4431 -0.4422  1.0810
 7302SOL     OW22804   3.073   6.445   0.752  0.0606 -0.5115  0.5949
 7302SOL    HW122805   3.003   6.458   0.682 -0.4355  0.5387  1.2611
 7302SOL    HW222806   3.063   6.515   0.823  1.5406 -0.5953  0.9162
 7303SOL     OW22807   3.271   3.038   6.052 -0.1283 -0.1156  0.6643
 7303SOL    HW122808   3.361   3.006   6.078  0.5501  0.4380 -0.8741
 7303SOL    HW222809   3.264   3.042   5.952 -2.2583 -1.2782  0.7089
 7304SOL     OW22810   1.384   3.089   4.237 -0.4120  0.0443 -0.3246
 7304SOL    HW122811   1.397   3.138   4.323 -0.2075  2.9273 -1.8685
 7304SOL    HW222812   1.287   3.089   4.213 -0.2295  1.3576 -1.1739
 7305SOL     OW22813   4.164   6.107   5.619 -0.0970  0.3198  0.8691
 7305SOL    HW122814   4.254   6.114   5.576  0.5138  0.3688  2.0984
 7305SOL    HW222815   4.134   6.199   5.647 -0.5059  0.2934  0.5325
 7306SOL     OW22816   4.417   6.667   0.830  0.1072  0.0077 -0.0906
 7306SOL    HW122817   4.420   6.765   0.849  1.1880  0.1121 -0.6991
 7306SOL    HW222818   4.372   6.651   0.742 -0.9807 -0.1329  0.4793
 7307SOL     OW22819   5.529   4.776   2.349  0.4183 -0.1574 -0.1209
 7307SOL    HW122820   5.627   4.792   2.341  0.6230 -1.3743 -0.2047
 7307SOL    HW222821   5.482   4.863   2.365  1.3749  0.6113 -1.3046
 7308SOL     OW22822   3.249   5.208   5.183  0.8113 -0.3188  0.3825
 7308SOL    HW122823   3.227   5.144   5.257  1.5325 -0.3095  0.6109
 7308SOL    HW222824   3.340   5.187   5.147  0.3118 -0.5590 -0.7566
 7309SOL     OW22825   0.787   1.180   3.320  0.4015  0.0509  0.3446
 7309SOL    HW122826   0.814   1.123   3.397 -2.4718 -0.6563  0.9603
 7309SOL    HW222827   0.697   1.219   3.338  1.0186  2.4743 -1.3372
 7310SOL     OW22828   0.824   0.476   4.903 -0.4857 -0.0030  0.5610
 7310SOL    HW122829   0.759   0.419   4.953  1.0793 -1.4659  1.0224
 7310SOL    HW222830   0.914   0.434   4.906 -0.1401  0.1758 -2.9243
 7311SOL     OW22831   4.699   0.963   3.887 -1.0933 -0.4208 -0.0404
 7311SOL    HW122832   4.771   1.004   3.831 -1.1661  0.2122  0.3287
 7311SOL    HW222833   4.724   0.970   3.984 -0.6912 -2.0297  0.0082
 7312SOL     OW22834   2.016   6.596   6.270  0.2290  0.9163 -0.4037
 7312SOL    HW122835   1.968   6.518   6.231  0.4492  1.5484 -2.0274
 7312SOL    HW222836   1.981   6.614   6.362  0.6248 -1.4459  0.2663
 7313SOL     OW22837   0.921   3.785   2.369 -0.4819 -0.3197  0.7512
 7313SOL    HW122838   0.854   3.859   2.361 -0.0263 -0.0939 -2.1847
 7313SOL    HW222839   0.998   3.803   2.308  1.6593 -1.2671  2.9910
 7314SOL     OW22840   5.591   1.654   5.357 -0.2819  0.5263 -0.4546
 7314SOL    HW122841   5.610   1.719   5.430 -3.9197 -0.0198  1.2092
 7314SOL    HW222842   5.583   1.703   5.270 -0.4355  1.9323  0.3162
 7315SOL     OW22843   3.683   4.141   4.124 -0.0475 -1.2871 -0.1957
 7315SOL    HW122844   3.678   4.044   4.150 -0.4609 -1.0953  0.4664
 7315SOL    HW222845   3.648   4.197   4.199 -0.9916 -0.6893 -1.0655
 7316SOL     OW22846   3.744   6.913   2.975  0.7835 -0.6817 -0.0619
 7316SOL    HW122847   3.684   6.844   2.935  1.8387 -2.0148  0.5718
 7316SOL    HW222848   3.695   7.000   2.982 -0.7144 -1.4589 -0.5044
 7317SOL     OW22849   1.725   1.105   1.047  0.9805  0.2053 -0.0465
 7317SOL    HW122850   1.817   1.093   1.085  0.2492 -0.3330  1.6952
 7317SOL    HW222851   1.685   1.188   1.085 -0.7805 -1.7179  2.7528
 7318SOL     OW22852   0.044   5.806   3.952  0.5270 -0.1364  0.0837
 7318SOL    HW122853   0.044   5.804   3.852  1.5885 -1.1825  0.0850
 7318SOL    HW222854   0.012   5.895   3.983  0.1744  0.2035 -1.1802
 7319SOL     OW22855   6.531   3.564   4.850 -1.0510 -0.6600 -0.0052
 7319SOL    HW122856   6.608   3.610   4.805 -2.2508 -0.7104 -2.2447
 7319SOL    HW222857   6.459   3.630   4.868 -1.2073 -0.9392  0.3966
 7320SOL     OW22858   5.633   6.377   2.277  0.0592 -0.0041  0.3841
 7320SOL    HW122859   5.552   6.406   2.225 -0.1306 -1.1633  0.0219
 7320SOL    HW222860   5.708   6.359   2.214  0.6793  1.2281  0.7320
 7321SOL     OW22861   2.087   0.311   3.897 -0.3527 -0.2090  0.2758
 7321SOL    HW122862   2.152   0.346   3.965  0.3825  1.0541 -1.0323
 7321SOL    HW222863   2.136   0.280   3.816 -1.2611 -1.1389  0.0574
 7322SOL     OW22864   2.347   0.114   3.320 -0.5605 -0.3625 -0.0582
 7322SOL    HW122865   2.303   0.178   3.384 -1.6551 -0.9000 -0.2483
 7322SOL    HW222866   2.302   0.025   3.327  0.6000 -0.9674 -0.1819
 7323SOL     OW22867   0.911   3.815   5.262 -0.1204  0.1230 -0.0845
 7323SOL    HW122868   0.848   3.892   5.271 -0.4516 -0.0370 -0.9006
 7323SOL    HW222869   0.965   3.806   5.345 -1.0130  0.4030  0.5415
 7324SOL     OW22870   6.536   2.477   5.881 -0.0989 -0.6345 -0.0262
 7324SOL    HW122871   6.576   2.566   5.862  0.0291 -0.2794  1.7971
 7324SOL    HW222872   6.437   2.480   5.865 -0.3262  0.2771  1.4648
 7325SOL     OW22873   0.189   1.650   3.069  0.1291  0.6028 -0.0502
 7325SOL    HW122874   0.134   1.577   3.028 -0.7925  0.2668  1.7304
 7325SOL    HW222875   0.270   1.610   3.113 -0.8343  0.5264  1.6968
 7326SOL     OW22876   3.237   3.011   3.242 -0.5710  0.3035 -0.3804
 7326SOL    HW122877   3.145   3.017   3.281 -0.3024 -0.1127  0.3339
 7326SOL    HW222878   3.269   3.103   3.220 -2.0336  0.3146 -2.7657
 7327SOL     OW22879   4.629   4.398   4.031 -0.1034 -0.3124  0.5130
 7327SOL    HW122880   4.696   4.365   4.097  0.9495  1.4271  0.3904
 7327SOL    HW222881   4.598   4.489   4.057 -1.3729 -0.5097 -0.2073
 7328SOL     OW22882   6.895   6.036   3.705  0.1078  0.3662 -0.1405
 7328SOL    HW122883   6.800   6.009   3.692 -0.1467  0.7846  0.7945
 7328SOL    HW222884   6.925   6.091   3.627 -1.4357  2.9479  0.9597
 7329SOL     OW22885   3.014   4.086   5.237  0.2846 -0.0270 -0.0337
 7329SOL    HW122886   3.002   4.037   5.151  0.5162  0.8753 -0.5941
 7329SOL    HW222887   3.036   4.021   5.310  1.4794 -0.6646 -0.9328
 7330SOL     OW22888   1.396   1.638   5.157  0.9031  0.0057  0.5276
 7330SOL    HW122889   1.312   1.590   5.130  0.6003  0.4921  0.5964
 7330SOL    HW222890   1.439   1.588   5.232  2.1658 -1.7977 -1.2788
 7331SOL     OW22891   0.410   6.163   6.810  0.5821 -0.0173 -0.5807
 7331SOL    HW122892   0.485   6.225   6.837  1.0543 -0.9825  0.4192
 7331SOL    HW222893   0.348   6.211   6.747  0.6976  1.6193  0.4778
 7332SOL     OW22894   4.921   2.327   6.604 -0.1102 -0.4112  0.1648
 7332SOL    HW122895   4.851   2.259   6.582 -1.2181  0.2802  1.4557
 7332SOL    HW222896   4.952   2.371   6.519 -1.5814 -0.4008 -0.3963
 7333SOL     OW22897   2.990   3.776   6.540  0.4618  0.0436 -0.2125
 7333SOL    HW122898   2.932   3.742   6.466 -1.9988 -1.5938  2.3091
 7333SOL    HW222899   2.938   3.838   6.598  2.4692  1.6381  0.0110
 7334SOL     OW22900   0.325   4.338   5.090  0.8041  0.0064 -0.4832
 7334SOL    HW122901   0.301   4.291   5.005  0.5943  0.2112 -0.5402
 7334SOL    HW222902   0.424   4.352   5.094  0.8434 -0.2452 -0.5671
 7335SOL     OW22903   6.369   4.694   2.964  0.0075 -0.3382  0.5120
 7335SOL    HW122904   6.318   4.639   2.898  0.5569  1.0028 -1.0897
 7335SOL    HW222905   6.367   4.790   2.937  1.8430  0.0071  1.4159
 7336SOL     OW22906   0.244   0.038   0.268 -0.3375  0.2938  0.8642
 7336SOL    HW122907   0.306   0.107   0.307 -0.9919  1.8047 -0.6193
 7336SOL    HW222908   0.239   0.051   0.169 -0.1138 -2.2496  0.4510
 7337SOL     OW22909   5.873   0.463   2.848 -0.3768  0.1639 -0.2684
 7337SOL    HW122910   5.936   0.397   2.807 -0.1844 -0.2005  0.5859
 7337SOL    HW222911   5.844   0.429   2.938  0.0139  1.4250  0.3453
 7338SOL     OW22912   6.214   1.530   4.214 -0.7157 -0.5701  0.0745
 7338SOL    HW122913   6.158   1.612   4.224 -0.3545 -0.2979 -0.0977
 7338SOL    HW222914   6.262   1.511   4.300 -1.8663 -1.4062  0.5577
 7339SOL     OW22915   0.027   5.376   6.551 -0.1367  0.2339  0.0614
 7339SOL    HW122916   0.067   5.401   6.463  0.3158 -0.6916 -0.0120
 7339SOL    HW222917   0.075   5.425   6.624  1.2754 -0.9495 -0.0167
 7340SOL     OW22918   5.998   6.185   4.475  0.2355 -0.7685 -0.1248
 7340SOL    HW122919   5.955   6.166   4.563  2.3148 -0.8805  0.9103
 7340SOL    HW222920   6.094   6.208   4.489 -0.1914  2.8502 -1.9966
 7341SOL     OW22921   0.650   0.252   7.013 -0.3388 -0.1635 -0.3426
 7341SOL    HW122922   0.619   0.247   6.918 -1.1205  1.0664 -0.1714
 7341SOL    HW222923   0.669   0.347   7.037  0.6883 -0.5584  0.4832
 7342SOL     OW22924   5.405   5.678   2.475  0.2315 -0.0495  0.2024
 7342SOL    HW122925   5.434   5.773   2.470 -3.3884  1.1694 -1.0592
 7342SOL    HW222926   5.389   5.643   2.383  2.3726 -2.2928  0.5790
 7343SOL     OW22927   0.405   4.629   3.761  0.0622  0.3418  0.2247
 7343SOL    HW122928   0.322   4.606   3.711 -0.0831  0.7130  0.2957
 7343SOL    HW222929   0.384   4.643   3.858  0.0820  1.1160  0.1274
 7344SOL     OW22930   2.292   5.148   1.804  0.2460  0.5509  0.5492
 7344SOL    HW122931   2.237   5.066   1.819  0.9937  0.3073  2.2054
 7344SOL    HW222932   2.341   5.140   1.717 -0.5892 -0.2132  0.1304
 7345SOL     OW22933   2.685   2.179   6.298  0.1233 -0.2034 -0.0075
 7345SOL    HW122934   2.684   2.218   6.206 -1.1202 -2.4019 -1.0246
 7345SOL    HW222935   2.757   2.110   6.304  1.2461  1.0322  1.2268
 7346SOL     OW22936   1.240   4.842   5.810  0.0428  0.0816  0.6320
 7346SOL    HW122937   1.310   4.913   5.803 -0.1453  0.2327  0.2921
 7346SOL    HW222938   1.211   4.833   5.906 -1.0603  1.5453  0.4667
 7347SOL     OW22939   1.823   2.455   6.889 -0.5413  0.0330 -0.0640
 7347SOL    HW122940   1.900   2.517   6.896 -1.5593  1.2523  0.8460
 7347SOL    HW222941   1.804   2.415   6.979  0.2361 -1.8083 -0.6773
 7348SOL     OW22942   2.842   1.048   0.771 -0.1036 -0.9578  0.3236
 7348SOL    HW122943   2.854   1.127   0.831 -2.0104  0.8677 -1.5321
 7348SOL    HW222944   2.762   1.062   0.713 -0.1546 -4.0222 -0.5238
 7349SOL     OW22945   4.411   6.492   5.059  0.1595  0.3324 -0.3096
 7349SOL    HW122946   4.505   6.472   5.031  0.8026 -0.5037  2.1897
 7349SOL    HW222947   4.353   6.500   4.978  1.7708 -2.1851 -1.8490
 7350SOL     OW22948   3.146   4.747   6.082 -0.2024  0.4652  0.0196
 7350SOL    HW122949   3.131   4.652   6.110  0.1279  0.6403  0.8071
 7350SOL    HW222950   3.163   4.750   5.983 -2.7086 -0.0139 -0.4931
 7351SOL     OW22951   3.556   0.343   2.457 -0.3063 -0.0645  0.3258
 7351SOL    HW122952   3.579   0.418   2.519  0.5180  2.1580 -2.4706
 7351SOL    HW222953   3.479   0.370   2.399 -0.7697 -1.8960  0.0090
 7352SOL     OW22954   2.053   3.424   2.981 -0.7445  0.0571 -0.3400
 7352SOL    HW122955   2.067   3.334   2.940 -2.4918  0.3973 -1.8722
 7352SOL    HW222956   1.955   3.438   2.997 -0.4516  1.4771  0.3806
 7353SOL     OW22957   5.291   4.353   0.332  0.2485 -0.0654  0.3250
 7353SOL    HW122958   5.288   4.297   0.415 -2.8525  0.1837  0.4998
 7353SOL    HW222959   5.270   4.296   0.252 -3.7102  0.7113  0.5826
 7354SOL     OW22960   2.384   5.400   5.642  0.5651 -0.1685 -0.1650
 7354SOL    HW122961   2.474   5.361   5.662 -0.1201 -1.6222  0.1767
 7354SOL    HW222962   2.362   5.384   5.545  0.6632  0.2027 -0.2529
 7355SOL     OW22963   4.644   6.914   2.050  0.0869  0.1267  0.3153
 7355SOL    HW122964   4.614   7.009   2.059  1.6599  0.4947  2.5046
 7355SOL    HW222965   4.662   6.894   1.953  0.0124  2.1521 -0.1697
 7356SOL     OW22966   5.079   6.944   3.892 -0.4354  0.0191 -0.2761
 7356SOL    HW122967   5.027   6.864   3.922 -1.2141  0.5598 -0.1435
 7356SOL    HW222968   5.175   6.934   3.918 -0.2635 -1.4394 -1.3614
 7357SOL     OW22969   5.382   2.885   3.274 -0.1495  0.5010  0.0116
 7357SOL    HW122970   5.352   2.914   3.364  0.9700  2.3858 -0.1672
 7357SOL    HW222971   5.452   2.814   3.283  1.6357  2.2492  0.8019
 7358SOL     OW22972   4.208   0.913   6.406  0.5250  0.2783  0.5381
 7358SOL    HW122973   4.213   0.933   6.308  0.3645 -1.2979  0.1829
 7358SOL    HW222974   4.147   0.978   6.450  1.3564  1.6239 -0.2218
 7359SOL     OW22975   0.733   1.986   1.693  0.3491  0.3123 -0.2159
 7359SOL    HW122976   0.734   2.072   1.744  0.6101  0.2839 -0.1723
 7359SOL    HW222977   0.638   1.962   1.669  0.1017 -0.2688  1.2466
 7360SOL     OW22978   4.031   3.643   1.620  0.2635  0.2029  0.2309
 7360SOL    HW122979   3.972   3.658   1.699  1.6825  0.1614  1.3241
 7360SOL    HW222980   4.098   3.572   1.641 -0.8961 -1.6404 -1.8898
 7361SOL     OW22981   2.839   2.010   5.742  0.0077 -0.3046  0.0529
 7361SOL    HW122982   2.865   2.038   5.650  0.0169  3.5878  1.0254
 7361SOL    HW222983   2.884   2.070   5.809 -2.9835 -0.3341  2.3456
 7362SOL     OW22984   5.934   0.751   1.697 -0.1067  0.3624  0.1189
 7362SOL    HW122985   5.854   0.694   1.711 -0.7890  1.1595 -0.3978
 7362SOL    HW222986   5.906   0.838   1.655  0.8686  1.1527  1.0339
 7363SOL     OW22987   3.501   0.512   5.978 -0.0082  0.5111  0.1376
 7363SOL    HW122988   3.441   0.457   6.036  0.7968  0.1672  0.6487
 7363SOL    HW222989   3.516   0.601   6.021 -1.4756  1.2383 -0.7857
 7364SOL     OW22990   0.589   2.697   3.650 -0.3920  0.2009  0.0692
 7364SOL    HW122991   0.611   2.692   3.553  0.2335 -1.4047  0.2622
 7364SOL    HW222992   0.513   2.760   3.664 -0.3725  0.5862 -1.4364
 7365SOL     OW22993   6.329   5.492   4.788 -0.4136 -0.3202 -0.0774
 7365SOL    HW122994   6.370   5.401   4.796  0.3296 -0.2635 -2.3170
 7365SOL    HW222995   6.378   5.556   4.847  0.2346 -1.0245  0.1616
 7366SOL     OW22996   5.412   3.046   2.106 -0.3024  0.1215  0.2258
 7366SOL    HW122997   5.368   3.128   2.144 -1.0332 -0.3595  0.4317
 7366SOL    HW222998   5.389   2.967   2.163 -0.8922 -0.5018 -0.8580
 7367SOL     OW22999   1.718   5.164   1.129 -0.2426  0.0358  0.2430
 7367SOL    HW123000   1.720   5.110   1.213  2.3199 -0.5417 -0.0970
 7367SOL    HW223001   1.644   5.133   1.070 -0.1609 -1.6493  0.9938
 7368SOL     OW23002   0.776   5.561   6.727  0.9472 -0.6047 -0.0189
 7368SOL    HW123003   0.818   5.470   6.734 -2.2561 -2.5101 -2.4913
 7368SOL    HW223004   0.714   5.575   6.804  0.4788 -1.1556 -0.2820
 7369SOL     OW23005   3.423   5.284   5.700  0.3408  0.5847  0.6450
 7369SOL    HW123006   3.439   5.251   5.607 -3.5919  0.5198 -0.2216
 7369SOL    HW223007   3.458   5.377   5.710  1.8327  0.1654 -0.5016
 7370SOL     OW23008   6.572   6.245   2.401  0.5048 -0.4241  0.1512
 7370SOL    HW123009   6.580   6.267   2.304  1.9596 -3.6996 -0.6038
 7370SOL    HW223010   6.505   6.172   2.413 -1.0810  1.1844  1.9529
 7371SOL     OW23011   0.340   0.217   5.377 -0.1713  0.3181 -0.0476
 7371SOL    HW123012   0.390   0.163   5.445 -2.0208  1.4098  2.3385
 7371SOL    HW223013   0.368   0.313   5.383 -0.9597  0.5668 -0.2084
 7372SOL     OW23014   5.429   6.127   0.549 -0.5637  0.5731  0.6451
 7372SOL    HW123015   5.481   6.174   0.620 -0.8309 -0.0193  1.2447
 7372SOL    HW223016   5.470   6.146   0.460  0.3425  0.5770  1.0501
 7373SOL     OW23017   3.405   5.072   4.806 -0.0862  0.0412  0.3230
 7373SOL    HW123018   3.439   5.056   4.713  0.4623  1.1020  0.3335
 7373SOL    HW223019   3.305   5.077   4.804 -0.4499 -3.9871  0.4212
 7374SOL     OW23020   4.682   2.548   1.930 -0.3525  0.6012  0.1998
 7374SOL    HW123021   4.758   2.600   1.970  1.9414 -0.8113 -1.9712
 7374SOL    HW223022   4.649   2.595   1.849 -0.2597  0.1389 -0.1109
 7375SOL     OW23023   4.540   1.335   5.985  0.1449 -0.1321  0.6212
 7375SOL    HW123024   4.576   1.382   6.065  1.5121  0.3617 -0.2476
 7375SOL    HW223025   4.446   1.306   6.003 -0.6734  2.6518  1.3401
 7376SOL     OW23026   6.139   5.565   4.305  0.1830 -0.0116  0.2706
 7376SOL    HW123027   6.215   5.511   4.341 -0.5449 -1.7682 -0.6863
 7376SOL    HW223028   6.144   5.568   4.205 -1.4200 -0.9204  0.1103
 7377SOL     OW23029   3.262   5.314   2.739 -0.0360  0.1220 -0.1890
 7377SOL    HW123030   3.361   5.300   2.726 -0.2148 -0.9734 -0.5165
 7377SOL    HW223031   3.238   5.407   2.711  0.5867 -0.2327 -2.0866
 7378SOL     OW23032   0.567   0.062   2.947  0.4274  0.0496  0.0511
 7378SOL    HW123033   0.583   0.160   2.954  0.3199  0.0777 -0.0959
 7378SOL    HW223034   0.598   0.017   3.031  0.7548  0.1703 -0.0066
 7379SOL     OW23035   5.521   6.970   3.399  0.4052  0.4675 -0.8882
 7379SOL    HW123036   5.620   6.957   3.393  0.3428  0.5228 -2.5903
 7379SOL    HW223037   5.501   7.067   3.410  0.5650  0.2678  1.9715
 7380SOL     OW23038   4.277   1.406   5.032  0.0794  0.8460  0.0668
 7380SOL    HW123039   4.297   1.312   5.059 -1.4216  0.8167  1.1924
 7380SOL    HW223040   4.352   1.441   4.975  1.2691 -0.5821  0.6871
 7381SOL     OW23041   5.706   2.206   6.201  0.3316  0.6921 -0.5086
 7381SOL    HW123042   5.764   2.154   6.264 -1.6895 -1.8096 -0.5119
 7381SOL    HW223043   5.662   2.281   6.251  0.2994 -0.0207  0.5734
 7382SOL     OW23044   0.220   2.987   3.609 -0.5890 -0.2641 -0.2403
 7382SOL    HW123045   0.166   3.071   3.606  0.0814  0.2193  0.5407
 7382SOL    HW223046   0.172   2.914   3.561  0.0812  1.2534 -3.5140
 7383SOL     OW23047   6.401   0.169   2.831  0.3093  0.1723 -0.0778
 7383SOL    HW123048   6.440   0.102   2.768  1.6669  0.5984  0.2799
 7383SOL    HW223049   6.326   0.126   2.883  1.0846 -1.0476  0.0788
 7384SOL     OW23050   0.955   3.165   5.623 -0.6723 -0.8873  0.1916
 7384SOL    HW123051   0.881   3.230   5.609 -1.7767 -2.1086  0.1296
 7384SOL    HW223052   0.995   3.139   5.535 -1.3512 -1.5221  0.0575
 7385SOL     OW23053   5.158   3.041   5.721  0.1838 -0.1651  0.4077
 7385SOL    HW123054   5.131   3.005   5.631 -2.7339  0.5555  0.9116
 7385SOL    HW223055   5.078   3.047   5.780  1.3101  3.0305  1.8158
 7386SOL     OW23056   6.002   6.382   2.222  0.0587 -0.4233 -0.0019
 7386SOL    HW123057   6.027   6.319   2.296  0.3459 -0.5538 -0.2127
 7386SOL    HW223058   5.939   6.337   2.159  2.4952 -1.5230 -1.7830
 7387SOL     OW23059   4.871   0.946   1.449 -0.0144 -0.6278 -0.1797
 7387SOL    HW123060   4.780   0.987   1.449  1.1979  2.3160  0.3185
 7387SOL    HW223061   4.904   0.939   1.543  0.4418 -1.2998 -0.3843
 7388SOL     OW23062   2.978   0.737   3.109  0.3775  0.2818  0.5016
 7388SOL    HW123063   2.981   0.826   3.156 -1.4530  0.2711  0.7162
 7388SOL    HW223064   3.025   0.744   3.021 -1.0877  1.9444 -0.2136
 7389SOL     OW23065   4.900   6.367   1.102  0.0563  0.2233  0.2811
 7389SOL    HW123066   4.952   6.321   1.174 -0.9143 -3.5314 -1.2002
 7389SOL    HW223067   4.812   6.396   1.138  1.2106  2.3668  1.5910
 7390SOL     OW23068   0.617   1.745   4.462  0.1155  0.8494 -0.3918
 7390SOL    HW123069   0.717   1.738   4.471  0.0414 -1.7982 -0.8193
 7390SOL    HW223070   0.595   1.801   4.382  1.2748  0.7788 -0.7798
 7391SOL     OW23071   2.404   2.701   6.867  0.0737 -0.0900  0.1373
 7391SOL    HW123072   2.331   2.759   6.902  1.2799  0.9977  0.9280
 7391SOL    HW223073   2.364   2.618   6.827 -1.4302 -0.9458  3.1584
 7392SOL     OW23074   6.904   5.204   5.910 -0.5606 -0.0645 -0.1854
 7392SOL    HW123075   7.003   5.214   5.920 -0.6947  0.9904  0.3458
 7392SOL    HW223076   6.880   5.199   5.813 -0.0449  0.5167 -0.3489
 7393SOL     OW23077   4.820   5.366   2.437  0.4023 -0.5635 -0.6173
 7393SOL    HW123078   4.821   5.276   2.481 -0.7533 -0.2860  0.0055
 7393SOL    HW223079   4.879   5.363   2.356  1.6551 -1.4146  0.2822
 7394SOL     OW23080   6.391   4.123   6.934  0.4561 -0.0089 -0.2707
 7394SOL    HW123081   6.478   4.097   6.975  0.7899  1.0403 -0.3015
 7394SOL    HW223082   6.326   4.048   6.945  1.1560 -0.5401  0.3465
 7395SOL     OW23083   2.803   5.195   5.132  0.0106 -0.8588 -0.2729
 7395SOL    HW123084   2.721   5.198   5.075 -0.3403  2.5928  0.1792
 7395SOL    HW223085   2.799   5.269   5.199  1.8399 -2.8808  2.2721
 7396SOL     OW23086   4.296   2.256   5.815 -0.1011  0.4336 -0.2366
 7396SOL    HW123087   4.335   2.193   5.882 -0.5749  1.8005  1.3854
 7396SOL    HW223088   4.241   2.325   5.862 -2.8326 -0.2100 -2.2701
 7397SOL     OW23089   2.974   5.295   4.201 -0.3192  0.1011 -0.2962
 7397SOL    HW123090   2.969   5.394   4.217  0.4601  0.0483  0.3313
 7397SOL    HW223091   3.068   5.270   4.176 -0.0239 -0.7357  1.4636
 7398SOL     OW23092   2.955   3.811   3.656 -0.0324 -0.2112 -0.4428
 7398SOL    HW123093   3.051   3.785   3.654  0.0347 -0.1152  0.8967
 7398SOL    HW223094   2.899   3.731   3.680 -0.2324 -0.1170 -0.5857
 7399SOL     OW23095   5.103   6.517   1.290  0.3362  0.4837 -0.7240
 7399SOL    HW123096   5.058   6.430   1.310  0.2851  0.3343 -1.4395
 7399SOL    HW223097   5.197   6.515   1.325  0.4998 -0.0582 -1.1750
 7400SOL     OW23098   6.528   5.775   4.332 -0.4175 -0.0326 -0.0664
 7400SOL    HW123099   6.498   5.770   4.237  2.7792  2.3080 -1.3734
 7400SOL    HW223100   6.575   5.690   4.356  0.7680  0.1878 -1.4350
 7401SOL     OW23101   3.102   2.171   1.898 -0.4597  0.2772 -0.3151
 7401SOL    HW123102   3.056   2.166   1.809 -1.5237 -0.9112  0.2723
 7401SOL    HW223103   3.038   2.205   1.967  0.0750  0.2722  0.1915
 7402SOL     OW23104   3.045   1.870   6.489 -0.0751 -0.2861  0.1250
 7402SOL    HW123105   3.069   1.900   6.581  2.0726  2.8154 -1.2469
 7402SOL    HW223106   2.970   1.927   6.454  2.1851  1.8342 -1.5552
 7403SOL     OW23107   6.684   5.930   4.527 -0.3929  0.2959  0.2610
 7403SOL    HW123108   6.594   5.896   4.502 -0.5558  1.8958 -1.5941
 7403SOL    HW223109   6.751   5.901   4.458  0.3126  0.0578  1.0240
 7404SOL     OW23110   2.638   4.748   5.664 -0.2759  0.1617 -0.9605
 7404SOL    HW123111   2.570   4.801   5.714  0.4263  1.1929 -1.0607
 7404SOL    HW223112   2.608   4.652   5.657 -2.0673  0.7407 -1.6855
 7405SOL     OW23113   2.347   1.129   0.673 -0.5192  0.5996 -0.6814
 7405SOL    HW123114   2.320   1.067   0.747 -2.9011  0.7055 -1.3981
 7405SOL    HW223115   2.328   1.223   0.700  0.3717  0.8068 -0.7370
 7406SOL     OW23116   4.830   6.092   1.598 -0.6442  0.1267  0.3614
 7406SOL    HW123117   4.909   6.114   1.654 -0.4648 -1.7303  0.9159
 7406SOL    HW223118   4.826   5.993   1.583 -1.7590  0.3782 -1.3211
 7407SOL     OW23119   6.770   1.677   5.548  0.0745 -0.2571 -0.1832
 7407SOL    HW123120   6.838   1.734   5.595  0.9352 -1.3210 -0.0839
 7407SOL    HW223121   6.681   1.721   5.553  0.5155  0.5778  0.7742
 7408SOL     OW23122   2.556   3.926   5.630  0.4137  0.6736  0.0144
 7408SOL    HW123123   2.479   3.986   5.653 -1.0426 -1.4357  0.9433
 7408SOL    HW223124   2.541   3.885   5.540  0.1366 -0.1960  0.4507
 7409SOL     OW23125   2.062   5.590   0.048  0.2197 -0.3285 -0.0727
 7409SOL    HW123126   2.019   5.503   0.071  0.8495 -0.0402  2.5946
 7409SOL    HW223127   2.160   5.584   0.068  0.7460  0.2544 -2.2562
 7410SOL     OW23128   6.474   3.149   0.180 -0.3730 -0.7418  0.0467
 7410SOL    HW123129   6.465   3.076   0.247  0.9691 -0.6613  0.3381
 7410SOL    HW223130   6.552   3.207   0.203  0.6625 -1.2093 -2.0250
 7411SOL     OW23131   5.318   3.555   3.413  0.3862  0.0554  0.3856
 7411SOL    HW123132   5.389   3.622   3.436 -2.9823  4.7985 -1.6024
 7411SOL    HW223133   5.234   3.575   3.463 -1.0253 -2.4048 -0.7723
 7412SOL     OW23134   2.656   0.216   6.242  0.1264 -0.4313  0.1292
 7412SOL    HW123135   2.610   0.262   6.166  2.9284  1.0176 -0.8100
 7412SOL    HW223136   2.690   0.285   6.307 -0.9404 -1.5754  2.0146
 7413SOL     OW23137   6.354   3.773   4.719 -0.2612  0.0876  0.3609
 7413SOL    HW123138   6.396   3.858   4.753 -0.1202  0.5858 -0.9966
 7413SOL    HW223139   6.279   3.747   4.779 -0.0951  0.9896  0.9891
 7414SOL     OW23140   1.862   6.306   4.720 -0.4308  0.1001  0.7698
 7414SOL    HW123141   1.875   6.359   4.636 -3.1640 -1.6136 -0.9012
 7414SOL    HW223142   1.928   6.231   4.722  0.0812  0.5344  0.5028
 7415SOL     OW23143   3.916   2.185   4.759  0.2420  0.4476  0.7795
 7415SOL    HW123144   3.972   2.162   4.679  2.1672  0.5998  2.0137
 7415SOL    HW223145   3.823   2.152   4.745  0.0920  1.7904 -2.1619
 7416SOL     OW23146   2.602   6.924   6.321  0.0476 -0.0918 -0.3924
 7416SOL    HW123147   2.623   7.021   6.307  1.2388 -0.5577 -2.0741
 7416SOL    HW223148   2.520   6.901   6.268 -1.9147  0.5564  2.1643
 7417SOL     OW23149   2.023   6.041   6.542 -0.0424 -0.4751  0.1296
 7417SOL    HW123150   1.950   6.034   6.610  0.2168 -3.6139  0.2331
 7417SOL    HW223151   2.112   6.037   6.589  0.2947  2.1964 -0.0926
 7418SOL     OW23152   6.626   1.883   0.892  0.0793  0.4085 -0.7002
 7418SOL    HW123153   6.630   1.855   0.988 -0.1531 -0.5152 -0.9529
 7418SOL    HW223154   6.530   1.898   0.866  0.1135  0.2866 -0.8958
 7419SOL     OW23155   5.455   1.309   1.211 -0.3163  0.2659  0.4025
 7419SOL    HW123156   5.447   1.405   1.238 -1.0653  0.2648  0.1882
 7419SOL    HW223157   5.365   1.266   1.210 -0.2841  0.1434 -1.6341
 7420SOL     OW23158   5.440   2.421   6.131  0.1263 -0.4500  0.3589
 7420SOL    HW123159   5.393   2.506   6.104 -0.3294 -0.9204 -0.3578
 7420SOL    HW223160   5.495   2.438   6.213 -2.0692 -0.1077  1.8410
 7421SOL     OW23161   6.853   4.162   2.795 -0.3675  0.6857 -0.5936
 7421SOL    HW123162   6.816   4.180   2.886  0.7326  0.9189 -0.1754
 7421SOL    HW223163   6.881   4.066   2.788 -1.0017  0.5213 -0.8907
 7422SOL     OW23164   1.028   5.042   1.293  0.1556  0.6598 -0.5612
 7422SOL    HW123165   1.005   5.067   1.199  0.0866  0.2711 -0.6479
 7422SOL    HW223166   0.945   5.037   1.347  0.1351  0.2499 -0.6324
 7423SOL     OW23167   6.489   6.585   4.122  0.5558  0.1750  0.7017
 7423SOL    HW123168   6.529   6.506   4.168 -1.9519 -0.3572  2.1423
 7423SOL    HW223169   6.485   6.567   4.023 -0.5143 -1.8132  1.0614
 7424SOL     OW23170   3.532   0.785   3.291  0.7941 -0.0820  0.0731
 7424SOL    HW123171   3.510   0.846   3.367 -0.6168 -0.8916  0.3426
 7424SOL    HW223172   3.575   0.702   3.327 -1.3407 -1.1918  0.2221
 7425SOL     OW23173   0.485   5.106   2.475 -0.2303 -0.2222 -0.2869
 7425SOL    HW123174   0.401   5.128   2.524  0.5022  0.8460  0.5408
 7425SOL    HW223175   0.506   5.009   2.487  0.3031  0.1372  2.1657
 7426SOL     OW23176   0.175   2.548   1.051 -0.5301 -0.0749  0.5338
 7426SOL    HW123177   0.126   2.463   1.032 -1.5521  0.7151 -0.4923
 7426SOL    HW223178   0.262   2.548   1.002  0.1285 -1.1054  1.6562
 7427SOL     OW23179   0.516   3.821   4.197 -0.0819  0.0376  0.1324
 7427SOL    HW123180   0.571   3.871   4.131 -1.4224 -0.7558 -1.6631
 7427SOL    HW223181   0.574   3.763   4.253  0.9283 -0.6701 -1.5945
 7428SOL     OW23182   6.098   4.925   0.920 -0.2049  0.6062  0.7684
 7428SOL    HW123183   6.006   4.959   0.941 -0.4920  0.5951 -0.4457
 7428SOL    HW223184   6.158   5.002   0.900 -0.6452  0.4940 -1.1397
 7429SOL     OW23185   0.263   4.598   2.107 -0.1533 -0.2499 -0.5053
 7429SOL    HW123186   0.178   4.643   2.134  0.3380 -0.3259  1.3444
 7429SOL    HW223187   0.296   4.637   2.021 -1.3073  0.7746 -0.5136
 7430SOL     OW23188   0.193   0.588   4.436 -0.2485 -0.4803  0.1410
 7430SOL    HW123189   0.105   0.561   4.398  1.4850 -2.8051 -2.6788
 7430SOL    HW223190   0.237   0.510   4.480  0.0890  0.8750  2.3755
 7431SOL     OW23191   1.179   6.474   1.194 -0.8022 -0.4077  0.6729
 7431SOL    HW123192   1.132   6.495   1.109  1.3357  0.4081 -0.3875
 7431SOL    HW223193   1.121   6.501   1.272 -2.9612 -1.5511 -0.4427
 7432SOL     OW23194   6.165   0.570   6.594 -0.3423  0.3063  0.2919
 7432SOL    HW123195   6.209   0.651   6.555  0.4091  0.5463  1.6018
 7432SOL    HW223196   6.107   0.528   6.524  1.1457  0.5682 -1.1859
 7433SOL     OW23197   5.172   4.429   3.683  0.0185  0.2257  0.4704
 7433SOL    HW123198   5.125   4.405   3.768 -0.0168 -0.1398  0.3530
 7433SOL    HW223199   5.108   4.476   3.622  0.0143  0.3937  0.6070
 7434SOL     OW23200   3.847   0.909   6.750  0.0290 -0.3505  0.0200
 7434SOL    HW123201   3.853   1.007   6.766  1.1503 -0.1288 -1.5348
 7434SOL    HW223202   3.938   0.873   6.727 -0.5969 -1.4895 -0.8025
 7435SOL     OW23203   4.870   2.187   6.213 -0.4394 -0.1998 -0.4936
 7435SOL    HW123204   4.943   2.153   6.153  0.4513  0.5954  0.0971
 7435SOL    HW223205   4.782   2.150   6.184  0.1658 -0.9645 -1.3980
 7436SOL     OW23206   4.872   5.551   5.042  0.1458  0.2396 -0.2642
 7436SOL    HW123207   4.888   5.453   5.045  0.1886  0.1437 -2.0665
 7436SOL    HW223208   4.777   5.568   5.014 -0.0282  0.7177  0.6005
 7437SOL     OW23209   1.316   2.061   1.346 -0.0007  0.2612  0.0056
 7437SOL    HW123210   1.354   2.152   1.363  0.0594  0.2884 -0.2766
 7437SOL    HW223211   1.223   2.056   1.384  0.5408 -0.0358  1.3494
 7438SOL     OW23212   5.955   3.990   6.969 -0.3308 -0.0973 -0.2636
 7438SOL    HW123213   5.950   4.086   6.996 -0.2093  0.4230 -1.9958
 7438SOL    HW223214   5.865   3.958   6.941 -0.0713  0.0146 -1.2678
 7439SOL     OW23215   1.111   0.095   2.331 -0.5429  0.0582  0.2252
 7439SOL    HW123216   1.122   0.000   2.301  3.5419  0.8626 -1.5157
 7439SOL    HW223217   1.084   0.152   2.253 -1.4172  0.5785  0.8906
 7440SOL     OW23218   6.422   6.301   6.930 -0.1525  0.1638  0.2258
 7440SOL    HW123219   6.474   6.276   6.849 -2.0968 -0.3968 -0.9190
 7440SOL    HW223220   6.460   6.254   7.010 -0.2944 -2.0802 -0.9550
 7441SOL     OW23221   2.674   5.900   1.343  1.0542  0.0732 -0.1093
 7441SOL    HW123222   2.581   5.892   1.379  1.1211  0.4156  0.1521
 7441SOL    HW223223   2.712   5.809   1.328  1.5483 -0.1487  2.0735
 7442SOL     OW23224   0.533   0.577   5.037  0.4911  0.3765  0.1697
 7442SOL    HW123225   0.553   0.664   5.083 -0.3650  0.8469 -0.3322
 7442SOL    HW223226   0.521   0.593   4.939  1.2426 -0.4607 -0.0654
 7443SOL     OW23227   4.169   6.800   2.997  0.0040 -0.6278 -0.5006
 7443SOL    HW123228   4.168   6.878   3.059  0.4976 -0.9096 -0.1271
 7443SOL    HW223229   4.076   6.780   2.966 -0.1856 -0.1999 -0.2108
 7444SOL     OW23230   1.083   4.348   4.639  0.3392 -0.4357  0.2594
 7444SOL    HW123231   1.164   4.307   4.681  0.4285  0.0188  0.5414
 7444SOL    HW223232   1.054   4.293   4.561  0.4455 -1.0427  0.6419
 7445SOL     OW23233   5.539   1.211   5.623  0.0524 -0.3284  0.1171
 7445SOL    HW123234   5.457   1.217   5.681 -1.1063 -0.7209 -1.4146
 7445SOL    HW223235   5.619   1.199   5.681 -0.8283  1.0726  1.7366
 7446SOL     OW23236   4.913   6.015   2.366  0.3955  0.2064  0.1188
 7446SOL    HW123237   4.832   5.991   2.418 -0.3390  2.6014  0.2244
 7446SOL    HW223238   4.995   6.002   2.423 -0.1905  0.5854  1.0649
 7447SOL     OW23239   2.768   6.146   2.335  0.3908 -0.0380 -0.2855
 7447SOL    HW123240   2.759   6.219   2.403  0.3774 -0.2018 -0.1092
 7447SOL    HW223241   2.804   6.064   2.380  1.9910  0.3468 -0.7972
 7448SOL     OW23242   1.258   4.040   4.050  0.1267  0.6459 -0.4657
 7448SOL    HW123243   1.346   4.067   4.088 -0.3631 -0.2291  1.4198
 7448SOL    HW223244   1.232   3.951   4.087 -1.5970  0.9307 -0.9027
 7449SOL     OW23245   6.748   2.313   5.477 -0.2629  0.0267  0.2049
 7449SOL    HW123246   6.744   2.412   5.471 -0.4028  0.0460  0.5530
 7449SOL    HW223247   6.733   2.285   5.572  0.6850 -0.2765  0.2805
 7450SOL     OW23248   6.724   2.674   4.587 -0.0300  0.0911 -0.0643
 7450SOL    HW123249   6.740   2.719   4.499 -2.6153  1.7374  0.1992
 7450SOL    HW223250   6.773   2.724   4.658 -0.7199  0.9073 -0.1424
 7451SOL     OW23251   5.931   0.490   4.236  0.5598  0.6449  0.3128
 7451SOL    HW123252   5.934   0.446   4.325 -0.0921 -1.0181 -0.4421
 7451SOL    HW223253   5.841   0.476   4.195  1.3112  0.0666 -1.2217
 7452SOL     OW23254   6.871   6.950   2.097 -0.1868  0.4075  0.0237
 7452SOL    HW123255   6.772   6.949   2.109 -0.1970 -0.3218 -0.1020
 7452SOL    HW223256   6.898   7.032   2.047 -0.9145 -0.2392 -1.4747
 7453SOL     OW23257   0.099   6.801   3.693 -0.0498 -0.2891  0.0132
 7453SOL    HW123258   0.105   6.900   3.685  0.3377 -0.2369  0.9009
 7453SOL    HW223259   0.178   6.766   3.744 -0.7823 -0.9269  0.7487
 7454SOL     OW23260   1.536   1.790   6.756  0.7937 -0.3346  0.2373
 7454SOL    HW123261   1.576   1.850   6.687  1.1843  0.0482  0.7880
 7454SOL    HW223262   1.455   1.745   6.718  1.7073 -1.0806 -0.8602
 7455SOL     OW23263   1.980   3.468   0.487 -0.4683  0.2075  0.1453
 7455SOL    HW123264   2.072   3.468   0.526 -0.4225 -0.0879  0.0401
 7455SOL    HW223265   1.932   3.550   0.515 -0.2663  0.2301  0.4252
 7456SOL     OW23266   2.135   3.042   5.147  0.4913  0.2144 -0.2042
 7456SOL    HW123267   2.231   3.018   5.157  0.8214  0.9316 -1.3650
 7456SOL    HW223268   2.128   3.134   5.107 -0.6928  1.4737  2.6715
 7457SOL     OW23269   1.978   2.340   5.504 -0.1230  0.0254 -0.0732
 7457SOL    HW123270   1.969   2.275   5.429 -0.9474 -2.4243  1.9718
 7457SOL    HW223271   2.012   2.292   5.585  1.4341  2.7021  0.9719
 7458SOL     OW23272   4.879   2.169   5.436 -0.1540 -0.5518  0.7667
 7458SOL    HW123273   4.889   2.213   5.525 -0.5935  2.0522 -0.3826
 7458SOL    HW223274   4.968   2.167   5.391 -0.0771 -1.1680  0.9366
 7459SOL     OW23275   2.139   2.905   0.766 -0.0276 -0.0425  0.4967
 7459SOL    HW123276   2.214   2.924   0.702 -0.0551 -1.3613  0.0355
 7459SOL    HW223277   2.064   2.863   0.716 -1.1325  1.3571  0.9410
 7460SOL     OW23278   2.958   3.339   4.428  0.2786  0.0421  0.2885
 7460SOL    HW123279   3.057   3.356   4.435  0.4712 -0.4611 -1.0184
 7460SOL    HW223280   2.909   3.412   4.476  1.2288  1.7959 -1.2561
 7461SOL     OW23281   6.843   6.999   6.227 -0.2671  0.7606  0.0108
 7461SOL    HW123282   6.837   6.939   6.307  0.3698  1.5543  0.6805
 7461SOL    HW223283   6.753   7.007   6.184 -0.8016  0.9408  1.1192
 7462SOL     OW23284   0.579   2.340   5.669  0.1792 -0.2254  0.6233
 7462SOL    HW123285   0.543   2.345   5.762  0.4643 -0.6575  0.7625
 7462SOL    HW223286   0.597   2.432   5.634  0.5288 -0.0813  1.1730
 7463SOL     OW23287   1.727   0.871   3.475  0.1389  0.4008 -0.3864
 7463SOL    HW123288   1.709   0.963   3.509  0.6596  0.5580 -0.5210
 7463SOL    HW223289   1.657   0.845   3.409  0.1801  0.8400 -0.6068
 7464SOL     OW23290   3.163   0.963   3.704 -0.4277 -0.2069 -0.6041
 7464SOL    HW123291   3.236   0.994   3.765  0.3497 -4.2502  0.8197
 7464SOL    HW223292   3.201   0.946   3.613 -0.1296 -0.1345 -0.4966
 7465SOL     OW23293   6.327   3.773   3.400 -0.2185 -0.2305 -0.1007
 7465SOL    HW123294   6.270   3.729   3.469  1.3380 -0.7920  0.8894
 7465SOL    HW223295   6.410   3.808   3.443 -0.3659  1.7157 -1.2611
 7466SOL     OW23296   1.333   5.696   6.096 -0.4812 -0.1595  0.3574
 7466SOL    HW123297   1.408   5.688   6.162  1.2182  3.0661 -0.9706
 7466SOL    HW223298   1.289   5.785   6.106 -2.2867 -0.8641 -0.8159
 7467SOL     OW23299   1.115   6.316   1.784  0.0542 -0.0984  0.4712
 7467SOL    HW123300   1.015   6.307   1.785  0.0156  0.2897  0.2470
 7467SOL    HW223301   1.155   6.246   1.843 -0.4353  0.6545  1.7543
 7468SOL     OW23302   5.006   0.195   5.967 -0.5722 -0.1205  0.3311
 7468SOL    HW123303   5.106   0.195   5.978 -0.4664  0.0036 -0.5540
 7468SOL    HW223304   4.971   0.287   5.983 -0.4863 -0.0619  0.1893
 7469SOL     OW23305   5.144   0.385   1.031  0.1787  0.7082 -0.0618
 7469SOL    HW123306   5.095   0.461   0.988 -1.5086 -0.8759 -1.0942
 7469SOL    HW223307   5.111   0.372   1.124 -0.7132  0.2349 -0.4376
 7470SOL     OW23308   2.300   5.167   2.719 -0.0574 -0.0820  0.5777
 7470SOL    HW123309   2.344   5.078   2.731  0.9760  0.4604  1.0263
 7470SOL    HW223310   2.363   5.228   2.670 -0.6602  0.4673  0.4802
 7471SOL     OW23311   2.184   6.084   2.085 -0.1186 -0.1973 -0.1454
 7471SOL    HW123312   2.262   6.116   2.031  1.1179  1.0383  2.1892
 7471SOL    HW223313   2.133   6.016   2.033  2.2028 -0.6675 -1.9990
 7472SOL     OW23314   2.318   4.276   3.636  0.3159  0.6751 -0.4903
 7472SOL    HW123315   2.322   4.221   3.720  2.3713 -1.0134 -1.5834
 7472SOL    HW223316   2.267   4.226   3.566  0.8192  0.8797 -1.0119
 7473SOL     OW23317   5.215   1.930   6.975  0.0499 -0.2757 -0.0137
 7473SOL    HW123318   5.310   1.926   7.007  1.1890  1.9663 -2.6926
 7473SOL    HW223319   5.177   2.021   6.995 -1.2378 -0.8451  0.2159
 7474SOL     OW23320   6.967   3.197   3.065  0.5026 -0.4636  0.1457
 7474SOL    HW123321   6.910   3.151   3.133  0.4333 -0.4785  0.0777
 7474SOL    HW223322   6.910   3.227   2.988  0.4972 -0.0040  0.3236
 7475SOL     OW23323   6.335   2.551   4.334  0.3755  0.5775 -0.6453
 7475SOL    HW123324   6.252   2.526   4.384  0.7879 -0.9373 -0.6826
 7475SOL    HW223325   6.382   2.625   4.382  2.3624 -2.7087  3.0264
 7476SOL     OW23326   0.410   3.850   0.908 -0.5037 -0.1200 -0.0924
 7476SOL    HW123327   0.319   3.813   0.892 -0.0838 -0.9976 -0.5462
 7476SOL    HW223328   0.478   3.779   0.888  0.2077 -0.3313  2.6388
 7477SOL     OW23329   3.669   0.362   5.825  0.0976  0.1403  0.1008
 7477SOL    HW123330   3.599   0.424   5.862  0.4853 -0.9775  3.0047
 7477SOL    HW223331   3.636   0.267   5.830  1.6854 -0.3934  1.3573
 7478SOL     OW23332   6.317   3.310   1.210 -0.2485  0.2207  0.1610
 7478SOL    HW123333   6.370   3.386   1.248  1.4965 -2.3787  3.4453
 7478SOL    HW223334   6.226   3.309   1.250 -0.1149  0.3230  0.4682
 7479SOL     OW23335   0.338   6.839   1.497 -0.2647  0.1056 -0.6415
 7479SOL    HW123336   0.303   6.771   1.561  0.4362  1.1441  0.9009
 7479SOL    HW223337   0.265   6.902   1.470 -0.1897  0.7400  0.5769
 7480SOL     OW23338   6.781   6.031   3.143  0.6064  0.3074 -0.0187
 7480SOL    HW123339   6.758   5.934   3.139 -0.4584  0.5493 -0.0664
 7480SOL    HW223340   6.830   6.057   3.060  1.8551 -0.4076  0.4694
 7481SOL     OW23341   0.139   4.938   3.646  0.1058  0.4153 -0.7196
 7481SOL    HW123342   0.119   4.846   3.611 -2.9696  0.4483  0.6824
 7481SOL    HW223343   0.082   4.957   3.725  1.3098  3.2615 -0.4096
 7482SOL     OW23344   6.637   4.778   3.114  0.5396  0.2476  0.0251
 7482SOL    HW123345   6.584   4.699   3.085 -1.4632  1.4455  0.2159
 7482SOL    HW223346   6.666   4.766   3.209  0.4987 -0.3886 -0.0448
 7483SOL     OW23347   2.449   5.960   3.621 -0.3169  0.1501  0.2339
 7483SOL    HW123348   2.464   6.058   3.634  0.4552 -0.0405  0.8665
 7483SOL    HW223349   2.389   5.946   3.543 -0.1597  1.1164 -0.0808
 7484SOL     OW23350   3.914   0.786   6.060  0.5691  0.5886 -0.1681
 7484SOL    HW123351   3.874   0.707   6.107  0.7037  1.8489  2.2436
 7484SOL    HW223352   4.001   0.759   6.018 -0.5934 -1.1067 -1.6396
 7485SOL     OW23353   5.742   6.486   2.763 -0.2298  0.8798 -0.5619
 7485SOL    HW123354   5.663   6.488   2.701 -0.7426  0.7393  0.0774
 7485SOL    HW223355   5.806   6.415   2.734 -0.5654  0.6727 -0.7958
 7486SOL     OW23356   1.816   6.023   0.096  0.1260  0.0535  0.2541
 7486SOL    HW123357   1.881   6.060   0.031 -1.0256  0.7514 -0.5489
 7486SOL    HW223358   1.811   5.924   0.087 -0.4424  0.1927 -1.1533
 7487SOL     OW23359   0.578   4.830   2.659  0.2312 -0.0128 -0.4514
 7487SOL    HW123360   0.617   4.890   2.729  1.6598 -0.2199 -1.0389
 7487SOL    HW223361   0.505   4.775   2.699 -1.1962  2.1373  0.0920
 7488SOL     OW23362   4.314   5.510   5.051  0.0374  0.1001  0.3673
 7488SOL    HW123363   4.283   5.558   5.133  1.0510 -0.5379  1.1539
 7488SOL    HW223364   4.288   5.413   5.057 -0.9350  0.2860 -0.6389
 7489SOL     OW23365   0.851   5.044   4.907 -0.5607 -0.8136  0.2797
 7489SOL    HW123366   0.752   5.052   4.912 -0.3690  1.8248  1.2708
 7489SOL    HW223367   0.885   5.001   4.991 -0.7719 -0.2964  0.6355
 7490SOL     OW23368   2.172   6.253   2.929  0.2155  0.1400 -0.0560
 7490SOL    HW123369   2.133   6.329   2.877 -2.0356  0.1976  1.5623
 7490SOL    HW223370   2.125   6.246   3.017  0.8531 -2.6872  0.1459
 7491SOL     OW23371   2.538   2.739   5.939  0.1088  0.4185  0.4454
 7491SOL    HW123372   2.588   2.823   5.962  0.2910  0.3564  0.2702
 7491SOL    HW223373   2.443   2.749   5.967 -0.1190  1.0937 -0.5261
 7492SOL     OW23374   1.914   0.286   5.189 -0.0996 -0.1958 -0.0637
 7492SOL    HW123375   1.969   0.343   5.128 -0.2502 -0.0963 -0.1067
 7492SOL    HW223376   1.818   0.316   5.185 -0.1818 -0.4618 -0.1014
 7493SOL     OW23377   3.638   0.321   1.363  0.2275  0.2852  0.3275
 7493SOL    HW123378   3.654   0.376   1.445 -1.1053  0.3407  0.5679
 7493SOL    HW223379   3.702   0.245   1.361  0.3130  0.3187  1.3993
 7494SOL     OW23380   1.995   2.561   4.062  0.0850  0.2869  0.7013
 7494SOL    HW123381   1.911   2.565   4.008  0.8942  1.1624 -0.5551
 7494SOL    HW223382   2.069   2.607   4.012  1.3960 -0.7212  1.6363
 7495SOL     OW23383   3.422   6.503   3.485  0.0516  0.1003  0.1774
 7495SOL    HW123384   3.438   6.447   3.404  0.0896  0.5519 -0.1294
 7495SOL    HW223385   3.510   6.522   3.530  0.4327  2.3288 -1.3412
 7496SOL     OW23386   1.288   5.982   1.511  0.1145 -0.2189  0.1310
 7496SOL    HW123387   1.292   5.955   1.414  0.1191 -1.2407  0.3984
 7496SOL    HW223388   1.304   6.080   1.519  0.3082 -0.1514 -0.8897
 7497SOL     OW23389   1.712   6.947   3.498 -0.0068 -0.1510 -0.1532
 7497SOL    HW123390   1.805   6.960   3.462 -0.5527  0.4513 -1.3994
 7497SOL    HW223391   1.702   6.997   3.584  0.8736 -0.3908  0.0984
 7498SOL     OW23392   1.596   3.657   2.048 -1.0554 -0.2492 -0.3914
 7498SOL    HW123393   1.538   3.604   1.987 -0.2386 -0.9887 -0.5525
 7498SOL    HW223394   1.664   3.707   1.995 -1.7636  0.9015 -0.2315
 7499SOL     OW23395   2.429   0.629   1.659 -0.0278  0.1285  0.2137
 7499SOL    HW123396   2.341   0.609   1.617  0.7000 -1.2551 -0.7264
 7499SOL    HW223397   2.453   0.557   1.725  1.1742 -0.4936 -0.8458
 7500SOL     OW23398   6.728   2.231   2.332  0.3348 -0.2560 -0.0248
 7500SOL    HW123399   6.704   2.246   2.236 -0.8617 -2.2917 -0.1048
 7500SOL    HW223400   6.647   2.204   2.383  1.2320 -0.6551  1.2441
 7501SOL     OW23401   1.840   6.223   3.196 -0.3723 -0.1230  0.4434
 7501SOL    HW123402   1.774   6.148   3.205  0.6146 -1.0321  0.2591
 7501SOL    HW223403   1.887   6.236   3.283 -1.1052  0.8376  0.7104
 7502SOL     OW23404   5.386   1.283   3.956  0.1811  0.4105  0.2106
 7502SOL    HW123405   5.482   1.298   3.979 -0.0760  1.2428  0.7821
 7502SOL    HW223406   5.365   1.186   3.968  0.8910  0.2576  0.3066
 7503SOL     OW23407   2.055   0.042   0.377 -0.5912  0.3940 -0.2279
 7503SOL    HW123408   2.105   0.126   0.401 -0.9302  0.4541  0.3025
 7503SOL    HW223409   1.972   0.037   0.432 -1.6496  0.7576 -1.7292
 7504SOL     OW23410   0.286   3.096   6.392 -0.1162 -0.5691  0.3793
 7504SOL    HW123411   0.373   3.081   6.344 -0.3481 -2.3264  0.4297
 7504SOL    HW223412   0.273   3.023   6.460 -1.1324  0.2882  1.1403
 7505SOL     OW23413   2.647   0.791   3.317 -0.0928 -0.0329 -0.2215
 7505SOL    HW123414   2.740   0.763   3.341  0.0236 -0.4523 -1.1324
 7505SOL    HW223415   2.581   0.741   3.373  0.0931 -2.3341 -1.9019
 7506SOL     OW23416   2.575   0.453   3.195  0.1415 -0.2042  0.0927
 7506SOL    HW123417   2.564   0.454   3.095  0.0188 -2.1355  0.0351
 7506SOL    HW223418   2.665   0.487   3.219 -0.8741  3.1531 -0.4118
 7507SOL     OW23419   2.926   6.856   5.303  0.1555  0.0734  0.9341
 7507SOL    HW123420   2.921   6.808   5.390 -1.5843 -1.0493  0.2832
 7507SOL    HW223421   2.850   6.921   5.296 -1.9388 -2.3439 -1.0390
 7508SOL     OW23422   4.382   0.597   1.685 -0.0169  0.2488  0.4872
 7508SOL    HW123423   4.457   0.583   1.620 -0.5836  0.4089 -0.2131
 7508SOL    HW223424   4.346   0.508   1.714  0.2451  0.1771  0.5927
 7509SOL     OW23425   0.896   6.271   0.398  0.1441  0.6167  0.0667
 7509SOL    HW123426   0.834   6.208   0.351  0.3212 -0.8225  1.6459
 7509SOL    HW223427   0.981   6.279   0.346 -0.8781  1.6896 -1.5167
 7510SOL     OW23428   3.989   4.117   0.297 -0.1523 -0.2634 -0.4750
 7510SOL    HW123429   3.891   4.101   0.308 -0.4388  0.7475 -1.3069
 7510SOL    HW223430   4.040   4.063   0.363 -1.4020  1.1084  1.7422
 7511SOL     OW23431   7.007   3.588   6.327  0.0447 -0.2960  0.1367
 7511SOL    HW123432   7.008   3.535   6.412 -0.6748 -0.8145 -0.1676
 7511SOL    HW223433   6.925   3.564   6.274 -1.9025  3.1721  1.2895
 7512SOL     OW23434   4.776   2.882   6.464  0.2041 -0.2091 -0.1126
 7512SOL    HW123435   4.834   2.879   6.546 -0.5075  0.1225  0.4158
 7512SOL    HW223436   4.682   2.860   6.490 -0.0113 -0.1828 -0.8642
 7513SOL     OW23437   0.162   1.747   4.342  0.4910 -0.0409  0.2728
 7513SOL    HW123438   0.152   1.831   4.288  0.5650 -1.1233 -1.5031
 7513SOL    HW223439   0.232   1.761   4.412  1.5381  0.9316 -0.9166
 7514SOL     OW23440   0.153   0.469   5.991 -0.7331  0.0983 -0.1564
 7514SOL    HW123441   0.173   0.480   6.088  1.6961 -2.6293 -0.1935
 7514SOL    HW223442   0.067   0.421   5.979 -1.3558  1.0037  0.5941
 7515SOL     OW23443   0.168   5.290   3.173 -0.1947  0.1887  0.2664
 7515SOL    HW123444   0.206   5.199   3.156  1.8985  0.9367  0.6279
 7515SOL    HW223445   0.176   5.312   3.270  1.9362  1.7975 -0.2007
 7516SOL     OW23446   3.136   1.256   1.546  0.0215  0.1366 -0.3174
 7516SOL    HW123447   3.126   1.242   1.644 -1.0514  1.3015 -0.2481
 7516SOL    HW223448   3.147   1.353   1.526  0.6804 -0.1186 -1.3262
 7517SOL     OW23449   0.319   5.566   4.271 -0.4522  0.0085  0.3036
 7517SOL    HW123450   0.264   5.497   4.319 -1.5180  0.5432 -0.1120
 7517SOL    HW223451   0.384   5.520   4.211 -0.8828 -0.6451  0.3230
 7518SOL     OW23452   2.522   6.289   3.405  0.1958  0.2516 -0.1044
 7518SOL    HW123453   2.554   6.384   3.403  2.1165 -0.2849  1.5250
 7518SOL    HW223454   2.503   6.263   3.500 -0.5687 -0.9106 -0.5613
 7519SOL     OW23455   6.592   4.432   1.027  0.3103  0.3769 -0.4806
 7519SOL    HW123456   6.669   4.371   1.041 -0.9120 -1.0064  0.4609
 7519SOL    HW223457   6.508   4.379   1.019 -0.6108  1.8594 -1.2015
 7520SOL     OW23458   1.432   4.548   1.773  0.1754  0.2616  0.2180
 7520SOL    HW123459   1.378   4.537   1.690 -2.1728 -0.7535  1.7760
 7520SOL    HW223460   1.477   4.461   1.796  1.3152  0.6983 -0.2551
 7521SOL     OW23461   6.921   6.218   4.939  0.2245 -0.2566 -0.3578
 7521SOL    HW123462   6.999   6.279   4.927  1.1366 -0.9774  1.4996
 7521SOL    HW223463   6.952   6.123   4.936 -0.0477 -0.5603  2.9137
 7522SOL     OW23464   3.395   5.391   3.707 -0.4201  0.0552 -0.0393
 7522SOL    HW123465   3.352   5.423   3.792  0.0052 -1.2721  0.6998
 7522SOL    HW223466   3.337   5.416   3.629 -1.1110  0.7714  0.6856
 7523SOL     OW23467   0.025   6.565   3.556  0.1243  0.8351  0.1902
 7523SOL    HW123468  -0.074   6.561   3.546 -0.1380  1.3307  2.1638
 7523SOL    HW223469   0.052   6.657   3.587  1.3537  1.1074 -1.5359
 7524SOL     OW23470   6.455   5.337   1.950  0.0533 -0.1324  0.2051
 7524SOL    HW123471   6.496   5.308   2.037  0.3188 -1.1231 -0.2367
 7524SOL    HW223472   6.527   5.368   1.888 -0.2902  2.4499  0.9762
 7525SOL     OW23473   4.942   6.677   2.350 -0.3136  0.3913 -0.1032
 7525SOL    HW123474   4.915   6.734   2.427  0.2478 -2.5893  2.4634
 7525SOL    HW223475   5.041   6.683   2.338 -0.1546 -0.5689  0.6598
 7526SOL     OW23476   1.212   3.810   0.877  0.6884  0.0027 -0.4658
 7526SOL    HW123477   1.294   3.761   0.850  0.8559  0.2254 -0.3629
 7526SOL    HW223478   1.237   3.897   0.920  0.4629 -0.8303  1.4301
 7527SOL     OW23479   5.314   1.508   0.841 -0.4147  0.0857 -1.2868
 7527SOL    HW123480   5.405   1.539   0.869  0.1802 -0.5711 -2.3837
 7527SOL    HW223481   5.324   1.437   0.770 -1.7522 -0.9121 -0.5216
 7528SOL     OW23482   1.490   4.022   2.751 -0.8477  0.3720  0.5089
 7528SOL    HW123483   1.589   4.007   2.746 -0.5887  2.1396 -1.6172
 7528SOL    HW223484   1.468   4.077   2.831 -0.1297 -0.1528  1.0731
 7529SOL     OW23485   0.411   5.877   6.831 -0.4661 -0.7519 -0.0479
 7529SOL    HW123486   0.398   5.976   6.835 -1.7605 -0.9371  2.2220
 7529SOL    HW223487   0.508   5.856   6.840 -0.3968  0.3319  3.9546
 7530SOL     OW23488   5.286   4.981   0.250  0.0906  0.4277  0.5117
 7530SOL    HW123489   5.200   5.021   0.219 -0.4112 -2.5554 -2.4308
 7530SOL    HW223490   5.362   5.027   0.205 -0.3699 -0.6620 -1.4791
 7531SOL     OW23491   3.223   5.889   6.412 -0.4345  0.1045  0.1283
 7531SOL    HW123492   3.207   5.969   6.470  1.5901  0.0914  0.7758
 7531SOL    HW223493   3.215   5.916   6.316 -0.3723  0.9405  0.3479
 7532SOL     OW23494   1.523   2.046   5.191 -0.3313 -0.3458 -0.3731
 7532SOL    HW123495   1.473   2.109   5.250  2.5074 -1.0346  3.1554
 7532SOL    HW223496   1.602   2.093   5.152 -0.3849 -0.7407 -0.9667
 7533SOL     OW23497   5.334   5.764   1.027 -0.1998 -0.5230 -0.3484
 7533SOL    HW123498   5.322   5.670   0.995 -1.1375 -0.5355  0.0253
 7533SOL    HW223499   5.279   5.825   0.970 -0.2345 -0.2950 -0.0686
 7534SOL     OW23500   0.299   6.569   2.822  0.6664  0.2322  0.2865
 7534SOL    HW123501   0.347   6.607   2.743  0.4070  0.1452  0.0852
 7534SOL    HW223502   0.365   6.528   2.884  0.7893 -0.6479 -0.4015
 7535SOL     OW23503   5.971   0.320   2.200 -0.3145  0.6403  0.1800
 7535SOL    HW123504   5.922   0.253   2.143  0.2803  0.8971 -0.6556
 7535SOL    HW223505   5.916   0.402   2.210 -0.9098  0.1691  0.9385
 7536SOL     OW23506   0.086   5.352   2.334  0.0777 -0.0408  0.0290
 7536SOL    HW123507   0.172   5.401   2.321  0.8237 -1.4927 -0.7895
 7536SOL    HW223508   0.058   5.357   2.430  2.9692 -2.4458  1.1659
 7537SOL     OW23509   0.415   1.595   1.312 -0.5713  0.0656 -0.1096
 7537SOL    HW123510   0.353   1.657   1.361 -1.4938  0.9061 -2.2327
 7537SOL    HW223511   0.404   1.503   1.348 -1.4267  0.5929  1.0525
 7538SOL     OW23512   4.723   4.382   6.682 -0.0228 -0.1952 -0.1624
 7538SOL    HW123513   4.709   4.467   6.732  2.3277  0.4111 -0.4095
 7538SOL    HW223514   4.641   4.325   6.689 -0.9956  1.3075  1.4878
 7539SOL     OW23515   1.303   2.375   1.059 -0.6791  0.1040  0.2260
 7539SOL    HW123516   1.304   2.462   1.108 -1.5434 -0.0335  0.5022
 7539SOL    HW223517   1.260   2.305   1.116 -0.1026 -0.4846 -0.0421
 7540SOL     OW23518   5.192   1.670   5.131  0.6318 -0.0953  0.0013
 7540SOL    HW123519   5.225   1.636   5.043 -0.0731  2.3321 -1.2975
 7540SOL    HW223520   5.096   1.698   5.121  0.4917  0.0645  1.5969
 7541SOL     OW23521   5.099   2.127   0.579 -0.0856  0.3104 -0.3201
 7541SOL    HW123522   5.049   2.091   0.658  0.5955  0.3279  0.1367
 7541SOL    HW223523   5.097   2.060   0.505  0.3641 -0.2718  0.1794
 7542SOL     OW23524   3.305   0.196   6.310 -0.1967  0.1888  0.0422
 7542SOL    HW123525   3.330   0.247   6.393 -2.0775  2.6422 -0.7925
 7542SOL    HW223526   3.327   0.250   6.229 -0.4353 -1.2310 -1.0248
 7543SOL     OW23527   0.262   5.066   3.378 -0.1257 -0.4295 -0.2864
 7543SOL    HW123528   0.265   5.110   3.468 -0.1044 -1.8012  0.4204
 7543SOL    HW223529   0.177   5.013   3.369 -0.0129 -0.5038 -0.9757
 7544SOL     OW23530   0.617   6.473   3.389  0.0028 -0.1509 -0.4285
 7544SOL    HW123531   0.542   6.425   3.343 -1.0352 -0.2435  1.2754
 7544SOL    HW223532   0.590   6.568   3.407 -0.6771 -0.7745  2.2138
 7545SOL     OW23533   1.749   3.303   6.371  0.3174  0.0852  0.0461
 7545SOL    HW123534   1.818   3.305   6.444 -0.3146 -0.3271  0.6671
 7545SOL    HW223535   1.776   3.366   6.298  1.5488 -0.3628  0.0924
 7546SOL     OW23536   3.663   0.865   6.544 -0.6819 -0.1946  0.3885
 7546SOL    HW123537   3.575   0.909   6.525 -1.5080 -1.4011  1.2067
 7546SOL    HW223538   3.688   0.881   6.639  0.3613  0.7433 -0.0355
 7547SOL     OW23539   4.620   1.458   2.925 -0.1342 -0.4908  0.4668
 7547SOL    HW123540   4.555   1.513   2.873  1.9668  0.4730 -1.3258
 7547SOL    HW223541   4.623   1.491   3.020 -2.1486 -0.5390  0.5858
 7548SOL     OW23542   0.550   1.956   3.396 -0.1026  0.2310 -0.1245
 7548SOL    HW123543   0.559   2.016   3.317  0.2993  0.3445  0.0045
 7548SOL    HW223544   0.514   2.008   3.474 -3.6046 -0.5315 -1.0373
 7549SOL     OW23545   4.000   5.429   0.836  0.4157  0.0591 -0.3660
 7549SOL    HW123546   3.929   5.424   0.906  1.2698  0.8911  0.5937
 7549SOL    HW223547   4.089   5.406   0.876  0.9815  0.9391 -1.0676
 7550SOL     OW23548   4.295   3.838   0.602  0.3674 -0.5255 -0.4106
 7550SOL    HW123549   4.369   3.797   0.549  0.3576 -0.3130 -0.5886
 7550SOL    HW223550   4.331   3.881   0.684  0.3770 -0.9040 -0.2159
 7551SOL     OW23551   2.457   6.566   3.224  0.0539  0.1987 -0.1236
 7551SOL    HW123552   2.493   6.531   3.138  0.6344 -1.9980  0.9664
 7551SOL    HW223553   2.363   6.534   3.237  0.0701  0.2766  0.2093
 7552SOL     OW23554   6.934   5.067   1.636 -0.1307  0.1890  0.4558
 7552SOL    HW123555   6.977   5.148   1.676  1.2900 -1.1563  1.8734
 7552SOL    HW223556   6.960   5.059   1.540 -3.2441  3.2635 -0.8231
 7553SOL     OW23557   5.294   4.756   1.337  0.1794  0.5137  0.0312
 7553SOL    HW123558   5.230   4.774   1.262 -1.1638  1.2549  1.2892
 7553SOL    HW223559   5.365   4.694   1.306 -0.1619  1.0362 -1.9316
 7554SOL     OW23560   5.001   1.764   6.905  0.4054  0.2103  0.1051
 7554SOL    HW123561   5.041   1.852   6.930  0.9321 -0.5158  2.0433
 7554SOL    HW223562   5.062   1.690   6.935 -1.0117 -0.8615  0.4667
 7555SOL     OW23563   3.266   5.228   6.363  0.3034 -0.0618 -0.6648
 7555SOL    HW123564   3.201   5.189   6.428 -0.1908  0.9103 -0.5536
 7555SOL    HW223565   3.242   5.198   6.270  0.6866 -1.0171 -0.4632
 7556SOL     OW23566   3.586   2.326   0.646 -0.0170  0.2144  0.4309
 7556SOL    HW123567   3.524   2.330   0.567 -0.3835  1.1602  0.7555
 7556SOL    HW223568   3.650   2.402   0.643 -0.0947  0.3153  1.0908
 7557SOL     OW23569   5.627   4.970   1.131  0.0374  0.0771  0.2700
 7557SOL    HW123570   5.549   4.967   1.194  0.5486 -0.3707  0.8886
 7557SOL    HW223571   5.712   4.983   1.182  0.2703  1.8573 -0.4985
 7558SOL     OW23572   0.773   3.762   2.092 -0.3553 -0.5465  0.0880
 7558SOL    HW123573   0.821   3.847   2.072  1.5264 -1.0284  2.2085
 7558SOL    HW223574   0.710   3.742   2.017 -1.6171  3.1703 -0.0811
 7559SOL     OW23575   4.528   2.514   4.169  0.1059 -0.1156 -0.0766
 7559SOL    HW123576   4.583   2.437   4.135  0.0489 -0.1181 -0.1639
 7559SOL    HW223577   4.503   2.497   4.265 -0.4412 -0.5097 -0.2798
 7560SOL     OW23578   1.967   4.083   2.363  0.2913 -0.0773  0.0690
 7560SOL    HW123579   2.058   4.111   2.333  0.3262 -0.0870  0.1655
 7560SOL    HW223580   1.973   4.044   2.455 -0.0900  1.7341  0.9220
 7561SOL     OW23581   6.867   3.141   2.107 -0.0087 -0.4890  0.3260
 7561SOL    HW123582   6.778   3.185   2.100 -0.0533 -0.3280  1.6251
 7561SOL    HW223583   6.900   3.116   2.016 -0.1534  1.8860 -0.4265
 7562SOL     OW23584   2.855   2.107   5.460 -0.2384 -0.1599  0.1411
 7562SOL    HW123585   2.907   2.188   5.434  0.1689 -0.1033  1.0904
 7562SOL    HW223586   2.825   2.059   5.378 -0.3602  0.8633 -0.4348
 7563SOL     OW23587   0.181   3.814   4.730  0.8918 -0.1323  0.1426
 7563SOL    HW123588   0.224   3.863   4.655  0.2773  1.8863  1.0518
 7563SOL    HW223589   0.169   3.718   4.704 -1.2357  0.8776 -3.1895
 7564SOL     OW23590   3.826   1.134   6.600  0.1764  0.6499 -0.3813
 7564SOL    HW123591   3.904   1.076   6.575  0.4625  0.9501 -0.2001
 7564SOL    HW223592   3.859   1.225   6.623 -0.3456  1.0948 -1.3459
 7565SOL     OW23593   1.314   2.876   0.959  0.8587 -0.0462  0.4121
 7565SOL    HW123594   1.277   2.956   1.008  1.7433 -0.4159  1.7588
 7565SOL    HW223595   1.330   2.900   0.864  0.7823  1.2925  0.7110
 7566SOL     OW23596   4.573   6.722   2.742  0.5271  0.1338  0.2128
 7566SOL    HW123597   4.476   6.703   2.760  0.1870 -0.3795 -1.9204
 7566SOL    HW223598   4.616   6.641   2.702  1.4228  0.8993 -0.4089
 7567SOL     OW23599   0.884   3.221   3.177  0.1873 -0.3502 -0.6732
 7567SOL    HW123600   0.865   3.226   3.079 -0.2466 -0.8383 -0.6146
 7567SOL    HW223601   0.855   3.133   3.212  0.1020 -0.0766 -0.0483
 7568SOL     OW23602   2.255   4.111   4.574  0.5945 -0.5118 -0.6024
 7568SOL    HW123603   2.234   4.196   4.525 -0.7180 -0.5709 -0.1842
 7568SOL    HW223604   2.300   4.047   4.512  0.0970 -0.1165 -1.3910
 7569SOL     OW23605   2.107   4.291   4.399 -0.1478 -0.3976 -0.5801
 7569SOL    HW123606   2.054   4.376   4.404  1.8981  0.9213  0.1620
 7569SOL    HW223607   2.054   4.217   4.440 -1.0834  1.0434  0.9938
 7570SOL     OW23608   4.661   6.546   1.933 -0.1123  0.0464  0.2712
 7570SOL    HW123609   4.696   6.524   2.024 -0.0080  1.6165  0.6232
 7570SOL    HW223610   4.641   6.460   1.885 -1.9950 -0.8630  2.4523
 7571SOL     OW23611   3.501   4.874   6.549  0.5369  0.4379  0.2336
 7571SOL    HW123612   3.516   4.962   6.592 -1.6920  0.1442  1.8021
 7571SOL    HW223613   3.499   4.802   6.619 -2.5484 -0.1446 -0.2948
 7572SOL     OW23614   5.770   4.881   2.352  0.1002  0.6434 -0.2645
 7572SOL    HW123615   5.772   4.903   2.450  0.4698 -0.4294 -0.0157
 7572SOL    HW223616   5.862   4.885   2.315 -0.0803  1.3521 -0.6504
 7573SOL     OW23617   5.364   3.677   0.907 -0.1376  0.1221 -0.0415
 7573SOL    HW123618   5.335   3.607   0.973  0.1213 -1.4076 -1.4934
 7573SOL    HW223619   5.371   3.765   0.954 -1.1404 -0.6585  1.7016
 7574SOL     OW23620   1.929   4.924   5.212  0.1592  0.2977  0.1348
 7574SOL    HW123621   1.925   5.003   5.152  0.2421  0.2168  0.0212
 7574SOL    HW223622   2.024   4.901   5.231  0.1236  1.1206  1.3634
 7575SOL     OW23623   4.833   0.521   2.334 -0.1386 -0.2319 -0.2139
 7575SOL    HW123624   4.863   0.426   2.337  0.8131 -0.0041 -1.4483
 7575SOL    HW223625   4.913   0.581   2.342 -0.8358  0.5000  1.6516
 7576SOL     OW23626   6.135   3.258   3.275  0.4092 -0.1621  0.2794
 7576SOL    HW123627   6.148   3.232   3.180  0.6101  0.6214  0.0870
 7576SOL    HW223628   6.037   3.269   3.293  0.4458  1.6987 -0.4102
 7577SOL     OW23629   4.383   5.968   0.279  0.0259 -0.0110 -0.5350
 7577SOL    HW123630   4.437   5.885   0.266 -0.1183 -0.3727  0.9824
 7577SOL    HW223631   4.308   5.949   0.342  0.0841  1.2980 -0.0409
 7578SOL     OW23632   5.426   0.176   4.368 -0.0986 -0.1152  0.1336
 7578SOL    HW123633   5.467   0.084   4.366  0.7780  0.2112  1.5682
 7578SOL    HW223634   5.446   0.219   4.456  1.7018  2.4183 -1.3698
 7579SOL     OW23635   1.294   4.272   3.592 -0.5876  0.2960  0.4550
 7579SOL    HW123636   1.348   4.239   3.514 -1.6535 -0.3322 -0.0523
 7579SOL    HW223637   1.337   4.352   3.631 -0.8872  1.6840 -1.8753
 7580SOL     OW23638   4.840   0.118   1.412  0.5524 -1.0248  0.0505
 7580SOL    HW123639   4.887   0.108   1.500  0.6292 -0.4293  0.0843
 7580SOL    HW223640   4.797   0.032   1.387 -0.7958 -0.8067  1.4227
 7581SOL     OW23641   2.133   3.642   1.022  0.1884 -0.1481 -0.0507
 7581SOL    HW123642   2.226   3.677   1.021  0.6375 -1.2709  0.4583
 7581SOL    HW223643   2.069   3.714   0.994  1.3838  0.0606 -2.4812
 7582SOL     OW23644   4.985   1.885   6.280 -0.2012  0.2255 -0.2542
 7582SOL    HW123645   4.939   1.842   6.358 -0.3255 -0.5085 -0.7208
 7582SOL    HW223646   4.918   1.903   6.208 -0.4774  2.6831  0.5021
 7583SOL     OW23647   5.209   1.829   2.208 -0.0519  0.8499 -0.0634
 7583SOL    HW123648   5.122   1.791   2.237 -1.1691  2.0216 -1.7125
 7583SOL    HW223649   5.263   1.854   2.288 -1.4102  0.4972  0.9895
 7584SOL     OW23650   6.531   6.895   0.190 -0.0080 -0.2206 -0.4444
 7584SOL    HW123651   6.456   6.839   0.155 -0.1111 -0.9865  0.9487
 7584SOL    HW223652   6.618   6.853   0.164 -0.0465  0.4884 -1.7740
 7585SOL     OW23653   2.619   6.245   3.121  0.7047 -0.8060 -0.4917
 7585SOL    HW123654   2.628   6.259   3.219  1.1158 -0.5622 -0.5577
 7585SOL    HW223655   2.534   6.286   3.088  1.5620  1.0394 -0.5683
 7586SOL     OW23656   0.245   0.301   4.872  0.2035 -0.3378  0.0782
 7586SOL    HW123657   0.278   0.212   4.841  0.0482 -0.1299 -0.6970
 7586SOL    HW223658   0.270   0.314   4.968  0.4581 -1.1014  0.1242
 7587SOL     OW23659   6.231   4.534   0.366  0.2927 -0.2638  0.3916
 7587SOL    HW123660   6.321   4.559   0.403  0.3539 -0.1099  0.1453
 7587SOL    HW223661   6.188   4.616   0.328 -0.6564  0.0089  1.9684
 7588SOL     OW23662   5.415   0.094   4.822  0.9362 -0.9893  0.9697
 7588SOL    HW123663   5.406   0.018   4.886 -2.7317  0.2473  2.1809
 7588SOL    HW223664   5.442   0.176   4.872 -0.5136 -0.3474  0.7606
 7589SOL     OW23665   5.491   6.648   0.444 -0.2254 -0.2885 -0.3947
 7589SOL    HW123666   5.575   6.633   0.392  2.1308  1.3948  2.5898
 7589SOL    HW223667   5.451   6.736   0.418  0.1552 -0.0947 -0.3234
 7590SOL     OW23668   6.000   3.405   2.799  0.5897 -0.0622 -1.1213
 7590SOL    HW123669   5.998   3.461   2.716 -0.3024  0.6072 -0.6578
 7590SOL    HW223670   5.975   3.311   2.776 -0.2026  0.2416 -1.5286
 7591SOL     OW23671   3.298   4.855   0.986 -0.1135 -0.0357 -0.0598
 7591SOL    HW123672   3.222   4.820   0.931 -0.1236  0.0145 -0.0778
 7591SOL    HW223673   3.382   4.852   0.933  0.2177 -1.6276  0.4967
 7592SOL     OW23674   6.406   3.611   5.924 -0.3323 -0.1283  0.7219
 7592SOL    HW123675   6.313   3.582   5.947  0.1745 -1.6008  1.0245
 7592SOL    HW223676   6.471   3.557   5.977  0.6892  2.0924  1.8842
 7593SOL     OW23677   3.608   0.755   6.084  0.0185  0.0737 -0.0520
 7593SOL    HW123678   3.628   0.848   6.114 -0.9876  0.3406 -0.1739
 7593SOL    HW223679   3.646   0.690   6.150 -1.1853  0.6299  1.2552
 7594SOL     OW23680   5.676   0.449   2.603  0.4675  0.7176  0.0200
 7594SOL    HW123681   5.627   0.498   2.676  2.9374  0.4419  2.0145
 7594SOL    HW223682   5.774   0.459   2.617  1.0455 -1.6241 -1.7595
 7595SOL     OW23683   2.459   2.746   1.765  0.0312  0.2784  0.0871
 7595SOL    HW123684   2.499   2.771   1.854  0.8521 -1.7623  0.3533
 7595SOL    HW223685   2.532   2.714   1.704 -0.9306 -1.6156 -0.1148
 7596SOL     OW23686   4.413   3.691   6.063 -0.1071 -0.0073 -0.0641
 7596SOL    HW123687   4.443   3.761   5.998  2.0493 -1.5612 -0.8444
 7596SOL    HW223688   4.457   3.707   6.151  0.3193 -0.3195 -0.2185
 7597SOL     OW23689   5.030   1.793   5.959  0.3352 -0.0887 -0.3142
 7597SOL    HW123690   5.011   1.889   5.981  1.5706  0.3909 -1.2428
 7597SOL    HW223691   5.014   1.737   6.041 -3.4598  0.3952 -0.5332
 7598SOL     OW23692   1.339   2.885   6.139 -0.3421 -0.0398  0.2122
 7598SOL    HW123693   1.395   2.914   6.062  1.0927 -1.0638  0.8131
 7598SOL    HW223694   1.399   2.852   6.213 -1.7239 -0.5617  1.1359
 7599SOL     OW23695   0.778   1.965   4.000  0.0753 -0.2108  0.1773
 7599SOL    HW123696   0.781   1.945   3.901  0.4443 -1.3045  0.3862
 7599SOL    HW223697   0.798   2.061   4.015  1.2314 -0.2731 -0.7562
 7600SOL     OW23698   1.893   4.879   2.083  0.1526 -0.5735  0.2566
 7600SOL    HW123699   1.892   4.780   2.097  0.7434 -0.9175 -1.7340
 7600SOL    HW223700   1.987   4.913   2.090 -0.0734 -0.1041  1.1264
 7601SOL     OW23701   4.466   1.696   5.062 -0.5631  0.3430 -0.4886
 7601SOL    HW123702   4.471   1.622   4.994  0.4659  0.2147 -0.2985
 7601SOL    HW223703   4.381   1.746   5.051 -1.3539 -0.9550 -0.5456
 7602SOL     OW23704   6.066   5.670   5.649 -0.4503 -0.2905 -0.0589
 7602SOL    HW123705   6.041   5.757   5.693 -0.3240 -0.4793  0.3902
 7602SOL    HW223706   6.029   5.594   5.702  0.2384 -0.5407  0.0796
 7603SOL     OW23707   3.413   4.149   4.106  0.1895  0.0294  0.0695
 7603SOL    HW123708   3.504   4.185   4.085 -0.1505  1.6307  1.1167
 7603SOL    HW223709   3.361   4.138   4.021  1.3765 -1.0323 -0.5526
 7604SOL     OW23710   2.312   2.035   0.081 -0.0985  0.2008  0.0187
 7604SOL    HW123711   2.307   2.082   0.169 -0.9636  0.7095 -0.2872
 7604SOL    HW223712   2.338   1.939   0.095  1.4356  0.6884  0.6732
 7605SOL     OW23713   0.235   5.972   4.526  0.8648 -0.4291 -0.9826
 7605SOL    HW123714   0.187   5.986   4.439  1.6984 -0.8830 -1.5311
 7605SOL    HW223715   0.331   5.951   4.508  1.7020  2.1017  0.1251
 7606SOL     OW23716   3.242   0.002   6.840 -0.0679  0.5315 -1.1019
 7606SOL    HW123717   3.269  -0.033   6.751  0.1228 -2.7973  0.1316
 7606SOL    HW223718   3.313  -0.020   6.908 -2.9316 -3.1607  1.0772
 7607SOL     OW23719   6.546   4.079   0.934 -0.8867  0.9005 -0.2251
 7607SOL    HW123720   6.552   4.081   0.835  2.1271  1.7922 -0.1217
 7607SOL    HW223721   6.488   4.155   0.965 -1.6301  0.7771 -1.2499
 7608SOL     OW23722   4.248   6.234   0.751 -0.5311 -0.0196  0.5447
 7608SOL    HW123723   4.248   6.134   0.763 -0.0235 -0.0171  0.6064
 7608SOL    HW223724   4.326   6.273   0.800  0.7644  0.1493 -1.5148
 7609SOL     OW23725   2.798   1.369   2.014  0.1101  0.7766 -0.2848
 7609SOL    HW123726   2.764   1.457   2.047  0.9851  1.4717 -1.1570
 7609SOL    HW223727   2.896   1.361   2.033  0.3533  0.6394 -1.4789
 7610SOL     OW23728   0.647   4.328   0.829 -0.5705  0.1813 -0.3150
 7610SOL    HW123729   0.722   4.394   0.836  1.2904 -1.6582 -1.6476
 7610SOL    HW223730   0.657   4.258   0.900 -2.3521  1.0840  0.8989
 7611SOL     OW23731   6.317   5.590   6.361 -0.4354  0.5213 -0.1733
 7611SOL    HW123732   6.320   5.573   6.262 -0.4938 -0.4008 -0.0180
 7611SOL    HW223733   6.279   5.511   6.408  2.0224 -0.1692  0.8377
 7612SOL     OW23734   2.982   1.366   0.504 -0.5761 -0.2571 -0.9350
 7612SOL    HW123735   2.987   1.310   0.421  0.2274 -1.3844 -0.1614
 7612SOL    HW223736   2.886   1.386   0.524 -0.9912 -2.3805 -0.6035
 7613SOL     OW23737   2.807   6.044   6.594 -0.0839  0.0954  0.9598
 7613SOL    HW123738   2.765   6.002   6.675 -1.9336 -1.6869 -0.7905
 7613SOL    HW223739   2.856   5.974   6.542 -0.1682  0.8864 -0.2168
 7614SOL     OW23740   3.966   3.856   2.243  0.5062  0.3932 -0.2531
 7614SOL    HW123741   3.928   3.874   2.334  0.5899  0.4937 -0.2370
 7614SOL    HW223742   3.967   3.941   2.191 -1.8778 -0.1217 -1.2393
 7615SOL     OW23743   4.122   0.014   1.256  0.7784  0.0143  0.4579
 7615SOL    HW123744   4.212   0.037   1.293  0.3240  2.2037  0.3205
 7615SOL    HW223745   4.132  -0.044   1.175  2.1548  1.2763 -0.3117
 7616SOL     OW23746   3.109   4.457   5.370 -0.0322  0.5225 -0.3654
 7616SOL    HW123747   3.057   4.458   5.455  1.3360  0.0231  0.5236
 7616SOL    HW223748   3.050   4.481   5.293 -1.7539 -0.8559  0.4593
 7617SOL     OW23749   5.386   4.602   2.503  0.3984 -0.6499 -0.4272
 7617SOL    HW123750   5.442   4.661   2.444 -2.3487  0.4235 -2.1557
 7617SOL    HW223751   5.350   4.526   2.449  0.4713 -1.5433  0.7459
 7618SOL     OW23752   3.717   6.579   6.238  0.2410 -0.3741 -0.3527
 7618SOL    HW123753   3.717   6.491   6.284  1.5931  1.1437  2.8339
 7618SOL    HW223754   3.784   6.579   6.164  3.4474 -0.8314  2.3575
 7619SOL     OW23755   0.967   4.272   1.084 -0.9480 -0.0161  0.4685
 7619SOL    HW123756   0.877   4.288   1.125 -1.7129  0.2048 -1.2109
 7619SOL    HW223757   0.956   4.216   1.002  0.6093 -1.0220  0.9167
 7620SOL     OW23758   4.580   2.309   2.695 -0.1370  0.0976 -0.0870
 7620SOL    HW123759   4.673   2.320   2.660  0.4163 -0.1777  1.2646
 7620SOL    HW223760   4.516   2.348   2.629  1.0807  2.3042 -0.0680
 7621SOL     OW23761   3.739   6.018   5.342  0.0821 -0.3803 -0.0638
 7621SOL    HW123762   3.712   5.922   5.330  0.8499 -0.4903 -0.9580
 7621SOL    HW223763   3.818   6.038   5.286  1.3425  0.1810  1.8169
 7622SOL     OW23764   3.951   1.197   2.692 -0.3007  1.2895 -0.0211
 7622SOL    HW123765   3.879   1.172   2.627 -0.5130 -0.3384  0.8040
 7622SOL    HW223766   3.966   1.122   2.756  2.3772  1.4438 -0.3613
 7623SOL     OW23767   4.974   2.258   3.445  0.3639 -0.2681  0.0254
 7623SOL    HW123768   4.983   2.168   3.487  1.3885 -0.0964  0.1994
 7623SOL    HW223769   4.910   2.253   3.368  1.4591 -1.4561 -0.8437
 7624SOL     OW23770   5.766   2.128   0.114  0.2751 -0.7056  0.5059
 7624SOL    HW123771   5.666   2.119   0.123  0.4942 -4.0560  0.8522
 7624SOL    HW223772   5.787   2.212   0.064 -2.7237 -0.1014  0.0443
 7625SOL     OW23773   5.678   5.397   1.258  0.1064 -0.0968 -0.1614
 7625SOL    HW123774   5.647   5.322   1.201  0.4383  0.4018 -1.0075
 7625SOL    HW223775   5.599   5.442   1.301 -0.1391 -0.4775 -0.2141
 7626SOL     OW23776   6.447   0.083   2.468  0.3764 -0.4044 -0.4616
 7626SOL    HW123777   6.434   0.046   2.376 -1.1401 -1.2150  0.0491
 7626SOL    HW223778   6.471   0.180   2.462  2.1532 -0.8685 -1.7462
 7627SOL     OW23779   6.108   5.828   4.127 -0.2528  0.1117  0.0394
 7627SOL    HW123780   6.107   5.868   4.219  1.5544  0.7185 -0.1711
 7627SOL    HW223781   6.044   5.751   4.124 -0.8344  0.4910  1.6005
 7628SOL     OW23782   1.978   0.398   6.092 -0.0513 -0.2269  0.3021
 7628SOL    HW123783   1.976   0.472   6.159  0.4111  0.2900 -0.2468
 7628SOL    HW223784   1.890   0.349   6.094 -0.2578  0.1618  0.8618
 7629SOL     OW23785   3.869   6.110   5.576 -0.0600 -0.3668  0.0300
 7629SOL    HW123786   3.965   6.101   5.549  0.2930  2.2858  0.1311
 7629SOL    HW223787   3.811   6.068   5.507  1.1139 -0.0516 -1.1912
 7630SOL     OW23788   5.872   3.089   3.350  0.5140 -0.2740 -0.9328
 7630SOL    HW123789   5.798   3.075   3.416  1.5183 -1.3349 -0.0066
 7630SOL    HW223790   5.856   3.031   3.270  0.6115 -0.9136 -0.4966
 7631SOL     OW23791   1.520   4.779   1.363  0.0996  0.4552 -0.1029
 7631SOL    HW123792   1.439   4.751   1.311  0.4857 -0.3627 -0.2803
 7631SOL    HW223793   1.491   4.822   1.448 -0.5251  0.5298 -0.3453
 7632SOL     OW23794   6.690   1.634   2.209  0.0624 -0.1971  0.3078
 7632SOL    HW123795   6.764   1.595   2.264  1.3790 -0.0538 -1.2822
 7632SOL    HW223796   6.609   1.574   2.215  0.4526 -0.6244  1.6679
 7633SOL     OW23797   5.284   6.521   3.801  0.3212 -0.0098 -0.3333
 7633SOL    HW123798   5.246   6.580   3.729  1.7878 -0.1694 -1.3058
 7633SOL    HW223799   5.262   6.426   3.782  0.8189 -0.0646 -0.6720
 7634SOL     OW23800   6.770   4.384   5.525  0.4877 -0.0971 -0.3719
 7634SOL    HW123801   6.795   4.480   5.511 -0.7782  0.3352  0.2381
 7634SOL    HW223802   6.674   4.378   5.553  0.0851 -1.6651 -1.9628
 7635SOL     OW23803   6.969   5.736   6.965 -0.4394 -0.1434  0.7483
 7635SOL    HW123804   7.003   5.772   6.878 -0.6393  1.7606  1.3999
 7635SOL    HW223805   7.041   5.741   7.034 -0.3477 -1.4389  0.7714
 7636SOL     OW23806   2.637   5.219   3.099 -0.3775 -0.1042 -0.3179
 7636SOL    HW123807   2.562   5.279   3.125  0.8627  1.5970 -0.5311
 7636SOL    HW223808   2.677   5.249   3.013  1.2360 -0.2759  0.3215
 7637SOL     OW23809   2.510   1.647   6.773 -0.2624 -0.3480  0.1885
 7637SOL    HW123810   2.499   1.612   6.866 -1.1197  0.1236  0.2734
 7637SOL    HW223811   2.522   1.747   6.776  1.3120 -0.5054 -0.1030
 7638SOL     OW23812   4.304   6.564   3.055 -0.0014 -0.4417 -0.3459
 7638SOL    HW123813   4.294   6.658   3.022 -0.5789 -0.8295 -1.3425
 7638SOL    HW223814   4.329   6.565   3.151 -0.0439  0.7332 -0.3278
 7639SOL     OW23815   6.915   4.044   6.886  0.1582  0.0092  0.2212
 7639SOL    HW123816   6.928   3.979   6.811 -0.1295 -0.7664  0.8331
 7639SOL    HW223817   6.964   4.129   6.865 -1.2834  0.4523 -1.6130
 7640SOL     OW23818   5.370   2.964   6.124  0.3797 -0.4083 -0.0704
 7640SOL    HW123819   5.291   2.911   6.153  0.2328 -0.4726 -0.5938
 7640SOL    HW223820   5.445   2.903   6.099  0.6728 -0.3455  0.6240
 7641SOL     OW23821   5.598   5.521   1.830  0.1454  0.3675 -0.0026
 7641SOL    HW123822   5.654   5.483   1.904 -0.4247 -0.1144  0.1879
 7641SOL    HW223823   5.655   5.534   1.749  0.2672 -1.3843 -0.2422
 7642SOL     OW23824   5.022   5.292   1.003  0.2799 -0.2892 -0.3683
 7642SOL    HW123825   4.925   5.271   0.991  0.5413 -1.5630 -0.4292
 7642SOL    HW223826   5.055   5.341   0.922  0.0032 -1.1241 -1.0083
 7643SOL     OW23827   6.186   2.890   5.753 -0.0509 -0.1777  0.1333
 7643SOL    HW123828   6.278   2.921   5.779  0.2324  1.4354 -2.4848
 7643SOL    HW223829   6.121   2.963   5.770 -0.3331 -0.1914 -0.8736
 7644SOL     OW23830   6.335   1.773   6.553  0.1598  0.2095 -0.0111
 7644SOL    HW123831   6.336   1.728   6.642  1.2588  0.6622  0.2300
 7644SOL    HW223832   6.405   1.845   6.552  1.2138 -0.7609 -1.7241
 7645SOL     OW23833   1.223   3.846   6.834 -0.0270 -0.2662 -0.1134
 7645SOL    HW123834   1.263   3.907   6.904 -0.8160  1.1377 -0.8318
 7645SOL    HW223835   1.286   3.772   6.815  1.3711  0.7933  0.1993
 7646SOL     OW23836   5.342   1.335   6.843 -0.6319 -0.4590 -0.1071
 7646SOL    HW123837   5.379   1.263   6.902  0.5891  0.4688  0.2937
 7646SOL    HW223838   5.282   1.293   6.774  1.4891 -2.1470 -1.0804
 7647SOL     OW23839   4.981   6.257   0.147  0.3576 -0.3372 -0.3993
 7647SOL    HW123840   4.901   6.197   0.159  0.3084 -0.5400 -1.6016
 7647SOL    HW223841   5.051   6.233   0.214 -0.1974 -0.8343  0.0113
 7648SOL     OW23842   5.504   6.095   2.241 -0.2018  0.3347 -0.0109
 7648SOL    HW123843   5.562   6.086   2.161 -1.6875  0.9490 -1.2215
 7648SOL    HW223844   5.560   6.106   2.323  1.4139  3.1614 -1.3743
 7649SOL     OW23845   3.691   2.995   4.766  0.1119  0.3748 -0.1643
 7649SOL    HW123846   3.726   2.966   4.677  3.1390  2.1178  0.2997
 7649SOL    HW223847   3.634   3.077   4.754  2.2214  1.8816 -0.4281
 7650SOL     OW23848   5.695   4.268   2.584 -0.1248 -0.0053 -0.1912
 7650SOL    HW123849   5.595   4.268   2.591 -0.1188 -0.2796 -0.0922
 7650SOL    HW223850   5.729   4.362   2.592 -0.4768  0.2844 -1.7629
 7651SOL     OW23851   6.945   3.744   4.284  0.5758  0.9938 -0.4388
 7651SOL    HW123852   6.857   3.705   4.258  0.6333  1.9998 -2.3819
 7651SOL    HW223853   7.017   3.707   4.225  1.4832  0.1885  1.1224
 7652SOL     OW23854   4.535   6.459   3.613 -0.1490  0.1015 -0.2728
 7652SOL    HW123855   4.592   6.540   3.628  0.7040 -0.6964  0.9442
 7652SOL    HW223856   4.448   6.470   3.661 -0.1470  0.4017 -0.3340
 7653SOL     OW23857   2.796   2.490   0.566 -0.1022  0.2142 -0.3459
 7653SOL    HW123858   2.710   2.440   0.562  0.7485 -1.2231 -1.6159
 7653SOL    HW223859   2.795   2.566   0.501 -1.3712  1.9105  1.5391
 7654SOL     OW23860   0.851   1.739   5.792 -0.3026  0.0017  0.3073
 7654SOL    HW123861   0.839   1.792   5.707  0.3978  0.2628  0.3669
 7654SOL    HW223862   0.925   1.673   5.779  0.2117  0.4514  0.9070
 7655SOL     OW23863   2.839   5.920   2.463  0.0958 -0.4009 -0.8389
 7655SOL    HW123864   2.777   5.849   2.431  0.2064 -0.5390 -0.7490
 7655SOL    HW223865   2.904   5.880   2.528  0.1874 -0.2277 -0.8249
 7656SOL     OW23866   6.398   0.596   4.873  0.2965 -0.0227 -0.2336
 7656SOL    HW123867   6.299   0.598   4.863  0.3462 -1.0092 -1.0424
 7656SOL    HW223868   6.422   0.558   4.963 -0.0489 -0.3670 -0.2863
 7657SOL     OW23869   0.693   0.785   4.675 -0.1962 -0.1659 -0.3285
 7657SOL    HW123870   0.692   0.686   4.663 -2.8277 -0.1921 -0.6219
 7657SOL    HW223871   0.762   0.811   4.742 -0.2405 -2.3205  0.6193
 7658SOL     OW23872   2.369   6.265   3.926 -0.2280  0.4003  0.0196
 7658SOL    HW123873   2.319   6.297   4.006 -0.6961  0.6584 -0.3706
 7658SOL    HW223874   2.462   6.239   3.952 -0.5567 -0.0518  0.7464
 7659SOL     OW23875   1.600   5.038   2.391  0.2314 -0.4845 -0.2217
 7659SOL    HW123876   1.667   5.103   2.425  0.5357 -0.8896 -0.0309
 7659SOL    HW223877   1.520   5.037   2.451 -0.3146  0.6034 -0.9117
 7660SOL     OW23878   1.963   2.145   4.852  0.0083 -0.3708 -0.4352
 7660SOL    HW123879   2.047   2.132   4.800 -0.4109 -0.1719 -1.1769
 7660SOL    HW223880   1.947   2.242   4.867  0.7563 -0.4666  1.1348
 7661SOL     OW23881   5.418   1.762   1.440  0.2250  0.4056  0.0644
 7661SOL    HW123882   5.365   1.779   1.522 -0.0284  2.4856 -0.4797
 7661SOL    HW223883   5.515   1.769   1.460  0.1434  2.1835 -0.0190
 7662SOL     OW23884   6.041   1.588   5.577 -0.2427  0.0086  0.4548
 7662SOL    HW123885   5.974   1.514   5.579 -1.5371  1.1513  0.6965
 7662SOL    HW223886   6.067   1.607   5.482 -0.8203  0.0352  0.2994
 7663SOL     OW23887   0.120   5.569   4.830  0.0248  0.1279  0.4053
 7663SOL    HW123888   0.179   5.568   4.911  0.8595  1.0256 -0.1725
 7663SOL    HW223889   0.106   5.664   4.800  0.4864 -0.2320 -1.0412
 7664SOL     OW23890   3.765   5.533   3.120 -0.0302  0.2595  0.6820
 7664SOL    HW123891   3.864   5.523   3.130 -0.2982 -3.7580  0.8788
 7664SOL    HW223892   3.720   5.505   3.205 -1.3797 -1.1465 -0.4348
 7665SOL     OW23893   2.587   2.012   0.274 -0.1034  0.7904 -0.0984
 7665SOL    HW123894   2.497   2.053   0.289 -0.6184 -1.0724  2.3821
 7665SOL    HW223895   2.634   2.002   0.361  2.1800  0.8721 -1.2516
 7666SOL     OW23896   3.287   0.353   6.056  0.7973  0.6647 -0.0469
 7666SOL    HW123897   3.188   0.357   6.047  0.8717  1.9693 -0.4543
 7666SOL    HW223898   3.323   0.286   5.991  0.2257  0.5502 -0.2504
 7667SOL     OW23899   5.949   5.725   1.374 -0.0738  0.2093  0.0835
 7667SOL    HW123900   5.965   5.790   1.300 -1.5452 -0.2254 -0.6674
 7667SOL    HW223901   5.850   5.718   1.391 -0.3806 -3.9690 -1.9454
 7668SOL     OW23902   6.485   1.975   3.801 -0.3272  0.4942  0.7910
 7668SOL    HW123903   6.406   1.991   3.742  0.7122 -1.0173 -1.1081
 7668SOL    HW223904   6.462   1.905   3.869 -1.7767  2.7899  2.8211
 7669SOL     OW23905   2.061   5.508   0.817  0.0492 -0.3044 -0.1746
 7669SOL    HW123906   2.040   5.481   0.724  0.5263 -1.0226 -0.0857
 7669SOL    HW223907   2.125   5.442   0.857  0.7764  0.6289  0.2634
 7670SOL     OW23908   0.124   2.470   7.016 -0.0534  0.1288 -0.4638
 7670SOL    HW123909   0.224   2.472   7.005 -0.1993  1.7168 -2.0759
 7670SOL    HW223910   0.095   2.548   7.072 -0.5196  0.9009 -1.7421
 7671SOL     OW23911   1.743   0.032   3.727  0.2281  0.3652 -0.4154
 7671SOL    HW123912   1.679  -0.013   3.787  0.5965 -0.2717 -0.4940
 7671SOL    HW223913   1.719   0.129   3.718 -1.9905 -0.2757 -2.1314
 7672SOL     OW23914   2.303   4.707   2.476  0.4693  0.5735  0.3763
 7672SOL    HW123915   2.247   4.685   2.395  1.2507 -1.7485  0.4012
 7672SOL    HW223916   2.271   4.653   2.553 -0.6660  3.2115  1.8962
 7673SOL     OW23917   4.629   5.526   5.461  0.4715 -0.1463  0.1885
 7673SOL    HW123918   4.650   5.527   5.559  1.9895 -0.0669 -0.1037
 7673SOL    HW223919   4.699   5.579   5.412 -1.6015  1.9119 -0.7285
 7674SOL     OW23920   2.280   1.922   5.769 -0.3273 -0.6875 -0.4156
 7674SOL    HW123921   2.313   1.832   5.797  1.2301 -0.1255 -0.3832
 7674SOL    HW223922   2.357   1.982   5.749 -1.3408  0.5567 -0.7523
 7675SOL     OW23923   2.072   5.291   6.615 -0.0322  0.2204  0.5732
 7675SOL    HW123924   2.008   5.343   6.672 -2.0116 -0.4855 -0.8926
 7675SOL    HW223925   2.089   5.202   6.658 -1.1018 -0.1082  0.3355
 7676SOL     OW23926   3.148   4.021   2.282  0.2925  0.2313  0.2601
 7676SOL    HW123927   3.134   4.003   2.185  1.2342 -1.7585  0.4377
 7676SOL    HW223928   3.060   4.027   2.329 -0.1414  0.0721 -0.5277
 7677SOL     OW23929   4.496   2.632   0.453  0.2112 -0.0727 -0.1330
 7677SOL    HW123930   4.593   2.649   0.468 -0.0949  1.4206  0.3296
 7677SOL    HW223931   4.477   2.631   0.355  1.1233 -3.2297 -0.3844
 7678SOL     OW23932   1.411   6.533   6.103  0.1217 -0.6169  0.1724
 7678SOL    HW123933   1.504   6.496   6.101  0.0716 -0.7212 -2.1014
 7678SOL    HW223934   1.406   6.603   6.174  2.2330  0.0981 -0.2950
 7679SOL     OW23935   1.986   0.207   4.317 -1.0970  0.1135  0.1733
 7679SOL    HW123936   1.967   0.152   4.398  1.6828 -1.3573 -0.0739
 7679SOL    HW223937   1.951   0.160   4.236 -0.4329 -0.3718  0.1594
 7680SOL     OW23938   0.141   5.477   6.798 -0.1080  0.2486  0.2735
 7680SOL    HW123939   0.098   5.479   6.888 -1.9180 -0.4385 -0.5370
 7680SOL    HW223940   0.231   5.520   6.803 -1.2721  2.7038  1.8182
 7681SOL     OW23941   1.532   3.551   5.685  0.2284 -0.1907 -0.4564
 7681SOL    HW123942   1.439   3.588   5.692  0.1429 -0.2630 -1.1698
 7681SOL    HW223943   1.533   3.457   5.719  0.5602  0.6077  1.8919
 7682SOL     OW23944   4.938   1.997   2.467  0.2996 -0.4485  0.1314
 7682SOL    HW123945   4.882   1.957   2.540  1.8455 -2.1303  0.4690
 7682SOL    HW223946   4.883   2.008   2.384 -1.0647 -0.0088  1.0522
 7683SOL     OW23947   5.670   0.900   4.024  0.5523 -0.1449  0.4576
 7683SOL    HW123948   5.639   0.906   4.119  1.1177 -0.1658  0.6463
 7683SOL    HW223949   5.612   0.835   3.974 -0.3118  0.5277  0.5489
 7684SOL     OW23950   4.439   5.211   2.498  1.0245  0.4519 -0.2913
 7684SOL    HW123951   4.425   5.254   2.409 -0.5242  2.0673  0.6761
 7684SOL    HW223952   4.365   5.146   2.515  0.8398  0.7789  0.1664
 7685SOL     OW23953   4.850   4.191   3.990  0.2151 -0.2011  0.0258
 7685SOL    HW123954   4.866   4.276   3.940 -0.3510 -1.6666 -2.8282
 7685SOL    HW223955   4.753   4.170   3.989  0.3808 -1.0206  0.4701
 7686SOL     OW23956   4.856   1.329   2.877 -0.2332  0.2445  0.7102
 7686SOL    HW123957   4.784   1.392   2.907 -0.1813  0.6365  0.0122
 7686SOL    HW223958   4.925   1.379   2.825 -0.5620 -0.5023 -0.4722
 7687SOL     OW23959   2.252   5.877   3.875 -0.1203 -0.6837  0.2111
 7687SOL    HW123960   2.174   5.817   3.893 -0.8683 -0.3605 -1.6466
 7687SOL    HW223961   2.330   5.823   3.844 -0.7768 -0.7665 -1.4113
 7688SOL     OW23962   6.694   4.120   1.499 -0.5042  0.1943 -0.0281
 7688SOL    HW123963   6.683   4.217   1.519  2.2460  0.3016  1.4579
 7688SOL    HW223964   6.605   4.080   1.476 -2.2606  2.3861  2.3814
 7689SOL     OW23965   5.980   3.461   0.851  0.3541 -0.0958 -0.4611
 7689SOL    HW123966   5.938   3.458   0.941  1.0683 -1.1024 -0.1409
 7689SOL    HW223967   6.036   3.544   0.842  0.7117 -0.2637  0.2191
 7690SOL     OW23968   6.876   0.730   6.080  0.2569  0.3303 -0.4966
 7690SOL    HW123969   6.797   0.680   6.043  0.6996 -0.9631  0.2563
 7690SOL    HW223970   6.852   0.826   6.089 -0.2001  0.5454 -3.1967
 7691SOL     OW23971   4.782   4.377   4.325  0.1213 -0.4626 -0.5908
 7691SOL    HW123972   4.828   4.465   4.320  0.3128 -0.4069  1.5132
 7691SOL    HW223973   4.685   4.390   4.347  0.4615 -0.7755  1.2793
 7692SOL     OW23974   1.380   0.938   5.263  0.5878 -0.0464  0.3333
 7692SOL    HW123975   1.338   0.889   5.340  1.3201  0.4146  1.0442
 7692SOL    HW223976   1.338   1.028   5.254 -0.4281 -0.5944 -0.6744
 7693SOL     OW23977   6.726   0.818   4.975 -0.1528 -0.0623  0.5144
 7693SOL    HW123978   6.691   0.792   5.065 -0.9106  0.2105  0.3060
 7693SOL    HW223979   6.700   0.913   4.956  2.2682  0.8197  1.1302
 7694SOL     OW23980   1.783   2.614   1.040  0.2848 -0.6471 -0.1040
 7694SOL    HW123981   1.848   2.582   1.109  1.2133  0.2337 -0.5475
 7694SOL    HW223982   1.784   2.714   1.037 -1.3924 -0.5878  0.1510
 7695SOL     OW23983   5.984   1.662   0.932 -0.3503 -0.4781  0.0481
 7695SOL    HW123984   5.930   1.580   0.919  0.8506 -1.3339  0.3167
 7695SOL    HW223985   5.952   1.712   1.013 -0.2473 -1.3630  0.6378
 7696SOL     OW23986   0.890   6.010   0.878 -0.7803  0.5668  0.2913
 7696SOL    HW123987   0.925   6.012   0.784 -1.9068 -0.4619 -0.1845
 7696SOL    HW223988   0.796   5.977   0.878 -0.0076 -1.9800  1.9837
 7697SOL     OW23989   0.013   4.299   0.991 -0.0587  0.3182  0.1324
 7697SOL    HW123990   0.009   4.394   1.023 -2.3290  0.8339 -1.4321
 7697SOL    HW223991   0.104   4.280   0.953  0.4254  1.8650  0.4601
 7698SOL     OW23992   6.830   6.202   6.739  0.2227  0.5756 -0.8045
 7698SOL    HW123993   6.802   6.294   6.768 -2.4551 -1.2119  3.1495
 7698SOL    HW223994   6.896   6.166   6.805  0.3074 -0.7905 -1.6124
 7699SOL     OW23995   3.851   4.137   4.879 -0.2825  0.1587  0.6818
 7699SOL    HW123996   3.900   4.200   4.940  1.1432  0.9443 -1.1571
 7699SOL    HW223997   3.753   4.151   4.888 -0.1696 -0.2875  3.2955
 7700SOL     OW23998   3.977   4.153   5.850 -0.1836 -0.1747 -0.0616
 7700SOL    HW123999   3.896   4.122   5.800  0.1551 -0.4806 -0.4314
 7700SOL    HW224000   3.969   4.250   5.870 -1.1608 -0.4302  0.8973
 7701SOL     OW24001   1.018   3.418   1.464 -0.1669 -0.2827  0.7027
 7701SOL    HW124002   1.088   3.487   1.480 -2.5252  1.6028  4.1807
 7701SOL    HW224003   0.938   3.461   1.422  0.1740 -2.1563 -2.1616
 7702SOL     OW24004   2.976   2.739   1.121 -0.2241  0.3959  0.0930
 7702SOL    HW124005   2.958   2.653   1.168  2.0940 -0.5380 -0.5760
 7702SOL    HW224006   3.018   2.720   1.032 -1.5994  2.1958 -1.0191
 7703SOL     OW24007   6.609   3.226   2.902  0.2447 -0.1510 -0.0538
 7703SOL    HW124008   6.554   3.152   2.941  1.1083  0.6757  2.9181
 7703SOL    HW224009   6.681   3.186   2.845 -1.6632 -1.3468 -1.7876
 7704SOL     OW24010   6.480   2.477   2.209 -0.1604 -0.1277  0.6978
 7704SOL    HW124011   6.501   2.465   2.112 -0.7304 -1.3017  0.6987
 7704SOL    HW224012   6.396   2.428   2.231  0.3275 -0.4546  1.9268
 7705SOL     OW24013   4.809   6.850   3.393  0.2583 -0.1772 -0.6494
 7705SOL    HW124014   4.847   6.840   3.485  1.2573  1.0419 -0.9006
 7705SOL    HW224015   4.761   6.938   3.386  0.1062 -0.3009 -1.2680
 7706SOL     OW24016   4.802   5.091   5.459  0.3816  0.0722  0.7824
 7706SOL    HW124017   4.836   5.182   5.435  1.3459 -0.2399  0.9274
 7706SOL    HW224018   4.711   5.100   5.500 -0.8559  0.6948 -1.9174
 7707SOL     OW24019   1.377   6.069   2.297 -0.3948 -0.7050 -0.1336
 7707SOL    HW124020   1.279   6.049   2.301 -0.5280 -0.2732 -1.0942
 7707SOL    HW224021   1.400   6.138   2.366 -0.9844  0.0239 -0.6444
 7708SOL     OW24022   4.528   2.851   6.236 -0.5790  0.1652 -0.1797
 7708SOL    HW124023   4.568   2.921   6.178 -0.8019  0.4962  0.0613
 7708SOL    HW224024   4.519   2.886   6.330  0.6273 -0.6753  0.2773
 7709SOL     OW24025   6.329   0.915   0.320 -0.2767  0.5310  0.1775
 7709SOL    HW124026   6.311   1.013   0.318 -0.0844  0.6736 -3.9169
 7709SOL    HW224027   6.421   0.897   0.285 -1.0480 -1.1375 -1.1439
 7710SOL     OW24028   0.451   4.311   1.861  0.1108  0.1492 -0.4586
 7710SOL    HW124029   0.528   4.262   1.903  0.7587  1.2512 -0.3222
 7710SOL    HW224030   0.382   4.330   1.931  0.1219 -0.0597 -0.3904
 7711SOL     OW24031   1.438   4.820   6.201 -0.9341 -0.4480  0.0574
 7711SOL    HW124032   1.344   4.797   6.176 -0.5195 -1.3852 -0.7016
 7711SOL    HW224033   1.501   4.785   6.131 -0.0428  0.4897  0.3643
 7712SOL     OW24034   0.119   5.368   2.012 -0.2346 -0.2967 -0.3417
 7712SOL    HW124035   0.175   5.358   2.095  2.0431  0.4731 -1.7091
 7712SOL    HW224036   0.111   5.465   1.989 -0.9819 -0.4991 -0.9456
 7713SOL     OW24037   1.963   0.384   6.484 -0.1469 -0.3457  0.9905
 7713SOL    HW124038   1.941   0.371   6.581  0.8190  1.5546  1.5133
 7713SOL    HW224039   2.062   0.380   6.472 -0.2324 -0.0727  0.1461
 7714SOL     OW24040   3.281   5.860   2.634 -0.1419 -0.1592  0.3762
 7714SOL    HW124041   3.276   5.941   2.576 -0.1471 -0.4658 -0.0609
 7714SOL    HW224042   3.374   5.825   2.635 -0.3618 -0.7952 -0.3526
 7715SOL     OW24043   6.908   0.142   0.970  0.4933 -0.1198  0.1607
 7715SOL    HW124044   6.811   0.121   0.957  0.3438  1.2422 -1.2289
 7715SOL    HW224045   6.964   0.079   0.917  0.3983 -1.0357  1.1248
 7716SOL     OW24046   6.874   6.321   1.196 -0.3936  0.4271  0.4990
 7716SOL    HW124047   6.953   6.273   1.235 -0.8082 -0.4743  0.2587
 7716SOL    HW224048   6.845   6.394   1.257  0.1394  0.2514  0.9669
 7717SOL     OW24049   2.950   5.483   1.827  0.1689  0.1752 -0.1594
 7717SOL    HW124050   2.946   5.395   1.874 -0.6791 -0.9336 -2.2312
 7717SOL    HW224051   3.014   5.477   1.750 -0.4985  1.1324 -0.8045
 7718SOL     OW24052   4.672   6.834   1.029 -0.2444  0.1952 -0.2398
 7718SOL    HW124053   4.660   6.879   0.940 -0.2820 -0.2586 -0.4661
 7718SOL    HW224054   4.712   6.744   1.016 -0.4718  0.0275  0.1882
 7719SOL     OW24055   6.256   0.105   6.361 -0.4320 -0.2990  0.4028
 7719SOL    HW124056   6.190   0.147   6.422 -0.9060 -0.6751  0.1568
 7719SOL    HW224057   6.224   0.113   6.266 -1.5509 -2.9295  0.4716
 7720SOL     OW24058   4.472   2.679   5.459  0.2022  0.1219  0.0002
 7720SOL    HW124059   4.435   2.672   5.552 -0.6396 -1.1015 -0.4021
 7720SOL    HW224060   4.416   2.743   5.406  0.1420  0.1273  0.0698
 7721SOL     OW24061   2.283   0.744   5.914  0.0015 -0.5377  0.2617
 7721SOL    HW124062   2.209   0.757   5.980  1.1125 -1.1428  1.6521
 7721SOL    HW224063   2.367   0.718   5.961  1.0279 -0.2640 -1.3239
 7722SOL     OW24064   4.781   1.918   6.081 -0.0564  0.1011  0.3519
 7722SOL    HW124065   4.787   1.959   5.990 -0.1695 -0.1091  0.2492
 7722SOL    HW224066   4.691   1.937   6.120  1.0071  2.8769  1.7127
 7723SOL     OW24067   1.651   3.773   1.442 -0.0901  0.3439 -0.1792
 7723SOL    HW124068   1.701   3.707   1.386 -0.3815  0.4703 -0.5923
 7723SOL    HW224069   1.626   3.852   1.386  1.1327  1.2848  0.5428
 7724SOL     OW24070   3.948   6.070   6.009 -0.0614  0.0890  0.3335
 7724SOL    HW124071   3.900   6.157   6.016 -0.2473 -0.0083  0.2595
 7724SOL    HW224072   4.020   6.066   6.078  1.7873  1.4453 -1.4069
 7725SOL     OW24073   6.588   1.046   2.249  0.4085  0.3277 -0.6396
 7725SOL    HW124074   6.587   0.947   2.241  0.9796  0.2199  0.4900
 7725SOL    HW224075   6.667   1.075   2.302 -1.0720  1.2092  1.2034
 7726SOL     OW24076   5.364   5.439   3.416 -0.4552  0.3224  0.2826
 7726SOL    HW124077   5.340   5.520   3.469 -1.0256  0.6809 -0.5087
 7726SOL    HW224078   5.313   5.439   3.330  0.0593 -0.5213 -0.0323
 7727SOL     OW24079   2.932   5.597   2.556 -0.4044  0.1019  0.4979
 7727SOL    HW124080   2.899   5.571   2.465 -0.4443 -2.6368  1.1992
 7727SOL    HW224081   2.855   5.623   2.614 -0.6427 -0.3913  0.4039
 7728SOL     OW24082   3.608   3.383   1.768 -0.4655  0.3580  0.9078
 7728SOL    HW124083   3.691   3.348   1.725 -0.0391  1.5794  0.7023
 7728SOL    HW224084   3.606   3.355   1.864 -1.2356 -2.0617  0.2530
 7729SOL     OW24085   2.877   1.710   2.398 -0.5948 -0.1126 -0.1365
 7729SOL    HW124086   2.945   1.777   2.370 -0.5293  0.0614  0.4147
 7729SOL    HW224087   2.785   1.745   2.378 -0.5657  0.1958  0.2430
 7730SOL     OW24088   5.089   5.423   0.754 -0.0864  0.0702  0.3958
 7730SOL    HW124089   5.066   5.348   0.692 -0.2231 -0.5958  1.2272
 7730SOL    HW224090   5.183   5.453   0.737 -0.6265  0.9925 -1.2016
 7731SOL     OW24091   3.248   2.145   3.861 -0.2598  0.6092 -0.4379
 7731SOL    HW124092   3.259   2.052   3.896 -1.5313  0.6980  0.2891
 7731SOL    HW224093   3.201   2.142   3.773 -1.4764  0.5840  0.1797
 7732SOL     OW24094   5.033   2.378   6.901  0.8975 -0.1129 -0.2764
 7732SOL    HW124095   5.027   2.281   6.925 -3.2841  0.1683  0.6195
 7732SOL    HW224096   5.029   2.387   6.801 -1.4719 -0.9388 -0.3422
 7733SOL     OW24097   6.306   6.764   0.440  0.0010  0.2904  0.2756
 7733SOL    HW124098   6.275   6.854   0.468  1.1079  0.5629  0.6760
 7733SOL    HW224099   6.303   6.758   0.340 -0.5950  0.5669  0.2707
 7734SOL     OW24100   0.439   4.868   2.252 -0.0754 -0.4919 -0.0308
 7734SOL    HW124101   0.389   4.869   2.165 -0.6285 -0.3811  0.2797
 7734SOL    HW224102   0.373   4.858   2.327  0.1824  1.6298  0.5204
 7735SOL     OW24103   4.793   3.715   1.659 -0.1486 -0.0759  0.3978
 7735SOL    HW124104   4.797   3.815   1.655  1.1443 -0.0763  1.2700
 7735SOL    HW224105   4.697   3.686   1.665 -0.4863  1.1879  1.7220
 7736SOL     OW24106   2.261   5.798   1.649 -0.4895 -1.2735 -0.9584
 7736SOL    HW124107   2.232   5.712   1.690 -1.0022 -0.6331  0.0431
 7736SOL    HW224108   2.338   5.836   1.701 -0.8247 -0.6974 -0.8825
 7737SOL     OW24109   0.653   6.024   1.865 -0.2443 -0.7094 -0.0002
 7737SOL    HW124110   0.566   6.062   1.834 -0.4021 -2.3668 -1.8004
 7737SOL    HW224111   0.636   5.947   1.925 -0.0009 -0.5374  0.2911
 7738SOL     OW24112   2.051   0.994   2.123 -0.0166 -0.5702  0.2629
 7738SOL    HW124113   1.989   0.947   2.060  0.3964 -0.0869 -0.5179
 7738SOL    HW224114   2.019   1.088   2.137 -0.1769 -0.7139  0.8796
 7739SOL     OW24115   5.169   4.531   6.977  0.2488  0.0023 -0.1284
 7739SOL    HW124116   5.190   4.569   6.887 -1.0959 -0.4464 -0.6636
 7739SOL    HW224117   5.071   4.515   6.984  0.5724 -2.0439  0.5731
 7740SOL     OW24118   2.011   1.419   1.309 -0.3964 -0.7291 -0.3922
 7740SOL    HW124119   1.990   1.391   1.403  0.6213  0.5371  0.2418
 7740SOL    HW224120   2.109   1.411   1.293 -0.4802 -0.3371 -1.1519
 7741SOL     OW24121   3.920   3.148   4.758 -0.9942  0.0479  0.2076
 7741SOL    HW124122   3.920   3.226   4.821 -0.4394 -0.4318  0.8207
 7741SOL    HW224123   3.848   3.083   4.785 -1.0826  0.0780  0.0438
 7742SOL     OW24124   3.011   4.278   5.708 -0.3685  0.3496 -0.0500
 7742SOL    HW124125   2.999   4.372   5.675 -0.1227  0.8723  1.2552
 7742SOL    HW224126   2.936   4.221   5.674  0.2552  0.6445 -2.0662
 7743SOL     OW24127   0.623   6.370   0.808 -0.1737  0.1103 -0.5083
 7743SOL    HW124128   0.590   6.452   0.761 -1.2679 -0.3877 -0.6483
 7743SOL    HW224129   0.710   6.341   0.768  0.9103  1.9321  0.4099
 7744SOL     OW24130   3.759   6.297   6.044  0.5398  0.0133  0.2066
 7744SOL    HW124131   3.676   6.306   6.100  1.1544 -0.6312  1.2549
 7744SOL    HW224132   3.739   6.241   5.964  0.0039 -0.3095  0.5587
 7745SOL     OW24133   3.389   1.019   3.818 -0.1293  0.1540  0.1246
 7745SOL    HW124134   3.413   1.079   3.741  0.1242 -0.2592 -0.1216
 7745SOL    HW224135   3.370   1.075   3.899  0.9866  0.5352  0.1429
 7746SOL     OW24136   5.333   4.995   3.324 -0.0250 -0.2542 -0.6320
 7746SOL    HW124137   5.269   4.921   3.309  0.8404 -1.6447  1.9619
 7746SOL    HW224138   5.284   5.076   3.356 -0.5439 -1.6962  2.6392
 7747SOL     OW24139   4.020   3.209   4.261  0.0414  0.1520  0.4995
 7747SOL    HW124140   4.118   3.200   4.244  0.6018  3.2842  1.3663
 7747SOL    HW224141   3.996   3.155   4.342  1.4908  0.7151  1.3623
 7748SOL     OW24142   1.321   6.263   5.003 -0.2888 -0.2199 -0.3343
 7748SOL    HW124143   1.366   6.174   5.006  0.7441  0.2957  2.8653
 7748SOL    HW224144   1.387   6.334   4.979 -0.3095  0.0692  0.4396
 7749SOL     OW24145   0.216   2.512   1.344  0.9948  0.0342 -0.0964
 7749SOL    HW124146   0.255   2.593   1.388 -2.1615  1.5423  0.1992
 7749SOL    HW224147   0.192   2.533   1.250 -2.2004  0.4180  0.6917
 7750SOL     OW24148   0.968   6.545   1.363  1.0465  0.5531 -0.1975
 7750SOL    HW124149   0.896   6.570   1.299  1.3974 -1.3312 -1.3922
 7750SOL    HW224150   0.937   6.564   1.456 -1.2828 -0.7440 -0.6155
 7751SOL     OW24151   5.913   6.195   0.348 -0.4869  0.3284 -0.6784
 7751SOL    HW124152   5.998   6.185   0.297 -0.0372 -0.3812  0.1759
 7751SOL    HW224153   5.875   6.286   0.333 -0.3745  0.1370 -2.2464
 7752SOL     OW24154   6.003   3.932   4.090  0.4098  0.2356 -0.0773
 7752SOL    HW124155   5.957   4.021   4.092 -0.4180 -0.0919 -1.9971
 7752SOL    HW224156   6.078   3.934   4.024 -0.1572 -0.7051 -0.7807
 7753SOL     OW24157   2.390   4.881   0.837  0.2369  0.6412  0.2601
 7753SOL    HW124158   2.448   4.885   0.918  0.1991  2.0889  0.2354
 7753SOL    HW224159   2.328   4.960   0.835 -0.1217  0.3606 -0.9116
 7754SOL     OW24160   6.941   5.492   4.229 -0.3874 -0.5260  0.6762
 7754SOL    HW124161   6.858   5.517   4.279 -0.8604  0.7668 -0.6810
 7754SOL    HW224162   7.011   5.562   4.243 -0.5930 -0.0534 -0.6044
 7755SOL     OW24163   0.589   6.805   3.621  0.2113 -0.1046  0.6060
 7755SOL    HW124164   0.587   6.734   3.690  2.7547  0.9742  1.9309
 7755SOL    HW224165   0.674   6.856   3.628 -1.3060  2.8543 -0.5059
 7756SOL     OW24166   5.320   1.287   4.532 -0.1216 -0.3741  0.5443
 7756SOL    HW124167   5.412   1.295   4.570  0.3587 -1.2275 -0.3759
 7756SOL    HW224168   5.269   1.218   4.583 -1.3516  2.1406  3.0079
 7757SOL     OW24169   1.816   0.556   4.763  0.3321 -0.5307  0.2452
 7757SOL    HW124170   1.821   0.600   4.853 -0.7569  2.6295 -1.1037
 7757SOL    HW224171   1.882   0.597   4.701 -2.3204  1.1389 -1.7370
 7758SOL     OW24172   6.267   0.670   0.463  0.1657  0.4348 -0.2820
 7758SOL    HW124173   6.280   0.592   0.403  1.7829  0.2141  0.2922
 7758SOL    HW224174   6.294   0.754   0.416 -0.5965  0.5337 -0.5560
 7759SOL     OW24175   2.013   1.613   3.461 -0.4027 -0.2035  0.0920
 7759SOL    HW124176   2.092   1.674   3.454 -0.1117 -0.5563  0.2929
 7759SOL    HW224177   2.013   1.551   3.382  0.7037 -1.5969  1.1361
 7760SOL     OW24178   4.257   2.249   4.712 -0.0627  0.2925 -0.1555
 7760SOL    HW124179   4.227   2.172   4.769  1.6737 -1.5783 -1.5784
 7760SOL    HW224180   4.249   2.334   4.764 -1.9494 -0.8197  1.5475
 7761SOL     OW24181   0.524   1.388   4.195 -0.0217 -0.1653  0.1367
 7761SOL    HW124182   0.608   1.369   4.146  0.3242 -0.9376  0.9900
 7761SOL    HW224183   0.445   1.365   4.137  0.3774 -1.3329  0.0359
 7762SOL     OW24184   6.625   5.602   6.447  0.6011 -0.6587  0.5880
 7762SOL    HW124185   6.700   5.659   6.413  0.1689  1.1005  2.4137
 7762SOL    HW224186   6.553   5.597   6.378  0.4813  1.3739  0.5103
 7763SOL     OW24187   5.416   1.420   2.178 -0.0645  0.0815 -0.2041
 7763SOL    HW124188   5.508   1.441   2.210  0.1867  0.2771 -1.0093
 7763SOL    HW224189   5.386   1.492   2.115 -1.3978  0.8269  1.2448
 7764SOL     OW24190   5.336   2.344   4.623  0.4839  0.5048 -0.6325
 7764SOL    HW124191   5.347   2.367   4.526 -1.8521 -0.0912 -1.0892
 7764SOL    HW224192   5.300   2.423   4.672 -0.6746  0.0829 -0.7713
 7765SOL     OW24193   4.260   0.637   3.212  0.2160  0.0720  0.7854
 7765SOL    HW124194   4.272   0.623   3.114 -0.7163  1.3058  0.4668
 7765SOL    HW224195   4.336   0.692   3.247 -0.8393  2.0642  0.1410
 7766SOL     OW24196   4.054   3.454   0.230 -0.2668  0.5489  0.4093
 7766SOL    HW124197   4.019   3.369   0.191 -0.0942  0.9216 -0.6172
 7766SOL    HW224198   4.138   3.435   0.281 -1.6326 -0.2701  2.4537
 7767SOL     OW24199   6.083   5.329   1.097 -0.3198 -0.3542  0.0179
 7767SOL    HW124200   5.999   5.380   1.082  0.0306  0.3021  0.2501
 7767SOL    HW224201   6.065   5.253   1.161 -0.3823  0.7962  1.4083
 7768SOL     OW24202   0.911   3.674   1.065 -0.0536  0.3616  0.7280
 7768SOL    HW124203   0.897   3.601   1.133 -1.6963 -1.0193 -0.9829
 7768SOL    HW224204   0.997   3.721   1.085  0.6268 -1.4356  2.4565
 7769SOL     OW24205   2.327   5.858   4.357 -0.0171 -0.5942 -0.2462
 7769SOL    HW124206   2.245   5.875   4.412  0.3713 -1.4258  0.6177
 7769SOL    HW224207   2.330   5.923   4.281 -1.3643 -0.4148 -0.1725
 7770SOL     OW24208   1.651   5.821   2.540  0.3307 -0.4112 -0.0262
 7770SOL    HW124209   1.699   5.905   2.517  1.5404 -0.9751  0.3109
 7770SOL    HW224210   1.709   5.742   2.517 -0.5437 -1.1305  0.1761
 7771SOL     OW24211   1.251   4.810   3.537 -0.1026  0.3310 -0.0300
 7771SOL    HW124212   1.182   4.851   3.476  0.5435  1.6530  0.0812
 7771SOL    HW224213   1.206   4.754   3.606 -1.0898  1.3766  0.1978
 7772SOL     OW24214   1.565   4.121   4.959  0.2943 -0.4851 -0.2127
 7772SOL    HW124215   1.499   4.080   5.023  1.0697 -1.7832 -0.2152
 7772SOL    HW224216   1.588   4.054   4.888 -2.0153  1.5068 -3.0785
 7773SOL     OW24217   6.457   0.131   0.248  0.3976 -0.2080  0.1752
 7773SOL    HW124218   6.493   0.048   0.206 -0.9743 -0.8235  0.1675
 7773SOL    HW224219   6.432   0.196   0.176 -1.9639 -1.2669 -0.0711
 7774SOL     OW24220   2.345   5.036   1.189 -0.1680 -1.0761  0.0743
 7774SOL    HW124221   2.256   5.020   1.232 -0.2955  0.9312  0.6259
 7774SOL    HW224222   2.406   4.959   1.211 -1.5975 -2.2764  0.0461
 7775SOL     OW24223   6.876   2.594   5.525 -0.4005  0.0022 -0.2461
 7775SOL    HW124224   6.935   2.516   5.549 -0.0705  0.0217 -0.9594
 7775SOL    HW224225   6.920   2.678   5.555  0.1080  0.0420 -1.0720
 7776SOL     OW24226   3.144   1.261   2.317 -0.5936  0.2183 -0.2237
 7776SOL    HW124227   3.099   1.350   2.319  2.2358  1.8392 -1.9362
 7776SOL    HW224228   3.241   1.272   2.341 -0.1572 -2.3970 -0.4976
 7777SOL     OW24229   5.573   5.889   1.090  0.0903  0.0159  0.0018
 7777SOL    HW124230   5.645   5.843   1.038  1.5680  1.1779  0.9557
 7777SOL    HW224231   5.486   5.841   1.075  0.2332  0.6624 -4.0361
 7778SOL     OW24232   5.521   0.742   2.801  0.3841  0.1382 -0.3208
 7778SOL    HW124233   5.573   0.732   2.885  1.1624  0.3097 -0.7701
 7778SOL    HW224234   5.572   0.800   2.737 -0.0408 -0.2580 -1.0311
 7779SOL     OW24235   6.048   6.079   2.801 -0.3020  0.1847 -0.1128
 7779SOL    HW124236   6.089   6.088   2.892  0.7804 -0.3258 -0.5284
 7779SOL    HW224237   5.993   5.996   2.797 -1.0048  0.6162  0.2987
 7780SOL     OW24238   2.697   0.432   1.562  0.7799  0.1177  0.0358
 7780SOL    HW124239   2.681   0.527   1.534  0.4748 -0.8154 -3.3651
 7780SOL    HW224240   2.631   0.407   1.633 -1.3230  1.5599 -1.2818
 7781SOL     OW24241   5.257   2.622   3.513 -0.0762  0.1012  0.4290
 7781SOL    HW124242   5.176   2.681   3.513 -0.3654 -0.2782 -0.3960
 7781SOL    HW224243   5.231   2.531   3.547 -0.0964 -0.1384 -0.2153
 7782SOL     OW24244   4.469   1.003   3.461 -0.0063 -0.0448  0.4377
 7782SOL    HW124245   4.483   0.999   3.560  0.1394 -0.5500  0.3982
 7782SOL    HW224246   4.388   1.058   3.441 -1.0790 -1.3811  0.9444
 7783SOL     OW24247   3.226   3.001   4.370  0.0478 -0.8101  0.1777
 7783SOL    HW124248   3.266   3.039   4.287  0.1255  0.3113  0.7062
 7783SOL    HW224249   3.295   2.950   4.420  0.0918 -1.1937 -0.2723
 7784SOL     OW24250   0.516   4.729   4.598 -0.0404  0.0564  0.2974
 7784SOL    HW124251   0.516   4.823   4.563 -1.4531 -0.3918 -1.0153
 7784SOL    HW224252   0.593   4.679   4.559  2.0689  1.1829  2.7027
 7785SOL     OW24253   3.335   2.129   6.455 -0.6829 -0.1405 -0.1144
 7785SOL    HW124254   3.239   2.103   6.463  0.1917 -3.6455  0.7757
 7785SOL    HW224255   3.380   2.070   6.387  1.7038 -1.7830  2.6602
 7786SOL     OW24256   3.737   2.016   6.373  0.1269 -0.2442  0.1214
 7786SOL    HW124257   3.724   2.115   6.374  0.0396 -0.2591  1.4143
 7786SOL    HW224258   3.773   1.988   6.283 -0.9915  0.7930 -0.6783
 7787SOL     OW24259   1.692   3.046   4.197  0.8634 -0.0168  0.3436
 7787SOL    HW124260   1.631   3.099   4.137 -0.1396 -0.4340  0.9817
 7787SOL    HW224261   1.638   2.999   4.266  1.7876 -1.5295  0.0717
 7788SOL     OW24262   2.354   6.379   5.333 -0.0330  0.0418  0.0595
 7788SOL    HW124263   2.326   6.283   5.340  0.5607 -0.1138  0.3381
 7788SOL    HW224264   2.405   6.393   5.248 -2.5396  0.7461 -1.4562
 7789SOL     OW24265   5.271   1.188   4.221  0.7001  0.2795  0.1496
 7789SOL    HW124266   5.329   1.251   4.170 -2.5009  3.2524 -0.2245
 7789SOL    HW224267   5.280   1.206   4.319  1.3816 -0.1960  0.1740
 7790SOL     OW24268   6.293   0.409   4.513  0.7758 -0.0734 -0.3736
 7790SOL    HW124269   6.268   0.402   4.417  1.5159 -0.8702 -0.5145
 7790SOL    HW224270   6.265   0.498   4.548 -1.0155 -0.3754 -0.8830
 7791SOL     OW24271   5.127   4.411   1.528  0.6341 -0.3863 -0.2071
 7791SOL    HW124272   5.087   4.487   1.580 -2.1233  0.3384 -3.0771
 7791SOL    HW224273   5.055   4.347   1.501  2.0690 -1.3167 -2.1174
 7792SOL     OW24274   3.657   5.624   4.009 -0.1655 -0.1521  0.4403
 7792SOL    HW124275   3.704   5.702   4.049  1.6333 -0.9857  0.0326
 7792SOL    HW224276   3.722   5.565   3.961 -1.3189 -2.3084  1.3491
 7793SOL     OW24277   4.968   2.494   2.005 -0.2771 -0.1933 -0.1943
 7793SOL    HW124278   4.949   2.589   2.029 -1.4534 -0.4075 -0.2002
 7793SOL    HW224279   4.927   2.473   1.916 -0.0250 -0.7015 -0.1937
 7794SOL     OW24280   4.457   1.153   0.325  0.2297 -0.2930  0.1941
 7794SOL    HW124281   4.482   1.133   0.231 -0.3348  3.5061 -0.9479
 7794SOL    HW224282   4.539   1.160   0.382  0.6873 -1.1245 -0.3564
 7795SOL     OW24283   5.433   3.336   2.943  0.4013  0.0326  0.6648
 7795SOL    HW124284   5.490   3.304   2.867  0.5557  2.2074 -0.2142
 7795SOL    HW224285   5.466   3.295   3.028  1.6345 -0.7766 -0.1646
 7796SOL     OW24286   3.326   2.608   1.468  0.2562  0.1914  0.0333
 7796SOL    HW124287   3.283   2.691   1.432  0.1484 -0.5197 -1.5674
 7796SOL    HW224288   3.271   2.570   1.542 -0.1857  1.0298  0.1413
 7797SOL     OW24289   4.755   4.668   4.981 -0.2676 -0.4519 -0.0425
 7797SOL    HW124290   4.836   4.651   5.037 -1.2322 -0.5360  1.3912
 7797SOL    HW224291   4.719   4.582   4.946 -1.2447 -0.7367  1.5607
 7798SOL     OW24292   1.775   1.944   4.238 -0.3161 -0.1715  0.4724
 7798SOL    HW124293   1.841   1.898   4.298  1.2689  0.5833 -0.6050
 7798SOL    HW224294   1.789   2.043   4.243 -1.6688  0.0347  0.5207
 7799SOL     OW24295   0.888   2.565   5.595 -0.2286 -0.2998  0.0716
 7799SOL    HW124296   0.789   2.576   5.586 -0.2661  0.0047  0.7934
 7799SOL    HW224297   0.930   2.652   5.621  0.4456 -0.0148 -1.7983
 7800SOL     OW24298   4.513   3.339   1.084 -0.3573  0.0824 -0.1191
 7800SOL    HW124299   4.584   3.274   1.110 -0.3732 -0.1285 -0.5837
 7800SOL    HW224300   4.522   3.361   0.987 -2.5032 -2.0188 -0.8964
 7801SOL     OW24301   1.301   5.372   4.548  0.1537  0.3567  0.1948
 7801SOL    HW124302   1.352   5.426   4.615 -1.6755  1.6004  0.6678
 7801SOL    HW224303   1.235   5.314   4.595 -2.4961  2.6401 -0.4675
 7802SOL     OW24304   2.327   3.205   5.349 -0.4689  0.2763  0.2590
 7802SOL    HW124305   2.404   3.163   5.301  0.1679  0.8828  0.7188
 7802SOL    HW224306   2.362   3.258   5.426 -1.4279 -0.3209  1.1342
 7803SOL     OW24307   6.596   6.083   6.197 -0.2494 -0.3291 -0.2563
 7803SOL    HW124308   6.620   6.020   6.123 -0.3288 -1.5490  0.7060
 7803SOL    HW224309   6.499   6.074   6.218 -0.6172  1.2930 -1.1460
 7804SOL     OW24310   0.048   4.040   5.689  0.7590 -0.0819 -0.4179
 7804SOL    HW124311   0.021   4.100   5.614 -1.9539 -2.5186 -1.5763
 7804SOL    HW224312  -0.001   4.065   5.772  0.4690 -0.0106 -0.6101
 7805SOL     OW24313   0.552   1.046   0.394 -0.1462 -0.1459  0.6096
 7805SOL    HW124314   0.522   1.012   0.483 -0.7352  0.3274  0.5960
 7805SOL    HW224315   0.485   1.111   0.358  0.2557 -0.0674 -0.0235
 7806SOL     OW24316   4.019   6.801   0.017  0.5122  0.3447  0.1647
 7806SOL    HW124317   3.968   6.715   0.016  0.8078  0.1739 -0.2778
 7806SOL    HW224318   3.982   6.860   0.089 -1.2557  0.7858 -1.0330
 7807SOL     OW24319   4.025   6.130   4.614 -0.8717 -0.3944  0.1380
 7807SOL    HW124320   3.928   6.146   4.633 -0.5662  1.2913  0.3869
 7807SOL    HW224321   4.055   6.191   4.541  0.3216  0.0600  0.9784
 7808SOL     OW24322   2.997   4.507   6.702 -0.6931  0.3531 -0.0671
 7808SOL    HW124323   3.063   4.435   6.682 -0.9128  0.7223 -2.4046
 7808SOL    HW224324   2.907   4.466   6.718 -0.0864 -0.1184  2.7287
 7809SOL     OW24325   6.369   0.390   0.558  0.2972  0.5378  0.4631
 7809SOL    HW124326   6.347   0.335   0.639 -0.7714  0.2133 -0.0333
 7809SOL    HW224327   6.430   0.465   0.584  0.3612  0.1446  1.4770
 7810SOL     OW24328   2.387   5.426   1.838  0.5696  0.2809  0.4512
 7810SOL    HW124329   2.304   5.474   1.811  0.5898 -0.6015 -1.2895
 7810SOL    HW224330   2.370   5.327   1.839  1.0560  0.1869  2.0750
 7811SOL     OW24331   1.045   0.212   2.075 -0.5487  0.0280  0.3087
 7811SOL    HW124332   1.104   0.282   2.037 -1.0005 -0.4604 -1.3929
 7811SOL    HW224333   0.958   0.253   2.103 -0.2152  0.3923  0.8292
 7812SOL     OW24334   5.133   4.185   5.134  0.3186  0.2845 -0.1288
 7812SOL    HW124335   5.065   4.255   5.116 -1.1264 -0.6353  1.3865
 7812SOL    HW224336   5.119   4.107   5.073  1.1090  0.7699 -0.9481
 7813SOL     OW24337   4.124   5.867   4.573  0.3800  0.1151 -0.1299
 7813SOL    HW124338   4.057   5.818   4.516  0.2330  0.9271 -0.6656
 7813SOL    HW224339   4.081   5.946   4.615  0.1988 -1.0461  2.0022
 7814SOL     OW24340   6.809   0.857   5.382  0.0384  0.3864 -0.1770
 7814SOL    HW124341   6.894   0.880   5.335  0.6236  0.4862  0.9073
 7814SOL    HW224342   6.760   0.787   5.330  1.9643 -1.4704  0.3916
 7815SOL     OW24343   5.750   4.989   2.091 -0.4830 -0.3163 -0.1847
 7815SOL    HW124344   5.740   4.916   2.159 -0.5249 -1.5595 -1.4802
 7815SOL    HW224345   5.775   4.949   2.003 -0.6531  1.2385 -0.9718
 7816SOL     OW24346   0.501   3.458   1.269  0.2795 -0.0552  1.0626
 7816SOL    HW124347   0.474   3.426   1.359 -0.0357  0.7333  1.2534
 7816SOL    HW224348   0.489   3.557   1.263  1.4757  0.0816  0.5717
 7817SOL     OW24349   5.051   2.842   2.639 -0.1100  0.6481 -0.2380
 7817SOL    HW124350   4.968   2.898   2.631 -0.4621  0.0014 -1.3372
 7817SOL    HW224351   5.052   2.775   2.566  0.4947 -0.5503  0.8395
 7818SOL     OW24352   3.069   5.587   5.709  0.2185  0.1625 -0.3897
 7818SOL    HW124353   3.144   5.609   5.647  1.5670 -0.1186  1.0654
 7818SOL    HW224354   3.106   5.551   5.794 -1.5984 -0.0950  0.3429
 7819SOL     OW24355   3.208   5.768   3.228  0.9047  0.3883  0.0279
 7819SOL    HW124356   3.255   5.817   3.301 -0.8456  0.2438  1.3309
 7819SOL    HW224357   3.219   5.817   3.141  2.7857  0.7166  0.4166
 7820SOL     OW24358   6.080   5.526   7.019  0.3345 -0.1877  0.8391
 7820SOL    HW124359   6.029   5.441   7.037 -1.4702  0.9644  1.4288
 7820SOL    HW224360   6.032   5.579   6.949  0.6008  1.0342  1.5577
 7821SOL     OW24361   5.778   0.045   5.189 -0.7527 -0.1991 -0.1097
 7821SOL    HW124362   5.780  -0.040   5.242  0.6641  0.1096  0.3821
 7821SOL    HW224363   5.861   0.052   5.134 -1.7666 -0.0423 -1.6561
 7822SOL     OW24364   5.177   3.406   5.965 -0.2288 -0.5599 -0.0625
 7822SOL    HW124365   5.221   3.327   6.007  0.5234 -0.1105  0.0262
 7822SOL    HW224366   5.181   3.397   5.865 -2.2374 -1.7456 -0.0783
 7823SOL     OW24367   4.250   1.056   2.398 -0.3725  0.2302 -0.1927
 7823SOL    HW124368   4.205   1.056   2.488 -0.0190  2.2778  0.0407
 7823SOL    HW224369   4.264   1.150   2.369  1.7493 -0.3742 -1.2937
 7824SOL     OW24370   0.985   1.176   0.676  0.2698 -0.4170  0.3710
 7824SOL    HW124371   0.953   1.108   0.610  0.0277 -2.3408  2.3497
 7824SOL    HW224372   1.081   1.157   0.699 -0.3496 -1.4337  2.3999
 7825SOL     OW24373   6.947   1.740   0.791 -0.6616 -0.1680  0.2869
 7825SOL    HW124374   6.893   1.724   0.873  0.4619  2.1470  1.6041
 7825SOL    HW224375   6.909   1.817   0.740  1.8019  2.3170  1.8663
 7826SOL     OW24376   4.923   3.647   1.103 -0.0611  0.7714  0.7257
 7826SOL    HW124377   4.930   3.710   1.026 -0.0636  1.4240  1.2464
 7826SOL    HW224378   5.001   3.662   1.165  0.5302 -0.4779  0.3220
 7827SOL     OW24379   1.611   4.811   5.047 -0.0844 -0.0334 -0.2083
 7827SOL    HW124380   1.657   4.725   5.028  2.1334  1.4529 -1.9971
 7827SOL    HW224381   1.512   4.795   5.056  0.3080 -2.7638 -0.1164
 7828SOL     OW24382   7.006   6.378   6.322 -0.2148  0.1530  0.6567
 7828SOL    HW124383   6.982   6.307   6.388 -0.8216  1.2875  1.7069
 7828SOL    HW224384   7.089   6.424   6.351 -0.0792  0.1794  0.2319
 7829SOL     OW24385   1.585   5.157   6.886  0.1631 -0.3390  0.0035
 7829SOL    HW124386   1.503   5.135   6.938  0.8020 -0.0128  1.1708
 7829SOL    HW224387   1.585   5.105   6.801 -0.4790 -1.5337  0.7138
 7830SOL     OW24388   0.371   5.650   1.618  0.4724 -0.2682  0.1899
 7830SOL    HW124389   0.377   5.595   1.702  0.9497  1.3187  1.2521
 7830SOL    HW224390   0.451   5.631   1.561  0.7060 -0.5550  0.6043
 7831SOL     OW24391   2.429   4.406   2.164 -0.1359 -0.6440  0.1317
 7831SOL    HW124392   2.449   4.363   2.252  4.0699 -2.2382 -1.3518
 7831SOL    HW224393   2.376   4.342   2.107  1.7245 -1.9063 -0.2664
 7832SOL     OW24394   5.532   6.295   6.252 -0.3902 -0.0230 -0.0328
 7832SOL    HW124395   5.473   6.215   6.246 -0.0598 -0.3007  0.3658
 7832SOL    HW224396   5.616   6.279   6.201 -1.0750  0.7632 -1.4653
 7833SOL     OW24397   0.455   1.363   0.042  0.0133 -0.5526 -0.3560
 7833SOL    HW124398   0.544   1.405   0.059  0.5937 -2.3080  1.4527
 7833SOL    HW224399   0.395   1.381   0.120 -0.9509 -0.1036 -1.1789
 7834SOL     OW24400   1.012   0.881   0.939  0.2220 -0.0587 -0.5990
 7834SOL    HW124401   1.094   0.831   0.912 -0.3951 -1.2461 -0.3855
 7834SOL    HW224402   0.934   0.848   0.885  0.0636  1.8754 -1.6393
 7835SOL     OW24403   5.292   2.833   7.003 -0.1245 -0.2253 -0.1562
 7835SOL    HW124404   5.225   2.869   7.068 -0.2794 -1.4166  0.3766
 7835SOL    HW224405   5.243   2.799   6.922  0.0497  1.0430 -0.8218
 7836SOL     OW24406   4.361   5.941   6.142  0.0680 -0.3181  0.6200
 7836SOL    HW124407   4.321   5.967   6.054  0.1860 -0.3970  0.5432
 7836SOL    HW224408   4.319   5.856   6.174 -0.2201 -0.1081  0.8049
 7837SOL     OW24409   5.447   2.971   2.850  0.0561 -0.3493 -0.0661
 7837SOL    HW124410   5.503   3.044   2.810 -1.1757  0.3019 -0.6589
 7837SOL    HW224411   5.481   2.950   2.942  2.1255 -0.9543 -0.9111
 7838SOL     OW24412   4.990   3.583   1.501 -0.2670 -0.0476 -0.0742
 7838SOL    HW124413   4.948   3.493   1.488 -0.4308 -0.0310  0.3142
 7838SOL    HW224414   4.924   3.644   1.545  0.9338 -0.7728  3.0361
 7839SOL     OW24415   4.362   3.825   1.170  0.5154 -0.0121 -0.4497
 7839SOL    HW124416   4.297   3.750   1.153  0.8921 -0.5263  0.3176
 7839SOL    HW224417   4.449   3.804   1.124  0.0854  0.8023 -1.7024
 7840SOL     OW24418   6.874   6.373   2.974 -0.0237  0.0128 -0.2127
 7840SOL    HW124419   6.839   6.440   2.909 -0.7885  0.7233  0.9007
 7840SOL    HW224420   6.973   6.363   2.961 -0.0966  0.4668 -1.1802
 7841SOL     OW24421   3.563   3.743   6.401  0.2067 -0.7334  0.4632
 7841SOL    HW124422   3.521   3.756   6.312 -0.9437  0.9008  1.1956
 7841SOL    HW224423   3.630   3.668   6.396  0.9311 -0.0136 -1.9965
 7842SOL     OW24424   0.296   4.830   0.841 -0.3583  0.3353 -0.2302
 7842SOL    HW124425   0.309   4.761   0.770 -1.6844  0.4506 -0.6168
 7842SOL    HW224426   0.224   4.894   0.812 -0.5161  0.7220  0.9674
 7843SOL     OW24427   1.936   4.186   0.661  0.1074 -1.1199  0.9649
 7843SOL    HW124428   2.021   4.190   0.609 -0.5710 -0.4711 -0.1090
 7843SOL    HW224429   1.957   4.197   0.759  1.1256  0.5129  0.5943
 7844SOL     OW24430   4.523   0.409   5.238 -0.2072 -0.0640 -0.3115
 7844SOL    HW124431   4.571   0.325   5.214  1.0794  0.6466 -0.3388
 7844SOL    HW224432   4.521   0.421   5.337 -0.2470 -0.0468 -0.3142
 7845SOL     OW24433   0.684   2.461   2.319  0.1969  0.5288  0.0508
 7845SOL    HW124434   0.677   2.362   2.334  1.2508  0.6554  1.5629
 7845SOL    HW224435   0.593   2.501   2.314 -0.2466 -0.5429 -0.8535
 7846SOL     OW24436   1.679   3.763   3.660 -0.2626 -0.7918  0.0017
 7846SOL    HW124437   1.723   3.678   3.689  2.1178  0.7807  1.4416
 7846SOL    HW224438   1.739   3.840   3.683 -2.6324  1.3477 -0.5625
 7847SOL     OW24439   2.171   2.886   1.371  0.1230  0.0520 -0.0640
 7847SOL    HW124440   2.230   2.891   1.452 -1.3349 -0.7094  1.0846
 7847SOL    HW224441   2.228   2.879   1.289  1.6303 -0.6706  0.9966
 7848SOL     OW24442   1.682   6.602   0.681  0.1964 -0.2292  0.7009
 7848SOL    HW124443   1.586   6.575   0.688  0.3778 -0.7836  1.2157
 7848SOL    HW224444   1.688   6.694   0.643 -0.5637  0.0096  1.1240
 7849SOL     OW24445   0.219   2.151   4.845 -0.3255 -0.0456 -0.6697
 7849SOL    HW124446   0.318   2.140   4.855 -0.3445 -1.7724 -1.9745
 7849SOL    HW224447   0.185   2.087   4.776 -2.2568  1.0378 -0.7896
 7850SOL     OW24448   6.858   4.259   3.298 -0.3205 -0.4362  0.2484
 7850SOL    HW124449   6.787   4.319   3.337  0.7913  1.3007 -0.2958
 7850SOL    HW224450   6.891   4.198   3.369 -2.9680 -1.9592  0.3036
 7851SOL     OW24451   5.527   1.652   6.158  0.5551  0.0181  0.3661
 7851SOL    HW124452   5.574   1.596   6.090 -1.6030  0.6807 -1.8244
 7851SOL    HW224453   5.580   1.734   6.176  0.4215  0.6487 -1.8679
 7852SOL     OW24454   0.824   6.388   2.260  0.2158  0.6895  0.9193
 7852SOL    HW124455   0.812   6.461   2.328 -0.8939  0.6636  0.7649
 7852SOL    HW224456   0.785   6.417   2.173  0.6047  0.2648  0.6008
 7853SOL     OW24457   0.419   4.644   4.851 -0.2414 -1.1889  0.0342
 7853SOL    HW124458   0.479   4.603   4.782  1.4803  0.5452  0.4076
 7853SOL    HW224459   0.361   4.713   4.807  1.4617  0.5406  0.3400
 7854SOL     OW24460   3.803   5.803   2.164 -0.5364 -0.0042  0.2513
 7854SOL    HW124461   3.739   5.804   2.241 -2.0441 -0.0686 -0.9566
 7854SOL    HW224462   3.772   5.868   2.094  0.3656 -0.5184 -0.6518
 7855SOL     OW24463   1.041   2.028   1.400  0.5283  0.1995 -0.0957
 7855SOL    HW124464   1.061   1.941   1.444  1.6082 -0.0421 -1.0226
 7855SOL    HW224465   0.958   2.067   1.440  0.5965 -0.7510  1.0367
 7856SOL     OW24466   0.481   5.409   6.726 -0.2711  0.5834  0.3215
 7856SOL    HW124467   0.430   5.364   6.799 -1.1434  2.3849  0.8812
 7856SOL    HW224468   0.423   5.476   6.680  1.5217  2.7454  0.9987
 7857SOL     OW24469   4.882   1.115   3.684 -0.2720  0.2352  0.1642
 7857SOL    HW124470   4.826   1.063   3.619 -0.6711 -0.1270  0.7855
 7857SOL    HW224471   4.979   1.096   3.666 -0.2553  1.7848 -1.6822
 7858SOL     OW24472   5.166   2.364   2.461  0.0795  0.1493 -0.1787
 7858SOL    HW124473   5.118   2.414   2.389  0.5417  0.5934 -0.1756
 7858SOL    HW224474   5.251   2.326   2.425 -0.2502 -0.6196 -0.1742
 7859SOL     OW24475   0.623   3.645   3.210 -0.4849  0.1182  0.4970
 7859SOL    HW124476   0.669   3.595   3.137 -1.1829  0.7881 -0.4313
 7859SOL    HW224477   0.561   3.713   3.170 -0.8448  0.5386  1.7169
 7860SOL     OW24478   6.645   4.460   5.914  0.2524  0.4012 -1.0666
 7860SOL    HW124479   6.605   4.459   5.822 -0.6139 -0.9571 -0.7141
 7860SOL    HW224480   6.576   4.490   5.979  0.1135 -0.9583 -0.5725
 7861SOL     OW24481   1.107   6.457   2.505  0.2208  0.3743 -0.1053
 7861SOL    HW124482   1.126   6.549   2.471 -0.7917  0.9157  0.7413
 7861SOL    HW224483   1.121   6.391   2.431  1.7218  1.1097 -0.5057
 7862SOL     OW24484   1.243   5.434   3.816  0.2644 -0.9374  0.3414
 7862SOL    HW124485   1.319   5.484   3.858 -1.4658  0.2206  2.2966
 7862SOL    HW224486   1.258   5.426   3.718  2.9360 -0.8535  0.6672
 7863SOL     OW24487   1.049   2.066   6.886 -0.2559 -0.4432 -0.3230
 7863SOL    HW124488   1.050   1.975   6.929  0.5677  0.2932  1.3028
 7863SOL    HW224489   1.114   2.066   6.809  0.0715 -1.1039 -0.0579
 7864SOL     OW24490   3.189   4.998   2.065  0.1866 -0.3131 -0.2973
 7864SOL    HW124491   3.164   4.906   2.035  1.7709 -0.5646 -0.9290
 7864SOL    HW224492   3.188   5.001   2.165  0.2341 -1.0470 -0.2655
 7865SOL     OW24493   4.534   5.800   4.387  0.0070  0.3246 -0.3439
 7865SOL    HW124494   4.586   5.788   4.303  1.8091 -1.9092  0.9583
 7865SOL    HW224495   4.446   5.753   4.379 -0.9627  2.2633 -1.7909
 7866SOL     OW24496   2.781   6.957   4.814  0.4251 -0.2658 -0.3045
 7866SOL    HW124497   2.849   6.891   4.847  1.0276 -0.0347 -1.0549
 7866SOL    HW224498   2.697   6.947   4.867  1.3616  0.1255  1.3233
 7867SOL     OW24499   0.655   6.914   5.172 -0.3706  0.3526  0.3295
 7867SOL    HW124500   0.738   6.858   5.171 -1.0618 -0.6815 -0.7432
 7867SOL    HW224501   0.672   6.997   5.226  2.0939  1.2467 -1.6083
 7868SOL     OW24502   0.664   2.340   0.111  0.3643 -0.6847  0.1088
 7868SOL    HW124503   0.748   2.302   0.072  0.5214  0.1989 -0.4345
 7868SOL    HW224504   0.640   2.424   0.063  0.1949  0.0853  1.4989
 7869SOL     OW24505   1.385   1.886   5.017 -0.2578  0.4132  0.2600
 7869SOL    HW124506   1.397   1.795   5.058  0.2868  0.3770  0.0255
 7869SOL    HW224507   1.441   1.952   5.067 -1.8276  0.9286  1.4229
 7870SOL     OW24508   5.529   1.402   0.454  0.6344 -0.0112 -0.3539
 7870SOL    HW124509   5.571   1.446   0.534  1.7826 -0.3477 -0.7549
 7870SOL    HW224510   5.485   1.317   0.483  0.3590  0.2670  0.0522
 7871SOL     OW24511   3.758   6.367   6.399 -0.8516  0.4636  0.2842
 7871SOL    HW124512   3.832   6.302   6.418 -1.9071 -1.0300 -0.4956
 7871SOL    HW224513   3.696   6.372   6.477 -1.2760 -0.2095  0.0029
 7872SOL     OW24514   2.221   5.281   6.891 -0.0500  0.7630 -0.0071
 7872SOL    HW124515   2.130   5.279   6.933 -0.2336  0.1496 -0.4315
 7872SOL    HW224516   2.291   5.268   6.962 -0.3707 -0.7031  0.0707
 7873SOL     OW24517   4.053   3.612   4.199  0.1238 -0.0074 -0.1271
 7873SOL    HW124518   4.011   3.571   4.118  2.0248 -1.7425 -0.3136
 7873SOL    HW224519   4.084   3.540   4.261  1.2018  1.2182  0.8178
 7874SOL     OW24520   3.462   5.683   1.661  0.1611  0.3901 -0.5890
 7874SOL    HW124521   3.522   5.694   1.582 -0.3445  1.1801 -0.8772
 7874SOL    HW224522   3.367   5.682   1.630 -0.1029  1.8612  0.0931
 7875SOL     OW24523   2.668   6.912   3.259 -0.4752 -0.2485  0.1757
 7875SOL    HW124524   2.728   6.855   3.314 -1.8227 -1.6272  0.3004
 7875SOL    HW224525   2.652   6.868   3.170  0.4506  1.1969 -0.7453
 7876SOL     OW24526   6.961   1.891   4.121  0.1746 -0.4161  0.1530
 7876SOL    HW124527   6.864   1.892   4.144  0.3552  1.7149  1.0549
 7876SOL    HW224528   7.007   1.967   4.167  2.2258 -1.1875 -0.5067
 7877SOL     OW24529   5.673   4.530   5.881  0.6021 -0.3889  0.3366
 7877SOL    HW124530   5.656   4.434   5.904  0.5710 -0.3689  0.4000
 7877SOL    HW224531   5.586   4.580   5.883  0.6723 -0.2774  0.6998
 7878SOL     OW24532   0.441   2.602   2.338  0.2535  0.9170  0.0648
 7878SOL    HW124533   0.491   2.687   2.355 -1.1048  1.3701  2.1220
 7878SOL    HW224534   0.343   2.621   2.337 -0.0336 -0.4439 -0.7752
 7879SOL     OW24535   0.753   0.324   5.506 -0.0588  0.6271 -0.1758
 7879SOL    HW124536   0.852   0.338   5.499  0.0139  0.8705  1.1480
 7879SOL    HW224537   0.719   0.362   5.592 -1.1597 -0.2669 -0.1839
 7880SOL     OW24538   0.936   2.811   4.736 -0.0666 -0.2586  0.5087
 7880SOL    HW124539   0.856   2.843   4.686  0.8118  0.7511 -0.3135
 7880SOL    HW224540   0.910   2.739   4.800 -1.9736  1.3146  1.6340
 7881SOL     OW24541   1.634   4.228   4.456  0.0299  0.0306  0.5915
 7881SOL    HW124542   1.731   4.218   4.480  0.4080  0.1846 -0.7934
 7881SOL    HW224543   1.604   4.320   4.480  0.2681  0.0360  0.8861
 7882SOL     OW24544   6.608   3.028   3.610  0.0437  0.5625  0.0898
 7882SOL    HW124545   6.644   2.958   3.550  0.9374  1.6652 -0.6970
 7882SOL    HW224546   6.540   2.988   3.672  0.3216 -0.9082 -0.5354
 7883SOL     OW24547   3.274   3.093   1.152 -0.3810  0.3461 -0.0692
 7883SOL    HW124548   3.297   3.135   1.240 -1.4273 -0.9295  0.8623
 7883SOL    HW224549   3.353   3.040   1.119 -0.0247  0.7266  0.1613
 7884SOL     OW24550   3.725   6.632   2.877  0.1539  0.3895  0.0295
 7884SOL    HW124551   3.818   6.635   2.840  0.7284 -0.3362  1.3461
 7884SOL    HW224552   3.671   6.566   2.826  1.3072 -1.5581  1.2158
 7885SOL     OW24553   3.022   2.327   0.631 -0.3997  0.0104  0.1811
 7885SOL    HW124554   2.944   2.390   0.625 -0.8897 -0.4619  1.2996
 7885SOL    HW224555   3.076   2.350   0.712 -0.2080 -0.5992  0.2268
 7886SOL     OW24556   3.496   1.054   6.465 -0.5102 -0.3611  0.3453
 7886SOL    HW124557   3.524   1.150   6.477  0.1969  0.0237 -3.3596
 7886SOL    HW224558   3.420   1.049   6.401 -0.9376 -2.2864  0.9304
 7887SOL     OW24559   5.443   3.827   5.821  0.1664 -0.6325 -0.1279
 7887SOL    HW124560   5.449   3.838   5.722  0.1037 -1.1774 -0.1987
 7887SOL    HW224561   5.361   3.775   5.843 -0.1653  0.0495  0.2605
 7888SOL     OW24562   1.987   4.247   6.671 -0.2690 -0.3524 -0.0119
 7888SOL    HW124563   1.893   4.257   6.640 -0.5162  0.8431  1.0303
 7888SOL    HW224564   2.013   4.327   6.724  0.8072 -1.3999  1.1052
 7889SOL     OW24565   2.824   1.087   2.874  0.2054 -0.2897  0.1827
 7889SOL    HW124566   2.829   0.993   2.907 -0.2028 -0.8926 -1.3632
 7889SOL    HW224567   2.745   1.133   2.915 -0.1933 -0.9587  0.1853
 7890SOL     OW24568   1.698   5.844   4.441  0.4851 -0.1346 -0.1504
 7890SOL    HW124569   1.744   5.921   4.486 -0.2915  0.6041 -0.5970
 7890SOL    HW224570   1.752   5.814   4.363  0.4026  0.4888 -0.4515
 7891SOL     OW24571   2.593   1.174   1.522  0.2546  0.1509 -0.5135
 7891SOL    HW124572   2.634   1.169   1.613 -0.4256 -0.6004 -0.2405
 7891SOL    HW224573   2.655   1.131   1.456  0.4324  0.0775 -0.3020
 7892SOL     OW24574   1.008   4.781   5.697 -0.2687 -0.3328 -0.3100
 7892SOL    HW124575   1.080   4.805   5.762 -2.0231 -0.1134  1.6929
 7892SOL    HW224576   1.027   4.824   5.608  2.1564 -0.5318  0.0457
 7893SOL     OW24577   6.649   1.175   5.212 -0.5172 -0.1073  0.6516
 7893SOL    HW124578   6.721   1.181   5.281 -1.6267 -2.9173  2.2204
 7893SOL    HW224579   6.685   1.137   5.128  0.4072  1.4054  0.3208
 7894SOL     OW24580   5.710   0.189   4.950  0.1314  0.2481  0.2959
 7894SOL    HW124581   5.734   0.205   5.046 -0.9052  0.3880  0.5466
 7894SOL    HW224582   5.709   0.091   4.932  2.7458  0.2577 -0.2399
 7895SOL     OW24583   5.476   3.059   0.785  0.1615 -0.6489  0.0972
 7895SOL    HW124584   5.521   3.146   0.808  0.0261 -0.5563  0.0116
 7895SOL    HW224585   5.518   2.985   0.838  0.4394 -0.5673 -0.0053
 7896SOL     OW24586   5.361   5.776   5.747  0.0991  0.0223 -0.1492
 7896SOL    HW124587   5.392   5.839   5.818  0.4536 -0.2915 -0.0225
 7896SOL    HW224588   5.371   5.682   5.779  1.3188 -0.1672 -1.0259
 7897SOL     OW24589   4.814   1.037   0.823  0.2750  0.2614  0.6001
 7897SOL    HW124590   4.755   1.118   0.815 -0.6944 -0.3978  0.8837
 7897SOL    HW224591   4.898   1.052   0.772  0.0734  1.4189  0.5783
 7898SOL     OW24592   0.837   5.276   4.412  0.3310  0.4943 -0.0667
 7898SOL    HW124593   0.820   5.196   4.354  2.4449  1.0108 -1.5014
 7898SOL    HW224594   0.886   5.247   4.494  1.9417  0.3775 -1.0268
 7899SOL     OW24595   5.517   6.709   4.122  0.0931  0.8058  0.7008
 7899SOL    HW124596   5.591   6.660   4.167 -0.0422  1.2955  1.4750
 7899SOL    HW224597   5.429   6.665   4.142  0.1849  0.0326 -0.4828
 7900SOL     OW24598   3.413   0.213   0.380 -0.0802  0.0216 -0.2719
 7900SOL    HW124599   3.348   0.241   0.451  0.6378  0.3417  0.2750
 7900SOL    HW224600   3.449   0.293   0.334 -0.9240 -0.2108 -1.3659
 7901SOL     OW24601   5.471   4.764   6.222  0.7215  0.2091 -0.1410
 7901SOL    HW124602   5.492   4.810   6.136 -0.9540  0.4329 -0.4602
 7901SOL    HW224603   5.485   4.665   6.211  1.8494  0.3607 -0.2232
 7902SOL     OW24604   5.552   5.278   0.433 -0.1910  0.2741  0.7158
 7902SOL    HW124605   5.649   5.303   0.425  0.1631 -1.4364 -1.2276
 7902SOL    HW224606   5.536   5.192   0.384 -2.3351 -0.5061  2.6124
 7903SOL     OW24607   6.610   0.851   5.833 -0.5089 -0.7199 -0.7310
 7903SOL    HW124608   6.567   0.941   5.822  1.3512  0.1945 -0.7702
 7903SOL    HW224609   6.556   0.798   5.898 -0.8206  0.9860  0.4866
 7904SOL     OW24610   0.415   3.595   0.629  0.4512 -0.2453  0.3992
 7904SOL    HW124611   0.468   3.605   0.713 -0.2355 -0.9922  0.9355
 7904SOL    HW224612   0.352   3.517   0.638  0.7796 -0.7011 -1.0235
 7905SOL     OW24613   5.757   0.750   2.966 -0.7193 -0.4104 -0.3651
 7905SOL    HW124614   5.797   0.719   2.880 -0.1988 -0.4872 -0.0951
 7905SOL    HW224615   5.824   0.803   3.017 -1.0265 -0.3681  0.0005
 7906SOL     OW24616   3.873   3.971   3.362 -0.0510 -0.0688 -0.9700
 7906SOL    HW124617   3.825   3.989   3.448  0.0922  1.0295 -1.1024
 7906SOL    HW224618   3.950   3.910   3.379  0.0677  0.2599 -0.2960
 7907SOL     OW24619   4.747   4.715   3.896 -0.3549 -0.3059  0.6360
 7907SOL    HW124620   4.713   4.689   3.806  2.0712 -0.2941 -0.3607
 7907SOL    HW224621   4.774   4.811   3.895 -0.1501 -0.3475  1.3461
 7908SOL     OW24622   2.166   5.396   0.378 -0.3583 -0.2470 -0.5365
 7908SOL    HW124623   2.091   5.411   0.443  0.3588  0.5128  0.1352
 7908SOL    HW224624   2.209   5.484   0.357  0.9187 -0.7800 -0.2175
 7909SOL     OW24625   4.223   2.301   4.042 -0.3168  0.0109 -0.0398
 7909SOL    HW124626   4.281   2.227   4.076 -0.9220 -0.2180  0.5124
 7909SOL    HW224627   4.280   2.371   3.999  0.3068 -0.5221 -0.0947
 7910SOL     OW24628   3.356   0.775   2.833 -0.1497 -0.2514 -0.1151
 7910SOL    HW124629   3.390   0.812   2.746 -1.1659 -0.1161 -0.4683
 7910SOL    HW224630   3.264   0.811   2.850  0.9418  1.7170  2.2261
 7911SOL     OW24631   1.855   6.783   3.810 -0.0427 -0.2088 -0.0628
 7911SOL    HW124632   1.890   6.842   3.737  0.9086  0.1867  0.6886
 7911SOL    HW224633   1.834   6.693   3.773  0.9379 -0.1819 -0.7297
 7912SOL     OW24634   3.382   3.419   5.486 -0.2132  0.3179 -0.1129
 7912SOL    HW124635   3.422   3.478   5.417 -1.1597  1.7541  0.5331
 7912SOL    HW224636   3.429   3.330   5.486  0.8223  0.8494 -1.5024
 7913SOL     OW24637   3.713   6.002   1.498 -0.3332 -0.0491  0.5161
 7913SOL    HW124638   3.625   5.960   1.475 -0.2317  0.0805 -0.1243
 7913SOL    HW224639   3.787   5.940   1.474 -0.1830  0.4660 -0.4108
 7914SOL     OW24640   1.474   3.426   3.945  0.0851  0.3777  0.1984
 7914SOL    HW124641   1.508   3.433   3.852  2.5924  0.3733  1.0330
 7914SOL    HW224642   1.497   3.509   3.996 -1.6563  0.5786  0.7246
 7915SOL     OW24643   5.502   0.784   5.851 -0.9288  0.4617 -0.1979
 7915SOL    HW124644   5.497   0.705   5.790  1.8129  0.6376 -0.7810
 7915SOL    HW224645   5.425   0.845   5.834 -1.7411 -0.8595 -1.4775
 7916SOL     OW24646   2.978   0.975   5.213  0.0766  0.5617  0.4463
 7916SOL    HW124647   2.928   1.016   5.289  0.4464  1.2120  0.3471
 7916SOL    HW224648   3.001   1.046   5.146  0.2830  0.1013  0.0223
 7917SOL     OW24649   6.242   4.263   6.260 -0.2422 -0.1172 -0.3355
 7917SOL    HW124650   6.268   4.282   6.354  1.0052  1.7716 -1.0076
 7917SOL    HW224651   6.296   4.186   6.225 -1.0726 -1.1595  0.6061
 7918SOL     OW24652   4.719   1.809   5.229 -0.1563  0.5031 -0.0080
 7918SOL    HW124653   4.690   1.904   5.241 -1.2165  0.4900 -1.9731
 7918SOL    HW224654   4.776   1.802   5.147  0.4917 -0.4549  0.5082
 7919SOL     OW24655   6.864   4.132   2.152  0.7243  0.4106  0.2813
 7919SOL    HW124656   6.800   4.079   2.208  0.4192  0.1107 -0.3423
 7919SOL    HW224657   6.845   4.229   2.163  0.5768  0.3494  0.5890
 7920SOL     OW24658   0.669   1.962   3.700  0.1782 -0.6650  0.0731
 7920SOL    HW124659   0.601   2.018   3.654 -0.2950 -1.3618 -0.0936
 7920SOL    HW224660   0.758   2.009   3.699 -0.5293  0.7868  1.3311
 7921SOL     OW24661   5.903   0.294   3.835  0.4858 -0.1354  0.7079
 7921SOL    HW124662   5.975   0.359   3.810  0.3316 -0.2322  0.0130
 7921SOL    HW224663   5.922   0.258   3.927  0.9655  0.3352  0.7988
 7922SOL     OW24664   3.746   2.446   1.676 -0.0305  0.1268 -0.3297
 7922SOL    HW124665   3.699   2.389   1.744  0.1427  0.4779  0.0826
 7922SOL    HW224666   3.713   2.540   1.684 -0.7241 -0.0095 -1.3778
 7923SOL     OW24667   2.660   0.616   4.526 -0.2086  0.4813 -0.0259
 7923SOL    HW124668   2.563   0.636   4.512 -0.3898 -1.0472 -1.2241
 7923SOL    HW224669   2.671   0.547   4.597  0.0252  0.9309  0.3746
 7924SOL     OW24670   4.214   0.089   6.261  0.4982  0.6291  0.2398
 7924SOL    HW124671   4.210   0.068   6.163  0.3055 -2.2616  0.7690
 7924SOL    HW224672   4.123   0.081   6.301  0.6378  1.4255  0.7266
 7925SOL     OW24673   3.339   0.874   1.492 -0.2928 -0.2394  0.8926
 7925SOL    HW124674   3.353   0.839   1.585  0.4418 -0.4012  0.7270
 7925SOL    HW224675   3.257   0.832   1.453  0.1288 -1.1872  0.9903
 7926SOL     OW24676   3.161   0.512   4.758  0.1698  0.1797  0.2141
 7926SOL    HW124677   3.172   0.609   4.736  2.0701  0.3118  1.5305
 7926SOL    HW224678   3.112   0.466   4.684 -0.0188  1.9662 -0.8190
 7927SOL     OW24679   4.019   3.254   0.702 -0.2849  0.1301 -0.0557
 7927SOL    HW124680   4.118   3.262   0.693 -0.0333 -1.2506  1.1812
 7927SOL    HW224681   3.984   3.195   0.629  0.4915 -3.2908  2.1496
 7928SOL     OW24682   1.919   6.708   2.510  0.1772  0.1593  0.1917
 7928SOL    HW124683   1.931   6.619   2.467  2.2683  0.0359  0.9360
 7928SOL    HW224684   1.844   6.757   2.465 -0.3452 -1.5541 -0.8853
 7929SOL     OW24685   5.796   3.707   4.617 -0.0789  0.0153  0.3451
 7929SOL    HW124686   5.824   3.624   4.665 -1.8859 -2.7063 -2.9010
 7929SOL    HW224687   5.697   3.705   4.603 -0.1710  2.7960  0.1492
 7930SOL     OW24688   5.054   1.234   2.382  0.1380 -0.4073  0.6354
 7930SOL    HW124689   5.103   1.321   2.377  1.7259 -1.3352 -0.6273
 7930SOL    HW224690   5.023   1.207   2.291 -1.1101 -0.7737  1.1389
 7931SOL     OW24691   0.744   1.299   2.505  0.1246 -0.1150  0.0892
 7931SOL    HW124692   0.704   1.385   2.535  0.8087  0.2073  0.0853
 7931SOL    HW224693   0.671   1.237   2.474 -0.3152  0.7195 -0.5795
 7932SOL     OW24694   0.599   3.515   3.447  0.1348 -0.8621 -0.9379
 7932SOL    HW124695   0.598   3.561   3.358  1.0754  0.1211 -0.4582
 7932SOL    HW224696   0.670   3.445   3.448  1.3505  0.3241 -0.4130
 7933SOL     OW24697   3.461   4.618   6.692  0.4962 -0.4999  0.1456
 7933SOL    HW124698   3.441   4.523   6.669 -2.3127  0.4756 -2.0781
 7933SOL    HW224699   3.388   4.655   6.749  1.9250  0.1793  1.6078
 7934SOL     OW24700   4.389   0.996   0.778  0.2006 -0.5345  0.1144
 7934SOL    HW124701   4.361   0.913   0.730  1.7324 -1.3098  0.4916
 7934SOL    HW224702   4.417   0.973   0.872 -2.0989  0.8509  1.2344
 7935SOL     OW24703   6.412   5.971   2.754 -0.0868 -0.4489 -0.0597
 7935SOL    HW124704   6.389   6.019   2.669 -0.6794 -1.7678 -0.6730
 7935SOL    HW224705   6.510   5.955   2.758 -0.2875 -2.5508 -1.7509
 7936SOL     OW24706   6.858   1.389   3.451 -0.1706  0.2338 -0.0682
 7936SOL    HW124707   6.919   1.320   3.490  1.1298  2.8763  3.0842
 7936SOL    HW224708   6.911   1.450   3.392 -0.4629  0.6380  0.0845
 7937SOL     OW24709   0.596   2.685   4.942  0.5935  0.2465  0.3350
 7937SOL    HW124710   0.558   2.697   5.033 -0.9930  1.0680 -0.4051
 7937SOL    HW224711   0.696   2.678   4.948  0.8223  3.3525  1.8742
 7938SOL     OW24712   6.001   3.876   4.574 -0.2410  0.1533 -0.3006
 7938SOL    HW124713   5.984   3.974   4.576 -0.2631  0.1560 -0.5797
 7938SOL    HW224714   5.914   3.827   4.574 -0.2378  0.1439 -0.5644
 7939SOL     OW24715   2.583   0.315   3.840 -0.0408 -0.2337  0.2164
 7939SOL    HW124716   2.575   0.293   3.743 -0.6967  0.3201  0.1381
 7939SOL    HW224717   2.516   0.263   3.892  0.5219 -0.7689  0.4203
 7940SOL     OW24718   0.224   3.132   6.093  0.0641  0.2543 -0.1283
 7940SOL    HW124719   0.297   3.070   6.120 -0.1869  0.0000 -0.0224
 7940SOL    HW224720   0.261   3.224   6.079  0.6566 -0.1604 -1.4337
 7941SOL     OW24721   3.758   1.821   4.937 -0.3324  0.3609  0.7321
 7941SOL    HW124722   3.772   1.911   4.978  1.7319 -0.3903  1.8046
 7941SOL    HW224723   3.847   1.780   4.915 -1.2600 -0.9814 -0.7465
 7942SOL     OW24724   3.976   3.507   3.017 -0.2185  1.3181  0.5260
 7942SOL    HW124725   3.965   3.591   3.071 -0.9888  1.4302  0.2093
 7942SOL    HW224726   4.043   3.523   2.944 -0.6138  1.7730  0.2548
 7943SOL     OW24727   2.502   0.236   4.782 -0.4970 -0.1003  0.5718
 7943SOL    HW124728   2.407   0.244   4.812 -0.7361 -0.1265 -0.1631
 7943SOL    HW224729   2.508   0.170   4.706  0.2830 -1.0014  1.3896
 7944SOL     OW24730   0.259   3.865   1.770 -0.2073 -0.5787 -0.5222
 7944SOL    HW124731   0.199   3.883   1.692  1.2513 -0.3684 -1.6512
 7944SOL    HW224732   0.310   3.948   1.793  1.1565 -1.2592 -0.9666
 7945SOL     OW24733   1.130   0.528   0.827 -0.6274  0.0497 -0.1530
 7945SOL    HW124734   1.123   0.546   0.729  0.2388 -1.0350 -0.4401
 7945SOL    HW224735   1.056   0.466   0.854 -1.2294  0.8363  0.0071
 7946SOL     OW24736   6.479   0.286   6.280  0.2678  0.3147  0.2562
 7946SOL    HW124737   6.436   0.210   6.330  3.3147 -0.8551  1.3062
 7946SOL    HW224738   6.516   0.352   6.345  1.5705  0.3762 -0.5257
 7947SOL     OW24739   5.713   0.725   6.068 -0.4193 -0.5026  0.8797
 7947SOL    HW124740   5.637   0.730   6.004  0.3554 -0.4250 -0.0599
 7947SOL    HW224741   5.760   0.813   6.071  0.8860 -1.1279 -0.1614
 7948SOL     OW24742   5.799   4.464   2.947  0.1282 -0.0135 -0.3747
 7948SOL    HW124743   5.721   4.412   2.982 -0.1014  0.3363 -0.3615
 7948SOL    HW224744   5.805   4.452   2.848 -0.4587  0.6396 -0.4942
 7949SOL     OW24745   4.299   1.324   3.586 -0.4645  0.4871  0.1978
 7949SOL    HW124746   4.244   1.286   3.660 -0.1448 -0.9580 -0.2693
 7949SOL    HW224747   4.261   1.412   3.558 -0.8056  0.8867  1.8069
 7950SOL     OW24748   0.164   1.649   0.677  0.0223 -0.0094 -0.0722
 7950SOL    HW124749   0.085   1.688   0.724  0.3369  1.1791 -0.5071
 7950SOL    HW224750   0.187   1.704   0.597  0.3467 -1.2213 -0.8492
 7951SOL     OW24751   4.071   2.281   4.285  0.2818 -0.0895 -0.2250
 7951SOL    HW124752   4.140   2.314   4.349  1.0718 -3.7954  1.0738
 7951SOL    HW224753   4.111   2.273   4.194  0.8753 -0.1272  0.0357
 7952SOL     OW24754   0.717   6.938   1.927 -0.1831  0.3229 -0.0636
 7952SOL    HW124755   0.692   7.033   1.944  0.8724  0.6091 -0.0092
 7952SOL    HW224756   0.757   6.930   1.836 -0.8889 -0.1977 -0.3283
 7953SOL     OW24757   5.700   3.390   6.179 -0.5783 -0.0135 -0.1818
 7953SOL    HW124758   5.649   3.398   6.093 -2.3807 -0.5998  0.7717
 7953SOL    HW224759   5.681   3.469   6.237 -1.0238 -0.6055  0.4943
 7954SOL     OW24760   6.000   3.137   0.491 -0.3812  0.2710  0.3831
 7954SOL    HW124761   5.929   3.192   0.535 -1.3366 -0.8328  0.2552
 7954SOL    HW224762   5.990   3.142   0.392  1.3741  2.2296  0.2361
 7955SOL     OW24763   0.988   1.154   1.871 -0.5764  0.0394 -0.2351
 7955SOL    HW124764   1.063   1.095   1.844 -3.1993 -3.0182 -1.5566
 7955SOL    HW224765   0.974   1.224   1.801  0.6094  0.2315 -0.2912
 7956SOL     OW24766   0.191   5.302   4.460  0.0994  0.0588  0.9831
 7956SOL    HW124767   0.119   5.233   4.450  0.3420 -0.2404  1.2589
 7956SOL    HW224768   0.150   5.392   4.471 -0.2174 -0.0073  0.3764
 7957SOL     OW24769   5.492   3.752   3.480  0.3075 -0.0501 -0.3068
 7957SOL    HW124770   5.440   3.834   3.457 -0.2301 -0.2909  0.0207
 7957SOL    HW224771   5.565   3.739   3.413  1.1036  1.3047  0.2690
 7958SOL     OW24772   2.092   3.709   6.243 -0.4942  0.1199 -0.2699
 7958SOL    HW124773   2.013   3.688   6.185 -1.2415  0.0510  0.7465
 7958SOL    HW224774   2.157   3.633   6.240 -0.3190  0.2869 -1.3138
 7959SOL     OW24775   4.435   5.072   1.934  0.1221  0.0783 -0.0299
 7959SOL    HW124776   4.359   5.007   1.940 -0.1885  0.5554  1.6294
 7959SOL    HW224777   4.438   5.111   1.842 -1.8413  0.2512 -0.0604
 7960SOL     OW24778   6.622   5.205   5.457  0.1161 -0.5847 -0.2929
 7960SOL    HW124779   6.586   5.261   5.382 -2.9229 -2.3132 -0.3024
 7960SOL    HW224780   6.651   5.116   5.421 -3.4078 -2.2847  0.6159
 7961SOL     OW24781   4.921   3.609   3.463  0.0623 -0.2493  0.2418
 7961SOL    HW124782   4.909   3.708   3.469  1.2216 -0.0773  0.0321
 7961SOL    HW224783   4.880   3.575   3.378  0.2133  0.1461  0.0096
 7962SOL     OW24784   2.627   2.309   2.969  0.2259  0.4439 -0.5952
 7962SOL    HW124785   2.708   2.322   3.026 -0.0681  0.1413 -0.1002
 7962SOL    HW224786   2.625   2.215   2.935  0.0868  0.4508 -0.6074
 7963SOL     OW24787   4.798   6.364   6.321  0.1133  0.1468  0.0348
 7963SOL    HW124788   4.874   6.412   6.365 -0.4001  1.3664 -0.3708
 7963SOL    HW224789   4.834   6.296   6.257  0.8818  1.4585 -0.9686
 7964SOL     OW24790   2.283   0.023   5.173  0.0843 -0.0500  0.0893
 7964SOL    HW124791   2.363   0.011   5.232  0.0997  1.9102  0.5166
 7964SOL    HW224792   2.309   0.076   5.092 -0.7703  0.5373  0.1937
 7965SOL     OW24793   0.268   3.092   1.573 -0.4666  0.4381 -0.1168
 7965SOL    HW124794   0.292   3.139   1.658 -0.2335  0.3748 -0.1473
 7965SOL    HW224795   0.351   3.065   1.525 -0.5327 -1.7325  0.8448
 7966SOL     OW24796   1.964   0.761   4.668 -0.2176  0.3952 -0.3623
 7966SOL    HW124797   2.000   0.792   4.756 -0.8073 -1.3917  0.5639
 7966SOL    HW224798   2.030   0.782   4.596  1.0060  0.4912  0.7353
 7967SOL     OW24799   6.028   0.270   0.245  0.7655 -0.0990  0.8846
 7967SOL    HW124800   5.965   0.295   0.319  1.5704  2.8953  0.6852
 7967SOL    HW224801   6.106   0.220   0.284 -1.3012 -3.3042  1.2112
 7968SOL     OW24802   5.250   4.872   7.004  0.4383  0.0833  0.6755
 7968SOL    HW124803   5.236   4.794   7.065  0.8979  0.8341  1.7760
 7968SOL    HW224804   5.208   4.954   7.044 -0.9752  0.2143 -0.9667
 7969SOL     OW24805   1.742   1.650   6.523 -0.2385  0.5854 -0.2189
 7969SOL    HW124806   1.829   1.658   6.475  0.1325  1.1630  0.5486
 7969SOL    HW224807   1.756   1.658   6.621 -1.0689 -0.0446 -0.0401
 7970SOL     OW24808   0.455   4.038   6.927  0.2104  0.2876 -0.8529
 7970SOL    HW124809   0.453   4.132   6.962  0.7237 -0.0374  0.0865
 7970SOL    HW224810   0.363   3.999   6.933  0.3371  0.1430  0.4510
 7971SOL     OW24811   3.671   2.765   1.255  0.6719 -0.3554 -0.3247
 7971SOL    HW124812   3.582   2.724   1.274  0.0435  0.4340 -1.4863
 7971SOL    HW224813   3.738   2.730   1.321 -0.8265  0.3134  1.6557
 7972SOL     OW24814   3.065   1.175   1.819  0.2009 -0.1923 -0.4346
 7972SOL    HW124815   2.990   1.136   1.765 -1.5053 -0.2394  1.8139
 7972SOL    HW224816   3.047   1.272   1.835  1.1407  0.0281 -0.6821
 7973SOL     OW24817   2.402   0.696   4.472 -0.5229  0.3549 -0.4777
 7973SOL    HW124818   2.317   0.693   4.524  0.2319 -1.1649  0.7350
 7973SOL    HW224819   2.409   0.784   4.425 -3.2764  0.0992 -1.5539
 7974SOL     OW24820   6.068   5.747   1.931  0.3229  0.5138  0.6093
 7974SOL    HW124821   6.004   5.670   1.928  0.0541  0.7421  0.3834
 7974SOL    HW224822   6.157   5.717   1.895  0.5522  0.0147  1.5521
 7975SOL     OW24823   5.617   5.408   0.757  0.1335 -0.6126 -0.0404
 7975SOL    HW124824   5.589   5.502   0.738 -1.0341 -0.9766 -0.2181
 7975SOL    HW224825   5.674   5.375   0.682  1.2088  0.1961  0.3929
 7976SOL     OW24826   2.865   6.573   2.822 -0.3563  0.1110 -0.5225
 7976SOL    HW124827   2.924   6.654   2.815  0.4506 -0.3960  0.2204
 7976SOL    HW224828   2.798   6.587   2.896 -1.5087  0.8696 -1.6521
 7977SOL     OW24829   3.469   6.492   4.438  0.4127  0.4324 -0.4192
 7977SOL    HW124830   3.390   6.474   4.497  0.4965  2.1296  0.2649
 7977SOL    HW224831   3.506   6.405   4.405 -0.6990 -0.4747  0.6194
 7978SOL     OW24832   0.041   2.378   2.647 -0.4621  0.6607 -0.1230
 7978SOL    HW124833  -0.044   2.397   2.696 -0.0513  1.6482  0.2273
 7978SOL    HW224834   0.081   2.463   2.615  0.8496  0.2880  0.4814
 7979SOL     OW24835   6.888   3.978   5.189  0.3807  0.3042 -0.2634
 7979SOL    HW124836   6.984   3.977   5.163  0.2354  0.7008 -0.8553
 7979SOL    HW224837   6.879   3.967   5.288  1.0937  1.3569 -0.0649
 7980SOL     OW24838   3.893   3.897   2.518 -0.2352 -0.2312 -0.4267
 7980SOL    HW124839   3.919   3.934   2.607 -0.3989 -1.6412  0.2375
 7980SOL    HW224840   3.794   3.910   2.505  0.1428  2.1246 -1.4943
 7981SOL     OW24841   2.708   4.057   1.696  0.0781  0.3638  0.1036
 7981SOL    HW124842   2.670   4.004   1.620  0.9278 -1.3222  0.8040
 7981SOL    HW224843   2.807   4.049   1.696  0.0268 -1.5488  2.6124
 7982SOL     OW24844   0.084   5.617   3.207  0.0757 -0.3574  0.4421
 7982SOL    HW124845   0.045   5.541   3.155 -1.5049  0.6658  0.0603
 7982SOL    HW224846   0.184   5.611   3.205  0.0139 -1.3857 -1.1150
 7983SOL     OW24847   2.754   0.378   6.516 -0.0564  0.1714  0.6587
 7983SOL    HW124848   2.655   0.385   6.528 -0.1062 -0.0056  0.3595
 7983SOL    HW224849   2.782   0.282   6.517 -0.1454  0.0847 -1.1866
 7984SOL     OW24850   5.626   6.720   5.512 -0.5021  0.1188  0.6374
 7984SOL    HW124851   5.584   6.630   5.501  0.7990 -0.3292 -0.9658
 7984SOL    HW224852   5.565   6.778   5.566 -1.0921 -1.8858  2.2570
 7985SOL     OW24853   2.732   2.725   1.642 -0.2034 -0.0221 -0.0197
 7985SOL    HW124854   2.730   2.825   1.651  2.0356  0.1034 -0.3953
 7985SOL    HW224855   2.809   2.689   1.694 -1.6544 -1.7026  1.0359
 7986SOL     OW24856   1.464   0.386   6.197 -0.3645  0.2828 -0.1055
 7986SOL    HW124857   1.427   0.342   6.115 -0.0172  0.1013 -0.1700
 7986SOL    HW224858   1.558   0.414   6.179  0.9972 -2.8452  1.2777
 7987SOL     OW24859   3.613   5.984   6.180  0.4632  1.1212  0.4606
 7987SOL    HW124860   3.625   5.902   6.125  0.0646  1.0836  0.4293
 7987SOL    HW224861   3.578   6.058   6.122  1.2689  1.4599  0.3779
 7988SOL     OW24862   4.662   6.429   1.198 -0.4416 -0.1998 -0.4217
 7988SOL    HW124863   4.639   6.490   1.122 -0.1417  0.1453 -0.2385
 7988SOL    HW224864   4.604   6.451   1.277 -0.4383 -0.2489 -0.4060
 7989SOL     OW24865   3.580   3.862   4.852 -0.3168  0.1412 -1.1484
 7989SOL    HW124866   3.554   3.823   4.763  1.5752 -0.2359 -1.5741
 7989SOL    HW224867   3.641   3.799   4.899 -2.2111 -0.2337  1.0170
 7990SOL     OW24868   4.062   6.617   5.275 -0.1053 -0.9756 -0.1807
 7990SOL    HW124869   4.149   6.655   5.244 -0.6661 -0.8237 -1.6498
 7990SOL    HW224870   4.006   6.689   5.317 -1.5311  0.2111 -3.7423
 7991SOL     OW24871   6.844   3.143   0.148 -0.1486 -0.0218  0.2014
 7991SOL    HW124872   6.913   3.157   0.219  1.2549 -0.7639 -0.9601
 7991SOL    HW224873   6.815   3.231   0.112 -0.6906  0.3523  1.4887
 7992SOL     OW24874   3.639   6.274   5.302 -0.3084  0.0627 -0.5014
 7992SOL    HW124875   3.653   6.175   5.314  1.4475  0.3715  0.2420
 7992SOL    HW224876   3.700   6.324   5.363  0.6734  1.6417 -2.6422
 7993SOL     OW24877   6.625   2.088   0.314 -1.0044  0.1222 -0.3026
 7993SOL    HW124878   6.635   1.988   0.305  1.5703  0.3703 -1.2398
 7993SOL    HW224879   6.574   2.109   0.397  0.2543 -1.9709  1.1048
 7994SOL     OW24880   5.418   1.100   0.019 -0.7675  0.0540 -0.5846
 7994SOL    HW124881   5.338   1.044   0.039 -0.7261  0.1490 -0.1426
 7994SOL    HW224882   5.501   1.051   0.045 -0.6549 -0.1991 -1.3984
 7995SOL     OW24883   3.695   2.870   6.785  0.7529  0.2836 -0.3637
 7995SOL    HW124884   3.597   2.850   6.782  0.1657  2.4720  1.2285
 7995SOL    HW224885   3.723   2.915   6.700 -0.1285  1.5519  0.0002
 7996SOL     OW24886   1.011   1.802   3.836 -0.3482  0.1553 -0.5024
 7996SOL    HW124887   1.062   1.771   3.917 -1.5169  0.9004  0.5545
 7996SOL    HW224888   1.000   1.726   3.773  2.1150 -0.0232 -0.8224
 7997SOL     OW24889   3.371   2.267   5.970  0.0365  0.2926  0.2119
 7997SOL    HW124890   3.397   2.171   5.980 -1.1344 -0.3972 -2.3676
 7997SOL    HW224891   3.356   2.287   5.873  0.1871  3.0904  0.6883
 7998SOL     OW24892   1.416   3.586   5.348  0.0391 -0.3825 -0.4593
 7998SOL    HW124893   1.468   3.597   5.263  1.6920  0.5866  0.6130
 7998SOL    HW224894   1.352   3.510   5.338 -1.3356  0.9805 -3.2584
 7999SOL     OW24895   3.330   6.690   6.861 -0.3476 -0.3529 -0.1252
 7999SOL    HW124896   3.240   6.673   6.901  0.3142 -1.1677  1.0557
 7999SOL    HW224897   3.379   6.603   6.851  0.9193  0.2325  0.7423
 8000SOL     OW24898   3.655   3.229   2.525  0.6128 -0.3645 -0.1130
 8000SOL    HW124899   3.671   3.328   2.524 -0.2068 -0.1754  1.4637
 8000SOL    HW224900   3.603   3.205   2.608 -0.8072 -1.8585 -1.3681
 8001SOL     OW24901   5.165   6.753   1.149 -0.2630  0.2802  0.3807
 8001SOL    HW124902   5.132   6.680   1.208 -1.5951  0.5237 -0.0254
 8001SOL    HW224903   5.091   6.785   1.091  0.7430  0.7786 -0.6819
 8002SOL     OW24904   3.626   0.737   4.459 -0.6665 -0.4445 -0.3167
 8002SOL    HW124905   3.542   0.709   4.412 -0.8698 -0.3722 -0.0004
 8002SOL    HW224906   3.705   0.716   4.402 -1.0190  1.8597 -1.7921
 8003SOL     OW24907   1.704   4.534   0.415 -0.1690 -0.2849  0.2229
 8003SOL    HW124908   1.698   4.454   0.475 -1.0224  1.8045  3.1850
 8003SOL    HW224909   1.613   4.573   0.402  0.3346  0.7382 -0.3282
 8004SOL     OW24910   1.408   5.460   6.452 -0.0981  0.2991  0.3452
 8004SOL    HW124911   1.411   5.519   6.533  2.8728  0.0143  0.5421
 8004SOL    HW224912   1.430   5.366   6.479  2.9638  0.5388 -0.9625
 8005SOL     OW24913   0.839   5.264   1.646  0.1736  0.3023 -0.0815
 8005SOL    HW124914   0.850   5.207   1.727  0.1456  0.8503  0.3174
 8005SOL    HW224915   0.843   5.207   1.564  4.5491  0.1964  0.0038
 8006SOL     OW24916   3.578   2.874   4.994 -0.0343 -0.1757  0.5380
 8006SOL    HW124917   3.480   2.890   4.993  0.2000  1.4508  0.6495
 8006SOL    HW224918   3.614   2.876   4.901  0.1547  1.1798  0.6229
 8007SOL     OW24919   1.330   3.486   1.225  0.5395 -0.0566 -0.4566
 8007SOL    HW124920   1.403   3.432   1.268  0.5966  1.5284  1.5847
 8007SOL    HW224921   1.250   3.427   1.212  0.7196 -0.7912  1.3556
 8008SOL     OW24922   3.801   0.128   1.142 -0.3515 -0.6371  0.3262
 8008SOL    HW124923   3.717   0.119   1.090 -0.1112 -2.0008  0.1460
 8008SOL    HW224924   3.821   0.042   1.189  0.9455 -0.3467  0.3556
 8009SOL     OW24925   6.000   0.644   5.186  0.4273  0.1134  0.1901
 8009SOL    HW124926   6.048   0.731   5.196 -0.8257  0.9595 -0.7991
 8009SOL    HW224927   6.065   0.572   5.162  1.1809  1.2706 -1.3707
 8010SOL     OW24928   4.879   0.542   3.020  0.2900 -0.6121  0.0668
 8010SOL    HW124929   4.886   0.642   3.021 -1.4485 -0.4374 -1.0624
 8010SOL    HW224930   4.956   0.503   2.969  1.9634 -0.0239  1.9848
 8011SOL     OW24931   0.376   1.188   3.147 -0.5794  0.6316 -0.3309
 8011SOL    HW124932   0.342   1.210   3.056 -0.8942 -0.6534 -0.5408
 8011SOL    HW224933   0.446   1.118   3.141 -1.2265 -0.1124  0.4703
 8012SOL     OW24934   0.730   4.053   0.389 -0.0104 -0.1159  0.8419
 8012SOL    HW124935   0.761   4.133   0.339  0.1166 -0.4175  0.4335
 8012SOL    HW224936   0.683   3.990   0.327 -0.5747 -0.1188  1.2602
 8013SOL     OW24937   5.174   2.841   0.997  1.0052 -0.1926  0.1418
 8013SOL    HW124938   5.260   2.794   0.978  0.2436 -1.3240 -0.5829
 8013SOL    HW224939   5.140   2.814   1.087  1.9370  1.1042  0.9162
 8014SOL     OW24940   0.239   6.508   5.230 -0.3074  0.2254 -0.5612
 8014SOL    HW124941   0.144   6.476   5.231 -0.3622  0.3806  0.6823
 8014SOL    HW224942   0.283   6.483   5.316  0.4420  1.1367 -0.6702
 8015SOL     OW24943   6.330   0.317   3.172  0.2304 -0.2750  0.0362
 8015SOL    HW124944   6.322   0.243   3.240  0.3218 -1.6693 -1.4177
 8015SOL    HW224945   6.243   0.326   3.123 -0.3031  1.6747  1.2157
 8016SOL     OW24946   0.585   3.879   2.747  0.3293  0.1324 -0.0968
 8016SOL    HW124947   0.537   3.891   2.661 -1.5293  0.8935  0.9928
 8016SOL    HW224948   0.638   3.961   2.769 -2.0423  1.4490  1.1221
 8017SOL     OW24949   5.154   0.470   1.451 -0.1942  0.4431  0.2401
 8017SOL    HW124950   5.098   0.451   1.371 -0.5678 -0.3213  0.6707
 8017SOL    HW224951   5.195   0.385   1.484  0.6393  0.8833  0.3623
 8018SOL     OW24952   5.877   2.496   6.383  0.2972 -0.1339 -0.1080
 8018SOL    HW124953   5.896   2.476   6.287  2.6408 -1.0819  0.4691
 8018SOL    HW224954   5.920   2.427   6.441  3.0932  2.8567  1.7740
 8019SOL     OW24955   4.829   5.338   3.951 -0.5240  0.9189  0.2772
 8019SOL    HW124956   4.892   5.320   4.027 -1.9607 -0.8562  1.1291
 8019SOL    HW224957   4.735   5.327   3.983 -1.2354  1.8965 -1.3582
 8020SOL     OW24958   4.282   6.227   4.744  0.3135 -0.0191  0.2311
 8020SOL    HW124959   4.318   6.153   4.800  0.1375  0.0886  0.4881
 8020SOL    HW224960   4.217   6.190   4.678 -0.4002  0.0137  0.9064
 8021SOL     OW24961   5.526   6.918   0.125 -0.1855  0.6829  0.2816
 8021SOL    HW124962   5.564   6.993   0.071  0.8637  0.2768  0.4274
 8021SOL    HW224963   5.565   6.831   0.094 -0.6949  0.2912  0.7118
 8022SOL     OW24964   0.481   6.867   6.504 -0.0038 -0.4964 -0.6191
 8022SOL    HW124965   0.453   6.936   6.569 -3.3584 -3.0773  0.9830
 8022SOL    HW224966   0.553   6.810   6.544  0.5077  0.1059 -0.6716
 8023SOL     OW24967   0.267   6.855   1.031 -0.1284  0.5479 -0.6801
 8023SOL    HW124968   0.341   6.912   1.066 -0.4359  1.5970 -1.6802
 8023SOL    HW224969   0.294   6.759   1.035  1.2815  0.9078 -1.0354
 8024SOL     OW24970   3.037   1.877   2.262 -0.6478  0.3687  0.0928
 8024SOL    HW124971   2.983   1.935   2.201  1.1943  0.4977 -1.5168
 8024SOL    HW224972   3.113   1.930   2.300  0.7853 -0.7701 -1.0295
 8025SOL     OW24973   6.934   0.665   0.568  0.4461 -0.6501 -0.2703
 8025SOL    HW124974   6.945   0.572   0.601 -0.4353 -1.9671 -3.3338
 8025SOL    HW224975   7.015   0.692   0.516  0.7414  0.3927  0.6807
 8026SOL     OW24976   2.848   0.460   6.902 -0.1170  0.1911  0.0578
 8026SOL    HW124977   2.821   0.389   6.837  0.1082  0.2759 -0.1279
 8026SOL    HW224978   2.847   0.549   6.856  1.9983  0.0341 -0.4038
 8027SOL     OW24979   4.017   6.957   0.858 -0.3565 -0.1266  0.0946
 8027SOL    HW124980   3.978   7.045   0.831 -0.3909 -0.5672 -1.3720
 8027SOL    HW224981   3.945   6.897   0.891 -0.2081  0.6860  2.0047
 8028SOL     OW24982   6.505   4.864   5.833  0.0052 -0.7305  0.1852
 8028SOL    HW124983   6.540   4.890   5.924  0.0717  1.5440 -0.4141
 8028SOL    HW224984   6.506   4.945   5.774 -1.1733 -1.8975 -1.4934
 8029SOL     OW24985   5.869   0.167   0.049  0.1342 -0.1190  0.2029
 8029SOL    HW124986   5.936   0.144  -0.022 -0.1303 -0.5507  0.0860
 8029SOL    HW224987   5.910   0.229   0.116  1.4290 -2.2085  1.4443
 8030SOL     OW24988   2.208   0.516   4.622 -0.1835  0.1861  0.0007
 8030SOL    HW124989   2.113   0.510   4.592 -0.3093  1.2905  0.1410
 8030SOL    HW224990   2.264   0.454   4.566 -1.0959 -1.0968  0.4761
 8031SOL     OW24991   5.387   0.681   6.884 -0.8821 -0.1584  0.1955
 8031SOL    HW124992   5.321   0.636   6.823  0.7644 -1.9111 -0.3676
 8031SOL    HW224993   5.405   0.773   6.850 -0.0457 -1.0517 -2.0402
 8032SOL     OW24994   1.374   1.063   4.803 -0.6151  0.1291  0.1008
 8032SOL    HW124995   1.456   1.069   4.861 -1.0552  0.8112  0.6769
 8032SOL    HW224996   1.396   1.015   4.719  0.2924 -0.0139  0.4083
 8033SOL     OW24997   3.408   4.050   6.311  0.2060  0.1615  0.6044
 8033SOL    HW124998   3.441   4.024   6.220 -0.3742  0.8682  0.1655
 8033SOL    HW224999   3.457   4.132   6.341 -0.7683  0.9417  0.1510
 8034SOL     OW25000   6.234   4.953   6.870 -0.1066 -0.6101  0.0753
 8034SOL    HW125001   6.279   4.912   6.949  0.3927 -0.5316 -0.1680
 8034SOL    HW225002   6.301   4.969   6.797 -0.2080  1.0133  0.3038
 8035SOL     OW25003   5.137   5.123   1.479  0.0336  0.1845  0.4392
 8035SOL    HW125004   5.136   5.093   1.383  0.9195 -0.1886  0.5302
 8035SOL    HW225005   5.044   5.124   1.515 -0.1010 -2.2124  0.3436
 8036SOL     OW25006   4.024   0.685   3.836 -0.0925  0.9045  0.2215
 8036SOL    HW125007   3.925   0.689   3.848 -0.2652 -1.3431 -0.0513
 8036SOL    HW225008   4.069   0.679   3.925 -0.4752 -1.6677  0.2989
 8037SOL     OW25009   0.543   1.484   6.285  0.4582  0.0023  0.8989
 8037SOL    HW125010   0.636   1.509   6.314  0.9376 -2.8867  2.1223
 8037SOL    HW225011   0.543   1.390   6.251 -2.1025 -0.1582  1.2195
 8038SOL     OW25012   3.868   5.817   4.042 -0.2549 -0.0644 -0.2491
 8038SOL    HW125013   3.925   5.792   3.964 -0.2057  1.4994 -0.7601
 8038SOL    HW225014   3.822   5.904   4.023 -0.9788 -0.1183  1.1029
 8039SOL     OW25015   5.576   0.137   0.943  0.2024  0.1614  0.7562
 8039SOL    HW125016   5.480   0.166   0.934  0.1290 -0.1179  0.6349
 8039SOL    HW225017   5.592   0.056   0.887  0.2994 -0.2905  1.4206
 8040SOL     OW25018   2.569   5.251   0.313  0.7164  0.2568 -0.1676
 8040SOL    HW125019   2.512   5.178   0.350 -1.1044  0.7012 -1.9242
 8040SOL    HW225020   2.576   5.325   0.380 -0.0714 -0.1886  0.4237
 8041SOL     OW25021   3.297   3.256   0.523 -0.2688  0.2300  0.0626
 8041SOL    HW125022   3.392   3.286   0.526 -0.1157 -0.1571 -0.6987
 8041SOL    HW225023   3.281   3.187   0.593 -0.3980  1.4231  1.2366
 8042SOL     OW25024   1.057   6.838   5.991  0.5003 -0.1308 -0.3430
 8042SOL    HW125025   1.117   6.807   5.917  2.6952 -0.7769  1.5946
 8042SOL    HW225026   0.986   6.769   6.007  0.9970 -0.7582 -0.7820
 8043SOL     OW25027   3.792   0.055   4.061  0.4266  0.6965 -0.3575
 8043SOL    HW125028   3.810   0.008   4.148 -1.0540  0.3372 -0.2171
 8043SOL    HW225029   3.810  -0.008   3.985 -2.2964 -0.4652 -0.1489
 8044SOL     OW25030   5.306   1.061   5.486  0.3407 -0.4927 -0.0383
 8044SOL    HW125031   5.267   1.108   5.407 -0.5576  0.2104  0.8013
 8044SOL    HW225032   5.392   1.105   5.511  0.3406 -0.3580 -0.2700
 8045SOL     OW25033   4.510   2.560   2.258  1.1012  0.0026  0.0718
 8045SOL    HW125034   4.460   2.628   2.205  0.5246  0.5638  1.3067
 8045SOL    HW225035   4.591   2.602   2.299  0.3208  0.1913  1.4925
 8046SOL     OW25036   4.907   5.702   6.683  0.1032  0.0957 -0.3805
 8046SOL    HW125037   4.869   5.730   6.596 -0.1229  1.1668  0.0437
 8046SOL    HW225038   4.863   5.753   6.757 -0.1284 -1.2139  0.4155
 8047SOL     OW25039   2.424   5.023   5.605  0.4210  0.3949  0.1356
 8047SOL    HW125040   2.406   4.985   5.696 -1.6356  2.1228  0.5359
 8047SOL    HW225041   2.341   5.017   5.550  1.2489  0.6222 -1.1785
 8048SOL     OW25042   1.936   3.995   1.974 -0.0779  0.0212  0.6961
 8048SOL    HW125043   1.950   4.082   2.022  1.4949  0.1418  0.0818
 8048SOL    HW225044   2.013   3.934   1.993 -0.2946 -0.5791 -0.2991
 8049SOL     OW25045   4.609   6.236   3.920 -0.0671  0.2171 -0.1582
 8049SOL    HW125046   4.672   6.315   3.922  1.7923 -1.1391 -1.3362
 8049SOL    HW225047   4.615   6.192   3.831 -1.4514 -0.9955  0.3152
 8050SOL     OW25048   6.455   0.683   3.176 -0.4947  0.9688 -0.0967
 8050SOL    HW125049   6.461   0.775   3.217 -0.9832  1.3160 -0.7801
 8050SOL    HW225050   6.399   0.625   3.235  1.6633  0.4064  1.5288
 8051SOL     OW25051   4.300   3.447   1.241  0.0052  0.0074  0.3590
 8051SOL    HW125052   4.377   3.439   1.178 -0.9723  1.4075 -1.1245
 8051SOL    HW225053   4.218   3.410   1.197 -0.5930  0.5083  1.0289
 8052SOL     OW25054   6.492   4.889   5.178  0.1802  0.6541 -0.3576
 8052SOL    HW125055   6.472   4.844   5.264  1.2213  2.2153  0.7578
 8052SOL    HW225056   6.408   4.900   5.125 -0.5690  0.1921  0.7130
 8053SOL     OW25057   6.752   2.800   6.875 -0.4717  0.0360 -0.4664
 8053SOL    HW125058   6.659   2.835   6.867 -0.7249  0.1161  2.1253
 8053SOL    HW225059   6.817   2.877   6.875 -0.5776  0.1235 -0.1130
 8054SOL     OW25060   3.737   7.011   2.620 -0.2526 -0.6678 -0.3529
 8054SOL    HW125061   3.663   7.023   2.554 -0.4398 -0.9588 -0.1957
 8054SOL    HW225062   3.791   7.095   2.625 -0.2465 -0.6348 -0.8647
 8055SOL     OW25063   1.837   5.828   0.580 -0.0773 -0.2307  0.0086
 8055SOL    HW125064   1.894   5.818   0.661 -1.5423 -1.9531  0.8842
 8055SOL    HW225065   1.766   5.896   0.598  0.4655  0.4471 -0.3688
 8056SOL     OW25066   0.444   2.906   0.228 -0.1636 -0.2838  0.3416
 8056SOL    HW125067   0.354   2.937   0.198 -0.6091 -1.5587  0.3189
 8056SOL    HW225068   0.492   2.982   0.273 -1.5673  0.2045  1.0827
 8057SOL     OW25069   6.832   3.306   4.290  0.6695 -0.4893  0.2703
 8057SOL    HW125070   6.741   3.317   4.250  0.8237  1.2307  0.3299
 8057SOL    HW225071   6.851   3.381   4.352  1.3940 -1.8523  1.7796
 8058SOL     OW25072   0.512   2.835   3.148 -0.3289 -0.1625 -0.3107
 8058SOL    HW125073   0.489   2.845   3.051 -0.8103  0.2446 -0.1591
 8058SOL    HW225074   0.497   2.740   3.176  0.2339 -0.3836 -0.7403
 8059SOL     OW25075   1.253   2.200   1.630 -0.7973  0.4019  0.0757
 8059SOL    HW125076   1.208   2.284   1.600 -0.5708  0.9942  1.3319
 8059SOL    HW225077   1.352   2.212   1.627 -0.7459 -0.1210 -0.5361
 8060SOL     OW25078   1.675   0.869   1.189  0.0052  0.0253  0.2198
 8060SOL    HW125079   1.681   0.778   1.148 -1.3085  0.5405 -1.1939
 8060SOL    HW225080   1.660   0.937   1.117  0.5031  1.3194  1.2995
 8061SOL     OW25081   2.833   0.747   0.261 -0.4631 -0.2377 -0.0558
 8061SOL    HW125082   2.786   0.738   0.174 -1.9872  0.6119  0.6422
 8061SOL    HW225083   2.924   0.786   0.246 -0.7309 -0.0282 -1.2557
 8062SOL     OW25084   6.066   0.512   4.829  0.2654  0.3859 -0.2186
 8062SOL    HW125085   5.979   0.557   4.812  0.8670  1.7443  0.1713
 8062SOL    HW225086   6.080   0.440   4.761 -2.3724 -1.7388  1.3137
 8063SOL     OW25087   2.203   5.065   0.911  0.6029  0.3218 -0.5585
 8063SOL    HW125088   2.121   5.076   0.854 -0.4797 -1.1493  0.6146
 8063SOL    HW225089   2.175   5.049   1.006  2.2029 -1.0607 -0.2702
 8064SOL     OW25090   0.961   0.267   6.797  0.0078 -0.2883 -0.8041
 8064SOL    HW125091   1.036   0.221   6.749  0.6712  0.5664 -0.6049
 8064SOL    HW225092   0.904   0.315   6.731  0.1478 -0.2080 -0.8668
 8065SOL     OW25093   5.104   0.406   3.826 -0.7477 -0.0554 -0.7966
 8065SOL    HW125094   5.172   0.377   3.894 -2.0606  0.9984  1.0714
 8065SOL    HW225095   5.024   0.346   3.831 -2.2729  1.9337  1.0904
 8066SOL     OW25096   6.784   5.993   4.143  0.0479 -0.9220 -0.5804
 8066SOL    HW125097   6.769   5.985   4.044  0.7980 -0.6602 -0.7258
 8066SOL    HW225098   6.752   6.083   4.174 -0.7288 -1.2318 -0.4740
 8067SOL     OW25099   5.171   2.277   5.028  0.8460 -0.0440  0.5594
 8067SOL    HW125100   5.218   2.210   4.971  1.7550  0.1895  1.0275
 8067SOL    HW225101   5.103   2.325   4.972  0.7824 -0.7501  0.0111
 8068SOL     OW25102   3.025   5.079   6.397 -0.5158 -0.2278 -0.0397
 8068SOL    HW125103   2.991   5.044   6.484  0.4659  1.2384  0.9874
 8068SOL    HW225104   2.966   5.153   6.365  0.2441  0.6290  0.4716
 8069SOL     OW25105   1.239   2.605   6.686 -0.0985 -0.4127 -0.2463
 8069SOL    HW125106   1.158   2.547   6.676  0.5859 -1.4943  0.3472
 8069SOL    HW225107   1.284   2.615   6.597  0.4579 -1.8350 -0.1569
 8070SOL     OW25108   2.719   2.222   4.993  0.0968  0.6240  0.2446
 8070SOL    HW125109   2.642   2.162   4.969  1.2269 -0.1333 -1.6668
 8070SOL    HW225110   2.688   2.290   5.060 -2.1758  0.2177 -0.3060
 8071SOL     OW25111   5.042   5.950   0.291 -0.4931 -0.8592  0.2474
 8071SOL    HW125112   5.090   6.025   0.334 -1.5109  0.0981 -0.2271
 8071SOL    HW225113   5.104   5.902   0.229  0.2909 -0.7152  0.9023
 8072SOL     OW25114   6.557   1.376   0.464  0.4267 -0.2184 -0.1808
 8072SOL    HW125115   6.519   1.408   0.377  1.2134 -0.1333 -0.4962
 8072SOL    HW225116   6.486   1.379   0.534 -0.2171 -0.2940 -0.8187
 8073SOL     OW25117   1.387   2.030   3.028 -0.4667  0.4354 -0.7511
 8073SOL    HW125118   1.365   2.070   3.117  2.0237  0.5879 -0.1198
 8073SOL    HW225119   1.304   1.993   2.987 -1.9939  1.8719  0.8481
 8074SOL     OW25120   5.644   5.232   2.985  0.0779  0.5792 -0.3954
 8074SOL    HW125121   5.600   5.155   2.939 -0.5145  0.1541  0.8374
 8074SOL    HW225122   5.615   5.318   2.942 -2.0378  0.3217  0.4062
 8075SOL     OW25123   5.177   5.996   0.634  1.1887  0.3241  0.2204
 8075SOL    HW125124   5.265   6.034   0.603  1.2217 -0.8352 -1.2399
 8075SOL    HW225125   5.179   5.985   0.733  2.8331  0.0047  0.1872
 8076SOL     OW25126   2.839   5.082   4.105 -0.2112 -0.1544  0.2269
 8076SOL    HW125127   2.884   5.015   4.046 -0.5969 -1.1259  0.9970
 8076SOL    HW225128   2.895   5.165   4.110  0.2559 -0.3980 -0.7836
 8077SOL     OW25129   6.201   3.438   3.520 -0.3313  0.4561 -0.0912
 8077SOL    HW125130   6.208   3.535   3.544  2.2936  0.6961 -1.4612
 8077SOL    HW225131   6.159   3.428   3.430 -1.5961  0.2079  0.5063
 8078SOL     OW25132   4.617   2.159   3.341  0.3608 -0.2924 -0.2920
 8078SOL    HW125133   4.683   2.204   3.281 -0.7593  0.3529 -1.0827
 8078SOL    HW225134   4.605   2.064   3.312  0.3604 -0.1882 -0.6376
 8079SOL     OW25135   1.748   6.475   5.409  0.0263  0.1785 -0.2883
 8079SOL    HW125136   1.776   6.510   5.320 -0.5012 -0.7012 -0.8162
 8079SOL    HW225137   1.667   6.416   5.398  1.2634 -1.7524  0.4382
 8080SOL     OW25138   0.641   5.882   4.674 -0.3749 -0.5165 -0.0145
 8080SOL    HW125139   0.609   5.884   4.579 -1.6237 -0.0405  0.3844
 8080SOL    HW225140   0.625   5.972   4.715  1.6227 -0.2198  0.2092
 8081SOL     OW25141   6.852   4.742   5.816  0.0028 -0.1322 -0.1261
 8081SOL    HW125142   6.852   4.773   5.721  0.1092 -0.3590 -0.2001
 8081SOL    HW225143   6.762   4.706   5.840 -0.0665  0.0580 -0.0957
 8082SOL     OW25144   1.526   5.979   5.777 -0.0241 -0.3877 -0.4796
 8082SOL    HW125145   1.620   6.013   5.781  0.2103 -1.0577 -0.1913
 8082SOL    HW225146   1.475   6.014   5.856  0.3935 -1.2085  0.1670
 8083SOL     OW25147   0.944   2.670   1.515  0.2672 -0.3185  0.1477
 8083SOL    HW125148   0.968   2.596   1.453 -1.1712  0.8728 -1.9719
 8083SOL    HW225149   0.967   2.758   1.473  0.7640  0.5080  2.0382
 8084SOL     OW25150   5.577   2.926   4.647  0.0124 -0.5404 -0.3562
 8084SOL    HW125151   5.521   2.960   4.723 -0.3539  2.7098 -1.8663
 8084SOL    HW225152   5.528   2.852   4.600 -2.4632  1.1642 -0.7027
 8085SOL     OW25153   0.251   1.379   3.753  0.3267  0.3891 -0.7103
 8085SOL    HW125154   0.333   1.329   3.727  0.5979  0.8847 -0.8368
 8085SOL    HW225155   0.241   1.460   3.695  0.0149  0.5959 -0.3796
 8086SOL     OW25156   0.001   3.026   1.614 -0.4312  0.9635  0.5303
 8086SOL    HW125157  -0.013   2.927   1.620 -0.5582  0.9380 -0.0668
 8086SOL    HW225158   0.092   3.044   1.578 -0.0814  1.0809  1.4639
 8087SOL     OW25159   6.696   6.653   3.740 -0.5089  0.1576 -0.0095
 8087SOL    HW125160   6.614   6.669   3.685  0.0991  1.1702 -0.6629
 8087SOL    HW225161   6.686   6.696   3.829 -0.9288 -0.2743  0.1596
 8088SOL     OW25162   3.239   5.264   2.461  0.6039 -0.3360  0.3968
 8088SOL    HW125163   3.250   5.349   2.410  0.5555 -0.6996 -0.2350
 8088SOL    HW225164   3.243   5.283   2.559 -0.4961  0.5509  0.2953
 8089SOL     OW25165   0.504   6.146   6.057  0.3880 -0.0441 -0.0352
 8089SOL    HW125166   0.546   6.070   6.106 -1.2031 -1.1337 -0.2756
 8089SOL    HW225167   0.432   6.111   5.997 -0.9672  1.7112  0.4728
 8090SOL     OW25168   3.227   3.298   3.443 -0.3869 -0.3374 -0.4324
 8090SOL    HW125169   3.148   3.237   3.451 -0.6723  0.1230  0.4365
 8090SOL    HW225170   3.235   3.330   3.349 -0.6859 -1.1101 -0.7301
 8091SOL     OW25171   0.753   6.895   1.413  0.1923  0.0490  0.2624
 8091SOL    HW125172   0.674   6.841   1.383 -0.7396  1.1822  0.6238
 8091SOL    HW225173   0.809   6.840   1.475 -0.7714 -0.4832  0.6824
 8092SOL     OW25174   6.063   5.484   3.786 -0.1454  0.0263 -0.1071
 8092SOL    HW125175   6.092   5.388   3.792 -0.1986 -0.1947 -2.4525
 8092SOL    HW225176   5.970   5.489   3.751 -1.3399  0.9073  2.8815
 8093SOL     OW25177   4.200   1.963   3.244  0.2641  0.4352  0.1387
 8093SOL    HW125178   4.291   1.974   3.206 -0.1490  0.3846 -0.8971
 8093SOL    HW225179   4.145   1.904   3.184 -0.5670  0.7874  0.5279
 8094SOL     OW25180   0.455   1.413   5.998 -0.1303 -0.1045  0.6949
 8094SOL    HW125181   0.458   1.329   5.945 -0.8721  0.4063 -0.1997
 8094SOL    HW225182   0.457   1.392   6.095 -0.3054 -1.1519  0.4800
 8095SOL     OW25183   1.011   1.619   2.970  0.3213 -0.9438 -0.4334
 8095SOL    HW125184   1.003   1.543   2.906  2.6448 -1.5252 -0.1084
 8095SOL    HW225185   1.041   1.585   3.059 -0.3853  0.1557  0.2536
 8096SOL     OW25186   1.319   0.491   6.572 -0.4023 -0.3809 -0.3805
 8096SOL    HW125187   1.295   0.544   6.653 -0.9899 -0.6607 -0.3648
 8096SOL    HW225188   1.405   0.525   6.533 -0.8266  0.6517 -0.4320
 8097SOL     OW25189   2.119   2.285   6.984 -0.1729 -0.2631  0.0795
 8097SOL    HW125190   2.161   2.197   6.962 -1.6153 -0.6769 -1.2594
 8097SOL    HW225191   2.021   2.272   7.001 -0.3610  1.0453  0.1459
 8098SOL     OW25192   3.447   0.805   1.739 -0.5681 -0.4842 -0.8169
 8098SOL    HW125193   3.418   0.717   1.775 -0.5059 -1.2807 -2.5811
 8098SOL    HW225194   3.444   0.874   1.811  1.4932 -2.3452  1.1994
 8099SOL     OW25195   5.309   0.115   3.201 -0.1028 -0.0310 -0.3236
 8099SOL    HW125196   5.242   0.082   3.268 -2.3506  0.4472 -2.2099
 8099SOL    HW225197   5.309   0.215   3.201  1.2375 -0.0051  0.1750
 8100SOL     OW25198   0.627   0.955   4.446  0.0442  0.0326 -0.0449
 8100SOL    HW125199   0.568   0.906   4.382  1.3505  0.3757 -1.5703
 8100SOL    HW225200   0.651   0.895   4.523 -1.7004 -0.3214  0.2575
 8101SOL     OW25201   1.631   6.670   1.226 -0.2089 -0.5308 -0.3394
 8101SOL    HW125202   1.583   6.751   1.260  1.1140 -0.3920  1.2906
 8101SOL    HW225203   1.632   6.600   1.297  1.2930 -0.8331 -0.6358
 8102SOL     OW25204   5.442   2.396   0.258  0.6738 -0.1244 -0.1239
 8102SOL    HW125205   5.489   2.483   0.274  2.2826 -0.4718 -2.4571
 8102SOL    HW225206   5.345   2.413   0.242  0.6359  1.0161  1.0905
 8103SOL     OW25207   4.895   3.073   3.189 -0.4538 -0.4445 -0.3761
 8103SOL    HW125208   4.807   3.076   3.142 -0.9863  0.5734  0.6265
 8103SOL    HW225209   4.962   3.025   3.132 -1.4481 -0.5543 -1.4909
 8104SOL     OW25210   1.212   3.485   3.873  0.0927  0.5158 -0.1950
 8104SOL    HW125211   1.186   3.461   3.779 -0.1019 -1.5089  0.3344
 8104SOL    HW225212   1.310   3.469   3.885  0.2990  1.6349 -0.2767
 8105SOL     OW25213   6.436   6.112   1.661 -0.3937  0.5436 -0.1774
 8105SOL    HW125214   6.464   6.208   1.656  2.3517 -0.2400 -1.6821
 8105SOL    HW225215   6.354   6.099   1.605  0.4411  1.6364 -1.7309
 8106SOL     OW25216   6.984   0.117   1.471  0.5220 -0.4956 -0.1181
 8106SOL    HW125217   6.909   0.076   1.521  0.3376 -0.5212 -0.4107
 8106SOL    HW225218   7.014   0.200   1.518 -0.0806 -0.1622 -0.3103
 8107SOL     OW25219   6.435   0.583   5.128  0.2600 -0.2329 -0.0870
 8107SOL    HW125220   6.375   0.662   5.116  2.3755  1.7755  1.6754
 8107SOL    HW225221   6.399   0.525   5.202 -0.4205 -0.0452 -0.2612
 8108SOL     OW25222   2.854   2.427   5.736 -0.0684 -0.4247 -0.2948
 8108SOL    HW125223   2.870   2.351   5.799 -0.1188 -1.4803 -1.5101
 8108SOL    HW225224   2.939   2.448   5.687 -0.2970 -0.3462 -0.6587
 8109SOL     OW25225   1.669   2.748   0.323  0.1929 -0.1957 -0.3448
 8109SOL    HW125226   1.673   2.753   0.423  2.1340 -0.7379 -0.3585
 8109SOL    HW225227   1.604   2.678   0.296  0.4669 -0.8244  0.5755
 8110SOL     OW25228   4.132   4.923   6.843 -0.7124  0.0996  0.3788
 8110SOL    HW125229   4.206   4.894   6.783 -1.2884 -0.3567 -0.1319
 8110SOL    HW225230   4.077   4.843   6.869 -0.1278  0.1919  2.0150
 8111SOL     OW25231   2.162   4.002   1.233  0.2073 -0.1488 -0.6274
 8111SOL    HW125232   2.175   3.992   1.135  1.1326 -0.7728 -0.4544
 8111SOL    HW225233   2.193   4.092   1.263 -0.2769  0.1221 -0.9333
 8112SOL     OW25234   2.273   0.666   4.837 -0.0818  0.1385 -0.1570
 8112SOL    HW125235   2.370   0.688   4.846  0.3726 -2.4434  3.0985
 8112SOL    HW225236   2.260   0.599   4.763  0.8453 -0.5708  0.3084
 8113SOL     OW25237   4.423   0.637   4.637  0.3295  0.2193  0.6310
 8113SOL    HW125238   4.447   0.599   4.726  0.2775 -2.5169 -0.4189
 8113SOL    HW225239   4.420   0.564   4.569 -0.1976  2.1183 -1.5342
 8114SOL     OW25240   2.145   0.223   3.102 -0.2588 -0.2448  0.2344
 8114SOL    HW125241   2.132   0.190   3.008  1.7459 -0.2490 -0.0810
 8114SOL    HW225242   2.232   0.188   3.138 -0.5102  0.5987  1.7351
 8115SOL     OW25243   4.457   3.844   0.368 -0.2698 -0.0921  0.4852
 8115SOL    HW125244   4.431   3.937   0.340  1.4355  0.7002  1.3735
 8115SOL    HW225245   4.451   3.783   0.289 -1.8778  0.6496 -0.0075
 8116SOL     OW25246   4.338   1.193   4.674 -0.1221 -0.2904  0.2689
 8116SOL    HW125247   4.251   1.186   4.723 -0.4862  2.5185  0.2034
 8116SOL    HW225248   4.413   1.204   4.740 -0.2001  0.1712  0.2860
 8117SOL     OW25249   6.027   6.504   6.588 -0.9120  0.3819 -0.4743
 8117SOL    HW125250   6.087   6.581   6.565  0.5558 -1.0454 -1.6689
 8117SOL    HW225251   5.971   6.482   6.508 -0.6891 -0.3484 -0.4272
 8118SOL     OW25252   1.986   6.062   3.055 -0.7648 -0.0421  0.1926
 8118SOL    HW125253   1.952   6.094   2.967 -0.8319 -0.4437  0.0701
 8118SOL    HW225254   1.936   6.107   3.129 -1.3309 -0.3749  0.0188
 8119SOL     OW25255   0.735   0.296   2.921 -0.0018 -0.1989 -0.0299
 8119SOL    HW125256   0.816   0.254   2.882  0.5757  1.0583 -0.2384
 8119SOL    HW225257   0.748   0.395   2.926 -1.2119 -0.0532  0.6682
 8120SOL     OW25258   1.328   0.079   4.564  0.3726  0.1676  0.1076
 8120SOL    HW125259   1.340   0.176   4.585  1.8936  0.0918 -0.2937
 8120SOL    HW225260   1.361   0.024   4.640 -0.0923 -0.0529  0.1555
 8121SOL     OW25261   5.580   3.201   5.083 -0.7595  0.2229 -0.2264
 8121SOL    HW125262   5.594   3.102   5.089 -0.5529  0.2357 -0.4799
 8121SOL    HW225263   5.573   3.228   4.987  0.0164  0.5678 -0.1911
 8122SOL     OW25264   5.095   4.487   2.365 -0.1771  0.5720  0.0862
 8122SOL    HW125265   5.115   4.437   2.449 -1.0382 -1.7019 -0.9688
 8122SOL    HW225266   5.175   4.486   2.306 -0.1773  0.4527  0.0873
 8123SOL     OW25267   0.793   5.737   4.330 -0.1638  0.1259  0.4750
 8123SOL    HW125268   0.758   5.650   4.365  0.4529 -0.3544 -0.0924
 8123SOL    HW225269   0.821   5.794   4.407  0.2571 -0.5359  0.8283
 8124SOL     OW25270   3.237   5.055   6.642  0.2246  0.4173 -0.3784
 8124SOL    HW125271   3.324   5.076   6.685 -1.2158  0.0067  3.1100
 8124SOL    HW225272   3.165   5.052   6.712 -2.0763 -2.3162 -2.6053
 8125SOL     OW25273   1.867   1.567   6.783  0.2657  0.5857  0.1127
 8125SOL    HW125274   1.793   1.560   6.850 -0.1075 -1.2662 -0.4471
 8125SOL    HW225275   1.954   1.548   6.828  0.0239 -0.5836  0.1111
 8126SOL     OW25276   0.925   0.830   4.788 -0.8571 -0.6183  0.5995
 8126SOL    HW125277   0.917   0.806   4.885  2.2190 -1.0707  0.8507
 8126SOL    HW225278   0.970   0.919   4.779 -0.4574 -0.9048 -0.4072
 8127SOL     OW25279   6.421   5.255   2.867 -0.1130  0.3078 -0.5362
 8127SOL    HW125280   6.328   5.251   2.904 -0.0507 -1.2477 -0.4993
 8127SOL    HW225281   6.417   5.277   2.770 -0.5049  0.4946 -0.4789
 8128SOL     OW25282   6.997   0.863   6.357 -0.2620  0.4811 -0.3894
 8128SOL    HW125283   6.954   0.915   6.431  1.0833  1.0951 -0.0138
 8128SOL    HW225284   7.094   0.887   6.350 -0.1746 -0.1559 -1.8453
 8129SOL     OW25285   1.241   1.128   3.567  0.0474 -0.1232  0.0898
 8129SOL    HW125286   1.316   1.083   3.520  0.3217  0.7315 -0.3131
 8129SOL    HW225287   1.204   1.067   3.637  0.4949 -0.9049 -0.3446
 8130SOL     OW25288   2.773   4.331   6.756 -0.1610 -0.1754  0.1188
 8130SOL    HW125289   2.736   4.354   6.846 -1.0474 -0.3515 -0.1832
 8130SOL    HW225290   2.848   4.267   6.766  0.9478  1.1790  0.8433
 8131SOL     OW25291   4.652   4.744   0.870 -0.0713 -0.0254 -0.0866
 8131SOL    HW125292   4.663   4.709   0.963 -0.1117  0.1322 -0.0214
 8131SOL    HW225293   4.701   4.685   0.806 -0.9950 -0.7948 -0.1015
 8132SOL     OW25294   0.330   0.724   5.310  0.4843  0.0090 -0.2581
 8132SOL    HW125295   0.343   0.640   5.364 -0.1369  1.1240  1.7210
 8132SOL    HW225296   0.420   0.764   5.289  0.7831 -1.0983 -1.1731
 8133SOL     OW25297   3.295   1.017   4.923  0.2209 -0.2488 -0.7087
 8133SOL    HW125298   3.296   1.075   5.005 -0.1268  1.4189 -1.8380
 8133SOL    HW225299   3.231   1.055   4.856 -0.2704 -2.1557 -1.3712
 8134SOL     OW25300   2.242   1.180   6.661  0.3037 -0.0942  0.0509
 8134SOL    HW125301   2.185   1.197   6.742  0.8453 -1.7810  0.8354
 8134SOL    HW225302   2.297   1.262   6.642  0.0589  0.3969  1.3132
 8135SOL     OW25303   3.826   2.554   6.615  0.0935  0.1795  0.3360
 8135SOL    HW125304   3.829   2.543   6.714 -1.3904 -1.4597  0.2436
 8135SOL    HW225305   3.733   2.576   6.586  0.0916 -1.2279 -0.8312
 8136SOL     OW25306   2.723   5.383   0.715  0.2599  0.1456 -0.0525
 8136SOL    HW125307   2.717   5.422   0.807  1.5747 -2.0364  1.0298
 8136SOL    HW225308   2.786   5.437   0.660 -1.5779  2.2891 -0.2073
 8137SOL     OW25309   0.754   5.359   1.035  0.0441 -0.2840 -0.0711
 8137SOL    HW125310   0.835   5.334   0.981  0.3193 -3.3784  1.5609
 8137SOL    HW225311   0.680   5.294   1.016 -0.3790 -0.4821  2.0387
 8138SOL     OW25312   0.699   0.395   6.491 -0.3382 -0.2625 -0.5698
 8138SOL    HW125313   0.754   0.429   6.415 -2.7869  2.1913 -1.3768
 8138SOL    HW225314   0.615   0.354   6.455 -1.0270 -0.0548  0.7545
 8139SOL     OW25315   0.614   6.185   4.751  0.1630 -0.0413 -0.4697
 8139SOL    HW125316   0.647   6.272   4.787  0.0583  0.5230 -1.6955
 8139SOL    HW225317   0.557   6.201   4.671  0.4187 -1.2543 -0.9162
 8140SOL     OW25318   0.508   6.766   3.347 -0.5432  0.4938  0.6676
 8140SOL    HW125319   0.536   6.788   3.440 -0.6782 -1.5637  1.2531
 8140SOL    HW225320   0.551   6.829   3.282  3.8848 -1.1709  1.6504
 8141SOL     OW25321   3.515   1.360   1.473 -0.0732 -0.4867  0.5408
 8141SOL    HW125322   3.445   1.289   1.481  0.5231 -1.1062  0.3683
 8141SOL    HW225323   3.596   1.322   1.428  0.2342  0.3219  0.3939
 8142SOL     OW25324   2.688   1.647   0.634  0.2402  0.3074 -1.0999
 8142SOL    HW125325   2.628   1.568   0.631  1.0698 -0.4541  0.7575
 8142SOL    HW225326   2.646   1.719   0.689  1.1290 -0.3898  0.5715
 8143SOL     OW25327   3.713   1.153   2.546 -0.1277  0.2425 -0.1614
 8143SOL    HW125328   3.632   1.095   2.551 -0.1445  0.2306 -0.5576
 8143SOL    HW225329   3.684   1.247   2.526  0.0952 -0.1719 -2.6512
 8144SOL     OW25330   3.924   4.529   1.325 -0.6417 -0.0396  0.3856
 8144SOL    HW125331   3.921   4.611   1.381  1.9590 -0.3013  1.0244
 8144SOL    HW225332   3.951   4.450   1.381  0.3553 -0.6236 -0.8509
 8145SOL     OW25333   5.487   2.355   1.779  0.0117  0.1754 -0.2561
 8145SOL    HW125334   5.471   2.258   1.758 -1.5429  0.4002 -0.1606
 8145SOL    HW225335   5.585   2.374   1.770 -0.0826 -0.3291 -4.9503
 8146SOL     OW25336   1.402   3.237   2.224  0.1663 -0.3917 -0.4970
 8146SOL    HW125337   1.364   3.196   2.141  0.7414 -0.2177 -0.8503
 8146SOL    HW225338   1.391   3.336   2.220 -1.4944 -0.4893  0.4935
 8147SOL     OW25339   6.885   2.703   2.412  0.1267 -0.3970  0.4320
 8147SOL    HW125340   6.788   2.721   2.395 -0.0238  1.3348  2.6904
 8147SOL    HW225341   6.909   2.613   2.374 -2.0583 -0.4071 -1.1142
 8148SOL     OW25342   1.711   2.432   5.630 -0.3091 -0.3241 -0.3649
 8148SOL    HW125343   1.802   2.418   5.590  0.0084  1.0695 -0.2078
 8148SOL    HW225344   1.641   2.407   5.563  0.1470 -2.2331 -0.1938
 8149SOL     OW25345   2.137   6.001   0.704 -0.6286  0.2477 -0.2106
 8149SOL    HW125346   2.203   6.059   0.752 -0.1711 -0.8970  0.6170
 8149SOL    HW225347   2.056   5.988   0.762 -0.8715  0.3336 -0.5297
 8150SOL     OW25348   6.867   3.047   3.293 -1.0797  0.1898 -0.4991
 8150SOL    HW125349   6.960   3.012   3.297 -0.9722  0.5117 -0.1772
 8150SOL    HW225350   6.811   3.000   3.361 -0.8504  0.8816  0.1854
 8151SOL     OW25351   1.389   0.110   4.023  0.1992 -0.3640 -0.4047
 8151SOL    HW125352   1.373   0.153   3.934  0.8563 -0.6527 -0.6680
 8151SOL    HW225353   1.310   0.127   4.083 -0.1304  0.0593 -0.9484
 8152SOL     OW25354   4.739   1.646   2.645  0.1372  0.8214 -0.5696
 8152SOL    HW125355   4.779   1.643   2.736 -0.3383  2.6180 -0.2798
 8152SOL    HW225356   4.812   1.641   2.576  0.6925  1.8126 -0.0676
 8153SOL     OW25357   4.268   2.000   0.470 -0.5048  0.0767  0.0595
 8153SOL    HW125358   4.190   1.950   0.431  0.7349 -0.4920 -1.8248
 8153SOL    HW225359   4.338   2.013   0.400  1.6452 -0.4855  1.9834
 8154SOL     OW25360   6.379   2.112   6.080 -0.0478  0.5747 -0.3228
 8154SOL    HW125361   6.337   2.063   6.002  0.8917 -1.0344  0.1288
 8154SOL    HW225362   6.473   2.135   6.057  0.0804  0.5298  0.1672
 8155SOL     OW25363   3.443   3.556   1.627  0.5258  0.2404  0.1963
 8155SOL    HW125364   3.511   3.602   1.569 -0.3328 -0.8645 -1.8066
 8155SOL    HW225365   3.487   3.484   1.680  0.8749 -0.8675 -1.5261
 8156SOL     OW25366   2.496   2.393   3.782  0.2466 -0.4691  0.0109
 8156SOL    HW125367   2.416   2.336   3.764 -0.3954  0.5138 -0.3285
 8156SOL    HW225368   2.479   2.452   3.861 -0.0428  0.9397 -1.0625
 8157SOL     OW25369   5.753   4.120   5.440 -0.3588  0.5486 -0.4826
 8157SOL    HW125370   5.718   4.099   5.531  0.8985 -1.2123 -0.3529
 8157SOL    HW225371   5.833   4.180   5.449 -0.1971  0.3255 -0.3970
 8158SOL     OW25372   3.182   3.392   3.196 -0.1176 -0.3590 -0.0941
 8158SOL    HW125373   3.087   3.390   3.164 -0.7837 -2.3968  1.8024
 8158SOL    HW225374   3.239   3.341   3.131 -0.4154  0.3295 -0.9136
 8159SOL     OW25375   0.261   4.176   6.065  0.3658 -0.2047  0.2698
 8159SOL    HW125376   0.179   4.212   6.110  0.8329  1.3916 -0.0672
 8159SOL    HW225377   0.245   4.170   5.967  1.0119  1.3286  0.0339
 8160SOL     OW25378   5.871   2.772   0.383  0.7948  0.9917 -0.5851
 8160SOL    HW125379   5.840   2.694   0.329 -0.0938 -1.7786  3.4627
 8160SOL    HW225380   5.793   2.833   0.401  0.0722 -0.3115  0.8833
 8161SOL     OW25381   2.082   2.890   1.092 -0.4718  0.0313 -0.5635
 8161SOL    HW125382   2.071   2.917   1.187  0.1408 -1.8236  0.0695
 8161SOL    HW225383   1.991   2.879   1.050 -0.7476  1.5653 -0.4623
 8162SOL     OW25384   5.965   2.439   1.027  0.0071  0.6545  0.5533
 8162SOL    HW125385   5.877   2.482   1.047  0.6810  2.1980  0.3204
 8162SOL    HW225386   5.980   2.437   0.928 -0.2347 -0.6002  0.5317
 8163SOL     OW25387   6.456   0.325   4.085  0.0358  0.1855 -0.3820
 8163SOL    HW125388   6.413   0.411   4.056 -1.4161 -0.2940  0.2653
 8163SOL    HW225389   6.517   0.293   4.013  0.6352  1.7652 -0.6233
 8164SOL     OW25390   6.983   4.660   2.092  0.0335 -0.1753  0.1120
 8164SOL    HW125391   6.895   4.664   2.140 -1.5520  0.3471 -2.5721
 8164SOL    HW225392   7.013   4.753   2.071  1.2299 -0.3558  0.9253
 8165SOL     OW25393   2.252   6.248   1.455 -0.0369 -0.0871 -0.4777
 8165SOL    HW125394   2.171   6.198   1.426  0.8334 -1.3561 -0.7761
 8165SOL    HW225395   2.329   6.224   1.396  0.5510  1.1547 -0.2489
 8166SOL     OW25396   5.204   2.184   0.099 -0.2647  0.1085  0.3648
 8166SOL    HW125397   5.247   2.265   0.059  1.2390  1.7123  4.5692
 8166SOL    HW225398   5.109   2.206   0.124  0.0669  0.5664  1.2815
 8167SOL     OW25399   2.654   2.072   4.297 -0.0821  0.2082 -0.1065
 8167SOL    HW125400   2.699   2.103   4.213 -1.7640  0.8919 -0.8234
 8167SOL    HW225401   2.630   2.151   4.353 -1.0412 -0.0596 -0.1181
 8168SOL     OW25402   5.472   1.026   2.031  0.2632 -0.4100  0.0943
 8168SOL    HW125403   5.508   1.089   1.962 -0.7799  0.3665  0.2384
 8168SOL    HW225404   5.437   1.078   2.109  0.1965 -1.2157  0.6165
 8169SOL     OW25405   4.551   3.477   6.987 -0.4420  0.1653 -0.3064
 8169SOL    HW125406   4.479   3.435   6.931 -0.5870 -0.4593  0.3263
 8169SOL    HW225407   4.621   3.517   6.927 -1.3740  0.9050 -0.9300
 8170SOL     OW25408   5.711   4.714   2.855  0.0445 -0.1460 -0.5673
 8170SOL    HW125409   5.716   4.628   2.905 -0.0205  0.7211  1.0019
 8170SOL    HW225410   5.787   4.720   2.791 -0.4227 -1.7151 -1.3226
 8171SOL     OW25411   1.426   4.058   3.429 -0.1835  0.5890 -0.7779
 8171SOL    HW125412   1.513   4.009   3.433 -0.2647  0.4102 -1.1574
 8171SOL    HW225413   1.359   4.013   3.489 -0.7166 -0.7047 -2.2799
 8172SOL     OW25414   5.742   0.180   4.434 -0.0426 -0.2141  0.4540
 8172SOL    HW125415   5.650   0.173   4.473 -0.7642  2.1666 -0.6120
 8172SOL    HW225416   5.788   0.261   4.471  0.6723 -0.0110 -0.8117
 8173SOL     OW25417   4.723   4.349   3.739 -0.8522 -0.2699 -0.0888
 8173SOL    HW125418   4.694   4.385   3.827  0.1096 -1.7249  0.8788
 8173SOL    HW225419   4.673   4.394   3.666 -2.1154  0.5382  1.2272
 8174SOL     OW25420   6.394   0.459   5.368 -0.1520  0.1826  0.3747
 8174SOL    HW125421   6.464   0.461   5.439  0.2637  1.5569 -0.0401
 8174SOL    HW225422   6.316   0.405   5.400  1.4779 -2.2783  0.4414
 8175SOL     OW25423   6.262   5.080   3.183 -0.2924 -0.3045  0.1508
 8175SOL    HW125424   6.282   5.067   3.086 -0.1479  1.1601 -0.0342
 8175SOL    HW225425   6.224   4.995   3.221  2.3796 -1.8883 -0.4454
 8176SOL     OW25426   4.931   3.673   2.649 -0.5818 -0.2388  0.3813
 8176SOL    HW125427   4.885   3.632   2.569 -0.6616 -2.7050  1.5835
 8176SOL    HW225428   5.030   3.663   2.639 -0.5055  0.8210 -0.0593
 8177SOL     OW25429   3.709   5.346   6.471  0.2786 -0.4745  0.4049
 8177SOL    HW125430   3.677   5.315   6.561 -1.3159 -0.8914 -0.2610
 8177SOL    HW225431   3.631   5.383   6.420  1.5870  2.0723  0.0971
 8178SOL     OW25432   6.408   5.326   0.012  0.2492 -0.2197  0.2313
 8178SOL    HW125433   6.423   5.393  -0.062  2.4987 -0.8040  0.0721
 8178SOL    HW225434   6.334   5.264  -0.013 -0.9119  1.3058 -0.2585
 8179SOL     OW25435   6.470   1.481   2.107 -0.6214 -0.3901  0.2975
 8179SOL    HW125436   6.421   1.504   2.023 -1.7186 -1.0647  0.7283
 8179SOL    HW225437   6.501   1.386   2.102 -1.2277 -0.6272  0.8895
 8180SOL     OW25438   1.724   0.328   0.820  0.8813  0.6582  0.0252
 8180SOL    HW125439   1.745   0.314   0.724  0.8924 -0.3701  0.1733
 8180SOL    HW225440   1.679   0.417   0.832  0.5306  0.6196 -0.9776
 8181SOL     OW25441   5.816   1.470   1.339 -0.1616  0.0072 -0.6291
 8181SOL    HW125442   5.768   1.520   1.267 -0.8747  0.8423  0.4011
 8181SOL    HW225443   5.766   1.386   1.361 -2.1442  1.6437  1.5521
 8182SOL     OW25444   0.780   2.848   0.781  0.1870  0.2052 -0.3437
 8182SOL    HW125445   0.689   2.887   0.787 -0.4114 -0.8751 -1.7380
 8182SOL    HW225446   0.840   2.910   0.731  0.2429  0.9333  0.6081
 8183SOL     OW25447   1.221   5.067   3.910 -0.0259 -0.6419  0.0887
 8183SOL    HW125448   1.144   5.066   3.846  1.9411  0.4192 -2.4759
 8183SOL    HW225449   1.213   5.147   3.969 -0.5584 -0.1681 -0.6005
 8184SOL     OW25450   4.439   0.032   5.827  0.2118 -0.2365 -0.2187
 8184SOL    HW125451   4.459  -0.046   5.885 -1.7589 -0.7483 -0.1422
 8184SOL    HW225452   4.426   0.001   5.732  1.1545  0.2694 -0.5279
 8185SOL     OW25453   4.334   5.088   0.984  0.0402 -0.0184 -0.0042
 8185SOL    HW125454   4.388   5.011   0.949  0.9437 -0.0519  1.3910
 8185SOL    HW225455   4.384   5.132   1.058 -0.5414  1.8228 -0.6570
 8186SOL     OW25456   2.748   5.629   5.799 -0.0202  0.3806  0.1809
 8186SOL    HW125457   2.678   5.627   5.728  0.1225  0.0242  0.0481
 8186SOL    HW225458   2.826   5.684   5.768 -0.1915  0.6816  0.2827
 8187SOL     OW25459   6.505   4.016   3.342  0.5140  0.1823  0.4689
 8187SOL    HW125460   6.516   4.115   3.341  1.2298  0.1331 -1.9763
 8187SOL    HW225461   6.546   3.977   3.260 -0.7650 -2.0371  0.8084
 8188SOL     OW25462   4.714   4.838   6.620  0.4589  0.5645 -0.1884
 8188SOL    HW125463   4.628   4.888   6.635  0.3364  0.0535  0.9164
 8188SOL    HW225464   4.785   4.902   6.590  0.3452  1.4611  1.3570
 8189SOL     OW25465   5.714   5.592   6.229  0.1937  0.4043 -0.6144
 8189SOL    HW125466   5.648   5.586   6.155 -0.4352  0.2830 -0.0579
 8189SOL    HW225467   5.796   5.540   6.206  0.1984  0.7585 -1.4130
 8190SOL     OW25468   4.195   1.165   0.121  0.5092 -0.0163  0.0609
 8190SOL    HW125469   4.193   1.080   0.174  1.6417  0.4997  0.9843
 8190SOL    HW225470   4.278   1.167   0.065  0.4906  0.4662  0.0458
 8191SOL     OW25471   1.637   5.013   6.633 -0.6951 -0.1915  0.1421
 8191SOL    HW125472   1.733   4.994   6.614 -0.0019 -1.1987  3.8851
 8191SOL    HW225473   1.582   4.934   6.605  0.3255 -1.8593  2.5166
 8192SOL     OW25474   0.170   0.516   1.079  0.2755  0.1646  0.1580
 8192SOL    HW125475   0.245   0.569   1.039  0.5424 -0.7713 -0.6106
 8192SOL    HW225476   0.135   0.451   1.012 -0.4883 -0.1768  0.8716
 8193SOL     OW25477   0.175   2.175   5.344 -0.5823  0.3316 -0.3424
 8193SOL    HW125478   0.181   2.266   5.303  2.7713 -0.1215 -1.1625
 8193SOL    HW225479   0.133   2.111   5.280 -0.8932  0.8380 -0.6474
 8194SOL     OW25480   3.815   2.153   4.159 -0.5731 -0.3199 -0.4906
 8194SOL    HW125481   3.898   2.197   4.191 -0.3439 -1.1204  0.0536
 8194SOL    HW225482   3.774   2.208   4.086 -0.4971  0.9509  0.3940
 8195SOL     OW25483   3.542   6.710   0.713  0.3932 -0.1553 -0.1870
 8195SOL    HW125484   3.582   6.800   0.698  1.0886 -0.4873 -0.3522
 8195SOL    HW225485   3.535   6.662   0.625 -1.7110  0.4279 -0.4078
 8196SOL     OW25486   1.017   0.831   6.589  0.1384  0.0833  0.0385
 8196SOL    HW125487   1.077   0.888   6.533  0.3761 -1.0566 -0.9194
 8196SOL    HW225488   0.980   0.756   6.533  1.7174 -2.1219  1.7557
 8197SOL     OW25489   5.263   6.534   6.130  0.4091 -0.0856  0.0675
 8197SOL    HW125490   5.350   6.572   6.163  0.9738 -0.0907 -1.3591
 8197SOL    HW225491   5.209   6.606   6.087  0.4121 -0.3931 -0.4610
 8198SOL     OW25492   5.331   1.541   6.294 -0.2523 -0.9411  0.7521
 8198SOL    HW125493   5.316   1.590   6.380  1.2746 -0.7749  0.9454
 8198SOL    HW225494   5.422   1.562   6.258 -0.8814 -0.9755 -0.9468
 8199SOL     OW25495   6.358   0.481   5.704  0.0991 -0.3936  0.3608
 8199SOL    HW125496   6.443   0.525   5.673 -1.7515  2.8102 -0.6503
 8199SOL    HW225497   6.336   0.405   5.643  2.5214 -1.7327  1.0537
 8200SOL     OW25498   6.508   6.742   1.781 -0.0011  0.1902  0.3957
 8200SOL    HW125499   6.410   6.731   1.760  0.0925 -0.6291  0.3404
 8200SOL    HW225500   6.543   6.823   1.734 -0.2882 -0.4118 -0.8963
 8201SOL     OW25501   2.019   2.493   6.498  0.0742  0.8671  0.6335
 8201SOL    HW125502   2.083   2.423   6.528  1.4214  1.1800 -1.2924
 8201SOL    HW225503   1.958   2.455   6.428  1.5634  1.8189 -1.2706
 8202SOL     OW25504   4.948   1.287   0.970  0.1922 -0.3059  0.3211
 8202SOL    HW125505   4.849   1.281   0.981  0.1023  2.3889  2.0710
 8202SOL    HW225506   4.989   1.325   1.054  2.4848  0.2919 -0.9535
 8203SOL     OW25507   3.909   3.708   5.881 -0.5745 -0.0162 -0.5855
 8203SOL    HW125508   4.003   3.692   5.913 -0.3331  1.2291 -0.6075
 8203SOL    HW225509   3.865   3.776   5.940 -1.7017 -1.0660 -0.1832
 8204SOL     OW25510   3.133   5.076   4.749 -0.3816 -0.5164 -0.3834
 8204SOL    HW125511   3.043   5.080   4.794 -1.1552 -0.0418 -1.9025
 8204SOL    HW225512   3.127   5.119   4.659  1.2551 -0.9699 -0.7382
 8205SOL     OW25513   1.674   0.289   3.714 -0.1954  0.1908  0.2272
 8205SOL    HW125514   1.712   0.333   3.796  1.6119 -2.3950  0.9049
 8205SOL    HW225515   1.583   0.327   3.695 -1.4130 -0.1148  4.3856
 8206SOL     OW25516   3.537   1.558   4.313 -0.3953 -0.2734 -0.3109
 8206SOL    HW125517   3.497   1.528   4.400 -0.3823 -0.6076 -0.4196
 8206SOL    HW225518   3.631   1.587   4.328 -0.0080 -1.4272 -0.4081
 8207SOL     OW25519   2.902   6.184   6.890  0.4606 -0.0350 -0.3600
 8207SOL    HW125520   2.850   6.194   6.805  1.0776 -4.4534 -1.4888
 8207SOL    HW225521   2.980   6.247   6.888  0.7187 -0.2820 -3.3459
 8208SOL     OW25522   1.556   1.728   2.680  0.1293  0.6224 -0.3984
 8208SOL    HW125523   1.559   1.707   2.582  1.2129  2.7710 -0.8776
 8208SOL    HW225524   1.606   1.812   2.698  0.4126  0.0033  2.1168
 8209SOL     OW25525   6.791   1.173   2.766  0.1841  0.0771  0.2451
 8209SOL    HW125526   6.847   1.238   2.714  1.3432  0.5166  1.9736
 8209SOL    HW225527   6.830   1.082   2.758 -1.5110 -0.5427 -2.2824
 8210SOL     OW25528   3.956   3.048   4.455 -0.1863  0.1989 -0.0459
 8210SOL    HW125529   3.865   3.089   4.457  0.8723  2.8135 -0.7749
 8210SOL    HW225530   3.997   3.051   4.546 -0.2834  0.4338 -0.0093
 8211SOL     OW25531   7.017   5.029   3.301  0.2847 -0.3870  0.0952
 8211SOL    HW125532   6.958   5.104   3.331  0.7171  1.1494 -2.5985
 8211SOL    HW225533   7.010   5.018   3.202  2.0545 -2.3635  0.1066
 8212SOL     OW25534   2.110   0.843   3.916 -0.7997  0.1720 -0.3876
 8212SOL    HW125535   2.029   0.785   3.922 -1.2185  0.6809 -0.9911
 8212SOL    HW225536   2.096   0.912   3.845 -0.0453  0.5933 -0.1344
 8213SOL     OW25537   3.068   0.740   6.783 -0.3529  0.0831  0.4517
 8213SOL    HW125538   3.109   0.691   6.706 -1.3985 -0.1494  0.0370
 8213SOL    HW225539   2.969   0.737   6.777 -0.4725  2.1009  0.4956
 8214SOL     OW25540   6.638   2.731   5.868 -0.3960 -0.2299  0.6402
 8214SOL    HW125541   6.579   2.808   5.891  0.4982  0.1481  1.7593
 8214SOL    HW225542   6.646   2.723   5.769 -0.4988  1.1199  0.5113
 8215SOL     OW25543   3.449   1.586   2.632  0.0677  0.9113  0.1560
 8215SOL    HW125544   3.403   1.577   2.720  0.5824  1.5362  0.4947
 8215SOL    HW225545   3.431   1.676   2.594  0.6750  1.0139  0.0994
 8216SOL     OW25546   2.008   1.776   0.179  0.0794 -0.4404  0.0859
 8216SOL    HW125547   1.943   1.804   0.109 -0.4568 -0.1873  0.6765
 8216SOL    HW225548   1.967   1.706   0.238 -0.2058  0.7563  1.3570
 8217SOL     OW25549   4.145   3.066   0.937 -0.5824  0.6175  0.3648
 8217SOL    HW125550   4.093   3.101   0.859 -2.0949 -0.5648  0.7837
 8217SOL    HW225551   4.102   2.983   0.971  1.2125 -0.0231  1.2196
 8218SOL     OW25552   0.252   5.610   6.096 -0.0110 -0.2859 -0.6081
 8218SOL    HW125553   0.187   5.674   6.055  0.4114  0.1259 -0.6516
 8218SOL    HW225554   0.333   5.603   6.037  1.0688  1.1279  0.6384
 8219SOL     OW25555   4.556   2.807   6.931  0.1888  0.0947  0.1075
 8219SOL    HW125556   4.513   2.716   6.932 -0.6300  0.4504  2.3926
 8219SOL    HW225557   4.656   2.796   6.932  0.1431 -0.7321 -0.9629
 8220SOL     OW25558   3.202   3.763   2.426 -0.2859 -0.0205  0.1514
 8220SOL    HW125559   3.216   3.855   2.391  0.8198 -0.1225  0.2908
 8220SOL    HW225560   3.216   3.697   2.352 -2.1803 -0.0529 -0.2321
 8221SOL     OW25561   6.566   0.456   0.336  0.0895  0.5886 -0.3762
 8221SOL    HW125562   6.541   0.388   0.405  0.5073 -0.2323 -1.0074
 8221SOL    HW225563   6.483   0.497   0.298 -0.1377  3.2001  2.6180
 8222SOL     OW25564   6.257   5.073   5.462  0.3505  0.2409 -0.2263
 8222SOL    HW125565   6.340   5.062   5.516 -0.4605  1.1750  1.2644
 8222SOL    HW225566   6.230   5.170   5.462 -0.2934  0.0799 -1.3824
 8223SOL     OW25567   7.001   0.533   3.829 -0.1609 -0.6041 -0.2274
 8223SOL    HW125568   7.011   0.627   3.860  0.2692 -0.3878 -1.0031
 8223SOL    HW225569   6.904   0.511   3.820 -0.2574 -0.1343 -0.3560
 8224SOL     OW25570   3.170   5.980   6.167 -0.5637 -0.4021  0.4313
 8224SOL    HW125571   3.101   5.920   6.126  0.3529 -1.5380  0.5038
 8224SOL    HW225572   3.214   6.035   6.096  0.6157 -1.9406 -0.0792
 8225SOL     OW25573   4.846   4.232   1.510 -0.3420 -0.4357  0.0727
 8225SOL    HW125574   4.818   4.252   1.603  1.6015 -0.3985  0.6978
 8225SOL    HW225575   4.819   4.307   1.450 -1.2065 -0.2483  0.6874
 8226SOL     OW25576   0.751   2.207   1.863 -0.1701  0.3601 -0.1723
 8226SOL    HW125577   0.715   2.179   1.952 -2.5247  2.2379 -0.4109
 8226SOL    HW225578   0.818   2.281   1.875  0.4489 -0.2389  0.0834
 8227SOL     OW25579   2.538   2.037   5.730  0.2957 -0.4586  0.1046
 8227SOL    HW125580   2.582   2.122   5.703  0.0059 -1.3184 -3.5974
 8227SOL    HW225581   2.603   1.980   5.779  0.4944  1.7860  2.6555
 8228SOL     OW25582   2.226   4.119   0.605  0.2560 -0.1731 -0.0736
 8228SOL    HW125583   2.306   4.179   0.604 -0.8350  1.3614  0.7124
 8228SOL    HW225584   2.242   4.042   0.668 -0.0960  1.9398  2.7806
 8229SOL     OW25585   2.198   1.599   1.664  0.6741 -0.3185  0.4321
 8229SOL    HW125586   2.264   1.599   1.588  0.2183 -2.0808  0.0015
 8229SOL    HW225587   2.222   1.526   1.729 -0.4174 -0.4924  0.6526
 8230SOL     OW25588   0.063   0.429   3.207  0.5242 -0.0924  0.1000
 8230SOL    HW125589   0.020   0.476   3.284 -0.2485 -0.1262 -0.2954
 8230SOL    HW225590  -0.008   0.387   3.150  0.7572  2.3787 -2.2503
 8231SOL     OW25591   0.056   4.627   0.514  0.3375  0.4240  0.5546
 8231SOL    HW125592   0.026   4.568   0.589 -1.3061  1.7655  1.0199
 8231SOL    HW225593   0.037   4.582   0.427 -1.7420  0.5622  0.8767
 8232SOL     OW25594   6.047   4.198   1.832  0.0430 -0.6216 -0.3678
 8232SOL    HW125595   6.061   4.288   1.874  0.9142 -0.9937  0.1773
 8232SOL    HW225596   5.968   4.201   1.771 -1.0644  0.0288  1.0443
 8233SOL     OW25597   3.491   4.168   5.108 -0.3586  0.0755 -0.2303
 8233SOL    HW125598   3.399   4.129   5.097 -0.4267  0.1191  0.1687
 8233SOL    HW225599   3.495   4.221   5.193  0.0169  0.1309 -0.2806
 8234SOL     OW25600   1.265   3.363   1.963 -0.1968 -0.7768 -0.2874
 8234SOL    HW125601   1.252   3.264   1.976  0.6434 -0.6755  1.6847
 8234SOL    HW225602   1.179   3.410   1.980 -0.3256 -1.0884 -0.0621
 8235SOL     OW25603   0.458   2.548   1.002  0.6835 -0.4496  0.0516
 8235SOL    HW125604   0.472   2.609   1.080 -0.4143 -1.0069  0.7112
 8235SOL    HW225605   0.527   2.476   1.004  0.5077 -0.6083  0.6645
 8236SOL     OW25606   3.013   1.626   3.626  0.5629 -0.4118  0.1153
 8236SOL    HW125607   2.951   1.612   3.549  0.8594  1.6623 -0.5563
 8236SOL    HW225608   3.094   1.568   3.614 -0.6057 -2.1689  0.3425
 8237SOL     OW25609   6.526   4.602   0.509 -0.4662 -0.2188  0.0224
 8237SOL    HW125610   6.598   4.569   0.570 -1.0996 -0.7858  0.4861
 8237SOL    HW225611   6.469   4.668   0.557  0.9534  1.8342 -0.9872
 8238SOL     OW25612   3.659   2.792   6.048 -0.0429  0.1525  0.0063
 8238SOL    HW125613   3.753   2.773   6.017 -0.7212 -4.4191 -0.0176
 8238SOL    HW225614   3.595   2.775   5.973 -1.0917 -1.6917  1.2251
 8239SOL     OW25615   5.715   4.543   1.285 -0.2236  0.0314  0.0394
 8239SOL    HW125616   5.808   4.570   1.262 -0.1019 -0.3868  0.0263
 8239SOL    HW225617   5.650   4.599   1.235  0.0127  0.6890  0.4604
 8240SOL     OW25618   3.967   4.661   6.589 -0.2842  0.0648 -0.1482
 8240SOL    HW125619   4.025   4.623   6.661  0.1545  0.8929 -0.0526
 8240SOL    HW225620   3.871   4.648   6.613 -0.1616 -1.2215 -0.2530
 8241SOL     OW25621   1.288   1.974   0.329 -0.0660  0.3552 -0.6044
 8241SOL    HW125622   1.319   1.879   0.331 -1.2663 -0.0541  1.0844
 8241SOL    HW225623   1.236   1.993   0.412 -0.5035  2.2845 -1.2770
 8242SOL     OW25624   4.291   5.043   4.730  0.3072  0.0568 -0.5799
 8242SOL    HW125625   4.260   5.128   4.687  1.4388  0.0976 -1.3431
 8242SOL    HW225626   4.387   5.027   4.709  0.5724 -0.5760  0.9293
 8243SOL     OW25627   6.551   3.033   2.349 -0.1979 -0.0594  0.4330
 8243SOL    HW125628   6.509   3.024   2.259  1.2800  0.5652 -0.3570
 8243SOL    HW225629   6.616   2.958   2.363 -1.7116 -1.2030  1.7727
 8244SOL     OW25630   1.005   2.554   0.467  0.2382 -0.1112 -0.4804
 8244SOL    HW125631   1.054   2.559   0.554  2.0598  2.2297 -1.5235
 8244SOL    HW225632   0.953   2.468   0.463  0.2071 -0.3826  2.7895
 8245SOL     OW25633   6.647   5.817   5.143  0.3098 -0.3535  0.3871
 8245SOL    HW125634   6.724   5.838   5.083  0.6896  2.2074  1.6047
 8245SOL    HW225635   6.564   5.857   5.104  0.9503  3.5011  2.4866
 8246SOL     OW25636   6.497   4.335   0.382 -0.1187 -0.8085 -0.0872
 8246SOL    HW125637   6.489   4.430   0.414  0.8650 -0.2697 -1.3516
 8246SOL    HW225638   6.441   4.324   0.300  0.6179 -1.0311 -0.5576
 8247SOL     OW25639   1.482   4.506   4.424  0.0315 -0.7004 -0.1319
 8247SOL    HW125640   1.465   4.548   4.513 -1.3678 -1.3499 -0.0517
 8247SOL    HW225641   1.570   4.536   4.389  1.0886 -1.2147  1.9284
 8248SOL     OW25642   1.818   0.441   3.249  0.2285 -0.1106  0.0648
 8248SOL    HW125643   1.876   0.360   3.250 -1.3843 -1.4751 -3.0342
 8248SOL    HW225644   1.871   0.519   3.216  1.6897  0.1322  2.7026
 8249SOL     OW25645   5.885   3.084   2.689 -0.7143 -0.3720  0.3023
 8249SOL    HW125646   5.905   3.000   2.638 -1.2847 -0.4586  0.2095
 8249SOL    HW225647   5.865   3.158   2.624  1.0877  0.1959  0.3442
 8250SOL     OW25648   3.795   2.934   4.254  1.1298  0.2718  0.2888
 8250SOL    HW125649   3.890   2.940   4.283  1.5588  1.7835 -1.2424
 8250SOL    HW225650   3.791   2.916   4.156 -0.1304  1.1634  0.1501
 8251SOL     OW25651   1.397   3.322   3.130  0.4392  0.0367  0.3107
 8251SOL    HW125652   1.411   3.348   3.035  0.7095 -1.1882 -0.0064
 8251SOL    HW225653   1.300   3.320   3.152  0.3516 -0.1983 -0.1015
 8252SOL     OW25654   0.163   6.678   1.629  0.5915 -0.3792  0.1817
 8252SOL    HW125655   0.106   6.609   1.675  1.3151 -1.0132  0.1442
 8252SOL    HW225656   0.145   6.675   1.530  1.6462 -1.5194  0.0001
 8253SOL     OW25657   0.221   6.978   3.024 -0.5149  0.0464 -0.5691
 8253SOL    HW125658   0.196   6.883   3.009 -1.6725  0.4065 -1.0465
 8253SOL    HW225659   0.278   7.011   2.949 -0.6095 -0.0966 -0.7025
 8254SOL     OW25660   6.717   6.710   0.931  0.7866 -0.1016  0.0661
 8254SOL    HW125661   6.792   6.645   0.921  1.8755  0.9064  1.4280
 8254SOL    HW225662   6.633   6.668   0.896  1.8801 -1.3787 -1.1798
 8255SOL     OW25663   5.851   5.766   4.765 -0.4241 -0.7918 -0.1219
 8255SOL    HW125664   5.886   5.717   4.686  1.4323 -0.4429  0.4460
 8255SOL    HW225665   5.802   5.703   4.825 -2.5158 -0.9302 -1.8474
 8256SOL     OW25666   0.783   2.403   1.632  0.3132 -0.1712  0.9069
 8256SOL    HW125667   0.795   2.305   1.618 -1.4055 -0.2697 -0.0561
 8256SOL    HW225668   0.738   2.444   1.553  0.6974  1.3619  1.4299
 8257SOL     OW25669   3.252   6.996   5.962  0.5369  0.1627  0.5827
 8257SOL    HW125670   3.246   7.008   6.061  1.2924  2.0815  0.4432
 8257SOL    HW225671   3.161   7.007   5.922  0.2387 -0.5681  1.0345
 8258SOL     OW25672   6.821   1.089   2.409 -0.5544 -0.2981  0.2686
 8258SOL    HW125673   6.837   1.158   2.480 -0.7320 -0.2126  0.2253
 8258SOL    HW225674   6.879   1.109   2.330  0.2875 -0.8881  0.7222
 8259SOL     OW25675   5.201   3.732   6.705  0.4698  0.1340  0.5731
 8259SOL    HW125676   5.247   3.764   6.622 -1.3101  0.6193 -0.2885
 8259SOL    HW225677   5.242   3.775   6.785 -1.7157  4.8828 -0.4539
 8260SOL     OW25678   6.759   6.069   5.499  0.0458 -0.6351 -0.9971
 8260SOL    HW125679   6.822   6.132   5.455 -0.7056 -1.6586 -3.7227
 8260SOL    HW225680   6.676   6.118   5.525  0.2698 -0.1217 -1.2393
 8261SOL     OW25681   2.770   2.011   3.416 -0.2969  0.2145  0.2024
 8261SOL    HW125682   2.726   1.932   3.457  0.0481 -0.6612 -1.0650
 8261SOL    HW225683   2.737   2.024   3.322  1.9514 -0.4012 -0.7554
 8262SOL     OW25684   6.323   3.411   6.309  0.8052  0.9445  0.1018
 8262SOL    HW125685   6.264   3.334   6.283  0.2478  0.7177  1.9256
 8262SOL    HW225686   6.276   3.467   6.377  2.4035  1.1893  1.0433
 8263SOL     OW25687   6.332   1.409   0.622  0.5273  0.4329 -0.1402
 8263SOL    HW125688   6.296   1.317   0.609 -0.2887  0.9974 -2.2402
 8263SOL    HW225689   6.368   1.418   0.715 -0.1164 -1.7277  0.3688
 8264SOL     OW25690   3.526   4.847   1.164  0.1276  0.4999  0.9919
 8264SOL    HW125691   3.549   4.756   1.131  0.2687 -0.1302  2.7675
 8264SOL    HW225692   3.442   4.878   1.118 -0.5211 -0.9574  1.1360
 8265SOL     OW25693   5.125   4.615   0.575 -0.2583 -0.3780  0.5620
 8265SOL    HW125694   5.204   4.661   0.536 -1.0253 -0.4189 -1.1296
 8265SOL    HW225695   5.042   4.665   0.551 -0.8974 -1.2695  0.8463
 8266SOL     OW25696   6.231   6.680   4.125  0.4418  0.3335  0.2778
 8266SOL    HW125697   6.328   6.662   4.141  0.1573 -1.2287  0.3971
 8266SOL    HW225698   6.200   6.627   4.046  0.1892  2.5841 -1.2344
 8267SOL     OW25699   6.082   2.011   1.184 -0.7072  0.9286 -0.1314
 8267SOL    HW125700   6.146   1.964   1.245 -0.4031  2.1511  0.5403
 8267SOL    HW225701   6.128   2.031   1.098 -0.7399  0.2889 -0.3022
 8268SOL     OW25702   2.432   0.685   3.427  0.1894  0.3909  0.3500
 8268SOL    HW125703   2.370   0.709   3.502  1.5211  1.2382  1.2323
 8268SOL    HW225704   2.427   0.586   3.410 -0.7338  0.3116  0.9892
 8269SOL     OW25705   2.554   6.882   4.929  0.2341  0.4759 -0.3938
 8269SOL    HW125706   2.577   6.789   4.957  1.0810  0.9768  0.6388
 8269SOL    HW225707   2.458   6.886   4.901  0.1606 -0.6733 -0.3306
 8270SOL     OW25708   2.036   5.871   4.198 -0.1229 -0.2741  0.6480
 8270SOL    HW125709   2.050   5.928   4.279  0.8704  0.5149 -0.0614
 8270SOL    HW225710   2.064   5.777   4.218  2.1881  0.3669  0.5898
 8271SOL     OW25711   1.827   0.395   1.966 -0.3283 -0.4607  0.0198
 8271SOL    HW125712   1.807   0.307   2.010 -1.6833 -0.4474 -0.5216
 8271SOL    HW225713   1.773   0.403   1.882  1.5794 -0.1298 -1.2261
 8272SOL     OW25714   1.131   2.582   0.744 -0.3894 -0.1635  0.3488
 8272SOL    HW125715   1.158   2.494   0.782 -1.0707 -0.7042 -0.3921
 8272SOL    HW225716   1.032   2.591   0.747 -0.6059 -0.7900 -2.4215
 8273SOL     OW25717   2.294   4.150   0.929 -0.0044 -0.1291  0.0690
 8273SOL    HW125718   2.268   4.057   0.901 -0.3242 -0.1044  0.2728
 8273SOL    HW225719   2.351   4.146   1.011 -2.5674 -0.0414  1.9727
 8274SOL     OW25720   4.605   6.259   1.611  0.4639  0.5005  0.2799
 8274SOL    HW125721   4.680   6.192   1.608 -0.7178 -0.8206 -1.5820
 8274SOL    HW225722   4.557   6.251   1.699 -0.1504 -1.7270 -0.1977
 8275SOL     OW25723   4.281   0.851   4.758  0.6363  0.1548 -0.3290
 8275SOL    HW125724   4.311   0.782   4.693  1.6672  0.9235 -0.7015
 8275SOL    HW225725   4.344   0.853   4.836  0.1142  0.0859  0.1018
 8276SOL     OW25726   6.630   6.597   5.138 -0.4160 -0.3265 -0.1107
 8276SOL    HW125727   6.727   6.616   5.153 -0.4036 -0.9706  0.7089
 8276SOL    HW225728   6.616   6.568   5.044 -0.0813  1.3546 -0.7213
 8277SOL     OW25729   3.552   0.408   0.995  0.7233 -0.0519  0.0344
 8277SOL    HW125730   3.581   0.313   0.989 -1.4372 -1.0558  3.1432
 8277SOL    HW225731   3.615   0.458   1.054  0.5495 -0.1677  0.3185
 8278SOL     OW25732   1.706   4.339   2.333 -0.1415  0.1451  0.0601
 8278SOL    HW125733   1.732   4.427   2.374  0.4500  0.5746 -1.1995
 8278SOL    HW225734   1.776   4.270   2.354 -0.6808 -0.0998  1.1803
 8279SOL     OW25735   1.782   0.885   4.283 -0.0905  0.4330 -0.5294
 8279SOL    HW125736   1.767   0.979   4.253 -0.4470 -0.4757 -3.5368
 8279SOL    HW225737   1.695   0.835   4.284  0.2986 -0.2702 -0.5014
 8280SOL     OW25738   6.376   6.981   1.020  0.5196 -0.4439  0.1129
 8280SOL    HW125739   6.412   7.065   1.058 -2.6673  1.2873 -0.3566
 8280SOL    HW225740   6.296   6.952   1.072  0.2382 -1.9536 -1.0667
 8281SOL     OW25741   5.739   4.432   6.306 -0.0530  0.5006 -0.4452
 8281SOL    HW125742   5.704   4.378   6.383  1.7592 -0.4572 -0.2411
 8281SOL    HW225743   5.836   4.451   6.321  0.0022  1.4460 -1.8839
 8282SOL     OW25744   1.840   1.657   0.378  0.2405  0.4544  0.3237
 8282SOL    HW125745   1.787   1.730   0.337  0.4878  0.9956  0.9432
 8282SOL    HW225746   1.807   1.639   0.471 -2.2073 -2.6972 -0.9890
 8283SOL     OW25747   3.081   6.742   6.136 -0.0934  0.0741 -0.0951
 8283SOL    HW125748   3.012   6.803   6.097 -0.3542 -0.1097  0.0716
 8283SOL    HW225749   3.164   6.794   6.155  0.3848 -0.0383 -1.7859
 8284SOL     OW25750   3.359   5.227   1.091 -0.0667 -0.0789 -0.3013
 8284SOL    HW125751   3.283   5.172   1.056  0.4385 -1.0112  0.0587
 8284SOL    HW225752   3.384   5.197   1.182  0.0051  0.9731  0.0421
 8285SOL     OW25753   2.893   2.515   6.787  0.3561 -0.0165  0.1948
 8285SOL    HW125754   2.850   2.458   6.857  0.0062 -1.4023 -1.1022
 8285SOL    HW225755   2.992   2.506   6.794  0.3088 -0.6950  0.0874
 8286SOL     OW25756   1.902   6.292   3.490  0.4832 -0.0448  0.0929
 8286SOL    HW125757   1.945   6.381   3.475 -0.9037  1.4086  3.6529
 8286SOL    HW225758   1.803   6.301   3.482  0.1975 -0.7704  2.1414
 8287SOL     OW25759   2.066   5.005   1.292 -0.3858  0.1372  0.0055
 8287SOL    HW125760   2.013   4.921   1.306 -0.2187  0.3146  1.9409
 8287SOL    HW225761   2.028   5.055   1.214 -0.0545 -2.0250 -1.6566
 8288SOL     OW25762   2.578   2.757   0.056  0.6213  0.5434 -0.3236
 8288SOL    HW125763   2.500   2.742  -0.005 -0.3046 -0.0230  0.9560
 8288SOL    HW225764   2.660   2.776   0.001  0.0348 -0.8736 -1.7844
 8289SOL     OW25765   5.046   2.775   5.619 -0.3474  0.0861  0.2970
 8289SOL    HW125766   5.073   2.847   5.554  0.6539 -1.4909 -1.0925
 8289SOL    HW225767   5.127   2.725   5.649 -0.9818 -0.1681  1.6237
 8290SOL     OW25768   1.293   1.903   1.842  0.5636  0.4637  0.0023
 8290SOL    HW125769   1.312   1.962   1.920 -0.4534  0.1231  0.5315
 8290SOL    HW225770   1.202   1.925   1.806  0.2128 -0.7003  0.1459
 8291SOL     OW25771   2.473   0.114   4.514  0.0283  0.2185  0.5282
 8291SOL    HW125772   2.383   0.111   4.471  0.3090 -0.1345 -0.0566
 8291SOL    HW225773   2.501   0.021   4.538  0.8025  0.1642 -0.5164
 8292SOL     OW25774   6.143   0.163   6.116  0.3153 -0.8627  0.2852
 8292SOL    HW125775   6.172   0.244   6.066 -2.6706 -0.5218 -1.1098
 8292SOL    HW225776   6.146   0.083   6.055 -0.7033 -0.9707  0.3541
 8293SOL     OW25777   5.523   0.450   5.915 -0.5083  0.8747  0.1676
 8293SOL    HW125778   5.447   0.469   5.852 -0.7165 -1.3007 -0.3109
 8293SOL    HW225779   5.488   0.406   5.997  0.2131 -0.2762 -0.1152
 8294SOL     OW25780   0.034   6.436   0.108  0.0427  0.1921  0.2560
 8294SOL    HW125781   0.066   6.529   0.126  0.8005  0.2874 -1.3924
 8294SOL    HW225782   0.004   6.394   0.193  2.2089  0.9892  1.4766
 8295SOL     OW25783   1.192   4.537   6.490 -0.1437  0.1491  0.1823
 8295SOL    HW125784   1.112   4.508   6.439 -0.0660  0.2487  0.0005
 8295SOL    HW225785   1.165   4.567   6.582 -0.3927  0.7501 -0.0839
 8296SOL     OW25786   3.424   1.684   5.349 -0.8240  0.1661  0.5506
 8296SOL    HW125787   3.493   1.695   5.278 -1.0024  0.0749  0.3644
 8296SOL    HW225788   3.346   1.634   5.313 -1.1745  0.6432  0.6449
 8297SOL     OW25789   3.494   5.168   5.034  0.7009  0.5002 -0.0951
 8297SOL    HW125790   3.471   5.104   4.961 -0.2612 -0.7560  1.2603
 8297SOL    HW225791   3.585   5.148   5.069 -0.5727 -1.9654  2.1002
 8298SOL     OW25792   3.752   5.694   4.798  0.4466 -0.2160  0.3078
 8298SOL    HW125793   3.773   5.791   4.791  1.0322 -0.4073 -0.6490
 8298SOL    HW225794   3.653   5.681   4.796  0.3778  0.3318  0.1352
 8299SOL     OW25795   0.452   2.166   5.863  0.7073  0.4668  0.6186
 8299SOL    HW125796   0.511   2.095   5.824  0.0518  0.8834 -1.2623
 8299SOL    HW225797   0.388   2.125   5.928  0.0421 -0.7964 -0.7663
 8300SOL     OW25798   4.447   2.143   2.392 -0.3759 -0.6974 -0.1310
 8300SOL    HW125799   4.351   2.170   2.395 -0.2373  0.5174 -3.0792
 8300SOL    HW225800   4.455   2.044   2.405 -1.8329 -0.6285  1.6192
 8301SOL     OW25801   0.445   4.518   0.179  0.3394 -0.0410  0.2952
 8301SOL    HW125802   0.477   4.478   0.265  1.6789  0.5902  0.1282
 8301SOL    HW225803   0.426   4.446   0.113  0.2203 -0.4908  0.8142
 8302SOL     OW25804   6.197   6.097   1.525 -0.1548  0.3219 -0.0455
 8302SOL    HW125805   6.207   6.020   1.463  1.6045  0.3349  0.1585
 8302SOL    HW225806   6.149   6.067   1.608  0.5347 -0.5629  0.0436
 8303SOL     OW25807   6.771   1.512   3.676  0.0629 -0.0013 -0.3639
 8303SOL    HW125808   6.808   1.445   3.611  1.5149  0.7625 -0.3707
 8303SOL    HW225809   6.719   1.464   3.747  0.0339 -1.0113 -1.0375
 8304SOL     OW25810   6.166   0.025   2.904 -0.0190  0.0774 -0.1253
 8304SOL    HW125811   6.131  -0.005   2.993 -1.2983  0.0981 -0.5996
 8304SOL    HW225812   6.163  -0.052   2.840  0.9813  0.0395 -0.1434
 8305SOL     OW25813   3.792   4.911   2.305  0.8749 -0.0564 -0.2093
 8305SOL    HW125814   3.802   4.828   2.360 -0.3412  0.4104  0.7571
 8305SOL    HW225815   3.724   4.972   2.347  1.0555  1.0230 -1.3972
 8306SOL     OW25816   1.774   1.880   4.763  0.1633 -0.5464  0.0065
 8306SOL    HW125817   1.681   1.846   4.749 -1.1319  0.9505  3.7400
 8306SOL    HW225818   1.780   1.974   4.730 -0.4740  0.2126  1.9398
 8307SOL     OW25819   0.954   2.305   0.716  0.4199 -0.5288 -0.5074
 8307SOL    HW125820   0.957   2.282   0.619 -0.4187 -1.4454 -0.3419
 8307SOL    HW225821   0.909   2.393   0.729  1.2928  0.0035 -0.9920
 8308SOL     OW25822   5.352   4.154   6.522  0.6484  0.4494  0.0552
 8308SOL    HW125823   5.364   4.057   6.500  0.4553  0.3499  0.3802
 8308SOL    HW225824   5.254   4.175   6.528  0.6917  0.4070  1.0765
 8309SOL     OW25825   3.437   4.132   2.568 -0.1571 -0.7066 -0.9590
 8309SOL    HW125826   3.345   4.102   2.542 -0.4667 -0.0241 -0.6798
 8309SOL    HW225827   3.459   4.217   2.521  1.0847 -1.8127 -2.4722
 8310SOL     OW25828   0.779   1.818   6.477  0.1219  0.2772 -0.0340
 8310SOL    HW125829   0.836   1.900   6.471 -1.0957  1.0505 -2.2104
 8310SOL    HW225830   0.744   1.808   6.570  1.4413  1.3934  0.6165
 8311SOL     OW25831   0.399   0.924   0.648  0.1239 -0.3115  0.2258
 8311SOL    HW125832   0.304   0.922   0.679  0.4560  2.5064  1.7649
 8311SOL    HW225833   0.459   0.927   0.727  1.3065  1.6574 -0.6985
 8312SOL     OW25834   0.002   3.107   1.876 -0.4264  0.7413  0.2866
 8312SOL    HW125835   0.067   3.179   1.900 -0.0742 -0.1605  2.2284
 8312SOL    HW225836   0.001   3.094   1.777  1.4661  1.5899  0.1279
 8313SOL     OW25837   3.691   3.744   2.769 -0.4629  0.2318 -0.1174
 8313SOL    HW125838   3.623   3.726   2.698  0.9534  1.4575 -1.8582
 8313SOL    HW225839   3.722   3.657   2.807 -1.6325 -0.4286 -0.5902
 8314SOL     OW25840   2.320   3.645   5.283  0.3977  0.1660  0.3715
 8314SOL    HW125841   2.298   3.554   5.247 -0.7359  0.2719  0.7545
 8314SOL    HW225842   2.248   3.674   5.345  0.0465  1.9058 -0.7811
 8315SOL     OW25843   4.867   5.895   5.737 -0.1594 -0.6056  0.8649
 8315SOL    HW125844   4.808   5.975   5.753  1.4972  0.5906  1.2812
 8315SOL    HW225845   4.962   5.921   5.751  0.8293 -1.6348 -2.7665
 8316SOL     OW25846   5.551   5.229   1.475 -0.6624 -0.5967 -0.1427
 8316SOL    HW125847   5.645   5.262   1.472 -0.8957  0.1524  0.6322
 8316SOL    HW225848   5.540   5.166   1.552 -1.5650  1.8364  1.8441
 8317SOL     OW25849   4.789   0.552   3.697 -0.6239  0.0864 -0.3314
 8317SOL    HW125850   4.757   0.530   3.789  1.1810 -0.6042  0.1585
 8317SOL    HW225851   4.714   0.595   3.645 -1.5973  0.7142  1.5140
 8318SOL     OW25852   4.454   6.598   0.484  0.4272 -0.3614 -1.0400
 8318SOL    HW125853   4.357   6.580   0.469  0.8941 -3.0321 -1.4140
 8318SOL    HW225854   4.500   6.512   0.507  2.6056  0.9541 -0.2242
 8319SOL     OW25855   5.621   5.077   5.353  0.5522  0.1397  0.0092
 8319SOL    HW125856   5.684   5.146   5.316  0.4138  0.3421  0.1476
 8319SOL    HW225857   5.607   5.095   5.450 -1.8577  1.7588 -0.5586
 8320SOL     OW25858   2.219   4.584   3.056  0.6830 -0.2128 -0.5306
 8320SOL    HW125859   2.130   4.572   3.012  1.3700 -1.5680 -1.6357
 8320SOL    HW225860   2.235   4.681   3.073 -0.6215  0.1291 -1.1102
 8321SOL     OW25861   1.086   1.998   5.876  0.0462  0.2446 -0.3842
 8321SOL    HW125862   1.115   1.942   5.953  0.7545 -1.5104 -1.8434
 8321SOL    HW225863   1.078   2.094   5.905 -0.5736 -0.4773  2.0310
 8322SOL     OW25864   5.327   5.019   0.536 -0.1440 -0.8442  0.0405
 8322SOL    HW125865   5.413   5.052   0.496  0.4270 -0.9890  1.1205
 8322SOL    HW225866   5.272   4.975   0.465 -0.2562  1.0426 -1.1170
 8323SOL     OW25867   6.602   5.904   1.674 -0.4294 -0.0977 -0.2022
 8323SOL    HW125868   6.688   5.941   1.709 -1.2439  0.9040  0.7921
 8323SOL    HW225869   6.545   5.978   1.641 -1.7214 -0.5250  0.9852
 8324SOL     OW25870   6.882   0.724   0.067 -0.6321  0.7053 -0.6874
 8324SOL    HW125871   6.786   0.751   0.058 -0.4342  1.2774 -1.2122
 8324SOL    HW225872   6.896   0.635   0.023 -0.6250  1.3281 -1.9784
 8325SOL     OW25873   0.421   6.903   4.474 -0.5792  0.6057  0.0137
 8325SOL    HW125874   0.325   6.915   4.500 -1.1241 -0.7968 -1.2490
 8325SOL    HW225875   0.432   6.923   4.377  0.0503 -0.9456 -0.2551
 8326SOL     OW25876   2.759   1.040   1.303  0.2813 -1.0304 -0.1751
 8326SOL    HW125877   2.833   1.098   1.268 -0.7788  1.2209  1.1051
 8326SOL    HW225878   2.712   0.996   1.226  0.0374  1.2220 -1.3803
 8327SOL     OW25879   5.718   4.106   3.331  0.0718  0.1617  0.0425
 8327SOL    HW125880   5.725   4.205   3.348  2.1255  0.9807 -4.1942
 8327SOL    HW225881   5.633   4.087   3.282 -0.1087 -0.1525  0.4663
 8328SOL     OW25882   1.473   2.930   0.735  0.0328 -0.0988 -0.0044
 8328SOL    HW125883   1.526   2.953   0.653  0.4049 -0.0899  0.2401
 8328SOL    HW225884   1.482   3.003   0.803 -0.3153 -0.0837  0.0305
 8329SOL     OW25885   6.786   2.606   6.073  0.0152  0.5104 -0.0459
 8329SOL    HW125886   6.796   2.661   6.155 -0.3285 -0.5845  0.7554
 8329SOL    HW225887   6.753   2.663   5.998 -1.1964  1.2229  0.9883
 8330SOL     OW25888   0.054   6.961   0.855  0.1686 -0.3294 -0.4640
 8330SOL    HW125889   0.116   6.901   0.904  0.9175  0.4987 -0.3722
 8330SOL    HW225890   0.094   6.985   0.766 -0.3083 -0.3037 -0.6741
 8331SOL     OW25891   6.608   6.267   5.361 -0.3077  0.3386 -0.3432
 8331SOL    HW125892   6.644   6.277   5.269  0.2531  0.8386 -0.0715
 8331SOL    HW225893   6.654   6.331   5.423  0.7901 -1.3699  0.7057
 8332SOL     OW25894   5.307   2.924   4.372 -0.3357  0.4359 -0.1765
 8332SOL    HW125895   5.341   3.005   4.418 -1.7823  0.8864  0.1430
 8332SOL    HW225896   5.324   2.932   4.273  1.0000  0.3527  0.0257
 8333SOL     OW25897   3.048   1.542   0.925  0.7245  0.0350  0.5739
 8333SOL    HW125898   3.125   1.518   0.984  2.3451  2.0157 -0.5885
 8333SOL    HW225899   3.070   1.624   0.873 -2.1752  0.6255  0.0871
 8334SOL     OW25900   4.752   4.919   0.681  0.3377  0.7459  0.6670
 8334SOL    HW125901   4.844   4.927   0.719 -0.0056 -0.8796  1.9358
 8334SOL    HW225902   4.692   4.873   0.746 -0.4758 -1.5684 -1.5327
 8335SOL     OW25903   4.381   1.487   5.290  0.7170 -0.1489  0.0342
 8335SOL    HW125904   4.394   1.388   5.283  1.8185 -0.0412  0.3231
 8335SOL    HW225905   4.301   1.514   5.237 -0.1619 -1.3136  0.7038
 8336SOL     OW25906   2.771   2.013   5.216 -0.6561 -0.5470  0.0266
 8336SOL    HW125907   2.790   1.916   5.231  0.9657 -0.4639 -1.2551
 8336SOL    HW225908   2.752   2.029   5.119 -1.0653  0.3910  0.2539
 8337SOL     OW25909   4.866   1.995   3.449  1.0477  0.3345 -0.4883
 8337SOL    HW125910   4.835   1.976   3.356 -0.0428 -0.6272  0.0459
 8337SOL    HW225911   4.787   2.009   3.509  1.6813 -0.3070  0.5371
 8338SOL     OW25912   3.081   5.494   6.531  0.4338 -0.6260  0.2572
 8338SOL    HW125913   3.021   5.553   6.585  0.6825  2.4493 -2.4481
 8338SOL    HW225914   3.029   5.453   6.456  0.9711 -0.9507  0.0584
 8339SOL     OW25915   0.708   4.272   0.567 -0.3925 -0.2435  0.1114
 8339SOL    HW125916   0.755   4.184   0.563 -0.7052 -0.4468  0.8614
 8339SOL    HW225917   0.669   4.286   0.658 -0.5549  0.5643 -0.0696
 8340SOL     OW25918   4.223   0.513   4.095  0.2153  0.1956  0.2379
 8340SOL    HW125919   4.265   0.467   4.016  1.4381 -0.7146  1.3758
 8340SOL    HW225920   4.231   0.612   4.083 -0.8327  0.1191 -1.3974
 8341SOL     OW25921   2.029   2.918   6.581 -0.3701 -0.2187  0.6357
 8341SOL    HW125922   2.043   2.843   6.645 -0.3413 -0.3938  0.4238
 8341SOL    HW225923   2.077   2.899   6.496 -2.4628 -1.1878 -0.4016
 8342SOL     OW25924   2.816   5.771   3.535  0.4352  0.3250  0.1338
 8342SOL    HW125925   2.803   5.727   3.623 -0.0626 -0.0287 -0.1127
 8342SOL    HW225926   2.748   5.736   3.470  1.5487 -0.3171 -0.7168
 8343SOL     OW25927   5.343   2.605   5.913  0.3725 -0.2449 -0.1501
 8343SOL    HW125928   5.404   2.678   5.882 -1.5616  0.4977 -2.5593
 8343SOL    HW225929   5.273   2.645   5.973 -0.1948 -0.2544 -0.7972
 8344SOL     OW25930   4.729   6.572   5.246  0.6438 -0.0762  0.0751
 8344SOL    HW125931   4.637   6.543   5.271  0.8344 -0.5944  0.1917
 8344SOL    HW225932   4.729   6.669   5.222 -0.0142 -0.1729 -0.3306
 8345SOL     OW25933   0.756   6.837   5.735 -0.4009  0.0623 -0.0731
 8345SOL    HW125934   0.750   6.843   5.635  2.2604  0.4959 -0.2936
 8345SOL    HW225935   0.761   6.741   5.762  2.6055 -0.1071 -0.8011
 8346SOL     OW25936   0.207   0.662   0.750  0.2470 -0.3551  0.0467
 8346SOL    HW125937   0.144   0.712   0.809 -2.2431 -2.5146 -0.6315
 8346SOL    HW225938   0.202   0.699   0.658 -1.6784 -1.7762 -0.4805
 8347SOL     OW25939   3.032   0.418   4.527  0.1089 -0.1680  0.4525
 8347SOL    HW125940   2.940   0.385   4.546 -0.0195  0.0736  0.2659
 8347SOL    HW225941   3.064   0.380   4.440 -1.0486  2.1469 -1.0921
 8348SOL     OW25942   0.475   2.716   5.168  0.4027 -0.1642 -0.0322
 8348SOL    HW125943   0.451   2.804   5.208 -0.8831  0.2740 -1.6539
 8348SOL    HW225944   0.454   2.643   5.234  3.0464  0.7421  1.9899
 8349SOL     OW25945   0.404   0.582   6.326  0.2766 -0.0525 -0.6715
 8349SOL    HW125946   0.466   0.634   6.384 -0.7694 -0.5581  0.9650
 8349SOL    HW225947   0.318   0.631   6.317  0.4272  0.0228 -1.8383
 8350SOL     OW25948   2.511   1.614   3.063  0.1540  0.1422 -0.2874
 8350SOL    HW125949   2.479   1.597   2.969 -1.6546 -1.0382  0.4952
 8350SOL    HW225950   2.433   1.625   3.123  1.2943  0.4332  1.1909
 8351SOL     OW25951   1.342   1.308   3.890 -0.4473 -0.2049  0.1250
 8351SOL    HW125952   1.344   1.266   3.980  2.1111  2.7978  1.6736
 8351SOL    HW225953   1.431   1.298   3.846 -0.6289  1.1396 -0.6150
 8352SOL     OW25954   5.146   5.589   3.759 -0.3885  0.0247 -0.0410
 8352SOL    HW125955   5.175   5.506   3.807  0.8269  0.0650 -0.6606
 8352SOL    HW225956   5.061   5.570   3.709  0.9025 -1.4768 -1.7977
 8353SOL     OW25957   4.570   2.638   4.710  0.7408  0.3549  0.0028
 8353SOL    HW125958   4.657   2.593   4.690  0.5353  0.7108 -1.8521
 8353SOL    HW225959   4.554   2.636   4.809  2.2760 -0.7522  0.2753
 8354SOL     OW25960   0.882   0.591   3.477  0.1209 -0.6824 -0.5017
 8354SOL    HW125961   0.786   0.610   3.497  0.1414 -0.4500 -0.6146
 8354SOL    HW225962   0.939   0.628   3.550  0.0651 -1.7080  0.0758
 8355SOL     OW25963   0.777   6.461   1.049  0.1294 -0.3370  0.0165
 8355SOL    HW125964   0.832   6.403   1.108 -0.8608 -1.7479 -0.4022
 8355SOL    HW225965   0.721   6.405   0.988 -2.8978  0.9178  1.4176
 8356SOL     OW25966   6.025   0.188   6.449 -0.3887  0.9629 -0.1188
 8356SOL    HW125967   6.014   0.286   6.430 -1.5832  0.5672 -1.7218
 8356SOL    HW225968   5.945   0.154   6.498 -0.6445  0.5276 -0.8206
 8357SOL     OW25969   5.955   2.901   2.498  0.1972 -0.2992 -0.2411
 8357SOL    HW125970   5.966   2.848   2.413  1.4122 -0.3058 -0.1000
 8357SOL    HW225971   6.045   2.935   2.527 -0.2598 -0.0186  0.8667
 8358SOL     OW25972   5.463   2.085   0.915  0.2940  0.1122 -0.1218
 8358SOL    HW125973   5.559   2.097   0.888 -0.0064 -0.7973 -1.7238
 8358SOL    HW225974   5.439   1.988   0.910 -0.8728  0.4000 -0.3544
 8359SOL     OW25975   6.267   4.147   0.508 -0.1233 -0.1272  0.4228
 8359SOL    HW125976   6.256   4.225   0.445  2.6042 -0.7126 -0.9030
 8359SOL    HW225977   6.189   4.144   0.570 -1.1967  2.5942 -0.6321
 8360SOL     OW25978   3.713   1.483   0.931  0.4643  0.2330 -0.1743
 8360SOL    HW125979   3.654   1.545   0.879  1.0553  1.1984  0.2748
 8360SOL    HW225980   3.663   1.451   1.012  0.8931  1.9981  0.8635
 8361SOL     OW25981   1.961   1.035   1.576 -0.5709 -0.4734 -0.5778
 8361SOL    HW125982   1.876   1.066   1.533 -0.7687  0.1005  0.2231
 8361SOL    HW225983   2.006   1.111   1.621  0.1994 -0.8502 -0.6920
 8362SOL     OW25984   1.975   4.213   0.933  0.2330 -0.0099  0.4906
 8362SOL    HW125985   1.971   4.242   1.028  1.5888  1.5131  0.1148
 8362SOL    HW225986   2.070   4.214   0.901 -0.3108  0.8060 -1.2434
 8363SOL     OW25987   2.186   6.841   4.597  0.0224  0.2651 -0.3167
 8363SOL    HW125988   2.114   6.771   4.601 -1.1750  1.3239 -1.9617
 8363SOL    HW225989   2.254   6.815   4.529 -0.8237  1.0072 -1.4813
 8364SOL     OW25990   1.381   2.610   6.940  0.3116 -0.4506  0.3343
 8364SOL    HW125991   1.400   2.707   6.947 -1.0875 -0.2168  1.5034
 8364SOL    HW225992   1.318   2.593   6.864 -0.4546 -0.2531  0.9137
 8365SOL     OW25993   6.022   0.767   2.287  0.1093 -0.1339 -0.2988
 8365SOL    HW125994   6.118   0.743   2.298 -0.2034 -2.1064 -1.4072
 8365SOL    HW225995   6.009   0.814   2.199  0.2649  1.6716  0.5875
 8366SOL     OW25996   4.954   0.760   3.691  0.2532  0.2162  0.1961
 8366SOL    HW125997   4.922   0.808   3.609 -2.0235 -1.5136 -0.0459
 8366SOL    HW225998   4.896   0.680   3.707  0.2599  0.7717  3.8413
 8367SOL     OW25999   1.733   0.115   0.980 -0.1371 -0.1171 -0.5179
 8367SOL    HW126000   1.817   0.062   0.967  0.1557 -0.2307  1.5014
 8367SOL    HW226001   1.729   0.188   0.913  1.6186 -0.0804 -0.6275
 8368SOL     OW26002   6.706   2.001   5.576 -0.1804 -0.3972 -0.2035
 8368SOL    HW126003   6.744   1.964   5.492  0.5203 -3.0602  1.2027
 8368SOL    HW226004   6.775   2.055   5.624 -0.4933  0.8764 -1.1222
 8369SOL     OW26005   5.429   0.656   4.913  0.5605 -0.0107 -0.2058
 8369SOL    HW126006   5.333   0.682   4.909  0.8499  1.0882 -0.4827
 8369SOL    HW226007   5.458   0.645   5.008  0.4052  0.6477 -0.0796
 8370SOL     OW26008   5.810   4.017   4.895 -0.3322  0.2535  1.0180
 8370SOL    HW126009   5.816   4.058   4.804 -2.7576  0.3846  0.8491
 8370SOL    HW226010   5.778   4.086   4.960 -0.0240 -0.2226  1.6868
 8371SOL     OW26011   5.717   4.657   4.118 -0.1736  0.5193 -0.3177
 8371SOL    HW126012   5.712   4.751   4.152  1.5882  0.9445 -1.1201
 8371SOL    HW226013   5.682   4.594   4.188  1.5557  1.5104  1.5408
 8372SOL     OW26014   1.884   1.958   6.495  0.4382 -0.5766  0.2364
 8372SOL    HW126015   1.849   2.014   6.420 -0.2784  1.3150  1.9195
 8372SOL    HW226016   1.906   1.867   6.460 -0.0205  0.1809 -2.2217
 8373SOL     OW26017   3.053   0.952   1.155 -0.4637 -0.3415 -0.0693
 8373SOL    HW126018   3.044   1.034   1.211 -0.8832 -0.6756  0.3638
 8373SOL    HW226019   2.977   0.946   1.091  0.5414  0.5672 -1.4027
 8374SOL     OW26020   5.787   4.873   5.837 -0.3680 -0.3397 -0.4871
 8374SOL    HW126021   5.748   4.839   5.922  0.2688  0.3174  0.0871
 8374SOL    HW226022   5.850   4.948   5.857  1.5216 -1.6047 -1.3176
 8375SOL     OW26023   5.639   6.322   1.552  0.0515 -0.0270 -0.5462
 8375SOL    HW126024   5.697   6.250   1.590 -0.6357 -0.0550  0.4753
 8375SOL    HW226025   5.650   6.324   1.452  1.6732 -0.1340 -0.3986
 8376SOL     OW26026   0.443   5.205   4.180  0.3291 -0.5107 -0.0103
 8376SOL    HW126027   0.467   5.301   4.197 -1.1638 -0.2170  0.5917
 8376SOL    HW226028   0.526   5.149   4.185  0.9905  0.5118  1.3713
 8377SOL     OW26029   2.136   0.775   5.426  0.4086  0.5257 -0.2222
 8377SOL    HW126030   2.152   0.692   5.373  0.5610  0.9244 -0.8016
 8377SOL    HW226031   2.197   0.776   5.506 -0.8561 -0.8055  0.8246
 8378SOL     OW26032   1.744   6.857   6.329 -0.5804  0.2376 -0.2892
 8378SOL    HW126033   1.688   6.937   6.309 -2.3663 -0.7418  0.6219
 8378SOL    HW226034   1.687   6.783   6.365  1.3017 -0.7757  0.8120
 8379SOL     OW26035   3.685   3.495   4.649  0.0131 -0.3262  0.1312
 8379SOL    HW126036   3.775   3.534   4.671 -0.3675  1.6522 -1.4844
 8379SOL    HW226037   3.678   3.482   4.550 -0.9956 -1.8069  0.3683
 8380SOL     OW26038   1.346   1.981   6.165 -0.3982 -0.2141  0.3003
 8380SOL    HW126039   1.285   1.901   6.158  1.1970 -1.4011 -0.8365
 8380SOL    HW226040   1.435   1.951   6.200 -0.5771  1.5728  2.4714
 8381SOL     OW26041   5.747   1.490   2.859 -0.2088 -0.3599  0.1255
 8381SOL    HW126042   5.672   1.426   2.875 -1.6014  0.6234 -2.0122
 8381SOL    HW226043   5.819   1.445   2.806  0.4482 -1.1003  1.5855
 8382SOL     OW26044   3.139   6.095   6.594  0.6055  0.2285  0.5864
 8382SOL    HW126045   3.128   6.171   6.659  1.0390 -1.0283  2.1930
 8382SOL    HW226046   3.061   6.094   6.531 -1.2522 -0.0102  2.7325
 8383SOL     OW26047   3.620   0.093   3.752  0.0520 -0.2206 -0.4537
 8383SOL    HW126048   3.641   0.179   3.799 -0.5501  0.0302 -0.6428
 8383SOL    HW226049   3.548   0.108   3.685 -0.4996 -1.0029 -0.0571
 8384SOL     OW26050   4.618   4.911   4.975  0.4563  0.6767  0.2950
 8384SOL    HW126051   4.645   4.816   4.959  0.5881  0.3467  2.2252
 8384SOL    HW226052   4.573   4.918   5.063  1.3242  2.5767  0.6324
 8385SOL     OW26053   4.746   5.663   6.884  0.0575  0.0062  0.0288
 8385SOL    HW126054   4.802   5.583   6.908 -1.2002 -1.0380 -0.3857
 8385SOL    HW226055   4.679   5.636   6.815 -0.2779  1.4918 -0.2481
 8386SOL     OW26056   4.432   4.300   5.767  0.3051 -0.9057  0.3462
 8386SOL    HW126057   4.374   4.219   5.776 -2.3815  0.7103 -0.9973
 8386SOL    HW226058   4.410   4.365   5.840 -0.4842  0.2052 -0.8330
 8387SOL     OW26059   0.953   2.847   6.085  0.2377 -0.3146  0.1150
 8387SOL    HW126060   0.976   2.807   5.996 -2.0416  0.4812 -0.9149
 8387SOL    HW226061   1.005   2.932   6.098 -0.9235  0.7212 -1.5119
 8388SOL     OW26062   1.844   3.290   6.095  0.2112 -0.4127  0.8829
 8388SOL    HW126063   1.937   3.258   6.114 -0.0877 -2.6425 -0.9241
 8388SOL    HW226064   1.847   3.362   6.025  0.5492 -2.9643 -1.9701
 8389SOL     OW26065   5.561   1.310   6.326 -0.0957  0.2781  0.0327
 8389SOL    HW126066   5.588   1.388   6.383 -0.9284  0.5163  0.1174
 8389SOL    HW226067   5.581   1.330   6.231  2.7284 -0.7246  0.3188
 8390SOL     OW26068   5.925   2.787   1.373 -0.2398  0.1330 -0.6512
 8390SOL    HW126069   6.008   2.788   1.429 -0.8934  2.0622  0.3526
 8390SOL    HW226070   5.879   2.698   1.383 -0.1022  0.2595  1.5171
 8391SOL     OW26071   0.300   4.317   1.004 -0.9037  0.5600  0.3755
 8391SOL    HW126072   0.284   4.228   1.048 -0.6731  0.0799 -0.4837
 8391SOL    HW226073   0.335   4.382   1.071 -0.4825 -0.1837  0.8930
 8392SOL     OW26074   2.115   6.343   0.202 -0.1854  0.3046  0.3779
 8392SOL    HW126075   2.144   6.438   0.196  0.7851 -0.0437 -1.0127
 8392SOL    HW226076   2.038   6.327   0.141  0.6507 -0.1282 -0.5888
 8393SOL     OW26077   4.149   2.759   1.653 -0.1892 -0.0910 -0.0798
 8393SOL    HW126078   4.223   2.695   1.674 -0.8718 -1.2123 -0.9758
 8393SOL    HW226079   4.188   2.849   1.633  0.9831 -0.7839 -1.0503
 8394SOL     OW26080   0.366   3.228   4.353 -0.0069  0.3992  0.0644
 8394SOL    HW126081   0.310   3.152   4.321 -0.4888  0.2318  1.2346
 8394SOL    HW226082   0.425   3.196   4.428  0.6816  0.8961 -0.2560
 8395SOL     OW26083   6.151   3.792   2.958 -0.1107  0.4885  0.0331
 8395SOL    HW126084   6.195   3.704   2.973 -0.1541  0.1723 -1.4660
 8395SOL    HW226085   6.087   3.784   2.881 -1.3371  1.4256  0.9233
 8396SOL     OW26086   5.153   2.406   4.163  0.1411 -0.8713  0.2125
 8396SOL    HW126087   5.137   2.493   4.116  1.6062 -0.1684  0.9444
 8396SOL    HW226088   5.243   2.407   4.206  0.6683 -3.1984 -0.6967
 8397SOL     OW26089   0.394   4.799   1.299  0.4252  0.8610 -0.5189
 8397SOL    HW126090   0.379   4.710   1.254  1.4468  1.5578 -2.3471
 8397SOL    HW226091   0.375   4.872   1.234  0.9685  1.9671  0.5431
 8398SOL     OW26092   6.771   5.296   0.243 -0.0490 -0.0786  0.4793
 8398SOL    HW126093   6.769   5.249   0.154  0.3861 -0.0543  0.4572
 8398SOL    HW226094   6.687   5.349   0.254  0.3489  0.7559 -0.3697
 8399SOL     OW26095   4.229   0.083   5.993  0.2635  0.6223  0.6861
 8399SOL    HW126096   4.183   0.165   5.958  0.2861  0.6817  0.7944
 8399SOL    HW226097   4.299   0.054   5.929  1.5441  1.7807  1.5019
 8400SOL     OW26098   0.054   6.071   2.346 -0.0299 -0.8240 -0.2780
 8400SOL    HW126099   0.077   5.998   2.410 -0.3407  0.8167  1.8160
 8400SOL    HW226100   0.138   6.112   2.311  0.1530 -1.1690 -0.2506
 8401SOL     OW26101   5.967   2.819   1.775 -0.1035 -0.4547 -0.7663
 8401SOL    HW126102   6.005   2.875   1.701 -3.2744  1.7733 -0.8993
 8401SOL    HW226103   5.938   2.878   1.850  1.1658 -2.5024  1.4636
 8402SOL     OW26104   2.874   0.543   5.400 -0.2197 -0.1146 -0.2733
 8402SOL    HW126105   2.968   0.519   5.374 -0.1201  0.1079 -0.1259
 8402SOL    HW226106   2.827   0.584   5.322  0.1168  0.6637 -0.0776
 8403SOL     OW26107   5.846   6.673   4.851  0.2658 -0.2011  0.3868
 8403SOL    HW126108   5.929   6.728   4.852 -0.4120  0.8504  1.2642
 8403SOL    HW226109   5.840   6.624   4.765  1.7282 -0.2030  0.2570
 8404SOL     OW26110   5.980   6.340   1.462  0.3302  0.1310 -0.0214
 8404SOL    HW126111   6.073   6.372   1.445  0.3648  1.2017  1.8856
 8404SOL    HW226112   5.975   6.299   1.553 -1.0594  0.0685 -0.1033
 8405SOL     OW26113   4.143   1.108   0.929  0.4016 -0.3224  0.5445
 8405SOL    HW126114   4.212   1.062   0.873 -0.3695 -0.5392 -0.2414
 8405SOL    HW226115   4.054   1.064   0.916 -1.2787  3.5092 -3.2326
 8406SOL     OW26116   4.709   4.312   0.082  0.2696 -0.3012  0.1703
 8406SOL    HW126117   4.630   4.292   0.024  0.2827 -0.5002  0.2179
 8406SOL    HW226118   4.723   4.236   0.146 -1.0917  0.8605  1.9566
 8407SOL     OW26119   2.850   5.739   2.072  0.1427 -0.1183 -0.0684
 8407SOL    HW126120   2.839   5.837   2.088  1.2753 -0.2278  1.5118
 8407SOL    HW226121   2.811   5.716   1.982  0.1195  1.8112 -0.5966
 8408SOL     OW26122   4.870   4.861   6.031 -0.1956  0.2274  0.1712
 8408SOL    HW126123   4.826   4.780   6.070  0.5295  0.0945  0.7466
 8408SOL    HW226124   4.864   4.858   5.931  1.9171 -1.8405  0.0040
 8409SOL     OW26125   4.409   1.777   5.457 -0.2162  0.2923 -0.8936
 8409SOL    HW126126   4.449   1.864   5.486 -1.0291  0.0120  1.2225
 8409SOL    HW226127   4.312   1.775   5.483 -0.3950 -0.9625 -1.5980
 8410SOL     OW26128   1.212   0.988   6.376 -0.1492 -0.0090  0.3744
 8410SOL    HW126129   1.170   0.949   6.295 -0.5868  0.2927  0.4549
 8410SOL    HW226130   1.308   0.961   6.380 -0.0642  0.1706 -0.3716
 8411SOL     OW26131   3.476   1.488   0.421 -0.1199 -0.1039 -0.1210
 8411SOL    HW126132   3.471   1.391   0.444 -0.1544 -0.4795 -1.6507
 8411SOL    HW226133   3.422   1.540   0.488 -2.5091 -1.4184 -0.8993
 8412SOL     OW26134   6.977   2.152   3.739 -0.3061  0.6093  0.0971
 8412SOL    HW126135   6.927   2.096   3.806 -0.1502 -0.0817 -0.3511
 8412SOL    HW226136   7.018   2.092   3.670  2.5094  0.9429  1.3282
 8413SOL     OW26137   5.633   3.112   3.494 -0.0019 -0.1783  0.0457
 8413SOL    HW126138   5.690   3.169   3.553  0.9289  0.3310 -1.2887
 8413SOL    HW226139   5.540   3.149   3.491  0.5934  1.3495 -0.8287
 8414SOL     OW26140   6.631   0.778   4.580 -0.0268 -0.2230 -0.4879
 8414SOL    HW126141   6.705   0.834   4.617  2.2441 -2.5751 -1.1481
 8414SOL    HW226142   6.626   0.692   4.631 -2.5077 -0.0940 -0.3627
 8415SOL     OW26143   4.387   2.364   0.471  0.1580  0.0181  0.2129
 8415SOL    HW126144   4.437   2.451   0.460 -1.2443  0.7919 -0.2702
 8415SOL    HW226145   4.433   2.293   0.418  0.7918  0.6906 -0.1666
 8416SOL     OW26146   0.883   2.250   0.981 -0.7643  0.5018  0.4208
 8416SOL    HW126147   0.893   2.273   0.885 -0.2395 -3.5858 -0.7094
 8416SOL    HW226148   0.973   2.230   1.021 -1.1498  0.1838  1.1621
 8417SOL     OW26149   0.445   3.186   1.991  0.4799 -0.4185 -0.1479
 8417SOL    HW126150   0.494   3.181   2.078  0.2281 -0.0596  0.0184
 8417SOL    HW226151   0.478   3.265   1.939 -0.3181  0.1721  0.2181
 8418SOL     OW26152   1.584   1.912   6.284 -0.3891 -0.3528 -0.6252
 8418SOL    HW126153   1.557   1.815   6.278 -2.3313  0.1266 -0.3615
 8418SOL    HW226154   1.678   1.918   6.318 -1.2609 -2.1100  2.5007
 8419SOL     OW26155   0.185   4.343   5.369  0.3022 -0.0143  0.3093
 8419SOL    HW126156   0.232   4.300   5.292  0.2985 -2.2629  1.4936
 8419SOL    HW226157   0.223   4.310   5.455 -1.0463  0.8946  1.3052
 8420SOL     OW26158   4.598   6.106   0.437  0.5384 -0.5133 -0.0093
 8420SOL    HW126159   4.663   6.124   0.363  0.9325 -4.7021 -0.9105
 8420SOL    HW226160   4.520   6.055   0.400  0.4764 -2.2504  2.3426
 8421SOL     OW26161   4.194   3.946   5.307 -0.4011  0.3218 -0.2035
 8421SOL    HW126162   4.124   4.018   5.307 -1.5812 -0.8012  0.3093
 8421SOL    HW226163   4.195   3.900   5.218 -1.1828 -0.4707  0.1874
 8422SOL     OW26164   6.907   1.320   0.952 -0.0750  0.0134  0.4015
 8422SOL    HW126165   6.853   1.355   0.876  0.2539  1.1990  0.7048
 8422SOL    HW226166   6.856   1.247   0.998  0.2931 -1.7314 -1.7733
 8423SOL     OW26167   5.451   6.762   2.906 -0.8105 -0.2661 -0.3406
 8423SOL    HW126168   5.526   6.767   2.840 -0.3518 -0.9495  0.1192
 8423SOL    HW226169   5.453   6.843   2.965  0.5627 -1.0339  0.7151
 8424SOL     OW26170   5.376   0.574   5.711  0.1359 -0.1602 -0.1896
 8424SOL    HW126171   5.342   0.492   5.664 -0.0226  0.3148 -0.9203
 8424SOL    HW226172   5.299   0.623   5.752 -0.1239  0.8816 -1.7904
 8425SOL     OW26173   5.277   3.629   1.530  0.3765 -0.2119  0.7232
 8425SOL    HW126174   5.179   3.614   1.528  0.3105  0.3041 -0.0290
 8425SOL    HW226175   5.297   3.727   1.525  0.9141 -0.2626  1.5920
 8426SOL     OW26176   4.296   1.303   6.080  0.5412 -0.0790  0.1570
 8426SOL    HW126177   4.284   1.400   6.101  0.3298 -0.2703  0.9598
 8426SOL    HW226178   4.232   1.249   6.135  0.5361 -0.6618 -0.4122
 8427SOL     OW26179   1.373   5.019   3.688  0.1814 -0.1433 -0.0784
 8427SOL    HW126180   1.316   5.006   3.769 -1.7389  1.3144 -1.1238
 8427SOL    HW226181   1.359   4.942   3.625  0.2515 -0.3388  0.1413
 8428SOL     OW26182   2.312   1.838   4.934 -0.2630  0.1522  0.1061
 8428SOL    HW126183   2.356   1.767   4.879  1.1704  1.1875 -0.1502
 8428SOL    HW226184   2.231   1.872   4.886  0.6491  0.6442 -1.1423
 8429SOL     OW26185   2.211   6.199   1.100  0.3293 -0.2093 -0.0964
 8429SOL    HW126186   2.176   6.283   1.143  1.8436 -0.7494  2.3921
 8429SOL    HW226187   2.311   6.206   1.092  0.4456 -1.6692 -0.0505
 8430SOL     OW26188   4.369   5.700   1.242 -0.0198  0.6672  0.2877
 8430SOL    HW126189   4.324   5.702   1.332 -1.7162 -0.0751 -0.4961
 8430SOL    HW226190   4.300   5.709   1.171  1.4495  2.8159 -0.9536
 8431SOL     OW26191   1.610   2.348   2.963  0.3694 -0.2258  0.5198
 8431SOL    HW126192   1.709   2.354   2.975  0.4540  0.4274 -0.3887
 8431SOL    HW226193   1.565   2.347   3.052  1.2725 -2.2525  1.0001
 8432SOL     OW26194   6.662   2.723   1.048  0.1885 -0.0191 -0.2154
 8432SOL    HW126195   6.666   2.642   1.106  1.1596 -0.6045 -1.0660
 8432SOL    HW226196   6.587   2.713   0.982 -0.1538  0.1083  0.1508
 8433SOL     OW26197   0.337   0.817   4.497 -0.9641  0.1372  0.3451
 8433SOL    HW126198   0.376   0.824   4.405 -1.4540  2.5498  0.2523
 8433SOL    HW226199   0.279   0.736   4.503  2.1760 -2.3610 -0.1730
 8434SOL     OW26200   6.824   3.920   1.347 -0.5020 -0.4995  0.6710
 8434SOL    HW126201   6.769   3.996   1.381  0.0119  0.5543 -0.7532
 8434SOL    HW226202   6.853   3.863   1.424 -0.0124  1.3280  1.9048
 8435SOL     OW26203   5.612   3.067   6.876  0.2054  0.1527 -0.3299
 8435SOL    HW126204   5.536   3.079   6.940  0.3461  0.1948 -0.1706
 8435SOL    HW226205   5.691   3.118   6.909  0.4651 -0.3103 -0.2206
 8436SOL     OW26206   3.331   5.630   6.557  0.1600 -0.2179 -0.5624
 8436SOL    HW126207   3.354   5.691   6.481 -0.8874 -1.3045 -1.8036
 8436SOL    HW226208   3.232   5.616   6.560 -0.0698  1.2048  2.1761
 8437SOL     OW26209   0.847   0.903   5.231 -0.1220  0.1526 -0.0471
 8437SOL    HW126210   0.859   0.846   5.312  0.2363 -0.3266 -0.4318
 8437SOL    HW226211   0.883   0.855   5.151  0.0752  0.8712 -0.3941
 8438SOL     OW26212   3.879   5.279   5.386 -0.4263  0.2384 -0.1803
 8438SOL    HW126213   3.907   5.370   5.417  1.1890 -0.4532  0.4708
 8438SOL    HW226214   3.836   5.230   5.462 -0.2443  0.0402 -0.2052
 8439SOL     OW26215   6.521   3.196   6.721  0.3472 -0.6860 -0.0171
 8439SOL    HW126216   6.447   3.133   6.698  0.8745 -0.6285 -2.0831
 8439SOL    HW226217   6.566   3.166   6.806 -0.1932 -2.3822 -0.2891
 8440SOL     OW26218   4.806   1.660   1.124  0.3928  0.5457  0.2502
 8440SOL    HW126219   4.718   1.620   1.097  0.4693 -0.9953  2.0509
 8440SOL    HW226220   4.838   1.722   1.052 -0.6087 -1.3026 -1.9280
 8441SOL     OW26221   3.618   0.405   1.645  0.1954 -0.2829 -0.3398
 8441SOL    HW126222   3.617   0.358   1.733 -1.9366  0.0623 -0.1232
 8441SOL    HW226223   3.540   0.468   1.640  0.2923 -0.2618 -2.4634
 8442SOL     OW26224   0.315   4.171   2.973 -0.0017 -0.4464  0.4539
 8442SOL    HW126225   0.291   4.229   3.051 -0.8972  1.2565 -0.9984
 8442SOL    HW226226   0.386   4.217   2.918  0.9080 -1.7937  0.4512
 8443SOL     OW26227   1.006   4.588   5.195  0.0130 -0.1909  0.3126
 8443SOL    HW126228   0.970   4.671   5.152  0.0701 -0.7713 -0.9143
 8443SOL    HW226229   1.106   4.589   5.191  0.0575  0.1340  1.2149
 8444SOL     OW26230   3.185   6.625   1.355  0.5084  0.2651 -0.0446
 8444SOL    HW126231   3.158   6.720   1.338 -1.0286  0.0868  1.1705
 8444SOL    HW226232   3.266   6.603   1.300  0.2646  1.9398 -1.1525
 8445SOL     OW26233   2.089   3.203   4.809  0.0097 -0.0003  0.1865
 8445SOL    HW126234   2.175   3.152   4.806  0.6177  1.0057 -0.2271
 8445SOL    HW226235   2.069   3.231   4.903  0.5078  0.3503  0.1922
 8446SOL     OW26236   1.806   2.004   3.281  0.6103  0.2646 -0.0882
 8446SOL    HW126237   1.844   1.952   3.357  0.3864  0.3538  0.0857
 8446SOL    HW226238   1.792   2.099   3.309 -1.1776 -0.0847  0.3695
 8447SOL     OW26239   1.861   3.202   1.930  0.0250  0.5969  0.2063
 8447SOL    HW126240   1.900   3.290   1.958  1.5167 -0.3037  1.1254
 8447SOL    HW226241   1.913   3.128   1.973 -0.4169 -0.7781 -1.5263
 8448SOL     OW26242   1.542   1.384   5.042 -0.3817 -0.0267 -0.3434
 8448SOL    HW126243   1.594   1.460   5.081  1.0527 -1.2386  0.2515
 8448SOL    HW226244   1.606   1.315   5.006 -1.5524  0.8383 -4.7126
 8449SOL     OW26245   4.833   0.620   0.640  0.3194 -0.1129  0.2083
 8449SOL    HW126246   4.883   0.572   0.568  0.2410 -0.2055  0.2170
 8449SOL    HW226247   4.818   0.559   0.718 -1.0398 -0.5144 -0.3457
 8450SOL     OW26248   3.471   2.031   5.683 -0.2042 -0.0878 -0.0878
 8450SOL    HW126249   3.570   2.025   5.693 -0.1506  1.1247  0.2625
 8450SOL    HW226250   3.441   1.973   5.607  0.4835 -2.2771  1.1960
 8451SOL     OW26251   2.268   5.609   4.524  0.1767 -0.1692 -0.5226
 8451SOL    HW126252   2.218   5.695   4.528 -0.0992 -0.1968 -2.4020
 8451SOL    HW226253   2.356   5.619   4.569 -0.1706  0.8605 -0.0492
 8452SOL     OW26254   3.463   5.673   4.813  0.5439  0.1065 -0.0021
 8452SOL    HW126255   3.478   5.620   4.897 -1.6620 -0.3665  0.1579
 8452SOL    HW226256   3.399   5.624   4.754 -1.3301  2.3466 -0.0138
 8453SOL     OW26257   3.731   0.389   6.628  0.1571 -0.0485  0.3432
 8453SOL    HW126258   3.696   0.296   6.631 -1.0583  0.2849 -1.4475
 8453SOL    HW226259   3.654   0.453   6.623  0.9777  0.9144 -0.4025
 8454SOL     OW26260   1.973   5.742   2.323 -0.3860  0.1499 -0.0655
 8454SOL    HW126261   1.958   5.840   2.314 -2.3937  0.1199  2.1306
 8454SOL    HW226262   1.887   5.693   2.306  0.2182 -1.1076  0.3461
 8455SOL     OW26263   5.039   4.914   0.770  0.2353 -0.1873 -0.1320
 8455SOL    HW126264   5.043   4.823   0.811  0.3427 -0.3026 -0.4024
 8455SOL    HW226265   5.113   4.970   0.807 -0.3933  0.0948  0.7614
 8456SOL     OW26266   6.361   1.788   4.185 -0.1015 -0.1223  0.1776
 8456SOL    HW126267   6.416   1.745   4.256 -0.8129 -0.8342  0.3166
 8456SOL    HW226268   6.390   1.756   4.095  0.9336  0.9318  0.1133
 8457SOL     OW26269   2.757   1.229   5.184 -0.2722  0.6801 -0.6115
 8457SOL    HW126270   2.702   1.259   5.262 -0.2572  0.8507 -0.6651
 8457SOL    HW226271   2.833   1.293   5.171 -0.6598  1.0294 -1.1816
 8458SOL     OW26272   5.848   3.946   6.304 -0.0382  0.1157  0.2546
 8458SOL    HW126273   5.794   3.953   6.387 -1.3371 -1.7005 -0.3570
 8458SOL    HW226274   5.826   4.022   6.243  0.6000  1.2173  1.3481
 8459SOL     OW26275   1.429   6.572   3.616  0.3211  0.2917  0.5054
 8459SOL    HW126276   1.519   6.584   3.658 -0.6755 -1.7415  3.6051
 8459SOL    HW226277   1.362   6.626   3.666 -0.3240  1.3081 -1.3894
 8460SOL     OW26278   1.323   2.356   0.027  0.1815  0.3679 -0.6875
 8460SOL    HW126279   1.292   2.328  -0.064  1.4044  0.8369 -1.2706
 8460SOL    HW226280   1.378   2.439   0.019  3.6475 -1.6952 -0.0545
 8461SOL     OW26281   0.366   0.309   4.482 -0.6674 -0.2997 -0.0638
 8461SOL    HW126282   0.374   0.371   4.561 -0.2977  0.7156 -0.8738
 8461SOL    HW226283   0.458   0.278   4.456 -0.8724 -1.4216  0.4978
 8462SOL     OW26284   2.423   5.749   3.024 -0.5821 -0.0875  0.0615
 8462SOL    HW126285   2.520   5.748   3.048 -0.7695 -0.6656  0.8625
 8462SOL    HW226286   2.373   5.694   3.091 -1.3046 -0.7518 -1.0003
 8463SOL     OW26287   5.677   0.854   5.438  0.5178 -0.3667  0.4355
 8463SOL    HW126288   5.680   0.754   5.431  1.0887 -0.3630  0.6294
 8463SOL    HW226289   5.584   0.885   5.417  0.2108 -0.9762  0.8647
 8464SOL     OW26290   5.417   3.150   4.755 -0.3365  0.0748  0.4972
 8464SOL    HW126291   5.342   3.085   4.743  0.2165 -0.6486  0.9833
 8464SOL    HW226292   5.381   3.234   4.796 -0.9410 -0.1395  0.4188
 8465SOL     OW26293   5.267   3.896   6.451 -0.1307 -0.1005  0.5177
 8465SOL    HW126294   5.188   3.933   6.403  0.0298  1.5485  1.4342
 8465SOL    HW226295   5.331   3.855   6.385  0.4019  2.6487 -0.7999
 8466SOL     OW26296   3.019   3.705   1.001 -0.2398 -0.1455  0.0530
 8466SOL    HW126297   3.009   3.642   1.077  2.6861  1.7817  2.3017
 8466SOL    HW226298   3.111   3.696   0.963  0.3457  2.6532  0.5545
 8467SOL     OW26299   0.806   4.375   4.262  0.4543 -0.2444  0.1776
 8467SOL    HW126300   0.798   4.377   4.163  1.4357 -2.1364  0.0063
 8467SOL    HW226301   0.715   4.369   4.303  0.0530  0.3391 -0.6157
 8468SOL     OW26302   5.358   0.547   2.260  0.0309  0.8148  0.5994
 8468SOL    HW126303   5.294   0.470   2.257  0.5225  0.4193 -0.9433
 8468SOL    HW226304   5.450   0.513   2.281  0.0479  1.1423  1.0654
 8469SOL     OW26305   2.197   0.581   0.935 -0.2256  0.0597 -0.0454
 8469SOL    HW126306   2.165   0.638   0.860 -1.3866 -0.6427 -0.1187
 8469SOL    HW226307   2.153   0.491   0.929 -2.4139  0.7539  2.8790
 8470SOL     OW26308   3.672   0.771   0.928  0.1304 -0.3063  0.3937
 8470SOL    HW126309   3.574   0.770   0.950 -0.2842  0.5046 -1.2584
 8470SOL    HW226310   3.694   0.691   0.873  0.1146  0.1549 -0.2934
 8471SOL     OW26311   3.797   4.941   4.920  0.7437 -0.2072 -0.3513
 8471SOL    HW126312   3.728   4.879   4.958 -1.3633  2.0043 -0.4094
 8471SOL    HW226313   3.783   4.950   4.822  1.0385  0.3735 -0.3386
 8472SOL     OW26314   1.636   0.447   4.577  0.1322  0.0781 -0.3047
 8472SOL    HW126315   1.686   0.499   4.646  0.5589  0.5514 -0.9525
 8472SOL    HW226316   1.692   0.439   4.494 -1.0422  1.0324 -1.2306
 8473SOL     OW26317   0.588   5.411   4.661  0.2957 -0.5019 -0.1203
 8473SOL    HW126318   0.488   5.413   4.665  0.2896  0.3119 -0.4613
 8473SOL    HW226319   0.626   5.479   4.723  0.7301 -2.3566  1.7776
 8474SOL     OW26320   3.225   1.873   1.459  0.1247 -0.1750 -0.4462
 8474SOL    HW126321   3.161   1.940   1.423 -0.0776 -0.4374 -0.5766
 8474SOL    HW226322   3.194   1.841   1.549 -0.8711 -1.5860 -1.2488
 8475SOL     OW26323   4.577   0.901   5.627  0.0481  0.0854  0.0683
 8475SOL    HW126324   4.488   0.937   5.657  0.2519 -0.7494  1.8480
 8475SOL    HW226325   4.582   0.902   5.527 -1.4124  1.4091 -0.0318
 8476SOL     OW26326   6.444   5.944   6.562  0.0149  0.2490 -0.2395
 8476SOL    HW126327   6.478   5.869   6.618 -0.4535 -0.3487 -0.7408
 8476SOL    HW226328   6.504   6.024   6.572 -0.4747  0.4132  1.6737
 8477SOL     OW26329   6.456   3.576   3.255  0.3713  0.3884 -0.4989
 8477SOL    HW126330   6.534   3.637   3.250  1.2317 -0.7092 -0.9029
 8477SOL    HW226331   6.381   3.621   3.304  1.4731  1.2343  0.4622
 8478SOL     OW26332   2.102   1.208   5.770  0.1493  0.5583 -0.4771
 8478SOL    HW126333   2.069   1.184   5.679  2.7860  0.3279 -1.4692
 8478SOL    HW226334   2.165   1.138   5.803 -0.5304  0.7833  1.4263
 8479SOL     OW26335   1.349   3.773   3.036  0.2547 -0.3533 -0.1218
 8479SOL    HW126336   1.256   3.796   3.066 -0.2662 -1.9609 -0.4086
 8479SOL    HW226337   1.350   3.765   2.936  0.5079 -1.1341 -0.0596
 8480SOL     OW26338   2.353   5.310   3.173 -0.3505  0.4539  0.1746
 8480SOL    HW126339   2.345   5.406   3.199 -2.6528  0.3391  0.0708
 8480SOL    HW226340   2.300   5.293   3.090 -1.0841 -1.1521  0.9249
 8481SOL     OW26341   1.475   2.313   6.691  0.6203  0.1897 -0.0375
 8481SOL    HW126342   1.469   2.296   6.592  2.4913  0.5377 -0.2502
 8481SOL    HW226343   1.523   2.399   6.707  1.2954 -0.3916  1.1848
 8482SOL     OW26344   3.361   0.525   1.795  0.2703 -0.1365 -0.6006
 8482SOL    HW126345   3.298   0.550   1.721  1.2272 -0.4773 -1.5539
 8482SOL    HW226346   3.364   0.425   1.803 -0.4199 -0.0861  0.4360
 8483SOL     OW26347   6.432   6.143   5.527  0.3337  0.5591  0.2390
 8483SOL    HW126348   6.441   6.045   5.512 -1.8040  0.2677  0.5026
 8483SOL    HW226349   6.482   6.193   5.456  0.1182 -0.7245 -0.8586
 8484SOL     OW26350   5.678   4.298   6.549  0.2332  0.1387 -0.4791
 8484SOL    HW126351   5.727   4.313   6.635 -0.5135 -0.1283  0.0060
 8484SOL    HW226352   5.693   4.204   6.518 -2.9737 -1.2929  1.7181
 8485SOL     OW26353   3.911   5.154   1.079 -0.0620  0.5885 -0.3183
 8485SOL    HW126354   4.000   5.163   1.123 -1.1387  1.8228  1.7882
 8485SOL    HW226355   3.873   5.063   1.099  0.0300  0.6605  0.2049
 8486SOL     OW26356   3.415   0.311   6.537 -0.4582 -0.3876  0.6543
 8486SOL    HW126357   3.478   0.251   6.586  1.7358  1.2030 -0.0467
 8486SOL    HW226358   3.402   0.395   6.589  0.5239  0.5924 -0.6220
 8487SOL     OW26359   6.231   5.989   3.945  0.2018 -0.1189 -0.1574
 8487SOL    HW126360   6.160   5.942   3.998 -0.5443  0.7203 -0.3749
 8487SOL    HW226361   6.190   6.068   3.898  1.0038 -0.4357 -1.4228
 8488SOL     OW26362   4.480   6.522   1.366  0.0266 -0.6066  0.4300
 8488SOL    HW126363   4.525   6.573   1.439 -0.1716  0.0242  0.1180
 8488SOL    HW226364   4.399   6.573   1.335  0.1745 -0.8085 -0.3029
 8489SOL     OW26365   1.342   2.686   5.711  0.4104 -0.1538  0.4742
 8489SOL    HW126366   1.281   2.704   5.634 -0.8978 -1.3282  1.1895
 8489SOL    HW226367   1.324   2.594   5.746  1.9551 -0.1674  1.3177
 8490SOL     OW26368   5.760   6.477   0.572  0.1220  0.1648  0.5288
 8490SOL    HW126369   5.750   6.533   0.490  3.0384  0.0809  0.0252
 8490SOL    HW226370   5.685   6.499   0.636 -0.7909  2.0641 -1.0774
 8491SOL     OW26371   0.794   0.315   2.110  0.3651  0.1778  0.6259
 8491SOL    HW126372   0.754   0.298   2.200  1.6638 -0.3096  1.1418
 8491SOL    HW226373   0.736   0.274   2.040 -1.3128  1.6372  1.1113
 8492SOL     OW26374   0.096   2.398   3.360  0.6205  0.7528 -0.2688
 8492SOL    HW126375   0.152   2.449   3.425  0.1768  0.2217  0.5470
 8492SOL    HW226376   0.104   2.440   3.270  1.8246  1.0590 -0.0400
 8493SOL     OW26377   4.980   6.498   5.359  0.2336 -0.0818  0.2744
 8493SOL    HW126378   4.977   6.398   5.357 -0.5930 -0.0610  0.1912
 8493SOL    HW226379   4.897   6.535   5.317  0.2897  0.6369  0.7733
 8494SOL     OW26380   3.356   6.527   0.559  0.3665  0.1237 -0.0361
 8494SOL    HW126381   3.420   6.450   0.562 -0.5841 -0.8293 -2.1189
 8494SOL    HW226382   3.267   6.498   0.592  0.6529  1.1311  1.7544
 8495SOL     OW26383   6.487   5.076   5.653 -0.1103  0.5746 -0.1750
 8495SOL    HW126384   6.529   5.140   5.589  0.3264  1.7106  1.2032
 8495SOL    HW226385   6.423   5.124   5.712 -1.1607 -0.6159 -0.3017
 8496SOL     OW26386   2.057   2.177   3.392 -0.2115 -0.7682 -0.2163
 8496SOL    HW126387   2.065   2.108   3.463  0.8631 -0.6712 -0.2297
 8496SOL    HW226388   1.962   2.207   3.385 -0.2789 -0.4847  1.4580
 8497SOL     OW26389   4.518   5.217   1.163  0.0566  0.0013  0.3742
 8497SOL    HW126390   4.543   5.314   1.162 -0.2467  0.0845  0.4761
 8497SOL    HW226391   4.552   5.174   1.246  0.5154 -0.0708  0.1540
 8498SOL     OW26392   1.236   4.225   5.708  0.0308 -0.1146  0.3731
 8498SOL    HW126393   1.298   4.301   5.687  0.5570  0.1573  2.6677
 8498SOL    HW226394   1.145   4.246   5.673  0.2434  1.4593  0.6936
 8499SOL     OW26395   0.053   3.130   3.968  0.0315 -0.1908  0.1529
 8499SOL    HW126396   0.066   3.156   3.872  2.8319 -1.4549  0.1029
 8499SOL    HW226397   0.018   3.037   3.972  1.1450 -0.6102  0.3349
 8500SOL     OW26398   4.831   6.644   3.019 -0.3899 -0.0838 -0.1196
 8500SOL    HW126399   4.904   6.610   3.079 -0.0823  1.3722  0.3703
 8500SOL    HW226400   4.774   6.708   3.070 -0.0185  1.3319 -1.4029
 8501SOL     OW26401   4.009   3.226   2.981 -0.1001  0.2252  0.1246
 8501SOL    HW126402   4.016   3.186   2.890  0.8020 -0.9003  0.6698
 8501SOL    HW226403   4.031   3.324   2.976  1.3665 -0.1163 -0.6399
 8502SOL     OW26404   1.167   3.447   6.097 -0.3474  0.1752 -0.6224
 8502SOL    HW126405   1.198   3.381   6.029  1.2121  0.0887  0.1267
 8502SOL    HW226406   1.155   3.401   6.185 -0.0037  0.7344 -0.2775
 8503SOL     OW26407   4.528   5.721   1.012 -0.8820  0.0308 -0.6538
 8503SOL    HW126408   4.508   5.680   0.923  1.2498  0.6059 -1.4523
 8503SOL    HW226409   4.464   5.685   1.080 -0.6958 -2.7233 -1.7993
 8504SOL     OW26410   4.390   2.177   1.842 -0.1296  0.4222 -0.3265
 8504SOL    HW126411   4.334   2.245   1.795 -0.7927  1.5841  2.0124
 8504SOL    HW226412   4.478   2.217   1.868 -0.0801  0.0545  0.1023
 8505SOL     OW26413   1.789   4.777   3.454  0.4669  0.1019 -0.4532
 8505SOL    HW126414   1.799   4.712   3.379 -0.6457  1.7730 -2.1537
 8505SOL    HW226415   1.876   4.826   3.467  1.0288 -1.0409  0.2121
 8506SOL     OW26416   2.734   5.684   5.472  0.1756  0.4934  0.3379
 8506SOL    HW126417   2.754   5.661   5.377  1.1867  0.8173  0.4549
 8506SOL    HW226418   2.820   5.685   5.525 -0.4045  0.0530  1.3072
 8507SOL     OW26419   1.112   0.916   0.129 -0.3506 -0.1279 -0.2876
 8507SOL    HW126420   1.161   0.926   0.043  1.2801  1.0437  0.7196
 8507SOL    HW226421   1.151   0.977   0.198 -2.7070  0.2225  0.8471
 8508SOL     OW26422   5.302   4.699   4.433 -0.2118 -0.0484 -0.1496
 8508SOL    HW126423   5.327   4.604   4.453  0.3222 -0.1320 -1.1650
 8508SOL    HW226424   5.305   4.752   4.518  0.7632 -0.6637  0.2235
 8509SOL     OW26425   0.562   5.650   2.682 -0.4229 -0.0601  0.1654
 8509SOL    HW126426   0.565   5.581   2.609  0.4479  0.1686 -0.0327
 8509SOL    HW226427   0.485   5.631   2.743  0.2611 -1.6721  0.5827
 8510SOL     OW26428   6.347   2.193   0.767 -0.1523  0.3858 -0.6835
 8510SOL    HW126429   6.280   2.188   0.842 -1.4815  0.5607 -1.8196
 8510SOL    HW226430   6.304   2.164   0.682  1.6578 -0.9489 -1.2201
 8511SOL     OW26431   6.668   3.419   3.411  0.8811  0.1384  0.1675
 8511SOL    HW126432   6.641   3.508   3.376  1.4563  0.4854  0.5902
 8511SOL    HW226433   6.767   3.410   3.407  0.9285  0.0050  1.2462
 8512SOL     OW26434   6.516   6.059   5.804 -0.2022  0.0443  0.2133
 8512SOL    HW126435   6.521   5.992   5.730  1.3799  0.0454  0.2898
 8512SOL    HW226436   6.423   6.062   5.840 -1.4974  1.3132 -2.9007
 8513SOL     OW26437   5.355   4.200   0.097 -0.9520 -0.3370  0.2536
 8513SOL    HW126438   5.297   4.219   0.017 -0.5322  0.1221  0.0591
 8513SOL    HW226439   5.447   4.233   0.080 -0.8552 -0.2500  0.9305
 8514SOL     OW26440   3.747   5.142   5.156 -0.2058 -0.2090  0.7814
 8514SOL    HW126441   3.803   5.064   5.184  0.1133 -0.4445 -0.4724
 8514SOL    HW226442   3.745   5.209   5.231  0.3542 -0.9495  1.4882
 8515SOL     OW26443   2.260   0.606   2.123 -0.3744 -0.2199 -0.9941
 8515SOL    HW126444   2.192   0.578   2.191  0.5917 -0.7891 -0.2335
 8515SOL    HW226445   2.348   0.621   2.168  0.4292 -1.1544 -2.1921
 8516SOL     OW26446   3.626   1.728   5.700 -0.5365 -0.0708  0.1609
 8516SOL    HW126447   3.689   1.734   5.623  0.4251 -1.7089  0.7731
 8516SOL    HW226448   3.676   1.739   5.786 -1.0999 -1.1375  0.6462
 8517SOL     OW26449   6.093   6.712   4.413  0.1016  0.7397  0.2868
 8517SOL    HW126450   6.146   6.682   4.492  1.5244  0.9758 -0.5450
 8517SOL    HW226451   6.128   6.666   4.331 -3.1446 -1.7304  0.0798
 8518SOL     OW26452   3.198   6.220   4.296 -0.0844 -0.3505  0.5768
 8518SOL    HW126453   3.253   6.162   4.235  0.6227 -0.3077  1.1543
 8518SOL    HW226454   3.239   6.311   4.302  0.0367 -0.4428  1.3395
 8519SOL     OW26455   0.555   6.229   4.165  0.1692  0.1798 -0.0039
 8519SOL    HW126456   0.645   6.189   4.146  0.8663  0.6131  2.1091
 8519SOL    HW226457   0.487   6.190   4.102  1.8222 -0.0992 -1.7005
 8520SOL     OW26458   2.854   4.313   5.314  0.3687 -0.0949 -1.0101
 8520SOL    HW126459   2.922   4.240   5.318 -0.0268 -0.4453 -0.5485
 8520SOL    HW226460   2.894   4.393   5.270  1.5735  0.2441  0.6216
 8521SOL     OW26461   2.447   5.176   2.066 -0.0981  0.1773  0.3989
 8521SOL    HW126462   2.401   5.136   1.987 -0.6464 -1.1133  1.3474
 8521SOL    HW226463   2.484   5.103   2.123  2.7153  1.1305 -0.0395
 8522SOL     OW26464   2.657   6.749   6.532  0.5911  0.4147 -0.4397
 8522SOL    HW126465   2.635   6.816   6.461  0.2851  1.3558  0.5143
 8522SOL    HW226466   2.667   6.658   6.491 -0.3986  0.7927 -1.5659
 8523SOL     OW26467   6.931   1.922   1.848  0.2423  0.1201  0.1057
 8523SOL    HW126468   6.843   1.965   1.827 -1.0007 -1.1598  2.3655
 8523SOL    HW226469   6.916   1.839   1.901  2.7951 -0.7528 -0.3925
 8524SOL     OW26470   1.804   4.508   5.373 -0.2936  0.0173  0.1932
 8524SOL    HW126471   1.813   4.423   5.321  1.1190  0.1909  0.1125
 8524SOL    HW226472   1.838   4.585   5.319 -1.3670  0.6258  0.3428
 8525SOL     OW26473   4.628   2.664   3.728  0.2921  0.6070 -0.0329
 8525SOL    HW126474   4.648   2.654   3.825  0.9018  0.3119 -0.1812
 8525SOL    HW226475   4.679   2.742   3.691  0.3606  0.4891 -0.1910
 8526SOL     OW26476   1.512   5.536   5.943 -0.2939  0.1056 -0.0631
 8526SOL    HW126477   1.581   5.584   5.888 -0.3958  0.6548  0.2775
 8526SOL    HW226478   1.433   5.597   5.957 -1.6218 -1.0799 -1.8897
 8527SOL     OW26479   5.486   4.117   0.421  0.2621 -1.0862  0.6720
 8527SOL    HW126480   5.452   4.167   0.500  0.5229 -0.2640  0.2788
 8527SOL    HW226481   5.573   4.158   0.391  0.0033 -1.1816 -0.2285
 8528SOL     OW26482   1.826   2.111   6.226 -0.1580  0.4218 -0.0524
 8528SOL    HW126483   1.868   2.173   6.293  0.0685  0.2682 -0.0470
 8528SOL    HW226484   1.762   2.161   6.168  2.1677  1.3242 -1.9981
 8529SOL     OW26485   0.954   1.394   2.033 -0.2660  0.1229  0.1161
 8529SOL    HW126486   1.026   1.341   1.988  0.2928 -0.5126  1.6683
 8529SOL    HW226487   0.932   1.474   1.978  1.4109  0.1707 -0.5625
 8530SOL     OW26488   6.084   5.956   5.717  0.4398  0.0448  0.5813
 8530SOL    HW126489   6.073   6.028   5.648  1.4480  1.1825  1.5605
 8530SOL    HW226490   6.049   5.988   5.805  0.6902 -0.7625  0.9871
 8531SOL     OW26491   6.444   0.386   3.610  0.3751 -0.1258  0.0518
 8531SOL    HW126492   6.432   0.436   3.524  2.3411  0.4247  0.0278
 8531SOL    HW226493   6.415   0.443   3.687 -2.5538 -1.0730 -0.2451
 8532SOL     OW26494   1.723   0.353   6.365 -0.1524  0.8013  0.3989
 8532SOL    HW126495   1.820   0.359   6.389 -0.6428  0.3813  2.7665
 8532SOL    HW226496   1.679   0.440   6.384 -0.3120  0.8915 -0.3631
 8533SOL     OW26497   0.674   6.098   3.764 -0.0916 -0.5239 -0.1102
 8533SOL    HW126498   0.738   6.025   3.786  1.3542  0.2935 -1.4655
 8533SOL    HW226499   0.582   6.071   3.793  0.5907 -2.3622  0.4773
 8534SOL     OW26500   4.280   1.220   3.334 -0.2820 -0.3499 -0.0204
 8534SOL    HW126501   4.274   1.260   3.425 -1.2799  2.0708 -1.0378
 8534SOL    HW226502   4.201   1.161   3.318 -1.1963  0.8202  0.0282
 8535SOL     OW26503   4.038   6.312   1.697 -0.2989 -0.2608 -0.2608
 8535SOL    HW126504   4.035   6.355   1.606 -0.9525  2.1776  0.8245
 8535SOL    HW226505   3.961   6.346   1.752  0.9138 -0.5271  1.6789
 8536SOL     OW26506   0.566   0.724   2.709  0.7404 -0.0086 -0.1445
 8536SOL    HW126507   0.470   0.700   2.725  0.2343  1.3662 -0.8549
 8536SOL    HW226508   0.582   0.818   2.739  1.3046  0.5155 -1.9204
 8537SOL     OW26509   0.172   6.489   0.490 -0.2821 -0.3087  0.6953
 8537SOL    HW126510   0.261   6.491   0.445  0.4753 -1.5366  2.0398
 8537SOL    HW226511   0.167   6.563   0.557 -0.4735  0.0747  0.2557
 8538SOL     OW26512   5.735   6.950   4.847 -0.2683  0.3066 -0.4508
 8538SOL    HW126513   5.775   6.959   4.756  0.6454 -0.3173 -0.1259
 8538SOL    HW226514   5.714   6.854   4.865 -0.9431  0.4948 -0.2107
 8539SOL     OW26515   4.132   2.291   3.782  0.1142 -0.0405  0.0885
 8539SOL    HW126516   4.035   2.269   3.770 -0.1059  0.2348  1.3109
 8539SOL    HW226517   4.155   2.293   3.879  1.2344  0.4156 -0.1653
 8540SOL     OW26518   5.516   6.100   3.112 -0.3024  0.2125  0.0628
 8540SOL    HW126519   5.481   6.040   3.040  0.9248 -0.2509 -0.1832
 8540SOL    HW226520   5.519   6.194   3.078 -1.6444  0.3316  0.2338
 8541SOL     OW26521   3.703   0.551   2.609 -0.6092  0.0780 -0.1049
 8541SOL    HW126522   3.776   0.590   2.553  1.3061  0.3211  2.4125
 8541SOL    HW226523   3.673   0.618   2.676 -2.7331 -0.2651 -0.6370
 8542SOL     OW26524   4.804   6.914   1.260 -0.1823  0.0196  0.0345
 8542SOL    HW126525   4.776   6.834   1.314  1.2055 -0.6522 -0.1903
 8542SOL    HW226526   4.758   6.911   1.171 -2.8551  1.3826  1.2396
 8543SOL     OW26527   6.825   4.273   0.594  0.2289  0.4341  0.0473
 8543SOL    HW126528   6.776   4.349   0.638  1.3084  0.6837  0.8613
 8543SOL    HW226529   6.867   4.215   0.664  0.3076 -0.3172 -0.6034
 8544SOL     OW26530   1.416   0.959   3.798  0.3516  0.6596 -0.3706
 8544SOL    HW126531   1.354   0.958   3.876  0.5110  1.6711 -0.2152
 8544SOL    HW226532   1.480   1.035   3.808 -0.4019  1.5651 -2.0791
 8545SOL     OW26533   1.043   0.339   5.498  0.3734  0.1840  0.0596
 8545SOL    HW126534   1.032   0.306   5.592  0.1985  1.6553  0.5895
 8545SOL    HW226535   1.090   0.428   5.500  0.1589  0.3409 -1.2306
 8546SOL     OW26536   1.435   5.340   0.083  0.2069  0.3150  0.2604
 8546SOL    HW126537   1.534   5.349   0.090  0.5718 -1.3454 -1.8929
 8546SOL    HW226538   1.395   5.340   0.175  2.1607  1.0030  1.1698
 8547SOL     OW26539   0.182   3.320   6.486  0.3304  0.4851  0.0505
 8547SOL    HW126540   0.214   3.232   6.450 -1.2125 -0.1348  0.1280
 8547SOL    HW226541   0.218   3.393   6.429  0.7421 -0.2748 -0.6950
 8548SOL     OW26542   0.382   2.560   3.218 -0.4581 -0.4090  0.4158
 8548SOL    HW126543   0.376   2.466   3.182 -0.7774 -0.1149 -0.3042
 8548SOL    HW226544   0.291   2.600   3.224 -0.4181 -0.4418  1.5705
 8549SOL     OW26545   3.716   4.192   5.735 -0.2137 -0.0250 -0.4276
 8549SOL    HW126546   3.690   4.243   5.817 -1.0711  0.0632 -0.7450
 8549SOL    HW226547   3.686   4.097   5.743  1.0971 -0.4126  0.0249
 8550SOL     OW26548   0.339   6.165   2.906 -0.4747  0.3210  0.1108
 8550SOL    HW126549   0.291   6.078   2.900  1.9993 -1.0797 -0.8238
 8550SOL    HW226550   0.403   6.164   2.983  1.5303  0.1601 -1.4453
 8551SOL     OW26551   4.129   6.317   4.441  0.5002 -0.5050 -0.2130
 8551SOL    HW126552   4.082   6.345   4.357  1.6417  3.8964  0.3564
 8551SOL    HW226553   4.228   6.323   4.426  0.7722 -1.9299  0.8423
 8552SOL     OW26554   2.135   3.352   5.663  0.3786  0.0594  0.4030
 8552SOL    HW126555   2.106   3.427   5.722  0.0832  1.1643 -1.0783
 8552SOL    HW226556   2.143   3.385   5.569 -0.6085 -1.9868 -0.4562
 8553SOL     OW26557   5.183   3.262   1.694  0.0511  0.3593 -0.4238
 8553SOL    HW126558   5.243   3.342   1.699  0.8477 -0.2455 -0.1470
 8553SOL    HW226559   5.181   3.216   1.782 -0.3932  0.0602 -0.5872
 8554SOL     OW26560   5.791   4.137   1.350 -0.4052 -0.2080 -0.7763
 8554SOL    HW126561   5.793   4.053   1.297 -0.6684 -0.8500  0.2083
 8554SOL    HW226562   5.708   4.189   1.329 -2.1185 -1.9675  1.2361
 8555SOL     OW26563   6.277   3.364   4.708  0.3162 -0.8154  0.1128
 8555SOL    HW126564   6.321   3.424   4.641 -0.8783 -0.4980 -0.4199
 8555SOL    HW226565   6.310   3.270   4.696 -1.3801 -1.1757 -2.3426
 8556SOL     OW26566   4.781   1.161   6.278  0.4246  0.5564  0.0856
 8556SOL    HW126567   4.734   1.235   6.231  1.1882  0.1515 -1.3872
 8556SOL    HW226568   4.878   1.162   6.253  0.7851  0.0754  1.3770
 8557SOL     OW26569   4.984   5.281   4.979  0.5548 -0.6426  0.1287
 8557SOL    HW126570   5.079   5.252   4.989  0.4897 -1.2947 -1.0423
 8557SOL    HW226571   4.926   5.221   5.035  0.9327  0.6144  1.9563
 8558SOL     OW26572   5.967   4.346   4.370 -0.2361 -0.6758 -0.0009
 8558SOL    HW126573   5.927   4.417   4.427  2.8000  1.6589 -0.4941
 8558SOL    HW226574   5.895   4.289   4.331 -3.0660  3.0864 -0.8469
 8559SOL     OW26575   4.665   2.779   3.286 -0.4860 -0.7637 -1.0257
 8559SOL    HW126576   4.685   2.870   3.322 -3.4032  0.5379 -2.3231
 8559SOL    HW226577   4.629   2.721   3.359 -0.2543 -0.2910 -0.5333
 8560SOL     OW26578   6.758   4.719   4.316 -0.2951  0.0485  0.0045
 8560SOL    HW126579   6.733   4.635   4.268 -1.4418  0.9635 -1.0791
 8560SOL    HW226580   6.675   4.764   4.351  0.3173  0.6143  0.7775
 8561SOL     OW26581   5.868   6.049   4.663  1.0145 -0.2016 -0.1420
 8561SOL    HW126582   5.775   6.080   4.679  1.1925  0.6332 -0.6647
 8561SOL    HW226583   5.876   5.952   4.688 -0.4636 -0.8225 -1.8555
 8562SOL     OW26584   5.032   4.758   3.052  0.0218 -0.1657 -0.4730
 8562SOL    HW126585   5.053   4.666   3.020  0.1105 -0.1567 -0.4407
 8562SOL    HW226586   4.935   4.764   3.075  0.5948 -1.2249  2.6929
 8563SOL     OW26587   1.278   1.592   0.554  0.1337 -0.0857  0.0900
 8563SOL    HW126588   1.185   1.630   0.546  0.3431  0.2478 -0.8140
 8563SOL    HW226589   1.309   1.601   0.649 -1.6793 -2.4029  1.0353
 8564SOL     OW26590   1.999   1.209   1.042 -0.1068  0.4161  0.7411
 8564SOL    HW126591   2.073   1.201   1.108 -0.7706  0.9158  1.5662
 8564SOL    HW226592   1.945   1.291   1.062  0.0726  0.9617 -0.8307
 8565SOL     OW26593   4.352   6.532   2.473  0.0187 -0.4568  0.1232
 8565SOL    HW126594   4.386   6.535   2.566  1.0943 -0.8394 -0.2478
 8565SOL    HW226595   4.411   6.473   2.417  0.4731  1.2199 -1.2354
 8566SOL     OW26596   6.928   0.580   3.385  0.1197 -0.2558 -0.0174
 8566SOL    HW126597   6.911   0.633   3.303 -0.1188 -0.6566 -0.2324
 8566SOL    HW226598   6.840   0.560   3.430  0.3414  1.2449  1.1633
 8567SOL     OW26599   0.103   5.771   0.174 -0.4864 -0.3506 -0.1004
 8567SOL    HW126600   0.024   5.776   0.234 -0.0935  1.9216  0.3124
 8567SOL    HW226601   0.144   5.862   0.164  1.4629 -1.2622 -1.1279
 8568SOL     OW26602   5.505   3.526   5.777  0.0453  0.3376 -0.2494
 8568SOL    HW126603   5.420   3.573   5.798  1.1642  1.4797  2.1099
 8568SOL    HW226604   5.541   3.558   5.689 -1.6560  0.2009 -1.0283
 8569SOL     OW26605   5.058   2.578   4.605  0.1025  0.3502 -0.9287
 8569SOL    HW126606   5.056   2.676   4.583 -0.2703  0.4276 -0.5690
 8569SOL    HW226607   5.146   2.555   4.647 -0.7274  1.1046  1.4445
 8570SOL     OW26608   4.757   5.200   6.757 -0.5854  0.2267 -0.3146
 8570SOL    HW126609   4.717   5.264   6.691 -0.3586 -0.3162 -0.9897
 8570SOL    HW226610   4.794   5.121   6.709 -0.0262  0.0180  0.4311
 8571SOL     OW26611   6.336   3.094   4.676 -0.7901 -0.0688  0.2210
 8571SOL    HW126612   6.276   3.092   4.596  0.6722 -1.0431 -0.8991
 8571SOL    HW226613   6.428   3.066   4.650  0.7715  3.3976  1.4143
 8572SOL     OW26614   2.627   2.036   2.848 -0.9619  0.3394  0.3226
 8572SOL    HW126615   2.570   1.958   2.822 -3.0332  1.4814  1.2069
 8572SOL    HW226616   2.722   2.007   2.853 -1.4353 -1.6992 -1.0282
 8573SOL     OW26617   4.588   4.630   5.218  0.6915 -0.4921  0.4745
 8573SOL    HW126618   4.656   4.641   5.145 -0.3417  0.2533 -0.4119
 8573SOL    HW226619   4.578   4.716   5.268  0.3596 -0.5753  0.5544
 8574SOL     OW26620   4.222   1.909   4.003 -0.1143  0.3435 -0.3058
 8574SOL    HW126621   4.127   1.937   3.994  0.0947  0.6328 -1.8435
 8574SOL    HW226622   4.269   1.921   3.916  1.1399 -0.5292  0.2187
 8575SOL     OW26623   3.561   2.196   5.364 -0.0767 -0.1046  0.4440
 8575SOL    HW126624   3.597   2.107   5.393 -0.7172  0.3274  2.7782
 8575SOL    HW226625   3.636   2.261   5.352  0.3409 -0.7577 -0.6654
 8576SOL     OW26626   0.890   0.018   5.874 -0.2014 -0.1749  0.7938
 8576SOL    HW126627   0.933  -0.045   5.939 -0.6248 -0.8668  0.4281
 8576SOL    HW226628   0.806  -0.024   5.839 -0.1525  0.3266  0.0537
 8577SOL     OW26629   3.317   1.762   6.797 -0.4862  0.3845  0.5264
 8577SOL    HW126630   3.363   1.674   6.806  0.2113  0.4460 -1.7820
 8577SOL    HW226631   3.386   1.835   6.788 -1.0636  1.0350  1.1991
 8578SOL     OW26632   2.689   4.274   1.128 -0.0825  0.3134 -0.3365
 8578SOL    HW126633   2.670   4.362   1.084  2.0907  0.1839 -1.6744
 8578SOL    HW226634   2.728   4.289   1.219 -2.6886  0.6155  0.8157
 8579SOL     OW26635   0.702   0.292   4.496 -0.5976 -0.0653 -0.4534
 8579SOL    HW126636   0.728   0.386   4.516  0.0886 -0.2295 -0.5541
 8579SOL    HW226637   0.699   0.278   4.397  4.2144 -1.3880 -0.6742
 8580SOL     OW26638   1.244   4.929   1.681 -0.3852  0.1260  0.1429
 8580SOL    HW126639   1.179   4.868   1.636  0.1664 -0.1187 -0.3364
 8580SOL    HW226640   1.337   4.893   1.671 -0.2799 -0.2255  1.9369
 8581SOL     OW26641   1.950   2.424   0.562 -0.2544  0.6157 -0.4450
 8581SOL    HW126642   2.000   2.463   0.640 -1.0545  0.6720  0.0588
 8581SOL    HW226643   1.880   2.489   0.532 -0.9057  0.0166 -0.2698
 8582SOL     OW26644   4.908   6.348   0.844 -0.5784 -0.2302  0.6055
 8582SOL    HW126645   4.959   6.425   0.806 -0.5547  0.0699  1.2455
 8582SOL    HW226646   4.905   6.355   0.944 -2.4031  0.1060  0.5634
 8583SOL     OW26647   1.219   0.475   4.467 -0.1846 -0.6012 -1.1923
 8583SOL    HW126648   1.159   0.534   4.522 -0.6487 -1.0000 -1.2641
 8583SOL    HW226649   1.164   0.419   4.405  0.4163  1.8158 -4.1362
 8584SOL     OW26650   1.263   6.065   2.653 -0.0194  0.3632 -0.4321
 8584SOL    HW126651   1.237   6.133   2.721  0.7484 -1.2956  1.6456
 8584SOL    HW226652   1.182   6.018   2.620 -0.2849 -0.3244  1.0829
 8585SOL     OW26653   4.388   6.393   2.197 -0.1186  0.3242  0.2529
 8585SOL    HW126654   4.454   6.357   2.264  0.5002 -0.2034 -0.6216
 8585SOL    HW226655   4.419   6.482   2.165 -0.4149  0.5765  0.6597
 8586SOL     OW26656   2.410   3.134   6.523  0.1766 -0.1944 -0.3982
 8586SOL    HW126657   2.416   3.035   6.507 -2.3950 -0.2163 -1.7074
 8586SOL    HW226658   2.430   3.153   6.619 -0.7927 -2.1863  0.2622
 8587SOL     OW26659   1.312   1.100   5.888  0.5658 -0.2506 -0.2500
 8587SOL    HW126660   1.272   1.035   5.823  1.4481 -1.4641  0.3622
 8587SOL    HW226661   1.262   1.186   5.886 -1.4072 -1.3499 -0.2366
 8588SOL     OW26662   1.178   1.813   5.329  0.3608  0.3043  0.1062
 8588SOL    HW126663   1.180   1.748   5.405 -2.2587 -0.3935 -0.3201
 8588SOL    HW226664   1.214   1.770   5.247  0.2468 -0.0138  0.2237
 8589SOL     OW26665   1.442   3.032   0.257  0.2892 -0.3041  0.0755
 8589SOL    HW126666   1.481   3.084   0.180 -1.3766  1.0888  0.1161
 8589SOL    HW226667   1.408   2.944   0.224 -2.2816  1.0952 -1.3092
 8590SOL     OW26668   6.020   0.975   2.099 -0.8216  0.4941  0.3878
 8590SOL    HW126669   5.994   0.963   2.003 -1.0594 -1.1757  0.6300
 8590SOL    HW226670   6.079   1.055   2.108 -1.5163  1.2037 -1.0028
 8591SOL     OW26671   5.504   0.555   5.162  0.0553 -0.3625 -0.3049
 8591SOL    HW126672   5.521   0.576   5.259  0.3472 -0.3961 -0.3489
 8591SOL    HW226673   5.590   0.561   5.111 -0.0820 -0.4415 -0.5450
 8592SOL     OW26674   2.014   4.142   6.330  0.0194 -0.3292 -0.7492
 8592SOL    HW126675   1.967   4.217   6.282 -1.1121 -0.7227 -0.2742
 8592SOL    HW226676   1.982   4.138   6.425  0.6252 -0.9463 -0.5672
 8593SOL     OW26677   1.897   2.148   0.530  0.5037  0.4815 -0.5547
 8593SOL    HW126678   1.908   2.248   0.528 -0.0676  0.5702  0.1934
 8593SOL    HW226679   1.813   2.125   0.580  0.8403 -0.3833 -0.3743
 8594SOL     OW26680   4.684   3.744   6.869  0.8067  0.0175 -0.2149
 8594SOL    HW126681   4.757   3.731   6.936  1.2818  1.1170 -0.4993
 8594SOL    HW226682   4.604   3.783   6.914  0.9056  0.1700 -0.1703
 8595SOL     OW26683   2.187   0.383   6.727  0.5807  0.2657  0.0485
 8595SOL    HW126684   2.262   0.395   6.662  1.0744  0.2539  0.6061
 8595SOL    HW226685   2.139   0.298   6.707  1.4103 -0.2934  0.3641
 8596SOL     OW26686   1.389   5.245   2.833  0.3053 -0.1323  0.2994
 8596SOL    HW126687   1.292   5.234   2.813  0.0531  0.4516  1.1425
 8596SOL    HW226688   1.412   5.193   2.916 -0.1351  2.6129  2.2845
 8597SOL     OW26689   4.276   0.119   2.046 -0.2915 -0.0458 -0.1437
 8597SOL    HW126690   4.183   0.086   2.065 -0.2767  0.1035  0.1964
 8597SOL    HW226691   4.276   0.219   2.043 -0.3370 -0.0599 -1.1786
 8598SOL     OW26692   5.846   6.588   1.068  0.5175  0.0366 -0.1167
 8598SOL    HW126693   5.847   6.569   1.166 -0.6939  0.4849  0.0085
 8598SOL    HW226694   5.897   6.672   1.050 -0.1600  0.5493  0.2877
 8599SOL     OW26695   2.861   6.549   5.455  0.3209 -0.4058 -0.5289
 8599SOL    HW126696   2.790   6.572   5.521  0.0403 -0.4571 -0.8112
 8599SOL    HW226697   2.936   6.501   5.502 -0.4803 -1.6339 -0.4673
 8600SOL     OW26698   1.697   0.465   3.502 -0.1520  0.1037  0.1716
 8600SOL    HW126699   1.754   0.445   3.422  0.3337 -0.6951  0.6992
 8600SOL    HW226700   1.695   0.384   3.561 -0.6354  0.6364  0.8865
 8601SOL     OW26701   1.817   6.410   4.969 -0.4973 -0.0300  0.1539
 8601SOL    HW126702   1.825   6.363   4.881 -0.8832  0.8374 -0.3611
 8601SOL    HW226703   1.792   6.345   5.040 -2.0381 -0.4320 -0.7260
 8602SOL     OW26704   5.831   1.513   6.473 -0.5695 -0.1202  0.4692
 8602SOL    HW126705   5.738   1.549   6.465 -0.3750  0.2834  0.0552
 8602SOL    HW226706   5.834   1.447   6.549 -1.2460 -0.3116  0.3330
 8603SOL     OW26707   5.263   1.878   0.601 -0.8127  0.5551 -0.2865
 8603SOL    HW126708   5.207   1.924   0.670 -2.4497  1.4900 -2.1311
 8603SOL    HW226709   5.204   1.819   0.545  0.4180  0.0219 -1.0463
 8604SOL     OW26710   2.080   6.056   4.419 -0.2199 -0.1485 -0.3142
 8604SOL    HW126711   2.003   6.095   4.471 -1.0553 -1.1934 -0.7115
 8604SOL    HW226712   2.125   6.128   4.367 -1.9525  0.2686 -1.3304
 8605SOL     OW26713   5.590   4.034   2.216 -0.3803 -0.1893  0.3819
 8605SOL    HW126714   5.667   4.078   2.261  0.5487 -2.3680  1.0563
 8605SOL    HW226715   5.505   4.059   2.264 -0.1277  1.9507 -0.1583
 8606SOL     OW26716   6.669   0.157   2.176 -0.0435 -0.2763  0.0910
 8606SOL    HW126717   6.589   0.213   2.198 -0.1249  0.1387 -1.1888
 8606SOL    HW226718   6.645   0.060   2.183 -0.5895 -0.1532 -0.0489
 8607SOL     OW26719   6.802   1.348   4.460 -0.2296 -0.2478  0.2878
 8607SOL    HW126720   6.795   1.255   4.423 -2.0859 -1.1656  2.6597
 8607SOL    HW226721   6.890   1.361   4.504  0.3865 -0.5419 -0.8230
 8608SOL     OW26722   2.853   1.349   3.288 -0.3760  0.0288 -0.0535
 8608SOL    HW126723   2.912   1.333   3.209 -0.0247 -2.8015  0.6621
 8608SOL    HW226724   2.824   1.261   3.326  0.1576  1.2137  3.4589
 8609SOL     OW26725   6.235   5.852   6.404  0.7651 -0.0354  0.3426
 8609SOL    HW126726   6.302   5.901   6.459  1.1096 -0.3980  0.2478
 8609SOL    HW226727   6.264   5.756   6.392  1.8097  0.5047 -2.2202
 8610SOL     OW26728   4.180   3.506   6.359 -0.1052 -0.2453 -0.2288
 8610SOL    HW126729   4.166   3.477   6.453 -1.0571 -0.0600 -0.3073
 8610SOL    HW226730   4.092   3.522   6.315  0.3483  0.9818 -0.7434
 8611SOL     OW26731   2.157   1.390   4.992  0.2082  0.2987 -0.7938
 8611SOL    HW126732   2.125   1.410   5.084  1.7217  1.4954 -0.4862
 8611SOL    HW226733   2.101   1.440   4.926  0.1687  0.7747 -0.4034
 8612SOL     OW26734   5.304   4.997   3.647  0.8455  0.3557  0.3587
 8612SOL    HW126735   5.266   5.060   3.580 -1.2947 -0.8467  0.3595
 8612SOL    HW226736   5.256   5.008   3.735  2.9493  1.2428  1.4753
 8613SOL     OW26737   0.201   6.583   2.304  0.6107  0.0501 -0.4355
 8613SOL    HW126738   0.240   6.674   2.291  1.1734  0.0844  1.2818
 8613SOL    HW226739   0.136   6.584   2.379  3.2798 -1.5972  2.1547
 8614SOL     OW26740   3.889   5.956   6.983 -0.3150  0.4105 -0.1329
 8614SOL    HW126741   3.843   5.937   6.896 -0.7102 -2.9949  0.6726
 8614SOL    HW226742   3.977   5.909   6.985  0.5123  1.9350  0.6627
 8615SOL     OW26743   6.132   1.522   6.417  0.5178  0.4086 -0.1095
 8615SOL    HW126744   6.168   1.488   6.504 -0.9439  0.1722  0.4347
 8615SOL    HW226745   6.037   1.553   6.429 -0.0734 -0.5445 -1.8099
 8616SOL     OW26746   2.177   5.966   6.304  0.0935  0.0198  0.4978
 8616SOL    HW126747   2.129   5.946   6.390 -1.5955 -1.0168 -0.6358
 8616SOL    HW226748   2.178   6.065   6.290 -0.5869  0.1378  1.1919
 8617SOL     OW26749   6.838   6.971   1.727 -0.1702  0.0754 -0.1919
 8617SOL    HW126750   6.897   6.890   1.727 -0.2194  0.0262 -1.5881
 8617SOL    HW226751   6.866   7.032   1.802  0.1331 -1.0171  0.6230
 8618SOL     OW26752   1.179   3.681   1.983  0.5015  0.5145 -0.0969
 8618SOL    HW126753   1.276   3.678   1.959  1.1391 -1.4771  2.3338
 8618SOL    HW226754   1.126   3.630   1.915  1.0805  1.7380 -1.5188
 8619SOL     OW26755   0.866   6.120   2.065  0.2064 -0.4066 -0.2959
 8619SOL    HW126756   0.862   6.208   2.111  0.1252 -0.7365  0.3425
 8619SOL    HW226757   0.800   6.118   1.989 -0.9714 -0.4824  0.6984
 8620SOL     OW26758   0.558   1.347   3.392  0.3154 -0.0473  0.1379
 8620SOL    HW126759   0.491   1.411   3.353 -0.2560 -0.5557  0.2742
 8620SOL    HW226760   0.551   1.347   3.492 -1.1585 -1.8487  0.0888
 8621SOL     OW26761   0.491   3.172   2.276  0.0831 -0.2812  0.0253
 8621SOL    HW126762   0.551   3.131   2.345  1.8622  0.8770 -0.7514
 8621SOL    HW226763   0.429   3.237   2.320  0.8015  0.0167  0.6208
 8622SOL     OW26764   0.618   1.638   5.692  0.6899  0.1547 -0.1573
 8622SOL    HW126765   0.652   1.601   5.606  0.2475  1.5507 -0.9704
 8622SOL    HW226766   0.688   1.695   5.735 -0.0907  1.9938 -1.1957
 8623SOL     OW26767   5.235   5.062   4.324  0.1251  0.2820 -0.6419
 8623SOL    HW126768   5.232   5.027   4.417  1.5766 -1.5479 -1.2124
 8623SOL    HW226769   5.260   4.988   4.261  2.0288  2.0642 -2.1208
 8624SOL     OW26770   3.217   5.028   2.320  0.5312 -0.1033 -0.0870
 8624SOL    HW126771   3.227   5.116   2.366 -1.2885  0.0561  0.0908
 8624SOL    HW226772   3.223   4.955   2.388 -2.0770  0.1273  0.5019
 8625SOL     OW26773   5.964   4.986   4.999  0.2448 -0.2149 -1.0531
 8625SOL    HW126774   5.905   4.968   4.920 -0.4361  1.9889 -1.1255
 8625SOL    HW226775   5.944   5.077   5.034  1.2739 -0.7487  1.0422
 8626SOL     OW26776   3.267   6.385   4.572  0.4203  0.1838  0.4617
 8626SOL    HW126777   3.248   6.445   4.650 -0.3315 -0.1400  0.5384
 8626SOL    HW226778   3.195   6.316   4.566  0.5295  0.1459 -0.4651
 8627SOL     OW26779   4.075   3.792   3.401  0.6748  0.4826 -0.3467
 8627SOL    HW126780   4.092   3.697   3.424  1.0263  0.2494 -1.4995
 8627SOL    HW226781   4.105   3.851   3.476 -1.8424 -0.4148  1.4756
 8628SOL     OW26782   6.821   1.918   5.874 -0.4950 -0.4025 -0.4198
 8628SOL    HW126783   6.861   1.930   5.964  1.8961 -0.4877 -1.3960
 8628SOL    HW226784   6.722   1.932   5.879 -0.4163 -0.3543  2.1630
 8629SOL     OW26785   0.983   2.008   4.918 -0.0511 -0.0999 -0.6600
 8629SOL    HW126786   0.971   1.911   4.938 -0.3650 -0.6880 -3.2945
 8629SOL    HW226787   0.999   2.058   5.003  1.7786 -2.6545  0.6194
 8630SOL     OW26788   1.885   2.597   3.111 -0.5263 -0.2151  0.3269
 8630SOL    HW126789   1.927   2.519   3.157  1.2711  0.4679 -0.0863
 8630SOL    HW226790   1.900   2.680   3.166  0.0634  0.2963 -0.5720
 8631SOL     OW26791   2.239   1.948   2.466 -0.6655  0.1061  0.1049
 8631SOL    HW126792   2.330   1.956   2.505 -1.3180 -1.1355  2.0540
 8631SOL    HW226793   2.226   2.017   2.395  1.1720  1.4119  0.9824
 8632SOL     OW26794   5.821   5.210   0.301 -0.5378 -0.4715  0.2564
 8632SOL    HW126795   5.874   5.278   0.251 -1.3373  0.8253  1.1102
 8632SOL    HW226796   5.879   5.132   0.324  0.4900  0.0631 -0.4459
 8633SOL     OW26797   3.487   1.691   1.080  0.5172 -0.0670 -0.3055
 8633SOL    HW126798   3.566   1.752   1.091 -1.1212  2.1097  0.2660
 8633SOL    HW226799   3.515   1.597   1.096  2.7014  0.7615  1.3275
 8634SOL     OW26800   3.666   2.004   4.357 -0.7421  0.6378  0.2912
 8634SOL    HW126801   3.734   2.026   4.286 -0.2644 -0.0931  0.5007
 8634SOL    HW226802   3.711   1.952   4.430 -0.9107  2.5403  1.8323
 8635SOL     OW26803   0.744   2.737   3.394  0.0857  0.6263  0.0754
 8635SOL    HW126804   0.742   2.646   3.352 -0.7348  0.5927  0.1626
 8635SOL    HW226805   0.758   2.806   3.323  1.1207  0.4120  0.0597
 8636SOL     OW26806   0.929   5.123   0.415 -0.0498  0.1492 -0.5649
 8636SOL    HW126807   0.945   5.054   0.486  0.0335  1.1524  0.4212
 8636SOL    HW226808   0.847   5.098   0.363 -0.6485 -0.1423  0.4778
 8637SOL     OW26809   6.566   6.998   1.638  0.0708  0.4873 -0.1363
 8637SOL    HW126810   6.664   6.995   1.618  0.5519 -0.8588  2.1278
 8637SOL    HW226811   6.552   7.032   1.731 -1.2935 -2.7404  0.9770
 8638SOL     OW26812   1.024   5.346   2.216  0.1315 -0.0665 -0.1223
 8638SOL    HW126813   1.061   5.438   2.202  0.6554 -0.3906 -0.9650
 8638SOL    HW226814   0.924   5.349   2.212  0.0679  0.7013  1.4073
 8639SOL     OW26815   1.392   5.322   5.813 -0.3126  0.1789 -0.2108
 8639SOL    HW126816   1.370   5.250   5.879  3.2493 -0.0772  0.8898
 8639SOL    HW226817   1.428   5.401   5.861  1.2970  0.4232 -1.7485
 8640SOL     OW26818   5.245   6.917   2.409 -0.3383  0.3606  0.0712
 8640SOL    HW126819   5.175   6.985   2.385 -0.1916  0.6049  0.3273
 8640SOL    HW226820   5.288   6.943   2.495  0.4025  0.4604 -0.3252
 8641SOL     OW26821   4.457   1.719   3.829  0.1215  0.1407 -0.9900
 8641SOL    HW126822   4.411   1.808   3.819 -2.7306 -0.9154  1.3239
 8641SOL    HW226823   4.502   1.715   3.918  2.3000  0.0319 -2.0318
 8642SOL     OW26824   4.454   5.403   3.307  0.5645 -0.1516 -0.6627
 8642SOL    HW126825   4.446   5.362   3.216 -0.1790  0.0853 -0.7077
 8642SOL    HW226826   4.399   5.487   3.310  2.1709  0.9499 -0.6371
 8643SOL     OW26827   4.430   0.361   4.491  0.7356 -0.1905 -0.4863
 8643SOL    HW126828   4.352   0.365   4.428 -0.2462 -2.7239  0.4428
 8643SOL    HW226829   4.514   0.345   4.439  0.2651  0.0373 -1.3302
 8644SOL     OW26830   0.626   3.159   3.787 -0.0691  0.6435 -0.0700
 8644SOL    HW126831   0.705   3.181   3.728  0.1593  1.1011  0.3923
 8644SOL    HW226832   0.586   3.244   3.821 -0.1878  0.3805  0.4527
 8645SOL     OW26833   2.640   6.687   5.687 -0.0374 -0.2419 -0.3451
 8645SOL    HW126834   2.569   6.756   5.701  1.7357  2.1535 -2.2915
 8645SOL    HW226835   2.689   6.671   5.773 -1.0625  0.2275  0.3444
 8646SOL     OW26836   3.105   1.708   4.788 -0.0968 -0.0243 -0.5671
 8646SOL    HW126837   3.046   1.787   4.806  0.3017  0.4663 -1.3560
 8646SOL    HW226838   3.166   1.695   4.865 -1.7501 -1.0359  0.6289
 8647SOL     OW26839   0.126   6.129   5.113 -0.3492 -0.8077  0.3023
 8647SOL    HW126840   0.194   6.176   5.057 -1.4844  0.5773  0.0316
 8647SOL    HW226841   0.090   6.051   5.062  0.5728 -1.1885  0.2104
 8648SOL     OW26842   6.093   5.297   3.251 -0.4366  0.5419 -0.4917
 8648SOL    HW126843   5.999   5.289   3.218 -0.8268  0.8037  0.5208
 8648SOL    HW226844   6.148   5.223   3.213 -1.4196 -0.5518  0.1507
 8649SOL     OW26845   6.948   3.994   2.478 -0.2201  0.0154 -0.8312
 8649SOL    HW126846   6.959   3.984   2.577  1.0522  0.5223 -0.8988
 8649SOL    HW226847   6.919   4.088   2.457  2.0441  0.7110 -1.0679
 8650SOL     OW26848   6.175   0.013   1.570  0.1754 -0.2893 -0.1289
 8650SOL    HW126849   6.242  -0.045   1.524  0.0278 -1.6027  1.2513
 8650SOL    HW226850   6.090   0.016   1.517  0.9248  0.5523 -1.3586
 8651SOL     OW26851   2.452   2.476   4.250 -0.0018  0.0084  0.5151
 8651SOL    HW126852   2.546   2.445   4.235  0.3015  0.9626  0.3970
 8651SOL    HW226853   2.441   2.504   4.345 -0.0481  0.3042  0.4224
 8652SOL     OW26854   5.456   0.647   5.426  0.2227 -0.0346 -0.7319
 8652SOL    HW126855   5.444   0.593   5.509 -1.6800  2.1700  0.5678
 8652SOL    HW226856   5.367   0.659   5.381 -0.4918  5.2125  1.3480
 8653SOL     OW26857   4.720   2.701   4.316 -0.6076 -0.0452 -0.2372
 8653SOL    HW126858   4.809   2.657   4.304  0.2665  1.5402  0.0815
 8653SOL    HW226859   4.707   2.769   4.244 -1.3528  0.0590 -0.0114
 8654SOL     OW26860   5.031   1.143   2.127 -0.1478  0.0063  0.1340
 8654SOL    HW126861   5.009   1.198   2.046 -1.3770 -1.6310 -0.7090
 8654SOL    HW226862   5.094   1.070   2.101  0.3507  0.1312  0.9387
 8655SOL     OW26863   3.482   1.438   5.028  0.4668 -0.1750  0.4680
 8655SOL    HW126864   3.514   1.344   5.044 -1.9930 -1.2500 -0.5027
 8655SOL    HW226865   3.529   1.476   4.948 -0.3491 -1.5926 -0.7409
 8656SOL     OW26866   4.100   5.413   6.958  0.4240  0.3373  0.4540
 8656SOL    HW126867   4.115   5.326   7.006 -0.9827 -0.0429  0.2607
 8656SOL    HW226868   4.180   5.435   6.903  1.3253 -0.1711  1.5223
 8657SOL     OW26869   3.457   5.441   6.099 -0.2611  0.4315  0.2923
 8657SOL    HW126870   3.489   5.481   6.184  1.3316 -0.8261  0.3243
 8657SOL    HW226871   3.514   5.363   6.075 -1.5596 -0.1130 -1.2000
 8658SOL     OW26872   5.404   3.300   3.517  0.0120  0.2421  0.0922
 8658SOL    HW126873   5.309   3.271   3.527  0.0822 -0.4124 -1.0084
 8658SOL    HW226874   5.407   3.395   3.484 -0.2511  0.2870  0.1958
 8659SOL     OW26875   0.470   3.007   4.733 -0.0314  0.1205 -0.6482
 8659SOL    HW126876   0.407   2.952   4.788  0.7348 -0.8050 -0.6506
 8659SOL    HW226877   0.547   3.037   4.791 -0.9489  2.1125 -0.3862
 8660SOL     OW26878   1.188   1.663   2.012  0.1976 -0.5241  0.5252
 8660SOL    HW126879   1.193   1.583   1.952 -2.6832 -0.1516 -0.3513
 8660SOL    HW226880   1.214   1.744   1.960 -2.1103 -0.2280 -0.2627
 8661SOL     OW26881   5.977   2.741   2.281 -0.5236  0.0957  0.7360
 8661SOL    HW126882   5.957   2.691   2.196 -1.1328 -1.6799  1.8576
 8661SOL    HW226883   6.068   2.715   2.314 -0.8600 -0.3292  1.3498
 8662SOL     OW26884   3.744   2.886   0.560 -0.1663 -1.2786 -0.5619
 8662SOL    HW126885   3.838   2.868   0.589  0.8349  0.5893 -2.3954
 8662SOL    HW226886   3.724   2.834   0.477 -0.5898 -1.3338 -0.4235
 8663SOL     OW26887   0.489   6.707   3.026 -0.0489 -0.0117 -1.1244
 8663SOL    HW126888   0.500   6.608   3.018  1.4815  0.1297 -1.0299
 8663SOL    HW226889   0.392   6.730   3.023 -0.4051 -1.4733 -1.6014
 8664SOL     OW26890   6.791   3.085   4.586 -0.4143 -0.2639  0.6560
 8664SOL    HW126891   6.874   3.102   4.532  1.0143 -1.7080  2.2876
 8664SOL    HW226892   6.774   3.164   4.645 -1.6066  1.0377 -1.2899
 8665SOL     OW26893   6.413   4.200   1.742 -0.1973 -0.5529  0.5596
 8665SOL    HW126894   6.399   4.125   1.677  0.3469 -0.4460  0.3165
 8665SOL    HW226895   6.480   4.264   1.706 -0.9884  0.2978  0.5669
 8666SOL     OW26896   1.554   4.100   0.528  0.2145 -0.2191 -0.2580
 8666SOL    HW126897   1.578   4.042   0.606 -0.6285  0.2483  0.3642
 8666SOL    HW226898   1.489   4.170   0.557  0.0357  0.0873 -1.3407
 8667SOL     OW26899   5.097   5.372   6.707 -0.9140 -0.2878  0.0604
 8667SOL    HW126900   5.195   5.391   6.714 -0.0686 -4.1257  1.1042
 8667SOL    HW226901   5.062   5.409   6.621  1.8418 -0.1752 -1.1279
 8668SOL     OW26902   3.295   0.822   2.330  0.3003 -0.5405  0.4184
 8668SOL    HW126903   3.305   0.767   2.247 -1.1825 -1.5711  0.8916
 8668SOL    HW226904   3.215   0.880   2.322  0.6766  0.0350  0.7711
 8669SOL     OW26905   1.325   4.668   2.844  0.7071 -0.5062 -0.1272
 8669SOL    HW126906   1.321   4.729   2.764  1.2923  0.2745  0.4210
 8669SOL    HW226907   1.399   4.697   2.904  0.0172 -0.8374  0.9050
 8670SOL     OW26908   1.330   2.555   6.425 -0.6625 -0.7690  0.0526
 8670SOL    HW126909   1.427   2.559   6.449 -0.5833 -0.6269 -0.2790
 8670SOL    HW226910   1.296   2.462   6.439 -1.1270 -0.2681  2.5824
 8671SOL     OW26911   6.955   1.144   4.895 -0.3396 -0.7707  0.4345
 8671SOL    HW126912   6.857   1.159   4.882 -0.3167 -1.0133 -0.0498
 8671SOL    HW226913   6.983   1.061   4.847  0.0033 -0.9966  1.0104
 8672SOL     OW26914   0.191   4.331   0.495 -0.5511 -0.1210  0.2859
 8672SOL    HW126915   0.277   4.359   0.454 -0.5690 -0.0885  0.2713
 8672SOL    HW226916   0.115   4.351   0.433 -0.6765  0.7678  0.7075
 8673SOL     OW26917   2.289   6.921   4.849 -0.0821 -0.4074 -0.0358
 8673SOL    HW126918   2.210   6.917   4.910 -0.7832 -1.8423 -1.0145
 8673SOL    HW226919   2.262   6.899   4.756  1.5083 -1.1210 -0.3679
 8674SOL     OW26920   0.838   3.062   2.303  0.3382  0.2380  0.5961
 8674SOL    HW126921   0.806   3.076   2.396 -0.2837  1.4429  0.2230
 8674SOL    HW226922   0.927   3.015   2.304  1.4128  2.1952  1.8894
 8675SOL     OW26923   6.218   4.771   4.701 -0.1579 -0.2536 -0.0199
 8675SOL    HW126924   6.219   4.846   4.635  0.2664 -0.2300  0.0135
 8675SOL    HW226925   6.135   4.777   4.757  0.3346  0.7726  0.6349
 8676SOL     OW26926   0.291   0.324   1.924 -0.3856 -0.1464  0.6859
 8676SOL    HW126927   0.245   0.242   1.891  0.5560 -1.0349  1.5163
 8676SOL    HW226928   0.336   0.371   1.848  2.0391 -2.3301  0.6501
 8677SOL     OW26929   5.677   6.282   3.934  0.1264  0.0567 -0.2491
 8677SOL    HW126930   5.605   6.345   3.961 -1.6201 -1.5780 -0.9104
 8677SOL    HW226931   5.641   6.189   3.929  2.6496 -1.0970  0.9072
 8678SOL     OW26932   0.340   6.511   1.213  0.5786  0.1773  0.1530
 8678SOL    HW126933   0.362   6.509   1.115 -0.2101 -1.4280 -0.0229
 8678SOL    HW226934   0.424   6.514   1.266  1.1205 -1.2752 -0.5681
 8679SOL     OW26935   0.188   2.501   2.100  0.4537 -0.2032  0.1374
 8679SOL    HW126936   0.147   2.558   2.172  1.8866  0.0056  0.8264
 8679SOL    HW226937   0.171   2.405   2.120  1.6617 -0.2032  1.3387
 8680SOL     OW26938   4.956   0.862   5.460  0.2874  0.2497  0.2945
 8680SOL    HW126939   5.033   0.868   5.524 -0.1048  1.0068  0.7016
 8680SOL    HW226940   4.992   0.848   5.367  0.8957  0.0892  0.5473
 8681SOL     OW26941   3.207   6.982   0.598  0.5139 -0.4013  0.3528
 8681SOL    HW126942   3.214   6.940   0.688  1.6718 -0.6097  0.1779
 8681SOL    HW226943   3.243   6.919   0.529 -0.5307 -0.3224 -0.2935
 8682SOL     OW26944   3.148   3.432   4.786 -0.1836  0.8679  0.2879
 8682SOL    HW126945   3.210   3.361   4.754 -0.2168  1.1430 -0.4069
 8682SOL    HW226946   3.197   3.493   4.849 -0.1206  0.3179  0.7789
 8683SOL     OW26947   4.743   6.771   1.779  0.0798  0.2985  0.3915
 8683SOL    HW126948   4.718   6.683   1.818  1.0786 -0.4802 -0.6547
 8683SOL    HW226949   4.841   6.787   1.792  0.3203  0.2929 -1.1816
 8684SOL     OW26950   1.634   0.018   1.478 -0.1167  0.1523  0.1536
 8684SOL    HW126951   1.667   0.073   1.402  0.3173 -1.0812 -0.5848
 8684SOL    HW226952   1.586  -0.063   1.442  0.3694 -0.6155  1.1796
 8685SOL     OW26953   1.171   1.300   6.235  0.2223  0.3196  0.2710
 8685SOL    HW126954   1.091   1.247   6.263 -0.5026  0.6891 -1.0158
 8685SOL    HW226955   1.198   1.361   6.309 -0.4526 -0.0803  0.8566
 8686SOL     OW26956   4.567   6.988   0.828 -0.1235  0.4888  0.7995
 8686SOL    HW126957   4.498   7.058   0.844  1.3951  1.9584  1.2618
 8686SOL    HW226958   4.547   6.940   0.743 -1.9356  0.5523  1.1606
 8687SOL     OW26959   3.220   3.851   6.692 -0.0853  0.5028 -0.0362
 8687SOL    HW126960   3.237   3.808   6.781 -1.4919  2.6737  1.3689
 8687SOL    HW226961   3.146   3.803   6.645  1.7954 -1.7310 -0.9175
 8688SOL     OW26962   2.224   4.670   5.080 -0.1373  0.4047  0.2297
 8688SOL    HW126963   2.304   4.613   5.065 -1.3817 -1.3818  0.0408
 8688SOL    HW226964   2.244   4.737   5.151  0.8816 -1.4008  1.7566
 8689SOL     OW26965   1.366   6.117   4.188 -0.3873  0.4058  0.0026
 8689SOL    HW126966   1.321   6.205   4.200  1.3331  1.2932  0.1681
 8689SOL    HW226967   1.306   6.044   4.223 -0.6370  1.7677  2.6654
 8690SOL     OW26968   6.908   1.124   0.338  0.6322 -0.0246 -0.0412
 8690SOL    HW126969   6.818   1.107   0.377  0.9532  0.0876  0.7702
 8690SOL    HW226970   6.916   1.076   0.251  0.2851 -1.2037  0.5587
 8691SOL     OW26971   4.836   1.734   6.470  0.1481  0.1216  0.0792
 8691SOL    HW126972   4.893   1.656   6.446 -1.3515 -1.0949  0.3088
 8691SOL    HW226973   4.763   1.704   6.531 -0.8780  1.5803 -0.3809
 8692SOL     OW26974   5.267   5.941   6.875 -0.1952 -0.3875  0.1687
 8692SOL    HW126975   5.242   5.870   6.808  0.4278  0.0085 -0.5012
 8692SOL    HW226976   5.367   5.950   6.877 -0.2973  1.0655 -0.3940
 8693SOL     OW26977   5.728   0.407   3.079 -0.2094 -0.1163 -0.4789
 8693SOL    HW126978   5.788   0.421   3.158 -0.4318  0.0049 -0.3280
 8693SOL    HW226979   5.654   0.475   3.081  0.2085  0.3764 -1.2030
 8694SOL     OW26980   2.278   0.085   6.969 -0.2019  0.2965 -1.0623
 8694SOL    HW126981   2.292   0.022   6.893  1.6240  0.4905 -0.9491
 8694SOL    HW226982   2.271   0.034   7.055 -0.9433  0.1464 -1.2093
 8695SOL     OW26983   2.393   0.981   6.758  0.1001  0.2339  0.5142
 8695SOL    HW126984   2.483   1.024   6.756  0.1854  0.0514 -1.7738
 8695SOL    HW226985   2.324   1.046   6.726 -0.3686 -0.1085  0.8058
 8696SOL     OW26986   1.567   6.109   0.098 -0.6425  0.3322  0.5176
 8696SOL    HW126987   1.660   6.073   0.086 -0.9120 -0.4353  0.6522
 8696SOL    HW226988   1.506   6.035   0.127 -1.7110  0.3747 -1.4755
 8697SOL     OW26989   3.650   1.197   5.125 -0.0467  0.0552  0.0594
 8697SOL    HW126990   3.727   1.171   5.184  0.3722 -0.3314 -0.6552
 8697SOL    HW226991   3.624   1.119   5.068  0.1416  0.7057 -0.9236
 8698SOL     OW26992   0.039   7.019   4.816 -0.0900 -0.3603  0.0695
 8698SOL    HW126993   0.129   7.045   4.850  0.3344 -0.5202 -0.8858
 8698SOL    HW226994   0.005   6.941   4.868 -0.0993  0.2935  1.0523
 8699SOL     OW26995   5.273   4.016   5.363 -0.5146 -0.3281  0.0650
 8699SOL    HW126996   5.298   3.920   5.366  0.4468 -0.0975 -0.1698
 8699SOL    HW226997   5.226   4.037   5.278 -0.1014 -0.4493 -0.1938
 8700SOL     OW26998   5.575   0.315   1.334  0.0606  0.8636 -0.3317
 8700SOL    HW126999   5.566   0.301   1.433  1.4392  1.3925 -0.0962
 8700SOL    HW227000   5.511   0.386   1.304 -1.3747 -0.2920 -0.1051
 8701SOL     OW27001   3.606   1.401   2.518 -0.3935  0.4500 -0.2147
 8701SOL    HW127002   3.678   1.434   2.457 -1.4688  2.0622 -0.6660
 8701SOL    HW227003   3.561   1.479   2.562 -0.2703 -0.6210  1.9504
 8702SOL     OW27004   2.993   4.522   6.174 -0.1540 -0.1332  0.3764
 8702SOL    HW127005   2.968   4.576   6.255  0.0516 -1.6945  1.5222
 8702SOL    HW227006   2.974   4.425   6.192  0.3183 -0.5595 -1.2997
 8703SOL     OW27007   5.066   4.457   3.099 -0.2010  0.2501  0.4676
 8703SOL    HW127008   5.055   4.435   3.196  0.5995 -1.2607  0.2458
 8703SOL    HW227009   4.987   4.424   3.048 -0.3210  0.4575  0.5196
 8704SOL     OW27010   0.481   0.613   1.310  0.0727  0.2011  0.3187
 8704SOL    HW127011   0.408   0.545   1.304  0.7177 -0.6289  1.3658
 8704SOL    HW227012   0.559   0.584   1.255 -0.5472  1.3449 -1.2203
 8705SOL     OW27013   4.367   2.717   1.116  0.2342  0.0776 -0.3285
 8705SOL    HW127014   4.296   2.663   1.070  1.2340 -0.0863 -1.7403
 8705SOL    HW227015   4.410   2.779   1.050  1.6773 -0.1163  0.3938
 8706SOL     OW27016   1.205   1.574   4.633  0.0192 -0.2289 -0.2400
 8706SOL    HW127017   1.209   1.571   4.533 -0.9624  1.3610 -0.3707
 8706SOL    HW227018   1.133   1.637   4.661 -0.1688 -1.1530  1.4914
 8707SOL     OW27019   4.809   1.836   0.898  0.1571  0.4293  0.0221
 8707SOL    HW127020   4.893   1.889   0.886  0.9300 -0.5197  1.0765
 8707SOL    HW227021   4.732   1.899   0.911  0.5352  1.3301 -1.7526
 8708SOL     OW27022   1.898   4.802   0.633  0.2815 -0.3804 -0.1193
 8708SOL    HW127023   1.810   4.818   0.678 -0.0190 -0.9475 -0.4850
 8708SOL    HW227024   1.918   4.704   0.634  1.7948 -0.1139  1.5767
 8709SOL     OW27025   1.315   4.326   2.559  0.4331  0.0764  0.1937
 8709SOL    HW127026   1.314   4.421   2.529  0.0686  0.0951  0.2640
 8709SOL    HW227027   1.385   4.276   2.508  0.3509  0.2869 -0.1294
 8710SOL     OW27028   0.546   1.584   3.775 -0.3571 -0.4500  0.5971
 8710SOL    HW127029   0.607   1.637   3.716 -1.4892 -0.3597 -0.5423
 8710SOL    HW227030   0.466   1.639   3.798 -0.8249 -1.1378  0.6514
 8711SOL     OW27031   0.750   0.073   6.308 -0.2374 -0.3543  0.8692
 8711SOL    HW127032   0.664   0.090   6.357 -0.2504  0.2212  0.6449
 8711SOL    HW227033   0.817   0.035   6.371  0.1540  1.5404  1.6439
 8712SOL     OW27034   3.537   2.137   3.924 -0.2007  0.9421 -0.3773
 8712SOL    HW127035   3.450   2.179   3.897 -0.2538  0.6082 -0.7356
 8712SOL    HW227036   3.535   2.117   4.022 -1.3065 -0.8565 -0.7149
 8713SOL     OW27037   1.526   7.022   2.503 -0.0749  0.5434  0.1072
 8713SOL    HW127038   1.549   6.963   2.580  0.8246  1.8836  0.9288
 8713SOL    HW227039   1.466   7.096   2.534 -0.9451  0.2503 -0.8244
 8714SOL     OW27040   1.358   2.591   4.285 -0.6757 -0.1583  0.0646
 8714SOL    HW127041   1.264   2.565   4.262 -1.1040  2.0455 -0.9176
 8714SOL    HW227042   1.390   2.662   4.222  2.5489 -2.4723 -1.1490
 8715SOL     OW27043   4.578   2.525   6.562  0.1593 -0.7654 -0.1005
 8715SOL    HW127044   4.487   2.520   6.520 -0.3914  2.9931  0.3242
 8715SOL    HW227045   4.569   2.529   6.661  0.8772 -1.3980 -0.0024
 8716SOL     OW27046   6.081   3.402   1.346  0.6273 -0.7791 -0.0952
 8716SOL    HW127047   6.016   3.345   1.397 -0.3290  0.5266  0.2284
 8716SOL    HW227048   6.148   3.440   1.410 -0.0373  0.1449  0.0844
 8717SOL     OW27049   2.627   2.485   4.801  0.2235  0.0887 -0.1738
 8717SOL    HW127050   2.650   2.458   4.895 -0.4464 -0.9902 -0.2941
 8717SOL    HW227051   2.608   2.403   4.747  0.1902  0.7219 -1.1480
 8718SOL     OW27052   0.382   0.876   2.487 -0.2382  0.0637 -0.2011
 8718SOL    HW127053   0.397   0.777   2.491 -1.0286 -0.0391  0.7222
 8718SOL    HW227054   0.414   0.917   2.573 -0.0763  0.5894 -0.5088
 8719SOL     OW27055   3.115   2.175   3.303 -0.4535  0.4736  0.0631
 8719SOL    HW127056   3.092   2.238   3.377 -0.3949  1.8441 -1.0340
 8719SOL    HW227057   3.212   2.153   3.307 -0.7456 -0.7468  1.3053
 8720SOL     OW27058   1.262   6.387   2.750  0.0034  0.4156  0.0912
 8720SOL    HW127059   1.204   6.443   2.810 -0.2329  0.6153 -0.3168
 8720SOL    HW227060   1.314   6.447   2.689 -0.4374  0.1853 -0.5187
 8721SOL     OW27061   1.711   4.700   3.728 -0.8316 -0.6339 -0.2422
 8721SOL    HW127062   1.741   4.607   3.748  0.6659 -0.4190 -1.2991
 8721SOL    HW227063   1.745   4.727   3.638  0.9298  1.7888  1.0294
 8722SOL     OW27064   0.378   3.373   3.118 -0.3778 -0.4817 -0.1960
 8722SOL    HW127065   0.447   3.312   3.079 -0.1787  0.2027 -0.9608
 8722SOL    HW227066   0.379   3.460   3.068 -0.3770  0.3024  1.1205
 8723SOL     OW27067   3.860   0.941   4.958  0.6149  0.0892  0.0881
 8723SOL    HW127068   3.761   0.943   4.971  0.6595 -0.4937  0.5612
 8723SOL    HW227069   3.880   0.929   4.861  0.2344  0.8076 -0.0863
 8724SOL     OW27070   3.935   2.885   1.835  0.0482  0.3573  0.3601
 8724SOL    HW127071   4.002   2.819   1.800 -1.5596 -1.4479  0.4884
 8724SOL    HW227072   3.876   2.915   1.760  0.0754  0.7980  0.5137
 8725SOL     OW27073   3.574   6.466   5.100 -0.1121  0.0334 -0.7181
 8725SOL    HW127074   3.586   6.405   5.178  0.6017 -1.1054 -1.6789
 8725SOL    HW227075   3.568   6.412   5.016 -0.7756  1.2279 -1.4809
 8726SOL     OW27076   2.228   5.364   2.119 -0.5407  0.7580 -0.9842
 8726SOL    HW127077   2.243   5.456   2.083 -0.7575  0.7873 -0.9997
 8726SOL    HW227078   2.310   5.309   2.105 -0.5087  0.8675 -1.2265
 8727SOL     OW27079   3.229   5.056   1.511  0.2243 -0.3367 -0.2548
 8727SOL    HW127080   3.323   5.085   1.493  0.8504 -0.2414  2.6257
 8727SOL    HW227081   3.217   4.961   1.484  1.6279 -0.8090  0.6981
 8728SOL     OW27082   4.550   5.746   0.287  0.2394 -0.3149  0.1238
 8728SOL    HW127083   4.545   5.651   0.319  0.4558  0.4242  2.4948
 8728SOL    HW227084   4.641   5.763   0.249  0.3290 -0.9252  0.0510
 8729SOL     OW27085   0.802   3.240   5.188 -0.8082 -0.5258 -0.1890
 8729SOL    HW127086   0.845   3.276   5.106 -0.3519  1.2342  0.7840
 8729SOL    HW227087   0.866   3.178   5.235  0.3941  1.3551  0.7591
 8730SOL     OW27088   1.468   4.359   3.048 -0.6386 -0.3140 -0.3781
 8730SOL    HW127089   1.398   4.346   2.977  1.1531 -1.0643 -2.1146
 8730SOL    HW227090   1.488   4.272   3.092 -0.2347 -0.2725 -0.4726
 8731SOL     OW27091   6.164   3.955   6.272 -0.1940 -0.1997  1.0232
 8731SOL    HW127092   6.183   3.997   6.360 -1.0870  1.0719  0.6457
 8731SOL    HW227093   6.065   3.946   6.260 -0.0487 -1.9850  0.8610
 8732SOL     OW27094   0.308   3.860   2.588  0.3372  0.3725 -0.3909
 8732SOL    HW127095   0.355   3.920   2.523  1.0387  1.2686  0.9014
 8732SOL    HW227096   0.245   3.915   2.644 -1.9727 -0.7349 -1.7801
 8733SOL     OW27097   3.013   0.080   0.462  0.0125 -0.2623 -0.1568
 8733SOL    HW127098   3.057   0.146   0.401  0.6078  0.4618  1.0215
 8733SOL    HW227099   3.083   0.028   0.510 -0.3862  0.4036  1.2004
 8734SOL     OW27100   1.035   2.439   2.541  0.2824  0.2800 -0.3641
 8734SOL    HW127101   1.019   2.391   2.455 -0.8915 -0.8317  0.4335
 8734SOL    HW227102   1.077   2.376   2.607 -1.1578  0.3530  0.6661
 8735SOL     OW27103   6.468   2.665   3.959  0.6591  0.2301 -0.1096
 8735SOL    HW127104   6.436   2.583   3.912  1.3057  0.1890 -0.4918
 8735SOL    HW227105   6.560   2.649   3.996  0.1131  0.2010  1.3272
 8736SOL     OW27106   6.589   6.293   2.703 -0.6637  0.1336 -0.0323
 8736SOL    HW127107   6.628   6.235   2.774 -0.2526 -0.9086 -1.0795
 8736SOL    HW227108   6.570   6.238   2.622 -1.4687  1.2268 -0.6068
 8737SOL     OW27109   0.991   1.965   3.399  0.0523  0.4094 -0.6320
 8737SOL    HW127110   0.937   1.890   3.360  0.1825  0.5164 -1.0288
 8737SOL    HW227111   0.973   2.049   3.348 -0.7906  0.8671  0.3956
 8738SOL     OW27112   1.499   1.341   6.523  0.1808 -0.1226 -0.2528
 8738SOL    HW127113   1.524   1.373   6.431  1.1661 -0.1315  0.0002
 8738SOL    HW227114   1.409   1.376   6.547 -1.2124 -2.0921 -2.2024
 8739SOL     OW27115   2.871   2.238   5.936 -0.6388 -0.4133  0.2462
 8739SOL    HW127116   2.934   2.216   6.010  0.5296  1.3145 -0.1810
 8739SOL    HW227117   2.777   2.219   5.965 -0.0249 -2.2744  1.1808
 8740SOL     OW27118   4.723   2.704   2.378 -0.3028 -0.5174 -0.1073
 8740SOL    HW127119   4.788   2.768   2.335 -0.9061  0.0960 -0.1208
 8740SOL    HW227120   4.707   2.731   2.472 -1.5326  0.1204 -0.4757
 8741SOL     OW27121   2.799   0.686   5.646 -0.3392  0.1521 -0.1758
 8741SOL    HW127122   2.839   0.611   5.595 -0.4296 -0.6593  0.9001
 8741SOL    HW227123   2.871   0.749   5.675 -0.0861 -0.2212  0.0193
 8742SOL     OW27124   5.292   0.465   1.711 -0.3929  0.4221  0.0926
 8742SOL    HW127125   5.238   0.390   1.673  0.1757  0.6814 -1.2727
 8742SOL    HW227126   5.232   0.523   1.768 -0.9313 -0.7847  0.7931
 8743SOL     OW27127   6.116   4.482   6.584  0.4796  0.1797 -0.9449
 8743SOL    HW127128   6.163   4.558   6.538  1.1616  0.5254  0.2799
 8743SOL    HW227129   6.166   4.457   6.667  0.1975 -1.5419 -1.2480
 8744SOL     OW27130   5.474   2.829   5.277 -0.2489 -0.3111  0.4152
 8744SOL    HW127131   5.391   2.782   5.249 -0.2126 -0.8350  1.1568
 8744SOL    HW227132   5.526   2.771   5.340 -0.0185  0.5762  1.0661
 8745SOL     OW27133   2.341   4.683   5.411  0.0187 -0.0997 -0.1582
 8745SOL    HW127134   2.417   4.748   5.412  0.8674 -1.0563 -0.7920
 8745SOL    HW227135   2.373   4.594   5.442 -0.5001 -0.8708 -1.7349
 8746SOL     OW27136   1.905   2.946   0.008  0.3672  0.2262 -0.0927
 8746SOL    HW127137   1.857   3.021  -0.037 -0.8460  0.0516  0.8687
 8746SOL    HW227138   1.937   2.976   0.098 -0.2228 -0.4328  0.3442
 8747SOL     OW27139   1.704   4.502   4.284 -0.3460  0.4746 -0.6258
 8747SOL    HW127140   1.761   4.476   4.361 -0.2873  0.2380 -0.7490
 8747SOL    HW227141   1.744   4.582   4.238 -0.0511  0.2365 -0.7828
 8748SOL     OW27142   5.498   5.330   6.787  0.2104 -0.2652  0.3539
 8748SOL    HW127143   5.592   5.352   6.760  0.1946 -0.8063 -0.1466
 8748SOL    HW227144   5.496   5.312   6.886  0.4554  0.6732  0.5409
 8749SOL     OW27145   6.026   0.461   6.404  0.3918  0.9931  0.4665
 8749SOL    HW127146   5.955   0.530   6.387 -0.2893 -0.0747 -1.2219
 8749SOL    HW227147   6.073   0.440   6.319  1.3493  0.1723  1.1800
 8750SOL     OW27148   0.982   1.637   6.440 -0.0620  0.7434  0.0903
 8750SOL    HW127149   0.942   1.571   6.504 -0.5512  0.3321 -0.6357
 8750SOL    HW227150   0.925   1.720   6.438 -2.0093 -0.5212 -2.2902
 8751SOL     OW27151   4.951   2.240   4.833 -0.2181 -0.2472  0.1174
 8751SOL    HW127152   4.877   2.219   4.897  0.3920  1.7544  1.5970
 8751SOL    HW227153   4.962   2.165   4.768 -1.3748 -2.0464  1.8800
 8752SOL     OW27154   0.118   6.160   1.585 -0.3517  0.6676  0.0985
 8752SOL    HW127155   0.092   6.069   1.551 -0.9799  0.8093  0.1852
 8752SOL    HW227156   0.165   6.210   1.513 -0.8613  0.6244 -0.2768
 8753SOL     OW27157   2.518   0.572   1.294  0.4329 -0.1509  0.4679
 8753SOL    HW127158   2.523   0.661   1.339 -0.4919  1.0583 -1.6563
 8753SOL    HW227159   2.521   0.585   1.195  0.6229 -2.5375  0.0998
 8754SOL     OW27160   4.711   0.560   2.072 -0.1559  0.0721  0.2218
 8754SOL    HW127161   4.687   0.649   2.032  1.8623  0.2557 -0.6522
 8754SOL    HW227162   4.765   0.575   2.155  0.4460 -0.3232 -0.0934
 8755SOL     OW27163   6.262   4.945   5.015  0.2204 -0.1924 -0.1206
 8755SOL    HW127164   6.262   5.045   5.011  1.3484 -0.2049 -0.8771
 8755SOL    HW227165   6.169   4.911   5.000 -0.2298  0.7423  0.4681
 8756SOL     OW27166   4.227   3.030   1.589  0.3742  0.2438  0.4414
 8756SOL    HW127167   4.321   3.042   1.620  0.3155 -0.4044  0.8959
 8756SOL    HW227168   4.169   3.101   1.628  0.3910 -0.2741  1.4478
 8757SOL     OW27169   3.927   0.705   1.717  0.1472  0.1287 -0.6695
 8757SOL    HW127170   3.905   0.625   1.660 -0.6406 -0.6058  0.6066
 8757SOL    HW227171   3.844   0.757   1.735  0.1534 -0.2747  0.6841
 8758SOL     OW27172   0.606   2.250   1.366  0.2394  0.0788 -0.2847
 8758SOL    HW127173   0.509   2.257   1.390 -0.0788  1.6023 -1.7948
 8758SOL    HW227174   0.635   2.334   1.320  2.7028  0.3087  1.5014
 8759SOL     OW27175   6.561   4.437   4.524  0.3605 -0.4710 -0.3434
 8759SOL    HW127176   6.493   4.505   4.499 -0.7183 -1.4095 -0.0318
 8759SOL    HW227177   6.617   4.471   4.600  1.9263  1.3246 -2.1693
 8760SOL     OW27178   1.264   5.714   1.684 -0.5693 -0.2391 -0.3043
 8760SOL    HW127179   1.339   5.760   1.636 -0.8657 -0.5736 -1.1095
 8760SOL    HW227180   1.210   5.782   1.735  0.9057 -0.1235  1.2011
 8761SOL     OW27181   6.445   1.526   6.728  0.1137 -0.2632  0.0132
 8761SOL    HW127182   6.452   1.545   6.826 -2.2707  2.0423 -0.1527
 8761SOL    HW227183   6.530   1.555   6.684  0.2151  1.2473  1.0943
 8762SOL     OW27184   6.301   5.993   5.954  0.7519 -0.2140  0.0348
 8762SOL    HW127185   6.209   6.018   5.923  0.7401 -1.3634 -0.9129
 8762SOL    HW227186   6.309   6.012   6.052 -0.3310  0.3455  0.0324
 8763SOL     OW27187   5.845   1.846   1.176 -0.3344 -0.1570  0.1363
 8763SOL    HW127188   5.930   1.890   1.205 -0.1378  0.0514 -0.7167
 8763SOL    HW227189   5.771   1.912   1.176 -0.9572 -0.7467  2.6826
 8764SOL     OW27190   5.877   1.206   6.126 -0.1614  0.4207  0.3143
 8764SOL    HW127191   5.802   1.265   6.098  0.9068  1.1326 -1.1875
 8764SOL    HW227192   5.951   1.262   6.164  0.3921 -0.0614 -0.0403
 8765SOL     OW27193   1.494   5.809   1.301 -0.1450 -0.9794 -1.1712
 8765SOL    HW127194   1.414   5.862   1.273  1.0630  1.9292  0.4946
 8765SOL    HW227195   1.573   5.836   1.246  1.1389  1.2669  1.5361
 8766SOL     OW27196   3.641   1.411   6.382  0.2419 -0.0542 -0.0605
 8766SOL    HW127197   3.549   1.393   6.418  0.1910 -2.2043 -1.1239
 8766SOL    HW227198   3.708   1.397   6.455 -0.1129 -0.8871  0.1168
 8767SOL     OW27199   4.124   2.190   4.949 -0.0198 -0.0088  0.5643
 8767SOL    HW127200   4.160   2.270   4.997  1.7068  0.7848 -1.8771
 8767SOL    HW227201   4.044   2.217   4.896  0.9620  0.3289 -0.7978
 8768SOL     OW27202   3.665   6.933   0.034 -0.1182  0.0347  0.5167
 8768SOL    HW127203   3.611   6.898  -0.042 -0.7814 -0.1673  1.0720
 8768SOL    HW227204   3.604   6.969   0.105  0.4982  0.5454  0.7981
 8769SOL     OW27205   3.218   1.637   6.482  0.1001 -0.1900 -0.2837
 8769SOL    HW127206   3.228   1.567   6.552 -0.3570 -0.6850 -0.7020
 8769SOL    HW227207   3.142   1.698   6.506  0.5910  0.2594  0.1533
 8770SOL     OW27208   3.367   2.632   6.818 -0.5102 -0.3364  0.5956
 8770SOL    HW127209   3.353   2.690   6.898  0.2779  0.3115  0.2842
 8770SOL    HW227210   3.288   2.572   6.806 -1.3915  0.7108  0.9029
 8771SOL     OW27211   1.367   5.902   0.462 -1.0889  0.2305 -0.3996
 8771SOL    HW127212   1.451   5.884   0.411 -1.3213  2.3651 -1.6757
 8771SOL    HW227213   1.386   5.969   0.534 -1.2779 -0.9042  0.7180
 8772SOL     OW27214   1.079   4.190   1.790 -0.4479 -0.4997 -0.4665
 8772SOL    HW127215   1.129   4.104   1.782  1.4638  0.6424 -1.7543
 8772SOL    HW227216   1.120   4.245   1.863 -0.6031 -0.0234 -0.7366
 8773SOL     OW27217   5.520   1.511   5.903 -0.5592 -0.6317  0.1340
 8773SOL    HW127218   5.527   1.513   5.803  0.7660 -0.9923  0.1995
 8773SOL    HW227219   5.441   1.564   5.932 -0.9082 -0.4484 -1.1063
 8774SOL     OW27220   6.940   3.400   3.429 -0.0794  0.3974  0.0161
 8774SOL    HW127221   7.012   3.397   3.359 -1.4238 -0.8796 -1.3960
 8774SOL    HW227222   6.971   3.455   3.506  2.1383  0.4286 -0.8207
 8775SOL     OW27223   2.610   6.429   0.946 -0.5089 -0.0501 -0.4186
 8775SOL    HW127224   2.691   6.370   0.941  0.9539  1.9173 -0.8166
 8775SOL    HW227225   2.572   6.441   0.854  0.2495  0.9877 -0.6165
 8776SOL     OW27226   6.574   0.237   4.842  0.4423 -0.1939  0.5598
 8776SOL    HW127227   6.548   0.241   4.746 -0.4325  1.2565  0.8165
 8776SOL    HW227228   6.492   0.243   4.899  1.0824  1.6758  1.3841
 8777SOL     OW27229   0.541   6.808   0.060  0.1819  0.1270  0.0458
 8777SOL    HW127230   0.528   6.836   0.155 -0.7182 -0.2588  0.0500
 8777SOL    HW227231   0.634   6.773   0.048  0.2752  0.0957  0.8049
 8778SOL     OW27232   4.500   1.917   0.947  0.6252  0.1900 -0.2189
 8778SOL    HW127233   4.517   1.999   0.893  1.3819  1.1956  1.5052
 8778SOL    HW227234   4.455   1.849   0.889  1.7616  1.0535 -2.2276
 8779SOL     OW27235   1.219   3.563   1.571 -0.3663  0.2818  0.7964
 8779SOL    HW127236   1.314   3.555   1.600 -0.3520  1.2305  1.0237
 8779SOL    HW227237   1.170   3.626   1.631 -2.0607 -2.7315  2.8508
 8780SOL     OW27238   0.025   1.715   4.630 -0.6884 -0.0711 -0.5320
 8780SOL    HW127239   0.075   1.798   4.651 -2.3888  0.6149  1.0785
 8780SOL    HW227240  -0.041   1.733   4.557 -4.6605  1.6633  3.0399
 8781SOL     OW27241   6.833   0.365   6.363  0.5858  0.1049 -0.6010
 8781SOL    HW127242   6.766   0.314   6.310 -1.2896  0.8922  0.8769
 8781SOL    HW227243   6.832   0.461   6.335 -0.7556  0.6246  1.0514
 8782SOL     OW27244   5.176   6.835   5.276 -0.3755  0.7055 -0.8158
 8782SOL    HW127245   5.213   6.809   5.366 -0.8170  1.1211 -0.5083
 8782SOL    HW227246   5.249   6.875   5.221  0.8048 -2.7068 -1.9879
 8783SOL     OW27247   3.693   1.680   6.286  0.2574  0.0187  0.0661
 8783SOL    HW127248   3.599   1.712   6.292  0.0107 -0.9153  2.7686
 8783SOL    HW227249   3.697   1.583   6.308  1.7104 -0.3621 -1.6339
 8784SOL     OW27250   0.223   4.834   5.588 -0.3136 -0.3636  0.5401
 8784SOL    HW127251   0.217   4.767   5.514  0.1393 -0.1726  0.3298
 8784SOL    HW227252   0.257   4.789   5.671 -1.1018 -0.6422  0.7223
 8785SOL     OW27253   6.407   6.912   1.413  0.1372 -0.5202 -0.0968
 8785SOL    HW127254   6.421   6.881   1.319 -0.4914  0.2435 -0.4542
 8785SOL    HW227255   6.490   6.896   1.466  0.9065  0.0627 -1.0788
 8786SOL     OW27256   0.879   0.785   0.704  0.3059  0.0618  0.8052
 8786SOL    HW127257   0.811   0.742   0.645 -1.8815  1.6115  2.0523
 8786SOL    HW227258   0.965   0.793   0.655 -0.5004 -1.5281 -1.0229
 8787SOL     OW27259   5.021   6.353   2.345 -0.8421 -0.0317 -0.4056
 8787SOL    HW127260   5.067   6.355   2.257 -1.3369 -0.5164 -0.6817
 8787SOL    HW227261   5.065   6.418   2.407  1.8360 -2.2184  0.1777
 8788SOL     OW27262   1.375   0.903   4.554 -0.4691  0.4361 -0.5730
 8788SOL    HW127263   1.390   0.825   4.615 -0.6249  1.8290  1.3641
 8788SOL    HW227264   1.416   0.884   4.465 -0.2871 -1.7311 -0.0859
 8789SOL     OW27265   6.234   3.989   1.112  0.2031 -0.0842 -0.6179
 8789SOL    HW127266   6.153   4.030   1.153  0.5437  0.0637 -0.0850
 8789SOL    HW227267   6.249   4.029   1.021 -0.3453 -0.1499 -0.7412
 8790SOL     OW27268   1.642   6.810   5.518  0.2271 -0.7552  0.2849
 8790SOL    HW127269   1.666   6.884   5.456 -1.0611 -0.8389 -0.3440
 8790SOL    HW227270   1.554   6.770   5.491 -2.1284  1.3615  3.9892
 8791SOL     OW27271   0.508   2.244   4.053 -0.4172 -0.3393  0.0274
 8791SOL    HW127272   0.605   2.224   4.041 -0.1111  1.7418 -1.5954
 8791SOL    HW227273   0.483   2.323   3.996 -2.4082  1.0357  2.5684
 8792SOL     OW27274   3.579   4.015   1.050 -0.0163 -0.0825  0.0862
 8792SOL    HW127275   3.612   3.957   1.124  1.8947  0.6427 -0.1333
 8792SOL    HW227276   3.527   3.961   0.985  0.5951 -1.2802  0.5667
 8793SOL     OW27277   4.987   4.423   5.995 -0.0418 -0.2437  0.1128
 8793SOL    HW127278   4.952   4.399   6.086 -0.0861 -0.8467 -0.0585
 8793SOL    HW227279   5.032   4.512   5.999  0.2786 -0.4301  0.8102
 8794SOL     OW27280   0.938   4.644   4.024 -0.0979  0.0085 -0.1368
 8794SOL    HW127281   0.969   4.718   4.084  1.0271  0.8195 -1.6385
 8794SOL    HW227282   0.976   4.557   4.056  0.6104  0.4457  0.2303
 8795SOL     OW27283   6.591   5.331   4.402  0.3317 -0.0900 -0.1343
 8795SOL    HW127284   6.500   5.352   4.365  0.6236  1.5482  0.0053
 8795SOL    HW227285   6.581   5.283   4.489 -0.3808 -0.6126 -0.4932
 8796SOL     OW27286   0.106   5.383   2.921  0.2698 -0.2843  0.2419
 8796SOL    HW127287   0.122   5.338   3.009 -2.1062  0.1799  0.9757
 8796SOL    HW227288   0.015   5.423   2.920  0.4404  0.2054 -2.2649
 8797SOL     OW27289   4.795   3.995   1.701  0.1024 -0.1884  0.1004
 8797SOL    HW127290   4.831   4.046   1.779 -0.1267 -1.3828  1.0248
 8797SOL    HW227291   4.701   4.024   1.682 -0.7882 -1.6505  1.9570
 8798SOL     OW27292   6.052   1.389   1.536 -0.0766 -0.1283 -0.3050
 8798SOL    HW127293   6.121   1.461   1.524  0.0212  0.1161  1.5183
 8798SOL    HW227294   5.994   1.385   1.455  0.8739  0.9650 -1.0697
 8799SOL     OW27295   6.624   3.085   5.747  0.5471 -0.0939  1.2328
 8799SOL    HW127296   6.606   3.176   5.708  0.5538 -0.8512 -0.6064
 8799SOL    HW227297   6.718   3.082   5.780  0.9066  0.2148  0.2589
 8800SOL     OW27298   6.901   0.301   2.230  0.0551  0.3569 -0.2507
 8800SOL    HW127299   6.825   0.238   2.220  1.1029 -0.9239 -0.4536
 8800SOL    HW227300   6.935   0.328   2.139  1.5181 -1.2207 -0.2180
 8801SOL     OW27301   0.844   3.990   5.569 -0.2892 -0.3470 -0.7748
 8801SOL    HW127302   0.885   3.979   5.660  1.0245 -0.9468 -1.4255
 8801SOL    HW227303   0.754   3.946   5.568 -0.2364 -0.5112  0.1703
 8802SOL     OW27304   4.246   1.248   0.452  0.2376  0.3800  0.7156
 8802SOL    HW127305   4.298   1.233   0.536 -0.3752 -0.2595  0.9955
 8802SOL    HW227306   4.304   1.225   0.374  0.8692  1.1454  0.9415
 8803SOL     OW27307   5.527   1.049   1.079 -0.3890  0.0030  1.0322
 8803SOL    HW127308   5.519   1.147   1.093 -0.5445  0.2531 -0.5695
 8803SOL    HW227309   5.519   1.029   0.981 -0.1693 -1.5865  1.3137
 8804SOL     OW27310   6.086   1.849   6.506  0.0366 -0.0702  0.4910
 8804SOL    HW127311   6.043   1.812   6.424  1.2306  1.5495 -0.9516
 8804SOL    HW227312   6.177   1.809   6.516  0.0753  0.0841  0.7623
 8805SOL     OW27313   5.514   2.231   1.147  0.4972 -0.1115  0.1979
 8805SOL    HW127314   5.490   2.162   1.079  0.2405 -1.2022  1.3519
 8805SOL    HW227315   5.462   2.314   1.131  1.2479  0.0544 -1.5795
 8806SOL     OW27316   0.597   4.451   1.670  0.5049 -0.2082 -0.0318
 8806SOL    HW127317   0.646   4.525   1.716 -0.7591  0.3381  0.4600
 8806SOL    HW227318   0.550   4.395   1.738  0.5808 -0.8394 -0.4866
 8807SOL     OW27319   6.913   0.750   1.390  0.4304  0.3750  0.1168
 8807SOL    HW127320   6.848   0.757   1.466 -0.7612 -0.5071 -0.7772
 8807SOL    HW227321   6.898   0.663   1.342  1.0673  0.9698 -1.1972
 8808SOL     OW27322   0.687   2.192   4.701  0.8687  0.2150  0.0935
 8808SOL    HW127323   0.652   2.239   4.620 -0.3117 -1.0033 -0.1491
 8808SOL    HW227324   0.776   2.152   4.681  0.5855 -0.0738 -0.6266
 8809SOL     OW27325   4.622   6.131   5.644 -0.0188 -0.8577 -0.0975
 8809SOL    HW127326   4.619   6.049   5.589 -0.5512 -0.2057 -1.0614
 8809SOL    HW227327   4.586   6.112   5.735 -0.9970 -1.4619 -0.6056
 8810SOL     OW27328   4.991   6.614   0.793 -0.5816  0.0499  0.2085
 8810SOL    HW127329   5.071   6.637   0.739  0.0678 -0.0362  1.0988
 8810SOL    HW227330   4.969   6.689   0.855 -2.7529  1.1409 -1.7630
 8811SOL     OW27331   5.203   1.797   4.499  0.4689 -0.4645  0.1922
 8811SOL    HW127332   5.162   1.714   4.539 -1.0859  0.8899  1.5892
 8811SOL    HW227333   5.302   1.789   4.500  0.5020 -1.1316  3.1676
 8812SOL     OW27334   7.016   6.150   0.275 -0.0350 -0.5536 -0.0226
 8812SOL    HW127335   6.994   6.240   0.312  0.4890 -0.6637  0.5740
 8812SOL    HW227336   7.102   6.118   0.313  0.2734 -0.8968 -0.9806
 8813SOL     OW27337   3.063   6.499   0.233 -0.2536 -0.6381 -0.2675
 8813SOL    HW127338   2.978   6.549   0.248  0.6499  0.7540  0.3641
 8813SOL    HW227339   3.072   6.426   0.301  0.9782  1.8476  2.4375
 8814SOL     OW27340   5.490   2.744   5.720 -0.2554  0.7616 -0.1505
 8814SOL    HW127341   5.491   2.844   5.712 -1.7164  0.8146  0.0559
 8814SOL    HW227342   5.580   2.712   5.752  0.2872  1.9807 -0.3874
 8815SOL     OW27343   3.479   5.205   3.504  0.5755 -0.0896  0.0470
 8815SOL    HW127344   3.477   5.270   3.580 -0.0846 -0.3657  0.2742
 8815SOL    HW227345   3.572   5.197   3.469  1.0043 -0.4181  1.2317
 8816SOL     OW27346   0.349   5.485   3.924 -0.5235 -0.1372  0.8066
 8816SOL    HW127347   0.289   5.423   3.874  0.5478 -1.3161  0.9338
 8816SOL    HW227348   0.413   5.432   3.980  0.2390  1.0946  1.1464
 8817SOL     OW27349   5.441   0.893   6.135 -0.3818 -0.0364  0.2769
 8817SOL    HW127350   5.369   0.873   6.203 -1.7724  3.2772 -0.0357
 8817SOL    HW227351   5.426   0.836   6.054 -0.4574 -1.9334  1.5432
 8818SOL     OW27352   0.614   6.336   6.890  0.2867 -0.2367  0.1180
 8818SOL    HW127353   0.703   6.333   6.844 -0.6473  0.6215 -1.8685
 8818SOL    HW227354   0.626   6.318   6.987  2.6006 -0.3225 -0.1328
 8819SOL     OW27355   4.949   0.847   0.080 -0.0630 -0.5505 -0.7917
 8819SOL    HW127356   4.881   0.775   0.069 -1.2261  0.1553  1.3326
 8819SOL    HW227357   5.013   0.822   0.152  1.2099 -0.6333 -1.9040
 8820SOL     OW27358   3.014   6.717   3.743 -0.3244 -0.3902 -0.2532
 8820SOL    HW127359   3.007   6.725   3.843 -0.9993 -0.6900 -0.2689
 8820SOL    HW227360   2.936   6.761   3.700 -0.0803 -0.3360 -0.6494
 8821SOL     OW27361   0.370   3.298   6.683  0.3513  0.2670 -0.3834
 8821SOL    HW127362   0.309   3.303   6.604 -0.5180 -1.5230  0.1251
 8821SOL    HW227363   0.464   3.283   6.652  0.1533  0.4419 -1.0911
 8822SOL     OW27364   2.643   4.848   4.197 -0.3646  0.3671 -0.2174
 8822SOL    HW127365   2.720   4.897   4.155  1.0233 -0.6933  0.9775
 8822SOL    HW227366   2.580   4.914   4.237  0.0432  1.2598 -1.0041
 8823SOL     OW27367   1.347   2.251   3.915 -0.5397  0.0869  0.5328
 8823SOL    HW127368   1.411   2.245   3.992 -1.4767  0.7224  1.3877
 8823SOL    HW227369   1.288   2.170   3.914  2.5184 -2.3727 -2.4140
 8824SOL     OW27370   4.694   2.295   4.411  0.1675  0.0953 -0.1815
 8824SOL    HW127371   4.787   2.291   4.447 -0.2435  0.8945  1.0626
 8824SOL    HW227372   4.644   2.368   4.459 -1.3597 -0.9247 -0.1680
 8825SOL     OW27373   2.872   3.538   4.598  0.6907 -0.1274 -0.6715
 8825SOL    HW127374   2.939   3.611   4.587  0.5864 -0.1675 -1.6327
 8825SOL    HW227375   2.874   3.504   4.692  0.4771  1.3713 -0.1071
 8826SOL     OW27376   2.771   1.754   5.687  0.1885 -0.3873  0.5215
 8826SOL    HW127377   2.806   1.846   5.704 -1.0964  0.0765  0.7072
 8826SOL    HW227378   2.714   1.725   5.764 -1.5194 -0.2925 -0.6579
 8827SOL     OW27379   3.379   5.395   3.215 -0.2196 -0.4272  0.5813
 8827SOL    HW127380   3.414   5.488   3.199  3.3247 -1.2581  2.4147
 8827SOL    HW227381   3.313   5.372   3.144 -1.1687  3.4163 -0.0085
 8828SOL     OW27382   0.997   6.181   4.200 -0.5215 -0.2144 -0.4794
 8828SOL    HW127383   1.051   6.104   4.233  0.2433  0.2479 -0.6205
 8828SOL    HW227384   0.934   6.150   4.129  0.9369 -0.4602 -1.7357
 8829SOL     OW27385   2.362   0.431   4.405 -0.1376  0.3985 -0.2516
 8829SOL    HW127386   2.367   0.530   4.395 -1.5984  0.3995 -1.4037
 8829SOL    HW227387   2.416   0.387   4.333  0.5229  0.3475  0.2688
 8830SOL     OW27388   1.047   2.281   0.170 -0.5514 -0.3339  0.3486
 8830SOL    HW127389   0.976   2.299   0.102 -1.5275  1.1132  1.6707
 8830SOL    HW227390   1.133   2.261   0.124 -1.1472  0.7201 -1.3099
 8831SOL     OW27391   5.507   5.057   3.938 -0.1405 -0.6089  0.0647
 8831SOL    HW127392   5.418   5.020   3.912 -0.8421  1.8894 -1.4704
 8831SOL    HW227393   5.499   5.107   4.024  0.1867 -1.7297  0.7614
 8832SOL     OW27394   1.711   4.286   6.646  0.3675  0.7534  0.3840
 8832SOL    HW127395   1.663   4.302   6.732 -0.2797  2.6171 -0.2768
 8832SOL    HW227396   1.680   4.199   6.606  0.1385  0.2328  1.6525
 8833SOL     OW27397   5.942   4.659   5.975 -0.0855  0.1256 -0.2879
 8833SOL    HW127398   5.852   4.634   5.940 -0.1304  0.2964 -0.2981
 8833SOL    HW227399   6.001   4.579   5.976 -1.1364 -0.7384  2.5899
 8834SOL     OW27400   0.006   6.777   1.952  0.1896 -0.9255  0.1301
 8834SOL    HW127401  -0.060   6.843   1.987 -0.6691  0.3553 -3.5143
 8834SOL    HW227402  -0.042   6.704   1.903  1.3855 -0.7272 -1.3971
 8835SOL     OW27403   5.685   1.239   1.351 -0.2663 -0.3052  0.7351
 8835SOL    HW127404   5.709   1.142   1.351 -0.8620 -0.4567  0.2085
 8835SOL    HW227405   5.600   1.253   1.300 -0.7928  0.3476  1.7442
 8836SOL     OW27406   0.458   0.493   0.676 -0.3957 -0.0222 -0.3200
 8836SOL    HW127407   0.414   0.552   0.743 -0.2108 -0.7866  0.4881
 8836SOL    HW227408   0.388   0.445   0.623 -0.5416  0.5675 -0.6716
 8837SOL     OW27409   5.522   5.586   4.175  0.6425  0.8929 -0.2105
 8837SOL    HW127410   5.555   5.498   4.210 -0.6793  0.2595 -0.4671
 8837SOL    HW227411   5.551   5.598   4.080 -0.9334 -0.3066 -0.8995
 8838SOL     OW27412   3.952   3.359   6.835  0.1594  0.0346  0.8852
 8838SOL    HW127413   4.033   3.410   6.864  0.6040 -0.7748  1.1078
 8838SOL    HW227414   3.956   3.267   6.874  1.8873 -1.9395 -3.3319
 8839SOL     OW27415   1.917   6.250   2.550 -0.2464 -0.5566 -0.0219
 8839SOL    HW127416   1.991   6.190   2.520 -0.9972 -2.1343  1.0842
 8839SOL    HW227417   1.890   6.225   2.643  0.4780  2.6373  1.1430
 8840SOL     OW27418   5.068   4.550   4.521  0.2150 -0.7500  0.4447
 8840SOL    HW127419   4.994   4.589   4.466  0.2307  0.6692  1.3816
 8840SOL    HW227420   5.153   4.598   4.502  0.1220  0.1120  2.0316
 8841SOL     OW27421   5.666   5.226   2.174  0.2719  0.0914 -0.2161
 8841SOL    HW127422   5.653   5.236   2.272 -1.5194  2.1614 -0.5757
 8841SOL    HW227423   5.721   5.144   2.155  0.4490 -0.4899  2.4484
 8842SOL     OW27424   2.657   0.469   4.159 -0.2847 -1.0095  0.7820
 8842SOL    HW127425   2.723   0.540   4.184 -0.6761 -0.5156  0.4463
 8842SOL    HW227426   2.665   0.392   4.222 -0.1783 -0.4610  1.4561
 8843SOL     OW27427   6.461   4.542   2.157  0.2833 -0.0083  0.5612
 8843SOL    HW127428   6.521   4.489   2.096  0.7095 -0.0307  0.9986
 8843SOL    HW227429   6.470   4.508   2.250  1.8244  1.8840  1.1641
 8844SOL     OW27430   4.926   3.099   5.937 -0.3351 -0.4559  0.1573
 8844SOL    HW127431   4.892   3.148   5.857  0.6683 -1.0353 -0.6382
 8844SOL    HW227432   4.962   3.166   6.003 -0.8271 -0.0021 -0.0238
 8845SOL     OW27433   2.292   6.764   5.187 -0.4942 -1.0627 -0.0708
 8845SOL    HW127434   2.258   6.858   5.189  0.3378 -0.7662  0.8462
 8845SOL    HW227435   2.350   6.751   5.106 -0.1679 -0.6239  0.0893
 8846SOL     OW27436   6.025   3.633   2.582 -0.2733  0.2368 -0.2670
 8846SOL    HW127437   6.041   3.612   2.486  2.9559  0.0105  0.2233
 8846SOL    HW227438   6.055   3.727   2.601  3.0921 -0.9990  1.2296
 8847SOL     OW27439   1.500   6.757   5.117  0.0065  0.0663 -0.0487
 8847SOL    HW127440   1.437   6.709   5.056  1.2614 -0.7325 -0.7520
 8847SOL    HW227441   1.499   6.713   5.207  0.4933 -0.7425 -0.4322
 8848SOL     OW27442   2.193   2.869   4.720 -0.6062 -0.0797 -1.0307
 8848SOL    HW127443   2.152   2.953   4.684 -0.0898  0.1646 -1.0661
 8848SOL    HW227444   2.264   2.838   4.656  2.3008  1.8855  1.0145
 8849SOL     OW27445   5.414   4.240   2.527 -0.1128 -0.4753 -0.2454
 8849SOL    HW127446   5.414   4.321   2.468 -0.9166  1.0652  1.7373
 8849SOL    HW227447   5.374   4.163   2.479 -0.4483  0.6254 -1.7983
 8850SOL     OW27448   3.958   3.547   4.721 -0.4371  0.3315 -0.3859
 8850SOL    HW127449   4.023   3.517   4.791  0.5530 -0.4847 -1.6061
 8850SOL    HW227450   3.991   3.631   4.678 -0.6994  0.4741 -0.3048
 8851SOL     OW27451   1.201   0.225   0.729  0.2321 -0.4721  0.3972
 8851SOL    HW127452   1.127   0.288   0.753 -0.5170 -0.9971 -0.4761
 8851SOL    HW227453   1.263   0.269   0.664  0.3242 -0.2676  0.6204
 8852SOL     OW27454   2.980   4.527   5.610  0.0714  0.0073  0.6143
 8852SOL    HW127455   2.967   4.541   5.708 -0.6145  0.9211  0.3986
 8852SOL    HW227456   2.895   4.549   5.561  0.3167 -0.7143 -0.1622
 8853SOL     OW27457   0.381   2.001   5.294  0.2988 -0.1240  0.1976
 8853SOL    HW127458   0.324   2.074   5.331 -0.2980 -0.0579 -0.8007
 8853SOL    HW227459   0.369   1.918   5.349 -1.1218 -0.2381 -0.2491
 8854SOL     OW27460   6.468   3.198   1.473 -0.5754 -0.5992 -0.5534
 8854SOL    HW127461   6.523   3.236   1.548 -0.0454 -1.2738 -0.5863
 8854SOL    HW227462   6.522   3.200   1.388 -1.4979  1.0356 -1.1552
 8855SOL     OW27463   4.737   6.742   6.550  0.1060 -0.3572 -0.4421
 8855SOL    HW127464   4.680   6.660   6.553  0.7731 -0.8379 -0.5604
 8855SOL    HW227465   4.809   6.730   6.481  0.4529  0.1583 -0.1761
 8856SOL     OW27466   4.795   0.989   2.223  0.1202 -0.5014  0.5823
 8856SOL    HW127467   4.882   1.038   2.210 -1.3891  2.3253  0.2065
 8856SOL    HW227468   4.781   0.925   2.147 -0.3073  2.6658 -2.2572
 8857SOL     OW27469   3.411   4.815   5.580 -0.4952 -0.6650  0.1688
 8857SOL    HW127470   3.370   4.724   5.573 -2.3362  0.1534 -0.4381
 8857SOL    HW227471   3.341   4.881   5.603  0.2972  0.9569 -1.7430
 8858SOL     OW27472   5.063   1.760   0.480 -0.1882  0.2907  0.1078
 8858SOL    HW127473   4.995   1.749   0.551  1.2242  0.9970  1.6532
 8858SOL    HW227474   5.063   1.680   0.420 -1.1807 -0.4825  1.0994
 8859SOL     OW27475   6.366   2.413   6.094  0.7923  0.0924 -0.7447
 8859SOL    HW127476   6.317   2.471   6.028  2.9710  0.3062 -2.2521
 8859SOL    HW227477   6.325   2.322   6.095 -2.4533  1.3627  1.3877
 8860SOL     OW27478   4.204   0.059   2.731  1.0045 -0.3219  0.6457
 8860SOL    HW127479   4.302   0.051   2.712  0.7402  0.0428 -0.9981
 8860SOL    HW227480   4.153   0.005   2.664 -0.0093  1.2420  0.1244
 8861SOL     OW27481   0.078   2.382   4.862 -0.4064  1.2013 -0.0105
 8861SOL    HW127482   0.013   2.412   4.932 -2.2936  0.3338 -1.3209
 8861SOL    HW227483   0.108   2.289   4.882 -1.3803  0.7445 -0.6230
 8862SOL     OW27484   2.073   6.330   6.018 -0.3093 -0.0642 -0.0336
 8862SOL    HW127485   2.024   6.334   5.931  0.9268  1.4646 -0.7168
 8862SOL    HW227486   2.060   6.415   6.068  0.6228 -0.1141  0.3185
 8863SOL     OW27487   6.635   2.809   2.020  0.0599  0.1518 -0.1595
 8863SOL    HW127488   6.565   2.866   2.063 -2.7154 -2.2872 -1.0700
 8863SOL    HW227489   6.682   2.756   2.091 -0.2212  0.5547  0.3375
 8864SOL     OW27490   2.616   2.602   0.885  0.5468 -0.4650  0.3859
 8864SOL    HW127491   2.676   2.565   0.813 -0.3912 -0.9394 -0.1636
 8864SOL    HW227492   2.591   2.695   0.861  1.5335 -0.0428  0.9211
 8865SOL     OW27493   2.807   5.041   5.586  0.1355 -0.2491  0.2279
 8865SOL    HW127494   2.845   4.959   5.628  1.9123  0.7066  0.5819
 8865SOL    HW227495   2.842   5.049   5.492 -1.4998 -0.8346 -0.4695
 8866SOL     OW27496   2.185   5.282   2.931  0.1267  0.2808 -0.0610
 8866SOL    HW127497   2.223   5.243   2.848 -1.7849  1.1710 -1.4340
 8866SOL    HW227498   2.210   5.379   2.938  0.4730  0.1544  0.5325
 8867SOL     OW27499   3.266   6.025   2.260 -0.3875 -0.3101 -0.1305
 8867SOL    HW127500   3.193   6.076   2.306  0.9310  3.0392 -1.3882
 8867SOL    HW227501   3.351   6.037   2.312 -0.1449 -1.8502 -0.1369
 8868SOL     OW27502   6.001   2.193   3.771 -0.6411 -0.2593  0.2415
 8868SOL    HW127503   5.964   2.119   3.716 -1.4263  0.1369  0.2177
 8868SOL    HW227504   5.931   2.225   3.835 -0.4196  0.6658  0.0344
 8869SOL     OW27505   4.128   4.795   3.070  0.1293  0.8100 -0.1119
 8869SOL    HW127506   4.111   4.712   3.018 -0.1172 -1.2446  2.9573
 8869SOL    HW227507   4.226   4.803   3.091 -0.1627 -0.5185  2.1390
 8870SOL     OW27508   0.768   4.030   4.896  0.4441  0.2593  0.1209
 8870SOL    HW127509   0.697   4.024   4.967  0.6611  1.7104  0.4780
 8870SOL    HW227510   0.826   3.949   4.901 -1.2802 -1.0802 -0.3113
 8871SOL     OW27511   1.310   6.435   4.224 -0.0800  0.3973  0.2696
 8871SOL    HW127512   1.407   6.454   4.208 -0.5559  1.9552 -1.1270
 8871SOL    HW227513   1.293   6.425   4.322  1.8264 -2.1282  0.4390
 8872SOL     OW27514   5.319   3.371   3.993 -0.2821 -0.4821  0.3176
 8872SOL    HW127515   5.389   3.429   4.034 -2.6189  3.4170 -0.7171
 8872SOL    HW227516   5.232   3.386   4.040 -1.6567 -0.7131 -1.9965
 8873SOL     OW27517   7.016   0.799   2.427 -0.0707  0.2582  0.0689
 8873SOL    HW127518   6.955   0.876   2.445  0.6184  0.6467  0.7972
 8873SOL    HW227519   7.080   0.824   2.354  2.0369  1.5124  2.1874
 8874SOL     OW27520   6.635   3.732   2.144 -0.0926 -0.4576 -0.0099
 8874SOL    HW127521   6.601   3.825   2.128  0.0418 -0.1815  1.1521
 8874SOL    HW227522   6.694   3.704   2.069  0.5715  0.7478  0.0315
 8875SOL     OW27523   6.629   1.578   0.889 -0.1377 -0.1705  0.2057
 8875SOL    HW127524   6.702   1.613   0.948 -0.7038 -0.2139  0.9417
 8875SOL    HW227525   6.670   1.532   0.810  0.6802 -1.4588  1.3271
 8876SOL     OW27526   5.288   1.264   4.993  0.2380  0.8395 -0.1100
 8876SOL    HW127527   5.211   1.247   5.055 -2.0418 -0.3591 -3.0156
 8876SOL    HW227528   5.318   1.359   5.003 -1.5356  1.3212  1.2423
 8877SOL     OW27529   0.449   4.690   1.857 -0.2420 -0.6210  0.1330
 8877SOL    HW127530   0.372   4.674   1.795 -1.1681  1.2817  0.6867
 8877SOL    HW227531   0.529   4.642   1.823 -1.5341 -2.2685 -0.7406
 8878SOL     OW27532   2.199   3.058   4.001 -0.7597  0.2716 -0.7152
 8878SOL    HW127533   2.105   3.033   4.022 -0.5127 -1.2229 -1.2358
 8878SOL    HW227534   2.231   3.126   4.066 -2.3961  1.2824 -0.9195
 8879SOL     OW27535   0.881   4.768   2.124  0.3189  0.0045 -0.6475
 8879SOL    HW127536   0.856   4.864   2.137  0.0873 -0.1272 -0.0656
 8879SOL    HW227537   0.929   4.757   2.037 -1.8608  0.2452 -1.9550
 8880SOL     OW27538   1.526   5.986   4.000  0.1132 -0.4026  0.0458
 8880SOL    HW127539   1.487   6.050   4.068 -2.1693 -0.9710 -0.6313
 8880SOL    HW227540   1.584   5.920   4.047  0.7660  0.8268  1.0577
 8881SOL     OW27541   4.157   5.620   0.138 -0.1137 -0.3394  0.7128
 8881SOL    HW127542   4.188   5.557   0.209  0.1869  0.0176  0.9004
 8881SOL    HW227543   4.127   5.568   0.058  1.6858 -0.7073  0.2207
 8882SOL     OW27544   0.302   2.054   4.108 -0.8506 -0.2459  0.1904
 8882SOL    HW127545   0.331   2.141   4.068  2.4364 -0.8342  0.9331
 8882SOL    HW227546   0.286   1.988   4.036  0.4284 -0.0272 -0.3292
 8883SOL     OW27547   4.938   1.506   6.319  0.5578  0.4133  0.4277
 8883SOL    HW127548   5.028   1.536   6.288  0.4013 -1.3192 -1.9887
 8883SOL    HW227549   4.872   1.516   6.245 -0.6619 -0.7507  1.2963
 8884SOL     OW27550   2.195   2.494   2.368  0.1229  0.0048 -0.0012
 8884SOL    HW127551   2.183   2.434   2.448  2.0749 -0.8295 -0.2788
 8884SOL    HW227552   2.222   2.585   2.399  0.6652 -0.2570  0.3138
 8885SOL     OW27553   4.444   1.832   5.840 -0.0552 -0.2349  0.4772
 8885SOL    HW127554   4.357   1.790   5.814 -0.0801 -0.9367  1.6554
 8885SOL    HW227555   4.427   1.906   5.906  0.2409 -0.4026  0.7427
 8886SOL     OW27556   2.917   5.192   3.063  0.3265  0.3339  0.5621
 8886SOL    HW127557   2.837   5.205   3.122 -0.1820 -0.0770 -0.0342
 8886SOL    HW227558   2.890   5.145   2.979  1.0377  0.9477 -0.0233
 8887SOL     OW27559   0.444   2.110   3.575 -0.6382  0.2087 -0.5247
 8887SOL    HW127560   0.346   2.088   3.574 -0.3849 -1.1568  0.8989
 8887SOL    HW227561   0.456   2.206   3.550 -2.3921  0.5875 -0.0886
 8888SOL     OW27562   2.716   4.704   4.814 -0.4069 -0.0758  0.4574
 8888SOL    HW127563   2.621   4.675   4.801 -0.0199 -1.5224  0.5941
 8888SOL    HW227564   2.753   4.661   4.896  0.3872  0.4254  0.3741
 8889SOL     OW27565   6.846   2.371   1.708  0.3325 -0.3496 -0.8284
 8889SOL    HW127566   6.765   2.424   1.733 -0.3014 -1.0841 -1.2977
 8889SOL    HW227567   6.927   2.411   1.752 -0.1405  0.9230 -1.0694
 8890SOL     OW27568   0.251   4.645   6.574 -0.0083 -0.1936 -0.4193
 8890SOL    HW127569   0.169   4.607   6.532  0.4252 -1.7471  0.0631
 8890SOL    HW227570   0.332   4.603   6.532  0.5144  0.5327 -0.1603
 8891SOL     OW27571   4.625   2.414   1.227 -0.5381  0.9057 -0.0288
 8891SOL    HW127572   4.663   2.384   1.140  3.0565  0.9331  1.3356
 8891SOL    HW227573   4.593   2.334   1.279  0.1124  0.5086 -0.2210
 8892SOL     OW27574   4.527   5.435   1.738  0.5062 -0.3337  0.4533
 8892SOL    HW127575   4.612   5.403   1.697  1.1328  0.3960  1.1646
 8892SOL    HW227576   4.546   5.478   1.826 -0.5520  0.1476  0.4641
 8893SOL     OW27577   1.051   4.418   0.597 -0.4585 -0.0385  0.2509
 8893SOL    HW127578   1.108   4.499   0.580 -1.0747  0.4328  0.3673
 8893SOL    HW227579   0.996   4.434   0.679  0.8723 -1.3884  1.4659
 8894SOL     OW27580   4.088   6.374   5.663 -0.2065 -0.1176 -0.7702
 8894SOL    HW127581   3.992   6.402   5.672 -0.3691 -1.0759  1.1096
 8894SOL    HW227582   4.110   6.357   5.567 -2.3811 -1.4333 -1.0961
 8895SOL     OW27583   4.736   1.421   0.604  0.0610  0.1573 -0.0272
 8895SOL    HW127584   4.662   1.465   0.553  1.3101 -0.1892 -2.2961
 8895SOL    HW227585   4.787   1.489   0.657 -1.4058  0.4989  0.9919
 8896SOL     OW27586   4.167   5.765   4.932  0.2926  0.4707  0.0987
 8896SOL    HW127587   4.091   5.787   4.993  0.6941  1.2002  0.3589
 8896SOL    HW227588   4.190   5.668   4.940  0.1411  0.4941  0.8816
 8897SOL     OW27589   5.679   5.702   1.500  0.9378 -0.0370  0.0521
 8897SOL    HW127590   5.652   5.798   1.510  0.4347 -0.0893 -0.6455
 8897SOL    HW227591   5.616   5.658   1.436 -0.4053 -1.4848  2.2367
 8898SOL     OW27592   4.857   2.573   3.157  0.1487 -0.5767  0.3992
 8898SOL    HW127593   4.956   2.559   3.157 -0.1442 -3.1387 -0.0250
 8898SOL    HW227594   4.833   2.644   3.223  2.2971  0.4871  0.1025
 8899SOL     OW27595   5.834   3.687   4.106  0.2850  0.3286 -0.5597
 8899SOL    HW127596   5.904   3.758   4.097 -1.4830  2.2388  0.0688
 8899SOL    HW227597   5.748   3.720   4.067 -0.7258 -1.2606  0.2495
 8900SOL     OW27598   4.653   1.292   3.310  0.2490 -0.5191 -0.1246
 8900SOL    HW127599   4.582   1.294   3.239  0.2942  0.0053 -0.1569
 8900SOL    HW227600   4.733   1.343   3.279 -0.8571  2.4868  1.4711
 8901SOL     OW27601   6.828   6.752   6.423  0.2169 -0.4041 -0.1304
 8901SOL    HW127602   6.884   6.692   6.481  0.4447 -0.6684 -0.6171
 8901SOL    HW227603   6.812   6.708   6.335  0.2035  0.1625 -0.4159
 8902SOL     OW27604   1.086   3.040   5.816 -0.2543  0.1404 -0.3043
 8902SOL    HW127605   1.164   3.015   5.758  0.1226  0.5499  0.0220
 8902SOL    HW227606   1.022   3.096   5.763 -1.0799 -1.4162 -1.0314
 8903SOL     OW27607   3.225   3.261   0.095  0.4000 -0.2482  0.5619
 8903SOL    HW127608   3.203   3.245  -0.001 -1.0469 -0.1518  0.8501
 8903SOL    HW227609   3.299   3.328   0.102 -0.0311  0.3557 -0.4703
 8904SOL     OW27610   3.711   1.696   6.672 -0.8738  0.2348  0.0595
 8904SOL    HW127611   3.762   1.746   6.742 -0.4479 -0.3791  0.1983
 8904SOL    HW227612   3.716   1.745   6.586 -1.3460  0.9664  0.4386
 8905SOL     OW27613   6.708   1.555   4.802 -0.1289 -0.6224  0.2440
 8905SOL    HW127614   6.716   1.648   4.837  0.0316 -0.1856 -0.8923
 8905SOL    HW227615   6.798   1.513   4.796 -0.2506 -1.0362  1.2136
 8906SOL     OW27616   1.919   3.959   5.801 -0.0992 -0.2427 -0.4163
 8906SOL    HW127617   1.831   3.928   5.837  1.4439 -2.7215  1.5682
 8906SOL    HW227618   1.933   4.055   5.826 -1.6974 -0.1593  0.3017
 8907SOL     OW27619   2.145   1.566   2.738 -0.0743 -0.0917 -0.1994
 8907SOL    HW127620   2.243   1.562   2.757  0.2184 -3.7029 -1.7544
 8907SOL    HW227621   2.128   1.547   2.642 -2.3398 -0.0175  0.1267
 8908SOL     OW27622   6.632   2.268   6.024 -0.1444  0.2966  0.0356
 8908SOL    HW127623   6.691   2.289   6.102 -0.0404  1.0210 -0.2324
 8908SOL    HW227624   6.584   2.351   5.995 -1.4210 -0.3127  0.3496
 8909SOL     OW27625   3.120   4.583   1.693  0.1786 -0.1954 -0.8516
 8909SOL    HW127626   3.131   4.524   1.613 -2.2603  0.2028 -1.5661
 8909SOL    HW227627   3.035   4.559   1.741  0.5090  0.9866  0.3918
 8910SOL     OW27628   5.479   5.109   5.095 -0.7862 -0.7714 -0.0839
 8910SOL    HW127629   5.562   5.067   5.132 -0.6803 -0.3998  0.1085
 8910SOL    HW227630   5.411   5.118   5.168 -0.8278 -0.6556 -0.1366
 8911SOL     OW27631   5.739   5.648   6.522 -0.3306 -0.0412  0.0124
 8911SOL    HW127632   5.802   5.725   6.538  3.2501 -2.3836 -1.5888
 8911SOL    HW227633   5.724   5.638   6.423 -1.3940 -0.9804  0.2543
 8912SOL     OW27634   5.137   1.815   5.708  0.8964  0.0418  0.0087
 8912SOL    HW127635   5.088   1.791   5.792  1.0125  0.1671  0.1099
 8912SOL    HW227636   5.071   1.831   5.635  0.8311 -1.7200 -0.3643
 8913SOL     OW27637   6.639   3.153   1.260 -0.8486 -0.4232 -0.9825
 8913SOL    HW127638   6.576   3.152   1.182  0.4364 -1.3940 -2.0524
 8913SOL    HW227639   6.704   3.078   1.251  1.1449  1.1618 -0.4523
 8914SOL     OW27640   2.637   0.395   0.362 -0.0029 -0.0415 -0.9958
 8914SOL    HW127641   2.581   0.314   0.344 -0.8028  0.5950 -1.4132
 8914SOL    HW227642   2.580   0.466   0.403  0.4886  0.6424 -1.4839
 8915SOL     OW27643   2.626   5.972   5.886  0.3348  0.2810 -0.6708
 8915SOL    HW127644   2.608   6.009   5.795 -0.0072  0.2800 -0.6021
 8915SOL    HW227645   2.563   6.011   5.952  0.9938  0.7587 -0.3137
 8916SOL     OW27646   2.148   6.127   3.498  1.2355 -0.6522  0.0252
 8916SOL    HW127647   2.183   6.101   3.589  1.7820 -2.3957 -0.6388
 8916SOL    HW227648   2.081   6.201   3.508  1.2009 -0.8814  1.8660
 8917SOL     OW27649   3.444   2.028   6.838 -0.4327 -0.2399  0.0669
 8917SOL    HW127650   3.533   2.006   6.878 -0.6444 -1.2393 -0.0023
 8917SOL    HW227651   3.458   2.063   6.745 -0.1514 -1.3304 -0.3208
 8918SOL     OW27652   0.296   4.192   4.324  0.3111  0.0790 -0.2218
 8918SOL    HW127653   0.385   4.151   4.345  0.9212  1.4275 -0.1106
 8918SOL    HW227654   0.223   4.131   4.357  1.0919 -2.2178 -2.4164
 8919SOL     OW27655   4.223   1.653   5.849  0.2041 -0.0646 -0.8079
 8919SOL    HW127656   4.232   1.605   5.936 -2.1990  0.1913 -0.3440
 8919SOL    HW227657   4.192   1.589   5.779  0.9593 -0.0174 -1.1922
 8920SOL     OW27658   2.844   0.889   6.364 -0.3029 -0.2870  0.1642
 8920SOL    HW127659   2.771   0.941   6.408  0.7162 -0.1752  1.7920
 8920SOL    HW227660   2.852   0.799   6.406  0.9910 -0.0163  0.5333
 8921SOL     OW27661   0.109   5.969   4.273 -0.1498 -0.3735 -0.0502
 8921SOL    HW127662   0.097   5.870   4.263  0.3329 -0.5848  1.2584
 8921SOL    HW227663   0.022   6.011   4.301 -0.0836 -0.5918  0.4911
 8922SOL     OW27664   0.224   2.630   4.865  0.3909  0.3873  0.6825
 8922SOL    HW127665   0.163   2.562   4.823 -0.1117  1.5638 -0.5515
 8922SOL    HW227666   0.200   2.641   4.961 -1.4236  0.8703  0.2132
 8923SOL     OW27667   4.995   1.679   2.810  0.2453  0.1991 -0.4056
 8923SOL    HW127668   4.952   1.673   2.900 -0.8253 -1.7601 -0.9993
 8923SOL    HW227669   5.068   1.749   2.813  1.3235 -0.8858  2.3974
 8924SOL     OW27670   6.970   5.071   2.297 -0.3162  0.1087  0.0274
 8924SOL    HW127671   6.881   5.062   2.251 -0.6675  0.5853  0.6060
 8924SOL    HW227672   6.985   5.166   2.321 -0.5028 -0.2368  1.6242
 8925SOL     OW27673   6.604   0.771   3.907 -0.1465  0.2340  0.3018
 8925SOL    HW127674   6.620   0.717   3.989  0.1971 -0.3041 -0.1069
 8925SOL    HW227675   6.618   0.868   3.927  1.2513  0.0068  0.5752
 8926SOL     OW27676   2.854   1.844   1.109 -0.0608 -0.2249  0.3495
 8926SOL    HW127677   2.950   1.818   1.105  0.0350  0.1391  0.1957
 8926SOL    HW227678   2.816   1.820   1.198 -0.1598 -1.4987 -0.0228
 8927SOL     OW27679   3.489   1.206   6.951  0.3292 -0.1334 -0.1036
 8927SOL    HW127680   3.505   1.116   6.911 -1.5756 -0.6588  0.1806
 8927SOL    HW227681   3.535   1.212   7.039  2.4604  0.0965 -1.1821
 8928SOL     OW27682   6.278   3.559   3.047  0.4104  0.4285  0.2581
 8928SOL    HW127683   6.365   3.565   3.097  0.5220  0.7085  0.0349
 8928SOL    HW227684   6.255   3.463   3.033 -0.0066  0.3316  1.5053
 8929SOL     OW27685   4.945   4.982   5.260  0.3530 -0.1036  0.0460
 8929SOL    HW127686   4.908   5.007   5.349 -0.1661 -2.6425  0.6062
 8929SOL    HW227687   4.909   5.044   5.191  1.4915  2.5206  1.6417
 8930SOL     OW27688   1.578   5.522   5.588  0.4203  0.1505  0.4879
 8930SOL    HW127689   1.548   5.526   5.493 -1.5299 -0.3906  1.0475
 8930SOL    HW227690   1.617   5.432   5.607 -0.8289 -0.3617  0.6543
 8931SOL     OW27691   6.968   2.375   5.968  0.7786 -0.7958 -0.4141
 8931SOL    HW127692   7.049   2.366   5.911  1.2212  0.1600  0.0336
 8931SOL    HW227693   6.928   2.465   5.955  0.5280 -0.7945  0.3087
 8932SOL     OW27694   2.876   4.652   1.245  0.1570 -0.3735 -0.7487
 8932SOL    HW127695   2.914   4.561   1.232 -0.4929 -0.7149 -0.3005
 8932SOL    HW227696   2.949   4.720   1.237  0.5412 -0.8808 -1.6751
 8933SOL     OW27697   2.591   0.450   2.320  0.2687  0.3997 -0.4030
 8933SOL    HW127698   2.527   0.482   2.389 -1.2782 -0.6871 -1.2723
 8933SOL    HW227699   2.635   0.366   2.352  0.6373  0.6885 -0.1493
 8934SOL     OW27700   6.194   2.724   2.858 -0.0470 -0.4371 -0.1387
 8934SOL    HW127701   6.251   2.655   2.902  0.9160 -0.8387 -1.8959
 8934SOL    HW227702   6.137   2.680   2.788  0.0256  0.4415 -0.7698
 8935SOL     OW27703   1.270   1.534   4.099 -0.2383 -0.5129  0.5503
 8935SOL    HW127704   1.259   1.592   4.018 -1.8419 -2.2402 -0.5592
 8935SOL    HW227705   1.367   1.515   4.114  0.1282  0.3806 -0.5449
 8936SOL     OW27706   4.870   3.568   4.158 -0.0847 -0.4251 -0.1101
 8936SOL    HW127707   4.901   3.607   4.071 -1.4199 -0.0466 -0.4329
 8936SOL    HW227708   4.821   3.638   4.210  0.3574 -0.7616  0.7900
 8937SOL     OW27709   4.377   5.237   2.799  0.2631  0.0080  0.1534
 8937SOL    HW127710   4.310   5.163   2.812 -0.6383  0.7409 -0.2242
 8937SOL    HW227711   4.395   5.248   2.701  0.3974  0.2805  0.2081
 8938SOL     OW27712   6.926   4.665   6.114 -0.1685  0.1964  0.0682
 8938SOL    HW127713   6.887   4.593   6.057  1.1192 -0.1324 -0.4274
 8938SOL    HW227714   6.909   4.754   6.072 -1.3745  0.1686  0.4543
 8939SOL     OW27715   4.521   6.898   6.049  0.4536  0.2296 -0.7944
 8939SOL    HW127716   4.536   6.939   6.139  0.0179  0.4380 -0.8108
 8939SOL    HW227717   4.526   6.799   6.056  1.9721  0.2883 -0.8398
 8940SOL     OW27718   1.927   1.172   3.324  0.1617 -0.3495 -0.1759
 8940SOL    HW127719   1.854   1.186   3.391 -0.3045  0.5130 -0.8447
 8940SOL    HW227720   1.893   1.115   3.249 -0.1535  0.8530 -0.9732
 8941SOL     OW27721   6.635   6.154   6.486  0.2228 -0.3923  0.1002
 8941SOL    HW127722   6.712   6.090   6.491 -0.3444 -1.2641 -1.5678
 8941SOL    HW227723   6.608   6.166   6.391 -0.8289  0.9923  0.5413
 8942SOL     OW27724   3.097   1.875   5.197  0.0721  0.7542  0.9431
 8942SOL    HW127725   3.169   1.884   5.127 -0.3507  0.1598  0.4189
 8942SOL    HW227726   3.021   1.935   5.175 -0.6712 -0.4555  0.0949
 8943SOL     OW27727   1.548   3.834   3.881  1.1687  0.1885 -0.4927
 8943SOL    HW127728   1.610   3.806   3.808  1.9889  1.2106 -0.2182
 8943SOL    HW227729   1.568   3.928   3.907  0.1005  0.2275  0.2447
 8944SOL     OW27730   4.212   1.550   3.423  0.2853  1.0322  0.5797
 8944SOL    HW127731   4.125   1.501   3.429  0.6271  0.5188  1.5551
 8944SOL    HW227732   4.234   1.567   3.327  0.2763 -0.9496  0.1996
 8945SOL     OW27733   3.613   5.766   3.282 -0.0934 -0.0833 -0.3804
 8945SOL    HW127734   3.532   5.820   3.307 -0.4415 -0.5821 -0.4077
 8945SOL    HW227735   3.645   5.794   3.192 -0.4617 -0.1402 -0.5316
 8946SOL     OW27736   2.063   4.297   2.899  0.3660 -0.4915  0.3446
 8946SOL    HW127737   2.137   4.364   2.905 -0.4541  0.3955  0.7687
 8946SOL    HW227738   2.006   4.301   2.981  1.4169 -3.1078  1.3329
 8947SOL     OW27739   5.473   1.827   6.456  1.5547  0.0201  0.5105
 8947SOL    HW127740   5.442   1.799   6.547  0.8359 -1.1025 -0.0539
 8947SOL    HW227741   5.463   1.926   6.447  0.6862  0.0283  1.3154
 8948SOL     OW27742   1.635   5.569   4.187  0.5454  0.1322  0.0757
 8948SOL    HW127743   1.565   5.513   4.230  1.1976 -0.1744  0.7613
 8948SOL    HW227744   1.726   5.530   4.206  0.9265  0.6724 -0.5616
 8949SOL     OW27745   2.650   1.048   2.549  0.7746  0.0144  0.0859
 8949SOL    HW127746   2.719   1.022   2.482 -0.5270 -0.3418 -1.1511
 8949SOL    HW227747   2.591   1.118   2.510  0.2181  0.0684  1.0034
 8950SOL     OW27748   0.390   3.880   4.542 -0.6788 -0.2513  0.1619
 8950SOL    HW127749   0.456   3.840   4.477 -1.4049 -0.0902 -0.6990
 8950SOL    HW227750   0.438   3.906   4.626  0.1826 -1.0132 -0.0694
 8951SOL     OW27751   6.280   3.220   2.733  0.0990  0.4354  0.4056
 8951SOL    HW127752   6.372   3.198   2.702 -0.3430 -1.0770  0.0219
 8951SOL    HW227753   6.254   3.311   2.701  1.1786  0.5613 -0.1426
 8952SOL     OW27754   6.728   4.774   3.383  0.4523 -0.2786 -0.0773
 8952SOL    HW127755   6.658   4.835   3.419  0.6416 -0.5469  0.7770
 8952SOL    HW227756   6.813   4.788   3.433  0.5008 -1.2355  0.1292
 8953SOL     OW27757   1.271   3.531   4.552 -0.1343  0.1014 -0.0263
 8953SOL    HW127758   1.181   3.557   4.516  0.9621  2.3834 -1.3789
 8953SOL    HW227759   1.298   3.442   4.515 -1.3411 -0.0712 -0.5314
 8954SOL     OW27760   6.364   6.881   5.826 -0.1328  0.1200 -0.3488
 8954SOL    HW127761   6.404   6.839   5.744 -0.1070  2.4267 -1.5929
 8954SOL    HW227762   6.356   6.812   5.898  2.6656 -1.2924 -1.2494
 8955SOL     OW27763   1.771   1.143   5.631  0.2298 -0.6358  0.3526
 8955SOL    HW127764   1.811   1.054   5.612 -0.2171 -0.9528  0.8799
 8955SOL    HW227765   1.820   1.186   5.708  2.1375  0.7121 -1.4806
 8956SOL     OW27766   3.475   2.033   6.216 -0.0791 -0.1437 -0.1652
 8956SOL    HW127767   3.452   2.006   6.123  0.1285 -0.8321 -0.0173
 8956SOL    HW227768   3.573   2.024   6.231 -0.1354 -0.2069  0.1753
 8957SOL     OW27769   0.246   6.438   3.646  0.6768 -0.3359 -0.7541
 8957SOL    HW127770   0.157   6.473   3.677  1.0916 -0.7156  1.0236
 8957SOL    HW227771   0.285   6.501   3.580  0.0741  1.0091  0.1271
 8958SOL     OW27772   6.925   0.531   4.759  0.3443  0.0574  0.3628
 8958SOL    HW127773   6.827   0.534   4.776  0.3061 -1.0958  0.4332
 8958SOL    HW227774   6.952   0.438   4.733  1.5430  0.1314  1.2132
 8959SOL     OW27775   6.521   4.416   3.594  0.0905  0.4734  0.3559
 8959SOL    HW127776   6.577   4.335   3.613 -2.0168 -1.2149 -0.2907
 8959SOL    HW227777   6.579   4.497   3.597  2.6867 -1.1947 -0.7170
 8960SOL     OW27778   3.998   1.200   1.453  0.2578  0.3558  0.0808
 8960SOL    HW127779   4.008   1.227   1.549  1.2969 -3.9130  1.4170
 8960SOL    HW227780   4.088   1.203   1.408 -0.1450  1.8772 -0.6801
 8961SOL     OW27781   0.086   5.697   2.238 -0.0067 -0.1497  0.0469
 8961SOL    HW127782   0.162   5.634   2.223  0.4115  0.5828 -1.0259
 8961SOL    HW227783   0.112   5.766   2.305 -0.1398 -0.5574  0.5275
 8962SOL     OW27784   0.341   4.444   6.156  0.6310 -0.1305 -0.1273
 8962SOL    HW127785   0.420   4.402   6.201  0.5371 -0.5054 -0.3052
 8962SOL    HW227786   0.297   4.376   6.096 -0.3636 -0.2225  0.6701
 8963SOL     OW27787   4.040   1.343   3.725  0.0430  0.1954  0.6282
 8963SOL    HW127788   4.009   1.437   3.741  1.9669  0.8580  0.6369
 8963SOL    HW227789   4.079   1.306   3.808 -0.5731 -0.5781  0.5803
 8964SOL     OW27790   2.158   0.779   6.153  0.0447  0.8028  1.4516
 8964SOL    HW127791   2.148   0.758   6.250 -0.5854  2.5575  1.8047
 8964SOL    HW227792   2.123   0.871   6.135 -0.0863  0.4199 -0.4933
 8965SOL     OW27793   5.840   1.285   0.236 -0.3866  1.0348 -0.1021
 8965SOL    HW127794   5.869   1.377   0.210 -0.9007  0.8833 -1.2479
 8965SOL    HW227795   5.887   1.218   0.179 -1.4867  0.6935 -0.6279
 8966SOL     OW27796   6.715   0.542   3.764 -0.8938 -0.2458 -0.1278
 8966SOL    HW127797   6.674   0.624   3.806  1.4867  0.6220  0.6505
 8966SOL    HW227798   6.732   0.560   3.667 -0.9350 -0.0506 -0.1014
 8967SOL     OW27799   2.466   2.911   0.251  0.2559 -0.4842  1.2703
 8967SOL    HW127800   2.500   2.847   0.182 -1.0916 -0.3080  0.4101
 8967SOL    HW227801   2.456   2.864   0.338 -0.7964 -1.4885  0.6316
 8968SOL     OW27802   5.176   3.316   1.247  0.1579 -0.1318  0.4324
 8968SOL    HW127803   5.160   3.237   1.188 -0.2212  0.1300  0.1763
 8968SOL    HW227804   5.172   3.288   1.343 -0.8546 -0.2746  0.3665
 8969SOL     OW27805   1.097   5.684   0.832 -0.4042  0.3421  0.7653
 8969SOL    HW127806   1.106   5.755   0.902 -0.6310  2.1303 -0.9264
 8969SOL    HW227807   1.175   5.688   0.769 -0.7176 -0.5091  0.3030
 8970SOL     OW27808   4.418   0.929   3.761  0.1495  0.1955 -0.3230
 8970SOL    HW127809   4.465   0.841   3.757 -1.5168 -0.8069  0.7814
 8970SOL    HW227810   4.478   0.997   3.802  1.1101 -0.6957 -0.2161
 8971SOL     OW27811   6.633   5.032   1.718  0.4597  0.2097 -0.1445
 8971SOL    HW127812   6.659   5.081   1.635 -1.1395 -1.0399 -1.4574
 8971SOL    HW227813   6.715   5.010   1.771  1.3857  2.3188 -0.6117
 8972SOL     OW27814   5.219   5.028   3.891  0.7638  0.6229  0.4249
 8972SOL    HW127815   5.161   5.086   3.949  0.0396  0.8649 -0.5207
 8972SOL    HW227816   5.202   4.932   3.914 -1.1066  0.6091 -0.7780
 8973SOL     OW27817   3.409   1.665   0.121  0.0902  0.4747  0.2469
 8973SOL    HW127818   3.348   1.701   0.049  0.4296  1.1699  0.2996
 8973SOL    HW227819   3.358   1.659   0.207  0.2870  1.7936  0.4776
 8974SOL     OW27820   4.950   0.526   6.121 -0.3895 -0.4588  0.3807
 8974SOL    HW127821   4.896   0.592   6.069 -0.1656  0.1566  0.9181
 8974SOL    HW227822   4.906   0.510   6.209  0.7203  0.6752  1.1639
 8975SOL     OW27823   3.079   5.987   1.685 -0.7696  0.0499 -0.0372
 8975SOL    HW127824   3.060   5.902   1.735  0.1967  0.6990  1.4940
 8975SOL    HW227825   3.172   5.985   1.649  0.2101  1.4569  2.2307
 8976SOL     OW27826   2.066   2.030   2.997  0.2287  0.0071 -0.0393
 8976SOL    HW127827   2.104   1.974   2.923  1.1606 -0.1598  0.5518
 8976SOL    HW227828   1.977   1.994   3.023  0.4487 -0.7067 -0.2399
 8977SOL     OW27829   6.103   0.630   0.678  0.5678 -0.4468  0.0060
 8977SOL    HW127830   6.155   0.611   0.595 -1.0160 -1.9124 -0.7198
 8977SOL    HW227831   6.018   0.676   0.654  0.6129  0.1457  0.9492
 8978SOL     OW27832   2.319   6.771   4.373  1.2300 -0.3068 -0.3961
 8978SOL    HW127833   2.401   6.777   4.317  0.6804 -0.9337 -1.2920
 8978SOL    HW227834   2.253   6.710   4.329  0.1805  0.3917  0.1714
 8979SOL     OW27835   6.347   0.798   3.672 -0.4261  0.6260 -0.1040
 8979SOL    HW127836   6.392   0.886   3.657  1.7709 -0.2229  0.9788
 8979SOL    HW227837   6.261   0.795   3.621  0.3381  2.6757 -1.6606
 8980SOL     OW27838   3.767   1.293   4.539 -0.3477 -0.0284  0.5403
 8980SOL    HW127839   3.774   1.236   4.457  1.0316 -1.0535  1.3356
 8980SOL    HW227840   3.775   1.236   4.621  0.0612  1.1924  1.3766
 8981SOL     OW27841   4.869   4.063   6.140  0.5579  0.7711  0.5135
 8981SOL    HW127842   4.861   4.155   6.177  0.2524 -0.1545  2.9535
 8981SOL    HW227843   4.811   4.055   6.059  1.2709  2.9304 -0.2681
 8982SOL     OW27844   0.448   4.810   4.023 -0.3340 -0.1276  0.0990
 8982SOL    HW127845   0.447   4.901   3.982  0.7087  0.6764  1.7356
 8982SOL    HW227846   0.536   4.765   4.005 -1.1171 -1.1783 -1.3533
 8983SOL     OW27847   6.046   5.629   3.234  0.5625  0.2121  0.2081
 8983SOL    HW127848   6.029   5.610   3.330 -0.7054 -0.8245 -0.1897
 8983SOL    HW227849   6.142   5.613   3.213  1.0409  1.2730  1.4605
 8984SOL     OW27850   1.064   0.604   0.173  0.2401  0.5842  0.0909
 8984SOL    HW127851   1.042   0.608   0.075  1.4320  1.6080 -0.1703
 8984SOL    HW227852   1.120   0.683   0.197  2.9308 -1.4033  0.8404
 8985SOL     OW27853   5.774   0.338   0.423  0.1114  0.1036 -0.0405
 8985SOL    HW127854   5.743   0.380   0.338  2.7029 -0.6040 -1.4438
 8985SOL    HW227855   5.711   0.264   0.448 -0.1314 -0.3886 -1.9513
 8986SOL     OW27856   6.400   5.310   6.023 -0.1667  1.0406 -0.0788
 8986SOL    HW127857   6.479   5.255   6.047  0.6529  1.3653 -1.9139
 8986SOL    HW227858   6.318   5.269   6.062  1.0379  1.8594  3.7490
 8987SOL     OW27859   4.007   1.425   5.881 -0.0192  0.5737 -0.0414
 8987SOL    HW127860   3.911   1.443   5.900 -0.0049  1.2317 -0.5595
 8987SOL    HW227861   4.036   1.477   5.800  1.0533  1.3059  0.7683
 8988SOL     OW27862   4.198   2.351   5.387 -0.2598 -0.1828 -0.5917
 8988SOL    HW127863   4.290   2.316   5.405 -0.0755  0.8501  0.6008
 8988SOL    HW227864   4.201   2.417   5.313  0.1347  0.5594  0.0747
 8989SOL     OW27865   3.423   3.101   0.290  0.0087 -0.1860  0.4274
 8989SOL    HW127866   3.339   3.114   0.236  0.1139 -0.0649  0.2925
 8989SOL    HW227867   3.416   3.153   0.375  0.2510  0.4254  0.0816
 8990SOL     OW27868   1.252   3.968   1.691  0.1800 -0.1867 -0.3665
 8990SOL    HW127869   1.300   3.955   1.777 -1.6430  1.3416  0.9714
 8990SOL    HW227870   1.314   4.007   1.623  0.9590  1.4222  1.2032
 8991SOL     OW27871   2.186   2.045   3.607  0.0724  0.1884 -0.0330
 8991SOL    HW127872   2.284   2.066   3.611  0.3441 -1.0266  0.0515
 8991SOL    HW227873   2.138   2.100   3.675  0.6590  0.9674 -0.2316
 8992SOL     OW27874   6.568   0.870   1.263 -0.1367 -0.3188 -0.3351
 8992SOL    HW127875   6.515   0.911   1.188 -1.2258  0.6571  0.9216
 8992SOL    HW227876   6.603   0.943   1.322  2.9012 -0.8852 -1.2185
 8993SOL     OW27877   2.663   0.521   5.176  0.7160 -0.2327  0.5872
 8993SOL    HW127878   2.684   0.561   5.087 -0.2809 -2.1083 -0.5523
 8993SOL    HW227879   2.574   0.554   5.207 -0.2384 -1.6732 -0.4864
 8994SOL     OW27880   0.740   0.702   1.120 -0.0746  0.1666 -0.2134
 8994SOL    HW127881   0.734   0.681   1.023  1.3888 -1.3499 -0.0216
 8994SOL    HW227882   0.804   0.639   1.164 -0.7811  0.7509  1.7597
 8995SOL     OW27883   0.594   3.061   5.744 -0.3551  0.5124 -0.0946
 8995SOL    HW127884   0.673   3.100   5.697  1.3400  1.4817  3.2259
 8995SOL    HW227885   0.514   3.120   5.731  0.3652  1.3772 -0.7246
 8996SOL     OW27886   0.314   1.138   0.298 -0.1550  0.0884 -0.1171
 8996SOL    HW127887   0.270   1.119   0.386 -0.3106 -0.4925 -0.3210
 8996SOL    HW227888   0.322   1.237   0.286  1.3078  0.1838  1.2824
 8997SOL     OW27889   5.444   0.653   2.003 -0.3367  0.1632 -0.3603
 8997SOL    HW127890   5.436   0.582   2.073 -0.2457  1.2362  0.7691
 8997SOL    HW227891   5.354   0.669   1.962 -0.7304  0.6342  0.6538
 8998SOL     OW27892   0.265   0.822   4.993  0.3199  0.4743  0.5211
 8998SOL    HW127893   0.187   0.843   4.935  0.5945  2.2547  0.7492
 8998SOL    HW227894   0.238   0.755   5.062 -1.0469  1.1358  0.6534
 8999SOL     OW27895   0.002   4.896   0.057  0.4281  0.2200 -0.0199
 8999SOL    HW127896  -0.002   4.904  -0.043  2.4455 -0.2789 -0.1803
 8999SOL    HW227897   0.056   4.970   0.094 -0.2100  0.3306  0.7129
 9000SOL     OW27898   4.696   4.753   3.564 -0.3643 -0.3502  0.0716
 9000SOL    HW127899   4.662   4.662   3.543 -0.4890  0.0021 -1.3589
 9000SOL    HW227900   4.791   4.761   3.535 -1.0693  0.7009 -2.0990
 9001SOL     OW27901   6.404   2.029   4.767  0.1257 -0.0724  0.0606
 9001SOL    HW127902   6.491   1.980   4.759 -0.4933 -1.0539 -1.1408
 9001SOL    HW227903   6.347   2.007   4.687 -1.9136 -0.8495  1.6340
 9002SOL     OW27904   1.175   6.607   3.786 -0.4420 -0.7575  0.1400
 9002SOL    HW127905   1.075   6.597   3.791 -0.2702 -2.0875  1.9895
 9002SOL    HW227906   1.218   6.518   3.798  0.9988 -0.0853  0.1898
 9003SOL     OW27907   1.352   2.860   6.776 -0.9332  0.0595 -0.5195
 9003SOL    HW127908   1.321   2.775   6.733  0.0292  0.1262 -1.3967
 9003SOL    HW227909   1.448   2.876   6.751 -1.3615  1.8741 -1.1054
 9004SOL     OW27910   3.766   1.260   1.061  0.0862 -0.1877  0.3531
 9004SOL    HW127911   3.773   1.315   0.977 -3.8905 -1.1408 -0.8265
 9004SOL    HW227912   3.831   1.185   1.056  2.4661  1.7736 -0.0912
 9005SOL     OW27913   3.180   6.708   3.975 -0.4821 -0.2274 -0.3801
 9005SOL    HW127914   3.188   6.793   3.922 -2.3739  0.0962 -0.2279
 9005SOL    HW227915   3.169   6.730   4.072 -1.3160 -0.6253 -0.3799
 9006SOL     OW27916   5.999   6.947   6.274 -0.0226  0.4309  0.1287
 9006SOL    HW127917   5.918   6.945   6.215  1.4863 -0.4682 -2.0439
 9006SOL    HW227918   6.037   7.040   6.275  0.5552  0.2407 -1.2958
 9007SOL     OW27919   6.790   1.113   1.974  0.3370 -0.6580 -0.0227
 9007SOL    HW127920   6.698   1.146   1.994  0.3613 -1.6119  1.9604
 9007SOL    HW227921   6.845   1.187   1.935 -1.2510 -0.0909 -1.3166
 9008SOL     OW27922   3.631   1.041   0.866  0.3056  0.3359 -0.4429
 9008SOL    HW127923   3.711   1.086   0.825 -0.1734 -0.0302 -1.8242
 9008SOL    HW227924   3.632   0.944   0.843  0.3581 -0.0415  1.0053
 9009SOL     OW27925   0.808   5.652   2.232 -0.1654  0.1871  0.2469
 9009SOL    HW127926   0.908   5.652   2.228 -0.1822  1.3079 -1.5659
 9009SOL    HW227927   0.775   5.559   2.249  1.1585 -0.4247 -0.4014
 9010SOL     OW27928   0.724   2.374   6.794 -0.2651  0.8515 -0.0989
 9010SOL    HW127929   0.677   2.459   6.817 -1.2446  0.4327 -0.5225
 9010SOL    HW227930   0.658   2.301   6.784  0.4729  0.2693 -0.8296
 9011SOL     OW27931   4.285   6.694   6.362  0.3744 -0.2017  0.0255
 9011SOL    HW127932   4.197   6.724   6.325  1.0557  0.5939 -1.0063
 9011SOL    HW227933   4.349   6.771   6.364  1.4503 -1.0488 -0.4601
 9012SOL     OW27934   3.822   1.450   2.799 -0.1710  0.1873  0.4091
 9012SOL    HW127935   3.848   1.358   2.770 -0.4277  0.0001  0.7682
 9012SOL    HW227936   3.814   1.509   2.718  1.5792  0.3217  0.3004
 9013SOL     OW27937   3.162   4.300   0.590  0.1719 -0.4526 -0.0774
 9013SOL    HW127938   3.099   4.319   0.665 -1.6274 -0.8377 -1.4208
 9013SOL    HW227939   3.125   4.227   0.532  1.4448 -0.1097 -1.4133
 9014SOL     OW27940   0.440   6.083   3.337 -0.3175 -0.0712  0.1084
 9014SOL    HW127941   0.376   6.052   3.266  0.6617 -0.7750 -0.4983
 9014SOL    HW227942   0.441   6.016   3.412 -1.2795  0.6233  0.7583
 9015SOL     OW27943   1.642   6.326   3.476 -0.7203 -0.4026 -0.1472
 9015SOL    HW127944   1.571   6.341   3.545 -0.5411  0.2422 -0.0941
 9015SOL    HW227945   1.600   6.294   3.391 -1.1677  0.5702 -0.3133
 9016SOL     OW27946   4.431   5.608   1.524  0.5192 -0.0779 -0.1021
 9016SOL    HW127947   4.333   5.597   1.541  0.3050  1.6370 -0.0241
 9016SOL    HW227948   4.482   5.550   1.587 -0.4269 -0.3946  0.4023
 9017SOL     OW27949   1.722   2.999   2.903  0.0772  0.0636 -0.1177
 9017SOL    HW127950   1.791   3.052   2.853  1.7137 -0.4959  1.4290
 9017SOL    HW227951   1.718   2.906   2.866  0.4578 -0.0152  0.0270
 9018SOL     OW27952   0.263   5.134   1.370 -0.1748 -0.1107  0.1424
 9018SOL    HW127953   0.324   5.154   1.294 -1.0925  3.2662  0.1126
 9018SOL    HW227954   0.227   5.041   1.361  1.7513 -0.7304 -2.0492
 9019SOL     OW27955   4.316   5.988   4.899  0.2699  0.7609  0.1485
 9019SOL    HW127956   4.360   5.985   4.989 -1.2503  1.0015  0.9407
 9019SOL    HW227957   4.243   5.921   4.895 -0.3626  1.4656 -0.5226
 9020SOL     OW27958   2.060   3.148   4.248 -0.4593  0.3955  0.1207
 9020SOL    HW127959   2.001   3.136   4.169  0.6550  0.6181 -0.7659
 9020SOL    HW227960   2.118   3.228   4.235 -2.3560  2.3342  2.5212
 9021SOL     OW27961   3.369   5.895   5.397  0.2467  0.0943 -0.0623
 9021SOL    HW127962   3.309   5.961   5.441  0.5099 -0.0782  0.5765
 9021SOL    HW227963   3.387   5.922   5.303  0.5935  1.0984  0.2837
 9022SOL     OW27964   1.245   1.874   5.687  0.1759 -0.3714 -0.1300
 9022SOL    HW127965   1.271   1.938   5.614  0.6420 -0.7332 -0.2870
 9022SOL    HW227966   1.190   1.921   5.755  0.9522  0.3269  0.0255
 9023SOL     OW27967   0.392   1.762   5.395 -0.3551  0.1037  0.3982
 9023SOL    HW127968   0.393   1.738   5.298  1.9927  2.1380 -0.1948
 9023SOL    HW227969   0.445   1.696   5.447 -0.1081 -0.0115  0.0034
 9024SOL     OW27970   1.143   0.821   6.126  0.3402 -0.7891  0.3727
 9024SOL    HW127971   1.049   0.854   6.132  1.0254  1.0823  1.8353
 9024SOL    HW227972   1.148   0.728   6.161 -0.7730 -0.4261  1.5824
 9025SOL     OW27973   1.482   6.673   4.816  0.3483 -0.4035 -0.1397
 9025SOL    HW127974   1.488   6.773   4.820  0.4489 -0.4136 -0.0070
 9025SOL    HW227975   1.427   6.646   4.738  0.3731 -0.2452 -0.2131
 9026SOL     OW27976   5.027   6.254   1.357 -0.0716 -0.2155  0.0812
 9026SOL    HW127977   5.117   6.212   1.368 -0.8885 -1.8449  1.1654
 9026SOL    HW227978   4.979   6.251   1.445 -1.2901  0.3490 -0.5442
 9027SOL     OW27979   4.043   5.500   3.069  0.1952 -0.6856  0.4152
 9027SOL    HW127980   4.098   5.577   3.037 -0.5763 -0.2248  0.1723
 9027SOL    HW227981   3.998   5.457   2.991 -0.2262 -0.7085  0.6692
 9028SOL     OW27982   5.900   6.384   0.018 -0.0532 -0.1335 -0.4570
 9028SOL    HW127983   5.933   6.418   0.106 -1.8632 -1.9280  1.0297
 9028SOL    HW227984   5.977   6.351  -0.037  0.9442 -1.0638  1.4212
 9029SOL     OW27985   5.753   1.066   2.157 -0.8677  0.4563 -0.3004
 9029SOL    HW127986   5.680   1.009   2.118 -0.4157  0.3164 -0.9545
 9029SOL    HW227987   5.842   1.024   2.136 -0.5875  0.7693  0.2561
 9030SOL     OW27988   0.289   6.870   1.937  0.0523  0.2426 -0.5546
 9030SOL    HW127989   0.198   6.832   1.957  0.9193 -0.0195  4.0948
 9030SOL    HW227990   0.344   6.803   1.889 -1.6781 -0.1984 -2.0077
 9031SOL     OW27991   2.190   0.533   5.282  0.2962  0.3640  0.5247
 9031SOL    HW127992   2.143   0.461   5.333 -0.2401 -0.6044 -1.2435
 9031SOL    HW227993   2.289   0.525   5.296  0.2121 -0.4601  0.7115
 9032SOL     OW27994   1.484   5.814   0.158  0.5726  0.0110  0.1775
 9032SOL    HW127995   1.508   5.726   0.118  2.0993 -0.2712  1.6020
 9032SOL    HW227996   1.540   5.830   0.239  0.3542  2.3052 -0.0517
 9033SOL     OW27997   1.661   3.960   4.768 -0.0491 -0.2527 -0.2534
 9033SOL    HW127998   1.632   3.865   4.760 -0.4940 -0.2717  1.2676
 9033SOL    HW227999   1.761   3.964   4.777  0.0079 -0.5406 -0.7358
 9034SOL     OW28000   3.885   0.640   4.353 -0.2638  0.4872  0.4067
 9034SOL    HW128001   3.896   0.593   4.265 -1.9109  2.2447 -0.8204
 9034SOL    HW228002   3.862   0.574   4.424  1.8814 -1.0821 -0.2495
 9035SOL     OW28003   1.072   0.432   3.334  0.0395  0.1487 -0.5548
 9035SOL    HW128004   1.016   0.481   3.401 -0.5576 -1.9986  0.6395
 9035SOL    HW228005   1.166   0.465   3.337 -0.3228  1.1387  0.2495
 9036SOL     OW28006   6.351   6.018   4.372 -0.4572  0.0015  0.1978
 9036SOL    HW128007   6.257   5.985   4.377 -0.3864 -0.0411  1.7659
 9036SOL    HW228008   6.412   5.942   4.350 -0.8186  0.1379 -1.4038
 9037SOL     OW28009   2.179   3.759   3.130 -0.2397  0.6316  0.5001
 9037SOL    HW128010   2.210   3.725   3.041  1.5927  0.6963  1.0798
 9037SOL    HW228011   2.146   3.683   3.185 -0.5418  0.4651  0.0948
 9038SOL     OW28012   2.265   2.545   3.338 -0.3676 -0.0454  0.7816
 9038SOL    HW128013   2.269   2.623   3.276 -3.4093 -1.8490 -1.9770
 9038SOL    HW228014   2.344   2.547   3.399  0.8248  3.9045 -0.6181
 9039SOL     OW28015   2.728   4.904   5.113  0.0637 -0.0708  0.1067
 9039SOL    HW128016   2.758   4.822   5.065  1.0412 -0.2217  0.9425
 9039SOL    HW228017   2.663   4.955   5.056 -0.4298 -1.3345 -0.4796
 9040SOL     OW28018   5.174   1.257   6.666 -0.0645 -0.0053 -0.3859
 9040SOL    HW128019   5.088   1.241   6.714 -0.5620 -0.1457 -1.2869
 9040SOL    HW228020   5.155   1.269   6.568  1.1646 -2.3850 -0.9798
 9041SOL     OW28021   4.077   5.497   6.008 -0.1508  0.1390  0.1569
 9041SOL    HW128022   4.112   5.478   5.916 -0.6239 -0.6582  0.1320
 9041SOL    HW228023   4.132   5.447   6.076 -0.8795 -0.6911  0.1577
 9042SOL     OW28024   2.701   3.269   1.676 -0.2827  0.1337 -0.3801
 9042SOL    HW128025   2.612   3.310   1.654 -0.3984  0.7295  1.0659
 9042SOL    HW228026   2.771   3.341   1.677  0.2673 -0.3584 -1.6616
 9043SOL     OW28027   0.468   4.060   2.180  0.0185  0.0704 -0.2652
 9043SOL    HW128028   0.391   4.122   2.195 -0.0799  0.0149 -0.5434
 9043SOL    HW228029   0.435   3.975   2.138  0.3373  0.3383 -1.0712
 9044SOL     OW28030   4.631   2.629   2.631 -0.4545  0.9117 -0.2909
 9044SOL    HW128031   4.556   2.563   2.632  1.0700 -0.9292  0.1725
 9044SOL    HW228032   4.646   2.664   2.724  0.5470 -0.3373  0.0470
 9045SOL     OW28033   3.631   0.141   2.993 -0.3039 -0.2431  0.4406
 9045SOL    HW128034   3.537   0.161   3.021  0.0260  1.2023  0.6069
 9045SOL    HW228035   3.655   0.198   2.914 -0.3905 -2.4501 -1.2806
 9046SOL     OW28036   1.221   5.640   4.131 -0.6144  0.2378  0.3716
 9046SOL    HW128037   1.210   5.702   4.209  4.2373  1.1286  0.7044
 9046SOL    HW228038   1.261   5.691   4.055  0.0023 -1.7382 -0.6801
 9047SOL     OW28039   4.408   5.097   0.561 -0.0763  0.0470  0.0917
 9047SOL    HW128040   4.384   5.004   0.589  2.3499 -0.9049 -0.7143
 9047SOL    HW228041   4.345   5.162   0.605 -3.4518 -2.0342 -1.2361
 9048SOL     OW28042   3.444   1.272   0.814 -0.3245 -0.4376  0.4214
 9048SOL    HW128043   3.365   1.257   0.755 -1.0089  0.8614  0.9762
 9048SOL    HW228044   3.471   1.185   0.855 -1.9767 -0.7786  0.8494
 9049SOL     OW28045   4.050   2.816   0.964  0.2144 -0.4393  0.6082
 9049SOL    HW128046   3.956   2.796   0.991  0.1704 -2.6079 -0.8422
 9049SOL    HW228047   4.109   2.739   0.990  1.2156  0.0553 -0.1461
 9050SOL     OW28048   3.835   6.782   5.332 -0.1521 -0.0197 -0.5644
 9050SOL    HW128049   3.786   6.805   5.248  0.1219 -0.5453 -0.8726
 9050SOL    HW228050   3.823   6.855   5.399 -1.7996 -0.3761 -0.4374
 9051SOL     OW28051   3.964   1.289   2.203  0.1045 -0.5238 -0.2352
 9051SOL    HW128052   3.900   1.351   2.157  2.0143  1.6106 -0.2158
 9051SOL    HW228053   3.913   1.218   2.252 -2.1798  0.5925 -0.8636
 9052SOL     OW28054   4.763   1.047   6.876  0.7128  0.0828  0.3828
 9052SOL    HW128055   4.752   0.948   6.880  0.0890  0.1620  0.6748
 9052SOL    HW228056   4.860   1.070   6.884  0.9872 -0.5553 -0.8385
 9053SOL     OW28057   2.973   1.600   6.276 -0.1701 -0.0036  0.0163
 9053SOL    HW128058   3.020   1.673   6.226 -0.2560  1.4609  1.9722
 9053SOL    HW228059   3.025   1.515   6.266  1.3390  0.8980 -0.2527
 9054SOL     OW28060   5.716   6.663   3.574  0.0612 -0.1139  0.8685
 9054SOL    HW128061   5.668   6.648   3.661  1.2399 -1.0862  1.3774
 9054SOL    HW228062   5.656   6.636   3.499 -0.9008  0.5455  1.3775
 9055SOL     OW28063   0.292   2.323   6.193  0.0887 -0.0247 -0.2525
 9055SOL    HW128064   0.211   2.313   6.250 -0.4569  0.9311 -0.8391
 9055SOL    HW228065   0.307   2.420   6.172 -0.8240 -0.4245 -3.2223
 9056SOL     OW28066   0.140   0.539   2.330  0.3652 -0.0064 -0.6892
 9056SOL    HW128067   0.148   0.441   2.350 -1.9127 -0.0017  0.6176
 9056SOL    HW228068   0.128   0.589   2.415 -1.2369  1.0569 -1.4847
 9057SOL     OW28069   1.468   5.402   6.778 -0.7330  0.3465  0.7888
 9057SOL    HW128070   1.505   5.358   6.860 -0.0159  0.7146  0.6737
 9057SOL    HW228071   1.477   5.340   6.700  1.8811  1.2530  0.2548
 9058SOL     OW28072   2.314   1.264   2.004 -0.3472  0.1260 -0.1350
 9058SOL    HW128073   2.334   1.173   1.968 -2.2791  0.0271 -1.0860
 9058SOL    HW228074   2.248   1.258   2.078 -2.9246  0.8564 -2.2083
 9059SOL     OW28075   6.946   0.924   3.649 -0.5154 -0.1975  0.1204
 9059SOL    HW128076   6.996   0.884   3.726 -0.1099 -1.4605 -0.7684
 9059SOL    HW228077   6.852   0.892   3.650 -0.4562 -0.3755 -0.0259
 9060SOL     OW28078   6.448   3.431   1.739  0.1182  0.4867  0.4162
 9060SOL    HW128079   6.365   3.451   1.792 -0.6620 -0.5208 -0.3684
 9060SOL    HW228080   6.513   3.381   1.796 -0.4692 -0.0808  0.5974
 9061SOL     OW28081   6.633   2.823   6.560 -0.3751 -0.2304  0.4826
 9061SOL    HW128082   6.560   2.780   6.508 -0.4039 -2.0774  1.9323
 9061SOL    HW228083   6.594   2.876   6.635 -0.2865  1.3751 -0.5529
 9062SOL     OW28084   2.464   4.830   3.395 -0.0003 -0.0587 -0.4835
 9062SOL    HW128085   2.414   4.854   3.478 -1.1463  1.2812 -1.5084
 9062SOL    HW228086   2.514   4.910   3.361 -0.3479 -0.3019 -1.6240
 9063SOL     OW28087   4.144   6.886   1.502 -0.0272 -0.3263  0.0055
 9063SOL    HW128088   4.077   6.925   1.439 -0.1694  0.4027  0.5932
 9063SOL    HW228089   4.102   6.812   1.554 -1.6892  2.4938  3.0982
 9064SOL     OW28090   5.450   2.736   4.495 -0.4321  0.3232  0.5816
 9064SOL    HW128091   5.393   2.696   4.567 -0.7407  1.3738  0.9407
 9064SOL    HW228092   5.396   2.802   4.443  0.0559  0.2568 -0.0140
 9065SOL     OW28093   2.871   2.280   1.360  0.1145 -0.0640 -0.5822
 9065SOL    HW128094   2.802   2.226   1.408 -2.8304  1.0355 -3.2633
 9065SOL    HW228095   2.849   2.377   1.368  1.2004  0.2989 -1.7173
 9066SOL     OW28096   6.162   5.366   6.391 -0.3721  0.0968  0.1834
 9066SOL    HW128097   6.201   5.324   6.309 -1.0424  0.7959 -0.5145
 9066SOL    HW228098   6.155   5.298   6.463  1.6854 -0.1594  0.1939
 9067SOL     OW28099   1.856   4.958   6.440 -0.0043  0.2471  0.1341
 9067SOL    HW128100   1.834   4.865   6.466 -0.1706  0.0841 -0.5701
 9067SOL    HW228101   1.787   4.993   6.377  0.1637  0.7747  0.2344
 9068SOL     OW28102   5.905   1.531   4.415  0.3546  0.1339  0.3013
 9068SOL    HW128103   5.986   1.472   4.424  0.5415  0.4010  0.4026
 9068SOL    HW228104   5.915   1.610   4.476 -0.1013  0.0420  0.5007
 9069SOL     OW28105   1.374   0.639   4.044  0.4502 -0.6016  0.1490
 9069SOL    HW128106   1.394   0.592   3.958 -0.0022 -0.0658 -0.2572
 9069SOL    HW228107   1.426   0.596   4.118 -1.2662 -2.9488  0.1429
 9070SOL     OW28108   4.509   0.635   3.578  0.3796 -0.1777 -0.1392
 9070SOL    HW128109   4.437   0.577   3.539  0.1637  0.3415 -0.5255
 9070SOL    HW228110   4.489   0.651   3.674 -1.7993  2.5256 -0.9053
 9071SOL     OW28111   3.055   6.310   5.871 -0.2291 -0.1582  0.1973
 9071SOL    HW128112   2.984   6.375   5.901  1.0599  1.6120 -0.4112
 9071SOL    HW228113   3.013   6.241   5.812 -1.8661 -0.6507  1.8463
 9072SOL     OW28114   1.173   3.872   4.687 -0.4163  0.2210  0.1804
 9072SOL    HW128115   1.145   3.953   4.738 -0.0585  0.3720  0.1400
 9072SOL    HW228116   1.273   3.867   4.685 -0.4180 -1.0103  1.4391
 9073SOL     OW28117   6.186   4.658   2.229 -0.1681 -0.1349  0.3573
 9073SOL    HW128118   6.182   4.595   2.307  0.2462  1.0354  1.3479
 9073SOL    HW228119   6.270   4.641   2.177 -1.2010 -1.9994 -0.8143
 9074SOL     OW28120   2.851   0.238   4.543 -0.5554 -0.2264  0.1300
 9074SOL    HW128121   2.805   0.244   4.454 -3.0521 -1.9947  1.1525
 9074SOL    HW228122   2.786   0.261   4.615  0.3832 -2.0925  1.6577
 9075SOL     OW28123   6.944   5.553   1.682  0.1105  0.1197 -0.0522
 9075SOL    HW128124   6.973   5.625   1.619  1.1317 -1.7893 -1.8717
 9075SOL    HW228125   7.020   5.531   1.744  1.3858 -2.0838 -2.1827
 9076SOL     OW28126   2.113   3.172   3.192 -0.2801  0.0952  0.0851
 9076SOL    HW128127   2.185   3.109   3.164  0.1883  0.0685  1.2898
 9076SOL    HW228128   2.134   3.264   3.158 -0.1560 -0.0902 -0.3462
 9077SOL     OW28129   0.153   6.992   1.364 -0.4542 -0.3311 -0.3740
 9077SOL    HW128130   0.114   6.914   1.315 -0.5930 -1.3771  1.3206
 9077SOL    HW228131   0.080   7.047   1.404 -0.3475 -1.7187  1.9329
 9078SOL     OW28132   0.663   5.486   5.080  0.4710  0.2316  0.7447
 9078SOL    HW128133   0.626   5.401   5.119 -1.1164  1.9960  3.4425
 9078SOL    HW228134   0.762   5.479   5.073  0.3817 -1.8239  0.8804
 9079SOL     OW28135   4.769   7.001   5.581  0.1199  0.1151 -0.5084
 9079SOL    HW128136   4.714   6.952   5.513  1.5433 -1.2244 -0.7388
 9079SOL    HW228137   4.759   6.958   5.670  0.4925  0.0975 -0.4735
 9080SOL     OW28138   3.520   2.949   1.093 -0.3260 -0.4047  0.5643
 9080SOL    HW128139   3.519   2.930   0.995  1.3393 -0.5078  0.5391
 9080SOL    HW228140   3.613   2.940   1.128 -0.7122  0.6413  1.9618
 9081SOL     OW28141   0.115   6.742   2.979 -0.0659 -0.5972  0.2676
 9081SOL    HW128142   0.159   6.677   2.917  3.8700  2.5389 -0.6783
 9081SOL    HW228143   0.021   6.759   2.948 -0.4578 -3.8910 -0.7843
 9082SOL     OW28144   4.295   6.551   0.160  0.2674 -0.3301 -0.0320
 9082SOL    HW128145   4.226   6.522   0.225 -2.1202  0.4695 -2.0430
 9082SOL    HW228146   4.372   6.487   0.161 -1.0893 -2.0310  1.3467
 9083SOL     OW28147   4.547   0.147   2.013 -0.2286  0.3404  0.0453
 9083SOL    HW128148   4.596   0.162   1.927 -1.1795  0.7803 -0.4331
 9083SOL    HW228149   4.449   0.139   1.995 -0.2912 -1.3747  0.8843
 9084SOL     OW28150   3.388   4.090   2.862  0.2034 -0.2667 -0.6645
 9084SOL    HW128151   3.298   4.049   2.878  0.4169 -1.6870 -2.6205
 9084SOL    HW228152   3.399   4.106   2.764  1.8687  0.4349 -0.3897
 9085SOL     OW28153   2.149   5.489   5.243  0.2780  0.0886  0.6520
 9085SOL    HW128154   2.151   5.582   5.207 -0.4881  0.0408  0.4845
 9085SOL    HW228155   2.073   5.479   5.306 -1.3379 -1.1543 -1.3654
 9086SOL     OW28156   2.454   0.520   5.387  0.0224 -0.1426 -0.1621
 9086SOL    HW128157   2.430   0.430   5.422  0.9844  0.1094  1.2109
 9086SOL    HW228158   2.495   0.575   5.460  0.0538  1.1826 -1.1390
 9087SOL     OW28159   2.949   3.801   1.631  0.1170  0.4456  0.6535
 9087SOL    HW128160   3.024   3.804   1.697  0.4665 -0.4154  0.3029
 9087SOL    HW228161   2.873   3.748   1.668  0.3295 -0.0736  0.3535
 9088SOL     OW28162   1.778   5.238   3.529  0.8390  0.2976  0.3635
 9088SOL    HW128163   1.765   5.230   3.628  0.0905  1.3190  0.3724
 9088SOL    HW228164   1.841   5.313   3.509  1.0463  0.0466  0.0682
 9089SOL     OW28165   6.927   6.225   4.410  0.1977  0.2345 -0.5676
 9089SOL    HW128166   6.972   6.251   4.495  0.1505 -1.0643 -0.1241
 9089SOL    HW228167   6.834   6.262   4.409  0.1684  0.1849 -0.0088
 9090SOL     OW28168   0.265   4.158   4.888  0.6905  0.1915 -0.3844
 9090SOL    HW128169   0.236   4.215   4.810  1.0500 -0.5131 -1.0394
 9090SOL    HW228170   0.349   4.110   4.865  1.0503  0.3246  0.6183
 9091SOL     OW28171   1.930   4.113   5.444 -0.0245  0.0962  0.4537
 9091SOL    HW128172   1.967   4.020   5.454  1.6497  0.6136 -0.5284
 9091SOL    HW228173   1.997   4.179   5.479  0.1630  1.1018 -1.6626
 9092SOL     OW28174   0.688   3.954   3.991  0.0308 -0.1726 -0.2510
 9092SOL    HW128175   0.605   4.001   3.960 -0.1784  1.7258  2.7988
 9092SOL    HW228176   0.766   4.017   3.986  0.6176 -0.8628  0.0350
 9093SOL     OW28177   3.557   1.839   3.258 -0.0257 -0.0587 -0.8062
 9093SOL    HW128178   3.609   1.920   3.286 -0.4995  0.0670 -0.2594
 9093SOL    HW228179   3.523   1.852   3.165  0.3922  0.1200 -0.9372
 9094SOL     OW28180   6.759   2.840   3.894 -0.2005  0.2486  0.2021
 9094SOL    HW128181   6.689   2.885   3.950  0.3416  0.6815  0.5354
 9094SOL    HW228182   6.850   2.868   3.924  0.0987  0.9809 -1.2953
 9095SOL     OW28183   4.287   3.746   6.431  0.7007 -0.0601 -0.5638
 9095SOL    HW128184   4.383   3.735   6.456  0.1630 -0.7556  1.4338
 9095SOL    HW228185   4.255   3.662   6.387  0.8634 -0.0430 -0.7162
 9096SOL     OW28186   5.205   0.522   0.312 -0.5025  0.3087  0.3855
 9096SOL    HW128187   5.276   0.538   0.244  0.2673  2.4898  1.5871
 9096SOL    HW228188   5.239   0.458   0.381  0.0551  0.8145  0.5870
 9097SOL     OW28189   4.774   4.493   0.419  0.1752  0.0431  0.0799
 9097SOL    HW128190   4.760   4.544   0.334 -0.5417  0.9002  0.7000
 9097SOL    HW228191   4.726   4.405   0.413 -0.5238  0.4354 -0.0986
 9098SOL     OW28192   0.730   4.729   5.362  0.1938 -0.9576  0.4142
 9098SOL    HW128193   0.699   4.820   5.331  0.4534 -1.1534 -0.4565
 9098SOL    HW228194   0.669   4.659   5.326  0.2363 -1.1626  0.7387
 9099SOL     OW28195   3.791   4.685   1.699  0.6134 -0.1542  0.0866
 9099SOL    HW128196   3.697   4.657   1.716  1.0181 -1.6786 -0.0891
 9099SOL    HW228197   3.791   4.770   1.646 -0.6505  1.7781  2.9239
 9100SOL     OW28198   1.030   4.082   6.039  0.6640 -0.6102  0.0083
 9100SOL    HW128199   1.112   4.106   5.988 -0.0493  1.4005 -0.2717
 9100SOL    HW228200   0.959   4.049   5.977 -0.0600  1.4351 -0.3014
 9101SOL     OW28201   3.352   2.248   1.286 -0.1691  0.0876  0.7725
 9101SOL    HW128202   3.340   2.212   1.378  0.2976 -0.9677  0.4374
 9101SOL    HW228203   3.321   2.180   1.219 -1.3975  1.2014  0.1542
 9102SOL     OW28204   5.399   3.262   5.502 -0.4163  0.2863  0.6020
 9102SOL    HW128205   5.365   3.210   5.424 -1.1277 -1.0281  1.7430
 9102SOL    HW228206   5.363   3.223   5.587  1.0610  1.1148  1.6626
 9103SOL     OW28207   3.099   1.797   3.086  0.5719  0.0973 -0.1447
 9103SOL    HW128208   3.048   1.741   3.022 -1.7329 -0.7465  2.2338
 9103SOL    HW228209   3.110   1.889   3.049  0.2993 -0.6320 -2.1477
 9104SOL     OW28210   3.429   1.240   2.708 -0.1366  0.1777  0.1325
 9104SOL    HW128211   3.347   1.270   2.659  0.5054 -0.6206 -1.4832
 9104SOL    HW228212   3.506   1.297   2.682 -0.5103  2.4219  3.3340
 9105SOL     OW28213   6.895   6.023   3.388  0.1932 -0.5857 -0.0181
 9105SOL    HW128214   6.908   5.926   3.408 -0.7334 -1.4056 -2.8667
 9105SOL    HW228215   6.832   6.032   3.311  0.5871  2.2858 -0.0934
 9106SOL     OW28216   3.424   3.496   6.228 -0.0590  0.1188  0.5992
 9106SOL    HW128217   3.398   3.506   6.324 -0.4791  0.2574  0.4737
 9106SOL    HW228218   3.384   3.412   6.191  1.0448 -0.5368  0.8517
 9107SOL     OW28219   0.477   1.495   2.328  0.0853  0.1239 -0.2772
 9107SOL    HW128220   0.535   1.431   2.277  0.2882  0.5266 -0.5604
 9107SOL    HW228221   0.478   1.584   2.282 -0.5235  0.2142 -0.1150
 9108SOL     OW28222   6.971   5.186   5.125  0.0845  0.1799 -0.3229
 9108SOL    HW128223   7.023   5.102   5.110 -1.4833 -0.8767 -0.1369
 9108SOL    HW228224   6.955   5.231   5.038  0.1562 -0.2074 -0.5395
 9109SOL     OW28225   0.293   4.047   5.787 -0.0798  0.3785 -0.3778
 9109SOL    HW128226   0.208   4.042   5.735  0.4512 -1.2099 -1.1602
 9109SOL    HW228227   0.298   3.970   5.851  0.2583  1.0999  0.4879
 9110SOL     OW28228   3.469   1.308   3.335 -0.2502  0.2665  0.1213
 9110SOL    HW128229   3.427   1.240   3.276  1.2549 -1.5105  1.0119
 9110SOL    HW228230   3.464   1.398   3.291 -0.7002 -0.6942 -1.8903
 9111SOL     OW28231   0.285   2.215   2.711  0.3182  0.4666 -0.2828
 9111SOL    HW128232   0.196   2.254   2.688  0.2358 -0.4757 -1.6889
 9111SOL    HW228233   0.273   2.122   2.746  0.8278 -0.4410 -2.3808
 9112SOL     OW28234   3.474   6.914   1.035  0.2076  0.2553  0.2398
 9112SOL    HW128235   3.518   6.851   1.098 -1.0216  0.2971  1.1841
 9112SOL    HW228236   3.406   6.864   0.980  1.2197  0.2298 -1.0300
 9113SOL     OW28237   0.970   5.865   3.191 -0.3976  0.0508 -0.0367
 9113SOL    HW128238   1.027   5.897   3.116 -0.1791 -2.4677 -1.0602
 9113SOL    HW228239   1.021   5.873   3.277  1.5779 -1.9786 -0.8942
 9114SOL     OW28240   0.063   2.713   0.527  0.2509  0.3253 -0.2968
 9114SOL    HW128241   0.019   2.627   0.550  1.9915 -0.5408  0.0053
 9114SOL    HW228242   0.001   2.770   0.473 -1.4608 -0.4666  0.7782
 9115SOL     OW28243   3.374   6.725   5.959 -0.1673 -0.1651  0.0771
 9115SOL    HW128244   3.467   6.759   5.942  0.8264 -1.9777  1.5301
 9115SOL    HW228245   3.309   6.800   5.947  1.7606  2.0129  2.1758
 9116SOL     OW28246   5.370   6.512   1.816 -0.1840  0.2503 -0.2503
 9116SOL    HW128247   5.361   6.413   1.809  0.8333  0.2074 -1.2316
 9116SOL    HW228248   5.321   6.556   1.741 -2.2408  0.6230  1.2327
 9117SOL     OW28249   2.046   2.276   1.637  0.0573 -0.0701 -0.4408
 9117SOL    HW128250   2.005   2.187   1.619  1.0071 -0.2256 -2.0335
 9117SOL    HW228251   2.125   2.289   1.577  0.0371  1.7867 -0.1315
 9118SOL     OW28252   1.060   0.597   4.667 -0.2222  0.2722 -0.3480
 9118SOL    HW128253   1.088   0.532   4.738  0.2559  0.6406 -0.1905
 9118SOL    HW228254   1.038   0.685   4.708  2.5196  1.2932 -0.8159
 9119SOL     OW28255   1.561   2.157   4.443  0.2281  0.1300  0.3141
 9119SOL    HW128256   1.498   2.195   4.375 -0.6379 -2.2794 -0.3297
 9119SOL    HW228257   1.615   2.085   4.401  0.6051 -0.5215  1.8714
 9120SOL     OW28258   4.490   5.029   6.632 -0.2944 -0.3396  0.2647
 9120SOL    HW128259   4.544   5.107   6.600  2.5792 -2.2353  0.1062
 9120SOL    HW228260   4.437   5.057   6.712 -2.4493  2.7151 -1.9971
 9121SOL     OW28261   4.069   0.724   2.953  0.4505  0.3960 -0.2431
 9121SOL    HW128262   4.010   0.648   2.981  0.0632  0.7191 -0.1796
 9121SOL    HW228263   4.156   0.688   2.919  1.0607 -0.0185  1.6187
 9122SOL     OW28264   4.903   2.746   5.213 -0.1154 -0.1035 -0.3625
 9122SOL    HW128265   4.821   2.750   5.269 -0.1924 -2.8443 -0.1767
 9122SOL    HW228266   4.884   2.783   5.122 -0.6836  1.9853  0.5351
 9123SOL     OW28267   4.957   5.704   4.598  0.7082 -0.1167  0.4072
 9123SOL    HW128268   4.922   5.759   4.674 -1.6919 -0.6847 -0.1959
 9123SOL    HW228269   4.956   5.760   4.514  0.7833 -0.2856  0.2944
 9124SOL     OW28270   5.327   4.585   2.071  0.1463  0.6977  0.1750
 9124SOL    HW128271   5.290   4.678   2.062  1.1083  1.2259  1.3497
 9124SOL    HW228272   5.423   4.590   2.100  0.5185 -0.6601 -0.7365
 9125SOL     OW28273   1.600   1.933   1.929  0.8438 -0.3082 -0.0506
 9125SOL    HW128274   1.642   1.973   1.848  1.3604 -1.5197 -0.4061
 9125SOL    HW228275   1.524   1.990   1.959  1.1273  0.5584 -0.9312
 9126SOL     OW28276   5.277   3.803   0.406  0.1068 -0.7480  0.2604
 9126SOL    HW128277   5.313   3.719   0.367 -0.6592 -1.2041  0.5277
 9126SOL    HW228278   5.277   3.875   0.336  0.8411 -0.9325  0.0562
 9127SOL     OW28279   0.165   5.242   5.908  0.0902  0.2632  0.9026
 9127SOL    HW128280   0.226   5.188   5.851  2.5889  3.3856  0.3085
 9127SOL    HW228281   0.205   5.255   5.998 -0.3748  1.1965  0.9936
 9128SOL     OW28282   4.710   1.639   1.794  0.9232 -0.4801  0.0251
 9128SOL    HW128283   4.623   1.628   1.744  0.4554 -0.2033  0.7668
 9128SOL    HW228284   4.775   1.687   1.736 -0.4476  2.2112  0.5616
 9129SOL     OW28285   6.793   5.565   1.954 -0.1438 -0.4967 -0.0742
 9129SOL    HW128286   6.850   5.587   1.875 -1.7715  2.6303 -0.4999
 9129SOL    HW228287   6.713   5.625   1.957 -0.8575 -1.3687  3.2243
 9130SOL     OW28288   3.098   1.297   3.573 -0.6539  0.4638 -0.1057
 9130SOL    HW128289   3.149   1.351   3.506  1.0231  0.1524  0.8606
 9130SOL    HW228290   3.162   1.251   3.635 -2.0362 -1.8481 -0.2570
 9131SOL     OW28291   3.749   3.197   5.242 -0.0873  0.1784 -0.3205
 9131SOL    HW128292   3.804   3.128   5.197  1.0173  1.1798 -0.5591
 9131SOL    HW228293   3.717   3.264   5.175  1.0430  1.3331  0.2456
 9132SOL     OW28294   5.347   2.974   3.771 -0.1682 -0.0523 -0.0247
 9132SOL    HW128295   5.382   3.067   3.786  0.4763 -0.1685 -0.7550
 9132SOL    HW228296   5.308   2.968   3.680 -0.1411 -0.5183 -0.0065
 9133SOL     OW28297   6.863   3.763   2.389 -0.4337  0.0623 -0.3475
 9133SOL    HW128298   6.893   3.856   2.409  2.8513 -0.4574 -2.2312
 9133SOL    HW228299   6.784   3.767   2.327  0.4289  1.6241 -1.4267
 9134SOL     OW28300   0.662   6.498   1.634 -0.0984 -0.2905 -0.6364
 9134SOL    HW128301   0.625   6.541   1.716  0.0340 -0.1918 -0.6294
 9134SOL    HW228302   0.713   6.416   1.660  1.5276  0.7372 -0.4344
 9135SOL     OW28303   1.245   2.790   5.412  0.6518 -0.1639  0.5764
 9135SOL    HW128304   1.159   2.774   5.462  0.4399 -3.6931 -0.6485
 9135SOL    HW228305   1.224   2.822   5.320  0.7137  0.1033  0.6551
 9136SOL     OW28306   0.845   3.852   1.679  0.1419  0.5299 -0.3796
 9136SOL    HW128307   0.910   3.853   1.604 -0.2858  0.5201 -0.7504
 9136SOL    HW228308   0.849   3.939   1.728  0.8002  0.3385 -0.0774
 9137SOL     OW28309   3.668   1.387   1.697  0.4766  0.7648  0.2775
 9137SOL    HW128310   3.752   1.440   1.684 -0.0780  1.2034 -1.9341
 9137SOL    HW228311   3.626   1.369   1.609 -0.7315 -1.1970  1.1785
 9138SOL     OW28312   3.144   6.435   2.928 -0.1467 -0.0120 -0.2115
 9138SOL    HW128313   3.051   6.410   2.904 -0.1276 -0.3093  0.0109
 9138SOL    HW228314   3.144   6.523   2.977 -0.5168 -0.8625  1.3980
 9139SOL     OW28315   1.237   1.622   1.038  0.1499 -0.0382 -0.6537
 9139SOL    HW128316   1.171   1.643   0.966 -0.8248 -0.8623 -0.0466
 9139SOL    HW228317   1.193   1.563   1.106  1.0848  0.5943  0.5333
 9140SOL     OW28318   6.083   0.690   4.167  0.4022  0.0631  0.0311
 9140SOL    HW128319   6.046   0.734   4.085 -0.8069  1.4442  1.2726
 9140SOL    HW228320   6.023   0.615   4.195 -0.5411  1.1597  1.0223
 9141SOL     OW28321   0.851   6.685   1.573 -0.2329 -0.2029  0.4561
 9141SOL    HW128322   0.771   6.629   1.590  0.2203 -0.7434  0.8601
 9141SOL    HW228323   0.902   6.697   1.658  2.1073 -2.9993 -0.3860
 9142SOL     OW28324   2.211   6.382   4.784 -0.0157 -0.4128 -0.2042
 9142SOL    HW128325   2.179   6.421   4.870  2.5348  0.3557  0.4921
 9142SOL    HW228326   2.282   6.314   4.804 -1.2076 -2.1532 -1.6239
 9143SOL     OW28327   2.323   0.274   5.469 -0.2910 -0.2333  0.3538
 9143SOL    HW128328   2.226   0.298   5.480 -0.5809 -1.6582  1.1198
 9143SOL    HW228329   2.340   0.184   5.509  1.2249 -0.3065 -0.3833
 9144SOL     OW28330   1.580   4.001   5.618 -0.3127 -0.4035  0.7628
 9144SOL    HW128331   1.651   3.931   5.605  0.3667  0.0839  1.7114
 9144SOL    HW228332   1.491   3.957   5.622  0.0198 -1.1283  0.4828
 9145SOL     OW28333   3.236   5.448   1.222 -0.0224 -0.1823  0.3671
 9145SOL    HW128334   3.271   5.387   1.152 -1.3815  1.1482 -1.5977
 9145SOL    HW228335   3.136   5.451   1.217 -0.1964 -0.3020  2.6335
 9146SOL     OW28336   2.008   1.116   0.367  0.1145 -0.1603 -0.2111
 9146SOL    HW128337   2.090   1.155   0.326  0.4267 -2.5723 -2.0857
 9146SOL    HW228338   1.928   1.171   0.343  0.7306  0.2374 -1.3697
 9147SOL     OW28339   5.768   6.930   1.756  0.0628 -0.5640 -0.0757
 9147SOL    HW128340   5.729   7.011   1.801  1.0439  0.4672 -1.0153
 9147SOL    HW228341   5.825   6.880   1.821 -1.8966 -1.5014  1.0108
 9148SOL     OW28342   3.925   3.057   5.054 -0.3603 -0.5738 -0.2175
 9148SOL    HW128343   3.948   2.999   4.975 -2.8955 -1.2960 -0.4898
 9148SOL    HW228344   3.960   3.150   5.038  0.8931 -1.1891 -1.2564
 9149SOL     OW28345   2.542   5.798   5.635 -0.3435 -0.2713 -0.0270
 9149SOL    HW128346   2.620   5.780   5.574  0.0236  0.9210  0.0544
 9149SOL    HW228347   2.522   5.896   5.636  0.2448 -0.0866  2.4319
 9150SOL     OW28348   5.894   1.766   6.303 -0.5113 -1.0287 -0.5226
 9150SOL    HW128349   5.875   1.711   6.385 -0.0384 -0.2991  0.0937
 9150SOL    HW228350   5.821   1.832   6.290  0.5177  0.4117  0.6740
 9151SOL     OW28351   4.879   6.327   5.937  0.1059  0.5900 -0.0724
 9151SOL    HW128352   4.812   6.401   5.934  1.5523  1.9457 -0.4069
 9151SOL    HW228353   4.904   6.300   5.844 -0.6002 -0.5116  0.0492
 9152SOL     OW28354   6.120   1.112   1.470  0.4309  0.4156  0.4373
 9152SOL    HW128355   6.125   1.189   1.534  0.0788 -0.0070  0.9781
 9152SOL    HW228356   6.194   1.119   1.404 -0.0381  1.6490  0.0009
 9153SOL     OW28357   4.887   5.142   1.556  0.4772  0.0462 -0.4456
 9153SOL    HW128358   4.853   5.105   1.643  2.4514  0.6967  0.6642
 9153SOL    HW228359   4.828   5.216   1.526 -1.1369 -1.2081 -0.5250
 9154SOL     OW28360   4.360   6.135   2.491 -0.7658 -0.1751  0.6703
 9154SOL    HW128361   4.353   6.081   2.575 -0.3086  1.5438  1.8603
 9154SOL    HW228362   4.345   6.232   2.512 -0.6604  0.2983 -1.2444
 9155SOL     OW28363   2.166   5.553   1.763  0.2368  0.1446 -0.0204
 9155SOL    HW128364   2.133   5.462   1.741  0.5332 -0.3473  1.4827
 9155SOL    HW228365   2.088   5.615   1.774  0.0378  0.1112 -1.0924
 9156SOL     OW28366   5.307   6.508   5.322 -0.8718  0.1067 -0.0876
 9156SOL    HW128367   5.305   6.420   5.274 -0.8913 -0.1337  0.3544
 9156SOL    HW228368   5.214   6.535   5.345 -1.0544  1.1026 -1.7708
 9157SOL     OW28369   5.742   0.147   1.176 -0.1141  0.3852 -0.1702
 9157SOL    HW128370   5.688   0.120   1.096 -0.4754 -1.7723  0.7398
 9157SOL    HW228371   5.696   0.222   1.223 -1.1424  0.0725 -0.6481
 9158SOL     OW28372   2.992   3.494   2.200  0.1868  0.0598  0.1572
 9158SOL    HW128373   2.999   3.438   2.283  0.5022 -1.4959 -0.8591
 9158SOL    HW228374   3.063   3.564   2.201 -0.0779  0.3281  1.3840
 9159SOL     OW28375   3.206   2.911   0.388  0.4062  0.3934 -0.4496
 9159SOL    HW128376   3.131   2.938   0.328  0.0897 -0.8902 -0.6698
 9159SOL    HW228377   3.228   2.986   0.450 -1.0624  0.7989 -0.3769
 9160SOL     OW28378   1.403   3.371   0.955 -0.1747 -0.0356 -0.4999
 9160SOL    HW128379   1.402   3.405   1.049 -0.2476 -0.7480 -0.2376
 9160SOL    HW228380   1.369   3.442   0.893 -0.4469  0.3190  0.0525
 9161SOL     OW28381   6.079   6.824   4.840 -0.0614  0.1080  0.3764
 9161SOL    HW128382   6.163   6.792   4.885 -0.1681  1.0452  1.2698
 9161SOL    HW228383   6.083   6.923   4.830 -0.8133  0.0901 -0.1061
 9162SOL     OW28384   0.812   5.338   5.350 -0.4804  0.5057 -0.1678
 9162SOL    HW128385   0.882   5.346   5.421  0.9248  0.1634 -1.4755
 9162SOL    HW228386   0.832   5.402   5.276 -1.3194  0.0870 -0.7701
 9163SOL     OW28387   2.467   4.544   5.045  0.5074  0.3467  0.0728
 9163SOL    HW128388   2.485   4.474   4.976  0.7295  0.1945  0.2831
 9163SOL    HW228389   2.527   4.529   5.124  0.2528  0.5151  0.3012
 9164SOL     OW28390   6.022   2.309   4.845 -0.2475  0.3507 -0.3204
 9164SOL    HW128391   6.067   2.363   4.773 -0.0588  0.0042 -0.4641
 9164SOL    HW228392   6.007   2.216   4.812  0.0982  0.1141  0.1908
 9165SOL     OW28393   6.626   2.022   2.504 -0.2793 -0.3013  0.1088
 9165SOL    HW128394   6.678   2.030   2.588 -1.2918 -1.3329  0.8653
 9165SOL    HW228395   6.684   1.984   2.432  0.0304 -1.4329  0.9277
 9166SOL     OW28396   3.813   4.917   1.190  0.1888 -0.6000  0.3136
 9166SOL    HW128397   3.841   4.833   1.144 -0.1507  0.6761 -2.3804
 9166SOL    HW228398   3.713   4.921   1.194  0.1407  0.4727 -1.2552
 9167SOL     OW28399   3.574   0.145   6.676  0.3707  0.1176 -0.1516
 9167SOL    HW128400   3.611   0.120   6.766 -0.7385  1.6010  0.7609
 9167SOL    HW228401   3.564   0.062   6.621  1.8485 -0.7312  0.7633
 9168SOL     OW28402   6.636   0.370   1.179 -0.2298  0.1356 -0.4011
 9168SOL    HW128403   6.629   0.469   1.193 -3.0773 -0.2511  1.9014
 9168SOL    HW228404   6.721   0.336   1.218 -1.2043  1.2054  2.9315
 9169SOL     OW28405   2.110   4.052   2.819  0.0553  0.7311  0.1050
 9169SOL    HW128406   2.122   4.002   2.905  0.3179  1.1864  0.3353
 9169SOL    HW228407   2.079   4.145   2.839 -0.5106  0.6342 -0.3249
 9170SOL     OW28408   5.582   5.685   3.496 -0.1093 -0.0428  0.3626
 9170SOL    HW128409   5.625   5.609   3.545  0.0175  0.0509  0.3964
 9170SOL    HW228410   5.485   5.689   3.518  0.1507  0.6589  1.4447
 9171SOL     OW28411   3.795   6.967   5.091 -0.1154 -0.1562  0.1841
 9171SOL    HW128412   3.717   6.946   5.032  1.3611  0.2039 -2.0179
 9171SOL    HW228413   3.810   7.066   5.093  1.7986 -0.3622 -1.5607
 9172SOL     OW28414   2.111   5.485   2.328  0.1471  0.0647  0.3552
 9172SOL    HW128415   2.159   5.451   2.247 -0.1229 -0.6118  0.4696
 9172SOL    HW228416   2.050   5.560   2.301  0.6770  0.4084  0.0817
 9173SOL     OW28417   4.476   4.030   5.338  0.1645 -0.5130  0.1757
 9173SOL    HW128418   4.535   3.958   5.375  0.2674  0.3049  1.6875
 9173SOL    HW228419   4.381   4.004   5.350  0.2025 -0.4568  0.6366
 9174SOL     OW28420   6.159   3.907   4.347  0.0988  0.2420 -0.5696
 9174SOL    HW128421   6.104   3.885   4.266  1.5967 -0.8435 -1.3338
 9174SOL    HW228422   6.110   3.876   4.429 -0.9446  0.3468 -1.1292
 9175SOL     OW28423   4.584   5.999   0.986 -0.2861  0.2385  0.1758
 9175SOL    HW128424   4.522   5.921   0.984 -1.3385  1.0506  0.2100
 9175SOL    HW228425   4.590   6.035   1.079  0.3360  0.1026  0.1960
 9176SOL     OW28426   1.404   6.947   2.890  0.3156  0.3062  0.1125
 9176SOL    HW128427   1.492   6.902   2.870  2.3945  3.3536  1.5425
 9176SOL    HW228428   1.391   7.024   2.828  0.3458  1.8491  1.9333
 9177SOL     OW28429   0.895   6.164   0.015 -0.2091 -0.4587  0.3172
 9177SOL    HW128430   0.896   6.207  -0.075  0.7979  1.3331  1.1370
 9177SOL    HW228431   0.870   6.067   0.006  2.7881 -1.1456 -2.2357
 9178SOL     OW28432   1.341   4.762   6.855 -0.1940 -0.1122 -0.1359
 9178SOL    HW128433   1.391   4.800   6.777 -0.8087 -1.0264 -0.9905
 9178SOL    HW228434   1.329   4.834   6.923 -0.8234  1.0998 -1.4581
 9179SOL     OW28435   0.614   3.360   6.986 -0.7587 -0.2408 -0.6465
 9179SOL    HW128436   0.676   3.335   7.060  1.2950  1.4068 -1.6961
 9179SOL    HW228437   0.521   3.330   7.008  0.2257 -2.0420  1.3850
 9180SOL     OW28438   2.562   0.988   0.008 -0.0064 -0.5292 -0.0112
 9180SOL    HW128439   2.565   1.047   0.088  1.0183  1.5594 -1.4891
 9180SOL    HW228440   2.649   0.993  -0.041 -0.5276 -1.8956 -1.1438
 9181SOL     OW28441   0.903   4.609   2.345 -0.1696 -0.8494  0.5793
 9181SOL    HW128442   0.877   4.668   2.268  1.8476 -0.0321  0.4737
 9181SOL    HW228443   0.875   4.515   2.326  0.6191 -0.7334 -1.3442
 9182SOL     OW28444   6.632   1.397   3.870 -0.8016  0.1859 -0.0304
 9182SOL    HW128445   6.544   1.398   3.917 -0.2469  1.1861  1.0145
 9182SOL    HW228446   6.706   1.385   3.936  0.0016  1.7124 -0.6003
 9183SOL     OW28447   1.686   4.819   5.614 -0.1923 -0.3574  0.4377
 9183SOL    HW128448   1.663   4.722   5.615  2.7827 -1.1956 -1.0831
 9183SOL    HW228449   1.696   4.851   5.520  2.1600  0.4913  0.9025
 9184SOL     OW28450   5.721   4.956   0.610  0.0491 -0.6498 -0.4245
 9184SOL    HW128451   5.648   4.947   0.542 -1.4420 -2.0845  1.2616
 9184SOL    HW228452   5.680   4.961   0.701  2.0728 -1.1611  0.5564
 9185SOL     OW28453   0.010   5.291   6.213 -0.6735 -0.4061 -0.1454
 9185SOL    HW128454   0.024   5.193   6.222 -1.1433 -0.4161  0.5579
 9185SOL    HW228455  -0.077   5.317   6.255  0.8806  0.7642  2.6503
 9186SOL     OW28456   6.397   2.972   2.066  0.4283  0.1250  0.5030
 9186SOL    HW128457   6.323   3.040   2.072 -0.3870 -0.7858  1.1736
 9186SOL    HW228458   6.363   2.890   2.020  1.4076  0.1622 -0.3119
 9187SOL     OW28459   3.838   2.763   5.401 -0.2782 -0.0357 -0.1748
 9187SOL    HW128460   3.911   2.695   5.406 -2.8406 -3.0295 -0.1765
 9187SOL    HW228461   3.829   2.794   5.306  0.3039 -0.4603 -0.3770
 9188SOL     OW28462   3.624   4.602   5.605  0.3533  0.6643  0.3724
 9188SOL    HW128463   3.674   4.558   5.530 -0.1936  0.0433  0.3701
 9188SOL    HW228464   3.528   4.613   5.579  0.0205 -0.1401  1.2238
 9189SOL     OW28465   4.216   5.849   5.549  0.4490 -0.2696 -0.4795
 9189SOL    HW128466   4.133   5.794   5.563  0.9532 -0.9568 -0.1529
 9189SOL    HW228467   4.203   5.939   5.589  0.1253 -0.6255  0.2422
 9190SOL     OW28468   6.092   5.931   4.376 -0.5898  0.1450  0.2166
 9190SOL    HW128469   6.048   6.017   4.399 -0.6218 -0.3930  2.4035
 9190SOL    HW228470   6.046   5.856   4.422 -0.1260 -0.9888 -1.0758
 9191SOL     OW28471   0.629   4.192   1.553 -0.3941 -0.4722  0.0640
 9191SOL    HW128472   0.557   4.182   1.484 -2.2984  1.7650  1.5685
 9191SOL    HW228473   0.623   4.283   1.594  2.2956 -0.8095  1.4440
 9192SOL     OW28474   5.452   3.152   4.405  0.4308 -0.1042  0.2337
 9192SOL    HW128475   5.510   3.131   4.484 -0.1145 -1.4455  0.2966
 9192SOL    HW228476   5.480   3.239   4.365  0.0048  1.1877  2.5906
 9193SOL     OW28477   5.859   6.126   1.033 -0.1457 -0.1155 -0.4077
 9193SOL    HW128478   5.939   6.176   0.999 -0.6673  0.8777 -0.2097
 9193SOL    HW228479   5.853   6.038   0.987  1.1700 -0.2948 -0.2951
 9194SOL     OW28480   1.635   4.194   1.145  0.7690 -0.2186 -0.2948
 9194SOL    HW128481   1.661   4.224   1.053  1.7629  1.0418  0.3688
 9194SOL    HW228482   1.620   4.274   1.203  0.2869 -1.0041  0.6819
 9195SOL     OW28483   2.969   4.771   2.196 -0.3729 -0.6065  0.4842
 9195SOL    HW128484   2.893   4.729   2.146  0.9594 -0.9048 -1.3984
 9195SOL    HW228485   3.056   4.734   2.161  0.6803  0.4824  1.8531
 9196SOL     OW28486   1.718   6.372   6.790 -0.9700 -0.6289 -0.2191
 9196SOL    HW128487   1.757   6.386   6.699 -1.8329 -1.3019 -0.7073
 9196SOL    HW228488   1.769   6.426   6.857  1.4644 -2.2778 -0.6405
 9197SOL     OW28489   6.161   5.334   5.520 -0.2707  0.2151  0.6715
 9197SOL    HW128490   6.249   5.376   5.542 -0.7978  1.0334  1.3053
 9197SOL    HW228491   6.087   5.392   5.554 -1.0665 -0.3362 -0.0668
 9198SOL     OW28492   0.595   4.907   4.846  0.5633  0.0086 -0.6535
 9198SOL    HW128493   0.558   4.821   4.810 -3.6410  0.8010  1.2227
 9198SOL    HW228494   0.577   4.981   4.781 -1.6395  0.4292  0.3430
 9199SOL     OW28495   2.246   2.460   4.520 -0.2695  0.6599 -0.0799
 9199SOL    HW128496   2.164   2.509   4.491  0.2430  0.9707 -1.0497
 9199SOL    HW228497   2.325   2.521   4.514  0.1841  0.0791 -0.0849
 9200SOL     OW28498   6.841   6.532   4.681  0.3039 -0.0567 -0.2139
 9200SOL    HW128499   6.876   6.439   4.674  2.3110  0.6069  0.2354
 9200SOL    HW228500   6.791   6.555   4.597 -1.0198 -1.8042  0.0470
 9201SOL     OW28501   1.596   0.822   6.094 -0.2135 -0.0947  0.0123
 9201SOL    HW128502   1.678   0.780   6.054 -0.3810  0.6679 -1.1694
 9201SOL    HW228503   1.520   0.817   6.029 -1.0345 -0.4993  0.9695
 9202SOL     OW28504   5.475   2.125   0.135  0.4469  1.1396 -0.2988
 9202SOL    HW128505   5.397   2.133   0.074  0.8348 -0.2138 -1.0268
 9202SOL    HW228506   5.469   2.193   0.208 -1.6193  0.7772 -0.0882
 9203SOL     OW28507   1.811   2.037   2.868 -0.1122 -0.1707  0.3846
 9203SOL    HW128508   1.857   2.118   2.905 -0.2529  0.0389  0.1086
 9203SOL    HW228509   1.745   2.003   2.934 -1.1023  0.8158 -0.0535
 9204SOL     OW28510   4.375   2.454   2.571 -0.1891 -0.0289 -0.9119
 9204SOL    HW128511   4.307   2.390   2.537 -0.0767 -0.0357 -1.1260
 9204SOL    HW228512   4.390   2.525   2.502  0.7780 -0.6005 -1.3003
 9205SOL     OW28513   3.704   0.623   5.357 -0.3598 -0.0345  1.0088
 9205SOL    HW128514   3.778   0.576   5.310  0.5264  1.9830  0.3038
 9205SOL    HW228515   3.646   0.670   5.291 -1.6803 -0.7086  1.6344
 9206SOL     OW28516   4.497   3.435   6.188  0.4734  0.0103  0.1979
 9206SOL    HW128517   4.428   3.507   6.183  0.0537 -0.4837 -1.8788
 9206SOL    HW228518   4.569   3.463   6.251  0.4308  2.3339 -0.6915
 9207SOL     OW28519   3.022   5.159   0.668 -0.1429 -0.2280  0.2015
 9207SOL    HW128520   3.052   5.208   0.750  1.9968 -0.9421 -0.0762
 9207SOL    HW228521   3.036   5.216   0.587  0.2808 -0.4749  0.0941
 9208SOL     OW28522   0.862   4.694   3.248 -0.3008  0.0260  0.4154
 9208SOL    HW128523   0.813   4.655   3.325  0.4603  0.2883  1.0517
 9208SOL    HW228524   0.950   4.647   3.237 -0.1945  0.3072  0.0184
 9209SOL     OW28525   0.694   2.384   3.007 -0.8804 -0.2483  0.2185
 9209SOL    HW128526   0.665   2.453   2.941 -0.5495  0.5031  0.8467
 9209SOL    HW228527   0.756   2.319   2.963  0.5946  1.1487  0.1652
 9210SOL     OW28528   4.158   0.963   4.989 -0.2993  0.0463  0.0106
 9210SOL    HW128529   4.061   0.952   5.011 -0.2161  0.3699  0.5412
 9210SOL    HW228530   4.177   0.920   4.900 -0.7736 -0.6623  0.2478
 9211SOL     OW28531   5.701   5.891   2.134  0.3240 -0.4033 -0.0685
 9211SOL    HW128532   5.687   5.882   2.035 -1.2353 -1.5694  0.2140
 9211SOL    HW228533   5.657   5.814   2.180 -0.1418  0.8388  1.6232
 9212SOL     OW28534   2.375   2.729   3.602  0.2017  0.1566 -0.4750
 9212SOL    HW128535   2.443   2.792   3.639 -0.3035  0.2318  0.3447
 9212SOL    HW228536   2.421   2.657   3.550  0.8233  0.8652 -0.9405
 9213SOL     OW28537   1.224   1.080   3.047  1.1087  0.0556  0.6763
 9213SOL    HW128538   1.152   1.090   2.978  1.5940  2.4970  0.4128
 9213SOL    HW228539   1.301   1.030   3.009  0.9898  0.5748 -0.2649
 9214SOL     OW28540   5.878   6.683   2.077 -0.1107  0.2433 -0.5612
 9214SOL    HW128541   5.841   6.613   2.138  1.7697  0.6150  1.1130
 9214SOL    HW228542   5.945   6.643   2.015  0.0995  0.3539 -0.4075
 9215SOL     OW28543   0.084   3.365   1.155  0.1027  0.7852 -0.2758
 9215SOL    HW128544  -0.005   3.410   1.161 -0.5150 -0.3712 -0.5442
 9215SOL    HW228545   0.090   3.294   1.224  1.0458  1.1998  0.0974
 9216SOL     OW28546   4.504   5.810   1.898 -0.3832 -0.2802  0.5703
 9216SOL    HW128547   4.526   5.880   1.965 -2.0785  1.0212 -0.1477
 9216SOL    HW228548   4.539   5.838   1.808 -0.7570 -0.5136  0.3483
 9217SOL     OW28549   4.254   4.039   1.350  0.1313  0.1006  0.0285
 9217SOL    HW128550   4.182   3.986   1.395 -0.6473  0.0765 -1.1931
 9217SOL    HW228551   4.302   3.981   1.284 -0.5188  0.8013 -1.0947
 9218SOL     OW28552   5.877   4.750   0.666  0.2797  0.6979  0.1678
 9218SOL    HW128553   5.830   4.836   0.648  0.6811  1.3173  1.9438
 9218SOL    HW228554   5.885   4.735   0.764  2.6234 -0.0231 -0.0743
 9219SOL     OW28555   6.916   2.715   5.257 -0.8137  0.4211 -0.2483
 9219SOL    HW128556   6.913   2.813   5.280  0.0596  0.2800  0.5626
 9219SOL    HW228557   6.873   2.662   5.330  0.0168  0.1143  0.0387
 9220SOL     OW28558   0.148   3.107   2.744  0.5727  0.0529  0.0396
 9220SOL    HW128559   0.051   3.098   2.724  0.3674 -0.7357  1.2669
 9220SOL    HW228560   0.196   3.025   2.712  0.6872  0.0499  0.2169
 9221SOL     OW28561   4.169   5.592   4.147 -0.3566  0.1721  0.3098
 9221SOL    HW128562   4.078   5.554   4.159 -0.4585  0.2645 -0.1556
 9221SOL    HW228563   4.204   5.625   4.235 -0.0891 -1.3909  0.8180
 9222SOL     OW28564   6.406   2.816   1.507  0.1605  0.4492  0.3939
 9222SOL    HW128565   6.442   2.880   1.574  0.1590  2.1695 -1.1751
 9222SOL    HW228566   6.421   2.852   1.415 -2.5686 -0.3182 -0.4480
 9223SOL     OW28567   3.939   5.879   0.198 -0.1257 -0.1343 -0.4789
 9223SOL    HW128568   3.897   5.926   0.120  0.7859  0.4212 -0.6485
 9223SOL    HW228569   4.002   5.809   0.165 -0.6770 -0.7488 -0.2302
 9224SOL     OW28570   2.650   6.526   3.968 -0.3094 -0.3644  0.2725
 9224SOL    HW128571   2.698   6.467   4.033  1.5403 -0.6367 -1.2780
 9224SOL    HW228572   2.557   6.541   4.000 -0.0057 -1.9446  2.0605
 9225SOL     OW28573   5.919   6.577   5.301 -0.4221 -0.2912  0.3448
 9225SOL    HW128574   5.996   6.604   5.243 -0.1949  1.2504  1.3086
 9225SOL    HW228575   5.876   6.495   5.264  1.1456 -0.6728 -0.6947
 9226SOL     OW28576   4.815   1.100   5.447  0.0921  0.4278  0.6659
 9226SOL    HW128577   4.888   1.158   5.483 -0.2742  1.3705 -0.0606
 9226SOL    HW228578   4.849   1.006   5.437  1.2010  0.8485  0.3196
 9227SOL     OW28579   3.524   0.091   3.335 -0.3529 -0.1823 -0.3638
 9227SOL    HW128580   3.476   0.090   3.423 -0.6161 -0.4678 -0.5086
 9227SOL    HW228581   3.480   0.158   3.275 -0.7322 -0.6194 -0.5817
 9228SOL     OW28582   0.752   3.354   5.579 -0.1386 -0.3349 -0.3079
 9228SOL    HW128583   0.806   3.402   5.509  0.1853 -0.5549 -0.2141
 9228SOL    HW228584   0.661   3.394   5.585  0.2013  0.4254 -0.0733
 9229SOL     OW28585   1.641   4.867   4.152 -0.2101 -0.0110 -0.6822
 9229SOL    HW128586   1.606   4.960   4.142  1.2110  0.5479 -0.6364
 9229SOL    HW228587   1.652   4.846   4.249  3.0256  1.2179 -0.6628
 9230SOL     OW28588   2.395   1.652   5.765  0.5699 -0.3539  0.0895
 9230SOL    HW128589   2.385   1.571   5.823  0.8669 -0.5210 -0.0889
 9230SOL    HW228590   2.335   1.643   5.686 -0.8443  0.4862  1.0245
 9231SOL     OW28591   3.731   6.256   0.226  0.4286  0.2266  0.0988
 9231SOL    HW128592   3.760   6.300   0.311  1.0248 -0.3542  0.1985
 9231SOL    HW228593   3.631   6.243   0.228  0.4818 -0.1237  0.8686
 9232SOL     OW28594   1.106   3.426   4.832 -0.0602  0.2795  0.0222
 9232SOL    HW128595   1.073   3.506   4.781 -1.4327 -0.3466 -0.1007
 9232SOL    HW228596   1.123   3.351   4.768 -2.4040 -0.7174  0.4826
 9233SOL     OW28597   4.749   5.523   5.711  0.1510 -0.2357  0.5043
 9233SOL    HW128598   4.710   5.431   5.718 -0.7334  0.1319  0.5293
 9233SOL    HW228599   4.764   5.560   5.803 -0.6856  0.1323  0.4982
 9234SOL     OW28600   5.978   5.523   6.739 -0.0227 -0.1658  0.2239
 9234SOL    HW128601   5.883   5.498   6.727 -0.2650  1.1601 -0.9045
 9234SOL    HW228602   6.020   5.540   6.649  1.0431  0.0263  0.7402
 9235SOL     OW28603   0.004   6.399   5.305  0.5736  0.0137 -0.4989
 9235SOL    HW128604  -0.068   6.448   5.255  2.2003  0.4170 -2.5790
 9235SOL    HW228605  -0.002   6.301   5.285 -0.2263 -0.1594  0.4818
 9236SOL     OW28606   6.661   4.284   4.316  0.0998  0.0749 -0.1709
 9236SOL    HW128607   6.584   4.224   4.338 -1.9447  2.6668  0.1674
 9236SOL    HW228608   6.676   4.349   4.391  2.4017 -0.0797 -0.4177
 9237SOL     OW28609   3.914   5.922   0.722 -0.4078 -0.3243  0.6488
 9237SOL    HW128610   3.967   5.893   0.642 -0.7876  0.4559  0.1049
 9237SOL    HW228611   3.833   5.971   0.692  0.1867  1.2741  1.5327
 9238SOL     OW28612   4.956   5.888   1.790 -0.1618  0.1675  0.1043
 9238SOL    HW128613   4.980   5.861   1.883 -1.3747 -3.2422 -0.4607
 9238SOL    HW228614   5.019   5.845   1.725 -0.7926  0.5505 -0.7836
 9239SOL     OW28615   1.122   5.861   5.107 -0.1090 -0.5061 -0.8302
 9239SOL    HW128616   1.073   5.932   5.159 -0.5850 -1.4795  0.0848
 9239SOL    HW228617   1.061   5.820   5.040  0.3591  0.3864 -1.8426
 9240SOL     OW28618   1.701   5.171   3.173  0.0567  0.1318 -0.0709
 9240SOL    HW128619   1.788   5.179   3.125  0.3325 -0.9996  0.2180
 9240SOL    HW228620   1.712   5.112   3.253 -0.7658  0.7173  0.4957
 9241SOL     OW28621   2.403   6.500   2.336  0.7454 -0.0170 -0.2698
 9241SOL    HW128622   2.397   6.593   2.302  0.1903  0.2269  0.4810
 9241SOL    HW228623   2.410   6.437   2.259  0.2607  0.5777 -0.8062
 9242SOL     OW28624   1.528   1.690   1.293 -0.3032 -0.0276 -0.3506
 9242SOL    HW128625   1.520   1.594   1.318  0.1623 -0.2887 -1.1650
 9242SOL    HW228626   1.611   1.704   1.238  1.5154  1.4345  2.5440
 9243SOL     OW28627   5.787   4.367   4.559  0.1139 -0.2818 -0.2887
 9243SOL    HW128628   5.771   4.392   4.655 -0.3043 -1.9208  0.0892
 9243SOL    HW228629   5.703   4.380   4.506 -0.3948 -1.6970  0.1129
 9244SOL     OW28630   5.031   0.071   2.375 -0.4178 -0.1815  0.4998
 9244SOL    HW128631   4.985   0.046   2.290 -0.8648 -1.3310  1.0475
 9244SOL    HW228632   5.005   0.164   2.401  0.7333  0.6838 -1.2647
 9245SOL     OW28633   1.888   2.193   5.858  0.5868 -0.1061  0.4621
 9245SOL    HW128634   1.874   2.290   5.880  1.0927  0.5389 -1.8086
 9245SOL    HW228635   1.799   2.147   5.858  0.2257  0.5675  0.6056
 9246SOL     OW28636   2.827   6.422   1.207 -0.2515 -0.2835 -0.7762
 9246SOL    HW128637   2.777   6.426   1.294 -0.0201 -1.2997 -0.5841
 9246SOL    HW228638   2.803   6.502   1.152 -2.1155 -0.7264 -0.6954
 9247SOL     OW28639   2.000   1.016   6.062 -0.6180  1.2112  0.0364
 9247SOL    HW128640   2.068   1.089   6.058  0.3986  0.2935 -3.2524
 9247SOL    HW228641   1.922   1.039   6.004 -0.7397  0.1309 -0.2560
 9248SOL     OW28642   0.800   3.333   6.768  0.0213 -0.2707  0.1097
 9248SOL    HW128643   0.739   3.360   6.842 -0.2904 -2.7372  0.8441
 9248SOL    HW228644   0.746   3.297   6.692  0.4542 -0.0366 -0.3105
 9249SOL     OW28645   1.371   6.395   3.936  0.5487  0.0801  0.2234
 9249SOL    HW128646   1.327   6.385   4.026  1.7307 -1.1393  0.7092
 9249SOL    HW228647   1.426   6.478   3.935  0.1097  0.3787  0.4350
 9250SOL     OW28648   4.765   5.017   3.184 -0.3998  0.0563 -0.2906
 9250SOL    HW128649   4.720   4.969   3.259 -0.1250 -1.1951 -0.8942
 9250SOL    HW228650   4.713   5.004   3.100  0.0618  0.2099 -0.6070
 9251SOL     OW28651   5.271   1.147   2.508  0.4904  0.0708  0.2738
 9251SOL    HW128652   5.327   1.223   2.543 -0.0326  1.0938 -1.0188
 9251SOL    HW228653   5.186   1.183   2.471  0.2047 -1.1736 -0.3155
 9252SOL     OW28654   5.166   0.119   0.636  1.1639 -0.5716  0.0798
 9252SOL    HW128655   5.141   0.039   0.581 -0.9832  1.0627 -1.5152
 9252SOL    HW228656   5.232   0.175   0.584  0.0613  0.3610 -0.3587
 9253SOL     OW28657   6.843   3.182   3.582  0.2181 -0.0529 -0.0722
 9253SOL    HW128658   6.881   3.229   3.503 -0.5282  0.5619 -0.0748
 9253SOL    HW228659   6.758   3.137   3.555 -0.4436  0.7985  0.5542
 9254SOL     OW28660   6.745   4.055   6.620  0.1573 -0.3898 -1.2568
 9254SOL    HW128661   6.721   4.141   6.664 -0.4411 -0.7832 -0.7861
 9254SOL    HW228662   6.818   4.070   6.553  1.0781  0.2272 -0.1523
 9255SOL     OW28663   5.283   1.953   2.480  0.7050  0.1760 -0.4613
 9255SOL    HW128664   5.378   1.983   2.477  0.4468  1.0186 -3.1552
 9255SOL    HW228665   5.230   2.015   2.538  1.3089  1.3988 -1.1804
 9256SOL     OW28666   4.163   6.796   0.690  0.2058 -0.5944 -0.7154
 9256SOL    HW128667   4.097   6.835   0.754 -0.2489 -1.1987 -0.8071
 9256SOL    HW228668   4.176   6.858   0.613  1.3275  0.4974  0.3089
 9257SOL     OW28669   6.660   4.743   0.336 -0.3483 -0.1876  0.0653
 9257SOL    HW128670   6.615   4.680   0.399  0.0902  0.0626  0.6312
 9257SOL    HW228671   6.707   4.815   0.387  2.2846 -1.4799 -0.4021
 9258SOL     OW28672   6.625   0.488   1.699 -0.5160  0.8638 -0.1997
 9258SOL    HW128673   6.529   0.518   1.695 -0.5391  0.8735  0.2927
 9258SOL    HW228674   6.659   0.472   1.607 -0.7328  1.6852 -0.4331
 9259SOL     OW28675   2.968   1.397   5.157 -0.2089  0.1873  0.0063
 9259SOL    HW128676   2.944   1.466   5.089 -1.1696  0.4267  0.5669
 9259SOL    HW228677   3.062   1.368   5.144 -0.8842 -1.1384 -2.6495
 9260SOL     OW28678   5.119   4.373   4.223  0.2642  0.5571  0.2226
 9260SOL    HW128679   5.033   4.405   4.262 -0.3256 -1.9768  1.1365
 9260SOL    HW228680   5.128   4.408   4.129 -0.9398  2.1866  0.6691
 9261SOL     OW28681   6.964   2.843   2.807 -0.0931  0.2055  0.2813
 9261SOL    HW128682   6.950   2.744   2.808 -0.8470  0.3045  1.2484
 9261SOL    HW228683   6.974   2.874   2.712 -0.5643 -0.7061 -0.0823
 9262SOL     OW28684   0.256   6.058   0.331  0.4688 -0.0120 -0.2146
 9262SOL    HW128685   0.283   6.099   0.243  2.2751  0.9184  0.7290
 9262SOL    HW228686   0.311   6.097   0.404  0.1501 -1.9865  1.1474
 9263SOL     OW28687   0.938   0.000   4.546 -0.2727 -0.6053 -0.2285
 9263SOL    HW128688   0.887   0.051   4.616  0.0326 -0.1942 -0.2971
 9263SOL    HW228689   0.913   0.035   4.455 -0.2587 -0.7601 -0.2919
 9264SOL     OW28690   5.947   5.845   6.581  0.2567  0.1878 -0.1605
 9264SOL    HW128691   6.037   5.844   6.538  1.2473 -0.6113  1.8071
 9264SOL    HW228692   5.946   5.909   6.657 -1.4206  1.4796 -1.1765
 9265SOL     OW28693   1.907   0.883   2.699  0.7216  0.0088 -0.2565
 9265SOL    HW128694   2.005   0.879   2.720  0.7562  2.1409  0.1925
 9265SOL    HW228695   1.856   0.837   2.772  1.2799  0.7088  0.5934
 9266SOL     OW28696   6.706   5.200   2.898  0.1486 -0.1733  0.4252
 9266SOL    HW128697   6.628   5.261   2.886  0.9005  0.7376  0.0441
 9266SOL    HW228698   6.692   5.143   2.979 -2.0630 -1.8392 -1.0093
 9267SOL     OW28699   1.317   4.888   5.132 -0.1532  0.3097 -0.6108
 9267SOL    HW128700   1.281   4.958   5.193 -0.7614 -0.5797  0.0776
 9267SOL    HW228701   1.307   4.798   5.174 -1.3731 -0.4425 -2.3428
 9268SOL     OW28702   5.825   5.341   0.929 -0.6503 -0.4185 -0.1758
 9268SOL    HW128703   5.831   5.433   0.969 -0.1200 -0.8121  0.6796
 9268SOL    HW228704   5.737   5.331   0.882 -0.9885  0.3105  0.2859
 9269SOL     OW28705   4.465   2.762   0.841  0.2121  0.5299 -0.3776
 9269SOL    HW128706   4.563   2.759   0.821 -0.2487  0.8942 -3.1431
 9269SOL    HW228707   4.432   2.670   0.861  1.3646  0.6302  2.3188
 9270SOL     OW28708   0.039   1.270   3.898  0.0518 -0.0407  0.4204
 9270SOL    HW128709   0.090   1.336   3.842 -0.2031 -0.9110 -0.8676
 9270SOL    HW228710   0.084   1.260   3.987  1.8364 -0.3955 -0.4808
 9271SOL     OW28711   6.979   1.953   6.959  0.0971 -0.2190  0.0325
 9271SOL    HW128712   6.939   2.039   6.990 -1.1892 -0.7644 -0.0659
 9271SOL    HW228713   7.064   1.972   6.909  0.2642  0.9197  0.7107
 9272SOL     OW28714   5.573   4.958   1.709  0.2269  0.2821  0.4264
 9272SOL    HW128715   5.486   4.909   1.709  0.3771 -0.0722  2.2283
 9272SOL    HW228716   5.558   5.053   1.735  0.3273  0.3247  0.3279
 9273SOL     OW28717   6.241   4.664   1.287  0.0707  0.3138 -1.3005
 9273SOL    HW128718   6.310   4.663   1.215  0.8291  1.8061 -0.6412
 9273SOL    HW228719   6.228   4.758   1.319  0.6052 -0.4172  1.2828
 9274SOL     OW28720   0.935   3.035   1.748 -0.0559 -0.0139 -0.5897
 9274SOL    HW128721   0.878   3.059   1.827  0.6977  1.3972 -0.4429
 9274SOL    HW228722   0.937   2.935   1.737  1.4352 -0.4038  2.3837
 9275SOL     OW28723   3.963   0.188   4.567  0.4855  0.5293  0.5889
 9275SOL    HW128724   4.014   0.104   4.582  0.9406  0.9374  1.4282
 9275SOL    HW228725   3.919   0.185   4.478  1.0376 -0.3155  0.3322
 9276SOL     OW28726   5.000   0.085   3.680 -0.2877  0.3561  0.0095
 9276SOL    HW128727   5.018   0.038   3.594 -0.6809  1.7010 -0.8447
 9276SOL    HW228728   5.017   0.023   3.757  0.4632 -0.7420 -1.0140
 9277SOL     OW28729   6.339   3.079   6.952 -0.3335  0.0482 -0.0571
 9277SOL    HW128730   6.266   3.145   6.970  0.4324  0.1455  3.4593
 9277SOL    HW228731   6.418   3.100   7.011  1.6838 -1.4115 -2.0704
 9278SOL     OW28732   3.874   2.170   3.729  0.1814 -0.0918  0.4667
 9278SOL    HW128733   3.786   2.168   3.776  0.6501  0.9735  1.4296
 9278SOL    HW228734   3.860   2.163   3.630 -1.0594  1.2004  0.5283
 9279SOL     OW28735   6.898   6.585   5.637  0.2976 -0.1736  0.1283
 9279SOL    HW128736   6.970   6.584   5.707  0.4343  0.5905  0.0070
 9279SOL    HW228737   6.815   6.543   5.674  0.7745 -0.9673  0.3075
 9280SOL     OW28738   2.055   1.037   0.082 -0.1233  0.0368 -0.4316
 9280SOL    HW128739   2.081   0.947   0.117 -0.2438  0.6782  1.4132
 9280SOL    HW228740   2.137   1.090   0.061  0.1003  0.7275  1.8748
 9281SOL     OW28741   3.965   6.924   4.648  0.3521  0.0694  0.3318
 9281SOL    HW128742   3.867   6.937   4.632  0.3216 -0.3740  0.1251
 9281SOL    HW228743   4.016   6.957   4.569  0.2657 -1.1346 -0.2594
 9282SOL     OW28744   1.078   5.220   3.066 -0.1976  0.1614 -0.5640
 9282SOL    HW128745   1.131   5.271   3.134  2.2427  0.0065 -2.2173
 9282SOL    HW228746   1.132   5.142   3.034 -1.5343 -0.1462 -2.1770
 9283SOL     OW28747   5.047   4.883   3.546 -0.6447 -0.2672  0.0457
 9283SOL    HW128748   5.043   4.914   3.451  2.6280 -0.7942 -0.3798
 9283SOL    HW228749   5.115   4.936   3.596  0.5500 -2.5417  0.9969
 9284SOL     OW28750   4.570   5.833   5.608 -0.1807 -0.0549  0.1816
 9284SOL    HW128751   4.586   5.799   5.701 -0.5646  2.4363  1.2192
 9284SOL    HW228752   4.482   5.798   5.575  0.4803 -1.8970  0.2273
 9285SOL     OW28753   1.274   2.661   2.003  0.3154  0.0418 -0.9720
 9285SOL    HW128754   1.366   2.622   2.006  0.5963  0.6708 -1.3075
 9285SOL    HW228755   1.245   2.673   1.908 -0.2890 -0.5494 -0.8725
 9286SOL     OW28756   4.425   3.160   5.780 -0.2803  0.0375 -0.4099
 9286SOL    HW128757   4.479   3.141   5.698 -0.6203 -1.4010 -0.3261
 9286SOL    HW228758   4.361   3.084   5.796 -1.7794  1.3182 -0.0577
 9287SOL     OW28759   2.103   5.256   3.307  0.0567  0.2481 -0.0158
 9287SOL    HW128760   2.060   5.212   3.228  0.0341  0.7836 -0.3103
 9287SOL    HW228761   2.197   5.282   3.283  1.0867 -2.1713  1.0657
 9288SOL     OW28762   1.693   5.289   4.379  0.4928 -0.1580 -0.0286
 9288SOL    HW128763   1.601   5.306   4.342 -0.0825 -2.5888  0.1146
 9288SOL    HW228764   1.685   5.264   4.476  1.3069 -0.4272 -0.0289
 9289SOL     OW28765   4.659   6.034   2.505 -0.1522  0.1351 -0.7457
 9289SOL    HW128766   4.694   5.976   2.578  0.4200 -0.3408 -1.3825
 9289SOL    HW228767   4.567   6.003   2.480 -1.1812  1.5327  1.0871
 9290SOL     OW28768   0.730   0.907   2.129  0.2126  0.4283  0.4562
 9290SOL    HW128769   0.779   0.986   2.167 -1.0301  0.5461  1.8808
 9290SOL    HW228770   0.634   0.911   2.155  0.0491 -1.3985  0.2920
 9291SOL     OW28771   4.847   2.946   2.302  0.5491  0.0499 -0.3857
 9291SOL    HW128772   4.792   2.969   2.222  0.4525 -1.4993 -0.7810
 9291SOL    HW228773   4.934   2.996   2.299  0.3543  0.3482 -1.2093
 9292SOL     OW28774   1.178   1.493   2.233 -0.2809  0.8213  0.1290
 9292SOL    HW128775   1.095   1.471   2.285 -0.8154  2.2789 -0.0812
 9292SOL    HW228776   1.156   1.559   2.162  1.5031  3.1877  1.6459
 9293SOL     OW28777   1.456   5.059   3.035  0.0814  0.3297 -0.0137
 9293SOL    HW128778   1.538   5.058   3.092  1.3403 -2.3496 -1.6529
 9293SOL    HW228779   1.381   5.015   3.084  0.6185 -0.3226  0.2319
 9294SOL     OW28780   5.256   0.979   4.025 -0.1649  0.7467 -0.2453
 9294SOL    HW128781   5.248   1.040   4.103 -0.3570 -0.2500  0.5275
 9294SOL    HW228782   5.165   0.964   3.984 -0.1409  0.8413 -0.3341
 9295SOL     OW28783   0.840   1.326   6.926 -0.0329  0.1355 -0.8080
 9295SOL    HW128784   0.755   1.277   6.906 -0.2582  0.4140 -0.5418
 9295SOL    HW228785   0.835   1.365   7.018  0.3947  0.1337 -0.7826
 9296SOL     OW28786   2.220   1.334   0.268  0.4519  0.1061 -0.5341
 9296SOL    HW128787   2.240   1.296   0.177  0.8881 -1.8738  0.3429
 9296SOL    HW228788   2.267   1.280   0.338  0.7187  2.0434  0.8510
 9297SOL     OW28789   0.380   6.431   4.477 -0.1150  0.9379 -0.3522
 9297SOL    HW128790   0.328   6.502   4.431  0.2746  0.3523 -1.7421
 9297SOL    HW228791   0.430   6.470   4.554 -0.4471  2.0203 -0.6795
 9298SOL     OW28792   2.755   2.279   3.791  0.0060 -0.6751  0.0318
 9298SOL    HW128793   2.675   2.337   3.805 -1.1943 -2.3333  0.4000
 9298SOL    HW228794   2.803   2.308   3.709 -0.3745  0.9962  0.3611
 9299SOL     OW28795   1.665   1.551   5.802  0.0278 -0.2948  0.0035
 9299SOL    HW128796   1.643   1.457   5.830 -0.8221 -0.1420 -0.1148
 9299SOL    HW228797   1.580   1.600   5.783  0.4930  0.3106 -0.5506
 9300SOL     OW28798   1.076   3.906   3.074 -0.1629  0.4565  0.4975
 9300SOL    HW128799   1.050   3.893   2.978  1.7637 -1.8205  0.1802
 9300SOL    HW228800   1.070   3.818   3.122  0.1704  1.2854  2.1309
 9301SOL     OW28801   1.734   5.057   0.255 -0.1951 -0.1665 -0.1303
 9301SOL    HW128802   1.739   5.084   0.159  1.8813  0.5660  0.1294
 9301SOL    HW228803   1.762   4.961   0.264  1.4955  0.2855 -0.1131
 9302SOL     OW28804   3.427   0.536   6.721 -0.4230 -0.5731  0.1648
 9302SOL    HW128805   3.419   0.626   6.763  2.9555  0.2244 -0.6006
 9302SOL    HW228806   3.458   0.470   6.790  0.2852 -0.3796  0.0418
 9303SOL     OW28807   6.009   3.421   0.127  0.0308  0.5822 -0.1970
 9303SOL    HW128808   6.072   3.399   0.202 -0.3013 -0.3355 -0.1755
 9303SOL    HW228809   5.926   3.462   0.165 -0.5707 -0.8120  0.0650
 9304SOL     OW28810   5.609   0.170   2.987  0.2492  0.7794  0.0172
 9304SOL    HW128811   5.655   0.095   3.035  0.3235  0.6535 -0.2433
 9304SOL    HW228812   5.665   0.253   2.993  0.1877  0.8016  0.2700
 9305SOL     OW28813   4.974   0.332   1.262 -0.6834  0.5795  0.1225
 9305SOL    HW128814   4.888   0.365   1.222 -0.8136 -0.9304 -0.9001
 9305SOL    HW228815   4.973   0.233   1.267  0.7604  0.5656  0.7097
 9306SOL     OW28816   2.591   5.925   0.366 -0.5512  0.3586 -0.4199
 9306SOL    HW128817   2.518   5.915   0.298  0.1020  2.3946 -1.4763
 9306SOL    HW228818   2.635   5.836   0.380  0.0723  0.0460 -3.5795
 9307SOL     OW28819   4.389   5.645   2.799 -0.4764  0.0657  0.6329
 9307SOL    HW128820   4.343   5.623   2.714  1.6923  0.1393 -0.6310
 9307SOL    HW228821   4.456   5.574   2.821  0.4353  1.0400  1.1408
 9308SOL     OW28822   2.010   0.103   6.941  0.0140  0.2384 -0.1553
 9308SOL    HW128823   2.109   0.117   6.951 -0.2574  2.4940 -0.0924
 9308SOL    HW228824   1.965   0.123   7.028 -0.5766 -0.0560 -0.3887
 9309SOL     OW28825   5.385   4.283   4.761  0.1874 -0.2098 -0.2897
 9309SOL    HW128826   5.431   4.346   4.824  0.0567 -1.8725  1.5506
 9309SOL    HW228827   5.420   4.191   4.774 -1.1256 -0.9085 -1.4059
 9310SOL     OW28828   5.945   2.126   2.638  1.1316 -0.0024  0.3533
 9310SOL    HW128829   5.856   2.095   2.670  0.7682  1.3247  0.7000
 9310SOL    HW228830   5.991   2.051   2.591 -0.9729 -0.2099 -1.5568
 9311SOL     OW28831   0.802   0.070   4.026 -0.0396  0.3876 -0.2623
 9311SOL    HW128832   0.895   0.048   3.997  0.0943 -1.8727  1.5399
 9311SOL    HW228833   0.738   0.002   3.989 -0.9101  1.5636 -0.9802
 9312SOL     OW28834   0.019   0.742   4.624 -0.4494  0.6027  0.1297
 9312SOL    HW128835   0.061   0.715   4.537 -0.6383  1.3130 -0.1864
 9312SOL    HW228836   0.007   0.661   4.682  1.8137  0.4252  0.4426
 9313SOL     OW28837   6.187   5.204   6.963 -0.0404 -0.3541 -0.2826
 9313SOL    HW128838   6.095   5.242   6.965 -0.5819 -1.6550  0.5596
 9313SOL    HW228839   6.183   5.106   6.943  0.9339 -0.9810  2.1889
 9314SOL     OW28840   2.125   3.572   4.999  0.2810  0.0652 -0.4488
 9314SOL    HW128841   2.132   3.644   5.067  0.0368 -0.7105  0.4132
 9314SOL    HW228842   2.187   3.498   5.022  0.0735 -0.2805 -0.9749
 9315SOL     OW28843   1.280   5.405   0.320 -0.3174 -1.0204 -0.0280
 9315SOL    HW128844   1.228   5.451   0.391 -0.6053 -0.0157 -0.8718
 9315SOL    HW228845   1.239   5.315   0.302 -0.5876 -1.0382  0.6630
 9316SOL     OW28846   0.217   4.628   1.726 -0.4575  0.7041 -0.0708
 9316SOL    HW128847   0.133   4.607   1.776  0.1267  0.3965  0.8022
 9316SOL    HW228848   0.199   4.624   1.628 -1.1905 -0.4855  0.0894
 9317SOL     OW28849   1.140   5.147   5.818 -0.1749 -0.0261 -0.2383
 9317SOL    HW128850   1.095   5.213   5.879 -0.2092 -0.4864  0.2381
 9317SOL    HW228851   1.212   5.100   5.868 -0.5269 -0.7589 -0.4103
 9318SOL     OW28852   5.589   3.328   1.526  0.4311  0.2030 -0.1691
 9318SOL    HW128853   5.530   3.370   1.596 -0.1731 -0.1039 -0.4892
 9318SOL    HW228854   5.685   3.348   1.548  0.1678  1.7628 -0.3160
 9319SOL     OW28855   5.204   4.856   5.920 -0.1320 -0.4423  0.6014
 9319SOL    HW128856   5.127   4.904   5.879 -0.0503 -1.0253 -0.2933
 9319SOL    HW228857   5.171   4.791   5.989 -0.4457 -0.6410  0.2689
 9320SOL     OW28858   2.035   2.693   4.846 -0.0933 -0.0299 -0.1531
 9320SOL    HW128859   2.083   2.763   4.793 -1.3001  0.7645 -0.2396
 9320SOL    HW228860   1.968   2.647   4.787  1.9466 -2.6275 -0.6451
 9321SOL     OW28861   4.347   5.209   4.993  0.0894 -0.4262 -0.2663
 9321SOL    HW128862   4.300   5.194   4.906 -0.8506 -0.8649  0.2976
 9321SOL    HW228863   4.323   5.136   5.057  2.2472 -1.1761 -0.2162
 9322SOL     OW28864   5.718   4.524   3.851  0.4642  0.9046  0.0256
 9322SOL    HW128865   5.698   4.576   3.935  0.3265  1.5057 -0.3694
 9322SOL    HW228866   5.704   4.584   3.772  1.2416  0.5371 -0.3925
 9323SOL     OW28867   0.141   6.396   0.816 -0.4569 -0.1788  0.2090
 9323SOL    HW128868   0.129   6.298   0.799 -0.9177 -0.4990  2.1345
 9323SOL    HW228869   0.150   6.444   0.729 -1.0073 -1.8233 -0.8028
 9324SOL     OW28870   6.078   0.608   3.267  0.4304  0.7994 -0.1214
 9324SOL    HW128871   6.032   0.678   3.321  0.2500  0.3808  0.2758
 9324SOL    HW228872   6.147   0.650   3.209 -0.5210  1.4459 -0.7980
 9325SOL     OW28873   2.641   1.069   6.487 -0.3306 -0.1533 -0.1090
 9325SOL    HW128874   2.634   1.125   6.569  0.9521 -0.2384  0.0732
 9325SOL    HW228875   2.549   1.048   6.453 -0.8845 -0.1453  1.3201
 9326SOL     OW28876   3.419   5.920   4.608  0.4685  0.0679  0.2699
 9326SOL    HW128877   3.404   5.876   4.696 -0.3066  0.8641  0.5423
 9326SOL    HW228878   3.358   5.880   4.539  0.0832  0.3982  0.4158
 9327SOL     OW28879   0.883   6.488   3.158 -0.1750 -0.3016  0.2595
 9327SOL    HW128880   0.799   6.464   3.110  0.5182 -1.2821 -0.5368
 9327SOL    HW228881   0.862   6.536   3.242 -1.4416  1.5484 -1.0506
 9328SOL     OW28882   2.677   4.677   4.420 -0.1580  0.0757  0.4547
 9328SOL    HW128883   2.661   4.747   4.351  0.0469  0.2677  0.6015
 9328SOL    HW228884   2.595   4.620   4.429 -1.3557  1.9755  2.2745
 9329SOL     OW28885   4.188   1.355   1.039  0.0049  0.0804  0.1144
 9329SOL    HW128886   4.119   1.411   0.993 -1.7941 -0.3562  2.0899
 9329SOL    HW228887   4.168   1.258   1.023  2.0976 -0.0827 -1.8891
 9330SOL     OW28888   4.854   1.811   1.599 -0.1190 -0.2031 -0.1801
 9330SOL    HW128889   4.801   1.896   1.598  1.3953  0.9112 -3.8346
 9330SOL    HW228890   4.946   1.829   1.563  0.0916 -3.4588 -1.6752
 9331SOL     OW28891   0.535   6.771   1.310 -0.8276  0.1727 -0.3107
 9331SOL    HW128892   0.459   6.788   1.372 -2.1565 -0.9143 -1.5657
 9331SOL    HW228893   0.509   6.700   1.244  2.1559 -2.1888  0.8172
 9332SOL     OW28894   2.825   6.009   2.092  0.2385  0.4563  0.1817
 9332SOL    HW128895   2.797   6.068   2.168  0.8248  2.4332 -1.0589
 9332SOL    HW228896   2.806   6.055   2.005  3.4438  0.2124 -0.8003
 9333SOL     OW28897   3.187   0.772   0.454 -0.2504  0.1564 -0.4640
 9333SOL    HW128898   3.193   0.735   0.547 -0.0101  1.3613  0.0107
 9333SOL    HW228899   3.190   0.871   0.457 -3.4402  0.3864 -1.5081
 9334SOL     OW28900   6.375   3.015   6.565  0.1798 -0.8059 -0.1101
 9334SOL    HW128901   6.277   3.011   6.544  0.0618 -1.2489  0.5135
 9334SOL    HW228902   6.424   3.056   6.487 -0.4302 -1.0973 -0.6565
 9335SOL     OW28903   4.404   2.248   3.677  0.4707 -0.1962 -0.3212
 9335SOL    HW128904   4.371   2.267   3.585 -0.8815 -0.2997  0.1212
 9335SOL    HW228905   4.333   2.271   3.743  1.7764  0.8216  0.7878
 9336SOL     OW28906   3.216   4.309   6.910  0.5333 -0.1088  0.3071
 9336SOL    HW128907   3.215   4.286   7.007 -1.9496  0.6004  0.5196
 9336SOL    HW228908   3.238   4.406   6.899 -1.3982  0.3833  0.3933
 9337SOL     OW28909   5.399   1.170   0.574 -0.0084  0.1418  0.6069
 9337SOL    HW128910   5.473   1.174   0.641 -1.5031 -2.0484  2.5415
 9337SOL    HW228911   5.360   1.077   0.572 -2.1489  0.9803 -0.9528
 9338SOL     OW28912   4.019   1.854   5.944  0.1025 -0.2805 -0.0978
 9338SOL    HW128913   4.086   1.919   5.907 -0.6573 -0.3419 -1.6610
 9338SOL    HW228914   4.054   1.761   5.934  1.5003 -0.1543  2.7815
 9339SOL     OW28915   4.853   0.362   6.503  0.0881  0.0922 -0.2160
 9339SOL    HW128916   4.800   0.424   6.444 -2.2409  0.3204  1.9331
 9339SOL    HW228917   4.898   0.415   6.574 -1.2725 -0.5126  1.1650
 9340SOL     OW28918   5.203   0.321   2.258  0.2406  0.3250 -0.5525
 9340SOL    HW128919   5.180   0.295   2.352 -1.4551  1.0203 -0.7479
 9340SOL    HW228920   5.218   0.239   2.203  0.8795 -0.0927  0.2307
 9341SOL     OW28921   1.244   1.133   1.458  0.1865  0.0065 -0.4224
 9341SOL    HW128922   1.279   1.045   1.427  0.4806  0.7790 -2.4056
 9341SOL    HW228923   1.147   1.123   1.483  0.4214 -1.0238  0.1312
 9342SOL     OW28924   3.807   3.765   4.992 -0.0384 -0.0707 -0.4085
 9342SOL    HW128925   3.894   3.758   4.944  0.0056 -0.3146 -0.2963
 9342SOL    HW228926   3.822   3.799   5.085 -0.1182  0.3565 -0.5541
 9343SOL     OW28927   5.050   6.134   1.918  0.1051  0.2963  0.1413
 9343SOL    HW128928   5.007   6.064   1.861  0.8790  0.9523 -1.3074
 9343SOL    HW228929   5.076   6.094   2.006 -0.3207 -0.9817 -0.2917
 9344SOL     OW28930   1.580   2.630   2.113 -0.0390  0.0020  0.4225
 9344SOL    HW128931   1.648   2.611   2.042 -0.3370 -0.3726  0.2357
 9344SOL    HW228932   1.537   2.545   2.142  0.0094  0.1668  0.9843
 9345SOL     OW28933   2.564   6.298   5.906  0.4991  0.4121  0.3201
 9345SOL    HW128934   2.547   6.228   5.976  1.1037 -0.2895 -0.2235
 9345SOL    HW228935   2.477   6.327   5.866  0.3547 -1.6043 -0.9571
 9346SOL     OW28936   2.445   2.061   3.648  0.2689  0.1161  0.0359
 9346SOL    HW128937   2.480   2.135   3.591  0.3634 -0.0973 -0.1857
 9346SOL    HW228938   2.496   2.057   3.733 -0.6592  1.2121  0.6711
 9347SOL     OW28939   6.930   2.786   4.779 -0.1170 -0.1222 -0.3617
 9347SOL    HW128940   7.027   2.812   4.775 -0.2908  0.8158  0.9528
 9347SOL    HW228941   6.884   2.841   4.849 -1.0437 -2.3425  0.8633
 9348SOL     OW28942   4.169   2.294   2.477 -0.3448  0.0844  0.2296
 9348SOL    HW128943   4.071   2.288   2.491 -0.2520  1.2691  1.6768
 9348SOL    HW228944   4.189   2.298   2.379 -1.9245  2.3007 -0.0705
 9349SOL     OW28945   6.358   4.879   0.114 -0.0064  0.4156 -0.3823
 9349SOL    HW128946   6.453   4.896   0.092  0.4213  0.5869  1.4245
 9349SOL    HW228947   6.339   4.909   0.208 -1.3740 -1.2029 -0.0761
 9350SOL     OW28948   5.693   3.655   3.316 -0.4514  0.2204 -0.3337
 9350SOL    HW128949   5.719   3.697   3.229  0.0667  0.5250 -0.0338
 9350SOL    HW228950   5.752   3.576   3.334 -1.0609 -0.3121 -0.6253
 9351SOL     OW28951   1.478   3.016   5.929 -0.8029 -0.0447 -0.2404
 9351SOL    HW128952   1.517   2.941   5.875 -2.0373 -0.4724 -0.5622
 9351SOL    HW228953   1.550   3.056   5.986 -0.1463 -1.5527  0.0426
 9352SOL     OW28954   1.722   6.388   0.948  0.1259 -0.1097  0.4589
 9352SOL    HW128955   1.698   6.474   0.904  0.8439 -0.6234 -0.9871
 9352SOL    HW228956   1.818   6.391   0.976 -0.0321 -0.2016  1.0349
 9353SOL     OW28957   2.858   0.137   0.914  0.2881 -0.0222 -0.3893
 9353SOL    HW128958   2.853   0.139   0.815  0.5153 -0.6116 -0.4115
 9353SOL    HW228959   2.783   0.193   0.952 -0.7762 -1.0790 -0.8676
 9354SOL     OW28960   4.295   0.115   0.804 -0.2712  0.1935 -0.3188
 9354SOL    HW128961   4.281   0.188   0.737  1.2022  0.3059 -0.5294
 9354SOL    HW228962   4.214   0.055   0.805 -1.1180  1.2872 -0.7910
 9355SOL     OW28963   1.665   3.343   4.553 -0.3553 -0.0098  0.2753
 9355SOL    HW128964   1.721   3.412   4.598  1.2265 -0.3542 -1.0694
 9355SOL    HW228965   1.721   3.292   4.488 -1.6853 -1.9685  0.5627
 9356SOL     OW28966   2.184   3.909   4.768  0.6069  0.3933 -0.1462
 9356SOL    HW128967   2.215   3.981   4.705  0.9597  1.4598  1.2014
 9356SOL    HW228968   2.239   3.912   4.851 -0.0691 -0.7790  0.3596
 9357SOL     OW28969   1.466   5.372   1.939  0.4149 -0.1364  0.2824
 9357SOL    HW128970   1.482   5.382   2.037  1.3121  1.1935  0.0262
 9357SOL    HW228971   1.515   5.292   1.905 -1.5836 -1.8829  1.2385
 9358SOL     OW28972   0.542   6.156   1.545 -0.0762 -0.6758 -0.2670
 9358SOL    HW128973   0.503   6.073   1.585 -0.6338 -1.7331 -2.7997
 9358SOL    HW228974   0.467   6.214   1.511  0.3999 -0.2853 -0.6543
 9359SOL     OW28975   4.384   1.454   3.863  0.5568 -0.5762 -0.9413
 9359SOL    HW128976   4.390   1.552   3.845 -2.9551 -0.1288 -0.4726
 9359SOL    HW228977   4.420   1.403   3.785  2.2594  1.0300 -1.2795
 9360SOL     OW28978   1.954   1.406   0.237  0.3962  0.1753 -0.2944
 9360SOL    HW128979   1.935   1.489   0.289 -1.3623  1.9390 -3.4421
 9360SOL    HW228980   2.053   1.399   0.219  0.6373  1.2181  0.5584
 9361SOL     OW28981   5.634   2.134   5.643 -0.0287 -0.4323  0.1521
 9361SOL    HW128982   5.672   2.201   5.579 -5.0265  0.5068 -2.3325
 9361SOL    HW228983   5.608   2.180   5.728  0.4217 -0.1984  0.1682
 9362SOL     OW28984   4.682   0.648   5.217  0.1737  0.0844 -0.0310
 9362SOL    HW128985   4.722   0.628   5.306 -1.7207 -0.6541  0.6951
 9362SOL    HW228986   4.616   0.577   5.193  0.0540  0.6912 -1.6800
 9363SOL     OW28987   6.259   2.376   2.339  0.0379  0.2614 -0.7103
 9363SOL    HW128988   6.336   2.335   2.389  0.7162  1.0537 -1.0737
 9363SOL    HW228989   6.174   2.361   2.390  0.8150  1.7537  1.1391
 9364SOL     OW28990   5.564   2.892   2.498  0.0366 -0.4976 -0.6728
 9364SOL    HW128991   5.468   2.919   2.490  0.3096  1.2525  1.2320
 9364SOL    HW228992   5.576   2.837   2.581  0.7076 -0.6531 -0.8650
 9365SOL     OW28993   5.735   1.724   3.014  0.5293 -0.0093  0.0167
 9365SOL    HW128994   5.719   1.721   3.113 -0.4566 -1.8451 -0.1445
 9365SOL    HW228995   5.765   1.633   2.983 -0.5188  0.1561 -1.5694
 9366SOL     OW28996   0.715   5.934   0.196  0.0803 -0.0273 -0.1440
 9366SOL    HW128997   0.787   5.866   0.208 -0.8709 -1.1623 -0.6562
 9366SOL    HW228998   0.691   5.940   0.099  0.1448  1.0417 -0.1006
 9367SOL     OW28999   2.552   2.570   3.143 -0.1340 -0.2814 -0.5745
 9367SOL    HW129000   2.484   2.640   3.167 -0.7790 -1.2898  0.6695
 9367SOL    HW229001   2.570   2.573   3.045 -0.8553  0.9957 -0.6890
 9368SOL     OW29002   3.767   3.701   2.141 -0.0068 -0.0822 -0.5636
 9368SOL    HW129003   3.851   3.754   2.134 -0.3314  0.2483 -3.3003
 9368SOL    HW229004   3.690   3.763   2.158  0.1235 -0.2198  0.5614
 9369SOL     OW29005   5.136   0.144   4.659 -0.1337  0.0693  0.0491
 9369SOL    HW129006   5.230   0.125   4.685  0.4135  0.3765 -1.6191
 9369SOL    HW229007   5.074   0.099   4.724  1.1339 -2.3393 -0.2762
 9370SOL     OW29008   3.597   0.447   2.150  0.1772 -0.6273  0.7072
 9370SOL    HW129009   3.640   0.522   2.101  0.1303 -0.4324  0.9645
 9370SOL    HW229010   3.524   0.483   2.208 -0.9288 -1.0389 -0.3823
 9371SOL     OW29011   6.102   6.145   4.802  0.2588  0.0806  0.1663
 9371SOL    HW129012   6.036   6.110   4.736  0.2515  0.3921  0.0074
 9371SOL    HW229013   6.194   6.141   4.763  0.4217 -0.9137  0.6070
 9372SOL     OW29014   1.391   6.639   1.968 -0.0584  0.1968  0.2178
 9372SOL    HW129015   1.443   6.724   1.967  0.6745 -0.2445  0.3424
 9372SOL    HW229016   1.442   6.568   1.919 -0.5919 -0.2146  0.2487
 9373SOL     OW29017   4.794   4.324   5.826 -0.5686 -0.4458 -0.2246
 9373SOL    HW129018   4.813   4.364   5.737  1.0151 -2.1408 -0.7343
 9373SOL    HW229019   4.852   4.367   5.895 -2.2405  1.3027  0.1712
 9374SOL     OW29020   2.961   1.152   2.629  0.5254  0.0433 -0.7589
 9374SOL    HW129021   2.898   1.156   2.551  0.3746  1.8281 -0.5919
 9374SOL    HW229022   2.911   1.126   2.711  0.2466  0.2174 -0.8710
 9375SOL     OW29023   5.788   1.823   4.667  0.0558 -0.4214 -0.6535
 9375SOL    HW129024   5.745   1.910   4.644  0.6886  0.4652  1.3249
 9375SOL    HW229025   5.882   1.823   4.634 -0.6001 -1.3189 -2.6699
 9376SOL     OW29026   0.175   6.043   1.813  0.3318 -0.4865 -0.6210
 9376SOL    HW129027   0.156   6.093   1.728 -0.1649 -0.5925 -0.5746
 9376SOL    HW229028   0.089   6.014   1.855  0.5032  0.6642  0.5923
 9377SOL     OW29029   4.670   4.646   1.118  0.2205 -0.8854  0.3753
 9377SOL    HW129030   4.662   4.573   1.186 -0.4510 -0.4078  0.8300
 9377SOL    HW229031   4.688   4.732   1.164 -2.1566 -0.1987  0.1651
 9378SOL     OW29032   1.518   5.569   5.049  0.0241  0.3532 -0.0995
 9378SOL    HW129033   1.459   5.638   5.006  2.8166  2.2035 -1.2841
 9378SOL    HW229034   1.509   5.482   5.000  0.4749  1.4377 -2.2507
 9379SOL     OW29035   4.280   5.382   6.133 -0.2834  0.3987 -0.4382
 9379SOL    HW129036   4.344   5.404   6.207 -0.7817  1.2788 -0.2503
 9379SOL    HW229037   4.298   5.289   6.100  0.0680  0.0560  0.6627
 9380SOL     OW29038   1.937   1.745   1.645 -0.2495  0.0000  0.6691
 9380SOL    HW129039   2.027   1.739   1.602 -0.4346 -1.7789  0.4358
 9380SOL    HW229040   1.882   1.666   1.617 -1.5157  0.5080  1.6336
 9381SOL     OW29041   2.130   1.430   6.231  0.4000  0.0578  0.0229
 9381SOL    HW129042   2.041   1.410   6.272  1.7172 -0.8002  2.6865
 9381SOL    HW229043   2.173   1.344   6.202  0.7080  0.3906 -0.5263
 9382SOL     OW29044   3.298   3.342   3.931  0.1448  0.6000 -0.2788
 9382SOL    HW129045   3.261   3.391   3.852  1.0575  1.5326 -0.1517
 9382SOL    HW229046   3.231   3.275   3.963  0.1797 -0.5805 -2.5023
 9383SOL     OW29047   1.972   5.519   5.688 -0.3147 -0.1360 -0.1048
 9383SOL    HW129048   2.069   5.533   5.707 -0.6062  0.4281  1.0687
 9383SOL    HW229049   1.917   5.567   5.757 -1.4184 -1.9648  0.3551
 9384SOL     OW29050   0.413   2.461   7.011  0.4953  0.1696 -0.3722
 9384SOL    HW129051   0.470   2.522   6.957  1.0914 -0.1181 -0.0695
 9384SOL    HW229052   0.420   2.485   7.108  0.4199 -0.1213 -0.2934
 9385SOL     OW29053   5.777   3.842   0.601 -0.0368 -0.0838  0.5782
 9385SOL    HW129054   5.680   3.818   0.594 -0.1219  0.2518  0.5895
 9385SOL    HW229055   5.804   3.844   0.697 -0.2569  0.7331  0.6352
 9386SOL     OW29056   4.736   6.427   2.849 -0.3091 -0.4275 -0.0523
 9386SOL    HW129057   4.739   6.484   2.931 -2.2405 -2.2846  1.4498
 9386SOL    HW229058   4.647   6.438   2.805 -0.3603 -1.5493 -0.2543
 9387SOL     OW29059   4.400   4.846   3.060  0.1624 -0.4300  0.1133
 9387SOL    HW129060   4.466   4.912   3.024  0.0148  0.2388  1.0411
 9387SOL    HW229061   4.445   4.785   3.124  0.3737 -1.4781 -0.9943
 9388SOL     OW29062   1.232   2.688   5.033 -0.0406  0.0462  0.4959
 9388SOL    HW129063   1.162   2.617   5.027  0.3609 -0.3593  0.5493
 9388SOL    HW229064   1.317   2.654   4.994 -0.3364  1.1624 -1.2754
 9389SOL     OW29065   2.964   6.845   0.423 -0.1558  0.0777  0.0255
 9389SOL    HW129066   3.055   6.810   0.403  0.6058  1.5823  0.6681
 9389SOL    HW229067   2.968   6.945   0.429 -1.3384  0.0466  2.5001
 9390SOL     OW29068   4.988   4.344   6.643 -0.0900 -1.2067  0.5259
 9390SOL    HW129069   4.890   4.362   6.643  0.0059 -0.6868  0.1400
 9390SOL    HW229070   5.007   4.264   6.701 -0.7138 -1.1909  0.7559
 9391SOL     OW29071   3.593   0.943   3.562 -0.1819  0.4496  0.3425
 9391SOL    HW129072   3.635   0.911   3.646  0.5167  3.5221  1.2643
 9391SOL    HW229073   3.664   0.965   3.495 -0.5946  0.5090 -0.0828
 9392SOL     OW29074   6.249   0.064   1.833  0.1043  0.5747 -0.2016
 9392SOL    HW129075   6.247   0.048   1.735 -0.4729  2.3094 -0.5097
 9392SOL    HW229076   6.179   0.132   1.858 -0.7400 -0.8556  1.6275
 9393SOL     OW29077   2.048   4.427   2.276 -0.0261  0.6625  0.2045
 9393SOL    HW129078   2.102   4.506   2.246  0.1801 -0.3124 -2.1795
 9393SOL    HW229079   2.090   4.386   2.357  2.5592  0.2476 -1.2618
 9394SOL     OW29080   3.329   4.102   6.606 -0.4867  0.2814 -0.1860
 9394SOL    HW129081   3.304   4.098   6.509 -2.3404 -2.9681  0.2514
 9394SOL    HW229082   3.293   4.021   6.652  1.2014  1.2185  3.0641
 9395SOL     OW29083   4.714   3.515   5.670 -0.4465 -0.2274  0.2820
 9395SOL    HW129084   4.656   3.596   5.684  2.0703  1.4895  1.3416
 9395SOL    HW229085   4.704   3.484   5.575  0.3735  2.9310 -0.9588
 9396SOL     OW29086   1.683   0.416   1.499 -0.3076  0.5786 -0.2650
 9396SOL    HW129087   1.662   0.475   1.421  0.0931  1.4196  0.2529
 9396SOL    HW229088   1.634   0.330   1.489 -1.5567  1.3093 -0.6094
 9397SOL     OW29089   2.103   1.481   1.923 -0.3087  0.2477  0.0717
 9397SOL    HW129090   2.072   1.574   1.942  1.1645  1.0692 -1.3696
 9397SOL    HW229091   2.175   1.457   1.988 -0.9565 -0.0648  0.6944
 9398SOL     OW29092   2.130   3.448   0.828 -0.5077 -0.1801  0.1447
 9398SOL    HW129093   2.159   3.527   0.881  1.9809  0.2665 -1.6983
 9398SOL    HW229094   2.114   3.370   0.889  0.2808  0.8187  1.6793
 9399SOL     OW29095   0.756   6.080   2.989  0.1370  0.0158 -0.2120
 9399SOL    HW129096   0.749   5.984   2.961  0.4740 -0.0531 -0.0679
 9399SOL    HW229097   0.795   6.133   2.914 -1.6142  0.3579 -0.9297
 9400SOL     OW29098   4.467   0.415   3.884 -0.3657  0.7176 -0.2171
 9400SOL    HW129099   4.531   0.346   3.851 -0.4610 -0.0828  1.1872
 9400SOL    HW229100   4.381   0.407   3.835  0.0546  0.7209 -0.9722
 9401SOL     OW29101   6.902   0.469   6.961 -0.0659 -0.1667 -0.5142
 9401SOL    HW129102   6.833   0.426   7.019  1.0225 -0.7123  0.3976
 9401SOL    HW229103   6.863   0.485   6.870 -0.8562 -2.0725 -0.5551
 9402SOL     OW29104   3.187   2.648   6.330 -0.1396 -0.7812  0.0617
 9402SOL    HW129105   3.137   2.703   6.396  1.7720 -0.8404  1.6417
 9402SOL    HW229106   3.207   2.558   6.368  0.5199 -1.0154 -0.7904
 9403SOL     OW29107   5.584   0.196   2.678  0.3635 -0.3150  0.7570
 9403SOL    HW129108   5.618   0.287   2.653  0.5248 -0.5687  0.0169
 9403SOL    HW229109   5.522   0.204   2.757  1.8202  0.1954  1.8864
 9404SOL     OW29110   5.002   3.830   2.369  0.1327 -0.1077  0.1362
 9404SOL    HW129111   5.043   3.867   2.452  1.2116 -0.8351 -0.0485
 9404SOL    HW229112   4.945   3.899   2.326  0.3326  0.5878  0.9731
 9405SOL     OW29113   1.504   0.592   3.099 -0.1838 -0.1302 -0.0519
 9405SOL    HW129114   1.548   0.502   3.098 -0.5427 -0.3222 -1.6178
 9405SOL    HW229115   1.405   0.582   3.089 -0.3463  0.4109  0.8455
 9406SOL     OW29116   1.635   5.311   1.671 -0.2654 -1.1233 -0.6099
 9406SOL    HW129117   1.667   5.248   1.742  0.2728  0.9337  1.0806
 9406SOL    HW229118   1.535   5.314   1.672 -0.2680 -1.2058 -0.0040
 9407SOL     OW29119   6.254   0.200   2.150  0.3215 -0.6856  0.3246
 9407SOL    HW129120   6.180   0.266   2.161  0.0428 -0.2787 -2.8819
 9407SOL    HW229121   6.340   0.240   2.181 -0.0727  0.7061 -0.2999
 9408SOL     OW29122   2.107   0.275   0.506  0.1843 -0.4270 -0.8970
 9408SOL    HW129123   2.203   0.291   0.484  0.4119  0.2775  0.4412
 9408SOL    HW229124   2.054   0.359   0.491  0.3417  0.0724  0.9996
 9409SOL     OW29125   2.688   5.280   1.967  0.2848  0.1614 -0.4677
 9409SOL    HW129126   2.711   5.209   1.901 -1.6490  0.3507 -1.3968
 9409SOL    HW229127   2.589   5.288   1.976  0.4712  1.0262  1.5215
 9410SOL     OW29128   1.077   3.922   6.567 -0.1978 -0.1705  0.0108
 9410SOL    HW129129   1.125   3.952   6.484 -1.8548  1.1841 -0.5041
 9410SOL    HW229130   1.142   3.920   6.643  0.9726  0.2807 -0.9407
 9411SOL     OW29131   3.910   4.827   4.394  0.4054 -1.1555  0.3334
 9411SOL    HW129132   3.904   4.892   4.318 -0.1265 -0.4755  0.9388
 9411SOL    HW229133   3.939   4.738   4.359  0.5831 -0.7490 -0.6005
 9412SOL     OW29134   2.828   0.243   3.266  0.9508 -0.3886 -0.3005
 9412SOL    HW129135   2.853   0.339   3.253  2.3007 -0.6222  0.5137
 9412SOL    HW229136   2.728   0.234   3.256  0.8763  0.9589 -1.1068
 9413SOL     OW29137   5.845   5.580   2.374 -0.2414 -0.0623 -0.1153
 9413SOL    HW129138   5.844   5.510   2.445 -1.5401  0.4006  0.3490
 9413SOL    HW229139   5.753   5.595   2.340 -0.0534  1.6404  0.0099
 9414SOL     OW29140   0.968   4.385   6.400 -0.2730 -0.2598  0.0087
 9414SOL    HW129141   0.952   4.315   6.329  0.6488  0.2813 -0.7459
 9414SOL    HW229142   0.914   4.362   6.481 -1.2657 -0.9585 -0.8199
 9415SOL     OW29143   1.904   0.820   1.981  0.6709  0.0039 -0.0379
 9415SOL    HW129144   1.820   0.778   2.013  1.7894 -1.3502  1.2564
 9415SOL    HW229145   1.949   0.759   1.916  0.4929  0.8876 -1.0196
 9416SOL     OW29146   3.640   2.929   3.685 -0.5275 -0.1289 -0.3405
 9416SOL    HW129147   3.702   2.972   3.620  1.0562 -1.3776  0.2716
 9416SOL    HW229148   3.633   2.831   3.664 -0.1819 -0.5010  1.2047
 9417SOL     OW29149   5.270   5.348   4.602  0.2953 -0.4017  0.1807
 9417SOL    HW129150   5.211   5.374   4.678  0.0316  0.2998 -0.2539
 9417SOL    HW229151   5.254   5.408   4.524 -0.0029 -1.5825 -0.7112
 9418SOL     OW29152   2.819   3.829   0.854  0.2207 -0.1141 -0.8650
 9418SOL    HW129153   2.839   3.869   0.765  0.6203  0.8734 -0.3430
 9418SOL    HW229154   2.904   3.795   0.895  0.4590  1.6527  0.1883
 9419SOL     OW29155   0.134   3.039   0.632  0.5053 -0.5783 -0.6304
 9419SOL    HW129156   0.187   2.970   0.583 -1.4302 -0.9291 -2.3573
 9419SOL    HW229157   0.081   2.995   0.704  1.3644 -0.4376  0.1139
 9420SOL     OW29158   0.968   5.813   1.294 -0.1950 -0.0724  0.0318
 9420SOL    HW129159   1.063   5.830   1.321  0.2732 -0.6828 -1.1786
 9420SOL    HW229160   0.950   5.714   1.295 -1.5172  0.0881  2.4423
 9421SOL     OW29161   2.576   6.481   5.482 -0.0607 -0.3402  0.5981
 9421SOL    HW129162   2.570   6.560   5.542  0.1637 -0.5192  0.8635
 9421SOL    HW229163   2.490   6.469   5.431 -0.3708 -0.3782  1.1274
 9422SOL     OW29164   4.418   0.187   4.714 -0.0798  0.5748  0.0501
 9422SOL    HW129165   4.513   0.202   4.742 -0.1692 -0.3452  0.8801
 9422SOL    HW229166   4.404   0.227   4.623  1.0442  0.8801 -0.0059
 9423SOL     OW29167   1.229   5.988   5.392 -0.1388 -0.5529 -0.2504
 9423SOL    HW129168   1.300   5.979   5.322 -0.4278  1.4243 -0.8345
 9423SOL    HW229169   1.240   5.914   5.459  1.1751 -1.4977 -1.4417
 9424SOL     OW29170   5.916   1.094   6.643 -0.3698 -0.3783 -0.5087
 9424SOL    HW129171   5.975   1.014   6.637  2.8318  1.7678  0.2045
 9424SOL    HW229172   5.922   1.148   6.559  0.3948  0.9081  0.3243
 9425SOL     OW29173   0.958   4.732   3.762 -0.0890 -0.3203  0.7188
 9425SOL    HW129174   0.947   4.683   3.849 -0.6349 -1.5017  0.0056
 9425SOL    HW229175   1.000   4.671   3.695 -0.1147  0.4346  0.0089
 9426SOL     OW29176   4.821   5.626   5.303  0.0776 -0.1744  0.5204
 9426SOL    HW129177   4.860   5.717   5.316 -0.5540 -0.0648  1.7517
 9426SOL    HW229178   4.838   5.596   5.209  0.1537  1.2694  0.0481
 9427SOL     OW29179   0.132   6.898   4.586 -0.2674 -0.5118  0.0938
 9427SOL    HW129180   0.040   6.875   4.553  0.0980 -0.2465 -1.1468
 9427SOL    HW229181   0.127   6.920   4.684 -1.8520  1.2946 -0.3263
 9428SOL     OW29182   1.515   6.923   1.691  0.0813 -0.0211 -0.2431
 9428SOL    HW129183   1.549   6.831   1.670  0.3152 -0.1513  0.6560
 9428SOL    HW229184   1.546   6.987   1.620 -2.1539 -1.0334 -2.2748
 9429SOL     OW29185   1.864   1.327   6.340 -0.1864  0.9248  0.3149
 9429SOL    HW129186   1.890   1.343   6.435  0.8834 -1.4183  0.4844
 9429SOL    HW229187   1.765   1.337   6.330 -0.7048 -1.3168  2.3072
 9430SOL     OW29188   0.138   6.865   3.366  0.1210  0.7141 -0.0207
 9430SOL    HW129189   0.186   6.952   3.360  2.0901 -0.2786  0.6130
 9430SOL    HW229190   0.114   6.846   3.461  0.7216  0.0704  0.0151
 9431SOL     OW29191   5.865   3.858   0.860  0.3684 -0.5330  0.1850
 9431SOL    HW129192   5.792   3.792   0.878 -0.8599  0.3606 -1.3001
 9431SOL    HW229193   5.952   3.821   0.892 -0.4288 -2.4532  0.2575
 9432SOL     OW29194   3.686   1.313   0.636 -0.0956  0.3076 -0.4762
 9432SOL    HW129195   3.647   1.280   0.551  0.2305 -1.8737  0.1512
 9432SOL    HW229196   3.616   1.315   0.707  0.3908 -1.5359  0.1095
 9433SOL     OW29197   5.845   2.543   5.478  0.1328 -0.0151  0.1981
 9433SOL    HW129198   5.859   2.523   5.381 -0.1503  1.6652 -0.2317
 9433SOL    HW229199   5.818   2.460   5.526  0.4148 -0.9074 -1.1264
 9434SOL     OW29200   4.291   6.377   3.397  0.1081  0.5727  0.3994
 9434SOL    HW129201   4.296   6.318   3.477 -0.0194  1.3709  1.0083
 9434SOL    HW229202   4.195   6.398   3.376  0.1628  0.7975  0.3672
 9435SOL     OW29203   1.993   0.760   0.969  0.4301  0.1901  0.0350
 9435SOL    HW129204   2.062   0.688   0.979  0.4602 -0.3495 -3.0254
 9435SOL    HW229205   1.901   0.720   0.977  0.4423  0.2543  0.5493
 9436SOL     OW29206   5.142   1.716   0.960  0.0973 -0.5665 -0.3447
 9436SOL    HW129207   5.105   1.676   1.043  1.3935 -0.3768  0.3612
 9436SOL    HW229208   5.199   1.648   0.913  0.0311 -0.4191 -0.6405
 9437SOL     OW29209   0.582   3.943   0.609  0.2557 -0.0119 -0.3605
 9437SOL    HW129210   0.533   4.021   0.646  1.2435  0.2241  0.4987
 9437SOL    HW229211   0.646   3.974   0.539  0.4495 -0.0937 -0.2185
 9438SOL     OW29212   1.621   2.805   2.306  0.4204 -0.3656 -0.3181
 9438SOL    HW129213   1.633   2.729   2.242 -0.3702  0.2149 -1.1720
 9438SOL    HW229214   1.536   2.853   2.286  0.0069 -0.3344  1.3551
 9439SOL     OW29215   3.289   3.815   2.723 -0.2329  0.1407  0.0353
 9439SOL    HW129216   3.321   3.747   2.788  0.6222 -0.5605 -1.0884
 9439SOL    HW229217   3.273   3.772   2.634 -2.0539  0.9373 -0.0732
 9440SOL     OW29218   4.386   5.813   0.739 -0.1376  0.3030 -0.4929
 9440SOL    HW129219   4.462   5.868   0.705 -0.9708  0.2649 -2.5305
 9440SOL    HW229220   4.341   5.860   0.815  1.6690  0.4788  0.5105
 9441SOL     OW29221   0.382   0.917   5.536 -0.6008 -0.0937 -0.8146
 9441SOL    HW129222   0.408   0.876   5.448 -1.4962  0.1009 -1.1860
 9441SOL    HW229223   0.291   0.885   5.562 -1.3806  1.7034 -1.1809
 9442SOL     OW29224   6.854   5.850   5.698  0.0560 -0.3340 -0.4047
 9442SOL    HW129225   6.837   5.938   5.655  1.9003  0.2618 -0.0089
 9442SOL    HW229226   6.949   5.823   5.683  0.3312 -0.8766  1.8413
 9443SOL     OW29227   2.016   0.081   1.986 -0.5742  0.4178  0.2499
 9443SOL    HW129228   1.934   0.120   1.943 -0.3651 -0.1418 -0.6930
 9443SOL    HW229229   2.047   0.003   1.932  1.1962  1.2577 -0.0008
 9444SOL     OW29230   3.590   3.261   5.888  0.0463  0.1848 -0.5566
 9444SOL    HW129231   3.498   3.240   5.855 -0.3391 -0.5125  0.8810
 9444SOL    HW229232   3.657   3.204   5.840 -0.2924  0.4441 -1.3537
 9445SOL     OW29233   4.955   4.362   5.312  0.6648 -0.7653 -0.1941
 9445SOL    HW129234   5.048   4.347   5.345  0.4868 -3.7152 -0.7109
 9445SOL    HW229235   4.955   4.364   5.212  0.3667  1.2954 -0.1932
 9446SOL     OW29236   3.937   2.315   6.545  0.4316  0.3783 -0.8028
 9446SOL    HW129237   3.901   2.402   6.580 -1.6033 -0.9787  0.7110
 9446SOL    HW229238   3.869   2.273   6.485  0.6871 -0.9182 -0.2071
 9447SOL     OW29239   6.947   2.412   3.052  0.0081  0.4639 -0.0059
 9447SOL    HW129240   6.941   2.481   2.980  3.4091 -0.1878 -1.1057
 9447SOL    HW229241   6.900   2.329   3.023  2.8860 -0.4889 -2.5883
 9448SOL     OW29242   2.837   2.250   3.512  0.0854 -0.1199  0.2835
 9448SOL    HW129243   2.772   2.325   3.503  0.8608  0.6892  1.1812
 9448SOL    HW229244   2.796   2.165   3.478 -0.7426  0.7298 -0.8949
 9449SOL     OW29245   6.528   3.057   4.503 -0.2571  0.3826  0.4259
 9449SOL    HW129246   6.628   3.061   4.501 -0.2273  0.6647  1.6775
 9449SOL    HW229247   6.491   3.138   4.457  0.0868  0.2145 -0.1533
 9450SOL     OW29248   3.087   1.011   6.834 -0.4960  0.4801  0.2557
 9450SOL    HW129249   3.080   0.919   6.794 -1.2788  0.6699 -0.0748
 9450SOL    HW229250   3.148   1.067   6.778 -1.0957  0.5593 -0.3342
 9451SOL     OW29251   3.012   3.849   5.668 -0.0052 -0.1471  0.0141
 9451SOL    HW129252   2.943   3.798   5.616  0.0685 -0.0253 -0.2002
 9451SOL    HW229253   2.979   3.861   5.762  0.2490 -1.1389  0.2456
 9452SOL     OW29254   6.397   5.788   3.345 -0.3179  0.3019  0.0010
 9452SOL    HW129255   6.458   5.853   3.391  0.0093 -1.4571  2.2102
 9452SOL    HW229256   6.323   5.838   3.300  0.5199  2.2498  0.6753
 9453SOL     OW29257   6.307   5.314   1.589  0.1398  0.4605  0.0923
 9453SOL    HW129258   6.377   5.270   1.646 -0.0664  1.4818  1.1863
 9453SOL    HW229259   6.315   5.414   1.598 -0.4482  0.6249 -1.0273
 9454SOL     OW29260   3.445   6.768   5.531 -0.1397 -0.1067  0.4019
 9454SOL    HW129261   3.524   6.816   5.568 -0.2363  1.7369 -1.5497
 9454SOL    HW229262   3.362   6.820   5.551 -0.4955 -0.4902 -0.0410
 9455SOL     OW29263   0.814   0.836   1.377 -0.2047  0.7128  0.3120
 9455SOL    HW129264   0.862   0.843   1.289  0.4815 -0.9110  0.5185
 9455SOL    HW229265   0.731   0.782   1.366 -1.5669  2.7060  0.1644
 9456SOL     OW29266   0.386   4.902   5.885  0.0882 -0.1499 -0.1748
 9456SOL    HW129267   0.382   4.985   5.830 -0.2294 -0.0399  0.0111
 9456SOL    HW229268   0.332   4.914   5.969 -0.4964 -0.7666 -0.4516
 9457SOL     OW29269   6.977   2.275   6.678 -0.0847  0.4994  0.6480
 9457SOL    HW129270   7.043   2.204   6.655 -0.5983 -0.1019  1.0162
 9457SOL    HW229271   6.932   2.307   6.594  2.0742  2.3750  0.0764
 9458SOL     OW29272   2.183   1.052   1.254  0.5172 -0.6082 -0.5670
 9458SOL    HW129273   2.086   1.031   1.263  0.1227  0.6774 -1.6045
 9458SOL    HW229274   2.227   1.042   1.344 -0.0529 -3.4946 -0.5068
 9459SOL     OW29275   2.113   3.231   6.070  0.2175  0.0827  0.3879
 9459SOL    HW129276   2.177   3.195   6.138 -0.3055  0.2623  0.9849
 9459SOL    HW229277   2.163   3.256   5.987  0.8221 -0.4103  0.5976
 9460SOL     OW29278   0.821   4.676   6.528  0.3447  0.2486 -0.0749
 9460SOL    HW129279   0.852   4.618   6.603 -2.5312 -0.3626  0.7489
 9460SOL    HW229280   0.813   4.621   6.445 -0.5760 -0.1334  0.2515
 9461SOL     OW29281   0.255   1.380   1.702 -0.2009  0.0637  0.2019
 9461SOL    HW129282   0.267   1.479   1.703 -0.2164  0.0621  1.1150
 9461SOL    HW229283   0.335   1.336   1.742 -1.0328 -0.1840  1.6711
 9462SOL     OW29284   2.080   1.413   3.253 -0.5417  0.1793  0.0119
 9462SOL    HW129285   2.171   1.430   3.291 -0.4606 -0.1749 -0.0203
 9462SOL    HW229286   2.046   1.326   3.287 -0.3055 -0.3300 -1.0271
 9463SOL     OW29287   1.566   4.586   1.109  0.3784  0.0231 -0.2992
 9463SOL    HW129288   1.651   4.546   1.075 -0.8226 -1.0705 -2.1807
 9463SOL    HW229289   1.538   4.540   1.193  0.6621 -0.9361 -0.7179
 9464SOL     OW29290   2.169   0.111   2.840  0.2843  0.2416 -0.2788
 9464SOL    HW129291   2.145   0.015   2.822  1.3446 -0.2285  0.7086
 9464SOL    HW229292   2.204   0.153   2.756  0.5152 -0.4526 -0.5387
 9465SOL     OW29293   1.864   6.397   0.070  0.4796 -0.0551  0.3127
 9465SOL    HW129294   1.887   6.488   0.034  0.1027  0.4496  1.2935
 9465SOL    HW229295   1.770   6.398   0.105  0.6426 -0.6759  0.7791
 9466SOL     OW29296   4.369   6.273   3.115 -0.1939  0.4117 -0.1286
 9466SOL    HW129297   4.331   6.293   3.205 -1.9822 -0.2635 -0.6784
 9466SOL    HW229298   4.384   6.358   3.065 -1.3129  0.6985  0.0054
 9467SOL     OW29299   3.550   0.022   1.878  0.2604  0.0562 -0.1458
 9467SOL    HW129300   3.607  -0.029   1.942  1.4455  2.2578  0.6800
 9467SOL    HW229301   3.538  -0.030   1.794  0.5537 -1.9455  0.9843
 9468SOL     OW29302   0.367   3.617   6.811 -0.1193  0.2493 -0.5192
 9468SOL    HW129303   0.387   3.680   6.886 -1.8843 -0.1994  0.3657
 9468SOL    HW229304   0.402   3.526   6.834  0.0905  0.2969 -0.6391
 9469SOL     OW29305   0.696   5.775   3.787 -0.1371 -0.0997 -0.3613
 9469SOL    HW129306   0.719   5.747   3.695  0.6431 -1.0744  0.1197
 9469SOL    HW229307   0.761   5.736   3.852 -1.5495 -0.6946  0.7588
 9470SOL     OW29308   1.634   3.915   6.360  0.7323 -0.1497 -0.2649
 9470SOL    HW129309   1.554   3.867   6.324  0.7918  0.2750 -0.9680
 9470SOL    HW229310   1.714   3.892   6.306  0.7942  0.5987 -0.4930
 9471SOL     OW29311   0.769   2.048   0.460  0.3629 -0.7565 -0.1556
 9471SOL    HW129312   0.852   2.101   0.446 -0.8745  1.3134 -0.1041
 9471SOL    HW229313   0.743   2.050   0.557 -0.1403 -0.7480 -0.2849
 9472SOL     OW29314   3.577   0.976   4.098 -0.1110 -0.2398 -0.6239
 9472SOL    HW129315   3.542   0.947   4.009 -0.2729  1.0772 -1.0098
 9472SOL    HW229316   3.637   1.055   4.086 -1.6552  1.2022  0.5730
 9473SOL     OW29317   6.498   0.124   5.157  0.3272  0.4943 -0.2761
 9473SOL    HW129318   6.594   0.146   5.177  0.3033  0.7668 -0.4630
 9473SOL    HW229319   6.487   0.024   5.152  1.1259  0.4818 -2.8384
 9474SOL     OW29320   2.750   2.609   6.119 -0.3070 -0.0589  0.1757
 9474SOL    HW129321   2.827   2.623   6.057 -0.5651  0.0638 -0.1281
 9474SOL    HW229322   2.664   2.619   6.067 -0.5273  0.0554  0.5570
 9475SOL     OW29323   6.283   6.600   3.528  0.2075  0.1144 -0.0459
 9475SOL    HW129324   6.366   6.655   3.531  0.0614  0.3941 -0.8781
 9475SOL    HW229325   6.219   6.632   3.599  0.6288  0.1772  0.3111
 9476SOL     OW29326   6.288   4.290   5.740  1.1888  0.3652 -0.4915
 9476SOL    HW129327   6.290   4.289   5.640  0.1822 -2.4383 -0.5721
 9476SOL    HW229328   6.368   4.243   5.776  0.4751 -0.5624 -0.0742
 9477SOL     OW29329   5.355   4.121   3.048  0.5033 -0.1690  0.1817
 9477SOL    HW129330   5.397   4.205   3.013  1.9564 -0.2805  1.5397
 9477SOL    HW229331   5.415   4.043   3.029 -0.2018 -0.7029  0.1020
 9478SOL     OW29332   0.645   3.905   3.686 -0.6074 -0.1164 -0.4380
 9478SOL    HW129333   0.647   3.919   3.587  1.7942  2.4284 -0.1785
 9478SOL    HW229334   0.582   3.972   3.728  0.2198  0.4921 -0.1277
 9479SOL     OW29335   2.244   2.632   1.176 -0.0157  0.3085  0.2295
 9479SOL    HW129336   2.212   2.701   1.112 -0.1924  0.7328  0.7612
 9479SOL    HW229337   2.344   2.624   1.169 -0.0846 -0.0129 -0.4442
 9480SOL     OW29338   4.927   3.659   5.798  0.3012 -0.2942 -0.2739
 9480SOL    HW129339   4.854   3.728   5.802  0.3254 -0.2983  0.4916
 9480SOL    HW229340   4.888   3.569   5.780 -0.2563 -0.7550  2.6679
 9481SOL     OW29341   2.046   5.770   6.106  0.1120 -0.0517  0.4116
 9481SOL    HW129342   2.100   5.850   6.134  2.4246 -1.1948 -0.5425
 9481SOL    HW229343   2.043   5.704   6.180 -3.9708  1.7775  2.2080
 9482SOL     OW29344   5.925   1.704   2.250  0.2113 -0.4280 -0.6124
 9482SOL    HW129345   5.835   1.713   2.294  0.6138  2.5197 -0.2376
 9482SOL    HW229346   5.941   1.607   2.228 -2.1961 -1.3010  1.0444
 9483SOL     OW29347   5.460   2.058   0.633 -0.0997 -0.0167 -0.0856
 9483SOL    HW129348   5.491   2.048   0.727 -0.3025  1.0402  0.1055
 9483SOL    HW229349   5.379   2.002   0.618 -0.4630  0.3282  0.5629
 9484SOL     OW29350   5.575   4.823   5.660  0.0832  0.2774  0.0034
 9484SOL    HW129351   5.513   4.745   5.671 -0.1282  0.6400  1.7040
 9484SOL    HW229352   5.643   4.822   5.734 -1.5916  3.1759  1.7454
 9485SOL     OW29353   3.179   2.905   6.745  0.1009  0.1563 -0.1594
 9485SOL    HW129354   3.191   2.927   6.842 -1.3664  2.0969 -0.3715
 9485SOL    HW229355   3.264   2.923   6.696  0.4854  0.3326  0.5557
 9486SOL     OW29356   6.518   1.802   0.316 -0.2275  0.1131 -0.0478
 9486SOL    HW129357   6.435   1.788   0.263  0.6047 -1.1774 -1.0730
 9486SOL    HW229358   6.494   1.824   0.411 -1.7211  0.2648 -0.4393
 9487SOL     OW29359   0.825   4.109   6.992 -0.3893 -0.0102  0.1202
 9487SOL    HW129360   0.844   4.160   6.908 -2.0654  0.3909 -0.0569
 9487SOL    HW229361   0.855   4.014   6.981 -0.4283  0.0764 -0.8822
 9488SOL     OW29362   0.147   1.234   2.418 -1.0280 -0.6894 -0.5221
 9488SOL    HW129363   0.200   1.170   2.473  1.7403  0.5397 -1.5471
 9488SOL    HW229364   0.135   1.197   2.325 -0.0612 -0.0874 -0.9023
 9489SOL     OW29365   3.700   5.038   0.150 -0.4005 -0.1431 -0.2911
 9489SOL    HW129366   3.787   5.039   0.199  0.7144  0.9900 -2.1606
 9489SOL    HW229367   3.673   4.943   0.133  0.7604 -0.5148 -0.1605
 9490SOL     OW29368   5.574   1.316   4.600  0.0396  0.0384  0.6436
 9490SOL    HW129369   5.563   1.304   4.699 -1.3968 -0.5285  0.4431
 9490SOL    HW229370   5.597   1.411   4.580 -1.0468  0.4939  1.4432
 9491SOL     OW29371   2.401   6.225   4.890 -0.2284  0.7409 -0.0106
 9491SOL    HW129372   2.438   6.278   4.966  0.3813 -0.3892  0.5195
 9491SOL    HW229373   2.475   6.175   4.846 -0.8403 -0.0183 -0.1960
 9492SOL     OW29374   6.629   3.731   5.438 -0.0611  0.8039 -0.3192
 9492SOL    HW129375   6.625   3.669   5.516 -0.4434  0.5932 -0.5074
 9492SOL    HW229376   6.635   3.679   5.354  1.4899  1.0296 -0.3824
 9493SOL     OW29377   5.365   2.586   3.079  0.1084 -0.3799 -0.1961
 9493SOL    HW129378   5.367   2.669   3.024  1.1251  0.2836  0.8018
 9493SOL    HW229379   5.351   2.609   3.175  0.9166 -1.3161  0.1704
 9494SOL     OW29380   0.922   3.527   6.011 -0.2298 -0.1321  0.7302
 9494SOL    HW129381   0.874   3.450   5.969 -0.8917  0.7654 -0.2106
 9494SOL    HW229382   1.013   3.498   6.040  0.7188 -0.5882 -2.3207
 9495SOL     OW29383   5.129   6.573   4.358 -0.4318  0.1389  0.2233
 9495SOL    HW129384   5.163   6.575   4.264  2.1627  0.4594  1.0989
 9495SOL    HW229385   5.116   6.666   4.391  0.0273  0.0574  0.6366
 9496SOL     OW29386   2.152   3.575   2.283 -0.3122  0.4101  0.6322
 9496SOL    HW129387   2.170   3.673   2.288 -0.3516  0.4323  0.3560
 9496SOL    HW229388   2.175   3.541   2.192  0.1043  0.0808  0.8513
 9497SOL     OW29389   0.327   0.071   3.282 -0.6585  0.1530  0.3609
 9497SOL    HW129390   0.294   0.002   3.217 -1.3880 -0.5541  1.4557
 9497SOL    HW229391   0.323   0.161   3.239  0.5179 -0.4840 -1.1723
 9498SOL     OW29392   2.026   3.957   2.587  0.0521 -0.0303 -0.0682
 9498SOL    HW129393   2.066   3.866   2.578 -0.1574 -0.2702  1.1672
 9498SOL    HW229394   2.078   4.009   2.655 -0.3037  0.4944 -0.1951
 9499SOL     OW29395   4.246   5.661   6.188 -0.2117 -0.4547  0.4136
 9499SOL    HW129396   4.263   5.573   6.144 -0.5746  0.4639 -1.6507
 9499SOL    HW229397   4.198   5.646   6.274 -1.3497 -2.2297 -0.4749
 9500SOL     OW29398   5.959   1.364   5.109  0.0673 -0.2925 -0.4662
 9500SOL    HW129399   6.036   1.334   5.165  0.5037 -0.5316 -1.1849
 9500SOL    HW229400   5.880   1.382   5.168  0.5513 -0.4211  0.2352
 9501SOL     OW29401   1.354   5.168   0.546 -0.0173  0.1814 -0.4404
 9501SOL    HW129402   1.307   5.106   0.608  0.5003  0.9967  0.8085
 9501SOL    HW229403   1.310   5.166   0.456 -0.9648 -0.7997  0.0312
 9502SOL     OW29404   0.262   4.977   1.094 -0.2216  0.3024 -0.5537
 9502SOL    HW129405   0.267   4.927   1.007 -1.4164 -0.0960 -0.4184
 9502SOL    HW229406   0.175   5.026   1.099 -0.3562 -0.0188  0.5804
 9503SOL     OW29407   2.335   1.560   4.405 -1.3557  0.1966  0.4171
 9503SOL    HW129408   2.431   1.570   4.431 -1.2620  0.1837  0.0846
 9503SOL    HW229409   2.298   1.650   4.380 -1.3621  0.1655  0.3143
 9504SOL     OW29410   1.695   3.006   5.009 -0.0998 -0.6093  0.0757
 9504SOL    HW129411   1.769   2.940   5.001 -0.3649 -0.7598 -1.4104
 9504SOL    HW229412   1.669   3.038   4.918 -1.1801  0.2027  0.6471
 9505SOL     OW29413   0.667   2.008   0.715  0.3647  0.0379  0.4628
 9505SOL    HW129414   0.617   1.923   0.695  1.4652 -0.1217 -1.9572
 9505SOL    HW229415   0.727   1.994   0.793  0.1034 -1.2220  0.4558
 9506SOL     OW29416   3.664   6.887   5.651  0.2860 -0.1286 -0.3400
 9506SOL    HW129417   3.648   6.943   5.569  0.8954  1.0497  0.3116
 9506SOL    HW229418   3.761   6.888   5.673  0.0387  0.2015  0.8168
 9507SOL     OW29419   1.903   0.656   3.967 -0.3199 -0.3351 -0.0839
 9507SOL    HW129420   1.868   0.563   3.962 -0.3216 -0.2567 -2.2600
 9507SOL    HW229421   1.829   0.721   3.951  0.3218 -0.1109 -2.4738
 9508SOL     OW29422   3.401   0.039   0.119  0.1567  0.4260  0.2589
 9508SOL    HW129423   3.401   0.031   0.218 -1.2408 -1.5596  0.1538
 9508SOL    HW229424   3.370   0.130   0.093  0.5625  0.9735  1.6297
 9509SOL     OW29425   6.923   3.883   2.786  0.1947 -0.2893 -0.8589
 9509SOL    HW129426   6.990   3.828   2.835  1.3810 -0.2922 -2.3914
 9509SOL    HW229427   6.831   3.859   2.816  0.8552  0.8130  2.4514
 9510SOL     OW29428   5.754   4.149   3.628 -0.1826 -0.2354  0.2475
 9510SOL    HW129429   5.850   4.174   3.645  0.2655 -0.7807 -1.3384
 9510SOL    HW229430   5.744   4.117   3.534 -1.5163 -2.2206  0.9917
 9511SOL     OW29431   1.236   0.767   3.256  0.4161 -0.0561 -0.1064
 9511SOL    HW129432   1.185   0.784   3.340  1.4280  0.3619  0.4336
 9511SOL    HW229433   1.194   0.818   3.181  0.5648  1.0287  0.5220
 9512SOL     OW29434   1.176   4.569   5.510  0.2362  0.5723 -0.2863
 9512SOL    HW129435   1.249   4.535   5.570 -1.2667  0.2004  1.4211
 9512SOL    HW229436   1.128   4.644   5.556 -1.7260 -0.5096 -0.4896
 9513SOL     OW29437   3.729   1.441   5.312  0.1418  0.1325 -0.6640
 9513SOL    HW129438   3.693   1.386   5.237  0.9760  1.1515 -1.8590
 9513SOL    HW229439   3.663   1.443   5.387 -0.8423 -0.6611 -1.4859
 9514SOL     OW29440   1.100   1.631   5.720  0.2342  0.1329  0.2311
 9514SOL    HW129441   1.155   1.715   5.712 -1.1059  0.9939 -0.2806
 9514SOL    HW229442   1.158   1.552   5.700  0.7261  1.1657 -3.0912
 9515SOL     OW29443   4.657   5.743   6.388 -0.3708 -0.1318  0.6870
 9515SOL    HW129444   4.677   5.655   6.344 -3.1129  0.9512 -3.3054
 9515SOL    HW229445   4.743   5.788   6.413  1.3157 -2.2629 -0.8357
 9516SOL     OW29446   6.170   3.258   4.338  0.2061 -0.2716  0.2611
 9516SOL    HW129447   6.139   3.351   4.358  1.2840  0.2422 -0.4009
 9516SOL    HW229448   6.138   3.230   4.247 -0.4156 -0.6940  0.6010
 9517SOL     OW29449   5.477   6.488   5.530  0.5178 -0.0339 -0.4855
 9517SOL    HW129450   5.420   6.460   5.608  2.0811 -1.2025  0.2916
 9517SOL    HW229451   5.421   6.493   5.448 -1.2774  1.6282  0.7489
 9518SOL     OW29452   2.215   4.906   1.524 -0.1586 -0.7422 -0.1267
 9518SOL    HW129453   2.197   4.902   1.622  0.5125 -1.0488 -0.0162
 9518SOL    HW229454   2.128   4.914   1.475 -0.4104  1.8630  0.6039
 9519SOL     OW29455   3.054   0.906   4.181 -0.1006 -0.0233  0.1455
 9519SOL    HW129456   3.038   0.991   4.132 -1.6244 -0.5429 -0.3100
 9519SOL    HW229457   3.152   0.892   4.192  0.1883  1.4239 -0.4082
 9520SOL     OW29458   3.988   5.033   5.979  0.0064  0.2994  0.1310
 9520SOL    HW129459   4.032   4.967   6.040  1.6310 -0.4739 -1.7942
 9520SOL    HW229460   3.906   4.992   5.940  2.1288 -1.5945 -2.7278
 9521SOL     OW29461   4.416   4.829   6.393  0.0876 -0.5521 -0.5101
 9521SOL    HW129462   4.317   4.822   6.390 -0.0310  0.9330 -0.9987
 9521SOL    HW229463   4.443   4.921   6.421  1.3088 -0.5343 -1.6198
 9522SOL     OW29464   4.745   1.368   6.469 -0.6310 -0.1321 -0.5288
 9522SOL    HW129465   4.743   1.297   6.399 -1.0934  1.9156 -2.7025
 9522SOL    HW229466   4.809   1.440   6.442 -0.4245  0.4872  1.4462
 9523SOL     OW29467   1.270   2.005   4.200 -0.3695  0.1265 -0.0680
 9523SOL    HW129468   1.175   2.003   4.231 -0.6516 -0.0416 -0.9109
 9523SOL    HW229469   1.314   1.918   4.222 -0.9746 -0.5286 -1.3381
 9524SOL     OW29470   6.162   3.921   5.873  0.2708 -0.2256 -0.5160
 9524SOL    HW129471   6.243   3.884   5.919 -0.3085 -1.8457 -0.7363
 9524SOL    HW229472   6.180   3.930   5.775  0.6620  0.8298 -0.3586
 9525SOL     OW29473   1.004   3.868   2.802  0.0767  0.4347 -0.2797
 9525SOL    HW129474   1.049   3.826   2.723 -1.4341  0.3545 -1.1414
 9525SOL    HW229475   0.959   3.952   2.773 -1.2464 -0.0591  0.2674
 9526SOL     OW29476   5.708   3.597   1.163 -0.2825  0.3189  0.2068
 9526SOL    HW129477   5.698   3.620   1.066  1.5468  0.7080  0.0659
 9526SOL    HW229478   5.627   3.549   1.195 -0.8403  0.0162 -1.5722
 9527SOL     OW29479   3.894   1.510   7.022 -0.0945 -0.5239  0.2868
 9527SOL    HW129480   3.806   1.556   7.029  0.7513  0.9554  2.4407
 9527SOL    HW229481   3.881   1.416   6.991 -2.1374  0.3719 -1.8398
 9528SOL     OW29482   5.771   1.086   2.427  0.9868  0.0234 -0.0447
 9528SOL    HW129483   5.858   1.043   2.451  0.8277 -0.5908 -0.5501
 9528SOL    HW229484   5.754   1.076   2.329 -0.6523 -1.7604  0.3652
 9529SOL     OW29485   4.427   1.673   0.834 -0.3952  0.3840 -0.0306
 9529SOL    HW129486   4.417   1.573   0.834 -3.0427  0.5790  0.0930
 9529SOL    HW229487   4.406   1.709   0.744 -0.5841  0.9170  0.2210
 9530SOL     OW29488   0.516   6.835   1.759 -0.0610  0.0165 -0.4055
 9530SOL    HW129489   0.498   6.869   1.667  3.7642 -1.4835 -1.9165
 9530SOL    HW229490   0.573   6.901   1.808 -0.9855  0.1998  0.4678
 9531SOL     OW29491   3.960   5.461   0.548 -0.5679  0.2394  0.2972
 9531SOL    HW129492   3.965   5.435   0.645 -0.1469  2.8494  1.0302
 9531SOL    HW229493   3.866   5.486   0.525 -0.7386 -0.7014 -0.1117
 9532SOL     OW29494   5.356   4.160   5.778  0.5743  0.3437 -0.5155
 9532SOL    HW129495   5.264   4.155   5.741 -0.3126 -0.1356  1.6362
 9532SOL    HW229496   5.360   4.228   5.851  1.5995 -0.4708  0.2272
 9533SOL     OW29497   0.504   6.829   2.609 -1.1547  0.1403  0.2181
 9533SOL    HW129498   0.468   6.755   2.552 -0.5835  1.0710 -1.4032
 9533SOL    HW229499   0.575   6.794   2.670 -1.4932 -0.7978  0.0761
 9534SOL     OW29500   0.937   1.303   1.641  0.1385  0.3359 -0.4802
 9534SOL    HW129501   0.933   1.225   1.579 -0.2270  0.7358 -0.9670
 9534SOL    HW229502   0.844   1.334   1.662  0.2983  1.2936 -1.1249
 9535SOL     OW29503   6.751   2.312   4.784  0.1415 -0.4458  0.0875
 9535SOL    HW129504   6.784   2.224   4.751 -0.6147 -2.0111  3.1075
 9535SOL    HW229505   6.792   2.332   4.873 -0.9953  1.4505  0.2453
 9536SOL     OW29506   2.891   6.252   4.319  0.2796  0.1886 -0.6564
 9536SOL    HW129507   2.981   6.294   4.330  0.6532 -0.9734  1.3970
 9536SOL    HW229508   2.901   6.163   4.275  0.2649 -0.2298  0.1507
 9537SOL     OW29509   0.408   5.467   0.423 -0.3109  0.1186  0.0733
 9537SOL    HW129510   0.399   5.372   0.394 -0.4407  0.0757  0.2513
 9537SOL    HW229511   0.380   5.475   0.519  0.3762  0.2057  0.2733
 9538SOL     OW29512   6.231   6.317   1.344  0.2006  0.0292  0.1279
 9538SOL    HW129513   6.224   6.243   1.411 -1.1086 -0.8543 -0.9226
 9538SOL    HW229514   6.322   6.357   1.347  0.9758 -1.6997  0.6627
 9539SOL     OW29515   5.034   0.606   0.867  0.5733  0.1937 -0.6968
 9539SOL    HW129516   5.041   0.525   0.809 -0.7645 -0.1609 -0.4018
 9539SOL    HW229517   4.997   0.682   0.813 -2.5039 -0.6392  0.0386
 9540SOL     OW29518   0.241   3.991   3.580 -0.0375  0.1211 -0.2260
 9540SOL    HW129519   0.206   3.919   3.520 -1.4269  0.4661  0.1143
 9540SOL    HW229520   0.283   3.950   3.660  0.9952 -0.3297 -0.9814
 9541SOL     OW29521   1.009   5.593   3.374  0.1955  0.0946  0.0138
 9541SOL    HW129522   0.947   5.515   3.372  0.6087 -0.3201  1.7236
 9541SOL    HW229523   1.038   5.615   3.281  0.3741 -2.0290 -0.4766
 9542SOL     OW29524   6.811   5.434   0.831 -0.0578  0.2047 -0.1510
 9542SOL    HW129525   6.814   5.491   0.749 -0.2952 -1.7116 -1.5843
 9542SOL    HW229526   6.724   5.384   0.832 -0.4861  0.9114  1.8269
 9543SOL     OW29527   3.570   3.955   6.586 -0.3226  0.3816 -0.1624
 9543SOL    HW129528   3.562   3.873   6.529  0.3736 -0.3983  0.8301
 9543SOL    HW229529   3.496   4.018   6.563  1.0500  1.0294 -3.3647
 9544SOL     OW29530   3.248   6.269   4.953  0.2201 -0.1661  0.7273
 9544SOL    HW129531   3.238   6.198   5.022 -0.6434  0.6629  1.4799
 9544SOL    HW229532   3.346   6.290   4.940  0.4585 -1.2256  0.7407
 9545SOL     OW29533   0.671   3.048   3.267 -0.4358 -0.1401  0.4093
 9545SOL    HW129534   0.601   3.112   3.298  0.0199  0.7284 -0.3037
 9545SOL    HW229535   0.627   2.965   3.233 -1.2126  0.7995 -1.0004
 9546SOL     OW29536   1.895   5.446   4.946  0.0085 -0.3340 -0.3567
 9546SOL    HW129537   1.943   5.359   4.945 -0.9881 -0.9136  0.5240
 9546SOL    HW229538   1.856   5.462   5.037 -3.2135 -0.8911 -1.5236
 9547SOL     OW29539   2.933   3.947   5.005 -0.1104 -0.5100 -0.4237
 9547SOL    HW129540   2.958   3.857   4.969 -0.8744 -0.6394 -0.6613
 9547SOL    HW229541   2.833   3.959   4.999 -0.0776  0.1251  0.1347
 9548SOL     OW29542   0.079   3.227   3.701 -0.3651 -0.1640  0.9059
 9548SOL    HW129543   0.077   3.327   3.690  0.1941 -0.4164 -2.6112
 9548SOL    HW229544  -0.010   3.189   3.679 -0.8129 -0.4826  3.0191
 9549SOL     OW29545   0.705   5.488   4.433  0.1663 -0.4422  0.0313
 9549SOL    HW129546   0.761   5.407   4.420  0.6118 -0.0699 -0.3868
 9549SOL    HW229547   0.646   5.475   4.513  1.8841 -0.2831  1.3865
 9550SOL     OW29548   2.504   0.586   6.050  0.7239 -0.4254  0.5990
 9550SOL    HW129549   2.569   0.623   5.984  0.5048  0.1737  0.7142
 9550SOL    HW229550   2.495   0.487   6.036  1.0899 -0.3927  0.0967
 9551SOL     OW29551   3.205   6.511   5.310 -0.4347 -0.5131 -0.3398
 9551SOL    HW129552   3.215   6.588   5.247  0.4289  0.7634  1.2969
 9551SOL    HW229553   3.294   6.488   5.350 -1.1841 -0.1675  1.6588
 9552SOL     OW29554   4.859   3.243   2.659  0.4768  0.0072  0.4081
 9552SOL    HW129555   4.868   3.343   2.664  2.2610 -0.1852  2.2832
 9552SOL    HW229556   4.857   3.206   2.752  1.3115 -1.8096 -0.2620
 9553SOL     OW29557   6.107   1.207   3.275  0.5178  0.0213  0.5140
 9553SOL    HW129558   6.201   1.222   3.304  1.1342 -1.6121 -0.5187
 9553SOL    HW229559   6.099   1.221   3.177 -0.0080 -1.1266  0.3774
 9554SOL     OW29560   4.516   4.663   3.213  0.1495 -0.8405 -0.6733
 9554SOL    HW129561   4.453   4.669   3.291  0.2654  0.6277 -0.6737
 9554SOL    HW229562   4.535   4.566   3.194  0.2468 -1.2334  1.2209
 9555SOL     OW29563   5.604   2.700   5.458  0.2011  0.2616  0.3885
 9555SOL    HW129564   5.537   2.679   5.530 -0.7342 -0.8369 -0.7338
 9555SOL    HW229565   5.689   2.650   5.476 -0.1418 -0.2674  0.5677
 9556SOL     OW29566   0.677   1.719   5.075  0.2114  0.3627 -0.1552
 9556SOL    HW129567   0.770   1.754   5.062 -0.1958  1.7673  0.4860
 9556SOL    HW229568   0.619   1.793   5.110 -1.2720 -0.3609 -1.0126
 9557SOL     OW29569   6.267   2.843   6.225 -0.0600  0.3616 -0.2428
 9557SOL    HW129570   6.320   2.905   6.168  0.8002  0.7601  0.9665
 9557SOL    HW229571   6.169   2.858   6.208  0.1616  0.0714 -2.0004
 9558SOL     OW29572   6.657   0.873   2.555  0.4945 -0.0625 -0.6923
 9558SOL    HW129573   6.565   0.895   2.585  0.1027  1.3854 -2.7262
 9558SOL    HW229574   6.682   0.932   2.478  2.8950 -0.8332 -0.5974
 9559SOL     OW29575   0.966   1.570   3.670  0.3728  0.4655 -0.6233
 9559SOL    HW129576   0.989   1.483   3.626 -0.0535  0.1008 -0.1286
 9559SOL    HW229577   0.914   1.553   3.753 -1.9863  1.2564 -1.8544
 9560SOL     OW29578   0.372   4.184   0.249  0.3053  0.0046  0.1612
 9560SOL    HW129579   0.279   4.198   0.215 -0.2152  1.7676  2.1459
 9560SOL    HW229580   0.430   4.154   0.173 -1.0010  2.6167 -2.0487
 9561SOL     OW29581   0.029   0.073   2.619  0.0720 -0.0478 -0.0842
 9561SOL    HW129582   0.041   0.092   2.717  1.0365 -0.5906 -0.0907
 9561SOL    HW229583   0.090  -0.001   2.591  0.2387  0.5031 -1.2297
 9562SOL     OW29584   1.806   2.790   6.485 -0.2325  0.4681 -0.2417
 9562SOL    HW129585   1.881   2.813   6.547 -0.5146  0.6814  0.0247
 9562SOL    HW229586   1.842   2.743   6.405  0.2165  0.8078 -0.2430
 9563SOL     OW29587   6.555   4.895   2.088 -0.4566 -0.0871  0.3484
 9563SOL    HW129588   6.605   4.981   2.098 -2.2065  1.0772 -0.4416
 9563SOL    HW229589   6.545   4.851   2.177 -1.0595  1.4244  1.0434
 9564SOL     OW29590   1.097   5.595   2.338  0.1320  0.6609  0.2528
 9564SOL    HW129591   1.113   5.672   2.400  1.7617 -1.7055  3.0136
 9564SOL    HW229592   1.079   5.512   2.392 -1.9106 -0.9131 -2.5753
 9565SOL     OW29593   5.205   3.864   3.857  0.7060  0.0722 -0.4803
 9565SOL    HW129594   5.254   3.925   3.919  0.8803  1.5895 -2.0302
 9565SOL    HW229595   5.264   3.789   3.830  1.2787  0.4532 -0.2968
 9566SOL     OW29596   6.726   3.352   6.636  0.1835 -0.0947 -0.0311
 9566SOL    HW129597   6.649   3.289   6.642 -0.2601  0.1697 -2.0915
 9566SOL    HW229598   6.732   3.406   6.720 -1.3123 -0.7499  0.5257
 9567SOL     OW29599   6.667   0.572   6.779  0.0440 -0.3622 -0.0297
 9567SOL    HW129600   6.663   0.656   6.725  0.1541  0.3360  1.0153
 9567SOL    HW229601   6.628   0.589   6.869 -0.8395 -1.7111 -0.1327
 9568SOL     OW29602   2.546   4.927   2.119 -0.1668  0.4607  0.3674
 9568SOL    HW129603   2.507   4.850   2.170  0.6799  0.9473  1.7954
 9568SOL    HW229604   2.646   4.921   2.120 -0.1134  1.0763 -0.3062
 9569SOL     OW29605   0.184   1.702   5.917 -0.7576 -0.2926  0.2796
 9569SOL    HW129606   0.195   1.692   5.818  0.5215 -0.3525  0.4070
 9569SOL    HW229607   0.275   1.708   5.960 -1.3047  0.4490  1.3740
 9570SOL     OW29608   4.890   6.157   6.150 -0.4012  0.0691  0.2450
 9570SOL    HW129609   4.905   6.220   6.074  1.8539 -0.4976  0.1190
 9570SOL    HW229610   4.815   6.095   6.128  0.1621 -0.0488 -1.5374
 9571SOL     OW29611   2.835   0.368   3.930 -0.0868  0.3397 -0.0734
 9571SOL    HW129612   2.746   0.325   3.916  0.3467 -1.2005  1.5524
 9571SOL    HW229613   2.822   0.467   3.937 -1.8964  0.0707  1.4080
 9572SOL     OW29614   5.519   3.682   4.615  0.2680 -0.5152  0.3800
 9572SOL    HW129615   5.512   3.583   4.606 -2.1976 -0.2331 -2.2347
 9572SOL    HW229616   5.473   3.711   4.699 -0.8316 -1.4826  0.1383
 9573SOL     OW29617   3.082   5.859   0.018  0.2339 -0.2283 -0.2618
 9573SOL    HW129618   3.048   5.887  -0.072  0.0137  0.7680  0.1099
 9573SOL    HW229619   3.180   5.841   0.012  0.6623  1.8057 -0.3168
 9574SOL     OW29620   2.148   4.655   5.602 -0.1978 -0.6116  0.1452
 9574SOL    HW129621   2.064   4.706   5.583  0.9021  2.1505  2.0085
 9574SOL    HW229622   2.205   4.655   5.520 -1.0524 -0.5393 -0.4703
 9575SOL     OW29623   3.485   5.078   6.797  0.1915  0.6570  0.4278
 9575SOL    HW129624   3.425   5.091   6.877  1.4999 -0.2261  1.5993
 9575SOL    HW229625   3.523   5.167   6.770  1.1221  0.7692  1.9493
 9576SOL     OW29626   4.616   5.470   2.559  0.1836 -0.4224 -0.2200
 9576SOL    HW129627   4.695   5.435   2.510  1.5953  1.1787  0.8025
 9576SOL    HW229628   4.537   5.411   2.542  2.0184 -3.2182  0.2735
 9577SOL     OW29629   1.102   2.248   1.232  0.2525 -0.3629  0.2374
 9577SOL    HW129630   1.086   2.162   1.279  0.9034 -0.0257  1.0964
 9577SOL    HW229631   1.077   2.324   1.292  0.8535  0.0676 -0.0482
 9578SOL     OW29632   6.857   1.714   6.884  0.2321 -0.1336 -0.5227
 9578SOL    HW129633   6.899   1.632   6.924  1.4548  0.4206 -0.6264
 9578SOL    HW229634   6.905   1.795   6.917 -2.1561  0.7224  1.0966
 9579SOL     OW29635   1.092   1.705   3.483 -0.4252 -0.3536  0.1362
 9579SOL    HW129636   1.079   1.804   3.480  1.3657 -0.0283  1.3253
 9579SOL    HW229637   1.036   1.666   3.555  1.2229  0.3014  1.8612
 9580SOL     OW29638   1.871   6.424   3.742  0.5555  0.0076 -0.6600
 9580SOL    HW129639   1.852   6.332   3.708  0.5625 -1.0582  1.9899
 9580SOL    HW229640   1.969   6.434   3.759  0.4513  0.1914 -0.1389
 9581SOL     OW29641   4.264   5.306   0.651  0.2178  0.4370 -0.5991
 9581SOL    HW129642   4.266   5.399   0.615 -0.9088  0.6152 -0.2512
 9581SOL    HW229643   4.270   5.309   0.751  1.2899  0.0655 -0.6454
 9582SOL     OW29644   5.622   5.569   4.540 -0.2476 -0.3866  0.0534
 9582SOL    HW129645   5.581   5.538   4.626 -0.3461  0.7117  0.4145
 9582SOL    HW229646   5.590   5.661   4.520  1.1053  0.0240 -0.2849
 9583SOL     OW29647   1.946   1.997   1.950  0.3356 -0.2211  0.5917
 9583SOL    HW129648   1.956   1.970   1.855  1.4920 -0.2202  0.7040
 9583SOL    HW229649   1.943   2.096   1.957  1.8674 -0.1631  0.6831
 9584SOL     OW29650   1.828   6.712   4.475 -0.1163  0.0983 -0.1927
 9584SOL    HW129651   1.830   6.660   4.389  1.2190 -1.6962  0.8668
 9584SOL    HW229652   1.908   6.771   4.479 -0.0809  0.0431 -0.0933
 9585SOL     OW29653   6.278   6.748   5.003 -0.0191 -0.2023  0.2242
 9585SOL    HW129654   6.286   6.650   4.984 -1.1204 -0.2426 -0.1350
 9585SOL    HW229655   6.241   6.761   5.095 -1.1227 -0.1712 -0.2068
 9586SOL     OW29656   3.516   5.056   0.409 -0.5558 -0.1376  0.1109
 9586SOL    HW129657   3.572   5.049   0.327 -0.9194  1.0769 -0.2533
 9586SOL    HW229658   3.495   4.964   0.442 -0.2331 -0.6383 -1.0258
 9587SOL     OW29659   2.540   6.029   0.033  0.1273 -0.0972 -0.0068
 9587SOL    HW129660   2.628   6.050   0.076  0.2851 -0.7885  0.0250
 9587SOL    HW229661   2.491   6.113   0.014  1.1304  0.3414 -0.7278
 9588SOL     OW29662   5.466   3.087   1.483  0.3149 -0.3560 -0.1465
 9588SOL    HW129663   5.518   3.163   1.521 -0.6711 -0.0187  0.5952
 9588SOL    HW229664   5.456   3.098   1.384  1.9345 -0.6264 -0.3584
 9589SOL     OW29665   6.474   1.685   1.306 -0.1306 -0.2957  0.5019
 9589SOL    HW129666   6.453   1.668   1.210 -0.4511 -1.3836  0.7519
 9589SOL    HW229667   6.449   1.605   1.361 -0.0271  0.3348  1.5053
 9590SOL     OW29668   0.764   2.942   5.074  0.3343  0.3389  0.2241
 9590SOL    HW129669   0.787   2.861   5.128  2.5763 -0.0197 -1.1364
 9590SOL    HW229670   0.721   3.011   5.133 -1.4952 -1.7431  1.4369
 9591SOL     OW29671   1.113   1.551   0.207 -0.5826 -0.3820 -0.0221
 9591SOL    HW129672   1.134   1.619   0.137 -1.0359  0.0268  0.2389
 9591SOL    HW229673   1.056   1.592   0.278  0.3203 -0.6446  0.8719
 9592SOL     OW29674   5.128   6.545   3.091  0.9207  1.1146 -0.5834
 9592SOL    HW129675   5.219   6.577   3.118  1.1021 -0.8634  1.4099
 9592SOL    HW229676   5.135   6.488   3.009  1.9469 -1.0975  0.9466
 9593SOL     OW29677   4.098   1.623   5.099 -0.0453  0.1471  0.0004
 9593SOL    HW129678   4.144   1.541   5.064  0.0937 -0.0030  0.5275
 9593SOL    HW229679   4.148   1.704   5.068 -1.1727  0.1422 -2.0190
 9594SOL     OW29680   0.040   1.320   4.202  0.2043 -0.1127 -0.1852
 9594SOL    HW129681   0.077   1.388   4.264 -1.1348 -0.8867  1.5533
 9594SOL    HW229682   0.007   1.241   4.254  0.7052 -1.6367 -2.0391
 9595SOL     OW29683   0.822   1.804   3.020  0.4813 -0.4673 -0.3418
 9595SOL    HW129684   0.789   1.796   3.114 -0.2036 -3.1477 -0.7355
 9595SOL    HW229685   0.904   1.747   3.008 -1.0261 -2.4270 -1.9839
 9596SOL     OW29686   4.383   2.281   3.414  0.1268 -0.0717 -1.0750
 9596SOL    HW129687   4.353   2.317   3.326  2.0896  1.2056 -1.2700
 9596SOL    HW229688   4.482   2.267   3.414  0.4616  1.6047  1.4290
 9597SOL     OW29689   1.505   3.636   6.998 -0.3461  0.4051 -0.1624
 9597SOL    HW129690   1.559   3.720   7.003  0.2584  0.0682 -0.7699
 9597SOL    HW229691   1.448   3.637   6.916 -0.0860  0.0814 -0.3506
 9598SOL     OW29692   1.178   4.595   0.166  0.3360 -0.1733 -0.0876
 9598SOL    HW129693   1.132   4.507   0.181  0.5918 -0.3435 -0.2901
 9598SOL    HW229694   1.167   4.653   0.247 -0.2719 -0.1951 -0.1507
 9599SOL     OW29695   1.632   1.340   0.539 -0.4108  0.6339 -0.2671
 9599SOL    HW129696   1.678   1.402   0.602 -1.8699  0.8495  0.6204
 9599SOL    HW229697   1.639   1.246   0.574  0.9529  0.3871 -1.1136
 9600SOL     OW29698   4.228   1.238   5.384  0.0326 -0.0437  0.3999
 9600SOL    HW129699   4.262   1.191   5.303  1.0957  0.2675  0.6557
 9600SOL    HW229700   4.150   1.295   5.359 -1.1842 -1.7771  0.0495
 9601SOL     OW29701   4.244   0.916   5.457  0.2281  0.0672  0.2131
 9601SOL    HW129702   4.157   0.964   5.452  1.4024  2.5730  1.6599
 9601SOL    HW229703   4.271   0.905   5.552  1.2449 -1.1561 -0.1936
 9602SOL     OW29704   1.255   2.310   0.786  0.2119 -1.0831  0.1986
 9602SOL    HW129705   1.304   2.323   0.872 -0.6582  0.2222  0.5172
 9602SOL    HW229706   1.201   2.226   0.790  0.5819 -1.3017  0.7092
 9603SOL     OW29707   6.939   1.307   2.569  0.4260 -0.1831  0.2939
 9603SOL    HW129708   6.938   1.406   2.583  1.4786 -0.2718  1.1358
 9603SOL    HW229709   7.012   1.283   2.505 -1.2433 -0.2440 -1.6873
 9604SOL     OW29710   4.140   1.208   6.281 -0.0647 -0.1537  0.2288
 9604SOL    HW129711   4.097   1.293   6.311  0.5284 -0.3046  1.5621
 9604SOL    HW229712   4.079   1.161   6.218 -1.3296  0.2348  1.1170
 9605SOL     OW29713   0.843   1.008   0.443 -0.6085 -0.1002  0.3244
 9605SOL    HW129714   0.880   0.950   0.371  0.4439  1.1472 -0.1776
 9605SOL    HW229715   0.744   1.014   0.433 -0.3559  1.5259 -2.2297
 9606SOL     OW29716   3.532   5.525   5.667  0.0955  0.3098  0.7269
 9606SOL    HW129717   3.590   5.496   5.743 -0.5568 -0.8815  0.7908
 9606SOL    HW229718   3.569   5.609   5.627 -0.2771  1.7619  3.1973
 9607SOL     OW29719   6.790   6.580   2.220  0.1574  0.3086  0.0613
 9607SOL    HW129720   6.825   6.671   2.240  2.0428  0.1250 -1.9592
 9607SOL    HW229721   6.707   6.588   2.165  1.1586  0.9111 -1.4547
 9608SOL     OW29722   4.549   2.212   2.116 -0.2049 -0.0809  0.3233
 9608SOL    HW129723   4.541   2.208   2.216  1.2849  0.5584  0.4854
 9608SOL    HW229724   4.645   2.215   2.090 -0.5803  1.5335 -1.0396
 9609SOL     OW29725   3.216   3.738   1.703  0.1379  0.1831 -0.2444
 9609SOL    HW129726   3.298   3.687   1.679  0.3425  0.1748  0.4444
 9609SOL    HW229727   3.240   3.831   1.729 -0.1219  0.3195 -0.4867
 9610SOL     OW29728   4.739   0.185   0.106  0.3893  0.4296  0.1939
 9610SOL    HW129729   4.695   0.267   0.142 -1.8858 -1.2226  1.5214
 9610SOL    HW229730   4.677   0.141   0.040  1.9770  0.2408 -1.2374
 9611SOL     OW29731   3.444   0.023   1.388  0.0940 -0.2371 -0.2315
 9611SOL    HW129732   3.388   0.027   1.471  0.0569 -2.3217 -0.0993
 9611SOL    HW229733   3.409   0.088   1.320 -1.2213 -0.0578  0.5892
 9612SOL     OW29734   3.232   3.282   0.906 -0.0294  0.2377  0.1298
 9612SOL    HW129735   3.146   3.322   0.872  1.4050  2.1988 -1.4592
 9612SOL    HW229736   3.217   3.245   0.997 -2.0982  2.4389  0.8031
 9613SOL     OW29737   4.930   1.980   3.904 -0.5122  0.1215  0.1082
 9613SOL    HW129738   4.963   1.950   3.815  0.9235  2.1198 -0.0912
 9613SOL    HW229739   4.970   1.922   3.976 -0.1947 -0.3172 -0.4152
 9614SOL     OW29740   3.316   0.825   6.420 -0.4247 -0.5203  0.1857
 9614SOL    HW129741   3.256   0.752   6.454 -1.5227  0.8335  1.3050
 9614SOL    HW229742   3.386   0.844   6.489 -0.9536  0.3592  0.4910
 9615SOL     OW29743   0.749   1.016   2.889 -0.3294  1.2418 -0.4974
 9615SOL    HW129744   0.682   1.042   2.819 -1.2800  2.5723  0.8647
 9615SOL    HW229745   0.840   1.044   2.859 -0.4483  0.1493 -2.0031
 9616SOL     OW29746   3.359   2.747   0.671 -0.1920  0.4143 -0.3234
 9616SOL    HW129747   3.407   2.704   0.596  0.0332  0.3603 -0.1512
 9616SOL    HW229748   3.302   2.680   0.718 -1.3059  0.7131 -1.2035
 9617SOL     OW29749   3.508   5.621   0.991  0.1336  0.1277  0.1154
 9617SOL    HW129750   3.535   5.528   0.968  0.9623  0.0553  1.2916
 9617SOL    HW229751   3.586   5.682   0.979 -0.7742  0.9610 -2.0438
 9618SOL     OW29752   1.581   3.207   2.592  0.8832 -0.4895  0.2698
 9618SOL    HW129753   1.488   3.173   2.582  0.6038  0.0382  1.0358
 9618SOL    HW229754   1.593   3.290   2.539  0.1661  0.8440  2.1104
 9619SOL     OW29755   5.321   2.077   4.895 -0.4171 -0.6598 -0.7796
 9619SOL    HW129756   5.368   2.083   4.808 -0.8287  1.8025 -0.8905
 9619SOL    HW229757   5.386   2.050   4.967  1.0443  1.8039 -1.0771
 9620SOL     OW29758   0.956   6.244   3.088  0.3496 -0.0975 -0.2832
 9620SOL    HW129759   0.944   6.335   3.128  1.8613  0.1017 -0.2533
 9620SOL    HW229760   0.874   6.190   3.106 -0.0826  0.8515  0.7650
 9621SOL     OW29761   3.895   3.229   0.196 -0.0688 -0.2993 -0.5364
 9621SOL    HW129762   3.848   3.188   0.273  1.7269 -0.3587  0.5877
 9621SOL    HW229763   3.951   3.160   0.150 -0.4621 -0.0724 -1.3857
 9622SOL     OW29764   2.015   6.368   4.490 -0.2738 -0.3130  0.4939
 9622SOL    HW129765   1.965   6.420   4.421 -1.5781 -2.1572 -0.0204
 9622SOL    HW229766   2.059   6.431   4.554 -0.0128  1.4202 -1.2950
 9623SOL     OW29767   5.609   5.849   4.206  0.2197  0.0135  0.0218
 9623SOL    HW129768   5.700   5.832   4.169 -0.3360 -1.8174 -0.6006
 9623SOL    HW229769   5.559   5.763   4.215 -1.4618  0.9649  0.3768
 9624SOL     OW29770   1.500   1.734   0.780  0.3141  0.5127 -0.0041
 9624SOL    HW129771   1.480   1.781   0.866  1.5658  1.2854 -0.1113
 9624SOL    HW229772   1.485   1.797   0.703 -0.6819 -0.1348 -0.3659
 9625SOL     OW29773   5.577   3.275   2.098 -0.1826  0.4396  0.1118
 9625SOL    HW129774   5.585   3.176   2.087 -0.8646  0.1804  1.5811
 9625SOL    HW229775   5.636   3.322   2.033  0.4310 -0.9412 -0.3497
 9626SOL     OW29776   5.466   4.585   1.185  0.3028 -0.2759  0.3461
 9626SOL    HW129777   5.397   4.514   1.203  1.0135 -1.0586  0.0581
 9626SOL    HW229778   5.431   4.648   1.116  0.3910 -1.4752 -0.8272
 9627SOL     OW29779   1.201   3.301   0.141 -0.3921 -0.7304  0.2143
 9627SOL    HW129780   1.140   3.298   0.062 -1.5552  1.4440  0.9395
 9627SOL    HW229781   1.296   3.307   0.109 -0.5839 -2.7265 -0.9323
 9628SOL     OW29782   2.711   1.116   3.401  0.0454 -0.5043  0.0011
 9628SOL    HW129783   2.701   1.149   3.495 -1.3711  0.9957 -0.6220
 9628SOL    HW229784   2.674   1.024   3.393 -0.3584 -0.4124  0.7899
 9629SOL     OW29785   1.691   5.595   0.615 -0.4828  0.1422 -0.2537
 9629SOL    HW129786   1.700   5.549   0.703 -0.0551 -1.4250 -1.0709
 9629SOL    HW229787   1.753   5.672   0.610  0.8087 -0.8389  0.1655
 9630SOL     OW29788   1.544   2.816   6.302  0.6225  0.4756 -0.6359
 9630SOL    HW129789   1.568   2.789   6.209 -2.8712  0.1637 -1.6136
 9630SOL    HW229790   1.535   2.734   6.359  1.3394  0.5526 -0.4055
 9631SOL     OW29791   1.501   0.140   2.015 -0.3083  0.0369  0.2487
 9631SOL    HW129792   1.496   0.137   2.115 -0.2674 -0.1203  0.2458
 9631SOL    HW229793   1.475   0.231   1.983  0.9045  0.4878  0.4756
 9632SOL     OW29794   1.271   2.322   5.023  0.1879 -0.3599  0.2122
 9632SOL    HW129795   1.365   2.299   4.999  0.1788  0.7633 -0.9835
 9632SOL    HW229796   1.224   2.359   4.943 -0.4129  1.8177  1.4813
 9633SOL     OW29797   2.799   6.276   3.598 -0.2559 -0.0585 -0.0882
 9633SOL    HW129798   2.760   6.342   3.534 -3.0122  0.2580  1.7260
 9633SOL    HW229799   2.795   6.184   3.558  0.1711  0.3924 -1.2066
 9634SOL     OW29800   4.291   3.755   0.050  0.0837  0.0746  1.1324
 9634SOL    HW129801   4.222   3.813   0.007 -1.9577 -1.8631  1.6249
 9634SOL    HW229802   4.380   3.802   0.049 -0.0517  0.7235 -3.9055
 9635SOL     OW29803   0.486   2.176   4.905 -0.5031 -0.0716 -0.4004
 9635SOL    HW129804   0.553   2.203   4.836 -0.5206 -0.7284 -0.6823
 9635SOL    HW229805   0.491   2.238   4.984  0.5014 -0.1797 -0.3778
 9636SOL     OW29806   5.510   6.013   6.313 -0.0804  0.5359  0.6789
 9636SOL    HW129807   5.420   6.038   6.278  0.1487 -0.3052 -0.5585
 9636SOL    HW229808   5.507   5.921   6.353  0.0287  0.8646  1.4667
 9637SOL     OW29809   4.906   4.041   1.082 -0.5423  0.2124 -0.4214
 9637SOL    HW129810   4.814   4.028   1.044 -0.5055  3.2360 -1.8184
 9637SOL    HW229811   4.901   4.040   1.182 -2.1510  0.5397 -0.4700
 9638SOL     OW29812   4.611   1.958   5.669  0.5857  0.4770  0.4160
 9638SOL    HW129813   4.590   2.052   5.643  0.3081  0.3488  0.1714
 9638SOL    HW229814   4.550   1.928   5.742 -2.4698 -0.9977 -2.4701
 9639SOL     OW29815   2.411   5.634   1.397 -0.1298  0.3552 -0.8436
 9639SOL    HW129816   2.407   5.732   1.413 -0.2394  0.0160  1.6569
 9639SOL    HW229817   2.403   5.586   1.484  0.4455 -1.8734 -1.9415
 9640SOL     OW29818   3.997   0.976   2.880  0.4911  0.1772 -0.8676
 9640SOL    HW129819   4.043   0.896   2.919  1.6192  0.7118 -1.0536
 9640SOL    HW229820   3.959   1.032   2.954 -0.3523 -0.5433 -0.7399
 9641SOL     OW29821   0.899   6.848   3.023 -0.0272 -0.2600 -0.1645
 9641SOL    HW129822   0.880   6.891   2.935  0.5045  1.1466  0.3788
 9641SOL    HW229823   0.995   6.864   3.047 -0.3691  0.0483  1.0352
 9642SOL     OW29824   5.243   1.616   4.847  0.0933 -0.4375 -0.3812
 9642SOL    HW129825   5.216   1.600   4.752  1.3844 -1.7621 -0.5535
 9642SOL    HW229826   5.308   1.546   4.876 -0.9758 -0.6123  1.7991
 9643SOL     OW29827   5.953   4.104   0.797 -0.6748  0.2765  0.2089
 9643SOL    HW129828   5.926   4.010   0.821  2.0219 -1.0645 -1.4309
 9643SOL    HW229829   5.917   4.127   0.706 -0.2771  0.3017  0.0539
 9644SOL     OW29830   3.494   3.143   2.216  0.0354 -0.2511  0.1732
 9644SOL    HW129831   3.469   3.213   2.284 -0.2672 -1.0751  0.9201
 9644SOL    HW229832   3.433   3.150   2.137 -0.6115 -0.2903  0.6652
 9645SOL     OW29833   3.175   1.482   1.162  0.5624  0.2830 -0.3923
 9645SOL    HW129834   3.246   1.415   1.177  0.6238  0.4141 -0.0817
 9645SOL    HW229835   3.085   1.437   1.162  0.5447  0.2998  0.5805
 9646SOL     OW29836   3.740   3.047   2.221  0.2977  0.2620 -0.0731
 9646SOL    HW129837   3.648   3.086   2.228 -0.3448 -0.6271 -2.4329
 9646SOL    HW229838   3.735   2.959   2.173  2.3281 -0.0858  0.2747
 9647SOL     OW29839   4.867   1.230   0.430 -0.2359  0.0804 -0.0482
 9647SOL    HW129840   4.845   1.319   0.469 -0.8278 -0.4248  0.8048
 9647SOL    HW229841   4.963   1.209   0.446  0.2845  1.1663 -1.4990
 9648SOL     OW29842   3.909   3.319   0.937  0.2780 -0.5412 -0.4366
 9648SOL    HW129843   3.960   3.285   0.858 -0.4437 -1.5313 -0.4927
 9648SOL    HW229844   3.811   3.303   0.923 -0.2137  2.2397 -0.8022
 9649SOL     OW29845   4.175   3.611   0.529  0.1646  0.1735 -0.5745
 9649SOL    HW129846   4.228   3.536   0.568 -1.4424 -0.6550  0.0879
 9649SOL    HW229847   4.214   3.698   0.558  1.7418 -0.3931 -0.9217
 9650SOL     OW29848   1.346   1.200   0.939 -0.5118  0.4589  0.3136
 9650SOL    HW129849   1.362   1.298   0.931 -0.2321  0.3706 -0.2775
 9650SOL    HW229850   1.252   1.183   0.968 -0.6666  0.8954  0.0712
 9651SOL     OW29851   1.407   5.370   4.292  0.5861 -0.0458  0.7636
 9651SOL    HW129852   1.383   5.384   4.388  0.1320 -2.0500  0.9943
 9651SOL    HW229853   1.343   5.420   4.233 -0.7911 -0.8843  1.4888
 9652SOL     OW29854   1.107   0.139   6.208 -0.7638  0.4802  0.2725
 9652SOL    HW129855   1.040   0.187   6.152 -0.6432  0.4228  0.0807
 9652SOL    HW229856   1.131   0.195   6.287  0.8406  1.5907 -0.9448
 9653SOL     OW29857   0.629   1.715   6.787 -0.5333 -0.1250  0.3131
 9653SOL    HW129858   0.570   1.701   6.866 -1.0328  1.9112  0.3382
 9653SOL    HW229859   0.670   1.806   6.790  2.8006 -1.4969  0.3690
 9654SOL     OW29860   6.827   2.160   2.940  0.4034 -0.4917 -0.2442
 9654SOL    HW129861   6.856   2.116   3.025  1.9295 -0.5665 -0.7831
 9654SOL    HW229862   6.729   2.181   2.945  0.5319 -0.2112  1.6387
 9655SOL     OW29863   3.095   6.345   1.360  0.8728 -0.3270 -0.1066
 9655SOL    HW129864   3.069   6.441   1.351 -0.7596 -0.7591 -0.3313
 9655SOL    HW229865   3.143   6.316   1.277 -1.3827 -0.4864 -1.4384
 9656SOL     OW29866   0.181   7.001   5.591 -0.3688 -0.7623 -0.4422
 9656SOL    HW129867   0.141   6.961   5.674 -0.8660 -0.0405 -0.3302
 9656SOL    HW229868   0.187   6.930   5.520  1.4830 -1.8000  0.6706
 9657SOL     OW29869   2.245   3.468   0.582 -0.2240 -0.0665  0.6664
 9657SOL    HW129870   2.223   3.465   0.679 -0.2743 -0.7031  0.6392
 9657SOL    HW229871   2.311   3.542   0.565 -0.5784  0.3545  1.1043
 9658SOL     OW29872   4.239   5.983   0.902 -0.0936 -0.5631  0.1947
 9658SOL    HW129873   4.165   5.927   0.938 -1.0147 -0.1096 -0.9429
 9658SOL    HW229874   4.259   6.057   0.967 -0.0430 -1.1731  0.8963
 9659SOL     OW29875   2.406   2.271   1.110 -0.1097 -0.1945  0.6935
 9659SOL    HW129876   2.320   2.320   1.123 -0.2720  0.0766 -1.1976
 9659SOL    HW229877   2.480   2.336   1.095  0.3933 -0.4424  1.9296
 9660SOL     OW29878   5.224   5.856   0.098 -0.1009  0.1056  0.2095
 9660SOL    HW129879   5.204   5.760   0.080  1.0332 -0.0493 -0.2904
 9660SOL    HW229880   5.240   5.904   0.012 -1.8563  1.0473  0.3570
 9661SOL     OW29881   6.945   6.432   6.066  0.2166  0.1472 -0.1658
 9661SOL    HW129882   7.036   6.426   6.026  0.1258 -1.4570 -0.1983
 9661SOL    HW229883   6.951   6.415   6.165  0.0415  0.7172 -0.0578
 9662SOL     OW29884   6.162   2.765   4.640  0.0599  0.2950  0.1034
 9662SOL    HW129885   6.139   2.851   4.594  1.7218 -0.9410 -3.4359
 9662SOL    HW229886   6.251   2.733   4.609 -0.2160 -2.4268  1.7581
 9663SOL     OW29887   6.525   4.510   1.391  0.5480 -0.3959 -0.6233
 9663SOL    HW129888   6.564   4.426   1.354  1.6234 -1.0156  1.7424
 9663SOL    HW229889   6.440   4.488   1.440 -1.0373  0.4540 -2.8245
 9664SOL     OW29890   2.476   6.271   1.147 -0.8134  0.5606  0.3866
 9664SOL    HW129891   2.507   6.238   1.236 -1.3674 -0.1424  0.3331
 9664SOL    HW229892   2.538   6.341   1.113  1.5835 -1.8068 -0.4040
 9665SOL     OW29893   4.903   3.322   2.353  0.4789  0.4851 -0.0566
 9665SOL    HW129894   4.881   3.275   2.268 -0.8820 -0.9871  1.0354
 9665SOL    HW229895   4.886   3.420   2.342 -1.8006  0.0756 -0.8973
 9666SOL     OW29896   1.590   2.333   0.009  0.9535  0.3956 -0.0382
 9666SOL    HW129897   1.584   2.333  -0.091  1.7788 -1.2324 -0.1151
 9666SOL    HW229898   1.505   2.298   0.048  0.7768  0.6669 -0.1755
 9667SOL     OW29899   4.168   6.874   2.512 -0.0119  0.5482 -0.4331
 9667SOL    HW129900   4.155   6.802   2.445 -1.2003  2.0019 -1.8357
 9667SOL    HW229901   4.260   6.912   2.503  0.4696 -0.4951  0.0314
 9668SOL     OW29902   0.538   1.945   5.718 -0.1032  0.1120 -0.1579
 9668SOL    HW129903   0.576   1.860   5.680  0.6330 -0.1841  1.1818
 9668SOL    HW229904   0.443   1.929   5.748 -0.2137 -0.0310 -0.5815
 9669SOL     OW29905   3.758   2.711   0.997  0.3065  0.9690 -0.1525
 9669SOL    HW129906   3.683   2.739   0.936 -0.5970 -1.3003 -0.1885
 9669SOL    HW229907   3.733   2.732   1.091 -1.8182 -2.3234  0.1676
 9670SOL     OW29908   2.556   0.013   4.115 -0.3836  0.5385 -0.2968
 9670SOL    HW129909   2.497   0.070   4.058 -0.1479  0.0637 -1.0375
 9670SOL    HW229910   2.642   0.061   4.132 -1.0685  1.3618  1.0451
 9671SOL     OW29911   5.168   5.548   0.368  0.4169  0.0831  0.3817
 9671SOL    HW129912   5.262   5.581   0.356  1.0118 -0.5172  2.8582
 9671SOL    HW229913   5.126   5.595   0.445 -0.9605 -0.4028 -0.0519
 9672SOL     OW29914   4.186   4.827   4.849 -0.1257  0.4351  0.1215
 9672SOL    HW129915   4.214   4.917   4.814 -0.9754  0.4843 -0.4424
 9672SOL    HW229916   4.256   4.760   4.827  0.4287  0.9167  0.3796
 9673SOL     OW29917   2.028   5.523   3.066 -0.2551  0.6012  0.1417
 9673SOL    HW129918   2.017   5.508   2.968  0.7131  2.5641 -0.3057
 9673SOL    HW229919   2.051   5.619   3.083  0.5027  0.1023  2.2194
 9674SOL     OW29920   4.604   5.059   4.205  0.0389 -0.2043  0.4383
 9674SOL    HW129921   4.704   5.064   4.213  0.1303 -1.6344  0.3101
 9674SOL    HW229922   4.580   5.035   4.111 -0.4214 -0.3244  0.5880
 9675SOL     OW29923   0.372   5.963   5.614  0.0889 -0.4190  0.0041
 9675SOL    HW129924   0.422   5.931   5.533  0.8913  0.1761  0.2658
 9675SOL    HW229925   0.327   6.050   5.593  1.5603  0.5325  0.6429
 9676SOL     OW29926   0.783   1.806   3.311  0.1095 -0.1841  0.0998
 9676SOL    HW129927   0.705   1.862   3.337 -0.2944 -0.4631 -0.4895
 9676SOL    HW229928   0.758   1.709   3.315  0.6556 -0.3070  0.6395
 9677SOL     OW29929   1.813   0.675   5.030  1.1547 -0.2922  0.6153
 9677SOL    HW129930   1.790   0.762   5.073  2.0237  0.4033 -0.2810
 9677SOL    HW229931   1.907   0.650   5.053  0.9826 -0.8911  0.6922
 9678SOL     OW29932   1.130   3.501   2.926  0.5404 -0.0729  0.4963
 9678SOL    HW129933   1.155   3.429   2.991 -0.9936  0.6740  2.0199
 9678SOL    HW229934   1.113   3.586   2.976 -1.0242  0.4545 -0.8335
 9679SOL     OW29935   2.851   6.320   5.040 -0.2286  0.4974  0.0493
 9679SOL    HW129936   2.786   6.246   5.053  1.1764 -0.5399  1.5840
 9679SOL    HW229937   2.892   6.314   4.949 -1.4199  0.4787 -0.4943
 9680SOL     OW29938   2.707   5.705   6.329  0.2059  0.5760  0.2347
 9680SOL    HW129939   2.802   5.733   6.345  0.1860  0.3714  0.7186
 9680SOL    HW229940   2.697   5.676   6.234  1.3051 -1.9871  0.8185
 9681SOL     OW29941   2.727   5.244   0.070 -0.0866 -0.3644  0.0345
 9681SOL    HW129942   2.709   5.257   0.167  0.2413 -0.4226  0.1040
 9681SOL    HW229943   2.774   5.158   0.056 -1.0910 -0.8754 -0.2930
 9682SOL     OW29944   6.143   2.592   1.768  0.5107  0.2575  0.3545
 9682SOL    HW129945   6.198   2.544   1.700  2.5388  2.3767  0.3861
 9682SOL    HW229946   6.083   2.658   1.722 -1.1801 -1.1364  0.4218
 9683SOL     OW29947   6.089   6.992   4.541  0.4202 -0.0377  0.2116
 9683SOL    HW129948   6.157   6.919   4.529 -1.9337 -2.5115  1.0295
 9683SOL    HW229949   6.119   7.052   4.615  1.2349 -1.7199  1.3155
 9684SOL     OW29950   4.207   6.309   3.790 -0.0243 -0.5545 -0.1667
 9684SOL    HW129951   4.150   6.354   3.859 -0.1874 -1.4288  0.2794
 9684SOL    HW229952   4.293   6.360   3.779  0.2963 -0.7830  1.1699
 9685SOL     OW29953   3.009   6.464   1.789 -0.1604  0.1792  0.0576
 9685SOL    HW129954   3.100   6.497   1.763  0.6530 -1.1281  1.1561
 9685SOL    HW229955   2.999   6.369   1.762  0.2662 -0.8819  3.1536
 9686SOL     OW29956   1.701   1.168   4.180  0.6951 -0.0721 -0.1959
 9686SOL    HW129957   1.620   1.186   4.235  2.0410  0.4868  1.7039
 9686SOL    HW229958   1.675   1.114   4.100 -1.5792  0.3654  0.1650
 9687SOL     OW29959   0.445   0.989   5.074 -0.6196 -0.2117  0.0878
 9687SOL    HW129960   0.500   1.025   4.998  0.3758 -1.4279  0.2118
 9687SOL    HW229961   0.379   0.924   5.038  1.2165 -2.3781  0.4133
 9688SOL     OW29962   0.651   0.311   0.604  0.0972  0.1618  0.1609
 9688SOL    HW129963   0.698   0.316   0.515  1.3650 -0.2020  0.7899
 9688SOL    HW229964   0.583   0.384   0.609  0.2230  0.3850 -0.9840
 9689SOL     OW29965   6.909   5.442   0.401 -0.0872  0.2989 -0.6128
 9689SOL    HW129966   6.859   5.388   0.333 -1.1646  0.6190 -0.1061
 9689SOL    HW229967   7.002   5.459   0.369 -0.2106 -0.5481 -1.4688
 9690SOL     OW29968   2.497   3.147   1.487  0.0802  0.3978 -0.6066
 9690SOL    HW129969   2.436   3.069   1.505  1.6719 -0.8680 -0.5173
 9690SOL    HW229970   2.475   3.221   1.551 -0.1648 -0.7261  0.6672
 9691SOL     OW29971   0.529   5.848   3.092  0.5496 -0.7486 -0.0929
 9691SOL    HW129972   0.585   5.848   3.010  0.4927 -1.3720 -0.1380
 9691SOL    HW229973   0.586   5.866   3.172  0.6401 -0.3663 -0.2413
 9692SOL     OW29974   1.715   1.175   2.283 -0.3480 -0.3995 -0.4489
 9692SOL    HW129975   1.745   1.102   2.345  1.5084  0.5492 -0.1424
 9692SOL    HW229976   1.652   1.138   2.215 -0.4027 -2.0147  0.4420
 9693SOL     OW29977   4.573   3.044   6.532  0.0062 -0.0421 -0.1151
 9693SOL    HW129978   4.672   3.036   6.522 -0.0548 -0.4467 -0.4328
 9693SOL    HW229979   4.535   3.082   6.448 -0.1803 -0.5481 -0.2651
 9694SOL     OW29980   2.381   1.481   5.145 -0.0078 -0.4095  0.0407
 9694SOL    HW129981   2.313   1.463   5.074  0.0421 -2.1614  0.4073
 9694SOL    HW229982   2.472   1.483   5.104  0.1300 -2.4594  0.1440
 9695SOL     OW29983   0.440   2.141   2.510  0.4008 -0.3867  0.5410
 9695SOL    HW129984   0.390   2.118   2.426 -0.1584  0.3268  0.6638
 9695SOL    HW229985   0.376   2.154   2.585  0.7654  0.5297  0.7080
 9696SOL     OW29986   1.363   2.103   2.038  0.8966 -0.5693  0.3044
 9696SOL    HW129987   1.311   2.078   2.119  1.4059  0.7206  1.0484
 9696SOL    HW229988   1.405   2.193   2.051  0.9860 -0.3321 -1.3909
 9697SOL     OW29989   5.385   5.973   0.277 -0.6868  0.2890 -0.4333
 9697SOL    HW129990   5.343   5.919   0.205 -1.1290  1.9619 -1.4823
 9697SOL    HW229991   5.410   6.063   0.241  0.6032  0.5841  1.0803
 9698SOL     OW29992   1.990   0.693   5.717 -0.3880 -0.1499  0.0997
 9698SOL    HW129993   1.915   0.629   5.705 -1.5947  1.1817  0.3056
 9698SOL    HW229994   2.032   0.713   5.629 -1.6557  0.6916 -0.3401
 9699SOL     OW29995   1.879   2.797   2.207 -0.0479 -0.3379  0.1352
 9699SOL    HW129996   1.954   2.759   2.262  0.1782  0.9772  0.7613
 9699SOL    HW229997   1.795   2.795   2.260  0.3364  1.7186  0.9193
 9700SOL     OW29998   2.233   1.111   4.955 -0.3957  0.1258 -0.4770
 9700SOL    HW129999   2.212   1.062   5.039  2.7438  0.4454  0.6032
 9700SOL    HW230000   2.193   1.203   4.959 -1.9938 -0.5432 -0.3017
 9701SOL     OW30001   2.570   6.940   5.926 -0.1806 -0.1075  0.3018
 9701SOL    HW130002   2.503   6.917   5.997  1.1518 -0.2199  1.5538
 9701SOL    HW230003   2.580   7.039   5.920  0.5087 -0.1274  1.0503
 9702SOL     OW30004   0.054   5.259   0.567  0.0174 -0.0268  0.0556
 9702SOL    HW130005  -0.039   5.221   0.560  0.0566  0.1452 -1.8379
 9702SOL    HW230006   0.049   5.358   0.559 -0.0035  0.4788  4.1985
 9703SOL     OW30007   4.961   3.267   5.495  0.2062  0.8289  0.3415
 9703SOL    HW130008   4.925   3.345   5.444  1.1841  1.2257  0.2483
 9703SOL    HW230009   4.955   3.185   5.438 -0.2656  0.9467  0.2175
 9704SOL     OW30010   2.299   2.515   5.020  0.2888 -0.3544  0.9774
 9704SOL    HW130011   2.316   2.601   4.971 -1.8892  0.3672  1.3703
 9704SOL    HW230012   2.304   2.439   4.956  0.5408  0.2488  0.2630
 9705SOL     OW30013   5.881   1.549   6.841 -0.5803  0.2061  0.2834
 9705SOL    HW130014   5.788   1.548   6.805  0.0124  0.2452 -1.3567
 9705SOL    HW230015   5.924   1.637   6.819  0.6115 -0.6844 -1.1649
 9706SOL     OW30016   5.043   3.649   4.950  0.1611 -0.2486 -0.2392
 9706SOL    HW130017   4.950   3.635   4.985  0.0097 -0.3791 -0.6881
 9706SOL    HW230018   5.109   3.615   5.017 -0.1190 -0.3141  0.0073
 9707SOL     OW30019   0.465   6.543   4.714  0.1931  0.2782  0.0201
 9707SOL    HW130020   0.497   6.499   4.798  0.0018 -1.0270 -0.5665
 9707SOL    HW230021   0.495   6.638   4.712  1.7575 -0.1717  0.7218
 9708SOL     OW30022   1.164   4.842   0.375 -0.3323  0.0062 -0.1498
 9708SOL    HW130023   1.230   4.917   0.383  1.4535 -1.4122 -0.8917
 9708SOL    HW230024   1.094   4.866   0.308  0.7711  0.6270 -1.1111
 9709SOL     OW30025   0.052   0.861   3.880  0.5729  0.1368 -0.3130
 9709SOL    HW130026   0.033   0.825   3.971  1.7637  0.7924  0.2094
 9709SOL    HW230027   0.148   0.888   3.874  0.5647 -0.0884 -1.8314
 9710SOL     OW30028   1.269   0.873   4.289 -0.1930 -0.5272 -0.4243
 9710SOL    HW130029   1.214   0.901   4.368 -2.4150 -1.8107 -1.4076
 9710SOL    HW230030   1.212   0.820   4.227  0.7370  2.3182 -4.0789
 9711SOL     OW30031   6.420   4.227   4.592  0.3141 -0.0934  0.4012
 9711SOL    HW130032   6.481   4.298   4.557 -0.0628  0.2646  0.4622
 9711SOL    HW230033   6.355   4.201   4.521  1.0194 -1.0295  0.0783
 9712SOL     OW30034   6.654   2.998   4.137 -0.1162 -0.0220  0.4884
 9712SOL    HW130035   6.735   3.017   4.193  0.2680  0.6226 -0.2696
 9712SOL    HW230036   6.651   3.061   4.060 -1.0036 -0.4605  0.1470
 9713SOL     OW30037   0.421   6.507   0.367  0.2785 -0.0969 -0.5102
 9713SOL    HW130038   0.385   6.527   0.276  0.2746 -2.0139 -0.9801
 9713SOL    HW230039   0.520   6.497   0.362  0.3878  0.6703 -0.1054
 9714SOL     OW30040   2.670   6.200   6.428  0.2034 -0.2840  0.0452
 9714SOL    HW130041   2.706   6.134   6.494 -2.7157 -1.9355  0.1538
 9714SOL    HW230042   2.689   6.169   6.335 -0.2032 -0.6875  0.0983
 9715SOL     OW30043   2.740   3.001   0.981  0.0184  0.2967 -0.3497
 9715SOL    HW130044   2.838   3.013   0.963 -0.3839  1.2282 -2.1675
 9715SOL    HW230045   2.727   2.979   1.077  2.1966 -2.3606 -0.5370
 9716SOL     OW30046   0.659   2.578   1.381 -0.1518 -0.2515  0.5780
 9716SOL    HW130047   0.733   2.646   1.379  0.7205 -1.1509 -1.7374
 9716SOL    HW230048   0.578   2.618   1.423 -0.1162  2.7227 -1.8436
 9717SOL     OW30049   6.912   2.433   2.317 -0.0296 -0.3107 -0.1679
 9717SOL    HW130050   6.835   2.373   2.333  0.3076 -0.5817  0.4734
 9717SOL    HW230051   6.995   2.379   2.302  0.5280 -0.0501  1.6449
 9718SOL     OW30052   2.269   1.401   1.277  0.1761  0.2419 -0.1677
 9718SOL    HW130053   2.326   1.370   1.353  0.1592  2.2988  0.7280
 9718SOL    HW230054   2.316   1.384   1.190  0.6658 -1.1136  0.3375
 9719SOL     OW30055   1.161   0.402   1.851 -0.6208  0.5865  0.4030
 9719SOL    HW130056   1.135   0.334   1.783 -0.2204  1.4478 -0.6578
 9719SOL    HW230057   1.098   0.480   1.846 -0.3637  0.8223  0.7484
 9720SOL     OW30058   1.092   6.579   0.483  0.3057  0.1478 -0.1625
 9720SOL    HW130059   1.040   6.509   0.434 -0.6921  0.8831 -0.1821
 9720SOL    HW230060   1.030   6.633   0.540  1.2437  0.2239  0.8144
 9721SOL     OW30061   4.905   4.485   6.992 -0.4094  0.3388 -0.4346
 9721SOL    HW130062   4.856   4.559   6.944  0.6920 -0.5065 -3.0439
 9721SOL    HW230063   4.843   4.408   7.005 -0.7889  0.6619 -0.2877
 9722SOL     OW30064   0.108   0.910   5.597  0.6520  0.3782  0.4703
 9722SOL    HW130065   0.023   0.862   5.618  0.9365 -0.3029  0.0918
 9722SOL    HW230066   0.087   1.002   5.563 -0.2131 -1.1839 -3.8590
 9723SOL     OW30067   5.446   4.854   3.024  0.1633  0.0586 -0.2480
 9723SOL    HW130068   5.522   4.822   2.967 -0.4923 -0.8978 -0.6154
 9723SOL    HW230069   5.361   4.845   2.973 -0.5552 -1.6135  1.1306
 9724SOL     OW30070   6.968   1.862   0.438  0.5338  0.4090 -0.3684
 9724SOL    HW130071   6.879   1.855   0.482 -0.0713  1.8530 -1.3122
 9724SOL    HW230072   6.961   1.835   0.342  0.7513  1.9459 -0.8496
 9725SOL     OW30073   5.962   5.090   5.427 -0.1022 -0.7215 -0.1170
 9725SOL    HW130074   5.930   5.006   5.471 -0.5618  0.6992  2.4693
 9725SOL    HW230075   6.050   5.116   5.466 -1.0599  1.1952  0.8900
 9726SOL     OW30076   2.533   2.505   2.798  0.4512 -0.4030 -0.2679
 9726SOL    HW130077   2.575   2.511   2.707  1.3526 -0.3832  0.1345
 9726SOL    HW230078   2.585   2.441   2.854  0.8955  0.8036  0.7461
 9727SOL     OW30079   2.323   2.764   3.109  0.0806  0.4120  0.5646
 9727SOL    HW130080   2.227   2.786   3.092 -0.4505 -2.0168  0.0089
 9727SOL    HW230081   2.377   2.782   3.027 -0.6826 -1.9972 -0.5289
 9728SOL     OW30082   3.823   3.031   3.415 -0.4129 -0.7887 -0.1467
 9728SOL    HW130083   3.867   3.030   3.325  0.8324 -0.5406  0.4325
 9728SOL    HW230084   3.887   2.996   3.483  0.1515  2.6212  1.2652
 9729SOL     OW30085   0.844   6.125   5.063  0.4691  0.6183  0.2153
 9729SOL    HW130086   0.910   6.094   5.131  1.3732  0.0964 -0.8610
 9729SOL    HW230087   0.785   6.050   5.036 -0.4693  1.0426  1.0506
 9730SOL     OW30088   1.491   4.829   0.635 -0.6807 -0.1453 -0.4539
 9730SOL    HW130089   1.508   4.731   0.646 -1.2379 -0.2347 -0.3684
 9730SOL    HW230090   1.565   4.881   0.678  0.1893 -0.5270 -1.4451
 9731SOL     OW30091   4.633   6.153   4.282  0.4043  0.8090 -0.2559
 9731SOL    HW130092   4.570   6.229   4.297  1.2825  2.0905 -2.5624
 9731SOL    HW230093   4.658   6.113   4.370 -2.6651  0.9618  0.8334
 9732SOL     OW30094   0.340   1.473   5.381  0.0994  0.0416  0.3539
 9732SOL    HW130095   0.347   1.387   5.431 -0.6539  0.7180  1.6884
 9732SOL    HW230096   0.367   1.459   5.286 -0.0280 -1.6635  0.5417
 9733SOL     OW30097   5.866   6.147   4.260  0.2686  0.1165  0.8647
 9733SOL    HW130098   5.766   6.142   4.260  0.2834 -0.5998 -0.3017
 9733SOL    HW230099   5.900   6.141   4.354 -0.6169 -4.3787  1.1335
 9734SOL     OW30100   4.771   4.694   6.873  0.7840  0.5546  0.0145
 9734SOL    HW130101   4.678   4.711   6.905  0.8529  0.7399  0.1121
 9734SOL    HW230102   4.791   4.753   6.795  1.2734  1.4459  0.7969
 9735SOL     OW30103   6.993   5.608   5.491 -0.2166 -0.3082  0.3272
 9735SOL    HW130104   7.091   5.604   5.509 -0.1169 -0.7417 -0.3006
 9735SOL    HW230105   6.965   5.527   5.439 -1.2864 -1.3148  2.2999
 9736SOL     OW30106   5.145   2.032   1.079 -0.3566  0.0384 -0.0098
 9736SOL    HW130107   5.075   1.984   1.132  0.0926 -2.8918 -1.8706
 9736SOL    HW230108   5.235   2.008   1.114 -0.1488  0.9090  0.0732
 9737SOL     OW30109   2.573   6.883   0.127 -0.0423 -0.6399 -0.5973
 9737SOL    HW130110   2.631   6.963   0.112  0.7676 -1.1028 -0.0670
 9737SOL    HW230111   2.541   6.848   0.039  0.9842 -0.7112 -0.9614
 9738SOL     OW30112   2.690   1.615   6.222  0.1448  0.2240 -0.7048
 9738SOL    HW130113   2.647   1.537   6.176  0.3306  1.3909 -3.0198
 9738SOL    HW230114   2.784   1.592   6.247 -0.4811 -0.9835  0.6559
 9739SOL     OW30115   4.063   4.792   2.127  0.1826 -0.5890  0.2462
 9739SOL    HW130116   4.011   4.877   2.125  1.1330 -0.0050 -0.0194
 9739SOL    HW230117   4.054   4.746   2.038 -0.8575 -1.1067  0.6008
 9740SOL     OW30118   6.479   4.639   1.141 -1.5142  0.6132 -0.3721
 9740SOL    HW130119   6.532   4.588   1.073  0.0482  1.0483  0.4788
 9740SOL    HW230120   6.485   4.593   1.229  0.0499  2.2705  0.4505
 9741SOL     OW30121   3.863   1.542   4.876 -0.2835 -0.1411  0.4783
 9741SOL    HW130122   3.907   1.554   4.966  0.2066 -1.9583  0.5180
 9741SOL    HW230123   3.931   1.511   4.810 -0.5855  1.4389 -0.6393
 9742SOL     OW30124   5.142   4.341   0.627 -0.2263 -0.6265 -0.0066
 9742SOL    HW130125   5.235   4.314   0.650 -0.0709 -0.3480 -0.3142
 9742SOL    HW230126   5.140   4.437   0.600 -0.7129 -0.4296  0.6728
 9743SOL     OW30127   4.338   5.123   6.338  0.2838  0.4412  0.0451
 9743SOL    HW130128   4.297   5.201   6.385 -1.1194  0.6376 -1.4256
 9743SOL    HW230129   4.268   5.073   6.288  1.6025 -0.0850 -1.3683
 9744SOL     OW30130   0.529   4.233   3.558 -0.1565 -0.3821 -0.1362
 9744SOL    HW130131   0.535   4.245   3.459  0.1799 -3.0071 -0.5106
 9744SOL    HW230132   0.433   4.219   3.584 -0.0869 -1.2908 -0.3413
 9745SOL     OW30133   3.055   1.216   3.085  0.2114  0.4861  0.4725
 9745SOL    HW130134   3.001   1.139   3.050  0.6743  1.1006 -1.7477
 9745SOL    HW230135   3.143   1.182   3.119 -0.1891 -0.1289  0.9098
 9746SOL     OW30136   6.049   3.903   2.546 -0.0125 -0.1838  0.8420
 9746SOL    HW130137   5.963   3.938   2.508  0.2329  1.2305  1.5265
 9746SOL    HW230138   6.124   3.930   2.487  0.0336 -0.8138  0.6132
 9747SOL     OW30139   1.564   5.256   4.644  0.3101  0.2842 -0.2058
 9747SOL    HW130140   1.499   5.218   4.709 -0.7770 -0.8081 -1.8404
 9747SOL    HW230141   1.564   5.356   4.650 -1.7291  0.3349 -0.3110
 9748SOL     OW30142   0.091   0.221   4.070 -0.2294 -0.3164 -0.4832
 9748SOL    HW130143   0.051   0.171   3.993 -0.8756  0.2976 -0.5615
 9748SOL    HW230144   0.086   0.164   4.153  0.1494 -0.8434 -0.8175
 9749SOL     OW30145   0.393   5.264   1.708  0.0963 -0.1250  0.3070
 9749SOL    HW130146   0.458   5.332   1.675  0.2969 -1.3652 -2.0802
 9749SOL    HW230147   0.302   5.286   1.674  0.3516 -1.5669 -1.4646
 9750SOL     OW30148   6.704   6.257   5.120 -0.1557 -0.1424 -0.3045
 9750SOL    HW130149   6.776   6.283   5.055  0.9421  0.6801  1.1655
 9750SOL    HW230150   6.737   6.182   5.177 -0.0235  0.9038  1.0500
 9751SOL     OW30151   1.712   0.258   4.786 -0.4354  0.1887  0.4080
 9751SOL    HW130152   1.695   0.277   4.689 -0.8250 -1.7463  0.0551
 9751SOL    HW230153   1.793   0.308   4.816 -0.0303  0.4516 -1.0405
 9752SOL     OW30154   3.743   1.254   1.348 -0.0520 -0.1693  0.7717
 9752SOL    HW130155   3.831   1.227   1.387 -0.8150 -1.0312  2.0063
 9752SOL    HW230156   3.750   1.258   1.249  1.2547 -0.6970  0.8200
 9753SOL     OW30157   5.972   2.285   4.111 -0.8122 -0.0098  0.1981
 9753SOL    HW130158   5.885   2.293   4.063 -0.4629 -1.0907 -0.6444
 9753SOL    HW230159   6.023   2.371   4.101 -1.5646  0.4481  0.2653
 9754SOL     OW30160   1.257   3.234   5.930  0.4613  0.6615 -0.4874
 9754SOL    HW130161   1.198   3.153   5.922  0.9120  0.1645  0.8424
 9754SOL    HW230162   1.353   3.205   5.933  0.6468  1.2677 -0.3653
 9755SOL     OW30163   4.127   3.686   1.182  0.9444  0.4887  0.3219
 9755SOL    HW130164   4.089   3.649   1.097  1.6303  1.8155 -0.5931
 9755SOL    HW230165   4.150   3.611   1.244 -0.2364 -0.4691 -0.3532
 9756SOL     OW30166   2.949   4.866   2.835 -0.2069  0.1476  0.5030
 9756SOL    HW130167   2.977   4.854   2.930  0.5470  0.0407  0.2711
 9756SOL    HW230168   3.019   4.916   2.785 -1.1534  1.3106  0.2858
 9757SOL     OW30169   4.804   5.688   1.125 -0.1884 -0.2983  0.2419
 9757SOL    HW130170   4.817   5.784   1.148  2.3526 -0.9843  2.1708
 9757SOL    HW230171   4.707   5.669   1.113 -0.8338  2.2745  0.7598
 9758SOL     OW30172   3.027   5.566   0.971 -0.1226 -0.7211 -0.5712
 9758SOL    HW130173   3.069   5.650   0.937  1.2671 -1.4465 -0.7114
 9758SOL    HW230174   2.931   5.563   0.942 -0.9332  1.9155  1.4254
 9759SOL     OW30175   5.165   2.016   0.327 -0.1596 -0.0321 -0.4867
 9759SOL    HW130176   5.230   1.942   0.346  0.9028  0.0917 -3.2200
 9759SOL    HW230177   5.207   2.083   0.267 -2.0886  1.2740 -0.4572
 9760SOL     OW30178   3.905   1.454   0.504  0.0998 -0.0439  0.2558
 9760SOL    HW130179   3.929   1.399   0.424 -1.5524  1.8825 -1.6992
 9760SOL    HW230180   3.836   1.405   0.558 -0.3092 -0.5215 -0.6724
 9761SOL     OW30181   1.422   3.229   5.406  0.0257  0.0124  0.2753
 9761SOL    HW130182   1.346   3.284   5.372  1.1994  2.2603  1.0558
 9761SOL    HW230183   1.464   3.180   5.330 -0.1156  1.4607 -0.7916
 9762SOL     OW30184   1.135   5.846   6.452 -0.4232  0.2676  1.2227
 9762SOL    HW130185   1.120   5.765   6.507 -0.8982 -0.1719  0.4675
 9762SOL    HW230186   1.048   5.874   6.410  0.2054 -0.3801 -0.5932
 9763SOL     OW30187   1.595   1.959   5.838 -0.7182  0.1519  0.3056
 9763SOL    HW130188   1.547   2.038   5.876  0.7794  1.0506  0.4175
 9763SOL    HW230189   1.663   1.927   5.904 -0.4562 -0.4425 -0.2450
 9764SOL     OW30190   6.899   0.122   6.728  0.8357  0.6837  0.1170
 9764SOL    HW130191   6.876   0.215   6.700  1.2496  1.2277  1.4970
 9764SOL    HW230192   6.838   0.094   6.801 -0.4846 -0.8540 -1.4953
 9765SOL     OW30193   6.523   0.994   3.061  0.1620  0.3009  0.0393
 9765SOL    HW130194   6.445   1.040   3.018 -0.3793 -2.0643 -1.7901
 9765SOL    HW230195   6.494   0.954   3.148  0.0761  1.6222  0.6287
 9766SOL     OW30196   3.224   1.391   2.925  0.0035  0.4180 -0.2785
 9766SOL    HW130197   3.151   1.374   2.991 -1.0156  1.0876 -1.1957
 9766SOL    HW230198   3.194   1.361   2.834  1.1773 -0.0062 -0.5437
 9767SOL     OW30199   5.191   0.402   6.173  0.7778 -0.6481 -0.0828
 9767SOL    HW130200   5.099   0.420   6.138  0.9883  0.8240  0.0740
 9767SOL    HW230201   5.187   0.391   6.272  0.9409  0.8667  0.1146
 9768SOL     OW30202   1.134   3.233   4.614  0.4779  0.5828  0.2625
 9768SOL    HW130203   1.186   3.230   4.529 -1.8415  2.4607 -1.3361
 9768SOL    HW230204   1.042   3.195   4.599  0.2581  0.2464  2.1430
 9769SOL     OW30205   4.994   6.080   2.742 -0.2763  0.1271 -0.5598
 9769SOL    HW130206   5.041   6.065   2.829  0.5950  2.4999 -0.5580
 9769SOL    HW230207   4.908   6.030   2.742  1.1077 -2.4705  0.3845
 9770SOL     OW30208   2.473   5.002   6.172 -0.0394  0.0016 -0.1590
 9770SOL    HW130209   2.445   5.025   6.078  0.0779 -0.2566 -0.2597
 9770SOL    HW230210   2.396   4.962   6.221 -0.0192 -0.1364 -0.2399
 9771SOL     OW30211   1.829   4.602   2.165 -0.3023 -0.4853 -0.3014
 9771SOL    HW130212   1.739   4.596   2.207  0.1173  1.2491  0.9966
 9771SOL    HW230213   1.894   4.548   2.219  0.4127  2.4219  2.0241
 9772SOL     OW30214   0.555   0.253   6.739 -1.0871  0.4258 -0.2853
 9772SOL    HW130215   0.524   0.330   6.683  4.2608  2.6861 -0.7465
 9772SOL    HW230216   0.602   0.187   6.681 -1.1312 -0.5924  0.8120
 9773SOL     OW30217   0.480   6.072   5.078  0.8655 -0.5553 -0.0130
 9773SOL    HW130218   0.463   6.160   5.035  3.3585  0.1858  0.3613
 9773SOL    HW230219   0.528   6.012   5.014 -0.3605 -1.4828 -0.0947
 9774SOL     OW30220   2.114   5.721   5.502  0.1416  0.2157 -0.8950
 9774SOL    HW130221   2.149   5.660   5.574 -1.4714  0.4358  0.1211
 9774SOL    HW230222   2.014   5.715   5.499  0.1192  0.8858 -2.5458
 9775SOL     OW30223   6.700   0.299   6.076  0.1964 -0.6403 -0.0790
 9775SOL    HW130224   6.628   0.291   6.145 -1.6875 -2.3539 -2.0764
 9775SOL    HW230225   6.683   0.233   6.003  2.0962  1.0873 -2.2192
 9776SOL     OW30226   0.706   2.878   5.936  0.3368  0.0951 -0.2734
 9776SOL    HW130227   0.752   2.954   5.983  1.3866 -0.2175 -0.7785
 9776SOL    HW230228   0.678   2.907   5.844  0.1529  0.0655 -0.2281
 9777SOL     OW30229   1.238   4.018   2.047 -0.0294 -1.0614  0.2139
 9777SOL    HW130230   1.288   3.953   1.989 -0.0930 -0.5349 -0.4425
 9777SOL    HW230231   1.199   3.969   2.126 -1.7240 -2.2419 -1.2634
 9778SOL     OW30232   5.902   5.973   1.533  0.1168  0.2651  0.0377
 9778SOL    HW130233   5.916   6.004   1.439  0.1835  0.2435  0.0407
 9778SOL    HW230234   5.980   5.918   1.562  0.2713  0.5798  0.2323
 9779SOL     OW30235   6.444   4.395   2.379  0.8575 -0.3827 -0.4315
 9779SOL    HW130236   6.451   4.311   2.324 -1.7571 -2.1403  1.6541
 9779SOL    HW230237   6.482   4.379   2.470 -1.2843 -0.0331  0.6145
 9780SOL     OW30238   0.711   6.055   6.643  0.5149  0.5159 -0.0959
 9780SOL    HW130239   0.694   6.041   6.741 -0.9630  1.3589 -0.2136
 9780SOL    HW230240   0.751   5.972   6.604  0.7841  0.0457  1.1344
 9781SOL     OW30241   0.948   0.543   2.139 -0.6692  0.1746  0.2653
 9781SOL    HW130242   0.932   0.593   2.054 -1.0111 -0.6561 -0.1738
 9781SOL    HW230243   0.905   0.453   2.133  0.5127 -0.4506  0.7500
 9782SOL     OW30244   5.890   2.944   5.084 -0.8436 -0.1905  0.2759
 9782SOL    HW130245   5.914   2.980   4.994 -2.1664 -1.4750 -0.6236
 9782SOL    HW230246   5.794   2.917   5.085 -0.0705 -3.2788  0.9965
 9783SOL     OW30247   4.183   1.999   2.521  0.1567  0.1405 -0.0548
 9783SOL    HW130248   4.171   2.055   2.603  1.5581 -1.1730  1.1063
 9783SOL    HW230249   4.131   2.039   2.445 -0.5520  1.8160  1.2547
 9784SOL     OW30250   5.000   0.397   1.928  0.1975 -0.4078 -0.1568
 9784SOL    HW130251   4.930   0.438   1.869  1.3121  0.1002 -1.1620
 9784SOL    HW230252   5.010   0.451   2.011 -0.6244 -0.5067  0.0135
 9785SOL     OW30253   0.186   5.155   2.592  0.6003 -0.2406 -0.1958
 9785SOL    HW130254   0.097   5.119   2.564  0.5945  0.8035 -1.6202
 9785SOL    HW230255   0.189   5.163   2.692 -0.6034 -1.0286 -0.0792
 9786SOL     OW30256   5.137   3.477   0.056 -0.0929  0.4347 -0.2250
 9786SOL    HW130257   5.088   3.419   0.120  1.3559 -0.1635  0.3896
 9786SOL    HW230258   5.177   3.555   0.105  1.0596 -0.0452 -0.3653
 9787SOL     OW30259   2.884   6.357   2.101 -0.6213  0.0789  0.2307
 9787SOL    HW130260   2.967   6.355   2.044 -0.3772 -1.4220  0.5855
 9787SOL    HW230261   2.910   6.343   2.196 -1.1137  1.7009  0.6260
 9788SOL     OW30262   5.848   1.611   0.597 -0.4192  0.0624  0.5841
 9788SOL    HW130263   5.830   1.708   0.613 -1.7785 -0.0748  0.0050
 9788SOL    HW230264   5.938   1.600   0.555  0.3408  0.9479  1.9127
 9789SOL     OW30265   5.131   1.881   4.911  0.1318  0.0928  0.5286
 9789SOL    HW130266   5.195   1.957   4.918  0.9273 -0.6951  4.5420
 9789SOL    HW230267   5.181   1.795   4.926 -0.9153 -1.2458 -2.8255
 9790SOL     OW30268   4.820   1.224   2.540 -0.3659 -0.5542  0.5744
 9790SOL    HW130269   4.905   1.227   2.487 -0.9733  2.9711 -0.4532
 9790SOL    HW230270   4.838   1.253   2.634 -0.3118 -0.5919  0.5757
 9791SOL     OW30271   3.523   5.067   3.208 -0.1349  0.1216 -0.6401
 9791SOL    HW130272   3.447   5.051   3.144 -0.7988 -1.6545  0.5397
 9791SOL    HW230273   3.493   5.132   3.278  0.0220  0.7151 -1.1062
 9792SOL     OW30274   1.877   3.208   2.720 -0.2565  0.8341 -0.4703
 9792SOL    HW130275   1.856   3.138   2.652 -0.0276 -0.8222  1.0989
 9792SOL    HW230276   1.793   3.254   2.749 -0.4282  1.1046 -1.3641
 9793SOL     OW30277   4.852   0.300   6.865  0.2440  0.1328 -0.8786
 9793SOL    HW130278   4.817   0.268   6.953 -1.5115  0.8754 -1.2591
 9793SOL    HW230279   4.948   0.272   6.854  0.0553 -1.2046  0.6240
 9794SOL     OW30280   6.851   0.731   0.959 -0.6393  0.0074 -0.0134
 9794SOL    HW130281   6.791   0.761   0.885  0.1577 -1.5890 -1.3541
 9794SOL    HW230282   6.853   0.631   0.962  2.1867 -0.0161 -0.2306
 9795SOL     OW30283   2.664   6.641   4.992 -0.1774  0.3312 -0.5605
 9795SOL    HW130284   2.651   6.587   5.074  0.8043 -0.4304 -0.8834
 9795SOL    HW230285   2.758   6.676   4.989 -0.9898  2.8064  0.0691
 9796SOL     OW30286   6.236   5.940   1.253 -0.9374  0.2841 -0.2087
 9796SOL    HW130287   6.302   5.955   1.180 -0.5220  1.4618  0.3912
 9796SOL    HW230288   6.149   5.983   1.228 -1.8922 -2.2151 -1.5041
 9797SOL     OW30289   4.535   4.102   1.644 -0.5884 -0.5171 -0.8959
 9797SOL    HW130290   4.513   4.165   1.570 -1.4573 -1.8613 -1.8489
 9797SOL    HW230291   4.499   4.138   1.731  0.5397  1.1270 -1.0763
 9798SOL     OW30292   2.540   1.030   1.096  0.1629  0.4108 -0.0571
 9798SOL    HW130293   2.481   0.959   1.136  0.6274 -0.0118 -0.1109
 9798SOL    HW230294   2.487   1.114   1.084  0.2156  0.8632  2.3295
 9799SOL     OW30295   3.388   4.892   1.700  0.4320 -0.2371 -0.2730
 9799SOL    HW130296   3.434   4.904   1.612 -0.4992  0.1326 -0.7167
 9799SOL    HW230297   3.430   4.952   1.768  1.6871 -1.1074 -0.2471
 9800SOL     OW30298   2.359   0.612   2.980  0.4792  0.0693 -0.9153
 9800SOL    HW130299   2.301   0.557   3.040 -0.2605  0.8928 -0.8634
 9800SOL    HW230300   2.321   0.612   2.887  0.6145  0.2964 -0.9716
 9801SOL     OW30301   0.471   2.525   5.359 -0.2089 -0.2662 -0.0960
 9801SOL    HW130302   0.399   2.526   5.429 -0.2995 -2.3100 -0.1170
 9801SOL    HW230303   0.458   2.447   5.299 -0.2387  1.5489 -2.5913
 9802SOL     OW30304   3.383   6.326   3.728 -0.1240  0.3491 -0.5041
 9802SOL    HW130305   3.299   6.349   3.778  0.2895  0.8014 -0.0139
 9802SOL    HW230306   3.389   6.383   3.646 -0.1092  0.5785 -0.3441
 9803SOL     OW30307   4.986   6.224   3.750 -0.2399  0.1321  0.1287
 9803SOL    HW130308   4.952   6.309   3.709 -0.1795 -0.0399 -0.2901
 9803SOL    HW230309   5.074   6.202   3.709 -1.2571 -1.3041 -1.4256
 9804SOL     OW30310   6.329   2.132   2.683  0.4606 -0.0254 -0.1845
 9804SOL    HW130311   6.392   2.135   2.761  0.2883 -0.1652 -0.0405
 9804SOL    HW230312   6.288   2.041   2.677 -0.3269  0.2967  0.1946
 9805SOL     OW30313   6.724   5.470   1.478  0.0124  0.1003  0.0578
 9805SOL    HW130314   6.742   5.431   1.388  0.7390 -0.4450  0.4240
 9805SOL    HW230315   6.743   5.401   1.548  0.8690  0.9682  0.7026
 9806SOL     OW30316   1.767   2.103   1.434  0.2276 -0.5261  0.5271
 9806SOL    HW130317   1.853   2.055   1.450 -0.0261 -0.4724  2.1873
 9806SOL    HW230318   1.694   2.036   1.416  0.5950 -0.5677 -0.9826
 9807SOL     OW30319   3.924   5.838   1.412 -0.6470 -0.0097  0.3938
 9807SOL    HW130320   4.001   5.884   1.457  0.0170 -0.4718 -0.2494
 9807SOL    HW230321   3.942   5.740   1.405 -0.7640  0.0294 -0.7751
 9808SOL     OW30322   1.747   0.758   0.581 -0.0944 -0.3598  0.3012
 9808SOL    HW130323   1.652   0.780   0.600  0.0146 -0.1372  0.5830
 9808SOL    HW230324   1.779   0.811   0.502  0.4062  1.1044  1.4605
 9809SOL     OW30325   3.017   4.677   0.965 -0.6851 -0.1799 -0.2257
 9809SOL    HW130326   3.010   4.629   1.053  1.8816 -1.2869 -0.5060
 9809SOL    HW230327   2.938   4.736   0.953 -1.2019 -0.0698  2.7687
 9810SOL     OW30328   5.980   1.022   0.681  0.0155  0.4725  0.6520
 9810SOL    HW130329   5.890   1.062   0.697 -0.9193 -1.3994  0.3188
 9810SOL    HW230330   5.988   0.999   0.584 -0.3885 -2.1310  1.1746
 9811SOL     OW30331   0.123   2.805   3.388 -0.4119 -0.2822  0.5518
 9811SOL    HW130332   0.081   2.729   3.337 -0.1165  0.0440 -0.1856
 9811SOL    HW230333   0.166   2.868   3.324  0.5547 -0.2114  1.2467
 9812SOL     OW30334   4.062   5.829   3.810  0.1520  0.4341  0.1165
 9812SOL    HW130335   4.091   5.921   3.785 -2.6884  1.6355  0.8894
 9812SOL    HW230336   4.123   5.762   3.767  2.3789  2.6313 -0.3479
 9813SOL     OW30337   2.007   2.764   1.857  0.2364 -0.3740 -0.4583
 9813SOL    HW130338   2.040   2.846   1.906 -0.1053  0.0513 -0.9337
 9813SOL    HW230339   2.077   2.734   1.792  0.1541 -0.1545 -0.6485
 9814SOL     OW30340   3.542   5.592   5.193  0.1890 -0.2306 -0.3222
 9814SOL    HW130341   3.571   5.526   5.123  0.2665  0.9866 -1.4815
 9814SOL    HW230342   3.499   5.543   5.269 -0.5431 -1.5375 -1.5294
 9815SOL     OW30343   0.483   3.074   1.405  0.4275  0.2900  0.3302
 9815SOL    HW130344   0.445   3.063   1.313  0.5211 -0.6558  0.4039
 9815SOL    HW230345   0.580   3.099   1.397  0.9188 -1.5348  0.1594
 9816SOL     OW30346   6.963   3.585   4.824  0.3388 -0.6967 -0.0840
 9816SOL    HW130347   7.032   3.567   4.754  1.7156  0.3547  0.9401
 9816SOL    HW230348   6.878   3.615   4.780  0.6315 -1.6202 -1.3493
 9817SOL     OW30349   3.002   3.142   3.034  0.2909  0.3276  0.6563
 9817SOL    HW130350   3.077   3.079   3.049 -0.4673 -0.6575  0.4097
 9817SOL    HW230351   3.012   3.187   2.945 -0.0707 -0.7575  0.0563
 9818SOL     OW30352   1.803   0.640   6.686  0.0078 -0.1229  0.9771
 9818SOL    HW130353   1.783   0.737   6.672  0.7477  0.1341  1.6373
 9818SOL    HW230354   1.739   0.602   6.753  0.5869  0.2626  1.7660
 9819SOL     OW30355   4.376   1.370   6.887 -0.5311 -0.8902 -0.2809
 9819SOL    HW130356   4.358   1.273   6.870 -0.2684 -0.9149 -0.4207
 9819SOL    HW230357   4.442   1.379   6.962 -1.7280 -0.7820  0.8131
 9820SOL     OW30358   1.785   2.132   2.451 -0.4969 -0.4602 -0.1102
 9820SOL    HW130359   1.810   2.115   2.356 -1.9990 -0.1871 -0.5824
 9820SOL    HW230360   1.809   2.226   2.476 -1.5197 -0.0161 -0.7346
 9821SOL     OW30361   6.091   3.478   4.933  0.2435 -0.1969 -0.3333
 9821SOL    HW130362   6.165   3.444   4.875  1.3704  3.3569 -1.2465
 9821SOL    HW230363   6.110   3.454   5.029  2.3131  0.1242 -0.6202
 9822SOL     OW30364   5.632   3.573   5.556 -1.0116 -0.3154  0.5316
 9822SOL    HW130365   5.682   3.646   5.510 -1.5544 -0.4520 -0.2781
 9822SOL    HW230366   5.670   3.485   5.527 -0.7299 -0.3799  1.0792
 9823SOL     OW30367   1.197   1.791   0.035 -0.0597  0.4309  0.1129
 9823SOL    HW130368   1.099   1.806   0.021 -0.1346 -1.0027 -1.1877
 9823SOL    HW230369   1.244   1.879   0.034 -1.2405  1.0886  0.0334
 9824SOL     OW30370   6.843   0.477   2.635  0.3523  0.1357 -0.0283
 9824SOL    HW130371   6.881   0.488   2.727  0.1311 -0.6111  0.1525
 9824SOL    HW230372   6.754   0.521   2.631 -1.2874 -2.7929  1.1786
 9825SOL     OW30373   4.851   4.099   5.644 -0.2187  0.5262  0.1479
 9825SOL    HW130374   4.933   4.056   5.680  0.3869  0.9795 -0.6603
 9825SOL    HW230375   4.815   4.165   5.710  1.6790  2.3942 -0.5770
 9826SOL     OW30376   4.269   6.367   1.858  0.2394 -0.0938  0.5102
 9826SOL    HW130377   4.184   6.374   1.807  0.0833 -1.3183  0.5660
 9826SOL    HW230378   4.282   6.450   1.912 -0.6631  0.3187  0.1186
 9827SOL     OW30379   1.114   0.224   1.660  0.4871 -0.8136  0.3461
 9827SOL    HW130380   1.186   0.156   1.668  0.1721 -1.1867  0.0281
 9827SOL    HW230381   1.090   0.236   1.563  0.3945 -0.4062  0.4178
 9828SOL     OW30382   1.133   4.838   1.067  0.1674  0.2821  0.3458
 9828SOL    HW130383   1.035   4.847   1.086  0.3585  1.6055  0.7801
 9828SOL    HW230384   1.145   4.803   0.975 -0.7181  0.6867  0.0613
 9829SOL     OW30385   5.115   3.220   2.502 -0.2073 -0.5456 -0.0204
 9829SOL    HW130386   5.034   3.242   2.448 -0.0402 -1.3003 -0.5973
 9829SOL    HW230387   5.156   3.304   2.537  0.2505  0.0417 -1.8931
 9830SOL     OW30388   5.550   5.929   0.714 -0.6219  0.0406 -0.0129
 9830SOL    HW130389   5.520   5.992   0.785 -0.3483  0.5662 -0.3557
 9830SOL    HW230390   5.527   5.967   0.624  0.7952  0.3348 -0.2786
 9831SOL     OW30391   1.346   2.054   0.077  0.1698  0.1404 -0.3529
 9831SOL    HW130392   1.326   2.042   0.174  2.0565 -0.7993 -0.0322
 9831SOL    HW230393   1.315   2.145   0.048  0.0092  0.6359  1.2508
 9832SOL     OW30394   2.868   4.158   5.968  0.5001  0.4659  0.2917
 9832SOL    HW130395   2.805   4.220   6.015 -0.7380 -0.2955 -0.2909
 9832SOL    HW230396   2.962   4.181   5.993 -0.0551  0.4481  2.7186
 9833SOL     OW30397   2.429   3.331   5.554  0.4520 -0.2386  0.5527
 9833SOL    HW130398   2.510   3.315   5.609  0.8044  0.1357  0.1477
 9833SOL    HW230399   2.407   3.428   5.553  1.2718 -0.0323 -1.0768
 9834SOL     OW30400   4.482   1.051   6.294 -0.4459 -0.6629  0.9017
 9834SOL    HW130401   4.554   1.112   6.327 -2.0919  1.7519  0.3310
 9834SOL    HW230402   4.422   1.026   6.370 -0.2301 -0.9104  0.9915
 9835SOL     OW30403   1.959   1.460   0.690  0.4746  0.2574  0.7846
 9835SOL    HW130404   2.040   1.475   0.634 -2.1564  1.0653 -3.1755
 9835SOL    HW230405   1.933   1.363   0.687 -0.2714  0.4803 -0.3884
 9836SOL     OW30406   6.046   2.727   6.444 -0.1017 -0.5438  0.1874
 9836SOL    HW130407   6.108   2.747   6.369 -1.3245  0.5220 -0.5701
 9836SOL    HW230408   5.985   2.652   6.418 -1.0773  0.3745 -0.2372
 9837SOL     OW30409   4.863   6.903   2.232  0.1635 -0.0160  0.6263
 9837SOL    HW130410   4.912   6.819   2.256  1.1139  0.1764 -0.6076
 9837SOL    HW230411   4.806   6.887   2.151  1.5132  0.9135 -0.5460
 9838SOL     OW30412   5.150   5.999   5.456  0.5415 -0.4095 -0.4297
 9838SOL    HW130413   5.193   6.028   5.541 -0.9563  1.5453 -0.2835
 9838SOL    HW230414   5.217   5.950   5.400  2.4420  0.9840  0.5302
 9839SOL     OW30415   7.015   0.858   2.971  0.4247  0.0279 -0.1321
 9839SOL    HW130416   7.056   0.770   2.998  1.3622  0.7975  1.0193
 9839SOL    HW230417   6.953   0.842   2.894 -0.4723 -1.8690  0.8978
 9840SOL     OW30418   3.461   1.864   1.681 -0.4959 -0.6014  0.3860
 9840SOL    HW130419   3.426   1.904   1.596 -1.1209 -3.2011 -0.6681
 9840SOL    HW230420   3.413   1.906   1.759 -1.9117 -0.1163 -0.7034
 9841SOL     OW30421   5.678   2.008   1.674  0.5881  0.2306  0.5192
 9841SOL    HW130422   5.587   2.028   1.709  0.3498 -0.7374  0.4580
 9841SOL    HW230423   5.715   2.090   1.630  0.4406  1.1443  2.0111
 9842SOL     OW30424   2.382   0.330   0.047  0.0731 -0.3657  0.1050
 9842SOL    HW130425   2.339   0.245   0.017 -0.1144 -0.3549  0.3374
 9842SOL    HW230426   2.456   0.354  -0.015  0.1278 -0.6994  0.0417
 9843SOL     OW30427   4.789   6.176   2.895  0.3786  0.1673  0.2222
 9843SOL    HW130428   4.887   6.164   2.881  0.3967  0.1188  0.3836
 9843SOL    HW230429   4.764   6.271   2.880  0.4197  0.1412 -0.0033
 9844SOL     OW30430   3.773   1.490   2.329  0.0675 -0.3490 -0.4440
 9844SOL    HW130431   3.769   1.472   2.231  0.1470 -1.8796 -0.1861
 9844SOL    HW230432   3.868   1.500   2.357  0.0510 -0.0449 -0.4868
 9845SOL     OW30433   6.778   2.837   1.624 -0.2627  0.1408 -0.0207
 9845SOL    HW130434   6.842   2.808   1.696  0.9780  2.6253 -0.0261
 9845SOL    HW230435   6.712   2.902   1.662 -0.8826 -0.0756 -0.7011
 9846SOL     OW30436   5.470   5.609   1.323  0.4722  0.3934 -0.3152
 9846SOL    HW130437   5.429   5.654   1.243 -0.3413 -0.9505 -0.6777
 9846SOL    HW230438   5.398   5.589   1.390  0.4704 -2.0173 -0.9674
 9847SOL     OW30439   2.890   5.609   3.176  0.0204  0.0323 -0.3743
 9847SOL    HW130440   2.812   5.648   3.128 -0.0544  0.1713 -0.1421
 9847SOL    HW230441   2.975   5.638   3.131 -0.0097  0.9357  0.1249
 9848SOL     OW30442   3.831   6.191   4.320  0.0499 -0.6442 -0.1415
 9848SOL    HW130443   3.902   6.252   4.284 -0.2113 -0.7195 -0.7894
 9848SOL    HW230444   3.861   6.096   4.309 -0.3924 -0.6981 -0.9488
 9849SOL     OW30445   5.326   4.385   2.861 -0.2965  0.1585  0.0734
 9849SOL    HW130446   5.387   4.423   2.791  1.5183 -1.2326  0.8082
 9849SOL    HW230447   5.305   4.455   2.929 -2.7417  1.7813 -2.1734
 9850SOL     OW30448   2.550   0.990   5.793 -0.1188 -0.5629  0.0803
 9850SOL    HW130449   2.584   1.068   5.742 -1.2584  0.2450  0.5130
 9850SOL    HW230450   2.566   0.906   5.741  1.2389 -0.0640 -0.3210
 9851SOL     OW30451   0.971   3.079   5.336 -0.3066  0.1465 -0.5304
 9851SOL    HW130452   1.064   3.082   5.299 -0.7907  2.0682 -1.7327
 9851SOL    HW230453   0.936   2.986   5.329  1.6108 -0.7016  0.2633
 9852SOL     OW30454   4.331   6.275   6.699  0.9182  0.1326  0.5996
 9852SOL    HW130455   4.244   6.238   6.665  0.8938  1.2033 -0.5968
 9852SOL    HW230456   4.313   6.343   6.770  0.7897  0.0919  0.6073
 9853SOL     OW30457   5.490   6.427   6.968  0.1824 -0.4186 -0.1995
 9853SOL    HW130458   5.409   6.484   6.979 -0.1650 -0.9436  0.0305
 9853SOL    HW230459   5.473   6.359   6.896  0.1568 -0.9715  0.3206
 9854SOL     OW30460   4.825   3.000   2.585  0.0577  0.2134 -0.0775
 9854SOL    HW130461   4.811   2.971   2.491 -2.1462 -0.4572  0.4037
 9854SOL    HW230462   4.828   3.100   2.589  1.2308  0.2348 -0.9553
 9855SOL     OW30463   2.935   0.520   1.035 -0.0473  0.4573 -0.3922
 9855SOL    HW130464   2.919   0.586   1.108 -0.4471 -1.4521  1.3188
 9855SOL    HW230465   2.857   0.520   0.972 -1.5227 -0.5352  1.3511
 9856SOL     OW30466   4.421   1.613   0.236  0.6602  0.0150  0.4736
 9856SOL    HW130467   4.385   1.693   0.188 -0.1163 -0.3292  0.4642
 9856SOL    HW230468   4.474   1.557   0.172  0.1776 -0.1050  0.1704
 9857SOL     OW30469   2.831   1.231   2.370 -0.1266  0.5215 -0.0365
 9857SOL    HW130470   2.818   1.297   2.443  1.5731 -0.4635  1.2402
 9857SOL    HW230471   2.923   1.241   2.331 -0.5394  0.1721 -1.1626
 9858SOL     OW30472   3.402   2.311   1.739 -0.0259 -0.2390  0.0030
 9858SOL    HW130473   3.376   2.401   1.705  1.1227 -0.0107 -0.3125
 9858SOL    HW230474   3.487   2.318   1.792 -0.1680 -1.0614  0.3572
 9859SOL     OW30475   1.068   5.953   1.703  0.5709  0.1861 -0.1037
 9859SOL    HW130476   1.132   5.970   1.628 -0.7855  3.7569 -0.6682
 9859SOL    HW230477   1.110   5.978   1.790  1.1781 -1.2179  0.0310
 9860SOL     OW30478   2.885   2.217   4.768 -0.0113  0.1400 -0.3558
 9860SOL    HW130479   2.974   2.255   4.792  0.6052 -2.0207  1.0195
 9860SOL    HW230480   2.824   2.223   4.846  0.5011 -2.6617  0.3651
 9861SOL     OW30481   0.945   1.805   6.911 -0.5648  0.0921 -0.2855
 9861SOL    HW130482   0.875   1.842   6.849 -1.6219 -0.4424  0.5449
 9861SOL    HW230483   0.943   1.705   6.907  1.0299  0.0668 -1.1709
 9862SOL     OW30484   5.172   1.408   3.850  0.4506  0.2148 -0.0156
 9862SOL    HW130485   5.257   1.392   3.901  1.3969  1.1582 -1.2296
 9862SOL    HW230486   5.107   1.457   3.908  0.4469 -1.1061  1.1535
 9863SOL     OW30487   6.382   3.892   0.383 -0.5276 -0.4864  0.0827
 9863SOL    HW130488   6.355   3.988   0.392 -1.1169 -0.5810 -0.6305
 9863SOL    HW230489   6.300   3.835   0.373 -0.1615 -1.0169  0.0943
 9864SOL     OW30490   4.721   3.331   0.346  0.1424 -0.3685 -0.2389
 9864SOL    HW130491   4.713   3.418   0.396  1.2671 -1.2297  1.5811
 9864SOL    HW230492   4.664   3.262   0.391  1.2898 -1.2077 -0.0282
 9865SOL     OW30493   5.817   6.178   6.216  0.3429 -0.4136  0.2435
 9865SOL    HW130494   5.796   6.196   6.312 -0.6704  1.7748 -0.3140
 9865SOL    HW230495   5.798   6.082   6.195 -3.2304 -0.0948  1.3387
 9866SOL     OW30496   0.090   1.160   1.188  0.0908  0.1758 -0.0105
 9866SOL    HW130497   0.129   1.240   1.142 -0.2151  1.4862  1.8511
 9866SOL    HW230498   0.011   1.127   1.137 -0.1199  1.4314 -0.5374
 9867SOL     OW30499   5.628   2.430   6.329  0.8062 -0.2984 -0.1753
 9867SOL    HW130500   5.708   2.479   6.366  0.3118 -0.2064  0.8170
 9867SOL    HW230501   5.546   2.460   6.378  0.2266 -0.7258 -0.8770
 9868SOL     OW30502   4.869   1.173   5.777  0.5233 -0.2989 -0.8853
 9868SOL    HW130503   4.944   1.181   5.711  0.1059  0.9062 -1.2301
 9868SOL    HW230504   4.840   1.264   5.806 -0.7165 -0.7501 -0.6468
 9869SOL     OW30505   5.134   5.402   2.463 -0.3314 -0.0549 -0.5674
 9869SOL    HW130506   5.058   5.346   2.496 -0.2592 -0.7991 -1.6106
 9869SOL    HW230507   5.124   5.417   2.365 -0.4952  2.0154 -0.2977
 9870SOL     OW30508   0.672   1.720   3.580 -0.8947 -0.5456  0.2627
 9870SOL    HW130509   0.722   1.718   3.494 -2.0011 -0.3012 -0.4027
 9870SOL    HW230510   0.661   1.815   3.610 -0.3455 -0.6408  0.7797
 9871SOL     OW30511   2.211   4.034   4.268 -0.2764 -0.6456 -0.0510
 9871SOL    HW130512   2.173   4.108   4.212  0.4986  1.4250  1.9808
 9871SOL    HW230513   2.139   3.995   4.325 -0.1132  1.0013  1.3824
 9872SOL     OW30514   3.028   5.640   5.243  0.4664  0.0935 -0.3026
 9872SOL    HW130515   3.096   5.653   5.316  1.4815  0.6051 -1.3104
 9872SOL    HW230516   3.052   5.560   5.189  0.9628  0.9180 -1.3600
 9873SOL     OW30517   0.079   6.788   4.241 -0.2532  0.0144 -0.2571
 9873SOL    HW130518   0.038   6.761   4.154 -3.1525 -2.0607  1.5737
 9873SOL    HW230519   0.068   6.887   4.254  1.1785  0.5556 -2.6003
 9874SOL     OW30520   4.060   1.548   5.640 -0.5724  0.5154 -0.4881
 9874SOL    HW130521   4.145   1.505   5.611 -0.2149  1.8790 -1.5954
 9874SOL    HW230522   4.008   1.579   5.559 -2.4287 -0.8050  0.1259
 9875SOL     OW30523   0.492   0.488   1.593 -0.3153 -0.0332  0.3793
 9875SOL    HW130524   0.394   0.495   1.572 -0.2364  0.2833  0.1115
 9875SOL    HW230525   0.524   0.574   1.631 -0.5503 -0.7177  2.2555
 9876SOL     OW30526   6.609   4.656   3.668 -0.1135  0.5667 -0.5726
 9876SOL    HW130527   6.637   4.751   3.664 -0.7626  0.8062  0.3401
 9876SOL    HW230528   6.638   4.615   3.754  2.4600 -0.8447 -1.9714
 9877SOL     OW30529   6.867   1.181   5.380  0.0151  0.0796 -0.1668
 9877SOL    HW130530   6.868   1.083   5.362 -2.7567  0.0071 -0.4450
 9877SOL    HW230531   6.957   1.211   5.411  0.5023 -2.8301  1.5298
 9878SOL     OW30532   1.826   4.807   0.359  0.0786 -0.0525 -0.1904
 9878SOL    HW130533   1.832   4.718   0.312 -1.6807 -1.2109  1.6119
 9878SOL    HW230534   1.836   4.793   0.457  1.4644  2.0201  0.0210
 9879SOL     OW30535   2.077   4.352   0.423  0.6863  0.5766 -0.1092
 9879SOL    HW130536   2.077   4.398   0.334  1.6535 -0.6879 -0.7927
 9879SOL    HW230537   2.166   4.309   0.438  0.5720  0.8424  1.5263
 9880SOL     OW30538   6.461   1.062   1.063  0.0574  0.5409 -0.0100
 9880SOL    HW130539   6.555   1.096   1.053  0.3806 -0.2798  0.1176
 9880SOL    HW230540   6.410   1.081   0.980  0.5117  0.4925 -0.3069
 9881SOL     OW30541   2.188   3.027   2.591  0.3186 -0.4559 -0.1119
 9881SOL    HW130542   2.178   3.123   2.566  2.0650 -0.3265 -0.4194
 9881SOL    HW230543   2.099   2.981   2.583 -0.2777  0.8331 -1.2040
 9882SOL     OW30544   5.035   1.209   6.015 -0.0165  0.4265  0.2470
 9882SOL    HW130545   5.057   1.296   5.971 -1.4567  1.3321  1.2381
 9882SOL    HW230546   4.987   1.149   5.950  1.2774  0.1913 -0.5401
 9883SOL     OW30547   5.751   0.315   0.820  0.4818 -0.3962 -0.3075
 9883SOL    HW130548   5.844   0.295   0.790 -0.4861 -0.5777 -3.5918
 9883SOL    HW230549   5.708   0.231   0.855  1.3826 -0.3856  0.8855
 9884SOL     OW30550   2.796   0.629   6.477  0.2956 -0.1405 -0.9255
 9884SOL    HW130551   2.698   0.645   6.487  0.4257  0.0534  0.1266
 9884SOL    HW230552   2.818   0.535   6.503  0.7386  0.5756  1.5227
 9885SOL     OW30553   2.796   5.582   6.043  0.2999  0.7658  0.3045
 9885SOL    HW130554   2.755   5.500   6.082  0.3876  0.9192  0.7202
 9885SOL    HW230555   2.755   5.600   5.954  0.0702  0.4391  0.3427
 9886SOL     OW30556   3.376   6.684   4.248 -0.6659 -0.3021  0.4632
 9886SOL    HW130557   3.430   6.624   4.306  0.5147 -0.3321 -0.6170
 9886SOL    HW230558   3.318   6.742   4.304  0.6295 -0.1384  1.6784
 9887SOL     OW30559   6.432   5.286   0.506 -0.8245  0.3937  0.1812
 9887SOL    HW130560   6.439   5.311   0.409 -2.7843 -0.3594 -0.2109
 9887SOL    HW230561   6.437   5.186   0.515  2.3747  0.5316  1.2428
 9888SOL     OW30562   4.800   4.567   3.354 -0.7541  0.0777  0.2693
 9888SOL    HW130563   4.745   4.485   3.342 -1.2258  0.3808  0.3311
 9888SOL    HW230564   4.799   4.621   3.270 -1.5206  0.6647  0.6446
 9889SOL     OW30565   6.113   2.080   1.675  0.2022 -0.7218  0.6409
 9889SOL    HW130566   6.038   2.114   1.618  0.4784 -0.1088  0.6329
 9889SOL    HW230567   6.168   2.015   1.623  0.0113 -0.7395  0.4604
 9890SOL     OW30568   2.785   5.599   6.959  0.1766  0.4409  0.6225
 9890SOL    HW130569   2.818   5.601   6.865 -2.1080  1.3103 -0.2437
 9890SOL    HW230570   2.854   5.637   7.020  1.2119  1.0341 -0.8767
 9891SOL     OW30571   5.449   1.072   6.580  0.2567 -0.4383  0.6067
 9891SOL    HW130572   5.405   1.152   6.539 -0.6617 -1.4238 -0.3939
 9891SOL    HW230573   5.470   1.005   6.509  2.3833 -0.4979  1.2152
 9892SOL     OW30574   4.976   4.912   4.728 -0.3196  0.6872 -0.2978
 9892SOL    HW130575   4.958   5.010   4.722  0.8076  0.8995 -0.5072
 9892SOL    HW230576   4.892   4.862   4.708 -0.2867  1.5808 -3.2090
 9893SOL     OW30577   4.383   5.969   2.293  0.0986 -0.2926  0.0789
 9893SOL    HW130578   4.385   6.020   2.207  2.8580 -0.5317 -0.0988
 9893SOL    HW230579   4.361   6.032   2.368 -0.9416  0.2096 -0.6343
 9894SOL     OW30580   4.040   3.891   4.900  0.4597 -0.5460 -0.1196
 9894SOL    HW130581   4.049   3.878   4.801  3.4124  1.9382 -0.3208
 9894SOL    HW230582   3.995   3.979   4.918  3.0756  0.7529  0.5649
 9895SOL     OW30583   4.123   7.021   3.716  0.1300 -0.3643  0.0543
 9895SOL    HW130584   4.034   6.985   3.687  0.0745 -0.0895 -0.1233
 9895SOL    HW230585   4.196   6.975   3.665  0.0119  0.3839 -0.8141
 9896SOL     OW30586   5.079   3.905   1.982 -0.2361  0.1208  0.3358
 9896SOL    HW130587   5.071   3.849   1.899 -0.6862  0.9420 -0.1974
 9896SOL    HW230588   5.046   3.998   1.962  1.9720  1.0524  0.7304
 9897SOL     OW30589   1.699   1.165   2.882 -0.2017 -0.1246 -0.5213
 9897SOL    HW130590   1.760   1.225   2.831 -0.6324  1.3318  0.6165
 9897SOL    HW230591   1.623   1.137   2.822  0.5407 -0.3746 -1.3602
 9898SOL     OW30592   4.987   3.376   0.262 -0.4761  0.4240 -0.8203
 9898SOL    HW130593   5.046   3.334   0.331  0.8861  1.5935 -1.2276
 9898SOL    HW230594   4.891   3.359   0.286 -0.0224 -0.1352  0.7514
 9899SOL     OW30595   4.242   2.399   6.194  0.1627 -0.2985  0.0440
 9899SOL    HW130596   4.277   2.458   6.121 -1.6890 -0.2804 -0.8813
 9899SOL    HW230597   4.181   2.451   6.253  0.0391 -0.8310  0.3954
 9900SOL     OW30598   3.794   1.532   4.390  0.1320  0.2613 -0.4297
 9900SOL    HW130599   3.785   1.442   4.433  1.8353 -0.2976 -1.1833
 9900SOL    HW230600   3.876   1.535   4.334  0.2039  2.3600 -0.3000
 9901SOL     OW30601   3.991   5.468   4.392 -0.0037 -0.2647  0.3747
 9901SOL    HW130602   3.938   5.487   4.310 -0.4980  0.9138  0.9340
 9901SOL    HW230603   3.985   5.371   4.415 -0.1749 -0.5262 -0.7485
 9902SOL     OW30604   6.525   5.297   2.214  0.3780  0.2841 -0.6492
 9902SOL    HW130605   6.470   5.381   2.206 -0.7113 -0.4654 -1.3224
 9902SOL    HW230606   6.603   5.314   2.274 -0.3826  1.4959  0.0413
 9903SOL     OW30607   2.340   1.057   1.496 -0.0511 -0.2141 -0.3003
 9903SOL    HW130608   2.437   1.082   1.498  0.4736 -2.0804 -0.2602
 9903SOL    HW230609   2.299   1.075   1.585  0.2671  0.4936 -0.2893
 9904SOL     OW30610   5.750   0.473   4.747 -0.1835 -0.1116 -0.4633
 9904SOL    HW130611   5.660   0.471   4.705  0.5493  1.0069 -2.2153
 9904SOL    HW230612   5.793   0.383   4.739 -0.9025 -0.4789 -0.1804
 9905SOL     OW30613   3.483   4.709   6.303 -0.0632 -0.8007  0.2584
 9905SOL    HW130614   3.532   4.741   6.384  0.3786  0.4285 -0.4560
 9905SOL    HW230615   3.385   4.725   6.314  0.0777  0.1526  0.2257
 9906SOL     OW30616   1.643   1.927   3.078 -0.7718  0.0447  0.1989
 9906SOL    HW130617   1.547   1.950   3.063 -0.9996  0.7395  2.3935
 9906SOL    HW230618   1.674   1.968   3.163  1.4164 -0.4088 -0.3173
 9907SOL     OW30619   0.330   0.041   4.855  0.3987 -0.2948  0.3245
 9907SOL    HW130620   0.382  -0.016   4.792 -1.7568 -1.1911 -0.7574
 9907SOL    HW230621   0.346   0.010   4.949  2.2514 -0.1270  0.0830
 9908SOL     OW30622   6.973   4.811   4.171 -0.6612 -0.3946  0.7164
 9908SOL    HW130623   6.898   4.813   4.236 -1.5237 -0.3573 -0.2491
 9908SOL    HW230624   7.039   4.741   4.197 -3.5027 -4.0648 -1.0285
 9909SOL     OW30625   1.984   0.366   0.912  0.5955 -0.2618 -0.3245
 9909SOL    HW130626   2.012   0.322   0.998 -0.6006 -0.1088  0.1602
 9909SOL    HW230627   1.886   0.356   0.900  0.3585  1.7665 -0.4884
 9910SOL     OW30628   4.000   5.286   5.153  0.2615  0.1190  0.0346
 9910SOL    HW130629   3.937   5.278   5.230  0.5471  1.9336  0.5175
 9910SOL    HW230630   4.092   5.303   5.187  0.4357  0.7040 -0.6935
 9911SOL     OW30631   3.122   5.320   0.862  0.1939  0.1885 -0.2086
 9911SOL    HW130632   3.122   5.412   0.903  0.9939 -0.7870  2.1463
 9911SOL    HW230633   3.128   5.251   0.934 -3.0509 -1.8886 -1.6746
 9912SOL     OW30634   3.860   1.653   1.146 -0.7473 -0.4336  0.5190
 9912SOL    HW130635   3.822   1.745   1.137  3.4898  1.4007 -1.4781
 9912SOL    HW230636   3.836   1.600   1.065  0.4411  0.5503 -0.5244
 9913SOL     OW30637   4.845   6.658   0.019 -0.3979  0.4685  0.3598
 9913SOL    HW130638   4.858   6.702  -0.070  2.0869 -1.0297 -0.1023
 9913SOL    HW230639   4.821   6.727   0.087 -0.7668  1.8786 -1.1407
 9914SOL     OW30640   5.786   3.092   3.954 -0.2259  0.2554 -0.2201
 9914SOL    HW130641   5.849   3.024   3.916 -0.3197  0.6309 -1.0659
 9914SOL    HW230642   5.711   3.108   3.890 -0.1205  1.2586 -0.1167
 9915SOL     OW30643   6.980   2.568   6.778 -0.1754 -0.3141  0.1096
 9915SOL    HW130644   6.925   2.640   6.821 -0.7876 -1.0021  0.4990
 9915SOL    HW230645   7.049   2.536   6.843  1.4100  1.2445 -0.7050
 9916SOL     OW30646   5.937   4.063   5.211 -0.5757 -0.4257 -0.7663
 9916SOL    HW130647   5.851   4.105   5.238 -0.9551  0.6840 -3.3721
 9916SOL    HW230648   5.999   4.059   5.290 -2.3873  0.2719  0.7623
 9917SOL     OW30649   2.519   2.522   2.233 -0.8692 -0.0432  0.0645
 9917SOL    HW130650   2.548   2.501   2.140  2.2863  1.4789  0.5435
 9917SOL    HW230651   2.464   2.606   2.233 -0.1940  0.4153 -0.4173
 9918SOL     OW30652   5.878   1.036   5.316  0.0270  0.1149  0.3671
 9918SOL    HW130653   5.938   1.070   5.389  0.1402 -0.9654  0.7960
 9918SOL    HW230654   5.820   0.963   5.352 -1.1504  0.7498 -0.1966
 9919SOL     OW30655   0.164   2.060   1.016 -0.2888 -0.1641 -0.0439
 9919SOL    HW130656   0.098   2.043   1.089 -0.0958 -0.2315  0.1147
 9919SOL    HW230657   0.154   2.154   0.983 -0.3021 -0.0989  0.1448
 9920SOL     OW30658   3.836   3.086   1.113  0.4247  0.1308  0.0670
 9920SOL    HW130659   3.775   3.125   1.044  2.4869  0.4521 -1.6873
 9920SOL    HW230660   3.896   3.158   1.149 -0.8328  0.0563  2.5564
 9921SOL     OW30661   4.263   5.607   5.762  0.2731  0.4123  0.0481
 9921SOL    HW130662   4.305   5.517   5.746  0.8605  0.4065  1.4917
 9921SOL    HW230663   4.319   5.659   5.827 -1.2797  0.9176  1.0168
 9922SOL     OW30664   5.370   5.146   5.710 -0.1156  0.2761  0.4572
 9922SOL    HW130665   5.407   5.122   5.800  0.4743 -0.5595  0.0080
 9922SOL    HW230666   5.320   5.068   5.672  2.0507 -0.4154 -1.1457
 9923SOL     OW30667   2.063   4.483   6.805 -0.3819 -0.8054  0.0060
 9923SOL    HW130668   2.125   4.546   6.758 -1.7837  0.8917  0.2906
 9923SOL    HW230669   2.052   4.512   6.900 -1.5655 -1.0862 -0.0309
 9924SOL     OW30670   4.310   3.328   5.330 -0.5694 -0.1769 -0.0994
 9924SOL    HW130671   4.341   3.403   5.271 -0.7036 -0.8946 -1.1075
 9924SOL    HW230672   4.212   3.316   5.319 -0.3655 -1.2858 -0.8972
 9925SOL     OW30673   3.499   2.981   6.162 -0.7111  0.3571 -0.1891
 9925SOL    HW130674   3.555   2.903   6.134  0.6307  0.4090  2.0518
 9925SOL    HW230675   3.544   3.066   6.131 -1.9585  0.3341 -2.2671
 9926SOL     OW30676   5.882   4.772   3.692 -0.0381 -0.5641 -0.7538
 9926SOL    HW130677   5.871   4.852   3.751  1.2640 -0.0467 -1.1807
 9926SOL    HW230678   5.870   4.799   3.596 -0.3733 -1.0533 -0.8602
 9927SOL     OW30679   2.616   2.455   1.975 -0.4787 -0.5806  0.1835
 9927SOL    HW130680   2.568   2.384   1.924 -0.1038 -1.6098  1.2117
 9927SOL    HW230681   2.715   2.445   1.961 -0.4577  0.3430 -0.4115
 9928SOL     OW30682   2.014   3.477   6.601 -0.0056  0.1627 -0.0491
 9928SOL    HW130683   1.998   3.383   6.572  0.0511  0.0876  0.1619
 9928SOL    HW230684   2.005   3.538   6.522  2.0543 -0.2314 -0.6583
 9929SOL     OW30685   3.693   2.895   2.919 -0.6270  0.5563 -0.2633
 9929SOL    HW130686   3.687   2.812   2.863 -0.5407 -0.2653  0.9273
 9929SOL    HW230687   3.630   2.888   2.996  0.0744  1.1828  0.3823
 9930SOL     OW30688   0.053   0.943   5.265  0.0016  0.4899  0.4115
 9930SOL    HW130689   0.142   0.919   5.303  0.6258  3.4612  1.0182
 9930SOL    HW230690   0.050   0.915   5.169  1.7825  0.7565  0.2417
 9931SOL     OW30691   2.449   0.137   0.946  0.0942 -0.0059  0.3505
 9931SOL    HW130692   2.364   0.131   0.999  0.4808 -0.7544  0.9051
 9931SOL    HW230693   2.427   0.147   0.849 -0.6442  3.3951  0.7676
 9932SOL     OW30694   6.844   1.412   4.030 -0.0158  0.0330  0.3494
 9932SOL    HW130695   6.893   1.498   4.017  0.5308  0.1056  2.5641
 9932SOL    HW230696   6.903   1.347   4.078 -1.0853 -0.9274  0.4070
 9933SOL     OW30697   1.830   4.538   0.188  0.1530  0.1983 -0.3129
 9933SOL    HW130698   1.815   4.458   0.131 -0.5881  0.4174 -0.4383
 9933SOL    HW230699   1.786   4.525   0.277  0.5513  0.2187 -0.1098
 9934SOL     OW30700   2.577   3.347   5.865 -0.7054  0.3969  0.1481
 9934SOL    HW130701   2.617   3.317   5.952  0.6811  0.2409 -0.5225
 9934SOL    HW230702   2.617   3.295   5.790 -1.0034  1.3611 -0.7004
 9935SOL     OW30703   6.319   0.643   0.026 -0.0031  0.0685  0.1805
 9935SOL    HW130704   6.284   0.582   0.097  3.9951 -0.9401  1.5665
 9935SOL    HW230705   6.320   0.595  -0.061  3.2318 -2.2286  1.2709
 9936SOL     OW30706   0.260   5.651   5.057 -0.1234  0.4680  0.0638
 9936SOL    HW130707   0.359   5.646   5.042 -0.2909  0.4595 -1.0950
 9936SOL    HW230708   0.237   5.741   5.093  0.2512  0.6389 -0.1115
 9937SOL     OW30709   4.125   6.370   5.407  0.0545  0.2191  0.3670
 9937SOL    HW130710   4.142   6.292   5.347 -1.5926 -0.6540  0.9762
 9937SOL    HW230711   4.128   6.454   5.354 -2.7588 -0.6159 -1.3061
 9938SOL     OW30712   6.551   6.368   1.670 -0.7680  0.2090  0.2095
 9938SOL    HW130713   6.568   6.409   1.581 -0.3841 -0.5945 -0.1043
 9938SOL    HW230714   6.636   6.368   1.724 -1.0398  0.8448  0.6420
 9939SOL     OW30715   2.825   3.402   1.982 -0.0545 -0.3535 -0.0881
 9939SOL    HW130716   2.746   3.343   1.997 -0.1014 -0.1811  0.3271
 9939SOL    HW230717   2.875   3.414   2.067 -0.2378  0.4950 -0.0936
 9940SOL     OW30718   1.618   2.961   6.600 -0.3946  0.1791 -0.0685
 9940SOL    HW130719   1.667   3.018   6.667 -0.3928  0.0385  0.0508
 9940SOL    HW230720   1.685   2.915   6.542 -0.3946  0.2572 -0.1308
 9941SOL     OW30721   0.483   5.042   3.883 -0.4017  0.4259 -0.9724
 9941SOL    HW130722   0.449   5.129   3.848 -1.4433  0.4280  0.0161
 9941SOL    HW230723   0.583   5.042   3.879 -0.4176  1.3123 -1.7884
 9942SOL     OW30724   1.002   6.280   4.461  0.2995 -0.0385 -0.4744
 9942SOL    HW130725   1.051   6.365   4.482 -0.3714  0.3187 -0.3254
 9942SOL    HW230726   0.993   6.270   4.362  2.4099 -1.1169 -0.6063
 9943SOL     OW30727   3.403   2.401   1.003 -0.1309  0.1570  0.0561
 9943SOL    HW130728   3.398   2.428   1.099  1.4994  1.7744 -0.2594
 9943SOL    HW230729   3.494   2.364   0.983 -0.3083  0.2444 -0.9614
 9944SOL     OW30730   6.318   4.729   0.909 -0.2531 -0.7323  0.1781
 9944SOL    HW130731   6.253   4.799   0.936  1.1266  0.8048 -0.3484
 9944SOL    HW230732   6.358   4.686   0.990 -0.3738 -0.2009  0.5190
 9945SOL     OW30733   2.971   4.247   0.245  0.6723 -0.5525  0.4989
 9945SOL    HW130734   3.002   4.161   0.286  1.1409 -0.4848  0.2915
 9945SOL    HW230735   3.045   4.287   0.192 -0.3877 -1.4659 -1.8034
 9946SOL     OW30736   6.477   6.765   1.202 -0.0346 -0.0537  0.2689
 9946SOL    HW130737   6.446   6.671   1.214 -0.7123 -0.0916 -1.4195
 9946SOL    HW230738   6.437   6.803   1.118  0.8437  1.4831  0.4959
 9947SOL     OW30739   2.148   1.672   1.287  0.3358  0.0150  0.4023
 9947SOL    HW130740   2.145   1.572   1.281  2.1866 -0.1127  0.8987
 9947SOL    HW230741   2.122   1.711   1.199 -1.9015 -0.8197  0.6236
 9948SOL     OW30742   2.025   1.536   4.807  0.1770  0.0084 -0.3198
 9948SOL    HW130743   2.041   1.635   4.803  0.3787 -0.0351 -0.6681
 9948SOL    HW230744   1.931   1.516   4.782  0.8068 -0.0742 -2.8640
 9949SOL     OW30745   0.675   6.712   6.657  0.4239 -0.5960  0.2154
 9949SOL    HW130746   0.748   6.725   6.723  0.8078 -1.1502 -0.0929
 9949SOL    HW230747   0.598   6.665   6.701  1.1819 -2.1158 -0.0405
 9950SOL     OW30748   2.171   6.218   4.139  0.3242 -0.2282  0.0028
 9950SOL    HW130749   2.088   6.233   4.086  0.9320 -1.8347 -1.4939
 9950SOL    HW230750   2.209   6.128   4.117  2.0760  0.1693  1.1972
 9951SOL     OW30751   5.224   2.006   6.674  0.1056  0.2646 -0.5576
 9951SOL    HW130752   5.308   2.047   6.638 -0.2821  0.1269 -1.6377
 9951SOL    HW230753   5.248   1.937   6.742  0.8608  0.4154 -0.6562
 9952SOL     OW30754   0.737   5.638   4.722  0.3308  0.6209  0.0774
 9952SOL    HW130755   0.718   5.733   4.696  1.3597  1.6510  2.8251
 9952SOL    HW230756   0.814   5.604   4.668 -0.2935  1.1476 -1.2171
 9953SOL     OW30757   1.022   3.596   5.656  0.3667  0.1698  0.1715
 9953SOL    HW130758   1.106   3.648   5.647  0.4767  0.4133  2.0907
 9953SOL    HW230759   1.043   3.502   5.683  0.1028 -0.4755 -1.7674
 9954SOL     OW30760   5.554   6.020   6.881 -0.4976 -0.2854 -0.1514
 9954SOL    HW130761   5.579   5.929   6.914 -0.0304  0.1612  0.7756
 9954SOL    HW230762   5.633   6.061   6.835 -0.4931 -0.0894  0.0296
 9955SOL     OW30763   3.989   6.275   1.191  0.4185  0.0347  0.7383
 9955SOL    HW130764   3.930   6.197   1.214 -0.8398  1.6542  3.5383
 9955SOL    HW230765   3.941   6.336   1.128  0.9477 -0.8436 -0.5433
 9956SOL     OW30766   4.845   4.447   5.585  0.4206  0.1489  0.2384
 9956SOL    HW130767   4.818   4.543   5.576  0.5883  0.2499  0.7738
 9956SOL    HW230768   4.882   4.415   5.497 -0.0324  0.4445 -0.0677
 9957SOL     OW30769   0.166   4.555   4.686 -0.3143 -0.2001 -0.6552
 9957SOL    HW130770   0.189   4.458   4.690 -0.5826 -0.2264  0.8167
 9957SOL    HW230771   0.090   4.574   4.749  0.6013  1.1773  0.0891
 9958SOL     OW30772   3.398   5.692   4.025  0.1573 -0.1850 -0.0115
 9958SOL    HW130773   3.346   5.609   4.007 -1.2999  0.3589  1.4111
 9958SOL    HW230774   3.491   5.667   4.051  0.3576 -1.2373 -1.5798
 9959SOL     OW30775   2.228   1.692   3.096  0.0211 -0.3224 -0.5212
 9959SOL    HW130776   2.169   1.720   3.172 -2.6777  0.3852 -2.7031
 9959SOL    HW230777   2.175   1.634   3.034  2.2678 -1.2280 -1.6763
 9960SOL     OW30778   4.239   1.141   5.852 -0.3281 -0.5361  0.2814
 9960SOL    HW130779   4.259   1.182   5.941 -0.3392  0.5661 -0.2165
 9960SOL    HW230780   4.141   1.119   5.847 -0.7191  1.1298 -0.1295
 9961SOL     OW30781   3.623   3.212   3.114  0.1182  0.1481  0.1867
 9961SOL    HW130782   3.618   3.273   3.193  0.0942  0.9455 -0.4221
 9961SOL    HW230783   3.710   3.162   3.116  0.6702  1.0837  0.0585
 9962SOL     OW30784   0.322   0.840   6.614 -0.1874  0.1065 -0.0878
 9962SOL    HW130785   0.363   0.843   6.705 -0.9925 -0.8970  0.3344
 9962SOL    HW230786   0.317   0.932   6.576  0.7134  0.4620  0.6269
 9963SOL     OW30787   5.952   6.315   4.045 -0.1093  0.7846 -0.0647
 9963SOL    HW130788   5.886   6.314   3.970  1.3799  0.6373 -1.4263
 9963SOL    HW230789   5.927   6.247   4.113 -1.6684  1.1411 -0.2406
 9964SOL     OW30790   0.466   3.340   1.518  0.1618 -0.5931 -0.5664
 9964SOL    HW130791   0.496   3.321   1.612  0.4054 -0.7010 -0.6657
 9964SOL    HW230792   0.452   3.254   1.469  0.5604 -0.5273 -0.7946
 9965SOL     OW30793   5.934   1.445   1.974 -0.0745 -0.0204  0.2130
 9965SOL    HW130794   5.875   1.502   1.918 -0.5038  0.3049  0.9755
 9965SOL    HW230795   5.984   1.380   1.916 -1.2537 -0.3680 -0.4437
 9966SOL     OW30796   2.125   0.684   1.279  0.0350 -0.0483 -0.2690
 9966SOL    HW130797   2.193   0.612   1.292  0.5541  0.5695  0.5291
 9966SOL    HW230798   2.034   0.643   1.267  0.4123 -0.8486 -0.4408
 9967SOL     OW30799   5.640   3.321   5.428 -0.5479  0.4676 -0.0338
 9967SOL    HW130800   5.547   3.293   5.449 -0.9386  1.6489 -0.1311
 9967SOL    HW230801   5.648   3.341   5.330 -0.4604  1.3430  0.1491
 9968SOL     OW30802   3.924   3.355   3.263 -0.5280  0.1810 -0.5221
 9968SOL    HW130803   3.958   3.405   3.183  0.5642 -0.3360 -0.3862
 9968SOL    HW230804   3.931   3.257   3.247 -0.5261  0.0755  0.1216
 9969SOL     OW30805   4.892   4.361   2.911  0.5830  0.0174  0.4871
 9969SOL    HW130806   4.884   4.454   2.875 -0.4871 -0.5544 -0.8344
 9969SOL    HW230807   4.901   4.297   2.835  2.7871 -0.8789  1.4090
 9970SOL     OW30808   6.009   5.260   2.157 -0.0194  0.6811 -0.3304
 9970SOL    HW130809   6.070   5.187   2.187  0.0605  1.5259  1.7179
 9970SOL    HW230810   5.923   5.255   2.208  0.3172  2.5006  0.4922
 9971SOL     OW30811   1.055   3.881   1.505 -0.1502  0.4973  0.2382
 9971SOL    HW130812   1.091   3.871   1.412  0.8776  1.2085  0.5408
 9971SOL    HW230813   1.130   3.903   1.568 -0.7751 -0.3219  1.3053
 9972SOL     OW30814   6.566   3.620   1.591 -0.0706 -0.1363  0.0114
 9972SOL    HW130815   6.660   3.600   1.619 -0.3529 -1.5399  0.0288
 9972SOL    HW230816   6.503   3.559   1.639 -0.9367  0.3458 -0.4873
 9973SOL     OW30817   1.816   3.230   4.367  0.0178 -0.1731 -0.5204
 9973SOL    HW130818   1.759   3.158   4.329  0.2529 -1.0417  0.7231
 9973SOL    HW230819   1.912   3.201   4.365 -0.0796 -0.8538  1.9347
 9974SOL     OW30820   4.741   2.461   6.015 -0.3175 -0.0559 -0.0086
 9974SOL    HW130821   4.731   2.485   6.111  2.5753 -0.4161  0.4871
 9974SOL    HW230822   4.779   2.539   5.965  0.5424 -0.6440 -0.2975
 9975SOL     OW30823   4.566   6.341   2.397  0.4074  0.8511  0.2175
 9975SOL    HW130824   4.528   6.261   2.444 -0.5687  1.1735  0.0034
 9975SOL    HW230825   4.654   6.366   2.438  0.0472  0.5243  1.2097
 9976SOL     OW30826   4.848   0.127   3.042  0.1553 -0.5192  0.5506
 9976SOL    HW130827   4.784   0.168   2.977  1.0534 -0.3085 -0.2427
 9976SOL    HW230828   4.854   0.184   3.124 -1.6118 -1.2182  1.2185
 9977SOL     OW30829   1.317   6.945   5.454  0.1218  0.0657 -0.5147
 9977SOL    HW130830   1.308   6.925   5.356  3.2786 -1.1755 -0.6599
 9977SOL    HW230831   1.299   7.042   5.470 -1.6067  0.0519 -2.1080
 9978SOL     OW30832   1.122   3.824   2.561  0.5965  0.3882 -0.1446
 9978SOL    HW130833   1.163   3.915   2.560 -0.6077  0.9749 -2.0986
 9978SOL    HW230834   1.057   3.816   2.485  0.4226 -1.9982  0.1766
 9979SOL     OW30835   2.704   1.782   3.557 -0.0525  0.1622 -0.1579
 9979SOL    HW130836   2.759   1.795   3.639 -0.3296 -1.7591  0.3744
 9979SOL    HW230837   2.761   1.741   3.485 -0.5197 -0.9352  0.0783
 9980SOL     OW30838   6.479   4.215   2.203  0.8849  0.6239 -0.1176
 9980SOL    HW130839   6.539   4.150   2.250  0.4635  0.3583  0.0571
 9980SOL    HW230840   6.510   4.226   2.109 -1.4490 -3.1183 -1.5622
 9981SOL     OW30841   1.594   4.099   5.889 -0.5488 -0.4953 -0.0012
 9981SOL    HW130842   1.588   4.069   5.794 -0.8136  2.1443 -0.8958
 9981SOL    HW230843   1.615   4.197   5.892  2.2659 -1.0266  2.6964
 9982SOL     OW30844   6.691   5.516   6.948 -0.3991  0.6301 -0.2709
 9982SOL    HW130845   6.768   5.459   6.976 -0.8597 -0.2624 -0.7887
 9982SOL    HW230846   6.704   5.609   6.983 -0.1545 -0.0344  1.5088
 9983SOL     OW30847   2.267   4.290   4.809 -0.7965  0.3283 -0.1190
 9983SOL    HW130848   2.297   4.224   4.740 -2.6345 -2.3975  1.5162
 9983SOL    HW230849   2.307   4.267   4.897  0.0555  2.6489  0.1694
 9984SOL     OW30850   1.097   6.004   2.308 -0.1250  0.6620 -0.2820
 9984SOL    HW130851   1.020   6.051   2.352 -0.3645  0.1932 -0.1898
 9984SOL    HW230852   1.064   5.955   2.227  0.0162  0.2080 -0.0683
 9985SOL     OW30853   1.031   3.636   1.753 -0.2453 -0.5187 -0.1371
 9985SOL    HW130854   1.011   3.542   1.727 -1.0234 -0.4706  0.2483
 9985SOL    HW230855   0.947   3.690   1.751 -0.3502 -0.4817  2.2622
 9986SOL     OW30856   5.953   4.655   1.205  0.0413  0.3925  0.6907
 9986SOL    HW130857   6.049   4.654   1.234  0.0591 -1.5421  0.6912
 9986SOL    HW230858   5.948   4.653   1.105  0.0268 -0.6687  0.7032
 9987SOL     OW30859   1.843   2.875   0.936  0.6842 -0.5967 -0.2625
 9987SOL    HW130860   1.886   2.936   0.869 -1.5540  1.8171  0.3114
 9987SOL    HW230861   1.764   2.830   0.894 -0.6629  0.8428  0.6137
 9988SOL     OW30862   1.210   5.926   6.118 -0.0197 -0.3354  0.1024
 9988SOL    HW130863   1.244   6.000   6.060 -0.7887 -0.3279 -0.3496
 9988SOL    HW230864   1.123   5.951   6.158 -0.3415 -1.0306 -0.1363
 9989SOL     OW30865   6.186   6.403   0.434  0.6594  0.0043 -0.1063
 9989SOL    HW130866   6.202   6.333   0.503 -0.0615  0.2266  0.3005
 9989SOL    HW230867   6.125   6.472   0.471 -1.8458 -1.1701 -1.7449
 9990SOL     OW30868   5.682   4.206   1.637 -0.2284 -0.0489 -0.3863
 9990SOL    HW130869   5.779   4.190   1.620 -0.4926 -1.5423 -0.6239
 9990SOL    HW230870   5.651   4.285   1.585  0.5336 -0.4644 -1.4960
 9991SOL     OW30871   6.402   0.877   4.713  0.2291  0.2909  0.6216
 9991SOL    HW130872   6.491   0.854   4.674  0.9820  1.3864  1.6032
 9991SOL    HW230873   6.401   0.852   4.810  0.7060  3.1234  1.4649
 9992SOL     OW30874   3.439   0.781   6.821 -0.5102 -0.2393 -0.1392
 9992SOL    HW130875   3.435   0.879   6.798  0.4431 -0.4353 -1.2397
 9992SOL    HW230876   3.404   0.767   6.913 -2.5357  0.8753 -0.6895
 9993SOL     OW30877   4.359   4.334   6.488 -0.4447  0.3573  0.2483
 9993SOL    HW130878   4.266   4.297   6.477  0.7550 -3.3718  1.2389
 9993SOL    HW230879   4.362   4.393   6.569 -1.3206 -2.4081  2.4660
 9994SOL     OW30880   0.254   3.945   4.045  0.1207 -0.4503 -0.5088
 9994SOL    HW130881   0.322   3.942   4.119 -0.1398 -1.5673 -0.3012
 9994SOL    HW230882   0.164   3.922   4.081 -1.4817  5.3638  0.2670
 9995SOL     OW30883   6.242   6.693   1.515  0.1879 -0.1921 -0.1074
 9995SOL    HW130884   6.294   6.778   1.505  0.8861 -0.5790  0.2453
 9995SOL    HW230885   6.167   6.693   1.448  0.4419  0.5043 -0.4051
 9996SOL     OW30886   3.032   5.302   3.766 -0.2561  0.4568  0.0702
 9996SOL    HW130887   3.031   5.280   3.668 -1.6874 -1.5183  0.4599
 9996SOL    HW230888   2.939   5.323   3.796  0.1978  1.2049  0.9967
 9997SOL     OW30889   1.629   3.124   4.743  0.7535 -0.2742 -0.1852
 9997SOL    HW130890   1.671   3.178   4.671 -1.0474  0.9138 -0.3987
 9997SOL    HW230891   1.530   3.133   4.739  0.5725  0.1110  2.6108
 9998SOL     OW30892   2.303   1.946   4.144 -0.1280 -0.0591  0.3664
 9998SOL    HW130893   2.395   1.906   4.143 -0.9224 -2.0870  2.4972
 9998SOL    HW230894   2.308   2.039   4.181  1.0486 -0.1236  0.4124
 9999SOL     OW30895   6.794   5.755   3.071  0.8405 -0.0019  0.0702
 9999SOL    HW130896   6.758   5.704   2.993 -0.0259  0.1643  0.3528
 9999SOL    HW230897   6.814   5.692   3.146 -1.5459  0.1522  0.9295
10000SOL     OW30898   5.901   0.908   6.154  0.0154  0.1553  0.4814
10000SOL    HW130899   5.890   1.008   6.147 -2.3101 -0.0904 -0.4649
10000SOL    HW230900   5.962   0.876   6.081  0.8786  0.8869  0.8664
10001SOL     OW30901   4.803   0.633   5.455 -0.2728  0.5319  0.2451
10001SOL    HW130902   4.723   0.633   5.515 -1.5657  2.3286 -1.3662
10001SOL    HW230903   4.860   0.713   5.475  1.4609 -0.9510  1.6724
10002SOL     OW30904   4.840   4.223   2.654 -0.2313  0.2715  0.7106
10002SOL    HW130905   4.818   4.130   2.682  0.3196  0.4124  1.6408
10002SOL    HW230906   4.807   4.238   2.560  1.1630 -1.4129 -0.1150
10003SOL     OW30907   6.443   4.324   3.316 -0.5591 -0.3577  0.2104
10003SOL    HW130908   6.346   4.299   3.320 -1.2932  2.2521  1.0432
10003SOL    HW230909   6.466   4.379   3.396  1.5074 -0.4983 -0.2404
10004SOL     OW30910   6.210   0.894   4.292  0.4130 -0.2186 -0.3991
10004SOL    HW130911   6.152   0.913   4.371 -0.9276 -1.3596 -1.0703
10004SOL    HW230912   6.173   0.816   4.241  1.8612 -0.2009 -1.5453
10005SOL     OW30913   1.677   4.401   5.919  0.0441 -0.0010 -0.3435
10005SOL    HW130914   1.588   4.446   5.916  0.9820  2.0586  0.3399
10005SOL    HW230915   1.729   4.437   5.996  0.6682 -2.8242  0.6635
10006SOL     OW30916   6.945   2.590   4.290  0.2581 -0.2333  0.6668
10006SOL    HW130917   6.888   2.667   4.320 -1.5040 -0.7690 -1.1218
10006SOL    HW230918   6.912   2.506   4.333 -1.2672 -0.7537 -1.3549
10007SOL     OW30919   3.155   5.046   5.387 -0.5210 -0.1278  0.3239
10007SOL    HW130920   3.058   5.049   5.363 -0.5816 -0.0799  0.5716
10007SOL    HW230921   3.171   4.972   5.453 -0.2800 -0.5534 -0.1945
10008SOL     OW30922   3.160   6.091   4.565  0.7928  0.1109  0.2368
10008SOL    HW130923   3.182   6.136   4.479 -1.0158 -0.8660 -0.7958
10008SOL    HW230924   3.231   6.026   4.589  1.3311  0.4235 -0.4919
10009SOL     OW30925   3.135   0.143   3.329  0.2311 -0.1141 -0.1357
10009SOL    HW130926   3.075   0.086   3.273 -1.1927 -0.7814  1.9525
10009SOL    HW230927   3.170   0.090   3.406 -0.1361  1.4515  1.1859
10010SOL     OW30928   6.855   4.351   5.153 -0.5890  0.2211 -0.1239
10010SOL    HW130929   6.831   4.285   5.082 -1.9531 -0.2249  0.7136
10010SOL    HW230930   6.885   4.303   5.236 -1.3127  0.6377  0.3972
10011SOL     OW30931   4.868   1.694   0.686 -0.1232 -0.3510 -0.0228
10011SOL    HW130932   4.837   1.760   0.754  1.2081  0.2077  0.0634
10011SOL    HW230933   4.924   1.624   0.730 -0.4445 -0.8102 -0.3263
10012SOL     OW30934   6.890   1.539   2.356  0.5886  0.0755 -0.1861
10012SOL    HW130935   6.909   1.611   2.423  1.0211 -0.0673 -0.1588
10012SOL    HW230936   6.975   1.511   2.312  0.1905  0.8652 -1.5022
10013SOL     OW30937   6.242   1.503   2.689 -0.0079 -0.1914  0.5342
10013SOL    HW130938   6.326   1.477   2.737  0.8268  1.6096  0.1213
10013SOL    HW230939   6.209   1.590   2.724 -1.2350 -0.4677  0.0957
10014SOL     OW30940   1.334   4.710   4.328 -0.0372  0.1844 -0.5369
10014SOL    HW130941   1.400   4.637   4.348  0.6269  0.9113 -0.0113
10014SOL    HW230942   1.344   4.738   4.232  1.3164  1.1380 -0.1530
10015SOL     OW30943   2.740   5.688   0.417  0.0890  0.4695  0.4140
10015SOL    HW130944   2.783   5.628   0.484  0.4012 -1.3376 -1.2935
10015SOL    HW230945   2.810   5.723   0.354 -0.5876 -0.9565 -1.2286
10016SOL     OW30946   6.523   4.465   5.678 -0.0171  0.8920 -0.0911
10016SOL    HW130947   6.536   4.557   5.639  1.0227  0.1153 -1.6735
10016SOL    HW230948   6.426   4.441   5.675  0.0309  0.7702 -2.5334
10017SOL     OW30949   2.920   1.640   2.900  0.1779  0.3636 -0.2623
10017SOL    HW130950   2.980   1.674   2.828  0.3067 -0.7434 -0.6990
10017SOL    HW230951   2.890   1.547   2.878  1.2796 -0.5319  1.7137
10018SOL     OW30952   5.204   2.986   4.752  0.3732 -0.6909  0.7800
10018SOL    HW130953   5.174   2.930   4.674 -1.0398  0.5923  0.3588
10018SOL    HW230954   5.125   3.011   4.808  1.1211 -0.0293  1.5767
10019SOL     OW30955   4.244   1.490   1.289  0.3157 -0.2942 -0.5320
10019SOL    HW130956   4.250   1.578   1.242  0.0518  0.2926  0.5004
10019SOL    HW230957   4.206   1.421   1.227 -2.0240  0.9429 -0.5646
10020SOL     OW30958   6.487   2.537   5.443 -0.1704  0.7755 -0.6254
10020SOL    HW130959   6.394   2.556   5.476 -0.2246 -1.1333  0.4225
10020SOL    HW230960   6.486   2.531   5.343 -0.7022  2.9944 -0.8163
10021SOL     OW30961   1.904   0.638   4.250 -0.5251 -0.1833 -0.4842
10021SOL    HW130962   1.933   0.638   4.155 -1.5187 -1.3732 -0.8103
10021SOL    HW230963   1.880   0.732   4.278 -3.2300 -0.1866 -2.3981
10022SOL     OW30964   2.390   2.297   3.157 -0.2265  0.4224 -0.4224
10022SOL    HW130965   2.470   2.312   3.099  0.5971 -0.7010  0.3703
10022SOL    HW230966   2.384   2.370   3.225  0.3449  0.3314 -0.2632
10023SOL     OW30967   6.155   2.169   0.075 -0.1848 -0.0372  0.1163
10023SOL    HW130968   6.112   2.257   0.097 -0.8038 -0.2759 -0.1065
10023SOL    HW230969   6.192   2.129   0.159  0.6039  0.6929  0.1240
10024SOL     OW30970   0.272   1.625   0.946  0.4680  0.5798  0.2219
10024SOL    HW130971   0.370   1.634   0.961  1.1675 -2.7476 -1.3286
10024SOL    HW230972   0.251   1.646   0.850  0.1321 -0.9311 -0.0667
10025SOL     OW30973   0.851   2.101   3.037 -0.3260  0.2275  0.0940
10025SOL    HW130974   0.947   2.095   3.007 -0.7278  0.1673 -1.2559
10025SOL    HW230975   0.805   2.014   3.019 -0.5954  0.1931  0.9173
10026SOL     OW30976   4.881   3.471   1.942  0.3394  0.0898  0.3827
10026SOL    HW130977   4.974   3.465   1.977  1.4774  0.8709 -2.2411
10026SOL    HW230978   4.841   3.559   1.967  1.2068  0.7187 -0.3544
10027SOL     OW30979   0.504   1.228   6.210  0.4851 -0.0720 -0.7630
10027SOL    HW130980   0.411   1.245   6.179 -0.1865  0.6608  1.4688
10027SOL    HW230981   0.505   1.145   6.266  0.8237  0.7700  0.5186
10028SOL     OW30982   1.612   2.533   6.747  0.0962 -0.4216 -0.0489
10028SOL    HW130983   1.576   2.599   6.814 -0.1997 -1.5680  0.9549
10028SOL    HW230984   1.700   2.498   6.778 -0.2136 -1.2386 -0.0744
10029SOL     OW30985   2.989   3.791   3.922  0.5666  0.4095 -0.2945
10029SOL    HW130986   2.977   3.695   3.947  0.1763  0.6863  0.6529
10029SOL    HW230987   2.951   3.807   3.831  1.5733 -0.5426 -0.8999
10030SOL     OW30988   0.227   0.190   6.215  0.6783  0.1067 -0.3286
10030SOL    HW130989   0.212   0.143   6.302  1.9003  0.2398 -0.0314
10030SOL    HW230990   0.167   0.271   6.210 -0.9805 -1.0792 -0.5771
10031SOL     OW30991   4.590   1.764   4.058 -0.1018 -0.0836  0.5658
10031SOL    HW130992   4.625   1.844   4.008 -0.1630 -0.9298 -0.8891
10031SOL    HW230993   4.666   1.705   4.084 -0.2559 -1.3234 -1.5505
10032SOL     OW30994   3.741   2.086   5.584  0.1876  0.3221 -0.4341
10032SOL    HW130995   3.794   2.120   5.662 -0.4681 -2.6650  1.4719
10032SOL    HW230996   3.782   2.002   5.550 -0.6761  0.5324 -2.0803
10033SOL     OW30997   6.778   0.279   5.005  0.1661  0.7136  0.1736
10033SOL    HW130998   6.695   0.267   4.951  0.3111 -0.8741  0.2798
10033SOL    HW230999   6.856   0.291   4.944 -0.0295  1.6066  0.0741
10034SOL     OW31000   6.884   2.925   6.105  0.3827  0.0668 -0.0008
10034SOL    HW131001   6.787   2.926   6.128  0.0976  0.5748 -1.1666
10034SOL    HW231002   6.936   2.889   6.182 -0.8025 -0.9644  0.3431
10035SOL     OW31003   0.575   6.180   5.334 -0.2632 -0.2915 -0.3518
10035SOL    HW131004   0.644   6.234   5.286  0.6785  0.6380  1.9141
10035SOL    HW231005   0.523   6.127   5.267  0.6072  1.2848 -2.4215
10036SOL     OW31006   6.196   1.926   2.953 -0.0120 -0.5185  0.4565
10036SOL    HW131007   6.291   1.895   2.943 -0.1057 -0.5920 -0.2513
10036SOL    HW231008   6.182   1.958   3.046  1.5001  2.0827 -0.0806
10037SOL     OW31009   0.798   5.530   2.991 -0.2569  0.2504  0.0409
10037SOL    HW131010   0.776   5.521   3.088 -0.5725  1.3405  0.0811
10037SOL    HW231011   0.740   5.600   2.950  1.8927  1.9636 -0.2634
10038SOL     OW31012   3.387   5.681   1.290 -0.4045  0.2475  0.4055
10038SOL    HW131013   3.336   5.610   1.242 -0.9278  0.4147  0.7106
10038SOL    HW231014   3.340   5.704   1.375  0.3028  0.2401  0.8073
10039SOL     OW31015   3.494   2.951   4.262 -0.1798  0.0301  0.2357
10039SOL    HW131016   3.483   2.912   4.353  0.5201 -1.1903 -0.1736
10039SOL    HW231017   3.588   2.984   4.251  0.1906 -1.1962 -0.5196
10040SOL     OW31018   0.052   5.492   5.841 -0.4311 -0.0405 -0.4170
10040SOL    HW131019  -0.034   5.488   5.790 -0.2287 -2.4294 -0.7106
10040SOL    HW231020   0.074   5.400   5.875  1.8328  0.5927 -0.0229
10041SOL     OW31021   4.723   5.967   4.508  0.4732  0.1959  0.7467
10041SOL    HW131022   4.806   5.964   4.452  0.8879  2.8651  1.0854
10041SOL    HW231023   4.651   5.913   4.464  1.8803 -0.8062 -0.4173
10042SOL     OW31024   4.943   1.920   1.230 -0.3308  0.5565  0.5815
10042SOL    HW131025   4.947   1.821   1.217  0.2232  0.7195 -0.6694
10042SOL    HW231026   4.855   1.954   1.197 -0.1765  0.5839  0.1955
10043SOL     OW31027   6.868   4.796   3.666  0.2399 -0.2651  0.2592
10043SOL    HW131028   6.908   4.705   3.668  0.3342 -0.2325 -0.1063
10043SOL    HW231029   6.866   4.834   3.759  1.5146 -0.0601  0.2197
10044SOL     OW31030   1.456   4.043   4.552  0.5177 -0.9542  0.1353
10044SOL    HW131031   1.526   4.110   4.529 -1.7576  1.8868  0.8139
10044SOL    HW231032   1.495   3.951   4.550  3.4488  0.1788 -2.4017
10045SOL     OW31033   5.361   6.587   2.687 -0.4389  0.1047 -0.3025
10045SOL    HW131034   5.405   6.632   2.609  0.7424 -1.7698 -0.7850
10045SOL    HW231035   5.381   6.639   2.771 -0.0098  1.0448 -0.9696
10046SOL     OW31036   2.390   3.815   0.377  0.0248  0.4915  0.0224
10046SOL    HW131037   2.453   3.852   0.445 -1.4856  0.9537  1.2211
10046SOL    HW231038   2.296   3.824   0.410 -0.5665 -3.0100 -0.2784
10047SOL     OW31039   3.115   3.097   6.491 -0.4533 -0.1652  0.5273
10047SOL    HW131040   3.022   3.074   6.460  0.2672 -0.7196 -1.3997
10047SOL    HW231041   3.180   3.033   6.450  1.1369  2.3789 -1.2281
10048SOL     OW31042   1.612   4.285   0.869 -0.9760  0.0088 -0.0498
10048SOL    HW131043   1.579   4.191   0.875 -0.6735 -0.2491 -1.8218
10048SOL    HW231044   1.536   4.348   0.886 -1.0248 -0.5173  1.8819
10049SOL     OW31045   1.335   5.774   5.525  0.1467 -0.1898 -0.2270
10049SOL    HW131046   1.403   5.753   5.595 -1.1361 -0.3453  1.0145
10049SOL    HW231047   1.244   5.751   5.559 -0.5671  0.2299 -1.7638
10050SOL     OW31048   3.433   6.888   1.684  0.3274  0.2184  0.7732
10050SOL    HW131049   3.399   6.839   1.764  1.7360 -1.6591  0.2877
10050SOL    HW231050   3.424   6.830   1.603 -0.0196  1.6491 -0.2552
10051SOL     OW31051   6.013   3.522   4.262  0.0742  0.0925  0.4295
10051SOL    HW131052   5.950   3.568   4.199  1.2346  1.0091 -0.1033
10051SOL    HW231053   6.017   3.573   4.348  0.1123  0.0580  0.4484
10052SOL     OW31054   1.425   2.728   3.172  0.2147  0.0834 -0.4097
10052SOL    HW131055   1.454   2.697   3.081 -0.2976 -1.6259 -0.0217
10052SOL    HW231056   1.494   2.791   3.208  1.3758 -0.6723 -1.2144
10053SOL     OW31057   0.408   2.398   2.873  0.2077  0.8650  0.3670
10053SOL    HW131058   0.495   2.436   2.841 -1.4723  4.1471 -0.7775
10053SOL    HW231059   0.382   2.322   2.815  2.9718 -1.3544  1.7483
10054SOL     OW31060   0.006   0.772   4.125 -0.5283 -0.8261 -0.4151
10054SOL    HW131061   0.020   0.851   4.185  0.7464  1.1765 -3.1583
10054SOL    HW231062   0.004   0.689   4.180  0.5786  0.8441  2.3733
10055SOL     OW31063   1.638   4.355   4.778 -0.1408 -0.5404 -0.0258
10055SOL    HW131064   1.737   4.350   4.770 -0.1179 -0.8262  0.3824
10055SOL    HW231065   1.601   4.263   4.793 -0.5029 -0.4846 -0.5388
10056SOL     OW31066   3.354   3.604   2.911  0.0866 -0.3632  0.7139
10056SOL    HW131067   3.380   3.636   3.002  1.4039 -1.9186  0.9297
10056SOL    HW231068   3.410   3.524   2.886 -0.9882 -0.6320 -1.0159
10057SOL     OW31069   0.086   4.888   1.432 -0.2721  0.0398  0.0128
10057SOL    HW131070   0.179   4.851   1.433  0.1791  1.1236  0.3587
10057SOL    HW231071   0.037   4.853   1.353  0.6896  0.0575 -0.6151
10058SOL     OW31072   0.261   3.424   0.951  0.1335 -0.0761 -0.4024
10058SOL    HW131073   0.216   3.391   1.034 -0.4040 -0.7396 -0.9449
10058SOL    HW231074   0.356   3.444   0.970  0.3285 -1.3851  0.0993
10059SOL     OW31075   1.344   6.540   0.519 -0.1006  0.5991  0.2914
10059SOL    HW131076   1.245   6.554   0.522 -0.2320 -0.3400  2.2845
10059SOL    HW231077   1.389   6.626   0.496 -1.2535  2.0965  3.1542
10060SOL     OW31078   2.648   4.723   1.385  0.3514  0.1919  0.0833
10060SOL    HW131079   2.637   4.647   1.449  0.3112  0.4306  0.3611
10060SOL    HW231080   2.728   4.706   1.327  1.0653  0.5108  0.9540
10061SOL     OW31081   2.063   4.119   4.996 -0.4666  0.0356  0.4148
10061SOL    HW131082   2.157   4.092   4.975 -0.3159  0.9185 -0.1024
10061SOL    HW231083   2.056   4.219   4.995 -1.0448  0.0388  2.1163
10062SOL     OW31084   0.772   4.871   3.533  0.2324 -0.2753  1.2050
10062SOL    HW131085   0.688   4.893   3.582 -2.9163 -1.4961 -3.0066
10062SOL    HW231086   0.818   4.794   3.577 -2.4280 -1.4165  2.1700
10063SOL     OW31087   3.864   5.782   2.471  0.1386  0.4007 -0.1012
10063SOL    HW131088   3.907   5.759   2.559  0.2828  0.9263 -0.0285
10063SOL    HW231089   3.769   5.807   2.487  0.0204 -0.0027 -0.1624
10064SOL     OW31090   0.318   6.603   3.219  0.2065 -0.3214 -0.3604
10064SOL    HW131091   0.335   6.506   3.234  1.5827 -0.0717 -0.2193
10064SOL    HW231092   0.388   6.657   3.266 -0.5472  0.7481 -0.4263
10065SOL     OW31093   1.247   0.497   2.603  0.1580 -0.2063  0.2125
10065SOL    HW131094   1.324   0.463   2.656  0.5168  0.6623  0.2749
10065SOL    HW231095   1.270   0.496   2.506  0.1724 -0.1344  0.2151
10066SOL     OW31096   3.836   3.702   6.827  0.3908  0.3745 -0.9207
10066SOL    HW131097   3.791   3.616   6.802  3.2644 -1.6147  0.2178
10066SOL    HW231098   3.784   3.746   6.900 -2.6722  1.2135 -3.3604
10067SOL     OW31099   6.830   3.627   6.066  0.6764  0.5479  0.4759
10067SOL    HW131100   6.755   3.622   6.132  2.2152 -1.6148  2.2213
10067SOL    HW231101   6.793   3.638   5.974 -1.7400  0.0711  1.3124
10068SOL     OW31102   1.667   2.942   3.191 -0.1082  0.4833 -0.2193
10068SOL    HW131103   1.637   3.033   3.220 -0.7066  0.0515  0.5417
10068SOL    HW231104   1.681   2.942   3.092 -0.3253  1.3378 -0.2591
10069SOL     OW31105   4.114   1.231   3.990  0.2593  0.5985 -0.0130
10069SOL    HW131106   4.102   1.156   4.055 -1.2270  0.7765 -0.0340
10069SOL    HW231107   4.170   1.303   4.032  0.3796  0.1556  0.6010
10070SOL     OW31108   5.677   4.919   6.111  0.5693  0.2252  0.3130
10070SOL    HW131109   5.706   4.849   6.176  4.6638 -1.7053 -3.0552
10070SOL    HW231110   5.734   5.000   6.122  1.1578 -0.0414 -0.5640
10071SOL     OW31111   6.867   2.816   3.641 -0.1323 -0.1277  0.3684
10071SOL    HW131112   6.957   2.840   3.677  0.0072 -1.6143  1.0581
10071SOL    HW231113   6.799   2.821   3.715 -0.2271 -1.1117  0.3558
10072SOL     OW31114   2.407   4.426   3.181 -0.0046  0.3279 -0.5677
10072SOL    HW131115   2.391   4.328   3.167 -0.2401  0.2454  0.2387
10072SOL    HW231116   2.325   4.477   3.155 -1.0084  0.0526  1.8149
10073SOL     OW31117   4.239   5.015   2.553 -0.5669  0.2944 -0.0709
10073SOL    HW131118   4.191   4.956   2.487  1.1684  0.2737 -1.3882
10073SOL    HW231119   4.261   4.963   2.635  1.3821 -1.1265 -1.4097
10074SOL     OW31120   2.006   3.648   0.204 -0.2142 -0.0907  0.3269
10074SOL    HW131121   2.018   3.554   0.237  0.9775  0.0781  0.3957
10074SOL    HW231122   2.095   3.689   0.185 -0.7617  0.6659 -0.7433
10075SOL     OW31123   6.294   3.047   1.799 -0.2732 -0.1878  0.0092
10075SOL    HW131124   6.260   3.096   1.719  2.2973  0.2442 -0.8971
10075SOL    HW231125   6.217   3.028   1.861 -2.5074 -1.3129 -2.8762
10076SOL     OW31126   4.381   4.562   2.805  0.6596 -0.0248  0.5703
10076SOL    HW131127   4.393   4.547   2.904 -1.3921  1.9966  1.2191
10076SOL    HW231128   4.384   4.660   2.786  0.1493 -0.3376 -1.2497
10077SOL     OW31129   0.671   4.995   2.226  0.1265  0.0563 -0.4839
10077SOL    HW131130   0.731   4.982   2.305 -1.1703 -1.0449  0.3523
10077SOL    HW231131   0.586   4.943   2.239 -0.1317 -0.1264 -2.5994
10078SOL     OW31132   4.961   4.200   0.487 -0.3413 -0.6842  0.0047
10078SOL    HW131133   4.978   4.249   0.400 -1.7373  1.1766  0.7101
10078SOL    HW231134   5.013   4.245   0.560 -0.3744 -1.2911  0.4010
10079SOL     OW31135   1.645   6.607   6.332  0.2294 -0.2666 -0.4199
10079SOL    HW131136   1.549   6.628   6.317  0.1934  1.2315  1.5309
10079SOL    HW231137   1.698   6.631   6.251 -0.2770  4.5799  0.3953
10080SOL     OW31138   5.059   3.762   1.754  0.3634 -0.4624 -0.1976
10080SOL    HW131139   5.121   3.690   1.784 -0.8720 -1.1106  0.8728
10080SOL    HW231140   4.971   3.722   1.728 -0.8569  0.7459  1.8206
10081SOL     OW31141   5.498   6.504   4.392 -0.1151  0.7154  0.1215
10081SOL    HW131142   5.586   6.510   4.345 -0.0509 -0.1849  0.1025
10081SOL    HW231143   5.434   6.451   4.337  0.0344 -0.5626  1.1184
10082SOL     OW31144   2.685   5.803   4.904 -0.5198  0.2026  0.2783
10082SOL    HW131145   2.752   5.817   4.977 -0.1776 -0.2751  0.0584
10082SOL    HW231146   2.729   5.757   4.827 -1.1842 -0.4468  0.2787
10083SOL     OW31147   4.031   1.427   6.384 -0.2444  0.0521 -0.2080
10083SOL    HW131148   3.997   1.451   6.475 -0.6798 -1.4004  0.0428
10083SOL    HW231149   4.002   1.496   6.318  0.3199  1.2747  0.7864
10084SOL     OW31150   3.465   1.901   0.733 -0.1547 -0.1394  0.2210
10084SOL    HW131151   3.424   1.956   0.805  0.7511 -0.1748  0.7813
10084SOL    HW231152   3.561   1.881   0.756 -0.3137 -1.5379 -0.1899
10085SOL     OW31153   6.387   6.616   3.028  0.8308 -0.1505 -0.2477
10085SOL    HW131154   6.423   6.527   3.054 -0.3433 -0.2665  1.1279
10085SOL    HW231155   6.392   6.678   3.107  0.6659  0.6702 -0.8732
10086SOL     OW31156   3.639   0.401   4.182  0.3350  0.0874  0.2326
10086SOL    HW131157   3.725   0.448   4.166  0.9081 -1.3059 -0.9962
10086SOL    HW231158   3.623   0.334   4.110 -2.4770  1.2388 -0.3533
10087SOL     OW31159   5.809   3.630   1.432 -0.3806 -0.0815  0.3154
10087SOL    HW131160   5.812   3.601   1.336 -0.3304  1.5855 -0.2054
10087SOL    HW231161   5.817   3.549   1.491 -1.9051 -1.3077 -1.0612
10088SOL     OW31162   6.854   2.721   6.314  0.0532  1.0202  0.0441
10088SOL    HW131163   6.795   2.769   6.379 -0.8013 -0.0487  0.0946
10088SOL    HW231164   6.902   2.646   6.360  0.1787  0.8542 -0.3460
10089SOL     OW31165   3.972   7.019   6.844 -0.1602  0.3418 -0.7776
10089SOL    HW131166   4.009   6.965   6.920  0.1522 -0.2029 -1.3023
10089SOL    HW231167   3.883   7.056   6.870  0.1062  0.4656 -0.0158
10090SOL     OW31168   3.537   5.041   2.336 -0.0051 -0.3975 -0.0875
10090SOL    HW131169   3.470   5.007   2.269 -0.5018  0.5122 -0.0671
10090SOL    HW231170   3.557   5.137   2.317  1.8746 -0.8499 -0.5420
10091SOL     OW31171   5.590   3.888   0.254 -0.1589  0.2537 -0.1027
10091SOL    HW131172   5.552   3.960   0.313  0.0310  0.1776  0.1112
10091SOL    HW231173   5.520   3.858   0.190 -0.9792 -1.0283  1.3344
10092SOL     OW31174   6.319   0.253   1.548 -0.3286 -1.0196  0.1318
10092SOL    HW131175   6.269   0.168   1.562 -1.9961 -0.6154 -2.7301
10092SOL    HW231176   6.339   0.294   1.637 -0.7780 -3.6119  1.5300
10093SOL     OW31177   3.820   6.759   0.895  0.2123 -0.4795  0.4247
10093SOL    HW131178   3.749   6.750   0.964  0.3112 -0.5299  0.5203
10093SOL    HW231179   3.781   6.744   0.804  0.1145 -0.5716  0.4819
10094SOL     OW31180   3.447   2.131   4.503 -0.3896  0.0121 -0.0026
10094SOL    HW131181   3.533   2.091   4.469 -0.1754  0.8513 -0.4925
10094SOL    HW231182   3.466   2.187   4.584 -0.4110  0.4683 -0.3069
10095SOL     OW31183   5.849   2.404   3.460  0.3481 -0.2456 -0.0653
10095SOL    HW131184   5.921   2.470   3.484 -2.2291  2.3969  0.8820
10095SOL    HW231185   5.820   2.356   3.542  2.0380 -2.5890 -0.7104
10096SOL     OW31186   1.786   2.703   2.878 -0.8563 -0.3761 -0.3839
10096SOL    HW131187   1.810   2.642   2.802 -0.0161 -0.3789 -0.1314
10096SOL    HW231188   1.814   2.661   2.964 -2.4101 -0.6668 -0.0070
10097SOL     OW31189   1.478   5.497   2.930 -0.4127 -0.0381 -0.0131
10097SOL    HW131190   1.421   5.425   2.889  0.9206 -1.9782  1.3984
10097SOL    HW231191   1.524   5.548   2.857 -0.4552 -1.4092 -1.0402
10098SOL     OW31192   2.749   6.322   0.556  0.9193  0.1396  0.4590
10098SOL    HW131193   2.777   6.413   0.587  1.5949 -0.2641  1.0732
10098SOL    HW231194   2.730   6.324   0.458 -0.6302  1.2991  0.7372
10099SOL     OW31195   4.778   6.914   2.816  0.3552 -0.4917 -0.1470
10099SOL    HW131196   4.718   6.834   2.821 -0.2779 -0.0256 -0.2475
10099SOL    HW231197   4.781   6.959   2.906 -1.0911  0.6678 -0.6482
10100SOL     OW31198   0.257   4.935   6.134  0.1438  0.4465  0.1075
10100SOL    HW131199   0.275   4.854   6.189 -0.4558 -0.1377 -0.5247
10100SOL    HW231200   0.190   4.993   6.180  1.0368  0.9065  0.8513
10101SOL     OW31201   2.579   5.134   0.759 -0.3725 -0.0668  0.3707
10101SOL    HW131202   2.549   5.131   0.855  1.2016  0.2896  0.9092
10101SOL    HW231203   2.607   5.228   0.737  3.2472 -0.9046  0.8972
10102SOL     OW31204   0.515   5.858   5.396  0.2351  0.2566  0.0495
10102SOL    HW131205   0.525   5.759   5.398 -0.5425  0.1721  1.2853
10102SOL    HW231206   0.591   5.899   5.346  0.5923 -0.9544 -0.4280
10103SOL     OW31207   3.376   6.526   1.214  0.5527 -0.2609 -0.4457
10103SOL    HW131208   3.333   6.441   1.182  0.9849 -1.0120  0.9155
10103SOL    HW231209   3.472   6.510   1.234  0.6728  0.5871 -0.3102
10104SOL     OW31210   4.650   6.546   0.934  0.8763  0.3780 -0.2608
10104SOL    HW131211   4.571   6.586   0.887 -0.5234 -0.6778  1.0650
10104SOL    HW231212   4.708   6.500   0.867  0.9763  2.0996 -1.4078
10105SOL     OW31213   0.223   3.022   0.074  0.5367  0.3595  0.3803
10105SOL    HW131214   0.227   2.927   0.045  0.4815  0.7606 -1.0149
10105SOL    HW231215   0.195   3.027   0.170  0.3086 -1.0106  0.3979
10106SOL     OW31216   5.400   0.585   3.233  0.7450  0.0614 -0.2153
10106SOL    HW131217   5.346   0.510   3.272 -2.6147  2.6677  0.5564
10106SOL    HW231218   5.351   0.625   3.156 -0.1803  4.4272  2.2825
10107SOL     OW31219   3.895   0.976   1.115  0.6882  0.0532 -0.2055
10107SOL    HW131220   3.838   0.914   1.169  0.5446 -1.4883 -2.0103
10107SOL    HW231221   3.981   0.930   1.092  0.1906  0.0856 -2.3776
10108SOL     OW31222   1.550   0.149   2.274 -0.3509  0.4208  0.1137
10108SOL    HW131223   1.633   0.202   2.288  1.2704 -1.6324 -1.1107
10108SOL    HW231224   1.543   0.078   2.344 -0.8949  0.3405 -0.0142
10109SOL     OW31225   6.233   6.805   5.297  0.1779 -0.1834 -0.2280
10109SOL    HW131226   6.283   6.889   5.318  0.6936 -1.0420  2.3359
10109SOL    HW231227   6.295   6.727   5.301 -0.7449 -0.9345 -0.1203
10110SOL     OW31228   4.308   6.312   1.402  0.4170 -0.4895  0.1952
10110SOL    HW131229   4.369   6.389   1.383 -1.6883  1.3408  0.3596
10110SOL    HW231230   4.219   6.347   1.432 -0.7544 -3.0127 -0.0621
10111SOL     OW31231   5.501   5.240   1.777  0.1317  0.1693  0.0312
10111SOL    HW131232   5.535   5.329   1.746  1.0300 -0.1503  0.0752
10111SOL    HW231233   5.430   5.254   1.846 -0.4377  0.8604 -0.6763
10112SOL     OW31234   4.801   0.375   1.691  0.3705 -0.7083  0.7554
10112SOL    HW131235   4.845   0.464   1.681  0.3548 -0.6421  1.2248
10112SOL    HW231236   4.870   0.303   1.694  0.4251 -0.6405  1.1156
10113SOL     OW31237   3.683   3.941   5.756 -0.0130  0.1763  0.2263
10113SOL    HW131238   3.698   3.897   5.668 -1.6253  0.3137 -0.1586
10113SOL    HW231239   3.602   3.900   5.799  0.1760  0.7946  1.1902
10114SOL     OW31240   0.123   5.382   0.173  0.3569  0.5588 -0.4208
10114SOL    HW131241   0.203   5.390   0.114  0.6027  1.1504 -0.0214
10114SOL    HW231242   0.135   5.441   0.254  0.5281 -1.0638  0.7970
10115SOL     OW31243   1.426   3.804   2.230  0.1226  0.4189  0.0212
10115SOL    HW131244   1.455   3.893   2.266 -0.4783  0.1996  1.0931
10115SOL    HW231245   1.503   3.761   2.182  0.9858  0.7065  1.1071
10116SOL     OW31246   1.879   3.794   2.890  0.3402  0.2828  0.2660
10116SOL    HW131247   1.851   3.777   2.985  2.4547 -0.4785  0.8104
10116SOL    HW231248   1.853   3.717   2.833  0.4873  0.0135  0.5610
10117SOL     OW31249   2.191   6.083   2.725  0.1126 -0.1129 -0.1991
10117SOL    HW131250   2.143   5.999   2.749 -0.0481 -0.6741 -2.2447
10117SOL    HW231251   2.176   6.152   2.795  0.3043 -1.7917  1.5664
10118SOL     OW31252   4.946   2.241   1.082 -0.0875 -0.5877  0.4038
10118SOL    HW131253   4.850   2.217   1.071 -0.1517 -0.2489  0.2037
10118SOL    HW231254   5.003   2.159   1.072 -0.3974 -0.9187  1.2510
10119SOL     OW31255   6.105   0.992   1.812 -0.0579 -0.1516 -0.6879
10119SOL    HW131256   6.076   0.907   1.766 -1.3308  0.1534 -0.4798
10119SOL    HW231257   6.183   0.972   1.871 -1.7324 -1.7209  1.1572
10120SOL     OW31258   2.758   4.796   1.836  0.5692 -0.5587 -0.6469
10120SOL    HW131259   2.660   4.813   1.843  0.6848  0.6844 -1.5911
10120SOL    HW231260   2.793   4.765   1.925 -0.2017  1.6910  0.5201
10121SOL     OW31261   5.509   1.324   5.243 -0.0680  0.1571  0.4210
10121SOL    HW131262   5.558   1.359   5.323  0.5221 -0.1762  0.2015
10121SOL    HW231263   5.555   1.244   5.207 -0.8458 -0.2462  0.2895
10122SOL     OW31264   3.005   3.577   5.484  0.2778  0.1587  1.2910
10122SOL    HW131265   2.909   3.560   5.464  0.8214 -1.2448 -0.4011
10122SOL    HW231266   3.045   3.633   5.411  1.3555 -1.5778  0.4889
10123SOL     OW31267   1.621   1.360   2.455  0.0747  0.5457 -0.4607
10123SOL    HW131268   1.654   1.300   2.382 -1.0582  1.1437 -1.4982
10123SOL    HW231269   1.529   1.393   2.433  0.4309  2.2011  0.3363
10124SOL     OW31270   0.245   1.960   2.769 -0.2507  0.1495  0.0703
10124SOL    HW131271   0.182   1.936   2.843  1.7175 -0.3216  1.6859
10124SOL    HW231272   0.238   1.893   2.696  0.8501 -2.0287  1.8303
10125SOL     OW31273   2.331   2.337   5.618 -0.1048 -0.4482 -0.0252
10125SOL    HW131274   2.265   2.283   5.566  0.2649  0.6390 -1.7183
10125SOL    HW231275   2.422   2.300   5.605 -0.2742 -1.6305  1.8835
10126SOL     OW31276   5.569   1.552   6.472 -0.2427  0.1990 -0.3749
10126SOL    HW131277   5.480   1.542   6.515 -0.9714  0.9115 -1.6553
10126SOL    HW231278   5.574   1.642   6.427  0.9999  0.0376 -0.5888
10127SOL     OW31279   6.556   3.544   5.612  0.0756 -0.1325 -0.2806
10127SOL    HW131280   6.481   3.547   5.677  0.2320  0.0258 -0.1061
10127SOL    HW231281   6.557   3.456   5.565  0.8472 -0.8276  0.9868
10128SOL     OW31282   1.405   0.183   3.245  0.2874  0.2800 -0.3163
10128SOL    HW131283   1.456   0.233   3.175  0.9425 -0.7189 -0.5744
10128SOL    HW231284   1.458   0.103   3.274 -0.2706  0.3023  0.8391
10129SOL     OW31285   4.349   4.788   1.845 -0.0535 -0.2873 -0.2387
10129SOL    HW131286   4.357   4.820   1.751 -0.1966  1.4469  0.3110
10129SOL    HW231287   4.273   4.723   1.852  0.1317 -0.6552 -1.3523
10130SOL     OW31288   3.776   3.492   5.061  0.1002 -0.6791  0.2786
10130SOL    HW131289   3.781   3.582   5.017 -0.6727  0.4093  2.3025
10130SOL    HW231290   3.693   3.445   5.031 -0.1242 -0.2083  0.1511
10131SOL     OW31291   2.574   4.893   3.863  0.0082 -0.3032  0.6915
10131SOL    HW131292   2.625   4.809   3.881  0.3886  0.0724  1.3972
10131SOL    HW231293   2.623   4.948   3.795 -1.3500 -1.6481 -1.5223
10132SOL     OW31294   4.771   1.933   2.279  0.0379  0.0063  0.0602
10132SOL    HW131295   4.775   1.908   2.182  1.7705 -1.3830  0.4338
10132SOL    HW231296   4.678   1.919   2.313 -0.3378 -0.5389 -1.1417
10133SOL     OW31297   4.444   6.470   5.320 -0.3349  0.2290  0.0879
10133SOL    HW131298   4.408   6.387   5.364 -2.4812  0.8869 -0.2990
10133SOL    HW231299   4.407   6.476   5.227 -0.9878  2.0679  0.4285
10134SOL     OW31300   4.680   0.285   2.194 -0.3902  0.0876 -0.1228
10134SOL    HW131301   4.666   0.384   2.188  1.1451  0.4394  1.3415
10134SOL    HW231302   4.631   0.240   2.120  0.2810  2.0887 -1.8914
10135SOL     OW31303   6.740   0.518   2.192  0.1432 -0.1048 -0.0202
10135SOL    HW131304   6.704   0.501   2.100 -0.2909  0.1427  0.1013
10135SOL    HW231305   6.757   0.431   2.238  0.1186 -0.2279 -0.2427
10136SOL     OW31306   3.608   1.243   6.173  0.4747 -0.3112  0.8838
10136SOL    HW131307   3.619   1.321   6.235  0.2757 -0.8788  1.6497
10136SOL    HW231308   3.603   1.159   6.226 -3.2905 -0.5439  0.4596
10137SOL     OW31309   3.190   2.428   6.785 -0.6276 -0.2325 -0.4651
10137SOL    HW131310   3.204   2.352   6.848 -1.3989 -2.1534 -2.4751
10137SOL    HW231311   3.151   2.394   6.700 -1.5291  2.5281 -1.2650
10138SOL     OW31312   0.795   5.453   0.107 -0.1484  0.6485  0.3959
10138SOL    HW131313   0.755   5.444   0.199 -0.9920  3.4527  0.4054
10138SOL    HW231314   0.894   5.442   0.113 -0.3875 -1.8746  1.1255
10139SOL     OW31315   3.357   3.745   5.519 -0.5495  0.8861 -0.1531
10139SOL    HW131316   3.329   3.671   5.457 -1.2601  1.8938 -1.0809
10139SOL    HW231317   3.332   3.722   5.613  1.9960 -1.4165  0.0783
10140SOL     OW31318   4.252   3.265   6.055 -0.0520 -0.8108 -0.2685
10140SOL    HW131319   4.238   3.197   6.128 -1.9704 -0.1114  0.0664
10140SOL    HW231320   4.164   3.298   6.023  0.8240  0.5086 -1.4172
10141SOL     OW31321   5.639   2.458   0.860  0.1030  0.0167 -0.3281
10141SOL    HW131322   5.567   2.522   0.834 -0.4140 -0.6092 -0.4607
10141SOL    HW231323   5.655   2.464   0.958 -0.3834 -0.0975 -0.2408
10142SOL     OW31324   3.974   0.505   6.707 -0.7162  0.4375  0.1933
10142SOL    HW131325   4.034   0.434   6.671 -1.3642  0.3122 -0.6600
10142SOL    HW231326   3.880   0.472   6.707 -0.6937  0.1175  2.7653
10143SOL     OW31327   6.494   3.966   1.198 -0.4760  0.2312  0.2364
10143SOL    HW131328   6.401   3.981   1.166 -0.3426 -0.6326 -0.5863
10143SOL    HW231329   6.556   3.966   1.120  0.1396  0.1851  0.7207
10144SOL     OW31330   1.579   4.935   3.859 -0.7360 -0.0663  0.3888
10144SOL    HW131331   1.529   4.996   3.798 -0.7853  0.5113  0.9897
10144SOL    HW231332   1.634   4.870   3.805 -1.0185  0.2267 -0.2575
10145SOL     OW31333   4.990   2.496   6.373  0.1480 -0.4521  0.2151
10145SOL    HW131334   5.048   2.428   6.329  0.3703 -1.4859  1.9809
10145SOL    HW231335   5.045   2.551   6.436 -0.5948 -0.8355  1.2299
10146SOL     OW31336   2.472   6.333   4.270 -0.3709 -0.5181  0.5186
10146SOL    HW131337   2.553   6.357   4.218 -2.1164  0.0731 -2.1300
10146SOL    HW231338   2.491   6.253   4.328  2.3210  0.2411  0.8086
10147SOL     OW31339   6.933   1.408   4.816  0.7179 -0.2392  0.5632
10147SOL    HW131340   6.985   1.415   4.731 -0.7651 -0.7395 -0.4156
10147SOL    HW231341   6.947   1.318   4.857 -2.2242 -1.8840 -1.6980
10148SOL     OW31342   5.964   6.467   0.276  0.2798  0.4187 -0.0693
10148SOL    HW131343   5.928   6.556   0.306 -1.4517 -0.0085 -0.7291
10148SOL    HW231344   6.039   6.439   0.336 -0.7668  1.1950  1.6790
10149SOL     OW31345   3.753   0.566   3.865  0.8318 -0.0598  0.2967
10149SOL    HW131346   3.748   0.622   3.948 -1.3136 -0.1049  0.2451
10149SOL    HW231347   3.819   0.492   3.879  1.5435  0.7615  1.4307
10150SOL     OW31348   3.138   5.654   3.706 -0.3293 -0.0880  0.0570
10150SOL    HW131349   3.182   5.586   3.764 -2.1857 -0.4690  1.0872
10150SOL    HW231350   3.123   5.615   3.615  0.0352 -0.4933  0.1683
10151SOL     OW31351   4.165   4.689   1.255  0.0004  0.3670  0.6053
10151SOL    HW131352   4.076   4.644   1.257  0.1047  0.1535  0.5233
10151SOL    HW231353   4.172   4.744   1.172 -0.8572  2.0621  1.5938
10152SOL     OW31354   0.580   3.804   6.077 -0.2236 -0.2507 -0.1965
10152SOL    HW131355   0.610   3.856   6.157 -0.8256  0.7044 -0.5840
10152SOL    HW231356   0.656   3.797   6.012 -0.4908  1.2883 -0.7200
10153SOL     OW31357   4.636   1.549   5.519 -0.4818 -0.0916  0.4347
10153SOL    HW131358   4.570   1.567   5.591  0.3453  1.5204  0.8398
10153SOL    HW231359   4.656   1.451   5.515 -2.4461 -0.5286  0.6602
10154SOL     OW31360   2.230   0.087   1.103  0.0937  0.1882 -0.2304
10154SOL    HW131361   2.201   0.030   1.026 -0.5248 -1.2709  1.0085
10154SOL    HW231362   2.255   0.028   1.180  2.6643  1.5165  0.0713
10155SOL     OW31363   0.730   1.722   0.915  0.6260 -0.0223 -0.0699
10155SOL    HW131364   0.688   1.686   0.831  0.6272 -0.6893  0.2079
10155SOL    HW231365   0.764   1.814   0.898 -0.6376  0.4089 -0.4012
10156SOL     OW31366   1.104   3.881   5.496 -0.0121  0.1190 -0.3274
10156SOL    HW131367   1.043   3.952   5.530  1.4101  0.6188  1.3398
10156SOL    HW231368   1.188   3.923   5.461  0.5978 -0.6908  0.1227
10157SOL     OW31369   6.674   4.497   4.153 -0.0242 -0.4458 -0.1372
10157SOL    HW131370   6.714   4.413   4.191  0.8542 -1.0214 -2.1679
10157SOL    HW231371   6.575   4.491   4.158 -0.0113  0.4205  3.8006
10158SOL     OW31372   0.943   1.798   5.148  0.0227 -0.4513  0.3030
10158SOL    HW131373   0.986   1.878   5.189 -0.2897 -0.0837 -0.0702
10158SOL    HW231374   1.014   1.741   5.105  0.0851  0.5604 -1.0128
10159SOL     OW31375   4.960   6.509   6.525  0.6431  0.0413  0.1488
10159SOL    HW131376   4.943   6.589   6.468 -0.4861 -0.9614 -0.9813
10159SOL    HW231377   5.041   6.461   6.491  1.0208  0.4151  0.5118
10160SOL     OW31378   4.651   4.667   0.243 -0.5409  0.0514  0.6186
10160SOL    HW131379   4.570   4.644   0.298  0.5792 -0.2062  2.2334
10160SOL    HW231380   4.695   4.748   0.281  0.2451 -0.1057  0.0580
10161SOL     OW31381   5.156   5.080   1.176  0.1036 -0.9196  0.0090
10161SOL    HW131382   5.221   5.028   1.121  1.5407  0.7828  0.0057
10161SOL    HW231383   5.135   5.166   1.131  3.2192  1.6835  3.0142
10162SOL     OW31384   3.777   6.750   6.703  0.3768 -0.2860 -0.1662
10162SOL    HW131385   3.807   6.697   6.783  1.3165  0.5536  0.0693
10162SOL    HW231386   3.857   6.779   6.651 -0.1832 -0.0318 -0.9055
10163SOL     OW31387   1.057   4.993   3.407  0.1375  0.3437  0.5245
10163SOL    HW131388   0.980   4.932   3.417  0.8560 -0.5898  0.4922
10163SOL    HW231389   1.034   5.083   3.445 -0.5485 -0.2652  1.5889
10164SOL     OW31390   2.428   5.805   5.078  0.3980  0.5103  0.2342
10164SOL    HW131391   2.511   5.819   5.023  1.3911 -1.4220  1.1323
10164SOL    HW231392   2.432   5.715   5.121 -2.4367  0.1441 -0.0950
10165SOL     OW31393   0.930   1.328   3.115  0.3870 -0.3258  0.5373
10165SOL    HW131394   0.865   1.302   3.187  0.7241  1.6649  1.6545
10165SOL    HW231395   1.021   1.339   3.155 -0.0461  4.4502  0.8409
10166SOL     OW31396   1.327   3.058   5.626 -0.6514 -0.0025  0.6370
10166SOL    HW131397   1.361   2.971   5.661 -3.5365 -2.3783 -1.8279
10166SOL    HW231398   1.382   3.087   5.548  0.4566  0.5848  1.6053
10167SOL     OW31399   2.095   2.554   2.925 -0.9436 -0.0941  0.0174
10167SOL    HW131400   2.026   2.592   2.987 -1.2839 -1.0856  0.2678
10167SOL    HW231401   2.119   2.462   2.955  0.5871  0.2730 -0.0041
10168SOL     OW31402   5.905   5.903   0.416 -0.2672 -0.2854 -0.4571
10168SOL    HW131403   5.963   5.846   0.359 -1.8535 -1.9075 -0.5260
10168SOL    HW231404   5.918   5.999   0.391  1.7326 -0.6670 -1.0097
10169SOL     OW31405   3.660   4.847   6.881 -0.1465 -0.0965 -0.0037
10169SOL    HW131406   3.653   4.942   6.852  0.0312  0.4049  1.5121
10169SOL    HW231407   3.601   4.832   6.961 -1.0965 -1.5692 -0.9244
10170SOL     OW31408   2.607   0.258   4.330 -0.3778  0.4351  0.5281
10170SOL    HW131409   2.692   0.222   4.291  0.4751  0.9521  1.8564
10170SOL    HW231410   2.576   0.198   4.403 -0.3298  1.0261  1.0423
10171SOL     OW31411   6.297   0.858   1.999 -0.0188 -0.3019 -0.0117
10171SOL    HW131412   6.372   0.806   1.958 -0.2697 -0.4448 -0.2886
10171SOL    HW231413   6.283   0.829   2.093  1.9516  1.4452  0.9222
10172SOL     OW31414   2.206   3.382   0.292  0.1967 -0.0235  0.2677
10172SOL    HW131415   2.198   3.415   0.386  0.7975 -0.1806  0.3740
10172SOL    HW231416   2.259   3.448   0.238 -0.3003  0.1576 -0.0123
10173SOL     OW31417   5.606   2.844   0.906 -0.2958  0.4943 -0.2360
10173SOL    HW131418   5.555   2.795   0.977 -2.0660  0.4373 -1.4836
10173SOL    HW231419   5.696   2.869   0.941 -0.3599 -1.2759  1.3361
10174SOL     OW31420   0.275   5.896   5.179 -0.1041 -0.2096 -0.2634
10174SOL    HW131421   0.368   5.931   5.172 -0.1598 -0.0405 -0.1723
10174SOL    HW231422   0.211   5.973   5.171 -0.2041 -0.1255  1.1392
10175SOL     OW31423   2.400   4.574   4.427  0.1776 -0.1759  0.2114
10175SOL    HW131424   2.339   4.552   4.351  0.1228 -0.3509  0.3056
10175SOL    HW231425   2.368   4.527   4.509  0.0804  0.2224  0.4044
10176SOL     OW31426   5.256   5.056   0.796  0.2034 -0.2268  0.0427
10176SOL    HW131427   5.315   5.130   0.830 -0.1522 -0.3703  1.0026
10176SOL    HW231428   5.271   5.044   0.698  0.5429  0.8617 -0.0530
10177SOL     OW31429   6.366   6.468   2.647  0.3994 -0.2474 -0.1971
10177SOL    HW131430   6.292   6.473   2.714 -0.7643  0.6013 -1.5045
10177SOL    HW231431   6.448   6.430   2.691 -0.5545 -0.4534  1.4830
10178SOL     OW31432   2.023   5.257   5.180 -0.1783 -0.8384  0.1815
10178SOL    HW131433   2.065   5.347   5.195 -3.1846  1.0401 -1.5314
10178SOL    HW231434   2.061   5.216   5.097  0.4893 -0.6735  0.4002
10179SOL     OW31435   6.644   6.248   0.340 -1.0220 -0.4067  0.3934
10179SOL    HW131436   6.675   6.342   0.328 -1.3091 -0.2808  0.6235
10179SOL    HW231437   6.621   6.208   0.251 -0.4140 -0.4296  0.2428
10180SOL     OW31438   6.656   0.820   6.272 -0.5861 -0.2880 -0.2407
10180SOL    HW131439   6.613   0.899   6.316 -0.8493  0.4493 -1.7701
10180SOL    HW231440   6.739   0.795   6.324  0.5503  2.1537 -0.7127
10181SOL     OW31441   2.668   5.362   6.176 -0.4478 -0.0015  0.0239
10181SOL    HW131442   2.590   5.339   6.234 -1.0021  0.4444 -0.5289
10181SOL    HW231443   2.657   5.319   6.086 -0.4758  0.7359 -0.3331
10182SOL     OW31444   2.104   1.668   6.083  0.1810 -0.1078 -0.9228
10182SOL    HW131445   2.146   1.594   6.134  0.3471  0.2083 -0.5947
10182SOL    HW231446   2.097   1.642   5.987 -0.6671 -0.9365 -0.6479
10183SOL     OW31447   6.420   1.049   5.243 -0.1285  1.0277 -0.6409
10183SOL    HW131448   6.504   1.101   5.229 -0.2981  1.8074  1.0179
10183SOL    HW231449   6.346   1.111   5.268 -0.5974  0.1317  0.2900
10184SOL     OW31450   3.007   4.245   0.862  0.3840  0.1189  0.2649
10184SOL    HW131451   3.082   4.211   0.919  0.1643  1.0094  1.1186
10184SOL    HW231452   2.981   4.336   0.892 -1.0706 -0.1865  0.0292
10185SOL     OW31453   1.704   1.031   0.519 -0.3049  0.1001  0.3575
10185SOL    HW131454   1.676   0.965   0.590 -0.9849 -0.6008 -0.5405
10185SOL    HW231455   1.740   0.981   0.440 -1.5658  0.7367 -0.6611
10186SOL     OW31456   0.891   4.407   2.619  0.2484  0.4632 -0.3333
10186SOL    HW131457   0.915   4.395   2.523 -3.1579 -1.2158 -1.1351
10186SOL    HW231458   0.795   4.436   2.626 -0.1016 -1.0147  2.5569
10187SOL     OW31459   6.685   5.460   3.846 -0.6575 -0.5302 -0.1160
10187SOL    HW131460   6.708   5.537   3.906 -1.4931 -0.4363  0.0875
10187SOL    HW231461   6.762   5.397   3.844  0.5604  0.9213 -1.2932
10188SOL     OW31462   6.940   6.746   4.001 -0.2890 -0.1676 -0.1541
10188SOL    HW131463   6.841   6.737   3.994 -0.2811  1.0466 -3.0657
10188SOL    HW231464   6.969   6.834   3.962  1.9472 -0.4966  0.5872
10189SOL     OW31465   6.885   3.671   0.562  0.0498 -0.2460  0.1286
10189SOL    HW131466   6.802   3.673   0.506 -1.3034 -2.1564  1.9105
10189SOL    HW231467   6.963   3.648   0.504 -1.2307 -1.8573 -1.0900
10190SOL     OW31468   5.998   4.793   4.296  0.8375  0.2834  0.7557
10190SOL    HW131469   5.901   4.819   4.298 -0.1654 -2.7952 -1.0682
10190SOL    HW231470   6.017   4.732   4.373  1.1786  0.4197  0.7807
10191SOL     OW31471   6.416   5.560   1.675 -0.4417 -0.5401  0.0172
10191SOL    HW131472   6.391   5.656   1.681 -0.0713 -0.4414  0.0021
10191SOL    HW231473   6.505   5.551   1.629  0.0022 -0.8177  0.8985
10192SOL     OW31474   6.158   5.996   5.023 -0.4888  0.5937  0.6410
10192SOL    HW131475   6.079   5.958   5.072 -1.9217  1.8119 -0.6318
10192SOL    HW231476   6.127   6.069   4.962  1.6908  1.3408  0.3541
10193SOL     OW31477   2.954   3.507   0.361  0.5251  0.1231  0.6409
10193SOL    HW131478   2.964   3.408   0.356 -0.0542  0.1326 -1.2255
10193SOL    HW231479   3.037   3.551   0.324 -0.7394  0.2599 -2.2823
10194SOL     OW31480   6.235   2.451   4.756  0.1969 -0.4327 -0.1548
10194SOL    HW131481   6.284   2.365   4.771  1.2985  0.2103  0.1023
10194SOL    HW231482   6.294   2.528   4.782  0.0665  0.5069 -2.3834
10195SOL     OW31483   3.430   5.150   5.431 -0.3294 -0.1652 -0.9417
10195SOL    HW131484   3.520   5.114   5.457 -0.8198  0.0335  1.2397
10195SOL    HW231485   3.373   5.075   5.399  0.0552 -0.6004 -0.6286
10196SOL     OW31486   2.700   0.523   2.678  0.2150 -0.3105 -0.0612
10196SOL    HW131487   2.661   0.567   2.597 -0.4256  0.9243  0.8811
10196SOL    HW231488   2.662   0.432   2.688 -0.0120 -0.3210 -0.9131
10197SOL     OW31489   5.015   3.733   6.424  0.4827 -0.5685  0.0583
10197SOL    HW131490   5.106   3.770   6.440  1.7819 -2.9893 -1.1539
10197SOL    HW231491   4.951   3.809   6.406  2.1225  1.2026  1.2767
10198SOL     OW31492   3.841   3.150   0.496  0.0185  0.8691 -0.1910
10198SOL    HW131493   3.796   3.064   0.517 -1.4170  1.4332 -0.7589
10198SOL    HW231494   3.772   3.222   0.486  1.1705  2.0792  0.2111
10199SOL     OW31495   4.552   5.471   0.327  0.2192  0.1120  0.1026
10199SOL    HW131496   4.481   5.406   0.351  0.4856  0.4793  2.0675
10199SOL    HW231497   4.604   5.437   0.249 -1.5707 -0.5334 -0.8642
10200SOL     OW31498   2.444   1.067   3.456 -0.1448 -0.1479  0.3500
10200SOL    HW131499   2.392   1.001   3.403  1.2095 -0.3883 -0.7475
10200SOL    HW231500   2.389   1.099   3.533 -0.9954 -2.2488  0.6947
10201SOL     OW31501   0.676   2.843   6.238 -0.0146 -0.0107  0.3891
10201SOL    HW131502   0.636   2.773   6.179 -0.7764 -0.9014  1.9063
10201SOL    HW231503   0.771   2.859   6.212  0.2266 -1.7370  0.1260
10202SOL     OW31504   3.600   6.128   0.840 -0.4367 -0.2534 -0.2615
10202SOL    HW131505   3.697   6.111   0.861 -0.5047  1.2027  1.4758
10202SOL    HW231506   3.593   6.197   0.769 -0.2133 -0.2756 -0.3081
10203SOL     OW31507   6.382   2.597   2.650 -0.1230 -0.1204 -0.1838
10203SOL    HW131508   6.284   2.575   2.655 -0.0890  0.0623  2.2228
10203SOL    HW231509   6.393   2.690   2.615 -0.8525  0.0428 -0.0058
10204SOL     OW31510   2.057   5.044   4.354  0.1983  0.7000 -0.2296
10204SOL    HW131511   2.108   4.961   4.334 -0.2841  0.1296  0.8552
10204SOL    HW231512   1.991   5.026   4.427  0.0668  2.0285 -0.0012
10205SOL     OW31513   2.762   1.394   2.562  0.2365  0.0924  0.2988
10205SOL    HW131514   2.669   1.431   2.559  0.6576  1.6029  2.8077
10205SOL    HW231515   2.799   1.404   2.655  2.1487 -2.4377 -0.0728
10206SOL     OW31516   1.609   6.558   3.957 -0.3744  0.2343 -0.2805
10206SOL    HW131517   1.689   6.553   4.018 -0.1401 -1.8067 -0.6958
10206SOL    HW231518   1.639   6.585   3.866 -0.3898  0.9362 -0.0852
10207SOL     OW31519   1.479   5.532   5.328 -0.0802  0.1297 -0.6099
10207SOL    HW131520   1.389   5.551   5.367  0.1683  0.0027  0.0302
10207SOL    HW231521   1.476   5.548   5.229 -0.7795  0.2119 -0.5821
10208SOL     OW31522   5.603   0.042   1.953  0.1068  0.6679 -0.4903
10208SOL    HW131523   5.589  -0.041   2.007  1.7473  1.0995  0.6626
10208SOL    HW231524   5.544   0.039   1.872 -0.0862 -1.4705 -0.3267
10209SOL     OW31525   0.998   0.947   1.214  0.6096 -0.2088  0.1051
10209SOL    HW131526   0.954   0.916   1.130  0.3045 -2.1487  0.9114
10209SOL    HW231527   0.996   1.046   1.218 -1.4194 -0.1429 -1.1020
10210SOL     OW31528   6.020   2.957   6.162  0.2894 -0.2532  0.2958
10210SOL    HW131529   6.003   2.976   6.066 -0.4866 -0.1818  0.4407
10210SOL    HW231530   5.933   2.941   6.209  0.7614 -2.2518  0.5785
10211SOL     OW31531   2.209   6.668   0.144 -0.0007 -0.0413 -0.3472
10211SOL    HW131532   2.274   6.612   0.094  0.7918  0.5770 -0.0276
10211SOL    HW231533   2.235   6.764   0.137  1.0128 -0.0092  2.4468
10212SOL     OW31534   4.971   0.675   4.098 -0.3784  0.0198 -0.1332
10212SOL    HW131535   4.990   0.602   4.163 -2.0362  0.8697  1.3843
10212SOL    HW231536   4.881   0.662   4.057 -0.1247  0.4989 -0.8746
10213SOL     OW31537   2.715   0.412   4.752  0.0522  0.2078 -1.1212
10213SOL    HW131538   2.719   0.485   4.820  0.2439 -0.5504 -0.2988
10213SOL    HW231539   2.650   0.342   4.782  1.3899 -0.9663 -0.8754
10214SOL     OW31540   0.575   3.574   4.703  0.0399 -0.2454  0.1863
10214SOL    HW131541   0.500   3.570   4.769 -0.1386 -1.2728 -0.0719
10214SOL    HW231542   0.614   3.483   4.691  1.3349  0.2796  0.3097
10215SOL     OW31543   2.788   6.620   0.216  0.0160 -0.0203  0.4508
10215SOL    HW131544   2.763   6.663   0.303 -1.9286 -0.5071  0.1880
10215SOL    HW231545   2.793   6.690   0.145  0.0091  0.1760  0.6408
10216SOL     OW31546   4.696   6.143   5.031  0.1201 -0.1844  0.0029
10216SOL    HW131547   4.633   6.115   5.103 -1.1069  3.3882  0.5357
10216SOL    HW231548   4.665   6.107   4.943 -1.2109 -0.5897  0.6100
10217SOL     OW31549   5.570   6.709   0.703  0.0613 -0.0719 -0.3808
10217SOL    HW131550   5.550   6.720   0.605  0.5895 -0.4934 -0.5384
10217SOL    HW231551   5.559   6.613   0.728  0.3155 -0.0304 -0.1135
10218SOL     OW31552   4.945   3.923   4.108  0.3219 -0.0006 -0.1490
10218SOL    HW131553   4.974   3.863   4.033 -0.9958  0.4531 -1.0441
10218SOL    HW231554   4.877   3.988   4.075  0.8616  1.2501  1.0867
10219SOL     OW31555   2.145   2.301   3.041  0.1249  0.8406  0.4835
10219SOL    HW131556   2.129   2.203   3.056 -0.1524  0.6633 -0.7705
10219SOL    HW231557   2.236   2.326   3.075  1.2750 -0.4535 -1.4125
10220SOL     OW31558   6.441   3.307   5.135 -0.3197  0.2318 -0.1926
10220SOL    HW131559   6.408   3.268   5.049 -2.2411  0.3151  0.4584
10220SOL    HW231560   6.486   3.235   5.189  0.7375  0.1403 -1.1524
10221SOL     OW31561   5.084   3.872   6.176  0.3271  0.0182 -0.4903
10221SOL    HW131562   5.004   3.929   6.157  1.9780  2.1254 -1.4529
10221SOL    HW231563   5.063   3.777   6.152 -2.0555  0.3851 -0.1419
10222SOL     OW31564   3.642   3.294   3.782 -0.2278  0.4194 -0.3867
10222SOL    HW131565   3.729   3.257   3.816 -0.7922  0.1364  0.7939
10222SOL    HW231566   3.641   3.290   3.682  1.8718  2.1011 -0.5524
10223SOL     OW31567   0.995   1.536   6.844 -0.2542  0.6945  0.3580
10223SOL    HW131568   1.093   1.542   6.857  0.2826 -2.1467 -1.4644
10223SOL    HW231569   0.960   1.453   6.887 -1.5244  0.7768 -0.4537
10224SOL     OW31570   0.556   4.615   6.095  0.1910 -0.5768 -0.4433
10224SOL    HW131571   0.473   4.564   6.115  1.1356 -2.5795 -1.2586
10224SOL    HW231572   0.556   4.644   5.999  0.7679 -1.3381 -0.6873
10225SOL     OW31573   6.260   0.052   6.654  0.6344 -0.7335 -0.4202
10225SOL    HW131574   6.234  -0.043   6.638  1.3796 -0.8752 -0.8728
10225SOL    HW231575   6.332   0.077   6.590  1.4906 -0.3114  0.6839
10226SOL     OW31576   0.239   2.763   3.891  0.5026  0.2281 -0.1322
10226SOL    HW131577   0.298   2.825   3.840 -1.4336  0.0974 -2.7290
10226SOL    HW231578   0.294   2.713   3.958  2.4942  3.1031  0.5566
10227SOL     OW31579   3.527   4.616   5.297 -0.3622  0.1118  0.1802
10227SOL    HW131580   3.611   4.668   5.310 -0.1334 -0.0660 -0.5029
10227SOL    HW231581   3.450   4.679   5.286 -0.5173  0.2640  1.9343
10228SOL     OW31582   6.046   2.227   5.207  0.5819  0.1023  0.5141
10228SOL    HW131583   6.018   2.290   5.134  0.4141 -0.0029  0.4879
10228SOL    HW231584   6.132   2.258   5.246 -0.6789  1.7600  2.1608
10229SOL     OW31585   3.043   6.833   6.401  0.5732 -0.1602 -0.2670
10229SOL    HW131586   2.973   6.838   6.329  0.3427 -0.1445 -0.0441
10229SOL    HW231587   3.129   6.801   6.361 -0.3256 -3.2272 -0.0245
10230SOL     OW31588   4.706   5.512   4.198  0.1162  0.0118  0.7058
10230SOL    HW131589   4.664   5.592   4.156  0.3949 -0.2243 -0.0404
10230SOL    HW231590   4.643   5.434   4.189  0.2153 -0.0605  0.6338
10231SOL     OW31591   1.765   3.992   2.705 -0.0256  0.3224  0.1718
10231SOL    HW131592   1.812   3.909   2.734  0.3904  0.5005  0.0137
10231SOL    HW231593   1.831   4.068   2.699 -0.6416  1.0084  1.6740
10232SOL     OW31594   3.715   1.169   0.147  0.0190 -0.8881  0.0333
10232SOL    HW131595   3.722   1.269   0.140 -0.8335 -0.9072 -1.8664
10232SOL    HW231596   3.679   1.144   0.237 -0.5841  0.5744  0.2338
10233SOL     OW31597   6.146   5.563   1.495  0.4230 -0.8912  0.2224
10233SOL    HW131598   6.232   5.603   1.466  0.3287 -1.2337 -0.5583
10233SOL    HW231599   6.070   5.621   1.465  0.3708 -0.7164  0.6910
10234SOL     OW31600   0.380   5.535   5.298  0.6705 -0.3947 -0.3294
10234SOL    HW131601   0.368   5.593   5.218  0.6632 -0.9847 -0.7587
10234SOL    HW231602   0.307   5.466   5.300 -0.8867  1.1739  1.5610
10235SOL     OW31603   6.502   5.766   0.460  0.1971 -0.1622 -0.2918
10235SOL    HW131604   6.535   5.746   0.367  1.0220  0.3463 -0.1068
10235SOL    HW231605   6.502   5.682   0.514  2.1637 -0.0094  0.0072
10236SOL     OW31606   2.215   2.132   0.745 -0.2261  0.1671  0.3357
10236SOL    HW131607   2.154   2.059   0.778  0.0405 -0.0096  0.4405
10236SOL    HW231608   2.204   2.212   0.804 -0.2814  0.1005  0.4184
10237SOL     OW31609   6.991   4.443   4.290  0.2315 -0.7255 -0.3015
10237SOL    HW131610   7.057   4.512   4.260  0.1977 -0.0095  1.1616
10237SOL    HW231611   6.972   4.456   4.388 -2.3969 -0.6052 -0.7403
10238SOL     OW31612   1.820   1.195   0.146  0.0865 -0.6221  0.7611
10238SOL    HW131613   1.859   1.270   0.199  1.3103 -1.7874  1.5913
10238SOL    HW231614   1.892   1.128   0.126 -0.9867 -1.6196  0.1298
10239SOL     OW31615   0.614   1.188   4.922  0.4448  0.1671  0.2520
10239SOL    HW131616   0.633   1.178   4.824 -0.2294  1.7263 -0.0522
10239SOL    HW231617   0.606   1.284   4.945 -0.3404 -0.2105  1.6717
10240SOL     OW31618   6.985   3.772   1.529  0.1648 -0.3149  0.8758
10240SOL    HW131619   7.083   3.762   1.511  0.2266  0.8151  0.4869
10240SOL    HW231620   6.972   3.811   1.621  0.0934 -0.1183  0.7821
10241SOL     OW31621   3.808   6.386   0.439 -0.1077 -0.1335 -0.1186
10241SOL    HW131622   3.810   6.486   0.430 -2.5676 -0.0190 -0.0899
10241SOL    HW231623   3.873   6.358   0.509  0.4696  1.4566  0.0352
10242SOL     OW31624   2.913   2.549   1.427  0.0701  0.0115 -0.5810
10242SOL    HW131625   2.948   2.481   1.491 -1.3219 -0.6030 -0.4399
10242SOL    HW231626   2.947   2.640   1.453  0.5704 -0.4020  0.2333
10243SOL     OW31627   4.957   4.241   0.813  0.0128  0.1618  0.2628
10243SOL    HW131628   5.032   4.176   0.826 -0.6322 -1.0018 -1.4358
10243SOL    HW231629   4.978   4.301   0.737 -1.6569 -1.6910 -1.7972
10244SOL     OW31630   5.490   2.127   4.687 -0.2406 -0.3159 -0.1486
10244SOL    HW131631   5.422   2.199   4.671  0.0721  0.4130  1.5154
10244SOL    HW231632   5.566   2.138   4.622 -0.7282  0.1544 -0.6533
10245SOL     OW31633   6.631   1.237   2.982  0.1677 -0.0551 -0.2947
10245SOL    HW131634   6.684   1.201   2.906  1.2549 -0.1952  0.5076
10245SOL    HW231635   6.601   1.162   3.041  2.0579  0.2362  1.1361
10246SOL     OW31636   5.680   7.007   6.794 -0.2329  0.1638  0.3987
10246SOL    HW131637   5.596   7.011   6.739 -1.0006 -0.0821  1.5196
10246SOL    HW231638   5.720   6.916   6.787  0.7344  0.6573 -1.2271
10247SOL     OW31639   0.957   5.093   1.020 -0.4813  0.0105  0.0099
10247SOL    HW131640   0.876   5.059   0.972  0.5375 -0.5970 -1.3501
10247SOL    HW231641   0.978   5.186   0.989 -0.8416  0.2886  0.5983
10248SOL     OW31642   3.211   3.900   4.417 -0.2645 -0.4272  0.1449
10248SOL    HW131643   3.310   3.917   4.415 -0.4572  0.6967 -0.7720
10248SOL    HW231644   3.168   3.948   4.341 -1.6362 -0.1122  1.0993
10249SOL     OW31645   6.794   4.245   1.012  0.3154  0.7679  0.6097
10249SOL    HW131646   6.890   4.262   0.995  0.4994  0.3369  1.1653
10249SOL    HW231647   6.769   4.154   0.977 -0.2173  1.4118 -0.7251
10250SOL     OW31648   6.461   3.746   3.687  0.6683  0.1490  0.9420
10250SOL    HW131649   6.523   3.667   3.694  2.0759  1.0792 -0.4228
10250SOL    HW231650   6.510   3.829   3.715  1.0383  1.3228 -2.7026
10251SOL     OW31651   2.351   5.589   6.533  0.2518 -0.6704  0.1612
10251SOL    HW131652   2.356   5.496   6.570 -1.7451 -1.0548 -0.4339
10251SOL    HW231653   2.259   5.625   6.546 -0.1819 -0.3040 -3.1051
10252SOL     OW31654   6.995   5.525   2.537  0.4511 -0.0611  0.1158
10252SOL    HW131655   7.079   5.580   2.545  0.9611 -0.6364 -1.1043
10252SOL    HW231656   6.918   5.585   2.513  0.3318  0.5803  1.9263
10253SOL     OW31657   2.533   0.517   5.713 -0.2288  0.1979 -0.1712
10253SOL    HW131658   2.588   0.575   5.774 -1.3335 -0.7721  1.8730
10253SOL    HW231659   2.591   0.478   5.642  1.5774 -0.0387  1.3447
10254SOL     OW31660   6.465   1.383   5.352 -0.1508 -0.4484 -0.1440
10254SOL    HW131661   6.481   1.402   5.448 -0.9503  1.3458 -0.3275
10254SOL    HW231662   6.535   1.320   5.318  0.1131 -1.1418  1.5957
10255SOL     OW31663   0.705   3.587   1.670  0.0488 -0.0318  0.2651
10255SOL    HW131664   0.606   3.603   1.673 -0.1217 -0.0000 -2.5406
10255SOL    HW231665   0.753   3.674   1.659  0.2488 -0.1651  0.0631
10256SOL     OW31666   1.491   5.775   0.929  0.1314  0.6071 -0.3027
10256SOL    HW131667   1.581   5.806   0.962  0.1046 -1.2726  1.7968
10256SOL    HW231668   1.425   5.849   0.938  0.6852  0.9087  1.6872
10257SOL     OW31669   4.074   6.563   6.755 -0.4780 -0.6197 -0.0211
10257SOL    HW131670   4.161   6.543   6.800 -0.2693  4.4806  2.6003
10257SOL    HW231671   3.999   6.530   6.812 -0.1416  1.1577  1.5822
10258SOL     OW31672   2.146   5.320   6.031 -0.8365  0.2032  0.2289
10258SOL    HW131673   2.047   5.310   6.038 -0.8118 -0.7129 -0.4262
10258SOL    HW231674   2.188   5.301   6.120 -1.1388 -1.3508  0.0753
10259SOL     OW31675   6.402   2.714   4.807 -0.7305 -0.1867  0.5988
10259SOL    HW131676   6.316   2.765   4.802 -0.4655  0.4316  1.9870
10259SOL    HW231677   6.448   2.719   4.718 -1.5547  0.4959  0.1887
10260SOL     OW31678   6.029   0.319   5.867 -0.2557 -0.2165  0.6043
10260SOL    HW131679   6.036   0.347   5.771  2.9182 -1.9155  0.2276
10260SOL    HW231680   5.979   0.233   5.873  0.2455 -0.5298  0.3560
10261SOL     OW31681   3.904   5.515   4.680  0.3143 -0.3888 -0.1913
10261SOL    HW131682   3.919   5.538   4.584 -0.6798  0.7131 -0.1045
10261SOL    HW231683   3.848   5.585   4.723  0.5686 -0.9716  1.1559
10262SOL     OW31684   1.182   1.163   5.234 -0.4973  0.3227  0.1560
10262SOL    HW131685   1.093   1.169   5.279  0.1821 -0.7284  1.7130
10262SOL    HW231686   1.171   1.182   5.136 -2.2248  1.3762  0.5073
10263SOL     OW31687   4.084   6.727   3.411  0.2144 -0.1304  0.5728
10263SOL    HW131688   4.154   6.758   3.475 -0.6922 -0.1019  1.5805
10263SOL    HW231689   4.059   6.803   3.350  1.3501 -0.2689 -0.0878
10264SOL     OW31690   6.827   0.772   3.172 -0.1477 -0.5546  0.6350
10264SOL    HW131691   6.836   0.833   3.094 -1.1028 -2.2953 -0.9083
10264SOL    HW231692   6.805   0.825   3.254  0.0958  1.2315 -0.4120
10265SOL     OW31693   1.161   2.142   3.701 -0.1696  0.4931 -0.1846
10265SOL    HW131694   1.254   2.144   3.665 -0.3847 -0.0934 -0.8042
10265SOL    HW231695   1.163   2.133   3.800  0.4590 -1.8550 -0.3550
10266SOL     OW31696   4.652   2.282   1.736  0.2470 -0.3644  0.6744
10266SOL    HW131697   4.727   2.348   1.737 -1.0510  1.2048  2.3850
10266SOL    HW231698   4.577   2.317   1.679 -0.2028 -0.6451  1.0797
10267SOL     OW31699   5.712   1.655   2.610  0.0117 -0.2713 -0.2626
10267SOL    HW131700   5.752   1.731   2.662 -1.9585  0.0889  0.8609
10267SOL    HW231701   5.678   1.586   2.674 -0.9862 -0.6178 -1.1322
10268SOL     OW31702   5.778   3.350   3.096 -0.1408 -0.7181 -0.4022
10268SOL    HW131703   5.811   3.289   3.025 -1.5638  0.9864 -2.6363
10268SOL    HW231704   5.691   3.317   3.132 -0.0160 -0.9334 -0.2918
10269SOL     OW31705   5.636   2.914   4.107 -0.2709 -0.2595 -0.0957
10269SOL    HW131706   5.682   2.974   4.041  2.5226 -2.3603 -0.2359
10269SOL    HW231707   5.699   2.893   4.182 -1.8855 -1.3921  1.0068
10270SOL     OW31708   4.223   0.860   6.988 -0.5531 -0.0911  0.0703
10270SOL    HW131709   4.239   0.788   7.054  2.2799  0.2326 -0.1156
10270SOL    HW231710   4.128   0.858   6.957 -1.4435 -1.4510  2.6638
10271SOL     OW31711   6.681   4.714   2.763  0.2912 -0.5559 -0.7313
10271SOL    HW131712   6.715   4.759   2.846 -0.1460  0.0291 -0.8718
10271SOL    HW231713   6.668   4.616   2.782  2.6726 -0.9730 -0.8474
10272SOL     OW31714   5.434   6.938   5.525 -0.8033  0.6390 -0.0671
10272SOL    HW131715   5.350   6.992   5.522 -0.5840  0.9478 -0.9014
10272SOL    HW231716   5.501   6.984   5.583  0.0762  2.3226 -2.2983
10273SOL     OW31717   3.076   3.551   2.590 -0.1649 -0.2900 -0.2764
10273SOL    HW131718   3.072   3.645   2.553 -0.5912  0.0368  0.5855
10273SOL    HW231719   3.057   3.553   2.688  0.6493 -1.1902 -0.0883
10274SOL     OW31720   1.341   4.470   1.523  0.2088 -0.3385  0.2364
10274SOL    HW131721   1.325   4.383   1.477  1.0317 -0.3069 -0.1247
10274SOL    HW231722   1.295   4.544   1.474 -0.3376 -0.5409  0.4408
10275SOL     OW31723   5.195   4.279   6.892  0.0964 -0.5305  0.2295
10275SOL    HW131724   5.171   4.368   6.932  0.6918 -0.4141  0.3344
10275SOL    HW231725   5.274   4.289   6.832  0.9149 -1.1877  1.1706
10276SOL     OW31726   0.071   1.886   2.983  0.6808 -0.9383  0.2490
10276SOL    HW131727   0.107   1.809   3.035 -0.6179 -1.3698  0.5527
10276SOL    HW231728   0.082   1.970   3.036  3.0157 -0.7019 -0.4974
10277SOL     OW31729   1.550   2.213   0.929 -0.2296  0.3198  0.0644
10277SOL    HW131730   1.464   2.167   0.948 -0.6681  1.5556  1.2558
10277SOL    HW231731   1.604   2.158   0.866 -2.1992 -0.1279 -1.3210
10278SOL     OW31732   3.900   5.509   4.156 -0.0777  0.5008 -0.2115
10278SOL    HW131733   3.901   5.464   4.067  3.0531  0.0815 -0.0830
10278SOL    HW231734   3.897   5.608   4.143  2.1723  0.5376 -0.9720
10279SOL     OW31735   2.432   0.935   5.094  0.0833  1.3930 -0.1004
10279SOL    HW131736   2.455   1.015   5.039  0.4841  0.4312 -1.3981
10279SOL    HW231737   2.337   0.941   5.124  0.1500  2.4056 -0.0522
10280SOL     OW31738   4.789   5.507   6.540  0.1091 -0.8543 -0.6413
10280SOL    HW131739   4.854   5.547   6.605 -1.8819 -0.3492  1.1448
10280SOL    HW231740   4.833   5.430   6.493  0.9426 -2.9664  3.1687
10281SOL     OW31741   6.978   5.324   3.426  0.0006  0.1440 -0.4635
10281SOL    HW131742   7.071   5.352   3.451  0.0002 -0.4309  0.2047
10281SOL    HW231743   6.928   5.404   3.392 -0.1887  1.1826  1.9832
10282SOL     OW31744   4.070   5.955   2.388 -0.0181 -0.1768 -0.2073
10282SOL    HW131745   4.079   5.999   2.299 -1.0414 -0.0095 -0.2376
10282SOL    HW231746   3.979   5.914   2.396  0.1133 -0.3064  0.7011
10283SOL     OW31747   0.527   5.602   1.082  0.0734  0.2334  0.5383
10283SOL    HW131748   0.525   5.504   1.062 -0.1777  0.0835  1.2754
10283SOL    HW231749   0.577   5.649   1.010 -1.8739 -0.1148 -1.1098
10284SOL     OW31750   3.160   2.049   0.725 -0.2069 -0.3645 -0.4038
10284SOL    HW131751   3.170   2.132   0.670 -1.6546  1.7023  2.2271
10284SOL    HW231752   3.226   2.050   0.800  0.5535 -2.2329 -1.0002
10285SOL     OW31753   4.751   3.933   6.359 -0.1318  0.3146  0.1134
10285SOL    HW131754   4.754   3.994   6.279  0.1877  0.3231  0.1300
10285SOL    HW231755   4.667   3.880   6.356  0.1398 -0.0915 -0.5375
10286SOL     OW31756   5.388   4.334   4.289  0.8653 -0.2206 -0.6957
10286SOL    HW131757   5.406   4.240   4.259  1.1050  0.2842 -2.2054
10286SOL    HW231758   5.302   4.366   4.249  0.4888  0.0163  0.2826
10287SOL     OW31759   4.064   4.541   0.953 -0.2725 -0.2548  0.2972
10287SOL    HW131760   4.027   4.453   0.923  1.0862 -0.9863  0.6590
10287SOL    HW231761   4.164   4.536   0.954 -0.1038  1.6961 -0.8836
10288SOL     OW31762   0.954   2.917   3.225  0.4694 -1.0075  0.0855
10288SOL    HW131763   1.050   2.911   3.253  0.7362 -0.8335 -0.7863
10288SOL    HW231764   0.947   2.965   3.138 -0.4373 -0.7870  0.2700
10289SOL     OW31765   1.903   3.609   1.323  0.0756  0.0552  0.0229
10289SOL    HW131766   1.928   3.539   1.256  1.7608  1.1496 -0.5802
10289SOL    HW231767   1.964   3.603   1.402  1.4596  1.8927 -0.8300
10290SOL     OW31768   4.371   4.259   1.467 -0.2981  0.5581 -0.7834
10290SOL    HW131769   4.332   4.177   1.426 -0.4993  0.3448 -0.1747
10290SOL    HW231770   4.318   4.283   1.549 -0.2929  1.3363 -0.9979
10291SOL     OW31771   5.986   3.814   5.164  0.7846 -0.2187 -0.3901
10291SOL    HW131772   5.941   3.903   5.166 -0.7328 -0.9468 -0.6172
10291SOL    HW231773   5.957   3.763   5.083  2.5244 -0.4960 -0.8863
10292SOL     OW31774   1.746   5.500   5.188 -0.7775 -0.1212 -0.0208
10292SOL    HW131775   1.659   5.528   5.149 -1.6913  1.0540  2.6876
10292SOL    HW231776   1.741   5.404   5.215 -1.0735 -0.1697 -0.2455
10293SOL     OW31777   4.353   0.443   5.014 -0.2753 -0.1829 -0.1015
10293SOL    HW131778   4.401   0.452   5.101 -1.3070 -0.8745  0.5600
10293SOL    HW231779   4.255   0.431   5.030 -0.7341  1.3589 -1.4188
10294SOL     OW31780   6.128   2.295   5.919  0.5754 -0.4556  0.7527
10294SOL    HW131781   6.154   2.218   5.860 -0.2385 -0.7236  0.7371
10294SOL    HW231782   6.144   2.381   5.870 -2.7837 -0.7184 -1.0668
10295SOL     OW31783   4.190   6.673   2.263  0.1922 -0.1156  0.0472
10295SOL    HW131784   4.248   6.617   2.321 -0.6124 -0.7657  0.2433
10295SOL    HW231785   4.242   6.752   2.229  1.1989 -0.7300  0.1368
10296SOL     OW31786   2.172   3.255   1.732  0.6363 -0.7226  0.6869
10296SOL    HW131787   2.218   3.311   1.800 -0.3553 -0.4029  1.1045
10296SOL    HW231788   2.081   3.292   1.713  0.9218 -0.7398 -0.8962
10297SOL     OW31789   6.127   1.838   5.178 -0.3382 -0.5429 -0.0438
10297SOL    HW131790   6.194   1.899   5.221 -0.2194 -1.3707  0.9924
10297SOL    HW231791   6.146   1.832   5.080  0.6958 -0.2444  0.1267
10298SOL     OW31792   3.727   0.908   1.808  0.3297 -0.2322  0.2841
10298SOL    HW131793   3.640   0.888   1.763  0.4734 -1.7027  0.6117
10298SOL    HW231794   3.710   0.940   1.901  0.1240 -0.0670  0.1902
10299SOL     OW31795   1.418   6.855   1.383  0.1026  0.4263 -0.4521
10299SOL    HW131796   1.374   6.805   1.457  1.4818 -0.3779 -0.1297
10299SOL    HW231797   1.370   6.837   1.297  0.5084 -1.4289 -0.3392
10300SOL     OW31798   1.807   4.800   2.428  0.4702  0.1137 -0.2075
10300SOL    HW131799   1.717   4.841   2.414  0.2522  0.0512  0.8962
10300SOL    HW231800   1.878   4.859   2.389  0.1307  1.4114  1.0351
10301SOL     OW31801   6.819   6.061   2.270 -0.4131  0.0699 -0.4775
10301SOL    HW131802   6.799   6.158   2.259 -0.2573 -0.0078 -1.5134
10301SOL    HW231803   6.913   6.050   2.302 -0.2483  0.2438 -0.8958
10302SOL     OW31804   4.155   5.499   1.594 -0.5420  0.2765  0.2982
10302SOL    HW131805   4.148   5.507   1.694 -0.4568  1.4672  0.2304
10302SOL    HW231806   4.064   5.500   1.554 -0.5768  3.0684  0.2044
10303SOL     OW31807   3.625   6.302   2.442 -0.0588  0.6480  0.3650
10303SOL    HW131808   3.691   6.319   2.515 -0.2354  0.0274  0.6726
10303SOL    HW231809   3.674   6.294   2.355  0.2210  0.6972  0.5160
10304SOL     OW31810   6.369   2.667   3.343  0.5840 -0.1768  0.0888
10304SOL    HW131811   6.368   2.657   3.443  0.7135 -1.0900  0.0137
10304SOL    HW231812   6.286   2.713   3.313  0.9222  0.8422  0.6837
10305SOL     OW31813   6.262   5.699   6.688  0.1156 -0.3868  0.0217
10305SOL    HW131814   6.181   5.735   6.734  0.2461  2.1357 -1.5561
10305SOL    HW231815   6.344   5.742   6.726  0.6826 -2.0454  0.7938
10306SOL     OW31816   6.173   2.581   0.323  0.5665 -0.4487 -0.4800
10306SOL    HW131817   6.257   2.564   0.376  1.4406 -0.1577 -1.7324
10306SOL    HW231818   6.171   2.677   0.296 -0.7119 -0.2011  0.4013
10307SOL     OW31819   1.254   6.429   4.492  0.1202 -0.3761  0.9030
10307SOL    HW131820   1.267   6.517   4.538  0.3266  0.8871 -1.4331
10307SOL    HW231821   1.339   6.377   4.495  0.2690 -0.1049  1.5103
10308SOL     OW31822   4.171   2.339   6.893 -0.0617  0.6244  0.2766
10308SOL    HW131823   4.260   2.368   6.929 -0.0819  1.0461 -0.0128
10308SOL    HW231824   4.102   2.408   6.916  0.0866  1.3565 -1.3358
10309SOL     OW31825   2.005   3.902   4.356  1.0571 -0.0849 -0.3174
10309SOL    HW131826   1.994   3.817   4.407  2.4606 -0.5365 -0.7157
10309SOL    HW231827   1.944   3.901   4.276  1.0140 -0.6892 -0.2827
10310SOL     OW31828   1.309   3.720   0.176  0.5786  0.5005  0.0918
10310SOL    HW131829   1.316   3.713   0.077  1.0610  1.0282  0.0823
10310SOL    HW231830   1.383   3.778   0.211  0.1779  0.6495  0.7155
10311SOL     OW31831   5.084   3.307   0.511 -0.2967 -0.3568 -0.1695
10311SOL    HW131832   5.121   3.387   0.558  0.6967 -0.3227 -0.9857
10311SOL    HW231833   5.036   3.249   0.577 -0.8270  0.7774  0.4770
10312SOL     OW31834   2.177   1.497   2.471  0.0383  0.4971 -0.5400
10312SOL    HW131835   2.174   1.583   2.420 -0.7123 -0.0410 -1.4323
10312SOL    HW231836   2.084   1.465   2.487  0.3167 -0.3474 -0.5576
10313SOL     OW31837   0.730   3.217   1.591  0.2527  0.1273 -0.0042
10313SOL    HW131838   0.708   3.146   1.658 -0.6483  1.2735  0.9701
10313SOL    HW231839   0.810   3.268   1.622  0.7176 -0.2638 -0.5494
10314SOL     OW31840   2.570   1.958   1.640  0.8482 -0.4609 -0.5128
10314SOL    HW131841   2.470   1.960   1.642  0.8610  0.4794  0.3887
10314SOL    HW231842   2.603   1.874   1.682  0.4387 -1.3833 -1.9741
10315SOL     OW31843   3.857   6.434   0.786  0.0690 -0.2376 -0.4251
10315SOL    HW131844   3.900   6.468   0.869  0.3052 -0.8146 -0.3116
10315SOL    HW231845   3.925   6.389   0.729  0.3100  1.7479 -1.8040
10316SOL     OW31846   1.672   5.975   0.742 -0.4768  0.0975 -0.0473
10316SOL    HW131847   1.751   6.037   0.737 -0.0097 -0.5566 -1.4128
10316SOL    HW231848   1.657   5.948   0.837  1.5171 -0.4517  0.1676
10317SOL     OW31849   6.095   3.521   5.345 -0.6349 -0.3729 -0.8822
10317SOL    HW131850   6.148   3.453   5.295 -1.3629  0.2064 -2.5101
10317SOL    HW231851   6.038   3.573   5.281 -1.0123  0.9494  0.4665
10318SOL     OW31852   6.002   4.838   1.540  1.0452  0.5797 -0.2489
10318SOL    HW131853   6.045   4.913   1.589  0.7955  0.5781 -0.0310
10318SOL    HW231854   5.904   4.854   1.532  1.0492  0.4679 -0.5456
10319SOL     OW31855   6.646   3.222   1.799  0.1615  0.0637  0.5201
10319SOL    HW131856   6.619   3.126   1.804  1.0960 -0.2384  0.1363
10319SOL    HW231857   6.721   3.231   1.733  1.4403  0.7457  2.0199
10320SOL     OW31858   0.078   5.854   2.505 -0.2752  0.1956 -0.2235
10320SOL    HW131859   0.146   5.785   2.480 -0.0703  0.4837 -0.4642
10320SOL    HW231860   0.039   5.831   2.594 -0.5459 -0.4916 -0.5095
10321SOL     OW31861   6.177   4.213   2.842  0.0059 -0.1039  0.6564
10321SOL    HW131862   6.138   4.294   2.886  0.8732  0.0955  1.0745
10321SOL    HW231863   6.225   4.157   2.910 -0.6000 -0.9840  0.3753
10322SOL     OW31864   2.107   1.887   3.953  0.4862 -0.2030  0.6408
10322SOL    HW131865   2.104   1.788   3.969 -0.1578 -0.6122 -1.6905
10322SOL    HW231866   2.173   1.928   4.015 -1.2711 -1.6220  3.7082
10323SOL     OW31867   3.794   6.428   5.665 -0.4151 -0.0908  0.4888
10323SOL    HW131868   3.705   6.435   5.711 -0.8870 -1.0579 -0.2396
10323SOL    HW231869   3.820   6.332   5.658  0.7657  0.1932  0.8088
10324SOL     OW31870   3.915   3.343   1.812 -0.0951 -0.2750 -0.6211
10324SOL    HW131871   3.923   3.279   1.889 -0.1804 -1.6663 -1.7258
10324SOL    HW231872   3.892   3.434   1.847 -2.2526 -1.2998  0.9002
10325SOL     OW31873   5.909   4.788   2.688 -0.1244 -0.5112 -0.4730
10325SOL    HW131874   5.855   4.865   2.722 -0.8613 -1.5266  0.7252
10325SOL    HW231875   5.984   4.822   2.630 -0.1536  1.1154  0.4111
10326SOL     OW31876   0.301   4.388   6.802  0.2414  0.3349 -0.3545
10326SOL    HW131877   0.334   4.351   6.715 -0.1625 -1.4625  0.2288
10326SOL    HW231878   0.302   4.488   6.797  1.9932  0.3031 -1.7393
10327SOL     OW31879   0.865   3.535   6.520  0.5355  0.1753 -0.0322
10327SOL    HW131880   0.916   3.464   6.569  0.2556 -0.8071 -1.1157
10327SOL    HW231881   0.881   3.623   6.563  4.5424  0.2417 -1.2158
10328SOL     OW31882   5.059   2.094   4.631  0.1259 -0.5092  0.4892
10328SOL    HW131883   5.124   2.161   4.665 -0.4778  1.0393 -1.2457
10328SOL    HW231884   5.100   2.003   4.637  1.4344  0.1170  1.7711
10329SOL     OW31885   3.319   5.126   0.001  0.3743  0.1861  0.2991
10329SOL    HW131886   3.240   5.136   0.062  0.7583  0.2993  0.7781
10329SOL    HW231887   3.387   5.196   0.022  1.0709 -0.5649  0.6030
10330SOL     OW31888   2.135   4.983   6.471 -0.3950 -0.1490 -0.3980
10330SOL    HW131889   2.035   4.991   6.471 -0.4008 -0.0826 -1.8308
10330SOL    HW231890   2.175   5.065   6.431  0.1870 -0.7063 -0.9641
10331SOL     OW31891   4.121   2.278   3.520 -1.2649 -0.0536 -0.4007
10331SOL    HW131892   4.145   2.297   3.615 -0.2476 -1.9585 -0.2248
10331SOL    HW231893   4.199   2.300   3.461 -0.9654 -1.2385 -0.4704
10332SOL     OW31894   2.299   6.100   1.713 -0.6985 -0.3390 -0.3244
10332SOL    HW131895   2.267   6.141   1.628 -1.5211  0.6411  0.4121
10332SOL    HW231896   2.322   6.173   1.778  1.8403 -1.0120 -0.3435
10333SOL     OW31897   2.495   2.571   1.164 -0.6498 -0.0279  0.4975
10333SOL    HW131898   2.569   2.586   1.230 -0.1781 -0.3450  0.0471
10333SOL    HW231899   2.531   2.578   1.071 -1.0699 -0.7202  0.2732
10334SOL     OW31900   0.072   1.079   1.436  0.0965 -0.0047 -0.5357
10334SOL    HW131901   0.062   1.126   1.349  0.5286 -0.6912 -0.9647
10334SOL    HW231902   0.160   1.032   1.439  0.1568  0.1391  0.3375
10335SOL     OW31903   6.835   2.111   0.945  0.0346 -0.2799  0.0218
10335SOL    HW131904   6.869   2.082   1.034  1.1694 -1.2504 -0.6905
10335SOL    HW231905   6.778   2.039   0.906  1.2883 -0.7962 -0.9298
10336SOL     OW31906   3.436   5.413   2.097 -0.6590  0.3510  0.1082
10336SOL    HW131907   3.337   5.421   2.086 -0.6040 -0.5726 -1.4152
10336SOL    HW231908   3.481   5.428   2.008  0.2675 -2.8203 -0.0795
10337SOL     OW31909   3.739   1.395   5.977  0.3004  0.1333 -0.1326
10337SOL    HW131910   3.690   1.386   5.890  2.0604  0.8529 -1.2382
10337SOL    HW231911   3.698   1.332   6.044 -1.4650 -0.0219 -1.2714
10338SOL     OW31912   5.598   6.496   1.049 -0.1399 -0.5709 -0.4001
10338SOL    HW131913   5.562   6.512   0.957 -2.3639  1.5148  0.6965
10338SOL    HW231914   5.691   6.531   1.055 -0.3869  0.3821 -1.5667
10339SOL     OW31915   4.460   3.012   1.318  0.6576  0.2049  0.0633
10339SOL    HW131916   4.449   2.913   1.328  1.8993  0.1324  1.0222
10339SOL    HW231917   4.415   3.042   1.234 -0.2316 -1.0747  0.0411
10340SOL     OW31918   7.009   6.162   6.521 -0.0632 -0.3763  0.2884
10340SOL    HW131919   6.939   6.172   6.591 -0.3059 -0.6487  0.0839
10340SOL    HW231920   6.986   6.086   6.461 -0.7987  0.9697 -1.1957
10341SOL     OW31921   0.353   6.613   0.090 -0.3220  0.5728 -0.7013
10341SOL    HW131922   0.276   6.612   0.026  1.3495 -2.4666 -2.9698
10341SOL    HW231923   0.409   6.694   0.073 -1.0846  0.9370 -1.5844
10342SOL     OW31924   4.095   0.573   0.515  0.1510 -0.3672 -0.0529
10342SOL    HW131925   4.058   0.613   0.431 -0.0007 -0.8721 -0.2305
10342SOL    HW231926   4.094   0.641   0.588  1.5375  0.5023 -0.8064
10343SOL     OW31927   2.308   2.076   5.082 -0.1029  0.0402  0.3670
10343SOL    HW131928   2.361   2.063   5.165  3.2890  1.6019 -1.3609
10343SOL    HW231929   2.293   1.988   5.038  0.7500 -0.4864  1.0925
10344SOL     OW31930   3.889   2.802   5.888  0.1005 -0.0142  0.1636
10344SOL    HW131931   3.937   2.714   5.881 -0.0807 -0.1312  0.3736
10344SOL    HW231932   3.892   2.849   5.800 -0.4765 -0.5910 -0.1776
10345SOL     OW31933   0.071   6.226   6.902  0.7939  0.0643  0.0051
10345SOL    HW131934   0.135   6.246   6.828  0.7266  0.8292  0.1484
10345SOL    HW231935   0.075   6.298   6.970  2.1444 -1.4830  1.6521
10346SOL     OW31936   2.392   3.477   1.152 -0.3013 -0.0785 -0.6096
10346SOL    HW131937   2.409   3.576   1.147  0.4510 -0.1919 -0.3850
10346SOL    HW231938   2.368   3.443   1.062  0.5088  0.1260 -0.9146
10347SOL     OW31939   2.994   5.776   6.079  0.0600  0.0125 -0.3111
10347SOL    HW131940   3.075   5.718   6.078 -0.5743 -0.8891 -0.3665
10347SOL    HW231941   2.913   5.721   6.101 -0.2923  1.2219  1.6258
10348SOL     OW31942   5.086   6.478   3.381  0.1772 -0.8794 -0.1120
10348SOL    HW131943   5.144   6.530   3.318 -0.3143  2.8324  2.2054
10348SOL    HW231944   4.999   6.456   3.336  1.1067 -1.3356 -1.7433
10349SOL     OW31945   4.718   0.833   2.444  0.3251 -0.5062 -0.2525
10349SOL    HW131946   4.699   0.923   2.483  0.8532 -0.5969  0.2360
10349SOL    HW231947   4.787   0.841   2.372  0.9615 -0.6069  0.3288
10350SOL     OW31948   0.701   2.728   4.540 -0.2749 -1.0056  0.5986
10350SOL    HW131949   0.633   2.790   4.500 -0.8345 -1.5274  0.7215
10350SOL    HW231950   0.655   2.665   4.603  0.5685 -0.3030  1.9619
10351SOL     OW31951   0.469   5.358   3.684  0.5059 -0.6131  0.4975
10351SOL    HW131952   0.455   5.457   3.683  2.2277 -0.3391  0.0074
10351SOL    HW231953   0.384   5.312   3.660  0.1164  0.8236 -1.0783
10352SOL     OW31954   1.045   2.785   5.659  0.0741 -0.4774 -0.3236
10352SOL    HW131955   1.093   2.753   5.740  0.4422  1.2458  0.1768
10352SOL    HW231956   0.985   2.861   5.683 -1.2148 -1.1281 -1.3533
10353SOL     OW31957   5.100   4.468   4.774  0.7489  0.8831  0.1532
10353SOL    HW131958   5.078   4.509   4.685  0.6901 -0.7947 -0.6438
10353SOL    HW231959   5.165   4.394   4.761 -0.3360 -0.3242  1.3160
10354SOL     OW31960   5.224   5.554   5.020  0.0234  0.1923  0.3176
10354SOL    HW131961   5.163   5.519   4.949 -0.0394 -1.4956  1.1496
10354SOL    HW231962   5.291   5.616   4.980 -0.8534  0.3356 -0.9740
10355SOL     OW31963   5.723   0.987   1.789  0.0649  0.1393  0.1990
10355SOL    HW131964   5.710   1.068   1.847 -0.7960  0.9628 -1.1001
10355SOL    HW231965   5.764   1.014   1.702  2.4111 -1.2381  0.7876
10356SOL     OW31966   2.192   4.379   4.147 -0.4157  0.2275  0.4397
10356SOL    HW131967   2.131   4.335   4.081 -0.0954  0.6462 -0.1413
10356SOL    HW231968   2.176   4.341   4.238  0.5210 -1.8265 -0.1885
10357SOL     OW31969   2.167   2.324   5.202 -0.1562  0.0721 -0.1588
10357SOL    HW131970   2.167   2.422   5.220  1.8669 -0.0351  0.6748
10357SOL    HW231971   2.214   2.306   5.116  2.2787 -0.3118  1.1646
10358SOL     OW31972   4.907   3.870   3.438 -0.1924 -0.3010  0.3977
10358SOL    HW131973   4.832   3.934   3.425 -2.1201 -2.1856  1.4807
10358SOL    HW231974   4.981   3.914   3.489 -1.9403  0.7803  2.1469
10359SOL     OW31975   1.216   2.872   4.786  0.2031  0.4568 -0.2183
10359SOL    HW131976   1.216   2.806   4.861  0.7444  0.7081  0.0113
10359SOL    HW231977   1.140   2.853   4.724  0.2292 -0.2436 -0.0402
10360SOL     OW31978   5.098   0.696   5.833 -0.6579  0.7807 -0.1796
10360SOL    HW131979   5.061   0.680   5.741  0.0160  1.9805 -0.6759
10360SOL    HW231980   5.044   0.643   5.899 -0.7159 -0.6647 -1.3182
10361SOL     OW31981   4.509   6.259   4.613 -0.4468 -0.3465  0.0001
10361SOL    HW131982   4.485   6.246   4.517  0.3578  0.2318 -0.2890
10361SOL    HW231983   4.425   6.259   4.669 -0.9278 -0.5276 -0.7110
10362SOL     OW31984   4.036   4.018   6.084 -0.1755 -0.1334 -0.2171
10362SOL    HW131985   4.005   4.076   6.008 -2.1057 -0.1043  0.5408
10362SOL    HW231986   3.961   3.961   6.115  0.4872  0.0372  1.8442
10363SOL     OW31987   0.884   0.914   6.118  0.0732 -0.2616 -0.4647
10363SOL    HW131988   0.825   0.984   6.076  0.1555  0.8417  1.1763
10363SOL    HW231989   0.827   0.844   6.162 -0.1643  1.5875  2.4231
10364SOL     OW31990   2.420   6.623   1.704  0.0647  0.0863  0.4189
10364SOL    HW131991   2.417   6.715   1.665  0.1226 -0.3058 -0.5570
10364SOL    HW231992   2.468   6.624   1.791  1.2832  0.7518 -0.2420
10365SOL     OW31993   1.395   5.472   1.689 -0.8247  0.3091  0.2286
10365SOL    HW131994   1.418   5.451   1.784  1.0177  2.1389  0.2730
10365SOL    HW231995   1.340   5.556   1.686 -1.8338 -0.3623 -0.2706
10366SOL     OW31996   1.082   6.933   4.197  0.4338  0.8961 -0.0338
10366SOL    HW131997   0.995   6.944   4.244 -0.2150  3.1601 -1.6247
10366SOL    HW231998   1.151   6.992   4.239  0.3138  1.6045 -0.8241
10367SOL     OW31999   3.991   1.875   4.606 -0.1716  0.3269  0.1763
10367SOL    HW132000   4.068   1.851   4.665 -1.7894 -1.4228  1.6971
10367SOL    HW232001   4.005   1.967   4.568  1.8906  0.6847  1.6426
10368SOL     OW32002   6.631   5.189   6.766 -0.3409  0.3548  0.7412
10368SOL    HW132003   6.600   5.282   6.746  1.5456  0.3368 -3.1103
10368SOL    HW232004   6.731   5.186   6.765 -0.3184 -1.4695  2.4525
10369SOL     OW32005   5.844   0.583   2.183 -0.5476 -0.5651  0.0015
10369SOL    HW132006   5.911   0.630   2.240  0.4399 -2.6351  0.6624
10369SOL    HW232007   5.800   0.648   2.122  1.4039  1.0451  0.2131
10370SOL     OW32008   3.367   0.742   1.038  0.1393  0.2691  0.0123
10370SOL    HW132009   3.356   0.786   1.127 -2.5564 -1.7292  0.7814
10370SOL    HW232010   3.366   0.811   0.966  2.9291  1.9946  1.4395
10371SOL     OW32011   4.991   6.784   1.889  0.3517  0.8927  0.3922
10371SOL    HW132012   4.983   6.748   1.981 -3.0002  1.4135  0.4354
10371SOL    HW232013   5.053   6.862   1.888  1.1109  0.3304  2.0036
10372SOL     OW32014   1.372   2.459   2.340 -0.4310  0.3930  0.0295
10372SOL    HW132015   1.431   2.378   2.333 -0.6836  0.1680  0.4780
10372SOL    HW232016   1.372   2.492   2.434 -2.4250 -0.6943  0.4701
10373SOL     OW32017   0.634   3.630   7.005 -0.0586 -0.2579 -0.0615
10373SOL    HW132018   0.734   3.631   7.008  0.0240 -2.2779 -0.4801
10373SOL    HW232019   0.603   3.535   7.005 -1.9753  0.3462 -0.4166
10374SOL     OW32020   1.683   5.019   3.397 -0.1486 -0.6645  0.3546
10374SOL    HW132021   1.690   4.925   3.431  0.0124 -0.2600  1.4949
10374SOL    HW232022   1.721   5.082   3.465 -0.0699  0.2157 -0.4818
10375SOL     OW32023   6.995   4.059   3.793  0.6029 -0.1185 -0.6688
10375SOL    HW132024   7.060   4.135   3.800  2.4470 -1.6398 -0.5607
10375SOL    HW232025   6.976   4.022   3.884 -0.4461  0.2876 -0.7000
10376SOL     OW32026   5.952   5.738   5.928 -0.4106 -0.6455  0.2139
10376SOL    HW132027   5.999   5.797   5.994  1.3654 -0.7905 -0.8739
10376SOL    HW232028   5.969   5.642   5.951 -1.8802 -0.7514  0.9761
10377SOL     OW32029   1.507   2.567   5.134 -0.2269  0.5254 -0.0730
10377SOL    HW132030   1.479   2.641   5.196  0.6192  1.9929 -1.3593
10377SOL    HW232031   1.548   2.493   5.187 -1.8757  0.5549  1.3376
10378SOL     OW32032   6.953   3.426   6.518 -0.4386 -0.4230 -0.3691
10378SOL    HW132033   6.872   3.392   6.566  1.5810 -2.6930  1.7835
10378SOL    HW232034   7.029   3.362   6.533  1.9406  1.8916 -1.7323
10379SOL     OW32035   3.477   4.902   2.564  0.0923  0.1724  0.1197
10379SOL    HW132036   3.450   4.819   2.515  0.9599  0.1782 -0.3906
10379SOL    HW232037   3.518   4.966   2.500 -0.7897  1.1143  0.4629
10380SOL     OW32038   0.373   3.879   3.266 -0.4185  0.2861  0.0027
10380SOL    HW132039   0.364   3.884   3.166 -0.8213 -0.5832 -0.0108
10380SOL    HW232040   0.307   3.813   3.302  0.6840 -0.4495  0.7138
10381SOL     OW32041   1.431   5.273   5.305  0.4344  0.1308  0.2275
10381SOL    HW132042   1.472   5.208   5.370  2.2023  0.3926 -0.5747
10381SOL    HW232043   1.457   5.366   5.331  0.8637  0.2615 -0.6483
10382SOL     OW32044   5.126   2.445   3.041  0.7459 -0.0973 -0.0063
10382SOL    HW132045   5.192   2.519   3.025  0.2558  0.6071  1.1265
10382SOL    HW232046   5.145   2.401   3.128 -0.3306  0.1845  0.3869
10383SOL     OW32047   2.928   3.541   3.750 -0.4020  0.7478  0.1394
10383SOL    HW132048   2.922   3.551   3.849 -0.6358 -0.0164  0.2074
10383SOL    HW232049   3.022   3.520   3.723 -0.3749  0.7747  0.2144
10384SOL     OW32050   0.889   0.506   1.200  0.1765 -0.1715 -0.3945
10384SOL    HW132051   0.974   0.458   1.178  0.7223  1.0333 -1.0345
10384SOL    HW232052   0.835   0.451   1.263  1.6750 -0.7460  0.4407
10385SOL     OW32053   1.154   1.174   4.919 -0.9990  0.5886 -0.9024
10385SOL    HW132054   1.084   1.115   4.879 -0.6733 -0.7299  0.3807
10385SOL    HW232055   1.244   1.140   4.895 -0.7675 -0.8700  1.6566
10386SOL     OW32056   3.308   6.778   1.888  0.3088 -0.9080 -0.2211
10386SOL    HW132057   3.322   6.799   1.985  1.8172 -3.1368  0.1347
10386SOL    HW232058   3.253   6.695   1.880  0.5700 -0.9942 -1.2346
10387SOL     OW32059   6.491   3.961   5.093 -0.3699 -0.5842  0.5555
10387SOL    HW132060   6.393   3.944   5.093 -0.2686 -1.2285  1.5352
10387SOL    HW232061   6.540   3.874   5.090  0.1653 -0.3609  2.0316
10388SOL     OW32062   6.546   6.888   5.164 -0.0558  0.1898 -0.0540
10388SOL    HW132063   6.465   6.849   5.120  0.3671  0.1568 -0.8289
10388SOL    HW232064   6.602   6.814   5.202 -0.0198  0.1596 -0.1666
10389SOL     OW32065   1.390   1.131   6.170 -0.2544  0.8183  0.2697
10389SOL    HW132066   1.304   1.174   6.196 -0.1590  1.4330 -0.3920
10389SOL    HW232067   1.388   1.108   6.072 -0.3493 -0.8112  0.6280
10390SOL     OW32068   2.090   4.818   4.843 -0.3467  0.2067 -0.3282
10390SOL    HW132069   2.156   4.893   4.850 -0.9800  0.8319 -1.0560
10390SOL    HW232070   2.110   4.751   4.915  0.5163  0.8267  0.0349
10391SOL     OW32071   5.422   5.664   3.065 -0.1952  1.0024  1.2934
10391SOL    HW132072   5.336   5.681   3.112 -1.1415  1.6921 -0.5542
10391SOL    HW232073   5.484   5.613   3.124 -1.1976  2.0321  3.3020
10392SOL     OW32074   2.957   6.211   1.072  0.0334  0.0047 -0.2829
10392SOL    HW132075   2.910   6.279   1.129 -2.5730 -0.7465 -1.3820
10392SOL    HW232076   2.913   6.206   0.983  0.5036 -2.6837 -0.4667
10393SOL     OW32077   3.244   4.990   5.681  0.2886  0.0225 -0.6179
10393SOL    HW132078   3.189   4.911   5.708 -0.3948  0.7517  0.1998
10393SOL    HW232079   3.279   5.036   5.763 -0.7324  1.5248 -0.9594
10394SOL     OW32080   5.629   6.677   0.021  0.7117 -0.1616 -0.0414
10394SOL    HW132081   5.702   6.701  -0.044 -0.2762 -0.2809 -1.2485
10394SOL    HW232082   5.607   6.580   0.011  0.2878 -0.0894  0.1937
10395SOL     OW32083   0.552   3.473   6.482 -1.3590  0.0005  0.9600
10395SOL    HW132084   0.581   3.378   6.477  0.5717  0.5627  0.7322
10395SOL    HW232085   0.605   3.521   6.551 -1.1357  1.2968 -0.0813
10396SOL     OW32086   1.248   0.669   2.837 -0.1972  0.4675  0.3871
10396SOL    HW132087   1.245   0.629   2.929 -3.6303  0.0308  0.1841
10396SOL    HW232088   1.282   0.601   2.773  1.5776  0.5565  1.1624
10397SOL     OW32089   3.188   0.551   0.914 -0.1752  0.1099 -0.1750
10397SOL    HW132090   3.239   0.604   0.981 -0.2386 -0.4081  0.2890
10397SOL    HW232091   3.091   0.550   0.938 -0.3406  0.7118 -0.8013
10398SOL     OW32092   0.318   1.194   0.834 -0.1861  0.2395 -0.2869
10398SOL    HW132093   0.250   1.124   0.811  1.1364 -0.8363 -1.1121
10398SOL    HW232094   0.284   1.250   0.909 -0.7361 -2.2303  1.4508
10399SOL     OW32095   3.902   3.457   2.092 -0.1266  0.2036 -0.1049
10399SOL    HW132096   3.857   3.536   2.131 -0.6933  0.2562 -0.8374
10399SOL    HW232097   4.001   3.472   2.091 -0.1309  0.3415  0.9558
10400SOL     OW32098   2.050   6.112   4.754 -0.3785 -0.2220  0.3847
10400SOL    HW132099   2.109   6.193   4.747  0.4156 -0.6348  1.9316
10400SOL    HW232100   2.091   6.046   4.817 -2.0818 -0.8895  0.8490
10401SOL     OW32101   4.560   5.572   6.686 -0.0041  0.3624  0.7482
10401SOL    HW132102   4.516   5.656   6.654  0.1395  1.0204  2.2374
10401SOL    HW232103   4.601   5.525   6.608 -0.7832  1.2473 -0.2272
10402SOL     OW32104   3.692   1.835   2.449 -0.2434 -0.3892 -0.0952
10402SOL    HW132105   3.656   1.923   2.480  0.0293  0.4079 -1.9260
10402SOL    HW232106   3.678   1.825   2.350  1.1699 -1.6967 -0.2138
10403SOL     OW32107   5.181   4.627   6.082 -0.0398  0.3279 -0.1242
10403SOL    HW132108   5.191   4.659   6.176 -1.4368  0.5821 -0.0305
10403SOL    HW232109   5.270   4.621   6.038  0.4918  1.7319  0.7201
10404SOL     OW32110   3.753   5.268   4.477  0.3932  0.5993 -0.1219
10404SOL    HW132111   3.747   5.282   4.378 -0.3292  0.6526 -0.0714
10404SOL    HW232112   3.836   5.216   4.498  0.5424  0.5754 -0.7532
10405SOL     OW32113   3.796   4.425   0.182 -0.2063  0.2642 -0.0209
10405SOL    HW132114   3.757   4.359   0.246 -1.4072  1.3113  0.3657
10405SOL    HW232115   3.783   4.518   0.217 -0.7431  0.8585 -1.6840
10406SOL     OW32116   6.434   0.586   2.069  0.4402  0.4166  0.3802
10406SOL    HW132117   6.336   0.580   2.054  0.3497  2.0861  0.2154
10406SOL    HW232118   6.482   0.586   1.981  0.4079  2.1672  0.3385
10407SOL     OW32119   6.967   0.301   5.958 -0.4671 -0.3933  0.3282
10407SOL    HW132120   6.918   0.326   5.874  0.0952  0.4054  0.2315
10407SOL    HW232121   6.901   0.286   6.032 -0.8476  1.0968  0.3119
10408SOL     OW32122   0.024   6.422   3.244  0.1956  0.6245  0.2387
10408SOL    HW132123   0.058   6.339   3.290 -2.0291 -0.4589  0.0412
10408SOL    HW232124   0.011   6.403   3.147 -1.0529  0.9345  0.3287
10409SOL     OW32125   5.659   2.829   3.557 -0.2272 -0.0329  0.0096
10409SOL    HW132126   5.655   2.928   3.542 -1.7345  0.0206  0.6019
10409SOL    HW232127   5.635   2.809   3.652  0.1702 -0.9722 -0.0771
10410SOL     OW32128   6.338   2.693   5.069  0.3409  0.2721 -0.3033
10410SOL    HW132129   6.304   2.773   5.117 -2.1552 -0.4115 -0.7750
10410SOL    HW232130   6.389   2.721   4.988 -0.7327  1.4099 -0.6134
10411SOL     OW32131   2.870   2.802   0.752 -0.1454  0.1105  0.3484
10411SOL    HW132132   2.830   2.800   0.844  0.7394 -0.3218  0.7349
10411SOL    HW232133   2.832   2.727   0.698 -3.1457  2.2355 -0.7522
10412SOL     OW32134   5.779   5.488   3.901  0.6036  0.3673  0.0506
10412SOL    HW132135   5.684   5.515   3.913 -0.1722 -1.3912 -1.6152
10412SOL    HW232136   5.831   5.510   3.983 -1.3829  0.6984  1.2781
10413SOL     OW32137   1.586   4.752   2.850 -0.0706  0.3895 -0.2194
10413SOL    HW132138   1.594   4.847   2.819 -2.0747  0.3416 -1.0392
10413SOL    HW232139   1.579   4.692   2.770  1.4985 -0.5199  0.2815
10414SOL     OW32140   5.605   5.292   5.896 -0.3853 -0.3577 -0.6719
10414SOL    HW132141   5.602   5.201   5.938 -1.5536 -0.3659 -0.7227
10414SOL    HW232142   5.536   5.351   5.940  2.5016  1.5772  1.6804
10415SOL     OW32143   3.760   6.665   4.278  0.2345  0.4227  0.5327
10415SOL    HW132144   3.693   6.623   4.216 -2.1119  1.0483  2.4752
10415SOL    HW232145   3.814   6.594   4.322 -0.7473 -0.3044  0.5969
10416SOL     OW32146   4.156   3.500   1.999 -0.5086 -0.0461  0.2262
10416SOL    HW132147   4.181   3.427   1.935  0.3850  0.4050  0.0397
10416SOL    HW232148   4.235   3.523   2.055 -0.6178  1.1285 -0.0696
10417SOL     OW32149   0.666   0.152   0.849 -0.5399 -0.0839  0.1589
10417SOL    HW132150   0.651   0.184   0.756 -1.7105  0.1938  0.4219
10417SOL    HW232151   0.727   0.215   0.897  1.5387 -1.1795 -0.9237
10418SOL     OW32152   4.385   1.799   0.600 -0.4969  0.2761 -0.1672
10418SOL    HW132153   4.328   1.868   0.555  0.6303  1.5884  0.3554
10418SOL    HW232154   4.391   1.718   0.542  0.2455  1.5852 -2.0061
10419SOL     OW32155   3.896   1.176   6.935  0.3243  0.2230 -0.3875
10419SOL    HW132156   3.857   1.157   7.025 -1.4839  0.0573 -1.1654
10419SOL    HW232157   3.994   1.156   6.936 -0.1175 -2.2049  0.8569
10420SOL     OW32158   4.652   1.910   0.589  0.2722 -0.5834 -0.1251
10420SOL    HW132159   4.559   1.882   0.608 -0.0949 -0.3019 -1.3937
10420SOL    HW232160   4.704   1.832   0.553  0.4708 -0.6919  0.3962
10421SOL     OW32161   2.230   6.198   3.255 -0.5448 -0.4244  0.1011
10421SOL    HW132162   2.266   6.134   3.187  0.3225  0.3439 -0.1814
10421SOL    HW232163   2.230   6.154   3.345  1.4730 -0.3645  0.1830
10422SOL     OW32164   2.506   5.561   4.164 -0.8419  0.3009  0.2039
10422SOL    HW132165   2.520   5.479   4.219  0.8466  1.6879  1.9877
10422SOL    HW232166   2.561   5.636   4.202 -0.8316  1.7661 -2.4796
10423SOL     OW32167   1.344   6.676   4.566  0.0971 -0.0981  0.2831
10423SOL    HW132168   1.416   6.738   4.535 -0.2707  0.1878 -0.0045
10423SOL    HW232169   1.254   6.715   4.544 -0.1397 -0.6206  0.3118
10424SOL     OW32170   5.841   0.306   1.599 -0.0027  0.3997 -0.4458
10424SOL    HW132171   5.873   0.372   1.531  0.2303  1.3180  0.5153
10424SOL    HW232172   5.746   0.327   1.624 -0.1575 -0.0611 -0.6333
10425SOL     OW32173   0.556   1.641   1.612 -0.0654  0.2217 -0.0387
10425SOL    HW132174   0.560   1.659   1.514  1.1868 -0.5932 -0.1721
10425SOL    HW232175   0.463   1.656   1.646 -0.5979  0.1697 -1.4158
10426SOL     OW32176   3.326   1.789   0.534 -0.3972 -0.0502 -0.3133
10426SOL    HW132177   3.386   1.824   0.606 -0.1525  1.8548 -1.3667
10426SOL    HW232178   3.274   1.711   0.568 -0.1148  0.6380  1.8292
10427SOL     OW32179   1.078   2.705   0.001 -0.0189  0.6716 -0.5269
10427SOL    HW132180   1.141   2.741   0.070 -0.5631 -1.5308  1.2291
10427SOL    HW232181   1.115   2.620  -0.035 -1.2284  0.1863 -0.6493
10428SOL     OW32182   6.045   1.254   2.996  0.0873 -0.6532  0.1091
10428SOL    HW132183   6.066   1.352   3.005 -0.0063 -0.7294  1.2993
10428SOL    HW232184   5.946   1.241   2.991  0.0435 -0.7366  0.9424
10429SOL     OW32185   2.763   0.680   3.904  0.5278  0.0402 -0.5624
10429SOL    HW132186   2.715   0.736   3.971  2.6199 -0.1288  1.1716
10429SOL    HW232187   2.727   0.699   3.813  0.2289  3.2250  0.1051
10430SOL     OW32188   4.813   5.676   2.529 -0.5239 -0.2277  0.3661
10430SOL    HW132189   4.912   5.661   2.538 -0.6367 -0.7845  0.7445
10430SOL    HW232190   4.767   5.587   2.521 -1.1369 -0.0604  1.7105
10431SOL     OW32191   0.190   0.458   3.997 -0.4822  0.9179  0.1871
10431SOL    HW132192   0.133   0.498   3.926 -0.3416  0.4440 -0.1953
10431SOL    HW232193   0.156   0.366   4.019  1.5042 -0.3646 -1.7239
10432SOL     OW32194   2.895   1.847   3.772  0.0314  0.1719 -0.0606
10432SOL    HW132195   2.955   1.781   3.726  1.2466  1.5033 -0.4830
10432SOL    HW232196   2.924   1.857   3.868  0.3632  0.6534 -0.2064
10433SOL     OW32197   0.791   6.805   4.703  0.0539  0.5834 -0.3917
10433SOL    HW132198   0.803   6.711   4.671 -2.6887 -0.2503  0.7594
10433SOL    HW232199   0.840   6.868   4.642  3.1968 -1.6088 -0.3695
10434SOL     OW32200   1.160   6.536   4.989  0.1844 -0.4672  0.0771
10434SOL    HW132201   1.191   6.442   4.980 -0.9551 -0.7967 -0.6303
10434SOL    HW232202   1.145   6.575   4.898 -0.2754  0.0734  0.3773
10435SOL     OW32203   3.799   2.948   3.974  0.8862  0.0660 -0.3828
10435SOL    HW132204   3.795   2.921   3.878  0.9002 -0.8427 -0.1390
10435SOL    HW232205   3.762   3.040   3.984  0.3137 -0.0629 -1.1793
10436SOL     OW32206   5.546   5.266   3.502 -0.0942  0.1568 -0.3555
10436SOL    HW132207   5.569   5.213   3.420  0.5722  2.9040 -2.0967
10436SOL    HW232208   5.464   5.320   3.484  0.1935  0.9813  0.7225
10437SOL     OW32209   1.481   5.200   6.499  0.1422  0.1147 -0.2801
10437SOL    HW132210   1.550   5.149   6.551  0.4544 -0.1520 -0.9448
10437SOL    HW232211   1.392   5.156   6.508  0.3111 -0.2629 -0.4420
10438SOL     OW32212   5.180   6.334   2.133  0.1459 -0.4039 -0.0752
10438SOL    HW132213   5.196   6.235   2.131  0.6008 -0.3734  1.2553
10438SOL    HW232214   5.268   6.382   2.140 -0.0528  0.1166 -0.9832
10439SOL     OW32215   0.669   5.071   5.633  0.1694 -0.1333  0.8455
10439SOL    HW132216   0.575   5.037   5.640 -0.9531  2.4384 -0.5291
10439SOL    HW232217   0.677   5.157   5.684  0.5901  1.8153 -2.2763
10440SOL     OW32218   2.196   1.907   6.854 -0.5343 -0.4457  0.1265
10440SOL    HW132219   2.103   1.923   6.819 -0.5267  0.3828  0.4507
10440SOL    HW232220   2.210   1.964   6.935  1.3550  1.8907 -1.7194
10441SOL     OW32221   1.942   1.974   6.756  0.9157 -0.0678 -0.6856
10441SOL    HW132222   1.904   1.985   6.663 -0.9850  0.3355  0.0842
10441SOL    HW232223   1.918   2.054   6.811  0.0319 -1.2753  0.7688
10442SOL     OW32224   0.717   5.869   3.275 -0.4002  0.0391  0.2152
10442SOL    HW132225   0.810   5.871   3.238 -0.5901  2.0904 -0.2437
10442SOL    HW232226   0.711   5.932   3.352 -1.1610 -0.8996  0.9440
10443SOL     OW32227   5.637   1.023   6.320 -0.6163  0.0388  0.3662
10443SOL    HW132228   5.574   1.008   6.244 -0.3808  0.4819  0.0815
10443SOL    HW232229   5.626   1.116   6.354  0.9566  0.6436 -0.6873
10444SOL     OW32230   1.735   3.797   5.212 -0.1024  0.0982 -0.0408
10444SOL    HW132231   1.751   3.733   5.136  0.0872 -1.7655  1.4909
10444SOL    HW232232   1.771   3.887   5.187  1.5217 -0.8831 -1.4972
10445SOL     OW32233   4.172   0.908   3.620  0.4822  0.0258  0.1371
10445SOL    HW132234   4.148   0.812   3.604  0.9606  0.3277 -3.0362
10445SOL    HW232235   4.267   0.914   3.652  0.7439 -0.5329 -0.5180
10446SOL     OW32236   0.863   5.758   5.322  0.1775  0.7562 -0.0864
10446SOL    HW132237   0.846   5.763   5.420  0.1852  2.6715 -0.1397
10446SOL    HW232238   0.947   5.807   5.300  0.1378  0.4092 -1.0669
10447SOL     OW32239   4.319   6.913   3.353 -0.3291  0.1407  0.4908
10447SOL    HW132240   4.264   6.952   3.280 -2.7709 -0.1612  2.0587
10447SOL    HW232241   4.318   6.974   3.432  0.7945 -0.3623  0.9171
10448SOL     OW32242   2.881   0.412   0.478  0.3870  0.0840 -0.2175
10448SOL    HW132243   2.956   0.408   0.412  0.5305 -1.2671  0.0005
10448SOL    HW232244   2.794   0.411   0.429  0.4951 -0.7314 -0.4187
10449SOL     OW32245   1.220   1.012   0.640  0.0849 -0.3061  0.2593
10449SOL    HW132246   1.178   0.945   0.579 -0.5899  0.5489 -0.2512
10449SOL    HW232247   1.316   1.024   0.617 -0.5050  1.1654 -1.7632
10450SOL     OW32248   2.646   5.324   5.693  0.1443 -0.0899  0.1202
10450SOL    HW132249   2.728   5.369   5.659 -0.9741  2.8119  0.9732
10450SOL    HW232250   2.613   5.258   5.625  1.7928  0.4734 -1.2975
10451SOL     OW32251   5.496   6.731   6.144 -0.3186 -0.0982  0.4237
10451SOL    HW132252   5.465   6.813   6.193 -1.0370 -0.2694  0.2728
10451SOL    HW232253   5.536   6.758   6.057  0.8509  0.1981  1.0421
10452SOL     OW32254   1.591   6.108   5.287 -0.3156  0.3100 -0.0386
10452SOL    HW132255   1.526   6.077   5.217 -0.4407 -1.0098  0.6278
10452SOL    HW232256   1.675   6.138   5.244 -0.4622 -0.3093 -0.7779
10453SOL     OW32257   5.249   3.373   0.878  0.0965  0.0099 -0.0894
10453SOL    HW132258   5.267   3.304   0.808 -1.2308  0.9310 -1.4078
10453SOL    HW232259   5.314   3.362   0.953  0.5606 -2.0090 -0.7180
10454SOL     OW32260   5.622   0.786   2.474 -0.0768 -0.5218 -0.5887
10454SOL    HW132261   5.572   0.706   2.509 -1.9518  1.0279  0.5176
10454SOL    HW232262   5.570   0.828   2.399 -0.1691  0.7654  0.1597
10455SOL     OW32263   3.533   4.308   1.071 -0.3513  0.9213 -0.8394
10455SOL    HW132264   3.556   4.215   1.040 -0.5281  0.7873 -0.5718
10455SOL    HW232265   3.556   4.317   1.168 -2.7053  0.3394 -0.1758
10456SOL     OW32266   5.040   2.441   1.256 -0.2698 -0.0855  0.3630
10456SOL    HW132267   4.964   2.504   1.269  0.9928  1.7902 -0.9315
10456SOL    HW232268   5.022   2.383   1.176 -0.4749  0.1588  0.2298
10457SOL     OW32269   2.559   5.736   3.379  0.1847 -0.0198  0.7099
10457SOL    HW132270   2.513   5.824   3.368  0.6750 -0.0178 -2.0826
10457SOL    HW232271   2.496   5.671   3.423 -0.3841  1.5061  2.2668
10458SOL     OW32272   1.695   5.640   2.256  0.2261 -0.1884 -0.2647
10458SOL    HW132273   1.618   5.641   2.320 -0.3561  0.7247 -0.9468
10458SOL    HW232274   1.662   5.625   2.163  0.5059  2.5839 -0.9302
10459SOL     OW32275   7.005   2.493   0.673 -0.6401  0.2702  0.5871
10459SOL    HW132276   7.104   2.504   0.678 -0.6931  0.3268  2.0993
10459SOL    HW232277   6.984   2.407   0.626  0.0470  1.1725 -1.4668
10460SOL     OW32278   1.751   6.417   6.520  0.7006  0.1765 -0.2059
10460SOL    HW132279   1.684   6.347   6.498 -0.6818  1.3434  0.1059
10460SOL    HW232280   1.759   6.480   6.442  2.6895 -0.8679 -0.8915
10461SOL     OW32281   5.360   5.658   2.178  0.1326  0.7453  0.6397
10461SOL    HW132282   5.298   5.722   2.223 -1.4515  0.2492 -0.7551
10461SOL    HW232283   5.323   5.633   2.089  1.7519 -0.5319  0.2861
10462SOL     OW32284   3.305   5.982   0.295  0.1576  0.0229  0.2497
10462SOL    HW132285   3.358   6.033   0.362 -1.1252  1.2402  0.3929
10462SOL    HW232286   3.221   5.949   0.339  0.4604 -1.3132 -0.1315
10463SOL     OW32287   0.838   6.332   0.660  0.2828  0.5329 -0.5061
10463SOL    HW132288   0.927   6.313   0.700 -0.8162 -0.4523  1.6540
10463SOL    HW232289   0.834   6.294   0.568  1.7161 -0.3896 -0.2120
10464SOL     OW32290   0.065   3.778   5.862 -0.8197  0.2590 -0.1902
10464SOL    HW132291   0.161   3.796   5.882 -0.6650  0.5839 -1.1460
10464SOL    HW232292   0.008   3.818   5.933 -0.1821 -2.6614  2.1714
10465SOL     OW32293   4.150   6.491   0.405 -0.6460  0.2131  0.5040
10465SOL    HW132294   4.117   6.420   0.467 -2.6733  1.4977  0.9660
10465SOL    HW232295   4.088   6.569   0.407  2.3092  2.7321  1.2051
10466SOL     OW32296   6.763   3.608   5.801  0.1299 -0.3362  0.1971
10466SOL    HW132297   6.697   3.588   5.730  1.3823 -1.0885 -0.8065
10466SOL    HW232298   6.819   3.526   5.818  1.4587  0.5653  0.2853
10467SOL     OW32299   6.068   4.467   0.788  0.4079  0.0911 -0.0308
10467SOL    HW132300   6.040   4.460   0.692 -2.2137  0.1884  0.6673
10467SOL    HW232301   6.008   4.411   0.844  0.8065  1.3883  1.7674
10468SOL     OW32302   4.285   5.543   2.563  0.7993  0.3984 -0.3205
10468SOL    HW132303   4.281   5.591   2.476 -1.1549  1.3193  0.2269
10468SOL    HW232304   4.194   5.508   2.587  1.6902 -1.5415  0.4409
10469SOL     OW32305   2.320   2.727   2.187 -0.4026  0.2006  0.1166
10469SOL    HW132306   2.253   2.778   2.241 -1.7318 -0.3352 -0.9472
10469SOL    HW232307   2.282   2.710   2.095  2.2213  2.1239 -1.4571
10470SOL     OW32308   1.743   6.977   4.272 -0.0114  0.0119  0.3929
10470SOL    HW132309   1.694   6.932   4.347 -1.4706 -1.5952 -1.4081
10470SOL    HW232310   1.754   6.913   4.196 -1.2476  2.3421 -1.9195
10471SOL     OW32311   4.747   5.237   0.951 -0.0866  0.0386  0.4011
10471SOL    HW132312   4.673   5.222   1.017 -0.3791  1.5823  0.4746
10471SOL    HW232313   4.710   5.238   0.859 -0.0718  0.2485  0.3967
10472SOL     OW32314   4.013   6.523   2.484  0.0244 -0.5412  0.1613
10472SOL    HW132315   3.961   6.535   2.399 -1.5852  1.5355  1.3629
10472SOL    HW232316   4.111   6.533   2.464 -0.4120  2.0130 -1.1986
10473SOL     OW32317   3.214   4.110   5.050 -0.4267 -0.1926 -0.0145
10473SOL    HW132318   3.147   4.126   5.123 -0.3933 -2.5845  0.6525
10473SOL    HW232319   3.166   4.090   4.965 -0.5680 -0.8936  0.2203
10474SOL     OW32320   2.957   4.932   3.926  0.1815  0.2123  0.1187
10474SOL    HW132321   2.910   4.870   3.863 -0.4688 -0.3796  1.1627
10474SOL    HW232322   3.043   4.962   3.884  0.3851 -1.1693 -0.5246
10475SOL     OW32323   6.534   6.112   3.231  0.0737  0.2668 -0.3209
10475SOL    HW132324   6.627   6.079   3.215  0.5103  1.9833 -1.6171
10475SOL    HW232325   6.488   6.125   3.143 -0.5756  1.6421  0.1961
10476SOL     OW32326   5.623   0.890   4.313  0.0033 -0.8210 -0.2669
10476SOL    HW132327   5.573   0.875   4.399 -0.3453 -0.0087 -0.3200
10476SOL    HW232328   5.703   0.946   4.331 -0.7276  0.3711 -0.6588
10477SOL     OW32329   3.025   3.040   1.044  0.6939 -0.1113 -0.4556
10477SOL    HW132330   2.999   2.954   1.087  1.9702 -0.9406 -1.2566
10477SOL    HW232331   3.121   3.060   1.066  1.0213  0.0414 -1.8891
10478SOL     OW32332   3.573   4.944   0.799 -0.0299  0.3679 -0.2093
10478SOL    HW132333   3.622   5.029   0.818 -1.0250  1.0757 -0.7438
10478SOL    HW232334   3.494   4.963   0.741 -0.6279 -0.8362  0.1780
10479SOL     OW32335   0.605   2.485   0.373 -0.3704  0.5436  0.2826
10479SOL    HW132336   0.607   2.408   0.309 -1.7435  0.2313  0.5663
10479SOL    HW232337   0.542   2.555   0.339  1.5300  1.9796 -0.4094
10480SOL     OW32338   2.699   5.556   2.377  0.3021  0.2499  0.4578
10480SOL    HW132339   2.655   5.529   2.463 -1.0863 -0.5105 -0.4553
10480SOL    HW232340   2.725   5.474   2.325  0.6172  0.6993 -0.1084
10481SOL     OW32341   5.990   2.410   0.773  0.5534  0.5628 -0.1215
10481SOL    HW132342   5.979   2.491   0.716  1.8010  1.3967  0.7759
10481SOL    HW232343   5.976   2.328   0.717 -2.0899  1.3644 -0.7383
10482SOL     OW32344   5.496   5.132   4.193 -0.4422 -0.3686  0.2943
10482SOL    HW132345   5.408   5.117   4.238 -0.3190 -1.6933  0.1370
10482SOL    HW232346   5.540   5.213   4.232 -0.6634 -1.0512  2.0625
10483SOL     OW32347   2.453   4.683   4.817  0.2654 -0.0953  0.6080
10483SOL    HW132348   2.387   4.637   4.758  1.8972 -2.3132  0.3610
10483SOL    HW232349   2.429   4.668   4.913 -0.7257  0.9455  0.5408
10484SOL     OW32350   4.662   5.023   2.534 -0.3977  0.1880  0.0533
10484SOL    HW132351   4.613   4.962   2.472 -1.0010  0.4426  0.2707
10484SOL    HW232352   4.618   5.113   2.533  0.8924  0.8244 -0.7845
10485SOL     OW32353   3.106   6.009   2.509 -0.2393  0.2339 -0.5779
10485SOL    HW132354   3.035   5.984   2.443 -0.2869 -0.9788 -0.0908
10485SOL    HW232355   3.082   5.974   2.599  0.9921 -0.2606 -0.4112
10486SOL     OW32356   2.645   0.773   3.670 -0.0034  0.2703  0.8836
10486SOL    HW132357   2.645   0.873   3.672  1.9517  0.5321 -2.9493
10486SOL    HW232358   2.552   0.740   3.656 -0.2985  1.9241 -1.9237
10487SOL     OW32359   4.163   0.467   0.008 -0.5821 -0.0127 -0.0064
10487SOL    HW132360   4.224   0.535   0.049  0.3070 -0.0834 -1.1906
10487SOL    HW232361   4.082   0.512  -0.029 -1.0453  0.1326  1.1147
10488SOL     OW32362   0.014   3.306   0.270  0.1689  0.4322  0.0748
10488SOL    HW132363   0.098   3.323   0.219 -0.8571 -0.7256 -2.1449
10488SOL    HW232364  -0.045   3.387   0.264 -0.4407 -0.1020 -1.6847
10489SOL     OW32365   1.112   0.740   6.850  0.2648  0.2028  0.2331
10489SOL    HW132366   1.097   0.742   6.751  1.5783 -0.8685 -0.0227
10489SOL    HW232367   1.144   0.830   6.880  1.5323  0.0682 -0.6382
10490SOL     OW32368   0.448   0.827   4.254  0.0697  0.2075 -0.0243
10490SOL    HW132369   0.510   0.871   4.188 -0.4174  1.3828  0.2771
10490SOL    HW232370   0.409   0.745   4.213  1.0487  0.0078 -0.5902
10491SOL     OW32371   5.053   4.880   2.650  0.1356  0.2066  0.1422
10491SOL    HW132372   4.970   4.931   2.675 -0.8499 -0.7789 -0.9677
10491SOL    HW232373   5.044   4.846   2.556  0.7224 -1.9881  0.8098
10492SOL     OW32374   6.440   3.302   4.388  0.2129 -0.3024 -0.3113
10492SOL    HW132375   6.465   3.381   4.444 -1.5878 -0.2640  0.4886
10492SOL    HW232376   6.341   3.298   4.377  0.2817 -2.2267 -0.6631
10493SOL     OW32377   1.934   1.718   6.321  0.3541  0.4475 -0.1879
10493SOL    HW132378   1.943   1.676   6.231  1.2969 -0.2620  0.2105
10493SOL    HW232379   2.023   1.716   6.367 -0.7835 -2.9326  2.3405
10494SOL     OW32380   5.704   3.077   2.353 -0.3028 -0.5400 -0.2335
10494SOL    HW132381   5.645   3.010   2.397  0.6982 -1.1438  0.2407
10494SOL    HW232382   5.745   3.137   2.422 -0.9268  0.3515 -0.6238
10495SOL     OW32383   1.889   0.003   0.607 -0.2940  0.1216  0.3242
10495SOL    HW132384   1.835  -0.069   0.651  0.4453 -0.4889  0.2603
10495SOL    HW232385   1.965   0.029   0.667 -0.7331  1.0778  0.4799
10496SOL     OW32386   5.223   3.836   4.428  0.0024  0.2013 -0.6359
10496SOL    HW132387   5.151   3.883   4.376  0.7120  1.2887 -0.6765
10496SOL    HW232388   5.269   3.902   4.488  0.5395 -0.6161 -0.1232
10497SOL     OW32389   2.274   5.332   0.867  0.5022  0.1673  0.2351
10497SOL    HW132390   2.307   5.358   0.776  2.4126  0.4060  0.9527
10497SOL    HW232391   2.263   5.233   0.871 -1.0465  0.2585 -0.6721
10498SOL     OW32392   0.221   3.734   1.505 -0.1175 -0.0005 -0.4526
10498SOL    HW132393   0.238   3.637   1.484 -0.9990 -0.6217  1.4724
10498SOL    HW232394   0.308   3.779   1.527  0.1849 -0.6037 -0.3899
10499SOL     OW32395   6.021   2.530   5.081  0.6146 -0.1632 -0.1422
10499SOL    HW132396   6.111   2.573   5.089  0.6946 -0.4128  0.3926
10499SOL    HW232397   6.013   2.485   4.993  0.4079  1.2018 -0.8517
10500SOL     OW32398   6.223   1.225   6.063  0.2012 -0.2274 -0.2503
10500SOL    HW132399   6.200   1.281   6.143  0.9464 -0.4706  0.1415
10500SOL    HW232400   6.191   1.132   6.077  1.8643 -0.7175  0.5543
10501SOL     OW32401   6.075   0.976   4.508  0.1595  0.4158  0.0344
10501SOL    HW132402   6.028   0.977   4.597  0.5040  0.2193  0.2247
10501SOL    HW232403   6.011   1.003   4.436 -0.9744 -2.2446 -0.0605
10502SOL     OW32404   0.886   2.639   4.940  0.2019 -0.0723 -0.2386
10502SOL    HW132405   0.903   2.541   4.953 -0.0635 -0.0174  0.5916
10502SOL    HW232406   0.936   2.691   5.009 -0.2101  0.3335 -0.2429
10503SOL     OW32407   5.711   4.923   3.137 -0.1692 -0.5384  0.0500
10503SOL    HW132408   5.764   4.887   3.060  0.3336 -0.2176  0.2448
10503SOL    HW232409   5.615   4.899   3.124 -0.2799  0.4575 -1.2397
10504SOL     OW32410   3.133   3.114   5.604  0.0511 -0.1366  0.0283
10504SOL    HW132411   3.092   3.166   5.679 -0.1219  0.7078 -0.6385
10504SOL    HW232412   3.063   3.093   5.536  0.6249  0.9721 -0.9289
10505SOL     OW32413   5.838   2.233   3.211 -0.4137 -0.3431  0.6311
10505SOL    HW132414   5.769   2.240   3.139 -1.3086 -0.0016  1.4900
10505SOL    HW232415   5.835   2.315   3.268  1.4097  0.1293  0.1091
10506SOL     OW32416   0.955   5.778   4.924 -0.1439  0.0867 -0.6918
10506SOL    HW132417   0.957   5.679   4.912 -0.6738 -0.4767  2.8505
10506SOL    HW232418   0.860   5.810   4.922 -0.0454  0.3773 -0.7484
10507SOL     OW32419   3.298   0.052   2.470  0.6947 -0.1416 -0.2103
10507SOL    HW132420   3.232  -0.009   2.426 -0.6552 -0.2277  1.7930
10507SOL    HW232421   3.251   0.134   2.503  1.8320  0.3917  0.1429
10508SOL     OW32422   1.265   6.763   3.315 -0.5971  0.1611  0.2135
10508SOL    HW132423   1.229   6.817   3.240 -0.3098 -2.1475 -1.7155
10508SOL    HW232424   1.315   6.684   3.279  1.5367  0.1512  2.8211
10509SOL     OW32425   3.118   6.679   4.714 -0.2519  0.7261  0.4104
10509SOL    HW132426   3.134   6.636   4.803 -0.3455  0.4377  0.2867
10509SOL    HW232427   3.035   6.643   4.673 -0.1673  0.8011  0.1693
10510SOL     OW32428   1.246   4.975   0.704 -0.1412 -0.0684  0.5159
10510SOL    HW132429   1.303   4.893   0.690  1.2452  0.9696 -0.1268
10510SOL    HW232430   1.266   5.014   0.794  0.3040  0.3929  0.2207
10511SOL     OW32431   1.636   1.470   1.659 -0.3033  0.6149  0.0745
10511SOL    HW132432   1.573   1.396   1.684  1.1117 -1.3805 -1.8634
10511SOL    HW232433   1.635   1.540   1.730 -0.5092 -2.0423  2.9129
10512SOL     OW32434   6.961   5.986   6.326  0.4712  0.8970  0.2264
10512SOL    HW132435   6.908   5.902   6.311  0.5941  0.2961  2.7300
10512SOL    HW232436   6.926   6.058   6.267  0.1863 -0.8102 -1.8150
10513SOL     OW32437   1.975   0.456   4.440  0.4238  0.2087 -0.4805
10513SOL    HW132438   1.942   0.521   4.371 -0.9687 -0.5578 -0.5558
10513SOL    HW232439   1.963   0.363   4.406  1.4002 -0.1306  0.0799
10514SOL     OW32440   4.779   0.745   6.839 -0.2238  0.0214  0.3740
10514SOL    HW132441   4.797   0.663   6.894 -0.5195  0.1154  0.6201
10514SOL    HW232442   4.752   0.718   6.747 -0.4894 -0.1688  0.5035
10515SOL     OW32443   3.415   2.992   3.854 -0.3204  0.4662  0.4114
10515SOL    HW132444   3.353   3.043   3.795  0.3591  0.9978  0.1378
10515SOL    HW232445   3.499   2.971   3.804  0.2549  0.9076  1.1665
10516SOL     OW32446   4.537   3.905   0.066  0.5461 -0.6895 -0.2122
10516SOL    HW132447   4.593   3.906   0.149  0.0649 -0.2263  0.1152
10516SOL    HW232448   4.572   3.974   0.002 -0.6848  0.8768  0.7181
10517SOL     OW32449   2.127   0.659   6.398 -1.0441 -0.4005 -0.1288
10517SOL    HW132450   2.029   0.673   6.388 -1.2615 -1.0469  0.9182
10517SOL    HW232451   2.157   0.694   6.487 -0.5320 -1.1468  0.0044
10518SOL     OW32452   0.287   0.018   5.900 -0.7982 -0.3193  0.5217
10518SOL    HW132453   0.210  -0.003   5.961 -1.6424 -2.5321 -1.1739
10518SOL    HW232454   0.363  -0.044   5.919  0.4997  1.5782  1.8968
10519SOL     OW32455   5.744   3.733   2.323  0.0099  0.2486  0.2499
10519SOL    HW132456   5.735   3.663   2.394  0.1275 -0.4274 -0.3845
10519SOL    HW232457   5.732   3.824   2.363 -0.8898 -0.1719  0.9505
10520SOL     OW32458   1.290   1.770   3.949 -0.2564 -0.3690  0.0969
10520SOL    HW132459   1.328   1.771   4.042 -0.0147  1.2602  0.0130
10520SOL    HW232460   1.364   1.780   3.883 -0.5261 -0.4707 -0.2222
10521SOL     OW32461   2.503   1.980   5.319 -0.6084 -0.7495  0.3016
10521SOL    HW132462   2.596   2.009   5.298 -0.5381 -0.3953  1.0569
10521SOL    HW232463   2.494   1.966   5.418 -1.8199  0.9340  0.4638
10522SOL     OW32464   1.951   5.400   5.432 -0.1386 -0.6428  0.2929
10522SOL    HW132465   1.861   5.402   5.388 -0.0455  2.2344  0.0385
10522SOL    HW232466   1.944   5.437   5.524  0.7281 -0.7012  0.3954
10523SOL     OW32467   6.246   6.304   4.535 -0.4885  0.3786  0.0008
10523SOL    HW132468   6.202   6.358   4.462 -0.2991  2.0757  1.0884
10523SOL    HW232469   6.300   6.365   4.593  1.0745 -1.2544  0.3478
10524SOL     OW32470   2.534   2.062   4.863 -0.0379  0.1512 -0.9155
10524SOL    HW132471   2.590   1.981   4.882  0.4692  1.2223  3.1643
10524SOL    HW232472   2.439   2.033   4.848  0.6747 -1.3423 -3.0449
10525SOL     OW32473   4.812   4.016   0.634 -0.0797 -0.5024  0.8862
10525SOL    HW132474   4.861   4.080   0.575 -0.2732 -1.7838 -0.7274
10525SOL    HW232475   4.871   3.990   0.711  0.7502  0.0355  0.4438
10526SOL     OW32476   0.353   0.001   2.793  0.4263  0.2433 -0.9191
10526SOL    HW132477   0.381  -0.035   2.704  1.2038  3.4569 -2.1006
10526SOL    HW232478   0.434   0.031   2.843 -0.1938  0.5806 -0.0931
10527SOL     OW32479   5.518   0.697   0.935  0.3413 -0.0983  0.2524
10527SOL    HW132480   5.517   0.633   0.859  0.7075  0.3156 -0.1071
10527SOL    HW232481   5.501   0.790   0.901  1.1006  0.1691  0.5930
10528SOL     OW32482   3.402   4.517   1.570  0.0570 -0.5264  0.2383
10528SOL    HW132483   3.451   4.535   1.656 -1.3100 -0.7800  1.0898
10528SOL    HW232484   3.468   4.514   1.495  1.1344  1.1860  1.0447
10529SOL     OW32485   0.153   5.263   1.590 -0.7012  0.0028 -0.2098
10529SOL    HW132486   0.203   5.197   1.534 -0.5065 -0.6779  0.7221
10529SOL    HW232487   0.098   5.322   1.532 -1.3746 -1.3855 -1.0494
10530SOL     OW32488   1.475   1.569   4.783 -0.1458 -0.1870 -0.0163
10530SOL    HW132489   1.503   1.512   4.861  0.5093 -0.3396 -0.3624
10530SOL    HW232490   1.379   1.549   4.761 -0.6348  0.5407  1.3385
10531SOL     OW32491   5.058   1.089   0.667  0.2435  0.1748 -0.2072
10531SOL    HW132492   5.112   1.109   0.748  1.7177  0.9403 -1.3249
10531SOL    HW232493   5.077   1.158   0.597  0.8694 -1.7617 -2.0547
10532SOL     OW32494   6.256   3.612   6.477  0.2293  0.1424 -0.2922
10532SOL    HW132495   6.354   3.625   6.486 -0.0376  2.4544 -0.2479
10532SOL    HW232496   6.215   3.597   6.567  0.5824 -1.5026 -0.3742
10533SOL     OW32497   5.285   6.111   5.662  0.2021  0.5518 -0.1642
10533SOL    HW132498   5.272   6.204   5.697 -0.8673  0.6718 -0.8162
10533SOL    HW232499   5.370   6.108   5.609  0.9220  0.8092  0.9604
10534SOL     OW32500   1.148   4.335   5.357 -0.2540 -0.5501  0.2506
10534SOL    HW132501   1.176   4.421   5.400 -1.3940 -0.1841  0.2860
10534SOL    HW232502   1.109   4.274   5.426  0.1387 -0.9258  0.1464
10535SOL     OW32503   3.017   5.363   5.112 -0.0385 -0.2187 -0.5208
10535SOL    HW132504   3.102   5.317   5.139 -0.0559  0.3634  0.6183
10535SOL    HW232505   2.940   5.300   5.119 -0.1757  0.1248  1.7427
10536SOL     OW32506   3.529   0.475   5.477  0.0203 -0.1341  0.0608
10536SOL    HW132507   3.589   0.537   5.426 -1.7384  1.4637 -0.2027
10536SOL    HW232508   3.494   0.404   5.415 -0.0499  0.2408 -0.3389
10537SOL     OW32509   0.310   2.762   6.922  0.3004 -0.0913 -0.2352
10537SOL    HW132510   0.345   2.675   6.957 -1.4312 -1.1787 -1.0709
10537SOL    HW232511   0.380   2.833   6.932  2.4866 -1.9878 -1.2859
10538SOL     OW32512   5.773   6.696   2.451  0.0530  0.2972  0.5909
10538SOL    HW132513   5.785   6.795   2.465 -0.1871  0.4046  0.0702
10538SOL    HW232514   5.719   6.658   2.526 -1.2563  0.8687 -0.0236
10539SOL     OW32515   5.161   6.484   6.783  0.6518  1.1285 -0.1155
10539SOL    HW132516   5.093   6.528   6.724 -0.0720  2.5220  1.6625
10539SOL    HW232517   5.120   6.465   6.873  1.8045 -0.6512  0.0915
10540SOL     OW32518   4.001   6.026   2.106 -0.1634 -0.4823  0.3357
10540SOL    HW132519   3.943   5.944   2.099 -0.8937  0.0271  0.3150
10540SOL    HW232520   4.036   6.049   2.015  0.8454 -1.3231  0.4854
10541SOL     OW32521   6.991   6.618   2.501  0.2086  0.4249  0.0352
10541SOL    HW132522   6.910   6.570   2.535  0.8686  0.1216  1.2533
10541SOL    HW232523   6.964   6.690   2.438 -0.9374 -0.2819 -0.3109
10542SOL     OW32524   3.670   1.700   0.050  0.3969  0.7434  0.2556
10542SOL    HW132525   3.729   1.739   0.121 -0.4439  1.9994  0.2997
10542SOL    HW232526   3.585   1.752   0.047 -1.6075 -2.2147  1.5643
10543SOL     OW32527   2.647   4.973   1.534  0.2668  0.0803  0.3504
10543SOL    HW132528   2.664   4.886   1.489  0.6297  0.2665  0.1247
10543SOL    HW232529   2.641   4.959   1.633 -1.9960 -0.5712  0.1814
10544SOL     OW32530   1.946   3.266   3.933  0.1183  0.4511  0.1296
10544SOL    HW132531   1.929   3.183   3.987  0.0763  0.9423  0.8953
10544SOL    HW232532   1.868   3.328   3.942 -0.3548  0.1094 -1.3638
10545SOL     OW32533   4.930   5.462   6.936  0.4313 -0.0516 -0.3924
10545SOL    HW132534   5.002   5.528   6.957  0.7721 -0.3081 -0.7398
10545SOL    HW232535   4.957   5.407   6.857  1.0125 -1.8824  1.0222
10546SOL     OW32536   5.050   0.729   3.220  0.6385  0.4008 -0.3323
10546SOL    HW132537   5.144   0.753   3.244  0.7612 -0.1154 -0.2821
10546SOL    HW232538   5.002   0.811   3.189  1.3824  0.5126 -1.2696
10547SOL     OW32539   4.419   0.674   6.084 -1.1752 -0.3569 -0.1867
10547SOL    HW132540   4.371   0.690   6.170 -0.2967 -1.6364  0.5643
10547SOL    HW232541   4.491   0.743   6.073 -1.3782 -0.1082  0.0373
10548SOL     OW32542   1.927   4.005   4.777 -0.2035 -0.1539 -0.3439
10548SOL    HW132543   1.989   4.032   4.851  0.3233 -2.5741  0.1852
10548SOL    HW232544   1.951   3.913   4.746 -3.0234 -0.8607 -0.6758
10549SOL     OW32545   6.870   3.697   3.596  0.6672  0.0505  0.0231
10549SOL    HW132546   6.820   3.780   3.620 -0.5489  0.3017 -2.9301
10549SOL    HW232547   6.969   3.715   3.602  0.4173  1.4933  0.1175
10550SOL     OW32548   6.604   4.932   0.891  0.2497  0.5868 -0.1386
10550SOL    HW132549   6.514   4.942   0.848  0.4580  2.1540 -0.2798
10550SOL    HW232550   6.670   4.899   0.824  0.5860  3.0656 -1.1609
10551SOL     OW32551   5.864   5.791   0.092 -0.4660  0.1164  0.5973
10551SOL    HW132552   5.774   5.756   0.067  0.4258 -1.6522 -0.3339
10551SOL    HW232553   5.884   5.765   0.187 -0.4538 -0.5621  0.4158
10552SOL     OW32554   0.061   4.611   2.680 -0.6894  0.3365  0.4400
10552SOL    HW132555   0.028   4.526   2.720 -1.1381  0.2220 -0.1632
10552SOL    HW232556   0.090   4.595   2.586 -0.9812  0.8970  0.2490
10553SOL     OW32557   6.875   6.712   3.287  0.0606  0.4536 -0.1587
10553SOL    HW132558   6.836   6.710   3.378 -0.8278  0.5813 -0.5286
10553SOL    HW232559   6.822   6.654   3.226  0.0882  1.0814 -0.8061
10554SOL     OW32560   2.080   1.842   3.278 -0.2268 -0.1703  0.0073
10554SOL    HW132561   2.126   1.906   3.215 -0.7622  0.6127  0.3979
10554SOL    HW232562   2.122   1.849   3.368 -2.1520  1.8336  0.8397
10555SOL     OW32563   0.404   1.906   6.385 -0.5310  0.4122 -0.4235
10555SOL    HW132564   0.404   1.875   6.480 -0.1097 -0.6420 -0.7554
10555SOL    HW232565   0.473   1.856   6.333 -0.7643  0.9647 -1.2893
10556SOL     OW32566   3.250   4.232   5.376 -0.3695 -0.1134 -0.3202
10556SOL    HW132567   3.201   4.149   5.403 -0.3269 -0.0131  0.0845
10556SOL    HW232568   3.185   4.308   5.370 -0.3922 -0.1550 -0.5832
10557SOL     OW32569   6.240   0.963   6.943  0.2814  0.5405  0.1975
10557SOL    HW132570   6.200   1.055   6.946 -0.4839  0.1855  1.8693
10557SOL    HW232571   6.167   0.895   6.939  0.8391 -0.0312 -0.6376
10558SOL     OW32572   5.490   3.467   1.324  0.4435  0.0461 -0.1924
10558SOL    HW132573   5.430   3.522   1.382  1.8330  3.2183 -1.5325
10558SOL    HW232574   5.542   3.403   1.381 -3.4050 -2.2913  1.1075
10559SOL     OW32575   2.649   4.578   3.169  0.2770 -0.3845 -0.4458
10559SOL    HW132576   2.688   4.567   3.260  1.0146 -0.5313 -0.7684
10559SOL    HW232577   2.570   4.517   3.159  1.8753 -2.5232 -0.8316
10560SOL     OW32578   0.488   6.440   2.976  0.1232  0.6051  0.5259
10560SOL    HW132579   0.578   6.436   2.932  0.2800 -0.8238  0.9280
10560SOL    HW232580   0.478   6.362   3.038 -2.4462 -0.9081 -1.5550
10561SOL     OW32581   1.193   6.878   0.383 -0.7382  0.0382 -0.0641
10561SOL    HW132582   1.208   6.964   0.334  0.6139 -0.5625 -0.7769
10561SOL    HW232583   1.136   6.895   0.463 -2.2503  1.2127 -1.3205
10562SOL     OW32584   0.540   1.007   6.357 -0.4089 -0.1212  0.6361
10562SOL    HW132585   0.461   1.009   6.417 -0.4906  3.9296  0.6450
10562SOL    HW232586   0.624   1.004   6.412 -0.4395 -2.0433  0.6705
10563SOL     OW32587   1.973   3.773   6.484 -0.5766  0.5373  0.2613
10563SOL    HW132588   2.060   3.760   6.436 -0.9642  0.6944 -0.4983
10563SOL    HW232589   1.984   3.841   6.556  0.4454 -0.9219  1.5548
10564SOL     OW32590   1.522   0.197   0.307  0.0313  0.4676 -0.0505
10564SOL    HW132591   1.583   0.138   0.360 -0.4366  0.3216  0.3325
10564SOL    HW232592   1.564   0.288   0.298  0.9278 -0.0245 -0.9746
10565SOL     OW32593   1.631   6.169   1.604 -0.3268 -0.0680 -0.5675
10565SOL    HW132594   1.695   6.178   1.527  0.7235 -1.7773  0.0560
10565SOL    HW232595   1.663   6.098   1.666 -1.6854  0.5839  0.9601
10566SOL     OW32596   1.933   1.341   6.596  0.0615  0.2492  0.3159
10566SOL    HW132597   2.020   1.389   6.602 -0.3155  1.1723 -1.3272
10566SOL    HW232598   1.864   1.388   6.652  0.4521 -0.1648  1.1651
10567SOL     OW32599   0.583   5.329   2.681  0.2688  0.2113  0.3108
10567SOL    HW132600   0.665   5.362   2.728 -0.1620  2.7729 -0.5899
10567SOL    HW232601   0.590   5.230   2.668  3.6834  0.4500 -0.6277
10568SOL     OW32602   4.766   1.933   2.701  0.2674 -0.0879 -0.3309
10568SOL    HW132603   4.757   1.848   2.649 -0.4766 -0.7389  0.8135
10568SOL    HW232604   4.677   1.959   2.737  0.4862  1.2118 -0.6877
10569SOL     OW32605   0.115   1.118   6.952 -0.2570 -0.1584  0.1080
10569SOL    HW132606   0.034   1.078   6.994 -0.9709  0.0812 -0.9931
10569SOL    HW232607   0.192   1.054   6.960 -1.6023 -2.3057 -2.5168
10570SOL     OW32608   2.618   2.071   2.247  0.6352 -0.3216 -0.2496
10570SOL    HW132609   2.667   2.151   2.282  1.9877 -1.3468  0.3168
10570SOL    HW232610   2.634   1.994   2.308 -1.0712 -0.9082 -0.5128
10571SOL     OW32611   1.080   5.528   0.125  0.0597 -0.2006  0.3657
10571SOL    HW132612   1.123   5.548   0.213 -1.1340  0.0762  0.9125
10571SOL    HW232613   1.141   5.471   0.070  2.9623  3.3897 -0.5860
10572SOL     OW32614   3.033   4.772   5.223  0.3400  0.3724 -0.0891
10572SOL    HW132615   2.978   4.699   5.183  1.4910 -1.5712  1.6898
10572SOL    HW232616   3.089   4.815   5.153  0.7960 -1.5327 -0.9471
10573SOL     OW32617   2.177   5.261   1.419 -0.3204 -0.6771 -0.7475
10573SOL    HW132618   2.166   5.162   1.413  0.4161 -0.6765 -2.3191
10573SOL    HW232619   2.263   5.283   1.465 -1.2457 -0.7095  1.1391
10574SOL     OW32620   4.287   0.839   2.250  0.0571  0.2878 -0.8557
10574SOL    HW132621   4.366   0.790   2.287 -1.5061 -0.3837  1.9214
10574SOL    HW232622   4.288   0.934   2.283 -0.1493  0.3439 -1.0086
10575SOL     OW32623   5.906   5.392   6.261 -0.1802 -0.6201  0.4192
10575SOL    HW132624   5.892   5.294   6.251 -2.6135 -0.4979  1.9943
10575SOL    HW232625   5.986   5.409   6.318  1.1714 -1.6065 -1.1051
10576SOL     OW32626   4.150   5.217   4.215  0.0879 -0.0044 -0.4195
10576SOL    HW132627   4.189   5.281   4.149 -0.5249 -0.2066 -0.9843
10576SOL    HW232628   4.211   5.139   4.225 -0.0869 -0.2474 -1.1843
10577SOL     OW32629   0.238   2.028   3.819 -0.3119  0.7224  0.6111
10577SOL    HW132630   0.271   2.123   3.815 -1.7517  1.2081 -0.9966
10577SOL    HW232631   0.205   2.001   3.729 -2.0448 -0.5310  1.5673
10578SOL     OW32632   0.397   1.843   0.086  0.2437  0.6796  0.2537
10578SOL    HW132633   0.489   1.870   0.056  1.6428  1.1372  4.2785
10578SOL    HW232634   0.346   1.924   0.114 -1.1739  0.3447 -1.2237
10579SOL     OW32635   5.304   1.794   1.705 -0.5006 -0.2018  0.0817
10579SOL    HW132636   5.234   1.846   1.753  1.0306  1.5324  0.5314
10579SOL    HW232637   5.368   1.755   1.771 -0.3120 -0.7147 -0.3936
10580SOL     OW32638   2.104   4.442   5.768 -0.2979 -0.5018 -0.2355
10580SOL    HW132639   2.120   4.362   5.710  1.1643  0.6142 -1.4406
10580SOL    HW232640   2.146   4.522   5.727  1.7258  0.1999  2.8352
10581SOL     OW32641   1.857   2.496   1.738  0.3667 -0.1253 -0.1300
10581SOL    HW132642   1.926   2.460   1.675  1.0110 -0.5813  0.8076
10581SOL    HW232643   1.903   2.540   1.816 -0.4067  0.0608  0.2322
10582SOL     OW32644   6.639   3.786   0.396 -0.2505 -0.5929 -0.8747
10582SOL    HW132645   6.645   3.844   0.477  0.0951 -2.4216  0.4614
10582SOL    HW232646   6.547   3.793   0.357 -0.8009 -0.6148  0.3856
10583SOL     OW32647   5.105   5.881   3.925 -0.0115  0.3971 -0.2613
10583SOL    HW132648   5.157   5.860   4.008 -0.2417 -0.2426 -0.2721
10583SOL    HW232649   5.020   5.828   3.925 -0.1847  0.6726 -0.7279
10584SOL     OW32650   3.728   4.680   0.319 -0.6489  0.5232 -0.2454
10584SOL    HW132651   3.790   4.758   0.332 -0.6289  0.3765  0.6529
10584SOL    HW232652   3.706   4.640   0.409 -0.7450 -0.4382 -0.6834
10585SOL     OW32653   3.418   0.347   4.349  0.6836  0.1071 -0.7274
10585SOL    HW132654   3.495   0.392   4.304  0.5980  2.0596  0.9795
10585SOL    HW232655   3.335   0.359   4.293  1.1308  0.0024 -1.4288
10586SOL     OW32656   0.940   5.341   2.817  0.0538  0.1387 -0.4659
10586SOL    HW132657   1.000   5.294   2.882 -0.2420  0.1241 -0.1984
10586SOL    HW232658   0.899   5.421   2.860 -1.9080 -1.1137  0.1455
10587SOL     OW32659   0.814   1.824   2.464  0.0925  0.2892 -0.2021
10587SOL    HW132660   0.720   1.854   2.448 -0.1063  0.3976  1.0516
10587SOL    HW232661   0.828   1.734   2.422 -0.9179 -0.2385  0.5332
10588SOL     OW32662   4.759   6.549   4.305 -0.2548 -0.0133 -0.1133
10588SOL    HW132663   4.700   6.525   4.382  0.1848 -1.3567 -0.1772
10588SOL    HW232664   4.798   6.640   4.320  0.8736 -0.7664  1.9089
10589SOL     OW32665   5.145   6.508   2.555 -0.7619  0.2836 -0.1225
10589SOL    HW132666   5.214   6.581   2.556 -1.3128  0.8187 -0.4265
10589SOL    HW232667   5.086   6.516   2.636 -1.9163  1.2591 -1.0265
10590SOL     OW32668   3.585   4.257   0.769  0.1261  0.2461  0.8331
10590SOL    HW132669   3.511   4.200   0.736 -0.0703  0.8615  0.1989
10590SOL    HW232670   3.550   4.349   0.788  1.2521  1.4421 -2.2931
10591SOL     OW32671   3.089   2.209   4.280  0.5362  0.2835 -0.3380
10591SOL    HW132672   3.155   2.264   4.330 -0.0927 -0.3342  1.2417
10591SOL    HW232673   3.047   2.264   4.207 -1.0853  2.4057  2.0418
10592SOL     OW32674   0.300   5.596   5.739  0.1204 -1.0278  0.0955
10592SOL    HW132675   0.280   5.639   5.651  0.5149 -2.3192 -0.6562
10592SOL    HW232676   0.216   5.561   5.779  0.0197 -0.9719 -0.0673
10593SOL     OW32677   0.010   4.913   2.046  0.2790 -0.3556 -0.5043
10593SOL    HW132678   0.107   4.911   2.022  0.1736 -1.5289 -0.8971
10593SOL    HW232679  -0.002   4.957   2.135  0.8928  2.1759 -1.6070
10594SOL     OW32680   5.770   5.924   5.567 -0.1779  0.0044  0.2849
10594SOL    HW132681   5.777   5.879   5.478 -1.3284  0.0844  0.1330
10594SOL    HW232682   5.859   5.963   5.592  0.6261 -1.6178  0.0492
10595SOL     OW32683   0.112   6.695   0.651 -0.1507 -0.6953  0.0066
10595SOL    HW132684   0.138   6.784   0.616 -0.8939  0.5537  2.3806
10595SOL    HW232685   0.015   6.679   0.634  0.4661 -2.1990 -2.5552
10596SOL     OW32686   5.004   4.852   1.216  0.1186  0.2839 -0.1563
10596SOL    HW132687   4.904   4.854   1.215  0.1157  0.2101  0.0231
10596SOL    HW232688   5.040   4.945   1.224  0.0482  0.1984  1.3562
10597SOL     OW32689   1.670   0.008   0.439 -0.0660 -0.2651  0.5389
10597SOL    HW132690   1.711  -0.044   0.364 -0.4921 -0.3609  0.3670
10597SOL    HW232691   1.740   0.030   0.507  0.5742  0.8053 -0.4226
10598SOL     OW32692   0.844   4.900   6.834  0.6543 -0.4413  0.0534
10598SOL    HW132693   0.843   4.912   6.735 -0.4520 -1.1458 -0.0420
10598SOL    HW232694   0.937   4.912   6.869  1.0125  0.0237 -1.0361
10599SOL     OW32695   6.898   2.291   5.033 -0.7354 -0.8502 -0.1007
10599SOL    HW132696   6.989   2.256   5.054 -0.0976  0.9832  0.3123
10599SOL    HW232697   6.831   2.248   5.095 -0.2365 -2.4156 -0.5929
10600SOL     OW32698   0.494   6.127   6.477 -0.4953  0.4060 -0.4913
10600SOL    HW132699   0.530   6.120   6.384 -2.0950 -0.9416 -1.0717
10600SOL    HW232700   0.557   6.083   6.540 -0.1073 -0.0314 -1.1720
10601SOL     OW32701   1.976   4.544   0.601 -0.0036  0.0315 -0.3839
10601SOL    HW132702   1.951   4.450   0.575  1.6112 -1.4378  2.7392
10601SOL    HW232703   2.016   4.591   0.523 -0.2579 -2.0965 -1.8896
10602SOL     OW32704   0.800   0.199   3.679  0.0478  0.5457  0.1694
10602SOL    HW132705   0.788   0.107   3.644  0.5965  0.1181  1.0601
10602SOL    HW232706   0.853   0.253   3.614  0.0409  0.1259 -0.1885
10603SOL     OW32707   1.301   3.265   3.464 -0.4373 -0.1659  0.5133
10603SOL    HW132708   1.299   3.180   3.517  1.1501 -0.8043 -0.3610
10603SOL    HW232709   1.393   3.304   3.468 -0.4991  0.2027 -1.0571
10604SOL     OW32710   0.444   5.545   1.882 -0.1185 -0.2095 -0.4866
10604SOL    HW132711   0.506   5.473   1.916  0.1079 -0.8712 -2.1564
10604SOL    HW232712   0.460   5.629   1.933 -1.9838 -1.8290  3.1562
10605SOL     OW32713   6.448   6.463   4.610  0.6699  0.3042  0.5224
10605SOL    HW132714   6.476   6.367   4.612 -0.9171 -0.2657 -1.3355
10605SOL    HW232715   6.519   6.518   4.566  0.8804 -0.3032  0.0859
10606SOL     OW32716   1.339   4.578   3.939  0.6714  0.4479 -0.0551
10606SOL    HW132717   1.270   4.521   3.984  2.1069 -0.2937  1.3084
10606SOL    HW232718   1.339   4.669   3.980  0.4857  0.4449 -0.0500
10607SOL     OW32719   2.495   0.781   2.581 -0.4467 -0.6539  0.5791
10607SOL    HW132720   2.556   0.860   2.578  0.0573 -1.0052  1.1467
10607SOL    HW232721   2.538   0.709   2.636 -1.4088 -0.8845  1.0429
10608SOL     OW32722   6.511   0.693   6.066 -0.4903 -0.0786  0.1602
10608SOL    HW132723   6.577   0.632   6.023 -0.1285 -0.9994  1.9565
10608SOL    HW232724   6.557   0.749   6.135 -1.1233  1.1442 -0.3630
10609SOL     OW32725   3.344   1.224   3.088 -0.2394  0.0860  0.0440
10609SOL    HW132726   3.333   1.311   3.040  0.5342 -0.1235 -0.5395
10609SOL    HW232727   3.377   1.155   3.024 -1.8077 -0.9100  0.2693
10610SOL     OW32728   1.720   6.826   4.056 -0.5554  0.0118  0.7270
10610SOL    HW132729   1.632   6.849   4.016 -0.5508  1.5250  1.5064
10610SOL    HW232730   1.786   6.806   3.983 -2.2533 -4.5203  0.1073
10611SOL     OW32731   4.055   1.613   3.103  0.1757 -0.2700  0.3997
10611SOL    HW132732   4.140   1.568   3.130  0.1523 -0.1637  0.6568
10611SOL    HW232733   3.977   1.559   3.134  0.0781  1.3893  3.4577
10612SOL     OW32734   0.762   3.364   5.844  0.4892  0.0364 -0.8768
10612SOL    HW132735   0.743   3.363   5.746 -0.0912 -1.3891 -0.7809
10612SOL    HW232736   0.698   3.425   5.890  0.7399  0.6805 -1.3787
10613SOL     OW32737   1.495   3.596   6.495  0.3990  0.4019  0.1984
10613SOL    HW132738   1.421   3.549   6.447  1.1508 -0.4626 -0.1411
10613SOL    HW232739   1.487   3.695   6.481 -1.7658  0.5089  1.7050
10614SOL     OW32740   4.171   1.473   1.612 -0.3318 -0.4001  0.1343
10614SOL    HW132741   4.146   1.539   1.683  3.7732  1.4967  0.1601
10614SOL    HW232742   4.144   1.509   1.523 -2.0262 -0.9121  0.4029
10615SOL     OW32743   1.852   2.378   4.519 -0.1647 -0.6591 -0.0247
10615SOL    HW132744   1.797   2.460   4.507 -0.2496 -0.3464  2.1716
10615SOL    HW232745   1.938   2.401   4.564  0.1174 -1.6825 -0.0098
10616SOL     OW32746   2.010   1.116   5.430 -0.2144  0.0754  0.0232
10616SOL    HW132747   1.921   1.111   5.385 -0.7853 -0.3906  1.1666
10616SOL    HW232748   2.012   1.195   5.491 -0.5566 -0.9390  1.4121
10617SOL     OW32749   4.276   6.752   4.125 -0.1230 -0.1554  0.1354
10617SOL    HW132750   4.321   6.699   4.197  0.3636  2.0665  1.5428
10617SOL    HW232751   4.178   6.757   4.143 -0.3864 -1.5854 -0.7165
10618SOL     OW32752   4.473   2.326   5.048 -0.0346 -0.2926  0.2134
10618SOL    HW132753   4.381   2.347   5.015  1.1236  1.1801 -2.4107
10618SOL    HW232754   4.487   2.367   5.138 -1.8605 -0.4391  0.5955
10619SOL     OW32755   5.802   4.709   6.239  0.2454  0.7392  0.3306
10619SOL    HW132756   5.754   4.634   6.283  0.6520  1.0822  1.3839
10619SOL    HW232757   5.834   4.680   6.148 -0.2574 -0.1050  0.4163
10620SOL     OW32758   2.037   6.458   2.788 -0.3710  0.2843  0.6285
10620SOL    HW132759   1.938   6.443   2.781 -0.3202 -1.8766  3.0177
10620SOL    HW232760   2.075   6.467   2.696 -2.8082  1.6976 -0.3425
10621SOL     OW32761   4.277   5.383   1.302  0.6212  0.1604  0.2609
10621SOL    HW132762   4.371   5.412   1.279  0.9377  0.0158  1.3406
10621SOL    HW232763   4.263   5.392   1.400 -0.0326 -1.1824  0.3015
10622SOL     OW32764   3.378   6.035   3.173  0.4465 -0.0837 -0.0021
10622SOL    HW132765   3.434   6.002   3.097 -0.7766  0.5521 -1.2278
10622SOL    HW232766   3.344   6.126   3.152 -1.8444 -0.8159  0.2201
10623SOL     OW32767   0.576   5.087   4.629  0.5081  0.1701  0.3007
10623SOL    HW132768   0.536   5.044   4.547  2.8124 -1.1746 -0.1988
10623SOL    HW232769   0.571   5.186   4.620 -3.0014  0.1469  0.4857
10624SOL     OW32770   3.683   1.661   0.415 -0.1598 -0.0841 -0.3519
10624SOL    HW132771   3.615   1.590   0.401 -0.3851 -0.3235  1.7169
10624SOL    HW232772   3.774   1.620   0.417 -0.3486 -0.5130  1.7100
10625SOL     OW32773   4.989   0.189   4.415  0.0466 -0.2712 -0.5691
10625SOL    HW132774   5.044   0.169   4.496 -0.1240  2.4433  0.3062
10625SOL    HW232775   5.047   0.182   4.333  0.6251 -1.4448 -0.0849
10626SOL     OW32776   6.144   3.972   1.640  0.7560  0.3339 -0.2644
10626SOL    HW132777   6.209   3.906   1.602 -0.1884 -1.0565  0.4196
10626SOL    HW232778   6.112   3.939   1.729  1.7876  2.7594  1.0885
10627SOL     OW32779   2.291   1.472   3.769 -0.0153 -0.1692  0.4262
10627SOL    HW132780   2.218   1.538   3.755 -0.4367 -0.3367  1.7039
10627SOL    HW232781   2.269   1.387   3.720  0.3743  0.4990 -0.9464
10628SOL     OW32782   5.586   4.919   4.507 -0.1707 -0.3637  0.4981
10628SOL    HW132783   5.544   4.987   4.566 -1.1553  0.9501 -1.6084
10628SOL    HW232784   5.589   4.831   4.554 -1.5750  0.4437  2.1920
10629SOL     OW32785   4.195   2.924   0.074 -0.0189  0.1861 -0.0295
10629SOL    HW132786   4.163   2.831   0.088 -0.0685  0.0809 -0.8020
10629SOL    HW232787   4.281   2.938   0.124  0.0612 -0.3154 -0.0257
10630SOL     OW32788   4.826   3.118   5.050  0.6319  0.2416  0.4070
10630SOL    HW132789   4.731   3.111   5.019 -0.1677  0.4829  2.6549
10630SOL    HW232790   4.866   3.203   5.017  0.7266 -0.6997 -2.1132
10631SOL     OW32791   0.961   5.879   2.818 -0.2237 -0.3222 -0.2201
10631SOL    HW132792   1.033   5.819   2.854  0.7643  0.0361 -1.5476
10631SOL    HW232793   0.933   5.848   2.727  0.0066  0.9825 -0.7537
10632SOL     OW32794   6.145   2.507   4.092 -0.3625  0.3246 -0.3122
10632SOL    HW132795   6.189   2.506   4.182 -0.7167 -1.0625 -0.1349
10632SOL    HW232796   6.199   2.455   4.027 -0.5895  0.5288 -0.6694
10633SOL     OW32797   5.019   3.247   6.178  0.1228 -0.3753 -0.5136
10633SOL    HW132798   5.091   3.311   6.206  0.2098 -0.4201 -0.6376
10633SOL    HW232799   4.932   3.274   6.220  0.1864 -0.2492 -0.4649
10634SOL     OW32800   5.975   6.337   2.716 -0.3035 -0.3512  0.2097
10634SOL    HW132801   6.049   6.385   2.763 -0.4910 -1.5829  1.8883
10634SOL    HW232802   5.984   6.239   2.733 -1.9089 -0.5908 -0.1401
10635SOL     OW32803   1.118   4.169   0.676  0.7424  0.8590  0.4932
10635SOL    HW132804   1.136   4.121   0.590 -0.3826  1.5517 -0.1470
10635SOL    HW232805   1.093   4.264   0.656 -1.0088  0.6293  1.4868
10636SOL     OW32806   6.038   1.388   3.650  0.0803  0.4707 -0.0727
10636SOL    HW132807   5.974   1.343   3.588  0.8740  1.5562 -1.7452
10636SOL    HW232808   5.999   1.475   3.681 -0.5527 -0.3263  1.4484
10637SOL     OW32809   4.928   3.542   4.440  0.6548  0.2111  0.1852
10637SOL    HW132810   4.869   3.493   4.376 -0.7980  1.5310  0.4434
10637SOL    HW232811   4.930   3.639   4.416  0.2035  0.7134  2.0050
10638SOL     OW32812   0.971   5.969   3.852  0.6041 -0.4520 -0.0529
10638SOL    HW132813   1.053   5.931   3.893  1.0428  0.0659 -0.4379
10638SOL    HW232814   0.993   6.008   3.763  0.3018  1.1730  0.5464
10639SOL     OW32815   4.016   6.259   6.401  0.5137 -0.0922 -0.5314
10639SOL    HW132816   4.047   6.354   6.408 -1.7908  0.6988  0.1608
10639SOL    HW232817   4.033   6.211   6.488  0.4665  0.1192 -0.4043
10640SOL     OW32818   6.157   6.447   0.883  0.4299  0.1105  0.4375
10640SOL    HW132819   6.114   6.529   0.845  2.3635  1.0673  0.1716
10640SOL    HW232820   6.238   6.424   0.829  0.4855 -1.4097  1.1104
10641SOL     OW32821   6.685   2.349   0.983 -0.2629 -0.1804 -0.0562
10641SOL    HW132822   6.748   2.277   0.955 -0.9730 -1.1626  0.7878
10641SOL    HW232823   6.653   2.399   0.902  1.8899  0.6217 -0.4604
10642SOL     OW32824   6.005   5.790   6.873 -0.0827  0.3713 -0.3435
10642SOL    HW132825   5.971   5.710   6.823 -1.1365  1.3233 -1.1960
10642SOL    HW232826   5.973   5.787   6.968 -0.3515 -0.0745 -0.4478
10643SOL     OW32827   0.373   0.578   4.146 -0.3367 -0.6894 -0.0806
10643SOL    HW132828   0.364   0.544   4.240  0.6170 -1.2601 -0.1790
10643SOL    HW232829   0.316   0.523   4.085  0.5989 -1.6486 -0.1214
10644SOL     OW32830   1.256   5.943   1.222 -0.8703  0.2812  1.0319
10644SOL    HW132831   1.208   5.891   1.151 -0.5719  1.3110  0.0566
10644SOL    HW232832   1.217   6.034   1.229 -0.0158  0.6394  1.2728
10645SOL     OW32833   6.357   2.181   6.479  0.0407  0.4724 -0.0220
10645SOL    HW132834   6.409   2.256   6.519 -0.7270  0.5316  0.9096
10645SOL    HW232835   6.292   2.217   6.413 -0.9116  0.7494  1.0329
10646SOL     OW32836   4.283   0.315   2.799  0.5319  0.5281 -0.2007
10646SOL    HW132837   4.228   0.233   2.786 -2.4508  2.2677  0.5259
10646SOL    HW232838   4.302   0.356   2.709 -1.5416  1.1706 -0.3962
10647SOL     OW32839   5.306   5.267   6.083 -0.2574  1.1066 -0.0645
10647SOL    HW132840   5.362   5.203   6.031 -1.5342 -0.4187  0.3747
10647SOL    HW232841   5.239   5.310   6.022 -0.6391  0.5883 -0.0204
10648SOL     OW32842   3.462   2.333   0.387 -0.0886 -0.2750 -0.2596
10648SOL    HW132843   3.362   2.333   0.384 -0.0848 -0.3944 -0.3854
10648SOL    HW232844   3.497   2.265   0.323  0.0058 -2.1532  1.6502
10649SOL     OW32845   3.753   1.757   5.926  0.0063  0.4696  0.5347
10649SOL    HW132846   3.837   1.810   5.937  2.0262 -2.1163 -1.2912
10649SOL    HW232847   3.751   1.682   5.991 -0.9320  0.5098  0.5766
10650SOL     OW32848   6.060   2.154   2.901 -0.1218  0.0579  0.1011
10650SOL    HW132849   6.023   2.173   2.811  2.7224  0.8980 -0.9842
10650SOL    HW232850   6.074   2.055   2.911  0.5639  0.0520 -0.8268
10651SOL     OW32851   1.690   2.622   0.581 -0.0512 -0.5515  0.3386
10651SOL    HW132852   1.680   2.590   0.675 -1.6094 -2.3410 -0.3799
10651SOL    HW232853   1.629   2.570   0.521  0.3925  1.0117 -1.5760
10652SOL     OW32854   5.293   6.384   5.720 -0.0617  0.1648 -0.5618
10652SOL    HW132855   5.358   6.379   5.796  0.2161 -0.2064 -0.8252
10652SOL    HW232856   5.226   6.457   5.739  1.3903  1.7011 -1.0569
10653SOL     OW32857   5.273   2.616   5.616  0.2083  0.5741 -0.8079
10653SOL    HW132858   5.226   2.547   5.671 -1.9921  1.4339 -1.4930
10653SOL    HW232859   5.354   2.649   5.665 -0.3402 -0.3719  0.8110
10654SOL     OW32860   2.777   6.547   1.691 -0.3019 -0.6827  0.2253
10654SOL    HW132861   2.787   6.637   1.649 -0.9023 -0.8041 -0.1908
10654SOL    HW232862   2.864   6.520   1.733 -0.6800  1.0646  2.3478
10655SOL     OW32863   1.041   1.785   4.705 -0.0351  0.1329  0.2943
10655SOL    HW132864   1.090   1.837   4.775  0.1760  2.0729 -1.1840
10655SOL    HW232865   0.943   1.801   4.714  0.0578  1.2066 -0.4230
10656SOL     OW32866   4.103   6.064   1.869 -0.0356  0.2529  0.1161
10656SOL    HW132867   4.061   6.142   1.823 -0.2451  0.1662  0.1562
10656SOL    HW232868   4.189   6.041   1.825 -0.2978  0.0868 -0.3135
10657SOL     OW32869   6.882   1.060   3.916 -0.3670 -0.4945 -0.0538
10657SOL    HW132870   6.932   0.974   3.904  0.4601 -0.3540  2.1088
10657SOL    HW232871   6.942   1.137   3.894  0.4996 -0.3219  2.6414
10658SOL     OW32872   5.080   2.893   1.925  0.4656 -0.5740  0.4689
10658SOL    HW132873   4.995   2.851   1.960  1.6334 -1.2061  2.7590
10658SOL    HW232874   5.139   2.821   1.887 -0.2407 -0.0466 -1.7837
10659SOL     OW32875   6.425   6.153   3.511  0.3766  0.6324  0.3230
10659SOL    HW132876   6.340   6.187   3.471 -0.7484 -1.3324  0.8972
10659SOL    HW232877   6.494   6.143   3.439 -0.5186  0.3953 -0.5270
10660SOL     OW32878   1.368   3.234   4.477  0.2398 -0.2548 -0.2214
10660SOL    HW132879   1.439   3.304   4.485  0.1127  0.0540 -1.5029
10660SOL    HW232880   1.367   3.178   4.560  0.1962  1.3875  0.9544
10661SOL     OW32881   2.476   5.920   1.805 -0.4645  0.1184 -0.2742
10661SOL    HW132882   2.410   5.992   1.781  0.5594  0.5611 -1.8719
10661SOL    HW232883   2.569   5.955   1.796  0.0752 -1.4647 -1.3519
10662SOL     OW32884   0.740   6.619   1.874 -0.1482 -0.0896 -0.6543
10662SOL    HW132885   0.826   6.669   1.880  1.0025 -1.9875  6.1235
10662SOL    HW232886   0.665   6.678   1.905 -0.1644 -0.3037 -0.2872
10663SOL     OW32887   3.909   5.013   3.612  0.3504 -0.1312 -0.9240
10663SOL    HW132888   3.975   5.032   3.540  0.8554 -0.2204 -0.4896
10663SOL    HW232889   3.905   5.091   3.675  0.3461 -0.2942 -0.7215
10664SOL     OW32890   3.685   3.519   4.379 -0.4360  0.0245  0.5946
10664SOL    HW132891   3.594   3.547   4.348 -0.5948 -0.3729  0.6895
10664SOL    HW232892   3.717   3.443   4.323 -0.0647  0.3085  0.4184
10665SOL     OW32893   4.034   4.341   1.484 -0.2224 -0.1723 -0.1596
10665SOL    HW132894   4.064   4.246   1.484 -0.1117 -0.1364 -0.4805
10665SOL    HW232895   3.958   4.352   1.549 -1.4751 -0.8601 -1.4450
10666SOL     OW32896   3.220   6.213   1.884 -0.1315  0.0388  0.0011
10666SOL    HW132897   3.207   6.240   1.789  1.0104  0.5546 -0.0365
10666SOL    HW232898   3.173   6.126   1.902  0.1850 -0.3960 -1.2095
10667SOL     OW32899   4.544   0.775   1.294  0.1045  0.1742  0.2360
10667SOL    HW132900   4.540   0.864   1.248  1.2176 -0.7632 -1.7687
10667SOL    HW232901   4.481   0.776   1.372 -0.3174  2.5180 -0.0433
10668SOL     OW32902   6.575   2.931   5.483  0.2928  0.0360 -0.0036
10668SOL    HW132903   6.594   2.839   5.518  2.4843 -0.1460 -1.4893
10668SOL    HW232904   6.590   2.998   5.556 -1.3621 -0.7284  1.1026
10669SOL     OW32905   3.976   1.722   0.703 -0.0944  0.1724 -0.0839
10669SOL    HW132906   4.029   1.758   0.627 -1.0716  0.5149 -0.6307
10669SOL    HW232907   3.898   1.670   0.668  0.7097 -1.6738  0.6893
10670SOL     OW32908   2.087   2.940   6.304  0.0015 -0.0525 -0.3516
10670SOL    HW132909   1.996   2.958   6.268  0.7373 -1.6738 -3.4049
10670SOL    HW232910   2.136   2.878   6.242  2.6781 -0.4223  1.9231
10671SOL     OW32911   2.268   4.520   4.675 -0.1229 -0.0501 -0.0393
10671SOL    HW132912   2.265   4.430   4.719  1.4922  0.1348  0.5128
10671SOL    HW232913   2.183   4.569   4.695 -1.0427 -1.4250 -0.3588
10672SOL     OW32914   0.777   6.573   5.788 -0.2404  0.4224  0.6260
10672SOL    HW132915   0.846   6.550   5.856  1.0172  2.1092 -0.0174
10672SOL    HW232916   0.791   6.518   5.706 -0.2445  0.1326  0.8153
10673SOL     OW32917   3.592   3.809   0.576 -0.1360  0.2294 -0.7068
10673SOL    HW132918   3.569   3.735   0.639 -2.0452  1.6131  0.3467
10673SOL    HW232919   3.678   3.851   0.604 -1.2733  1.2553  1.4922
10674SOL     OW32920   2.312   6.718   5.603 -0.2619  0.3704  0.2251
10674SOL    HW132921   2.361   6.802   5.580 -0.1290  0.0457 -0.7316
10674SOL    HW232922   2.236   6.705   5.540  0.2161 -0.6456 -0.1662
10675SOL     OW32923   0.356   4.830   5.047  0.1470 -0.3911  0.1289
10675SOL    HW132924   0.379   4.758   4.981  0.9274 -0.3758  0.3637
10675SOL    HW232925   0.438   4.883   5.066 -0.8156  1.8337 -1.5390
10676SOL     OW32926   0.679   5.064   4.226  1.0168  0.4768 -0.5581
10676SOL    HW132927   0.730   5.058   4.140 -0.8294 -0.2207 -1.6546
10676SOL    HW232928   0.656   4.972   4.258 -0.1571  0.7791 -0.4844
10677SOL     OW32929   5.261   2.701   2.850  0.0395  0.2549  0.1523
10677SOL    HW132930   5.170   2.662   2.863 -0.0548  0.7451  1.0745
10677SOL    HW232931   5.313   2.644   2.787  0.4121 -2.2568  2.5280
10678SOL     OW32932   4.555   0.714   1.893  0.3080 -0.2373  0.4364
10678SOL    HW132933   4.489   0.707   1.968  0.7519  1.0283  0.9608
10678SOL    HW232934   4.526   0.653   1.818 -0.0166 -1.7067  1.7000
10679SOL     OW32935   6.771   5.150   0.496  0.2421 -0.1585 -0.1917
10679SOL    HW132936   6.787   5.219   0.426 -0.2649 -1.0240 -1.1901
10679SOL    HW232937   6.675   5.152   0.524  0.1011 -0.7840 -0.6057
10680SOL     OW32938   1.381   6.202   1.084 -0.0624 -0.3539  0.3505
10680SOL    HW132939   1.308   6.177   1.147 -0.6454 -0.3636 -0.3172
10680SOL    HW232940   1.349   6.274   1.022  0.4993 -0.3443  0.0589
10681SOL     OW32941   6.985   6.212   2.649 -0.0757  0.4056 -0.7833
10681SOL    HW132942   7.008   6.160   2.567 -0.0238  2.7807 -2.3763
10681SOL    HW232943   7.023   6.305   2.642  1.0706  0.3368  2.5344
10682SOL     OW32944   1.722   0.312   6.100  0.2864  0.2759 -0.3252
10682SOL    HW132945   1.717   0.283   6.195 -0.0892 -1.1950 -0.7664
10682SOL    HW232946   1.678   0.243   6.042 -0.0015  1.4131 -1.5113
10683SOL     OW32947   5.100   3.791   0.655 -0.5930 -0.3094 -0.4439
10683SOL    HW132948   5.170   3.786   0.584  0.1287  0.9043  0.1629
10683SOL    HW232949   5.035   3.864   0.633 -2.1853 -1.9130 -1.4123
10684SOL     OW32950   2.202   4.474   6.434  0.1728 -0.4188 -0.2714
10684SOL    HW132951   2.237   4.540   6.502 -0.9413 -0.4407  0.3427
10684SOL    HW232952   2.206   4.382   6.473 -0.4115 -0.4396 -0.2606
10685SOL     OW32953   5.728   2.464   5.998 -0.0020 -0.4963  0.0746
10685SOL    HW132954   5.740   2.433   5.904 -0.1541 -3.3876  0.9029
10685SOL    HW232955   5.657   2.409   6.043 -0.3550  1.1913  1.7362
10686SOL     OW32956   0.416   4.545   4.126  0.2977 -0.3195 -0.5800
10686SOL    HW132957   0.411   4.644   4.115 -2.3352 -0.2540  0.4670
10686SOL    HW232958   0.486   4.522   4.193  1.4127  0.7667 -1.3498
10687SOL     OW32959   0.948   0.019   6.529  0.4517  0.3029 -0.1906
10687SOL    HW132960   1.018  -0.044   6.562  1.3263  1.1871 -0.3014
10687SOL    HW232961   0.983   0.113   6.534 -1.1161  0.8655  0.7523
10688SOL     OW32962   1.464   2.323   3.197  0.1813  0.2247  0.2462
10688SOL    HW132963   1.406   2.404   3.204 -0.3247 -0.1127  0.0576
10688SOL    HW232964   1.413   2.243   3.230  0.4578 -0.1141 -0.1423
10689SOL     OW32965   5.154   1.228   1.492  0.1695  0.6507  0.0838
10689SOL    HW132966   5.139   1.216   1.394 -0.9648  0.6406  0.2414
10689SOL    HW232967   5.231   1.171   1.521 -0.2874 -0.3362 -0.5692
10690SOL     OW32968   2.985   6.213   5.613 -0.2344 -0.5852 -0.2561
10690SOL    HW132969   3.039   6.130   5.605  0.1523 -0.2871 -0.7813
10690SOL    HW232970   2.962   6.248   5.522 -1.5556 -0.8542 -0.0458
10691SOL     OW32971   2.367   5.343   5.379 -0.2677 -0.5009 -0.6962
10691SOL    HW132972   2.464   5.365   5.373 -0.2315 -0.3546  0.2884
10691SOL    HW232973   2.316   5.399   5.313  0.2405 -0.1333 -0.7820
10692SOL     OW32974   1.802   5.140   5.810 -0.1770  0.1575 -0.2052
10692SOL    HW132975   1.847   5.119   5.896 -0.9752  1.3198  0.5272
10692SOL    HW232976   1.869   5.138   5.735  0.1819 -2.8361  0.0650
10693SOL     OW32977   0.717   6.345   5.136  0.2509  0.2629  0.0865
10693SOL    HW132978   0.774   6.280   5.086 -1.1075 -0.7793 -0.1657
10693SOL    HW232979   0.665   6.400   5.071  1.9094  2.1349  0.2783
10694SOL     OW32980   4.014   4.584   5.383 -0.5125  0.3685 -0.4010
10694SOL    HW132981   3.945   4.530   5.431 -2.1580  2.4329 -0.3103
10694SOL    HW232982   4.032   4.543   5.294 -1.7725 -0.3039 -0.3701
10695SOL     OW32983   6.875   1.611   1.048  0.3172  0.1923  0.3876
10695SOL    HW132984   6.916   1.527   1.011 -1.8743 -0.9947  0.5298
10695SOL    HW232985   6.866   1.603   1.147  1.6959  1.3785  0.6538
10696SOL     OW32986   5.981   6.812   6.548 -0.4744 -0.3571  0.2943
10696SOL    HW132987   6.066   6.830   6.597  0.6788 -1.7762 -1.0732
10696SOL    HW232988   5.985   6.856   6.458 -1.1348 -0.5455  0.1720
10697SOL     OW32989   6.029   1.836   4.522  0.9936 -0.7015 -0.1392
10697SOL    HW132990   6.011   1.807   4.428  0.0232  2.7808 -1.1748
10697SOL    HW232991   6.114   1.888   4.525  0.9565 -0.6853  0.9197
10698SOL     OW32992   0.847   2.751   5.269  0.3817  0.6595 -0.1026
10698SOL    HW132993   0.799   2.776   5.353 -0.8555  0.0283 -0.5907
10698SOL    HW232994   0.872   2.654   5.272 -0.4518  0.4130 -0.8118
10699SOL     OW32995   6.362   4.285   1.018 -0.0776 -0.8404  0.3657
10699SOL    HW132996   6.322   4.310   1.106  0.9291  0.3733  0.5065
10699SOL    HW232997   6.292   4.242   0.961 -2.1442  2.5436  0.0115
10700SOL     OW32998   3.065   4.095   0.448 -0.3995 -0.3437  0.1124
10700SOL    HW132999   2.988   4.036   0.472 -0.0703 -0.0670  1.9961
10700SOL    HW233000   3.150   4.044   0.458 -0.1493  0.2514  1.2639
10701SOL     OW33001   3.888   2.306   0.490 -0.3233 -0.0572  0.2640
10701SOL    HW133002   3.976   2.353   0.477 -1.5322  2.2924  0.0809
10701SOL    HW233003   3.845   2.292   0.401 -0.8957  0.3647  0.4735
10702SOL     OW33004   3.780   2.463   6.885  0.0244  0.5836  0.0374
10702SOL    HW133005   3.705   2.404   6.915  0.9040 -0.1861  0.7691
10702SOL    HW233006   3.861   2.445   6.940  0.6416  1.6978 -0.4677
10703SOL     OW33007   1.219   3.613   4.196  0.0702 -0.4240  0.3399
10703SOL    HW133008   1.300   3.572   4.154  0.9540 -0.9962  2.4715
10703SOL    HW233009   1.139   3.555   4.179  0.5349 -0.9814  0.0267
10704SOL     OW33010   5.844   2.405   5.748 -0.6750 -0.1563  0.9584
10704SOL    HW133011   5.915   2.471   5.725 -0.1834 -0.8025  0.5622
10704SOL    HW233012   5.881   2.312   5.741 -0.6715 -0.4573  3.7863
10705SOL     OW33013   6.030   4.280   2.573  0.2415  0.3419  0.1745
10705SOL    HW133014   6.119   4.249   2.605  0.1804 -0.2666 -0.2362
10705SOL    HW233015   6.009   4.238   2.485 -0.8365 -0.2189  0.6785
10706SOL     OW33016   6.584   0.135   4.218 -0.1320  0.3865 -0.7221
10706SOL    HW133017   6.522   0.197   4.170 -0.4976 -0.6782 -1.6825
10706SOL    HW233018   6.532   0.058   4.255 -0.3646  2.3680  3.8047
10707SOL     OW33019   2.540   0.040   6.666  0.3942 -0.1369  0.2921
10707SOL    HW133020   2.616   0.034   6.602  1.3533  0.5418  1.3284
10707SOL    HW233021   2.546   0.125   6.719 -0.5933 -0.4790  1.0004
10708SOL     OW33022   4.871   0.582   4.875 -0.2854  0.0566 -0.3950
10708SOL    HW133023   4.904   0.530   4.954 -1.7128  1.4144  1.1597
10708SOL    HW233024   4.792   0.535   4.836 -2.9368  1.8974  2.3110
10709SOL     OW33025   2.368   0.521   2.483  0.4125 -0.3747 -0.1938
10709SOL    HW133026   2.338   0.560   2.570 -0.5189  1.3977 -1.2470
10709SOL    HW233027   2.293   0.469   2.442  0.0630  0.6936 -0.9599
10710SOL     OW33028   4.308   1.668   6.644  0.1822  0.4983  0.1331
10710SOL    HW133029   4.221   1.709   6.617 -0.3393 -0.3495  0.4645
10710SOL    HW233030   4.293   1.611   6.726  0.9697  0.0436 -0.0344
10711SOL     OW33031   4.924   0.206   2.140 -0.6751  0.1576  0.2070
10711SOL    HW133032   4.825   0.223   2.136 -0.7357 -0.2845 -0.3911
10711SOL    HW233033   4.969   0.251   2.062 -0.4267  0.2170  0.3838
10712SOL     OW33034   6.400   5.596   0.949 -0.2313 -0.0088  0.1157
10712SOL    HW133035   6.308   5.595   0.988 -0.0355 -1.9674  0.6210
10712SOL    HW233036   6.468   5.588   1.022  0.4355  2.2685 -0.1690
10713SOL     OW33037   4.841   5.193   0.296 -0.1110 -0.4338  0.6031
10713SOL    HW133038   4.917   5.246   0.334  2.0559 -2.4278 -0.6939
10713SOL    HW233039   4.782   5.253   0.243  0.6415  1.1503  1.4819
10714SOL     OW33040   0.390   0.226   0.366  0.0480 -0.2716  0.4428
10714SOL    HW133041   0.364   0.289   0.438 -0.8943  0.9797 -0.9307
10714SOL    HW233042   0.470   0.261   0.318 -1.6738  1.0521 -1.6440
10715SOL     OW33043   3.525   4.133   4.808 -0.0460 -0.4480 -0.0806
10715SOL    HW133044   3.479   4.173   4.887 -1.4730 -0.1207 -1.0223
10715SOL    HW233045   3.542   4.036   4.824 -0.1749 -0.3479  0.6887
10716SOL     OW33046   0.650   6.606   6.029  0.1630  0.1722  0.3222
10716SOL    HW133047   0.669   6.571   5.938 -1.5616  1.3666 -0.5442
10716SOL    HW233048   0.662   6.706   6.030  1.0035  0.0835  1.6502
10717SOL     OW33049   4.910   3.209   2.104 -0.2315  0.5829  0.1458
10717SOL    HW133050   4.853   3.131   2.078  0.6639  0.3569 -1.2362
10717SOL    HW233051   4.891   3.286   2.043  1.5473  0.2148 -0.9414
10718SOL     OW33052   5.764   4.921   4.292  0.4955 -0.4811 -0.0488
10718SOL    HW133053   5.738   4.993   4.227 -1.3555 -1.9121 -1.0076
10718SOL    HW233054   5.705   4.925   4.372 -0.3214 -1.4747 -0.5609
10719SOL     OW33055   4.544   4.439   3.541  0.1624  0.3214  0.5777
10719SOL    HW133056   4.574   4.361   3.486 -0.3516 -1.1513  2.2795
10719SOL    HW233057   4.466   4.482   3.496  0.9240  0.3613 -0.7751
10720SOL     OW33058   0.999   0.315   5.759 -0.3423  0.7195 -0.7842
10720SOL    HW133059   0.916   0.269   5.791 -1.6694  1.4791 -2.9126
10720SOL    HW233060   1.051   0.348   5.838 -0.5117 -2.2639  0.7433
10721SOL     OW33061   3.607   6.949   4.897 -0.5898 -0.1750  0.0250
10721SOL    HW133062   3.627   6.943   4.799  1.3643 -3.3367  0.4829
10721SOL    HW233063   3.543   7.024   4.913  0.0341  1.3071 -3.4715
10722SOL     OW33064   3.273   1.061   0.963 -0.1461  0.2862  0.4636
10722SOL    HW133065   3.350   1.041   1.024 -0.9189 -1.8311  0.8244
10722SOL    HW233066   3.187   1.047   1.012 -0.7762 -0.5223 -0.8274
10723SOL     OW33067   0.335   0.127   2.330  0.1210 -0.0222 -0.2114
10723SOL    HW133068   0.259   0.166   2.382 -0.3728  0.5147 -1.3090
10723SOL    HW233069   0.379   0.198   2.276  0.7973 -0.5163 -0.3203
10724SOL     OW33070   5.457   4.259   6.758 -0.5648  0.2207 -0.3949
10724SOL    HW133071   5.502   4.348   6.763  2.3436 -1.1322 -0.6284
10724SOL    HW233072   5.476   4.216   6.669 -1.1415 -1.0246  0.0488
10725SOL     OW33073   0.607   1.026   3.118 -0.0428  0.3756 -0.1671
10725SOL    HW133074   0.655   1.054   3.201  0.7962 -1.3091 -0.0483
10725SOL    HW233075   0.671   1.026   3.041  0.3915 -2.3980  0.0947
10726SOL     OW33076   3.506   1.373   4.120  0.5699 -0.2602 -0.1157
10726SOL    HW133077   3.436   1.319   4.166  1.1821 -0.6145  0.4197
10726SOL    HW233078   3.550   1.435   4.185  0.6944  0.0186 -0.4612
10727SOL     OW33079   0.648   2.072   2.093  0.4417  0.2637  0.2383
10727SOL    HW133080   0.695   2.063   2.181  0.1150  0.6475  0.4565
10727SOL    HW233081   0.650   1.984   2.045  1.9209  0.4269 -0.0377
10728SOL     OW33082   5.195   0.949   2.061  0.2520 -0.3792 -0.1759
10728SOL    HW133083   5.289   0.979   2.049  0.7155 -0.3718  2.7230
10728SOL    HW233084   5.174   0.876   1.996  1.1805  1.6961 -2.9694
10729SOL     OW33085   3.297   0.289   0.066  0.1920 -0.0253 -0.4665
10729SOL    HW133086   3.241   0.267   0.145  2.5218 -1.1020  0.9836
10729SOL    HW233087   3.238   0.301  -0.014 -2.1631  0.2685  1.2131
10730SOL     OW33088   1.170   2.462   6.171 -0.1164 -0.3351  0.1843
10730SOL    HW133089   1.237   2.505   6.232  1.1991 -0.6735 -0.9478
10730SOL    HW233090   1.080   2.501   6.187  0.0690 -0.7722  2.6598
10731SOL     OW33091   4.852   3.051   1.730 -0.5253  0.1832 -0.1620
10731SOL    HW133092   4.926   3.046   1.796 -1.2112 -2.1190  0.5019
10731SOL    HW233093   4.765   3.032   1.775 -1.0692 -0.9106 -1.6026
10732SOL     OW33094   5.643   1.268   6.729 -0.0198 -0.8247  0.4599
10732SOL    HW133095   5.694   1.190   6.767  1.4098 -1.1204 -1.8985
10732SOL    HW233096   5.619   1.249   6.634 -0.6498  1.1671  0.1813
10733SOL     OW33097   5.177   3.281   5.130  0.6122  0.0418 -0.0555
10733SOL    HW133098   5.191   3.333   5.214  0.7453 -0.5218  0.2670
10733SOL    HW233099   5.198   3.185   5.145  0.1712 -0.1456 -0.6066
10734SOL     OW33100   6.810   1.356   0.195 -0.1816 -0.2689  0.0747
10734SOL    HW133101   6.826   1.275   0.252 -0.4507  0.2601  0.9205
10734SOL    HW233102   6.783   1.327   0.103  3.8410 -1.2417 -1.0180
10735SOL     OW33103   1.434   6.798   0.482 -0.1142 -0.0463  0.2599
10735SOL    HW133104   1.503   6.816   0.412  0.6452  1.8866  1.4182
10735SOL    HW233105   1.343   6.820   0.445  0.4266  2.7177  0.3107
10736SOL     OW33106   3.128   2.983   5.187 -0.7225 -0.4338  0.1864
10736SOL    HW133107   3.095   2.895   5.153 -1.0022 -0.8672  1.5448
10736SOL    HW233108   3.094   3.057   5.128  0.3443 -1.2716 -1.5749
10737SOL     OW33109   3.207   0.028   0.952  0.0296  0.0461 -0.3414
10737SOL    HW133110   3.289  -0.009   0.996 -0.7573 -2.1157 -0.5586
10737SOL    HW233111   3.223   0.123   0.926  2.5306 -0.3762 -0.5729
10738SOL     OW33112   2.169   3.046   3.730 -0.1371 -0.0460  0.2505
10738SOL    HW133113   2.183   2.949   3.708 -2.3531 -0.5996  0.9496
10738SOL    HW233114   2.178   3.060   3.829 -1.4252  0.0803  0.3787
10739SOL     OW33115   1.582   6.397   2.247 -0.2440  0.0633  0.2083
10739SOL    HW133116   1.563   6.485   2.289 -1.8448 -0.3585  0.4509
10739SOL    HW233117   1.496   6.354   2.220  0.6407 -0.2788 -2.3248
10740SOL     OW33118   1.012   0.802   2.799  0.1315 -0.4883  0.4986
10740SOL    HW133119   1.110   0.789   2.811  0.2887 -0.0606 -0.2349
10740SOL    HW233120   0.996   0.881   2.739 -0.5661 -2.1190 -1.5790
10741SOL     OW33121   3.012   1.508   2.285  0.2740  0.1720  0.7352
10741SOL    HW133122   2.946   1.553   2.345  0.6051  0.5833  0.8019
10741SOL    HW233123   3.025   1.563   2.203  0.7941  0.2831  0.8838
10742SOL     OW33124   4.485   6.313   0.903  0.1904 -0.3023 -0.7807
10742SOL    HW133125   4.515   6.241   0.966 -1.3256  0.7470  1.2299
10742SOL    HW233126   4.546   6.392   0.912  1.9803 -1.2446 -3.1340
10743SOL     OW33127   2.563   6.591   4.741 -0.0952 -0.8366  0.6227
10743SOL    HW133128   2.621   6.582   4.822  0.6619 -2.7075 -0.0627
10743SOL    HW233129   2.471   6.619   4.768  0.4651 -0.2139  1.9767
10744SOL     OW33130   2.404   3.301   6.967  0.4105  0.5736 -0.2809
10744SOL    HW133131   2.320   3.314   6.915 -0.8684 -2.8714  0.6091
10744SOL    HW233132   2.473   3.258   6.908 -0.0117 -0.5977  0.0519
10745SOL     OW33133   6.428   1.659   1.025  0.0777 -0.5718  0.9405
10745SOL    HW133134   6.514   1.629   0.985  1.3263  0.9173  2.3599
10745SOL    HW233135   6.390   1.733   0.970 -0.5235 -1.4571  0.1203
10746SOL     OW33136   1.700   4.243   5.487  0.2549 -0.4527  0.2900
10746SOL    HW133137   1.786   4.213   5.444 -0.9157 -0.5793 -2.1158
10746SOL    HW233138   1.677   4.181   5.562  2.4869 -0.1104  1.3464
10747SOL     OW33139   2.167   6.092   3.771 -0.2133 -0.3847 -0.7228
10747SOL    HW133140   2.222   6.020   3.815  3.3099  1.2316 -2.1104
10747SOL    HW233141   2.116   6.142   3.841  1.9456 -0.5173  1.0663
10748SOL     OW33142   2.003   2.685   6.700  0.3721 -0.2812 -0.2075
10748SOL    HW133143   1.999   2.618   6.626  0.4174 -0.7842  0.2361
10748SOL    HW233144   2.053   2.646   6.777  1.5256  0.7303 -0.4120
10749SOL     OW33145   3.000   3.320   6.899 -0.2028 -0.0728 -0.5370
10749SOL    HW133146   2.971   3.252   6.966  0.9738  0.0802  0.1655
10749SOL    HW233147   2.950   3.405   6.913  0.3100  0.0855  0.4365
10750SOL     OW33148   2.807   4.815   3.279 -0.2212  0.2869 -0.5099
10750SOL    HW133149   2.758   4.734   3.245  0.3727  0.2725 -1.3525
10750SOL    HW233150   2.741   4.888   3.298 -0.7848 -0.4692  0.4855
10751SOL     OW33151   4.422   5.262   2.221 -0.0526  0.5737  0.6245
10751SOL    HW133152   4.469   5.191   2.169 -2.1425  0.6616 -1.5162
10751SOL    HW233153   4.393   5.336   2.160 -0.5937  1.8317  2.3013
10752SOL     OW33154   5.331   1.059   3.455  0.4773 -0.4693 -0.5097
10752SOL    HW133155   5.392   1.066   3.534 -0.2139 -0.7283  0.0624
10752SOL    HW233156   5.335   0.967   3.417  0.2316 -0.5706 -0.2930
10753SOL     OW33157   0.364   0.606   2.459 -0.0859  0.2427 -0.2471
10753SOL    HW133158   0.293   0.596   2.390 -0.5040  2.9136 -0.3328
10753SOL    HW233159   0.441   0.545   2.437 -0.3935  0.6621 -2.8438
10754SOL     OW33160   6.134   0.442   5.078 -0.6070 -0.4363  0.5236
10754SOL    HW133161   6.181   0.354   5.081 -0.9045 -0.5940  0.5224
10754SOL    HW233162   6.122   0.470   4.983 -0.5343 -0.4040  0.5230
10755SOL     OW33163   5.953   6.487   4.625 -0.0043  0.5115 -0.2166
10755SOL    HW133164   5.975   6.405   4.572 -0.6468 -0.9244  1.6228
10755SOL    HW233165   5.861   6.518   4.603 -0.3041 -0.1350  0.0939
10756SOL     OW33166   0.503   6.200   0.968 -0.1994  0.5598  0.6020
10756SOL    HW133167   0.461   6.126   0.915 -0.4554  0.1498  1.3703
10756SOL    HW233168   0.530   6.273   0.906  0.5372 -0.3967 -0.2464
10757SOL     OW33169   6.351   6.100   4.697 -0.0879  0.0586  0.1165
10757SOL    HW133170   6.345   6.007   4.661 -0.4982 -0.8046  2.2815
10757SOL    HW233171   6.329   6.165   4.624  0.6353 -1.4888 -1.5512
10758SOL     OW33172   6.013   1.290   5.838  0.0051  0.6348 -0.3533
10758SOL    HW133173   6.068   1.359   5.884  1.2213 -0.8089  0.4485
10758SOL    HW233174   6.070   1.211   5.815 -1.5409 -0.5681 -0.2597
10759SOL     OW33175   0.979   2.447   4.497 -0.1926  0.3928  0.0559
10759SOL    HW133176   0.927   2.409   4.421  1.7770 -0.8101 -0.7867
10759SOL    HW233177   1.048   2.511   4.461 -0.0246  0.7412  0.9717
10760SOL     OW33178   4.010   2.583   5.388 -0.0955  0.1555  0.2280
10760SOL    HW133179   4.074   2.587   5.311 -1.3585 -0.6237 -0.9203
10760SOL    HW233180   4.060   2.561   5.472  1.3849  1.4526 -0.2613
10761SOL     OW33181   5.639   5.840   0.384  0.3534  0.2150  0.1458
10761SOL    HW133182   5.583   5.920   0.363 -0.3243  0.0617  1.2723
10761SOL    HW233183   5.734   5.868   0.396  0.6294  0.4319 -2.0973
10762SOL     OW33184   1.748   6.751   5.899  0.1421 -0.6799  0.4399
10762SOL    HW133185   1.793   6.666   5.871 -1.0400 -0.3496 -2.8941
10762SOL    HW233186   1.798   6.829   5.863 -0.1565 -0.0634  1.3295
10763SOL     OW33187   1.619   2.473   0.835 -0.1157  0.7698 -0.5893
10763SOL    HW133188   1.578   2.385   0.857 -0.3682  0.8710 -0.6479
10763SOL    HW233189   1.695   2.492   0.897  0.4480  0.1547 -1.0712
10764SOL     OW33190   1.323   6.145   6.013 -0.1385  0.2344 -0.0214
10764SOL    HW133191   1.414   6.143   6.053 -0.9729 -1.1046  1.9358
10764SOL    HW233192   1.304   6.237   5.977  0.9940  1.2514  1.8523
10765SOL     OW33193   6.628   5.042   3.105  0.1111  0.4573 -0.4989
10765SOL    HW133194   6.623   4.942   3.104  0.9594  0.3384  1.7610
10765SOL    HW233195   6.587   5.077   3.189  1.6150  1.8759 -0.2996
10766SOL     OW33196   0.722   4.182   5.287  0.4848 -0.1630 -0.3592
10766SOL    HW133197   0.789   4.256   5.296  0.1341  0.0366  0.8561
10766SOL    HW233198   0.723   4.127   5.371 -0.7440 -0.2527 -0.3945
10767SOL     OW33199   4.188   5.328   6.485 -0.0854 -0.8079  0.1392
10767SOL    HW133200   4.103   5.340   6.435  0.2835  1.0980 -0.1042
10767SOL    HW233201   4.171   5.331   6.583 -0.1560  1.2167  0.1061
10768SOL     OW33202   0.168   1.788   2.418  0.5842  0.1235 -0.5997
10768SOL    HW133203   0.193   1.692   2.409  0.2260 -0.2502  1.7745
10768SOL    HW233204   0.084   1.796   2.471  1.2495  1.7873  0.3011
10769SOL     OW33205   2.999   2.690   0.272 -0.2666  0.1765 -0.3964
10769SOL    HW133206   3.004   2.773   0.216 -0.1912  0.6778  0.3413
10769SOL    HW233207   2.953   2.710   0.358 -0.4252 -0.5998 -0.2868
10770SOL     OW33208   6.203   3.443   1.597  0.3747 -0.4339  0.0263
10770SOL    HW133209   6.153   3.465   1.680  1.5093 -0.4374  0.7268
10770SOL    HW233210   6.293   3.405   1.620  1.3642  1.0220 -1.1829
10771SOL     OW33211   3.676   3.499   6.089 -0.2458  0.5597  0.4903
10771SOL    HW133212   3.610   3.528   6.159 -0.4547  2.0390 -0.2818
10771SOL    HW233213   3.629   3.446   6.019 -0.0311 -0.9557  1.4431
10772SOL     OW33214   0.828   6.946   3.642  0.5405 -0.0859  0.2818
10772SOL    HW133215   0.877   6.960   3.728  0.7169  0.5151  0.0827
10772SOL    HW233216   0.884   6.893   3.579  1.6491  1.9831 -0.5653
10773SOL     OW33217   6.734   0.030   6.936  0.4554  0.0440  0.1532
10773SOL    HW133218   6.761   0.057   7.028 -0.8777  0.9793  0.3107
10773SOL    HW233219   6.678  -0.053   6.940  0.0112  0.3428  0.2507
10774SOL     OW33220   6.197   3.065   4.000  0.3445 -0.2629 -0.5298
10774SOL    HW133221   6.116   3.119   4.024  0.3343 -0.5926  0.2086
10774SOL    HW233222   6.273   3.126   3.978 -0.4356  0.0692 -2.4577
10775SOL     OW33223   3.855   1.061   2.332  0.3722 -0.1648 -0.3665
10775SOL    HW133224   3.808   1.093   2.413 -0.8729 -1.6438 -0.4480
10775SOL    HW233225   3.867   0.961   2.338  2.5727  0.0150 -0.8456
10776SOL     OW33226   4.250   4.727   5.203 -0.7793 -0.1567  1.5348
10776SOL    HW133227   4.168   4.767   5.162  0.0802  0.2930  0.2059
10776SOL    HW233228   4.286   4.655   5.143  1.4718  1.6746  0.5473
10777SOL     OW33229   1.213   4.656   0.550  0.3265  0.0591  0.3545
10777SOL    HW133230   1.180   4.722   0.482 -1.2739  0.1208  1.1272
10777SOL    HW233231   1.299   4.617   0.520  0.0827  0.7109 -1.2978
10778SOL     OW33232   1.863   2.608   0.128  0.2752 -0.0111  0.2272
10778SOL    HW133233   1.801   2.681   0.153 -1.0448 -0.5546 -1.2614
10778SOL    HW233234   1.947   2.615   0.182 -1.6068 -0.1214  3.4049
10779SOL     OW33235   6.761   3.780   6.521  0.0990  0.0829  0.2599
10779SOL    HW133236   6.828   3.757   6.591  0.5594  0.2782 -0.1183
10779SOL    HW233237   6.734   3.876   6.531 -1.4105 -0.4318  1.4895
10780SOL     OW33238   2.349   6.008   4.101 -0.1987 -0.1520  0.4571
10780SOL    HW133239   2.311   5.984   4.011 -0.0507  1.5955 -0.1001
10780SOL    HW233240   2.448   6.020   4.093 -0.1255 -0.4121  0.9617
10781SOL     OW33241   1.266   1.432   2.947 -0.3290  0.1607  0.5051
10781SOL    HW133242   1.285   1.388   3.035  0.0800  0.9419  0.8201
10781SOL    HW233243   1.289   1.529   2.953  2.6091 -0.2813 -1.3087
10782SOL     OW33244   2.239   4.151   6.008  0.4056  0.2629  0.1374
10782SOL    HW133245   2.142   4.176   6.006 -0.0395 -1.3845 -1.0377
10782SOL    HW233246   2.255   4.086   6.082  0.1891 -0.9271 -0.8296
10783SOL     OW33247   1.268   6.722   6.845  0.5818 -0.2005  0.0304
10783SOL    HW133248   1.257   6.691   6.939 -0.9048 -0.0065 -0.0465
10783SOL    HW233249   1.358   6.763   6.833  0.6645  0.0752  1.4590
10784SOL     OW33250   2.992   2.161   1.619 -0.7783  0.1097 -0.4334
10784SOL    HW133251   2.899   2.157   1.656 -0.4690 -0.0957  0.3431
10784SOL    HW233252   2.992   2.126   1.526 -1.3679 -0.5353 -0.2017
10785SOL     OW33253   5.663   0.471   4.172  0.0136 -0.3484 -0.1316
10785SOL    HW133254   5.667   0.523   4.258  0.9626 -0.5483 -0.0432
10785SOL    HW233255   5.600   0.515   4.109  1.9972  1.9150 -0.6970
10786SOL     OW33256   1.675   3.969   2.443 -0.5077 -0.1402  0.0220
10786SOL    HW133257   1.715   3.963   2.535 -1.0545 -5.1532  0.1822
10786SOL    HW233258   1.748   3.964   2.375 -0.3161 -3.5834  0.3232
10787SOL     OW33259   1.222   5.717   5.846  0.0682  0.3292  0.0564
10787SOL    HW133260   1.196   5.639   5.789 -0.3616  0.2117  0.4126
10787SOL    HW233261   1.217   5.692   5.942 -0.7244  0.9867  0.1998
10788SOL     OW33262   1.160   2.320   2.742  0.4424 -0.1771 -0.2800
10788SOL    HW133263   1.240   2.261   2.734  1.9113  1.8118 -1.0065
10788SOL    HW233264   1.184   2.401   2.795 -0.8066  0.9265 -1.3370
10789SOL     OW33265   1.383   4.478   5.698  0.4962 -0.4556  0.4846
10789SOL    HW133266   1.378   4.480   5.798 -0.2726  1.8118  0.4598
10789SOL    HW233267   1.469   4.520   5.668 -0.6244  1.8363  0.2205
10790SOL     OW33268   6.564   6.200   4.468 -0.0519  0.0072  0.0918
10790SOL    HW133269   6.530   6.108   4.451  0.4342 -0.2337  0.4131
10790SOL    HW233270   6.637   6.197   4.536  2.6031  0.1814 -2.5869
10791SOL     OW33271   1.533   4.544   5.242 -0.7013  0.1802  0.2170
10791SOL    HW133272   1.517   4.517   5.147  1.4181  1.3508 -0.5287
10791SOL    HW233273   1.620   4.506   5.273 -0.1792  1.8229  0.8610
10792SOL     OW33274   2.045   4.636   0.029 -0.0876 -0.1842 -0.1970
10792SOL    HW133275   2.023   4.726  -0.009 -1.8532 -1.1467 -1.5848
10792SOL    HW233276   1.964   4.596   0.070  0.2934 -1.7444 -0.8950
10793SOL     OW33277   6.119   3.579   3.279 -0.0653 -0.1941 -0.3851
10793SOL    HW133278   6.112   3.678   3.268  2.0687  0.0830  0.2339
10793SOL    HW233279   6.177   3.542   3.206  1.4899 -0.5395  0.9792
10794SOL     OW33280   5.047   1.223   5.552 -0.4191  0.3020 -0.2005
10794SOL    HW133281   5.117   1.157   5.525 -1.0839  0.8241 -3.7663
10794SOL    HW233282   5.079   1.316   5.533 -1.6034  0.6058 -0.8433
10795SOL     OW33283   0.790   2.360   3.537  0.1813 -0.1261  0.3410
10795SOL    HW133284   0.815   2.427   3.607  2.1366  0.2555 -0.6496
10795SOL    HW233285   0.808   2.267   3.571 -0.5687 -0.0580  0.9578
10796SOL     OW33286   2.344   6.599   6.035  0.4202  0.6602 -0.2635
10796SOL    HW133287   2.245   6.604   6.024  0.1648 -0.8698  0.9902
10796SOL    HW233288   2.385   6.559   5.953 -0.4337 -2.1184  0.5732
10797SOL     OW33289   0.823   6.290   1.726 -0.3330 -0.5713 -0.7169
10797SOL    HW133290   0.804   6.201   1.684 -1.4643 -1.8474  2.1876
10797SOL    HW233291   0.779   6.294   1.815  2.6280  1.5173  0.8351
10798SOL     OW33292   3.786   6.253   4.722 -0.4469  0.0964  0.0664
10798SOL    HW133293   3.775   6.351   4.707  0.0068  0.1118 -0.1817
10798SOL    HW233294   3.724   6.203   4.661  0.0569  0.2063 -0.5476
10799SOL     OW33295   6.144   0.133   4.782  0.2301 -0.3630  0.5489
10799SOL    HW133296   6.160   0.151   4.879  1.3733  2.9374 -0.1130
10799SOL    HW233297   6.223   0.162   4.729 -1.3257  0.3271 -1.5574
10800SOL     OW33298   5.151   4.775   3.305  0.0580 -0.3200  0.2638
10800SOL    HW133299   5.097   4.747   3.226 -1.7245  0.3196  1.1804
10800SOL    HW233300   5.162   4.698   3.367 -1.4233 -0.0445  0.9189
10801SOL     OW33301   1.524   1.477   4.184 -0.1361 -0.0575 -0.3835
10801SOL    HW133302   1.612   1.481   4.136 -1.1714  0.8717 -2.3362
10801SOL    HW233303   1.492   1.382   4.189  0.4200 -0.2649 -0.7360
10802SOL     OW33304   2.605   1.776   2.349 -0.5637 -0.2426  0.2895
10802SOL    HW133305   2.529   1.721   2.316  0.3806 -1.1557 -0.4371
10802SOL    HW233306   2.574   1.834   2.425 -2.3387  0.5813 -0.9973
10803SOL     OW33307   3.960   1.953   4.030  0.3817 -0.2938 -0.2153
10803SOL    HW133308   3.902   1.888   3.980  0.3408  1.4714 -2.6021
10803SOL    HW233309   3.903   2.024   4.070  0.6820  0.0374 -0.3729
10804SOL     OW33310   2.194   1.442   0.544  0.3455 -0.0724 -0.0502
10804SOL    HW133311   2.259   1.517   0.531 -2.8101  2.6179 -2.0197
10804SOL    HW233312   2.165   1.407   0.455 -1.3266 -0.7205  0.7155
10805SOL     OW33313   3.093   2.675   6.632 -0.2042 -0.3205  0.1898
10805SOL    HW133314   3.121   2.757   6.682  1.2569 -0.8293  0.2472
10805SOL    HW233315   3.155   2.600   6.654 -1.4989 -1.4529  0.1142
10806SOL     OW33316   4.706   1.347   4.098  0.3869 -0.3443  0.0189
10806SOL    HW133317   4.762   1.289   4.039  1.2410  0.8086 -0.3391
10806SOL    HW233318   4.625   1.296   4.127 -0.1928 -0.8949 -2.3408
10807SOL     OW33319   4.506   0.679   3.844 -0.7620  0.3418 -0.1496
10807SOL    HW133320   4.487   0.583   3.861  0.1018  0.0270 -0.8853
10807SOL    HW233321   4.579   0.710   3.905  0.3837 -0.0346 -1.2938
10808SOL     OW33322   0.472   1.177   5.473  0.8640 -0.4186  0.4322
10808SOL    HW133323   0.440   1.086   5.495  0.6731 -0.5783 -0.4691
10808SOL    HW233324   0.427   1.210   5.391  3.4773 -0.9644 -1.3595
10809SOL     OW33325   5.162   2.809   6.624  0.1802 -0.0404  0.0291
10809SOL    HW133326   5.210   2.861   6.553  2.2971 -0.1442  1.2774
10809SOL    HW233327   5.181   2.712   6.613 -0.5775 -0.1826 -0.0343
10810SOL     OW33328   4.434   5.797   6.537 -0.0633  0.1604 -0.5653
10810SOL    HW133329   4.494   5.783   6.458 -1.1461  0.6222 -1.5098
10810SOL    HW233330   4.449   5.889   6.574  0.5420 -0.1062 -0.1378
10811SOL     OW33331   0.431   1.718   6.105 -0.0726  0.0940  0.2407
10811SOL    HW133332   0.395   1.626   6.094  1.4514 -0.7796  2.0439
10811SOL    HW233333   0.518   1.715   6.154 -0.7424  2.5899  1.8002
10812SOL     OW33334   1.400   1.323   6.972 -0.0767  0.1867  0.2989
10812SOL    HW133335   1.433   1.276   7.054 -2.6456 -1.7564  0.3285
10812SOL    HW233336   1.472   1.322   6.902  0.8018 -1.6938  1.1550
10813SOL     OW33337   5.177   2.667   5.295  0.0600 -0.3040  0.0572
10813SOL    HW133338   5.155   2.622   5.382 -0.8768  1.0123  0.5308
10813SOL    HW233339   5.097   2.719   5.264  1.0090  0.7793 -0.6182
10814SOL     OW33340   5.528   6.054   1.298 -0.4346 -0.0865 -0.1423
10814SOL    HW133341   5.573   6.140   1.275 -0.8500  0.2435  0.2482
10814SOL    HW233342   5.548   5.986   1.228 -0.2443  0.3778 -0.5460
10815SOL     OW33343   1.693   3.975   6.601  0.0767 -1.0358 -0.0742
10815SOL    HW133344   1.791   3.965   6.618  0.1062  0.2220  0.5864
10815SOL    HW233345   1.675   3.958   6.504  1.0518 -0.6106 -0.3477
10816SOL     OW33346   2.099   6.419   5.268  0.0795  0.1531  0.4190
10816SOL    HW133347   2.199   6.424   5.266  0.0314  1.1141 -0.4034
10816SOL    HW233348   2.067   6.359   5.196  0.1157 -1.9211  2.0337
10817SOL     OW33349   5.999   5.004   6.752  0.5717  0.4351 -0.3701
10817SOL    HW133350   5.995   5.102   6.775  2.4256  0.6924 -0.9757
10817SOL    HW233351   6.073   4.961   6.803 -0.5674 -0.8023  0.2856
10818SOL     OW33352   5.244   5.158   3.051 -0.4102 -0.0631 -0.2621
10818SOL    HW133353   5.292   5.071   3.056  0.9299  0.6318 -0.4074
10818SOL    HW233354   5.161   5.148   2.996  0.0770 -1.0998 -0.8312
10819SOL     OW33355   3.599   5.722   6.901  0.6420 -0.2731  0.4481
10819SOL    HW133356   3.652   5.776   6.837  0.9851  0.4470  1.3277
10819SOL    HW233357   3.550   5.650   6.851 -1.9403  2.3974 -1.1660
10820SOL     OW33358   4.520   5.292   3.555  0.6122  0.3552  0.4278
10820SOL    HW133359   4.599   5.322   3.608  0.5217  0.0561  0.7356
10820SOL    HW233360   4.509   5.351   3.475  1.7207 -0.1775 -0.1440
10821SOL     OW33361   1.073   1.619   0.830  0.1691 -0.0128 -1.1690
10821SOL    HW133362   0.998   1.556   0.855 -0.1810  0.6438 -0.5530
10821SOL    HW233363   1.034   1.701   0.788  0.4871  0.6880 -0.1111
10822SOL     OW33364   2.675   6.124   5.127  0.0622  0.0076 -0.1850
10822SOL    HW133365   2.597   6.087   5.177 -0.0909  0.5699 -0.0040
10822SOL    HW233366   2.757   6.072   5.149  0.1842  0.8149  1.3573
10823SOL     OW33367   1.643   3.880   6.891 -0.1965 -0.5402 -0.1723
10823SOL    HW133368   1.619   3.928   6.806 -0.9515  0.5687  0.6492
10823SOL    HW233369   1.730   3.832   6.878  0.2781  0.5461 -1.2232
10824SOL     OW33370   6.458   3.306   3.214 -0.4438  0.2999  0.3011
10824SOL    HW133371   6.472   3.399   3.248 -0.8929 -0.0594  1.5411
10824SOL    HW233372   6.543   3.272   3.174  0.0203  0.8658  0.7865
10825SOL     OW33373   0.020   1.784   5.162  0.3899  0.0436 -0.0504
10825SOL    HW133374   0.020   1.732   5.076 -0.4019  0.1223 -0.1096
10825SOL    HW233375   0.092   1.749   5.222  1.2163  0.2477 -0.8921
10826SOL     OW33376   6.482   6.651   0.808  0.2558 -0.7376 -0.1897
10826SOL    HW133377   6.496   6.619   0.715  0.1531 -1.9962  0.2108
10826SOL    HW233378   6.403   6.712   0.810 -0.6131 -1.8058 -0.7170
10827SOL     OW33379   2.408   4.942   4.410  0.3044 -0.2233 -0.3449
10827SOL    HW133380   2.356   4.859   4.390  0.0350  0.0218 -0.6714
10827SOL    HW233381   2.362   5.021   4.368  0.7118  0.0499 -0.2797
10828SOL     OW33382   6.463   4.879   4.769  0.0840  0.8702  0.0741
10828SOL    HW133383   6.383   4.821   4.755 -1.4961  3.1538 -0.8012
10828SOL    HW233384   6.481   4.887   4.868  1.3810 -2.3072  0.2247
10829SOL     OW33385   3.590   0.321   3.894 -0.6578 -0.1399  0.0971
10829SOL    HW133386   3.495   0.337   3.865 -0.4083  0.4841 -0.4005
10829SOL    HW233387   3.645   0.402   3.874  0.4363 -1.2379 -1.5849
10830SOL     OW33388   5.564   2.757   1.903  1.0297 -0.2938 -0.3111
10830SOL    HW133389   5.626   2.718   1.835  0.9075 -0.1076 -0.5291
10830SOL    HW233390   5.529   2.844   1.870  0.5780 -0.4414 -0.2236
10831SOL     OW33391   1.446   1.485   0.936  0.1888  0.3245 -0.1674
10831SOL    HW133392   1.364   1.538   0.959 -1.2937 -0.7522 -2.6476
10831SOL    HW233393   1.510   1.544   0.888 -0.9482  0.2441 -1.8684
10832SOL     OW33394   1.853   0.654   6.264 -0.2722 -0.0560 -0.7130
10832SOL    HW133395   1.784   0.602   6.315  0.0954 -0.4714 -0.6306
10832SOL    HW233396   1.859   0.747   6.302 -0.7814 -0.0140 -0.7223
10833SOL     OW33397   4.034   0.671   0.772 -0.4020 -0.2724 -0.4282
10833SOL    HW133398   3.951   0.615   0.764 -0.5829 -0.1118  0.2859
10833SOL    HW233399   4.057   0.682   0.868  1.1952 -1.4066 -0.6496
10834SOL     OW33400   3.332   2.905   4.844  0.2159 -0.0603 -0.0782
10834SOL    HW133401   3.286   2.817   4.834 -0.5285  0.4800 -1.8503
10834SOL    HW233402   3.264   2.978   4.850  0.8247  0.4530  0.9110
10835SOL     OW33403   4.307   6.269   4.048  0.2785 -0.2741  0.2725
10835SOL    HW133404   4.283   6.189   4.102 -0.8339 -2.1420 -2.7057
10835SOL    HW233405   4.397   6.256   4.006 -1.2413 -1.7746 -2.9316
10836SOL     OW33406   2.309   3.394   1.425  0.4750 -0.1993  0.5259
10836SOL    HW133407   2.332   3.302   1.394 -0.8707  0.2022 -1.9252
10836SOL    HW233408   2.308   3.456   1.347 -0.5821  1.4895  1.8132
10837SOL     OW33409   4.935   3.433   4.695  0.2929  0.3146 -0.2118
10837SOL    HW133410   4.937   3.487   4.612  1.0202  0.6009 -0.0176
10837SOL    HW233411   4.898   3.487   4.770 -1.0535 -0.1750 -0.4926
10838SOL     OW33412   1.131   1.716   2.529  0.0737  0.1761 -0.2752
10838SOL    HW133413   1.045   1.763   2.511  0.1392  0.5139  0.2720
10838SOL    HW233414   1.116   1.617   2.528 -0.3274  0.2343 -0.1548
10839SOL     OW33415   5.615   0.116   7.023  0.2036 -0.0408  0.5456
10839SOL    HW133416   5.706   0.146   7.054  0.3487 -0.3538  0.4230
10839SOL    HW233417   5.625   0.059   6.942 -0.1112 -0.0129  0.4876
10840SOL     OW33418   6.810   4.822   5.566  0.8681 -0.4880 -0.0917
10840SOL    HW133419   6.903   4.804   5.534  1.7191  2.5950  0.3149
10840SOL    HW233420   6.752   4.847   5.489  0.2789 -2.5482 -0.3639
10841SOL     OW33421   5.866   5.048   0.973  0.2602  0.2832 -0.3889
10841SOL    HW133422   5.780   5.006   1.001 -0.9334  1.2633 -2.3598
10841SOL    HW233423   5.854   5.147   0.968  1.1627  0.3440 -1.7538
10842SOL     OW33424   0.674   4.782   4.282 -0.0706 -0.0822  0.2861
10842SOL    HW133425   0.718   4.724   4.350  1.8762 -1.0379 -1.6625
10842SOL    HW233426   0.637   4.725   4.209  1.1302  1.0372 -1.2547
10843SOL     OW33427   1.731   3.121   1.312  0.0958  0.1981 -0.0497
10843SOL    HW133428   1.713   3.023   1.322  2.2870 -0.1120  1.5227
10843SOL    HW233429   1.767   3.139   1.221  1.2408 -0.7531  0.1935
10844SOL     OW33430   3.713   0.722   4.070  0.1307 -0.0336  0.3248
10844SOL    HW133431   3.803   0.763   4.081 -0.1687  1.1384 -1.2404
10844SOL    HW233432   3.645   0.775   4.120  0.1436 -0.2662  0.5916
10845SOL     OW33433   1.648   2.518   3.368 -0.1238  0.1068  0.2386
10845SOL    HW133434   1.555   2.484   3.385 -0.1086 -0.3037 -0.4644
10845SOL    HW233435   1.655   2.613   3.399 -0.7438  0.1011  0.4106
10846SOL     OW33436   5.515   2.449   1.456  0.9083 -0.5031  0.2488
10846SOL    HW133437   5.469   2.449   1.544  1.3648 -2.3237  0.5262
10846SOL    HW233438   5.449   2.472   1.384 -1.2147 -5.1632  0.3616
10847SOL     OW33439   2.819   4.972   2.098 -0.0622  0.3216  0.3179
10847SOL    HW133440   2.862   5.055   2.064 -1.5144  1.1583  0.4600
10847SOL    HW233441   2.889   4.912   2.136  0.9348  1.7722  0.8533
10848SOL     OW33442   3.363   6.831   2.594 -0.2888  0.6278  0.0306
10848SOL    HW133443   3.279   6.782   2.572  0.1277  0.1497 -0.5201
10848SOL    HW233444   3.367   6.916   2.541 -1.7203  2.0472  2.0679
10849SOL     OW33445   5.124   3.948   3.610 -0.0849  0.4785  0.0427
10849SOL    HW133446   5.133   3.951   3.710  1.0068  0.5977 -0.0466
10849SOL    HW233447   5.208   3.982   3.568  0.0879 -1.0638 -0.9227
10850SOL     OW33448   0.033   1.271   5.158 -0.0104 -0.4630 -0.0162
10850SOL    HW133449   0.022   1.213   5.077  0.7274 -1.3783  0.5176
10850SOL    HW233450  -0.053   1.272   5.209 -0.2614 -0.4727 -0.4333
10851SOL     OW33451   1.670   5.544   1.982  0.1806 -0.3126  0.3237
10851SOL    HW133452   1.732   5.467   1.999  1.4003  0.4548 -0.5245
10851SOL    HW233453   1.586   5.510   1.940  0.8244 -1.1584 -0.3307
10852SOL     OW33454   6.461   6.400   3.198  0.3154 -0.3307 -0.2687
10852SOL    HW133455   6.384   6.405   3.261  0.3771 -0.2902 -0.1963
10852SOL    HW233456   6.489   6.305   3.185 -0.1180 -0.3965 -0.7441
10853SOL     OW33457   6.041   6.043   5.972 -0.1929 -0.9946 -0.5941
10853SOL    HW133458   6.034   6.142   5.984 -1.0806 -0.8983 -1.7301
10853SOL    HW233459   6.009   5.997   6.054 -0.6074 -0.3449 -0.3890
10854SOL     OW33460   3.873   0.348   0.986  0.2896 -0.2635  0.0887
10854SOL    HW133461   3.950   0.409   1.009 -0.8152  0.6236  1.6243
10854SOL    HW233462   3.853   0.289   1.064 -0.6232 -0.4453 -0.2768
10855SOL     OW33463   4.659   2.006   3.967 -0.6290  0.5323  0.3634
10855SOL    HW133464   4.648   2.097   4.009  0.6189  1.2639 -0.8099
10855SOL    HW233465   4.754   1.994   3.939 -0.7154 -1.2743  0.7339
10856SOL     OW33466   2.714   6.760   0.438  0.6085  0.6770  0.1475
10856SOL    HW133467   2.665   6.844   0.458  0.5470  0.4370  1.0756
10856SOL    HW233468   2.812   6.780   0.430  0.7325  0.6990  1.4373
10857SOL     OW33469   1.035   0.332   4.943  0.0243  0.7056  0.4274
10857SOL    HW133470   1.013   0.277   5.024  1.1255 -0.1662  0.1604
10857SOL    HW233471   1.132   0.321   4.921 -0.9720 -2.4116 -3.4157
10858SOL     OW33472   5.577   4.477   2.184  0.5069 -0.1698 -0.0350
10858SOL    HW133473   5.648   4.543   2.160  0.5103  0.0009  0.4461
10858SOL    HW233474   5.590   4.393   2.130  1.7002 -0.5372  0.7914
10859SOL     OW33475   2.141   5.946   5.804  0.3802  0.0474 -0.1425
10859SOL    HW133476   2.056   5.895   5.813  0.5107 -0.2749 -0.6756
10859SOL    HW233477   2.216   5.894   5.846  0.3496  0.2402  0.1530
10860SOL     OW33478   3.185   1.207   0.680  0.6561  0.1169  0.5808
10860SOL    HW133479   3.105   1.247   0.635  0.8682  0.4768  0.5167
10860SOL    HW233480   3.159   1.174   0.770  0.3408 -0.1534  0.3961
10861SOL     OW33481   6.515   4.018   3.732  0.4529  0.3389 -0.1865
10861SOL    HW133482   6.506   4.091   3.799  0.1521  0.7887 -0.7117
10861SOL    HW233483   6.440   4.024   3.666 -0.1500 -1.0394  0.3276
10862SOL     OW33484   0.044   2.924   1.270 -0.3254 -0.5095  0.3543
10862SOL    HW133485  -0.053   2.916   1.247 -0.2139 -0.6266 -0.0838
10862SOL    HW233486   0.098   2.925   1.186  0.2133 -2.6130  0.6146
10863SOL     OW33487   3.321   0.919   4.207  0.0645 -0.0089  0.6524
10863SOL    HW133488   3.328   0.826   4.171 -1.4142  0.4998 -1.0503
10863SOL    HW233489   3.400   0.973   4.176  1.1497 -0.7488  1.9921
10864SOL     OW33490   0.387   6.887   0.757  0.4829  0.0048  0.0108
10864SOL    HW133491   0.377   6.987   0.751 -2.3689 -0.3058 -3.3806
10864SOL    HW233492   0.324   6.851   0.826  0.5078  0.4142  0.2521
10865SOL     OW33493   3.693   6.150   0.553  0.3833  0.2821 -0.1995
10865SOL    HW133494   3.746   6.124   0.473  0.2466  1.4981 -0.7050
10865SOL    HW233495   3.696   6.249   0.565  1.0294  0.0805  1.7449
10866SOL     OW33496   3.165   2.276   6.206  0.1797 -0.1210 -0.1389
10866SOL    HW133497   3.251   2.266   6.155 -1.1881  0.3215 -2.6614
10866SOL    HW233498   3.115   2.355   6.173 -2.0925 -1.4542 -0.1048
10867SOL     OW33499   5.628   3.705   5.161  0.2288  0.1277 -0.1695
10867SOL    HW133500   5.694   3.732   5.091 -0.7252  0.3799 -0.9972
10867SOL    HW233501   5.661   3.733   5.251  0.3764  1.9660 -0.7537
10868SOL     OW33502   2.578   1.400   6.130  0.2871 -0.4421 -0.2028
10868SOL    HW133503   2.546   1.379   6.038 -1.3588  2.0230 -0.3007
10868SOL    HW233504   2.603   1.315   6.177  1.6018 -1.7484 -2.9980
10869NA      NA33505   4.488   3.305   5.994  0.0136 -0.0257  0.3258
10870NA      NA33506   3.820   1.673   3.611  0.1141  0.2449 -0.2743
10871NA      NA33507   0.077   6.667   3.233 -0.5601 -0.1186 -0.3975
10872NA      NA33508   5.197   2.929   2.832  0.6722  0.1111  0.0045
10873NA      NA33509   4.553   1.650   5.298  0.5553 -0.6478 -0.1145
10874NA      NA33510   0.952   6.993   0.158  0.0251 -0.1289 -0.0843
10875NA      NA33511   2.421   2.691   5.440  0.0149 -0.4155 -0.0130
10876NA      NA33512   2.827   4.800   4.566 -0.0852  0.1109  0.2533
10877NA      NA33513   3.868   2.085   1.621 -0.0954  0.0071  0.1012
10878NA      NA33514   1.774   1.581   3.010 -0.2967  0.3767  0.2998
10879NA      NA33515   4.428   4.452   5.291 -0.1176 -0.1045 -0.1354
10880NA      NA33516   6.308   3.184   3.416 -0.3096 -0.1997  0.1916
10881NA      NA33517   3.300   4.695   1.812  0.0941 -0.4948  0.3105
10882NA      NA33518   3.101   4.939   6.200 -0.1562  0.0783  0.0369
   7.02333   7.02333   7.02333
