CNT in water
33518
    1C        C    1   2.854   2.776   4.744 -0.0932 -0.1073  0.2483
    1C        C    2   2.902   2.725   4.866 -0.1055 -0.0957  0.2576
    1C        C    3   2.845   2.766   4.987 -0.2772 -0.1965  0.2111
    1C        C    4   2.845   2.773   4.260 -0.7494 -0.8386 -0.0441
    1C        C    5   2.902   2.726   4.380 -0.4055 -0.4804 -0.0631
    1C        C    6   2.845   2.771   4.501 -0.6051 -0.7938 -0.0364
    1C        C    7   3.016   2.642   4.623 -0.2216  0.0547 -0.0265
    1C        C    8   2.900   2.723   4.621 -0.2451  0.0246  0.1333
    1C        C    9   3.077   2.609   4.746  0.2126  0.7141 -0.0611
    1C        C   10   3.010   2.634   4.868 -0.1933 -0.2081 -0.0887
    1C        C   11   3.184   2.496   4.974 -0.0598 -0.1570 -0.0724
    1C        C   12   3.063   2.566   4.979  0.0518  0.0369 -0.0536
    1C        C   13   2.844   2.765   3.772 -0.0040 -0.5508  0.1428
    1C        C   14   2.895   2.720   3.895  0.0916 -0.1819  0.2360
    1C        C   15   2.846   2.773   4.016 -0.1022  0.0483  0.0577
    1C        C   16   3.015   2.645   4.138 -0.2783 -0.2916 -0.2673
    1C        C   17   2.900   2.727   4.138 -0.6222 -0.7698 -0.0132
    1C        C   18   3.075   2.604   4.259 -0.2931 -0.0157 -0.1668
    1C        C   19   3.017   2.644   4.382 -0.3686 -0.4286 -0.0652
    1C        C   20   3.210   2.553   4.501 -0.1763  0.3076 -0.0623
    1C        C   21   3.079   2.605   4.503 -0.4789 -0.4377 -0.0123
    1C        C   22   3.279   2.532   4.622  0.1196  0.3230 -0.2297
    1C        C   23   3.209   2.556   4.742  0.0373  0.2956 -0.2735
    1C        C   24   3.411   2.486   4.863 -0.2307 -0.3570 -0.1679
    1C        C   25   3.269   2.502   4.859 -0.1390  0.4746 -0.1007
    1C        C   26   3.488   2.476   4.980  0.0177 -0.1494 -0.3129
    1C        C   27   2.832   2.755   3.282  0.1427 -0.1684  0.0712
    1C        C   28   2.889   2.713   3.404  0.2785  0.3008  0.1675
    1C        C   29   2.835   2.756   3.527 -0.1713 -0.0813  0.1005
    1C        C   30   3.017   2.646   3.651 -0.2054 -0.5385 -0.3405
    1C        C   31   2.896   2.718   3.649  0.0929 -0.0283 -0.0168
    1C        C   32   3.075   2.606   3.773 -0.3458 -0.4685 -0.2535
    1C        C   33   3.016   2.646   3.894  0.1890 -0.0183 -0.1409
    1C        C   34   3.213   2.567   4.015  0.0135 -0.2832  0.1770
    1C        C   35   3.081   2.617   4.016  0.0145 -0.2814 -0.1121
    1C        C   36   3.280   2.543   4.137 -0.2953 -0.3135  0.3388
    1C        C   37   3.208   2.556   4.258 -0.4173 -0.3809  0.2722
    1C        C   38   3.416   2.507   4.378 -0.0622 -0.3613 -0.0403
    1C        C   39   3.277   2.533   4.379 -0.0074 -0.0844  0.0929
    1C        C   40   3.486   2.495   4.500 -0.0922 -0.4970 -0.0382
    1C        C   41   3.418   2.505   4.623  0.0221 -0.1741  0.0003
    1C        C   42   3.631   2.487   4.742  0.1116  0.0418  0.0036
    1C        C   43   3.488   2.484   4.744  0.1056  0.3345  0.0379
    1C        C   44   3.702   2.499   4.864 -0.1694  0.2216  0.1515
    1C        C   45   3.627   2.482   4.981  0.0062  0.0743  0.2441
    1C        C   46   2.832   2.751   2.795  0.2004  0.0375  0.2625
    1C        C   47   2.888   2.712   2.919 -0.3585 -0.3965  0.3849
    1C        C   48   2.832   2.756   3.041 -0.2871 -0.3355  0.3975
    1C        C   49   3.015   2.643   3.164 -0.2987 -1.1380 -0.0367
    1C        C   50   2.892   2.713   3.162 -0.0498 -0.6941  0.1552
    1C        C   51   3.074   2.607   3.287 -0.4089 -1.1332  0.0161
    1C        C   52   3.011   2.641   3.408 -0.0558 -0.2775 -0.0380
    1C        C   53   3.208   2.556   3.527  0.1193 -0.5089  0.0737
    1C        C   54   3.080   2.615   3.528 -0.0433 -0.8629 -0.1740
    1C        C   55   3.276   2.537   3.649 -0.0159 -0.1216  0.2079
    1C        C   56   3.207   2.556   3.771 -0.3579 -0.5093  0.0726
    1C        C   57   3.417   2.518   3.893 -0.2169  0.2904  0.1176
    1C        C   58   3.278   2.542   3.893 -0.4459 -0.9723  0.0709
    1C        C   59   3.490   2.507   4.013  0.0761  0.2000 -0.0728
    1C        C   60   3.418   2.513   4.135 -0.0996  0.6141 -0.2025
    1C        C   61   3.629   2.510   4.257 -0.2550  0.5951 -0.0245
    1C        C   62   3.488   2.512   4.257 -0.2528  0.5583 -0.1184
    1C        C   63   3.699   2.511   4.380 -0.1228  0.0441 -0.0986
    1C        C   64   3.627   2.501   4.501 -0.0995 -0.3432 -0.1169
    1C        C   65   3.837   2.538   4.616 -0.1951  0.4268 -0.1922
    1C        C   66   3.701   2.500   4.621 -0.0991  0.0855 -0.1141
    1C        C   67   3.901   2.569   4.738  0.5078 -0.3704 -0.3427
    1C        C   68   3.837   2.539   4.860  0.0503 -0.5524 -0.6236
    1C        C   69   4.053   2.582   4.968 -0.3028 -0.1445 -0.0085
    1C        C   70   3.922   2.532   4.971 -0.1414 -0.6032 -0.4795
    1C        C   71   2.821   2.732   2.308  0.3079 -0.5647 -0.0484
    1C        C   72   2.883   2.694   2.429 -0.0548 -0.4145  0.1891
    1C        C   73   2.827   2.742   2.549 -0.1594 -0.0417 -0.0036
    1C        C   74   3.003   2.628   2.676 -0.6799 -0.7099 -0.0319
    1C        C   75   2.885   2.705   2.673 -0.0594  0.2840  0.0528
    1C        C   76   3.070   2.601   2.798  0.1618  0.3023 -0.2446
    1C        C   77   3.012   2.644   2.919 -0.3144 -0.3245 -0.2418
    1C        C   78   3.201   2.548   3.040 -0.4054 -0.7111  0.4651
    1C        C   79   3.072   2.606   3.040 -0.2087 -0.2512 -0.2699
    1C        C   80   3.271   2.528   3.161 -0.2754 -0.8099  0.3741
    1C        C   81   3.203   2.552   3.283 -0.2992 -0.8980  0.3762
    1C        C   82   3.413   2.516   3.405  0.0602 -0.4355  0.1444
    1C        C   83   3.273   2.531   3.404 -0.0431 -1.3372  0.1546
    1C        C   84   3.484   2.505   3.527  0.0850 -0.3176  0.1366
    1C        C   85   3.416   2.520   3.649 -0.0289 -0.2002  0.0552
    1C        C   86   3.626   2.507   3.767 -0.1518  0.6488 -0.1775
    1C        C   87   3.485   2.503   3.771 -0.1289  0.2700  0.1746
    1C        C   88   3.698   2.514   3.888 -0.3711  0.8811 -0.0670
    1C        C   89   3.631   2.510   4.012  0.0620  1.1282  0.1767
    1C        C   90   3.838   2.544   4.133  0.1300  0.3690  0.0110
    1C        C   91   3.700   2.513   4.135  0.0865  0.5864  0.1758
    1C        C   92   3.906   2.567   4.254  0.0954  0.3829  0.0248
    1C        C   93   3.837   2.542   4.374 -0.0581 -0.2605 -0.1970
    1C        C   94   4.028   2.636   4.495  0.0456 -0.1148  0.2704
    1C        C   95   3.905   2.566   4.495 -0.2056  0.3156 -0.2233
    1C        C   96   4.087   2.675   4.617  0.6217 -0.3512  0.0704
    1C        C   97   4.029   2.631   4.738  0.3838 -0.1040  0.0482
    1C        C   98   4.187   2.773   4.859  0.1371  0.0272  0.1349
    1C        C   99   4.100   2.659   4.857 -0.2174  0.2881  0.3232
    1C        C  100   4.209   2.847   4.976 -0.2912  0.0854  0.1856
    1C        C  101   2.826   2.734   2.073 -0.0359  0.3091  0.3923
    1C        C  102   2.995   2.596   2.188  0.1945 -0.5353  0.1158
    1C        C  103   2.876   2.675   2.190  0.1814 -0.5438 -0.1195
    1C        C  104   3.061   2.575   2.312  0.0375 -0.0998  0.2817
    1C        C  105   3.004   2.621   2.432  0.0742 -0.2038  0.3436
    1C        C  106   3.197   2.539   2.555  0.1638 -0.5988  0.0272
    1C        C  107   3.066   2.591   2.555  0.4664  0.2031  0.2519
    1C        C  108   3.269   2.525   2.676 -0.0911 -0.4208  0.2037
    1C        C  109   3.198   2.543   2.797  0.1556  0.2689  0.2521
    1C        C  110   3.407   2.502   2.920 -0.3978 -1.0721 -0.4183
    1C        C  111   3.267   2.521   2.918 -0.3193 -0.3189  0.4204
    1C        C  112   3.481   2.501   3.040 -0.4277 -0.4835 -0.3929
    1C        C  113   3.411   2.516   3.161 -0.2178 -0.1982 -0.3067
    1C        C  114   3.624   2.511   3.282 -0.4458  0.4298  0.3228
    1C        C  115   3.483   2.515   3.283 -0.4668 -0.0932 -0.1590
    1C        C  116   3.695   2.520   3.404 -0.1512  0.2744  0.1603
    1C        C  117   3.625   2.508   3.526  0.0700  0.2920  0.2834
    1C        C  118   3.835   2.553   3.643  0.2462  1.0501  0.0582
    1C        C  119   3.698   2.518   3.646  0.2716  0.9788  0.1073
    1C        C  120   3.899   2.578   3.766 -0.2937  1.0725  0.3300
    1C        C  121   3.834   2.555   3.889 -0.4020  0.9596  0.2459
    1C        C  122   4.023   2.649   4.010  0.2799  0.2357  0.2235
    1C        C  123   3.900   2.580   4.012  0.0896  0.5790  0.0583
    1C        C  124   4.085   2.681   4.132  0.3247  0.4069  0.1539
    1C        C  125   4.032   2.632   4.253  0.1724  0.2290  0.0131
    1C        C  126   4.193   2.770   4.372  0.3237 -0.6035 -0.0539
    1C        C  127   4.091   2.673   4.375  0.1955 -0.4616  0.2406
    1C        C  128   4.241   2.821   4.495  0.3695 -0.2930 -0.1992
    1C        C  129   4.189   2.773   4.617  0.4212 -0.1399 -0.1135
    1C        C  130   4.323   2.941   4.739  0.0793 -0.0627 -0.2419
    1C        C  131   4.237   2.828   4.738 -0.3568  0.2592  0.0277
    1C        C  132   4.352   3.008   4.859 -0.9278  0.3873 -0.2420
    1C        C  133   4.286   2.963   4.974  0.2155 -0.2483  0.1716
    1C        C  134   3.179   2.477   2.083  0.4789  0.5413  0.0779
    1C        C  135   3.046   2.518   2.079  0.4305  0.3535 -0.4263
    1C        C  136   3.258   2.474   2.198  0.1771 -0.0624  0.2784
    1C        C  137   3.190   2.515   2.315 -0.0212 -0.2365  0.2250
    1C        C  138   3.403   2.485   2.432  0.2129 -0.8016  0.0399
    1C        C  139   3.263   2.502   2.435  0.2462 -0.5077  0.0400
    1C        C  140   3.477   2.493   2.552  0.1524 -0.6576  0.0705
    1C        C  141   3.408   2.501   2.675 -0.1242 -0.6289 -0.0837
    1C        C  142   3.618   2.507   2.794  0.0190  0.1417 -0.0839
    1C        C  143   3.477   2.499   2.798  0.0512 -0.5069 -0.1792
    1C        C  144   3.691   2.514   2.915 -0.5786  0.3191  0.2679
    1C        C  145   3.623   2.501   3.038 -0.4075  0.3534  0.3653
    1C        C  146   3.832   2.535   3.157 -0.3847  0.4295 -0.5868
    1C        C  147   3.694   2.507   3.159 -0.4000  0.5542  0.3488
    1C        C  148   3.902   2.564   3.277 -0.6211  0.6169 -0.4973
    1C        C  149   3.833   2.550   3.399 -0.2656  0.7301 -0.2876
    1C        C  150   4.026   2.637   3.522 -0.3209  0.6242 -0.1157
    1C        C  151   3.903   2.568   3.520 -0.2339  0.4849 -0.2739
    1C        C  152   4.087   2.674   3.644  0.0103  0.1517 -0.1429
    1C        C  153   4.026   2.641   3.767 -0.2014  0.8768 -0.0558
    1C        C  154   4.198   2.767   3.886  0.0423  0.2026  0.2234
    1C        C  155   4.087   2.680   3.888 -0.1590  0.4603  0.0532
    1C        C  156   4.248   2.816   4.008  0.3907  0.1660  0.0947
    1C        C  157   4.197   2.767   4.131  0.8238 -0.2316  0.1181
    1C        C  158   4.337   2.929   4.250  0.5598 -0.2004  0.0690
    1C        C  159   4.243   2.825   4.251  0.9469 -0.5501  0.2218
    1C        C  160   4.378   2.984   4.374  0.5487  0.0716 -0.0460
    1C        C  161   4.329   2.932   4.496  0.5656 -0.4456 -0.2571
    1C        C  162   4.438   3.117   4.614  0.1950 -0.1736  0.1699
    1C        C  163   4.365   2.997   4.616 -0.2010  0.0519 -0.2885
    1C        C  164   4.469   3.184   4.734 -0.2570  0.1726  0.1022
    1C        C  165   4.433   3.124   4.857 -0.4003  0.0248 -0.0112
    1C        C  166   4.515   3.323   4.972 -0.2183 -0.1719  0.1079
    1C        C  167   4.478   3.188   4.972  0.0201 -0.2376 -0.0248
    1C        C  168   3.474   2.437   2.078  0.1735 -0.5589 -0.1885
    1C        C  169   3.398   2.454   2.194  0.1182 -0.3688 -0.2519
    1C        C  170   3.616   2.468   2.310 -0.0132 -0.2265  0.1525
    1C        C  171   3.474   2.462   2.313 -0.0119 -0.4710 -0.1603
    1C        C  172   3.687   2.499   2.428  0.3388 -0.8198  0.1050
    1C        C  173   3.617   2.510   2.550  0.1442 -0.5909 -0.0233
    1C        C  174   3.826   2.546   2.670 -0.0247  0.7829 -0.3346
    1C        C  175   3.688   2.518   2.671  0.0868  0.2425 -0.0375
    1C        C  176   3.895   2.563   2.792 -0.5621  0.6638 -0.0134
    1C        C  177   3.828   2.549   2.916 -0.6513  0.6173 -0.0684
    1C        C  178   4.024   2.631   3.034  0.0969  0.1990 -0.1158
    1C        C  179   3.896   2.572   3.037 -0.1376  0.6908 -0.3736
    1C        C  180   4.088   2.665   3.155 -0.0313  0.1741 -0.0449
    1C        C  181   4.029   2.625   3.277 -0.6509  0.6682 -0.1848
    1C        C  182   4.203   2.747   3.400  0.0584 -0.2832 -0.0313
    1C        C  183   4.085   2.669   3.399 -0.6199  0.7307 -0.2266
    1C        C  184   4.253   2.799   3.521  0.2210 -0.3756 -0.0620
    1C        C  185   4.205   2.752   3.645  0.1413 -0.0522  0.0277
    1C        C  186   4.354   2.907   3.764  0.2337 -0.3977  0.0669
    1C        C  187   4.260   2.802   3.764  0.1667 -0.3338  0.1316
    1C        C  188   4.392   2.969   3.885  0.2338 -0.2090 -0.0291
    1C        C  189   4.346   2.917   4.008  0.2528  0.2986  0.1936
    1C        C  190   4.448   3.107   4.127  0.4500  0.1934 -0.1290
    1C        C  191   4.386   2.980   4.128  0.4330  0.2034  0.1833
    1C        C  192   4.482   3.169   4.249  0.6476 -0.3289  0.0867
    1C        C  193   4.448   3.106   4.371  0.5165  0.1011  0.2750
    1C        C  194   4.507   3.314   4.490 -0.1904  0.1606  0.0348
    1C        C  195   4.471   3.178   4.491  0.8174 -0.1221  0.3564
    1C        C  196   4.525   3.386   4.610  0.1757  0.1591 -0.0141
    1C        C  197   4.516   3.318   4.733  0.1847  0.0196 -0.0876
    1C        C  198   4.559   3.534   4.849  0.5933 -0.3761  0.1354
    1C        C  199   4.537   3.392   4.853  0.3659 -0.3430  0.1100
    1C        C  200   4.585   3.618   4.962  0.1646 -0.2970  0.1800
    1C        C  201   3.614   2.420   2.078  0.2397 -0.0519  0.2282
    1C        C  202   3.826   2.511   2.186  0.1943 -0.0930  0.1202
    1C        C  203   3.690   2.467   2.189  0.1280  0.1158  0.2348
    1C        C  204   3.897   2.544   2.305  0.1771 -0.0829  0.1291
    1C        C  205   3.825   2.529   2.425  0.2909 -0.5849  0.1402
    1C        C  206   4.020   2.617   2.545  0.2709  0.4242 -0.0539
    1C        C  207   3.892   2.555   2.546  0.5885 -0.2462 -0.0953
    1C        C  208   4.083   2.656   2.665  0.1176  0.1847  0.1087
    1C        C  209   4.021   2.626   2.788 -0.2716  0.0839 -0.1114
    1C        C  210   4.197   2.746   2.909 -0.2519  0.4129  0.1964
    1C        C  211   4.081   2.666   2.909 -0.4993  0.7765 -0.2268
    1C        C  212   4.254   2.793   3.030  0.3915 -0.1369  0.1138
    1C        C  213   4.200   2.751   3.154 -0.2298  0.4291  0.0382
    1C        C  214   4.341   2.905   3.274  0.9058 -0.5878 -0.2225
    1C        C  215   4.254   2.794   3.277 -0.1660  0.2395  0.0738
    1C        C  216   4.379   2.966   3.395  0.0009 -0.2513 -0.1023
    1C        C  217   4.336   2.913   3.519  0.4014 -0.5095 -0.0750
    1C        C  218   4.437   3.100   3.638 -0.0710 -0.2794 -0.1189
    1C        C  219   4.382   2.969   3.640 -0.3504 -0.1603  0.0516
    1C        C  220   4.468   3.164   3.760  0.2156  0.0112 -0.3442
    1C        C  221   4.450   3.097   3.883  0.5081 -0.3382 -0.4908
    1C        C  222   4.488   3.309   4.002  0.2991 -0.2542  0.1215
    1C        C  223   4.472   3.169   4.002 -0.1252 -0.2105 -0.4467
    1C        C  224   4.503   3.379   4.124  0.1799  0.1489 -0.0901
    1C        C  225   4.510   3.307   4.246  0.0640 -0.2137 -0.2933
    1C        C  226   4.518   3.522   4.364  0.5736 -0.3641 -0.3255
    1C        C  227   4.516   3.381   4.366  0.3698 -0.3631 -0.2144
    1C        C  228   4.519   3.594   4.485 -0.5425 -0.3588 -0.3062
    1C        C  229   4.528   3.528   4.609  0.2099  0.1606 -0.0713
    1C        C  230   4.501   3.741   4.723 -0.0830 -0.4223  0.0177
    1C        C  231   4.537   3.604   4.728  0.3963 -0.2938  0.2136
    1C        C  232   4.490   3.815   4.843  0.3257 -0.2605 -0.0418
    1C        C  233   4.536   3.749   4.958  0.2240 -0.2786 -0.0097
    1C        C  234   4.021   2.595   2.064 -0.0647  0.3420  0.1639
    1C        C  235   3.892   2.543   2.067 -0.0976  0.4182  0.0958
    1C        C  236   4.087   2.641   2.179  0.0869  0.3794  0.0653
    1C        C  237   4.024   2.608   2.302  0.4524 -0.6250 -0.0068
    1C        C  238   4.196   2.735   2.421  0.4904 -0.2187  0.3016
    1C        C  239   4.084   2.648   2.423  0.3567 -0.0628 -0.1375
    1C        C  240   4.247   2.788   2.542  0.8029  0.0509  0.0567
    1C        C  241   4.195   2.741   2.665 -0.2879  0.7273 -0.1344
    1C        C  242   4.336   2.901   2.784  0.0375 -0.2068  0.0879
    1C        C  243   4.251   2.788   2.786 -0.0180 -0.1663  0.0961
    1C        C  244   4.378   2.962   2.904  0.9121 -0.6595  0.0179
    1C        C  245   4.339   2.905   3.027  1.2021 -0.7427  0.0725
    1C        C  246   4.440   3.089   3.149  0.2932  0.0590 -0.1000
    1C        C  247   4.377   2.962   3.150  0.9320 -0.2621 -0.0650
    1C        C  248   4.467   3.157   3.270 -0.0247 -0.4665  0.2684
    1C        C  249   4.434   3.096   3.393 -0.0016 -0.2421  0.3851
    1C        C  250   4.493   3.301   3.514  0.7478 -0.0238 -0.0084
    1C        C  251   4.456   3.165   3.515  0.5061  0.0425  0.1353
    1C        C  252   4.507   3.371   3.636  0.0975  0.1752 -0.0454
    1C        C  253   4.495   3.303   3.759  0.0340  0.0492 -0.1211
    1C        C  254   4.517   3.517   3.876  0.2301 -0.3326 -0.1693
    1C        C  255   4.504   3.376   3.879  0.4584 -0.3481  0.0908
    1C        C  256   4.518   3.589   3.997  0.1054 -0.2258 -0.2297
    1C        C  257   4.511   3.519   4.120 -0.3938  0.1908 -0.0168
    1C        C  258   4.481   3.729   4.240 -0.4538  0.0602  0.2605
    1C        C  259   4.511   3.591   4.241  0.1207  0.1765 -0.0016
    1C        C  260   4.463   3.800   4.360 -0.3338 -0.1999  0.4348
    1C        C  261   4.486   3.731   4.482  0.1455 -0.1648  0.3688
    1C        C  262   4.421   3.937   4.603 -0.4117 -0.1030  0.2215
    1C        C  263   4.470   3.805   4.601 -0.3107 -0.0684  0.2549
    1C        C  264   4.393   4.005   4.724  0.0652 -0.1360  0.3518
    1C        C  265   4.432   3.944   4.845 -0.4067 -0.5901  0.2781
    1C        C  266   4.331   4.135   4.958 -0.2583  0.4620  0.2208
    1C        C  267   4.400   4.015   4.962 -1.3034 -0.1708 -0.2091
    1C        C  268   4.264   2.768   2.064  0.2230  0.8018 -0.1440
    1C        C  269   4.197   2.729   2.181  0.1258  0.3428 -0.3470
    1C        C  270   4.347   2.887   2.298 -0.1143 -0.1957 -0.0036
    1C        C  271   4.248   2.784   2.300 -0.5909  0.2509  0.0137
    1C        C  272   4.384   2.950   2.418  0.4666  0.0828 -0.3206
    1C        C  273   4.342   2.893   2.540  0.1989  0.5995 -0.1619
    1C        C  274   4.439   3.083   2.660  0.9491 -0.3314  0.1333
    1C        C  275   4.381   2.954   2.661 -0.0764  0.1145  0.1819
    1C        C  276   4.460   3.152   2.781  0.5940 -0.1932  0.1211
    1C        C  277   4.440   3.089   2.906  0.2559 -0.3360 -0.0026
    1C        C  278   4.499   3.293   3.025  0.1327  0.0317 -0.0988
    1C        C  279   4.465   3.156   3.028 -0.0337  0.0701 -0.1628
    1C        C  280   4.515   3.363   3.146  0.2749 -0.2981  0.0754
    1C        C  281   4.503   3.293   3.268 -0.0161 -0.4726 -0.0528
    1C        C  282   4.502   3.506   3.386  0.0151 -0.1867  0.0517
    1C        C  283   4.509   3.365   3.389 -0.0931 -0.1986 -0.2094
    1C        C  284   4.503   3.578   3.508  0.3378 -0.1841  0.0492
    1C        C  285   4.512   3.512   3.632  0.5306  0.1689  0.2246
    1C        C  286   4.490   3.725   3.751 -0.2169  0.2800  0.0928
    1C        C  287   4.511   3.586   3.753 -0.4355  0.2471  0.1762
    1C        C  288   4.468   3.793   3.873 -0.1109  0.0432  0.2464
    1C        C  289   4.485   3.726   3.996  0.2778 -0.1801  0.0738
    1C        C  290   4.421   3.930   4.116  0.1639 -0.1687 -0.0144
    1C        C  291   4.472   3.798   4.117  0.0685 -0.2057  0.0679
    1C        C  292   4.394   3.997   4.237 -0.0579 -0.0920 -0.1069
    1C        C  293   4.416   3.933   4.361  0.1162 -0.0361 -0.1085
    1C        C  294   4.326   4.127   4.477 -0.4910 -0.5446 -0.5630
    1C        C  295   4.387   4.000   4.481 -0.4735 -0.5171  0.0207
    1C        C  296   4.284   4.185   4.598 -0.2437 -0.4924 -0.5012
    1C        C  297   4.321   4.128   4.722 -0.3583 -0.3921 -0.4196
    1C        C  298   4.194   4.307   4.839 -0.1190 -0.4890 -0.3506
    1C        C  299   4.286   4.197   4.841  0.0885 -0.3149 -0.3312
    1C        C  300   4.164   4.400   4.944 -0.2285 -0.3212 -0.5329
    1C        C  301   4.356   2.872   2.062  1.1742 -0.0213  0.1335
    1C        C  302   4.468   3.066   2.178  0.6368 -0.0493 -0.1836
    1C        C  303   4.393   2.944   2.176  1.0150 -0.2974  0.3643
    1C        C  304   4.482   3.143   2.297 -0.6655  0.1500 -0.1402
    1C        C  305   4.444   3.078   2.417  0.6608  0.0077  0.2269
    1C        C  306   4.503   3.284   2.536  0.6128  0.0485  0.1385
    1C        C  307   4.467   3.147   2.538  0.4528  0.0868  0.2283
    1C        C  308   4.516   3.355   2.657  0.1465  0.0546  0.1901
    1C        C  309   4.506   3.285   2.779  0.6145 -0.1988  0.0873
    1C        C  310   4.519   3.499   2.899 -0.3052  0.1106  0.0082
    1C        C  311   4.515   3.358   2.900  0.2466  0.0892 -0.0559
    1C        C  312   4.512   3.571   3.020  0.1522 -0.1743  0.2072
    1C        C  313   4.517   3.504   3.144  0.1337 -0.2941  0.1453
    1C        C  314   4.470   3.715   3.262  0.3012 -0.0975 -0.1669
    1C        C  315   4.497   3.576   3.264 -0.4708 -0.2549  0.0287
    1C        C  316   4.461   3.785   3.384  0.2198 -0.2456 -0.0847
    1C        C  317   4.484   3.718   3.506  0.3762 -0.1795 -0.0771
    1C        C  318   4.418   3.921   3.625 -0.1303 -0.1727 -0.3414
    1C        C  319   4.464   3.787   3.627 -0.7373 -0.3808 -0.1362
    1C        C  320   4.388   3.984   3.747  0.2066 -0.4209 -0.1283
    1C        C  321   4.415   3.924   3.872 -0.2907 -0.0305  0.1691
    1C        C  322   4.311   4.110   3.990 -0.7346 -0.3217  0.0117
    1C        C  323   4.383   3.989   3.994 -0.0675  0.0734  0.1728
    1C        C  324   4.274   4.169   4.113 -0.5331 -0.3965  0.1095
    1C        C  325   4.327   4.122   4.234 -0.1297 -0.1267  0.0386
    1C        C  326   4.185   4.283   4.356 -0.5726  0.0017  0.1185
    1C        C  327   4.286   4.185   4.354 -0.2781  0.3099 -0.2400
    1C        C  328   4.134   4.338   4.476 -0.8075 -0.6301  0.3104
    1C        C  329   4.194   4.293   4.596  0.3078 -0.0147 -0.0066
    1C        C  330   4.017   4.420   4.717 -0.0052  0.1735 -0.0221
    1C        C  331   4.136   4.343   4.715 -0.1708 -0.0820 -0.2081
    1C        C  332   3.964   4.480   4.833 -0.2128 -0.0163 -0.0200
    1C        C  333   4.051   4.482   4.943 -0.1376 -0.1877 -0.0753
    1C        C  334   4.552   3.268   2.061  0.4385  0.0500  0.0021
    1C        C  335   4.532   3.130   2.067  0.3253  0.0514 -0.3102
    1C        C  336   4.537   3.352   2.173  0.8216  0.1346 -0.0054
    1C        C  337   4.508   3.282   2.292  0.4847 -0.0505 -0.1895
    1C        C  338   4.514   3.495   2.412 -0.5089 -0.2410 -0.0236
    1C        C  339   4.514   3.354   2.414  0.3256 -0.2442 -0.0628
    1C        C  340   4.511   3.566   2.534 -0.2142 -0.2886  0.0136
    1C        C  341   4.514   3.496   2.656  0.5407  0.0632  0.2044
    1C        C  342   4.484   3.708   2.774 -0.2548  0.1282 -0.0855
    1C        C  343   4.512   3.570   2.777  0.6629  0.3093  0.0588
    1C        C  344   4.463   3.777   2.895 -0.1325 -0.2428  0.1499
    1C        C  345   4.475   3.707   3.017 -0.1762 -0.2623  0.1455
    1C        C  346   4.411   3.913   3.135 -0.8184 -0.1395  0.2015
    1C        C  347   4.452   3.778   3.137 -0.2526  0.0226 -0.0331
    1C        C  348   4.385   3.978   3.257 -0.2842 -0.0577  0.2779
    1C        C  349   4.413   3.918   3.381 -0.3315 -0.4367  0.1085
    1C        C  350   4.312   4.104   3.501 -1.3981 -0.5193 -0.0025
    1C        C  351   4.390   3.987   3.503 -0.7112 -0.0747 -0.1605
    1C        C  352   4.277   4.163   3.624 -1.0463 -0.8501  0.2614
    1C        C  353   4.314   4.104   3.747 -0.3929 -0.7851  0.1044
    1C        C  354   4.182   4.275   3.867 -1.0676 -0.8850  0.0191
    1C        C  355   4.271   4.166   3.867 -0.5429 -0.4611 -0.1136
    1C        C  356   4.132   4.324   3.990 -0.8643 -0.7446  0.0466
    1C        C  357   4.181   4.276   4.113 -0.1735 -0.0832  0.0370
    1C        C  358   4.011   4.404   4.230 -0.1272  0.1999 -0.0751
    1C        C  359   4.126   4.323   4.234 -0.3675 -0.1442 -0.0280
    1C        C  360   3.957   4.450   4.352 -0.0709  0.2589 -0.0732
    1C        C  361   4.016   4.417   4.475 -0.2561  0.2021  0.0005
    1C        C  362   3.821   4.506   4.594 -0.0579  0.1850 -0.2492
    1C        C  363   3.953   4.454   4.596  0.2022  0.8412  0.0501
    1C        C  364   3.758   4.542   4.715 -0.0224  0.7165 -0.3868
    1C        C  365   3.832   4.531   4.834 -0.1999  0.0266 -0.3374
    1C        C  366   3.624   4.589   4.949 -0.1932  0.3723  0.3893
    1C        C  367   3.761   4.564   4.950 -0.1754  0.3946 -0.4267
    1C        C  368   4.510   3.565   2.050 -0.3479 -0.3005 -0.1849
    1C        C  369   4.526   3.493   2.169  0.5726  0.1164 -0.0472
    1C        C  370   4.486   3.704   2.287 -0.4396 -0.1995  0.0192
    1C        C  371   4.512   3.566   2.289  0.0285 -0.1165  0.0346
    1C        C  372   4.470   3.774   2.408  0.1451  0.1793 -0.1159
    1C        C  373   4.493   3.706   2.529 -0.3648 -0.3151 -0.2946
    1C        C  374   4.416   3.905   2.647 -0.1926 -0.1765  0.1739
    1C        C  375   4.468   3.774   2.650 -0.6673 -0.3818 -0.3138
    1C        C  376   4.379   3.968   2.769 -0.4878 -0.5559  0.2825
    1C        C  377   4.415   3.910   2.892  0.0244 -0.1790  0.3165
    1C        C  378   4.311   4.098   3.014 -0.5917 -0.1964  0.1383
    1C        C  379   4.384   3.978   3.012 -0.2696 -0.0046  0.1467
    1C        C  380   4.273   4.158   3.136 -0.2536 -0.1613  0.2304
    1C        C  381   4.311   4.098   3.258 -0.8178 -0.3816  0.3024
    1C        C  382   4.173   4.263   3.377 -0.2940  0.6107 -0.0340
    1C        C  383   4.266   4.157   3.379 -0.8336  0.1271  0.0549
    1C        C  384   4.129   4.314   3.501 -0.1959 -0.2110  0.3527
    1C        C  385   4.183   4.268   3.623 -0.2601 -0.1222  0.4188
    1C        C  386   4.013   4.396   3.744 -0.1672  0.7989  0.0099
    1C        C  387   4.132   4.322   3.743 -0.5994  0.0917  0.1881
    1C        C  388   3.954   4.440   3.865 -0.3489  0.3384  0.0912
    1C        C  389   4.014   4.402   3.987 -0.6160 -0.3643  0.0071
    1C        C  390   3.818   4.490   4.106 -0.2398 -0.0004 -0.1711
    1C        C  391   3.951   4.441   4.107  0.0347  0.7341  0.0044
    1C        C  392   3.752   4.508   4.229 -0.0151  0.1489 -0.0714
    1C        C  393   3.823   4.495   4.350 -0.1396  0.0557 -0.0078
    1C        C  394   3.615   4.545   4.471 -0.3498 -0.2045  0.6095
    1C        C  395   3.754   4.519   4.471 -0.2035  0.5359 -0.1352
    1C        C  396   3.544   4.562   4.592 -0.0875  0.1471  0.7184
    1C        C  397   3.618   4.561   4.713 -0.1555 -0.0430  0.7609
    1C        C  398   3.406   4.556   4.834 -0.5313  0.4903  0.0430
    1C        C  399   3.546   4.577   4.833 -0.4375 -0.1110  0.6030
    1C        C  400   3.337   4.521   4.950 -0.2228  0.6920  0.2869
    1C        C  401   4.490   3.702   2.047  0.6213 -0.1433  0.1421
    1C        C  402   4.439   3.912   2.166 -0.4792 -0.2058 -0.1753
    1C        C  403   4.478   3.777   2.166 -0.1151 -0.1036  0.0543
    1C        C  404   4.407   3.979   2.286 -0.0070  0.0193 -0.1719
    1C        C  405   4.427   3.909   2.407 -0.3313  0.0324 -0.1073
    1C        C  406   4.313   4.092   2.526 -0.3605 -0.3399 -0.0743
    1C        C  407   4.392   3.975   2.527 -0.4348 -0.3907  0.0969
    1C        C  408   4.277   4.154   2.648 -0.2972 -0.5676  0.0627
    1C        C  409   4.308   4.090   2.769 -0.5116 -0.5666  0.1210
    1C        C  410   4.172   4.254   2.889 -0.3750 -0.1591 -0.1534
    1C        C  411   4.273   4.154   2.890 -0.7219 -0.5120  0.0322
    1C        C  412   4.122   4.304   3.010 -0.0760 -0.1204 -0.0424
    1C        C  413   4.176   4.261   3.133  0.0370  0.1144 -0.0068
    1C        C  414   4.006   4.390   3.254  0.0245  0.5430 -0.2631
    1C        C  415   4.122   4.311   3.254  0.0653  0.5988 -0.1916
    1C        C  416   3.947   4.423   3.379  0.3454  1.2015 -0.2781
    1C        C  417   4.012   4.394   3.500  0.1740  0.3496 -0.3807
    1C        C  418   3.819   4.483   3.620  0.0499 -0.1283 -0.2106
    1C        C  419   3.948   4.426   3.622  0.5552  0.9698 -0.3373
    1C        C  420   3.750   4.504   3.742 -0.1967 -0.0533 -0.3616
    1C        C  421   3.819   4.482   3.863 -0.4187  0.0991 -0.2053
    1C        C  422   3.612   4.535   3.984 -0.2454  0.1405  0.1305
    1C        C  423   3.750   4.505   3.983 -0.1031  0.7899 -0.1538
    1C        C  424   3.543   4.540   4.107  0.0272 -0.0855  0.2930
    1C        C  425   3.613   4.536   4.229 -0.0167  0.1476  0.3256
    1C        C  426   3.402   4.547   4.353 -0.0594  0.4411 -0.1928
    1C        C  427   3.543   4.552   4.350 -0.0098 -0.3649  0.3967
    1C        C  428   3.330   4.543   4.475  0.0175  0.0318 -0.1605
    1C        C  429   3.403   4.563   4.594 -0.1088 -0.3421 -0.0171
    1C        C  430   3.190   4.527   4.720 -0.1972 -0.7231 -0.3991
    1C        C  431   3.330   4.551   4.715 -0.2545 -0.3262 -0.1033
    1C        C  432   3.122   4.494   4.840  0.3316 -0.4900 -0.0332
    1C        C  433   3.203   4.485   4.954 -0.0245 -0.0653  0.2518
    1C        C  434   4.373   4.119   2.049  0.1047  0.0280  0.1328
    1C        C  435   4.442   3.998   2.055  0.2418  0.1030  0.0750
    1C        C  436   4.296   4.161   2.162 -0.0156 -0.0780  0.0898
    1C        C  437   4.321   4.092   2.284  0.3014  0.2665  0.2206
    1C        C  438   4.172   4.249   2.401 -0.2894  0.0360 -0.3003
    1C        C  439   4.268   4.145   2.403 -0.5662 -0.2149  0.0538
    1C        C  440   4.127   4.304   2.523 -0.1099 -0.3060 -0.0769
    1C        C  441   4.179   4.256   2.645  0.2440 -0.0456 -0.1228
    1C        C  442   4.002   4.377   2.766 -0.1193 -0.1832 -0.3725
    1C        C  443   4.119   4.298   2.766  0.0924  0.1251 -0.2574
    1C        C  444   3.941   4.418   2.886 -0.5515 -0.6064 -0.4453
    1C        C  445   4.003   4.380   3.008 -0.1703 -0.2771 -0.5328
    1C        C  446   3.815   4.476   3.132 -0.0539 -0.4606  0.0982
    1C        C  447   3.943   4.417   3.131  0.1401 -0.0401 -0.4504
    1C        C  448   3.750   4.500   3.255  0.0382  0.1078  0.0400
    1C        C  449   3.814   4.471   3.377  0.0333  0.3791  0.1074
    1C        C  450   3.611   4.528   3.500 -0.0445  1.1238  0.0744
    1C        C  451   3.748   4.497   3.499 -0.2355  0.2386 -0.0055
    1C        C  452   3.540   4.536   3.622 -0.1788  0.7965  0.0191
    1C        C  453   3.613   4.538   3.743 -0.1512  0.1255  0.0178
    1C        C  454   3.398   4.547   3.863 -0.1041 -0.1205 -0.0032
    1C        C  455   3.539   4.546   3.863 -0.1031  0.1418  0.0457
    1C        C  456   3.328   4.537   3.986 -0.0840  0.0659  0.0227
    1C        C  457   3.402   4.540   4.106  0.0295  0.2729 -0.0541
    1C        C  458   3.196   4.507   4.232  0.0097 -0.6263 -0.4258
    1C        C  459   3.334   4.538   4.230 -0.0975 -0.1234 -0.1326
    1C        C  460   3.128   4.486   4.354  0.2507 -0.4053 -0.2568
    1C        C  461   3.193   4.510   4.478 -0.1185  0.5852 -0.2441
    1C        C  462   2.998   4.429   4.600 -0.3781 -0.0298 -0.0104
    1C        C  463   3.123   4.493   4.600 -0.4590  0.1266 -0.4970
    1C        C  464   2.938   4.388   4.721 -0.0435 -0.1127  0.1259
    1C        C  465   2.989   4.440   4.843  0.1740 -0.0925  0.0225
    1C        C  466   2.793   4.347   4.953  0.1913  0.1934 -0.1794
    1C        C  467   2.902   4.434   4.956  0.4223 -0.1061  0.2103
    1C        C  468   4.119   4.287   2.039  0.2290  0.2731 -0.5827
    1C        C  469   4.185   4.251   2.157 -0.0849 -0.1917 -0.5436
    1C        C  470   4.010   4.379   2.276 -0.3067 -0.6599 -0.2149
    1C        C  471   4.129   4.302   2.278 -0.0047 -0.2009 -0.5023
    1C        C  472   3.946   4.410   2.398 -0.0788 -0.3180 -0.1801
    1C        C  473   4.008   4.380   2.521 -0.0835 -0.2654 -0.1645
    1C        C  474   3.814   4.468   2.644  0.1303  0.2804 -0.0904
    1C        C  475   3.946   4.417   2.643  0.3135  0.7603 -0.2723
    1C        C  476   3.748   4.496   2.765 -0.0122  0.2148 -0.1527
    1C        C  477   3.813   4.476   2.889 -0.3230 -0.1153 -0.0399
    1C        C  478   3.609   4.533   3.008  0.1193  0.1586  0.1180
    1C        C  479   3.747   4.501   3.011  0.1451  0.2777  0.1358
    1C        C  480   3.542   4.536   3.132  0.0639  0.4006  0.0815
    1C        C  481   3.610   4.518   3.254  0.0294  0.0357  0.0465
    1C        C  482   3.400   4.519   3.375  0.0383  0.1237 -0.5224
    1C        C  483   3.541   4.528   3.377  0.0263  0.2099  0.0298
    1C        C  484   3.330   4.521   3.498  0.0729  0.2207 -0.5064
    1C        C  485   3.399   4.530   3.620 -0.1746  0.8021 -0.4033
    1C        C  486   3.191   4.498   3.742  0.2168  0.2372 -0.2638
    1C        C  487   3.328   4.534   3.742  0.1287  0.5704 -0.2160
    1C        C  488   3.126   4.474   3.865  0.4906 -0.5670 -0.2755
    1C        C  489   3.194   4.492   3.987 -0.0025 -0.1761 -0.0582
    1C        C  490   3.008   4.404   4.113 -0.3591 -0.3795 -0.0094
    1C        C  491   3.130   4.474   4.112 -0.4016 -0.3156 -0.2842
    1C        C  492   2.952   4.365   4.237  0.4096 -0.7049  0.2382
    1C        C  493   3.005   4.418   4.357  0.3403 -0.5515  0.1963
    1C        C  494   2.832   4.296   4.479 -0.0828 -0.4559  0.0022
    1C        C  495   2.940   4.387   4.478 -0.0416 -0.5110 -0.0003
    1C        C  496   2.776   4.251   4.601 -0.3180  0.0524  0.0797
    1C        C  497   2.824   4.303   4.723  0.2083 -0.4433  0.0834
    1C        C  498   2.653   4.173   4.839 -0.0129 -0.0007  0.1224
    1C        C  499   2.750   4.275   4.841 -0.1589  0.1386 -0.0121
    1C        C  500   2.584   4.124   4.950 -0.6894  0.1562 -0.2247
    1C        C  501   4.001   4.361   2.036 -0.0460 -0.1494 -0.3218
    1C        C  502   3.812   4.460   2.156  0.0591 -0.0093 -0.0599
    1C        C  503   3.941   4.403   2.156 -0.0797 -0.3194 -0.2786
    1C        C  504   3.745   4.483   2.279 -0.2570 -0.3015 -0.1769
    1C        C  505   3.812   4.455   2.400 -0.0367 -0.1871 -0.2706
    1C        C  506   3.606   4.508   2.521  0.1922 -0.1793  0.1714
    1C        C  507   3.744   4.480   2.521  0.2725  0.2072 -0.1783
    1C        C  508   3.535   4.522   2.643 -0.3183 -0.0704 -0.1387
    1C        C  509   3.608   4.517   2.763 -0.0928 -0.3216 -0.2868
    1C        C  510   3.399   4.529   2.887  0.3656  0.3033 -0.2927
    1C        C  511   3.540   4.533   2.885  0.3837 -0.2284 -0.0314
    1C        C  512   3.330   4.512   3.009  0.3506 -0.2315 -0.3772
    1C        C  513   3.401   4.528   3.130  0.1094 -0.3759 -0.2204
    1C        C  514   3.193   4.484   3.254 -0.1222 -0.2491  0.2249
    1C        C  515   3.330   4.519   3.252 -0.2168  0.0998 -0.3761
    1C        C  516   3.123   4.471   3.375  0.1084 -0.3763  0.3429
    1C        C  517   3.192   4.491   3.497  0.2005 -0.4149  0.2953
    1C        C  518   3.001   4.405   3.624 -0.1937 -0.4018 -0.3454
    1C        C  519   3.126   4.470   3.620 -0.1940 -0.3750  0.0912
    1C        C  520   2.942   4.367   3.746  0.0015 -0.0254 -0.1345
    1C        C  521   3.005   4.401   3.868  0.1915 -0.0640 -0.2252
    1C        C  522   2.838   4.278   3.993 -0.5853  0.6030 -0.0684
    1C        C  523   2.947   4.367   3.992  0.2240 -0.3790 -0.2995
    1C        C  524   2.787   4.231   4.116  0.1063  0.0681  0.0146
    1C        C  525   2.839   4.280   4.238 -0.1405  0.0280  0.1307
    1C        C  526   2.696   4.128   4.363  0.2713 -0.7582  0.0645
    1C        C  527   2.781   4.241   4.360  0.0423 -0.5932  0.0166
    1C        C  528   2.655   4.073   4.487 -0.1310 -0.2787  0.1425
    1C        C  529   2.686   4.142   4.606 -0.0607 -0.1580  0.0486
    1C        C  530   2.581   3.959   4.729  0.2283 -0.1002  0.2652
    1C        C  531   2.632   4.091   4.726  0.0098 -0.0206  0.1352
    1C        C  532   2.537   3.902   4.852  0.3071 -0.2130  0.2397
    1C        C  533   2.524   3.998   4.957 -0.1010 -0.1096  0.0962
    1C        C  534   3.619   4.554   2.040 -0.1332  0.1367  0.0032
    1C        C  535   3.753   4.514   2.041 -0.1575  0.0599  0.0836
    1C        C  536   3.537   4.529   2.155 -0.0619  0.1947  0.0654
    1C        C  537   3.605   4.505   2.277 -0.2563 -0.2855  0.0818
    1C        C  538   3.394   4.510   2.403  0.1487  0.0728  0.0263
    1C        C  539   3.535   4.518   2.399  0.1383  0.3495  0.2458
    1C        C  540   3.321   4.506   2.524 -0.3836 -0.0640 -0.3036
    1C        C  541   3.394   4.523   2.643 -0.3179 -0.0300 -0.3515
    1C        C  542   3.189   4.482   2.767  0.1475  0.0403 -0.0656
    1C        C  543   3.326   4.517   2.767  0.0799  0.2929 -0.1162
    1C        C  544   3.123   4.459   2.890 -0.0486  0.1375 -0.1559
    1C        C  545   3.193   4.479   3.011  0.3378 -0.1632 -0.3286
    1C        C  546   2.996   4.402   3.135  0.3031  0.2300 -0.0972
    1C        C  547   3.123   4.462   3.133  0.6805 -0.5622 -0.1886
    1C        C  548   2.936   4.368   3.259 -0.1256  0.1010 -0.3391
    1C        C  549   2.998   4.405   3.380 -0.0304 -0.1644 -0.3105
    1C        C  550   2.830   4.277   3.504 -0.3034 -0.0529  0.1062
    1C        C  551   2.944   4.361   3.503  0.0329 -0.5146 -0.4098
    1C        C  552   2.778   4.231   3.627 -0.0125  0.0339  0.2600
    1C        C  553   2.832   4.277   3.748  0.3733 -0.4721  0.2841
    1C        C  554   2.694   4.120   3.873 -0.4117 -0.0888  0.3116
    1C        C  555   2.785   4.227   3.872 -0.3737 -0.1260  0.1401
    1C        C  556   2.655   4.063   3.997  0.2712 -0.3240  0.4176
    1C        C  557   2.702   4.119   4.118  0.3710 -0.1262  0.2857
    1C        C  558   2.590   3.944   4.245 -0.3865 -0.2528 -0.0150
    1C        C  559   2.660   4.066   4.242 -0.0573 -0.4475  0.0043
    1C        C  560   2.566   3.876   4.366 -0.4875 -0.0110  0.0973
    1C        C  561   2.591   3.947   4.486 -0.6640 -0.0081  0.1295
    1C        C  562   2.523   3.751   4.615  0.2925 -0.1045  0.4283
    1C        C  563   2.557   3.888   4.609 -0.1219 -0.0076  0.2790
    1C        C  564   2.514   3.681   4.737 -0.2288 -0.1740  0.3538
    1C        C  565   2.520   3.760   4.856 -0.0075 -0.1724  0.3446
    1C        C  566   2.518   3.546   4.976  0.4924  0.3603 -0.1465
    1C        C  567   2.518   3.685   4.974 -0.3980  0.3825  0.6942
    1C        C  568   3.324   4.485   2.039 -0.0179 -0.3446 -0.3832
    1C        C  569   3.397   4.507   2.156  0.0508 -0.5940 -0.3774
    1C        C  570   3.189   4.466   2.281  0.3721  0.2732  0.1561
    1C        C  571   3.327   4.498   2.280  0.4222  0.0330 -0.1162
    1C        C  572   3.118   4.447   2.402  0.1635 -0.5147 -0.0890
    1C        C  573   3.183   4.475   2.524 -0.3309 -0.2919  0.1203
    1C        C  574   2.987   4.405   2.648 -0.0106 -0.8783  0.0604
    1C        C  575   3.115   4.463   2.648 -0.1108 -0.6572  0.2020
    1C        C  576   2.931   4.364   2.771 -0.3470 -0.0673  0.1793
    1C        C  577   2.997   4.396   2.891  0.2234 -0.4030 -0.0460
    1C        C  578   2.835   4.260   3.016  0.5832 -0.5204  0.2318
    1C        C  579   2.942   4.353   3.014  0.6955 -0.6562  0.0784
    1C        C  580   2.784   4.215   3.140  0.0751 -0.0704  0.1853
    1C        C  581   2.834   4.271   3.260 -0.0110 -0.0139  0.1932
    1C        C  582   2.703   4.106   3.386  0.1032 -0.3055 -0.0234
    1C        C  583   2.786   4.220   3.382 -0.2456 -0.0477  0.0851
    1C        C  584   2.657   4.053   3.508  0.2530 -0.1060  0.1198
    1C        C  585   2.695   4.117   3.628  0.1853 -0.1103  0.1433
    1C        C  586   2.585   3.939   3.756 -0.2125 -0.0501 -0.2423
    1C        C  587   2.648   4.065   3.751  0.3506 -0.3139  0.1220
    1C        C  588   2.560   3.876   3.879 -1.0538  0.5234 -0.1138
    1C        C  589   2.587   3.940   4.002 -0.5116  0.0855 -0.0044
    1C        C  590   2.531   3.737   4.126  0.2474 -0.2873  0.1296
    1C        C  591   2.561   3.875   4.125 -0.2130 -0.1885 -0.0887
    1C        C  592   2.520   3.669   4.249 -0.3416 -0.1586  0.1500
    1C        C  593   2.530   3.740   4.371  0.2065 -0.1966  0.1273
    1C        C  594   2.512   3.535   4.496  0.1126  0.1500 -0.2264
    1C        C  595   2.515   3.676   4.496 -0.0157  0.1555  0.2824
    1C        C  596   2.520   3.465   4.618  0.1658 -0.3862 -0.5265
    1C        C  597   2.510   3.539   4.739  0.3040 -0.2091 -0.6201
    1C        C  598   2.531   3.327   4.862  0.6527  0.4966  0.1650
    1C        C  599   2.517   3.467   4.860  0.3558  0.4645 -0.2184
    1C        C  600   2.518   3.244   4.974  0.7166  0.0545 -0.1522
    1C        C  601   3.194   4.438   2.044 -0.0927 -0.0387  0.5891
    1C        C  602   2.985   4.383   2.162 -0.1327 -0.2120 -0.2781
    1C        C  603   3.119   4.435   2.162 -0.0974 -0.2919  0.5788
    1C        C  604   2.926   4.354   2.288  0.3971 -0.7882 -0.1562
    1C        C  605   2.989   4.391   2.409  0.1749 -0.5405 -0.1145
    1C        C  606   2.817   4.269   2.532 -0.3789  0.1517  0.0843
    1C        C  607   2.922   4.364   2.530 -0.0144 -0.2535 -0.1551
    1C        C  608   2.770   4.217   2.655 -0.1417 -0.1274  0.0571
    1C        C  609   2.824   4.271   2.773 -0.0158 -0.4472  0.1457
    1C        C  610   2.692   4.104   2.896 -0.4570  0.2419 -0.1411
    1C        C  611   2.780   4.214   2.895  0.2669 -0.3278  0.3027
    1C        C  612   2.655   4.046   3.019 -0.3575 -0.0722 -0.2617
    1C        C  613   2.698   4.103   3.141  0.5814 -0.4670 -0.3976
    1C        C  614   2.601   3.919   3.268 -0.6421  0.5139 -0.1984
    1C        C  615   2.665   4.044   3.265 -0.3220  0.3491 -0.2357
    1C        C  616   2.557   3.865   3.391 -0.3363  0.1384 -0.2495
    1C        C  617   2.586   3.931   3.513 -0.8587  0.5077 -0.3218
    1C        C  618   2.521   3.734   3.638 -0.3961  0.1822  0.0688
    1C        C  619   2.553   3.872   3.636 -0.2886  0.1530 -0.3371
    1C        C  620   2.519   3.666   3.762 -0.4358  0.2921  0.1283
    1C        C  621   2.527   3.738   3.883 -0.4885  0.3915  0.0714
    1C        C  622   2.508   3.527   4.007  0.1699  0.1329  0.0374
    1C        C  623   2.515   3.668   4.004 -0.3158  0.1550 -0.0496
    1C        C  624   2.517   3.457   4.129  0.4503 -0.1285 -0.1319
    1C        C  625   2.516   3.527   4.251  0.0364 -0.1718 -0.1073
    1C        C  626   2.546   3.323   4.375 -0.1107 -0.0727 -0.1713
    1C        C  627   2.519   3.461   4.375 -0.5301 -0.1535 -0.0833
    1C        C  628   2.565   3.256   4.498 -0.0485 -0.3187 -0.3098
    1C        C  629   2.547   3.327   4.619 -0.7556 -0.5742 -0.2597
    1C        C  630   2.614   3.127   4.746  0.0423  0.2181 -0.0169
    1C        C  631   2.560   3.259   4.742  0.4283  0.3870  0.1699
    1C        C  632   2.622   3.051   4.866  0.0570  0.0272 -0.1373
    1C        C  633   2.552   3.108   4.977  0.6566  0.0454  0.2414
    1C        C  634   2.781   4.303   2.058 -0.4631  0.1382 -0.0196
    1C        C  635   2.898   4.380   2.049 -0.3219 -0.0868 -0.1365
    1C        C  636   2.753   4.223   2.170 -0.3213  0.0228 -0.0651
    1C        C  637   2.814   4.267   2.289 -0.4943  0.3342 -0.0900
    1C        C  638   2.682   4.103   2.410 -0.3581  0.3007  0.0845
    1C        C  639   2.764   4.218   2.412 -0.1452  0.1496 -0.0193
    1C        C  640   2.645   4.044   2.533 -0.0049  0.0564  0.0738
    1C        C  641   2.686   4.104   2.654 -0.0088 -0.2278  0.2165
    1C        C  642   2.583   3.919   2.777  0.0295 -0.4740 -0.1838
    1C        C  643   2.648   4.044   2.776 -0.4795 -0.2021  0.0875
    1C        C  644   2.554   3.858   2.901 -0.4683 -0.0849 -0.1029
    1C        C  645   2.595   3.918   3.022 -0.3555 -0.0713 -0.1469
    1C        C  646   2.523   3.722   3.149 -1.1566  0.3971  0.0858
    1C        C  647   2.574   3.854   3.146 -1.2135  0.4187 -0.0272
    1C        C  648   2.509   3.657   3.273 -0.9210  0.3081  0.0679
    1C        C  649   2.521   3.729   3.394 -0.9674  0.3073  0.0756
    1C        C  650   2.517   3.521   3.519 -0.1302  0.1011  0.0944
    1C        C  651   2.509   3.662   3.518 -0.0161  0.1088  0.0707
    1C        C  652   2.530   3.452   3.641  0.5498 -0.0615 -0.0661
    1C        C  653   2.519   3.525   3.762  0.4696  0.2834 -0.2821
    1C        C  654   2.537   3.317   3.886  0.7037  0.5555 -0.1074
    1C        C  655   2.516   3.456   3.885  0.3265  0.4984 -0.1653
    1C        C  656   2.557   3.249   4.009 -0.0699  0.0052 -0.2805
    1C        C  657   2.542   3.318   4.131  0.1319 -0.1874 -0.1476
    1C        C  658   2.603   3.116   4.256  0.8534  0.0762 -0.0662
    1C        C  659   2.561   3.251   4.254  0.3967 -0.0611 -0.1196
    1C        C  660   2.636   3.058   4.380 -0.0088 -0.1814  0.0511
    1C        C  661   2.615   3.124   4.502  0.6011 -0.0705  0.1023
    1C        C  662   2.720   2.942   4.625 -0.1518 -0.2761  0.1730
    1C        C  663   2.645   3.062   4.625 -0.1575 -0.2770  0.1924
    1C        C  664   2.761   2.883   4.747 -0.1686 -0.1720  0.2300
    1C        C  665   2.712   2.939   4.868  0.1346  0.0929  0.2336
    1C        C  666   2.757   2.874   4.984  0.1271  0.1379  0.2623
    1C        C  667   2.689   4.018   2.054 -0.0615  0.0476 -0.2592
    1C        C  668   2.687   4.098   2.169  0.4613 -0.3929  0.0613
    1C        C  669   2.584   3.911   2.290  0.1335 -0.0708 -0.3025
    1C        C  670   2.645   4.039   2.290  0.2771 -0.1380  0.1215
    1C        C  671   2.557   3.847   2.413 -0.4217  0.0553 -0.3577
    1C        C  672   2.582   3.918   2.533 -0.0767  0.0906 -0.4508
    1C        C  673   2.523   3.716   2.660 -0.7940  0.4190 -0.2404
    1C        C  674   2.552   3.855   2.656 -0.8201  0.4186 -0.4556
    1C        C  675   2.515   3.648   2.783 -0.4631  0.3935 -0.2305
    1C        C  676   2.519   3.721   2.904 -0.1382 -0.1672  0.1039
    1C        C  677   2.509   3.511   3.029 -0.5880  0.0890 -0.2626
    1C        C  678   2.514   3.652   3.027 -1.0919  0.1201  0.2366
    1C        C  679   2.512   3.443   3.153 -0.7291  0.1651 -0.2150
    1C        C  680   2.511   3.516   3.274  0.0796  0.3071 -0.2857
    1C        C  681   2.536   3.308   3.399 -0.0486  0.5217 -0.1724
    1C        C  682   2.522   3.448   3.398  0.4446  0.5740 -0.1692
    1C        C  683   2.558   3.242   3.522  0.7494  0.4556 -0.3415
    1C        C  684   2.542   3.311   3.644  0.2695 -0.0876 -0.0879
    1C        C  685   2.603   3.111   3.768  0.4593  0.2944 -0.0110
    1C        C  686   2.553   3.243   3.767  0.0591  0.1427  0.0593
    1C        C  687   2.633   3.050   3.891  0.5909 -0.0186 -0.1965
    1C        C  688   2.604   3.116   4.012  0.4094  0.1718 -0.3439
    1C        C  689   2.707   2.931   4.140  0.1150  0.1183  0.2059
    1C        C  690   2.632   3.051   4.134  0.3840  0.2680 -0.2849
    1C        C  691   2.751   2.878   4.262 -0.4972 -0.6156  0.1215
    1C        C  692   2.707   2.935   4.383  0.5669  0.1494  0.1695
    1C        C  693   2.751   2.877   4.504  0.0261 -0.2288  0.1885
    1C        C  694   2.636   3.888   2.055  0.1617 -0.0475 -0.4982
    1C        C  695   2.528   3.703   2.175 -0.2830  0.3120  0.0995
    1C        C  696   2.579   3.834   2.172  0.0644  0.1614 -0.4490
    1C        C  697   2.509   3.635   2.298  0.1329  0.2048  0.1042
    1C        C  698   2.522   3.710   2.417 -0.1813  0.0084  0.2606
    1C        C  699   2.492   3.503   2.545 -0.3408 -0.2082  0.1487
    1C        C  700   2.507   3.643   2.540 -0.7118 -0.1672  0.1054
    1C        C  701   2.502   3.432   2.667 -0.6493 -0.0997  0.2392
    1C        C  702   2.513   3.507   2.786 -0.0508  0.3874 -0.1212
    1C        C  703   2.527   3.298   2.914  0.3469  0.2679  0.2672
    1C        C  704   2.505   3.438   2.908 -0.4816  0.1267 -0.2919
    1C        C  705   2.550   3.233   3.037  0.3587  0.2694  0.2690
    1C        C  706   2.531   3.304   3.158  1.0693  0.4088  0.3058
    1C        C  707   2.593   3.101   3.280  0.5412  0.1035 -0.0773
    1C        C  708   2.543   3.233   3.279  0.3070  0.0170  0.1568
    1C        C  709   2.630   3.043   3.403  1.0218  0.3236 -0.1134
    1C        C  710   2.614   3.113   3.524  0.1132  0.1757 -0.1417
    1C        C  711   2.708   2.925   3.650  0.2016  0.2823  0.1750
    1C        C  712   2.634   3.045   3.647  0.3342  0.3562 -0.0766
    1C        C  713   2.749   2.870   3.773  0.6282  0.0275 -0.0803
    1C        C  714   2.706   2.929   3.894  0.5411 -0.0458 -0.0766
    1C        C  715   2.747   2.874   4.017 -0.1826 -0.0321  0.1762
    1C        C  716   2.445   3.500   2.065 -0.0438  0.5554  0.2464
    1C        C  717   2.496   3.630   2.060  0.0537  0.5038 -0.1143
    1C        C  718   2.457   3.420   2.183 -0.2598  0.1284 -0.0171
    1C        C  719   2.483   3.496   2.301  0.6031  0.1092 -0.1851
    1C        C  720   2.512   3.290   2.427  0.0141  0.1520 -0.0289
    1C        C  721   2.488   3.429   2.425  0.2847  0.1966 -0.1236
    1C        C  722   2.540   3.223   2.548  0.5772  0.3198 -0.0636
    1C        C  723   2.518   3.291   2.670  0.2472 -0.0042  0.0640
    1C        C  724   2.589   3.093   2.792  0.3974  0.3408 -0.4669
    1C        C  725   2.543   3.227   2.793  0.4664  0.3664  0.2202
    1C        C  726   2.624   3.034   2.915  0.2168  0.1004 -0.5277
    1C        C  727   2.597   3.100   3.037  0.2246  0.2102 -0.5816
    1C        C  728   2.689   2.911   3.161  0.5564  0.8156  0.1776
    1C        C  729   2.617   3.032   3.159 -0.0860  0.4359 -0.4002
    1C        C  730   2.745   2.866   3.283  0.6545  0.2344 -0.0736
    1C        C  731   2.707   2.924   3.406  1.1137  0.3853  0.0003
    1C        C  732   2.746   2.865   3.528  0.1034  0.1400  0.2149
    1C        C  733   2.493   3.200   2.072 -0.3597  0.0286 -0.0074
    1C        C  734   2.489   3.281   2.186  0.4541  0.2842 -0.1556
    1C        C  735   2.579   3.084   2.308 -0.1836  0.1206  0.4099
    1C        C  736   2.525   3.216   2.307  0.1001  0.2384 -0.0727
    1C        C  737   2.613   3.021   2.429  0.2680 -0.2440  0.0979
    1C        C  738   2.595   3.093   2.549 -0.1246  0.0153 -0.1125
    1C        C  739   2.691   2.905   2.670  0.6311  0.0071  0.0374
    1C        C  740   2.622   3.028   2.671  0.8730  0.1532 -0.2440
    1C        C  741   2.731   2.850   2.793  0.3929  0.2389  0.2239
    1C        C  742   2.697   2.913   2.915 -0.0925 -0.1002  0.2704
    1C        C  743   2.733   2.856   3.039  0.3103  0.2684  0.3304
    1C        C  744   2.549   3.072   2.071 -0.2724  0.0593  0.5851
    1C        C  745   2.688   2.902   2.186  0.6560  0.5465  0.0754
    1C        C  746   2.607   3.017   2.186  0.3846  0.3586  0.4052
    1C        C  747   2.734   2.844   2.306  0.8419 -0.1434 -0.3190
    1C        C  748   2.692   2.904   2.427  1.0363  0.2722 -0.4527
    1C        C  749   2.726   2.841   2.549  0.0301  0.1549 -0.2215
    1C        C  750   2.735   2.839   2.070 -0.4065 -0.0189 -0.0659
    1C        C  751   3.663   2.319   1.981  0.6702  0.3712  0.0008
    1C        O  752   3.675   2.200   2.020 -1.0076  0.1170 -0.1868
    1C        O  753   3.721   2.346   1.857  0.2636 -0.3651 -0.3597
    1C        C  754   4.610   3.050   1.969 -0.0070 -0.0846 -0.4661
    1C        O  755   4.575   2.999   1.859 -0.0674 -0.3556 -0.3245
    1C        O  756   4.733   2.998   2.009 -0.1451 -0.0117  0.0615
    1C        C  757   4.450   4.222   1.974  0.5940 -0.2605  0.2356
    1C        O  758   4.552   4.275   2.024  0.3378  0.0128  0.4739
    1C        O  759   4.445   4.236   1.835  0.3064  0.6659  0.3383
    1C        C  760   3.584   4.665   1.949 -0.0265  0.0144 -0.1871
    1C        O  761   3.610   4.784   1.982 -0.2068  0.0965 -0.3375
    1C        O  762   3.592   4.651   1.810 -0.3446  0.4222 -0.2498
    1C        C  763   2.889   4.497   1.958 -0.1108 -0.0904 -0.1641
    1C        O  764   2.911   4.479   1.836 -0.0678 -0.8510 -0.0461
    1C        O  765   2.884   4.630   2.004 -0.5845  0.0943 -0.7325
    1C        C  766   2.329   3.483   1.975  0.0103  0.7070  0.1495
    1C        O  767   2.342   3.502   1.851  0.3880 -0.2587  0.0370
    1C        O  768   2.199   3.507   2.022 -0.3269 -0.4296 -0.1698
    1C        C  769   4.704   3.599   5.048  0.4143 -0.4127 -0.1888
    1C        O  770   4.691   3.587   5.173 -0.1154 -0.1971 -0.2202
    1C        O  771   4.827   3.643   4.996  0.6348 -0.9400 -0.1185
    1C        C  772   4.262   4.430   5.051 -0.3437 -0.5981 -0.3489
    1C        O  773   4.236   4.385   5.165 -0.9065  0.1842 -0.1596
    1C        O  774   4.342   4.545   5.051 -0.5941 -0.4243 -0.0469
    1C        C  775   4.155   2.516   5.052 -0.6372 -0.4614  0.1577
    1C        O  776   4.199   2.406   5.009 -0.5597 -0.5176  0.3811
    1C        O  777   4.159   2.527   5.191  0.3895 -0.1187  0.1127
    1C        C  778   2.902   4.540   5.060 -0.0028 -0.1014  0.2020
    1C        O  779   2.862   4.654   5.026 -0.3799 -0.1136  0.5823
    1C        O  780   2.881   4.515   5.196 -0.2301 -0.8113  0.0411
    1C        C  781   2.449   3.022   5.041  0.5640 -0.1005 -0.1008
    1C        O  782   2.355   2.970   4.975 -0.0208  0.6072  0.1613
    1C        O  783   2.434   2.993   5.176 -0.4508 -0.1687 -0.2209
    1C        C  784   2.407   3.984   5.048 -0.1659  0.1555  0.0536
    1C        O  785   2.297   4.039   5.020 -0.1622  0.0290 -0.2126
    1C        O  786   2.420   3.952   5.183 -0.1433 -0.0749 -0.0033
    1C        C  787   2.958   2.440   1.989  0.5402  0.1490 -0.3574
    1C        O  788   2.925   2.480   1.874 -0.3919  0.1236 -0.1068
    1C        O  789   2.871   2.349   2.048  0.4937  0.5163  0.1445
    1C        C  790   3.172   2.367   5.046  0.3163  0.0656  0.3961
    1C        O  791   3.122   2.262   4.999  0.5208  0.3075 -0.3774
    1C        O  792   3.185   2.360   5.185  0.1400  0.0413  0.4111
    1C        H  793   4.329   2.991   5.069 -1.1107  0.7247  0.5037
    1C        H  794   4.197   2.807   5.074 -2.8812  2.5735  1.0096
    1C        H  795   4.523   3.125   5.046  2.2437 -1.3420 -2.1729
    1C        H  796   4.527   3.376   5.065 -1.2583  1.3585 -0.5977
    1C        H  797   4.518   3.789   5.056 -1.2601 -0.0811 -0.3326
    1C        H  798   4.467   4.011   5.045  0.3544  0.9634 -1.4069
    1C        H  799   4.293   4.167   5.053 -0.2916  0.7062  0.1274
    1C        H  800   4.055   4.578   4.990 -0.0515 -1.3117  2.3606
    1C        H  801   3.810   4.570   5.045 -0.4079  0.0755 -0.2857
    1C        H  802   3.579   4.605   5.045 -0.3217  0.3312  0.3357
    1C        H  803   3.393   4.505   5.040  0.0731 -0.8607 -0.1509
    1C        H  804   3.168   4.437   5.043 -0.4865 -1.1241 -0.4882
    1C        H  805   3.895   2.461   5.047 -2.1413  0.7605  0.1652
    1C        H  806   3.676   2.467   5.075 -0.9697  0.5875  0.8544
    1C        H  807   2.993   2.528   5.051  0.6530 -0.2713  0.3675
    1C        H  808   3.437   2.468   5.074 -1.0612 -0.1052 -0.8700
    1C        H  809   2.828   2.693   5.064  1.0195  0.6029  1.2931
    1C        H  810   2.696   2.883   5.072 -0.4112  0.3117 -0.1200
    1C        H  811   2.432   3.269   5.032  0.6464  1.7305 -0.9146
    1C        H  812   2.478   3.503   5.065  1.7124 -0.1114  0.1909
    1C        H  813   2.493   3.733   5.066 -0.1481 -1.1138  1.5787
    1C        H  814   2.548   4.200   5.016  0.8494  1.4347 -0.7890
    1C        H  815   2.762   4.308   5.048  0.0616 -0.1973 -0.3808
    1C        H  816   2.698   2.873   1.975  0.2715 -0.4576 -0.4943
    1C        H  817   2.822   2.671   1.986  1.6400  0.7577 -0.0686
    1C        H  818   3.200   2.397   2.014  0.1614 -0.8648  1.5716
    1C        H  819   3.423   2.408   1.989  0.0807 -0.6763 -0.0980
    1C        H  820   3.831   2.569   1.983  0.8884 -1.1527 -1.1642
    1C        H  821   4.075   2.590   1.972  0.3573  1.5944  0.3172
    1C        H  822   4.269   2.701   1.980  0.9642  0.5316  0.1071
    1C        H  823   4.369   2.918   1.966 -0.2098 -0.3612 -0.2398
    1C        H  824   4.583   3.306   1.966 -0.8678  0.1590 -0.3945
    1C        H  825   4.476   3.509   1.966 -1.4669 -1.0101  0.6990
    1C        H  826   4.485   3.751   1.952 -0.5100  0.3755  0.4400
    1C        H  827   3.819   4.555   1.967  0.4416 -1.5977 -0.3325
    1C        H  828   3.986   4.423   1.950 -0.0720 -0.3416 -0.4580
    1C        H  829   4.144   4.232   1.951 -1.0705 -1.0943 -0.1498
    1C        H  830   4.491   3.969   1.965 -0.8625  0.5318 -0.6756
    1C        H  831   2.593   3.855   1.963  0.0787 -2.0775  0.2203
    1C        H  832   2.694   4.069   1.960 -0.2374  0.0197 -0.2836
    1C        H  833   2.698   4.342   2.004 -0.4286 -0.1025 -0.2458
    1C        H  834   3.358   4.527   1.947 -0.8400  1.5232  0.1358
    1C        H  835   3.142   4.449   1.952  0.7148 -0.3255  0.0869
    1C        H  836   2.507   3.008   1.997 -0.7853  0.6348  0.3671
    1C        H  837   2.417   3.210   1.998 -0.8604  0.0274  0.4969
    1C        H  838   2.459   3.691   1.980 -1.1630 -2.2484 -1.7962
    2V3OU   H29  839   2.801   3.554   0.977 -1.5818  0.3978 -0.1608
    2V3OU   C27  840   2.787   3.505   1.077  0.2568 -0.1005 -0.1167
    2V3OU   H27  841   2.722   3.568   1.142  0.4489  1.5103 -1.4100
    2V3OU   H28  842   2.737   3.406   1.060  0.9606 -0.5623  0.4363
    2V3OU   O11  843   2.907   3.477   1.149  0.1818 -0.5084 -0.1508
    2V3OU   C15  844   2.920   3.409   1.269  0.1267  0.4898  0.4295
    2V3OU   C13  845   3.051   3.379   1.312  0.1483 -0.1805 -0.0947
    2V3OU   C14  846   3.081   3.268   1.391 -0.1993 -0.2229 -0.0308
    2V3OU   C16  847   2.974   3.189   1.431  0.0534 -0.4118  0.2686
    2V3OU    H6  848   2.989   3.104   1.499 -0.2965 -1.4613 -0.9202
    2V3OU   C12  849   3.217   3.220   1.421 -0.1277  0.0590  0.0888
    2V3OU    O2  850   3.243   3.123   1.496  0.0313  0.6124  0.7563
    2V3OU   C10  851   3.327   3.307   1.377 -0.2082  0.1279  0.0323
    2V3OU    C8  852   3.461   3.273   1.392 -0.3059 -0.4277 -0.3350
    2V3OU   O10  853   3.495   3.158   1.456  0.2811 -0.4435 -0.6687
    2V3OU   H26  854   3.413   3.114   1.484  0.3561 -0.3201 -0.2507
    2V3OU    C6  855   3.569   3.351   1.341 -0.1601 -0.5897 -0.2707
    2V3OU    C5  856   3.539   3.465   1.267  0.5045  0.0011  0.3505
    2V3OU    C4  857   3.705   3.292   1.326  0.1268  0.2303 -0.9589
    2V3OU    H4  858   3.726   3.226   1.415  1.4340 -0.9292 -2.0755
    2V3OU    H5  859   3.712   3.223   1.237 -0.8877 -0.6085 -0.3986
    2V3OU    C2  860   3.816   3.397   1.320  0.1630  0.2434 -0.1401
    2V3OU    O6  861   3.814   3.480   1.436 -0.0346  0.0155  0.0195
    2V3OU   H21  862   3.751   3.552   1.421 -0.5283 -0.7142 -1.6408
    2V3OU    C3  863   3.780   3.494   1.207  0.4046  0.3658 -0.1141
    2V3OU    H2  864   3.855   3.576   1.215 -1.2441  1.9594 -0.3114
    2V3OU    H3  865   3.780   3.438   1.110  1.4536 -0.0315  0.1075
    2V3OU   C25  866   3.951   3.332   1.288 -0.1013 -0.3318 -0.0842
    2V3OU    O7  867   3.995   3.295   1.180 -0.1288 -0.6815  0.0217
    2V3OU   C26  868   4.034   3.288   1.408  0.6418  0.1093 -0.4333
    2V3OU   H22  869   4.076   3.375   1.464  3.0949 -1.7426  0.8309
    2V3OU   H23  870   4.126   3.234   1.372  1.1442  1.4307 -1.2105
    2V3OU    O8  871   3.969   3.204   1.501  0.2199  0.1025 -0.7345
    2V3OU   H24  872   3.931   3.253   1.576  2.7078 -3.0080  2.9009
    2V3OU    C1  873   3.646   3.563   1.227  0.2796  0.0961 -0.0210
    2V3OU    H1  874   3.622   3.619   1.132  0.5097 -0.1241 -0.2110
    2V3OU    O3  875   3.655   3.652   1.338 -0.0663 -0.0837  0.1523
    2V3OU   C19  876   3.617   3.789   1.323  0.2597  0.0010  0.0917
    2V3OU    H9  877   3.520   3.803   1.267 -0.5398 -1.3666  1.0586
    2V3OU    O4  878   3.714   3.849   1.241  0.0434  0.0726 -0.1130
    2V3OU   C20  879   3.846   3.871   1.291 -0.0911  0.1985  0.1864
    2V3OU   H10  880   3.897   3.773   1.314 -0.7109 -0.3083 -0.5414
    2V3OU   C24  881   3.609   3.860   1.459 -0.5089 -0.0632  0.0857
    2V3OU   H16  882   3.545   3.796   1.525 -1.6570  1.2339  0.2902
    2V3OU   H17  883   3.565   3.962   1.448  1.5927  0.8229 -0.6570
    2V3OU   C23  884   3.748   3.879   1.519 -0.2756 -0.4386 -0.3268
    2V3OU   H15  885   3.795   3.776   1.533 -0.6428 -0.8046 -1.7161
    2V3OU    N1  886   3.731   3.957   1.640 -0.0192 -0.4483 -0.2856
    2V3OU   H19  887   3.801   3.924   1.705  1.8374  0.4471 -1.7362
    2V3OU   H20  888   3.640   3.947   1.680  1.3737 -2.3348  2.8364
    2V3OU   C21  889   3.847   3.950   1.422 -0.6074  0.4941  0.0104
    2V3OU   H11  890   3.951   3.924   1.457 -0.3419 -1.0676 -1.7985
    2V3OU    O5  891   3.826   4.091   1.420 -0.4944  0.5130  0.2184
    2V3OU   H18  892   3.761   4.098   1.492 -0.4165  1.0915  0.2362
    2V3OU   C22  893   3.917   3.948   1.181 -0.0107  0.6298  0.5383
    2V3OU   H12  894   3.865   4.046   1.162  0.0940  0.7445  0.8438
    2V3OU   H13  895   3.915   3.888   1.087  2.0271 -2.2835  2.2179
    2V3OU   H14  896   4.026   3.954   1.204 -0.1448 -0.5366  1.5671
    2V3OU   C11  897   3.162   3.475   1.293  0.3617 -0.4271 -0.0840
    2V3OU    O1  898   3.138   3.594   1.265  0.0311 -0.4884 -0.0627
    2V3OU    C9  899   3.301   3.425   1.302  0.5790  0.1535 -0.2077
    2V3OU    C7  900   3.403   3.503   1.249  0.6164  0.2409 -0.0012
    2V3OU    O9  901   3.381   3.612   1.167  0.3670  0.2262  0.0458
    2V3OU   H25  902   3.286   3.624   1.152  0.3647  1.4535  0.8641
    2V3OU   C17  903   2.815   3.323   1.307  0.0870  0.5302  0.4042
    2V3OU    H7  904   2.715   3.344   1.269 -0.5504  2.2278  2.7367
    2V3OU   C18  905   2.843   3.217   1.392  0.2707  0.2933  0.0465
    2V3OU    H8  906   2.765   3.140   1.403 -0.5460  0.4407 -3.5992
    3SOL     OW  907   0.341   0.600   0.124 -0.2124  0.4081 -0.2200
    3SOL    HW1  908   0.309   0.663   0.194  0.1702 -0.6595  0.9400
    3SOL    HW2  909   0.264   0.571   0.068 -0.5329  1.2054 -0.2033
    4SOL     OW  910   6.924   3.818   4.626  0.0141 -0.2171 -0.1370
    4SOL    HW1  911   6.827   3.801   4.608  0.2304 -0.6934 -0.9177
    4SOL    HW2  912   6.962   3.872   4.551 -0.0729  1.6352  1.0868
    5SOL     OW  913   5.934   0.638   3.337  0.7756 -0.2221 -0.0491
    5SOL    HW1  914   6.009   0.678   3.391  2.9806 -2.2092 -1.4814
    5SOL    HW2  915   5.891   0.710   3.282  1.2062  1.0676  1.2273
    6SOL     OW  916   4.627   1.627   6.354 -0.3944  0.0073 -0.4819
    6SOL    HW1  917   4.676   1.566   6.293 -0.7998 -1.6487  0.7603
    6SOL    HW2  918   4.692   1.688   6.400  0.1367 -0.1281 -1.0441
    7SOL     OW  919   4.859   1.756   1.938 -0.0547  0.3971 -0.1665
    7SOL    HW1  920   4.762   1.777   1.953  0.0662  0.3726  0.7006
    7SOL    HW2  921   4.879   1.664   1.971  0.3315  0.5318 -0.0110
    8SOL     OW  922   3.672   3.486   0.748  0.5779 -0.3027 -0.4337
    8SOL    HW1  923   3.614   3.549   0.800  2.3253  1.5247 -0.6209
    8SOL    HW2  924   3.752   3.461   0.802  0.2783 -1.8366 -0.6432
    9SOL     OW  925   2.877   1.493   1.510 -0.0953 -0.7980 -0.2793
    9SOL    HW1  926   2.797   1.440   1.539  1.0707 -2.2945  0.3495
    9SOL    HW2  927   2.867   1.519   1.414 -1.1817 -1.2468 -0.3028
   10SOL     OW  928   2.142   0.645   1.393 -0.5832 -0.3164 -0.0145
   10SOL    HW1  929   2.091   0.561   1.411 -1.9644 -0.0720 -2.4685
   10SOL    HW2  930   2.233   0.622   1.358 -1.0701 -0.8252 -0.9889
   11SOL     OW  931   3.929   6.173   6.449  0.3905 -0.4529  0.5508
   11SOL    HW1  932   3.834   6.168   6.482  1.0832  1.7371  3.2016
   11SOL    HW2  933   3.985   6.108   6.500  0.8229  0.3564  1.1174
   12SOL     OW  934   5.498   0.664   2.663  0.0762 -0.1712 -0.1088
   12SOL    HW1  935   5.540   0.670   2.754 -0.6087 -0.3047  0.2248
   12SOL    HW2  936   5.547   0.597   2.608  1.1169  0.6389 -0.1828
   13SOL     OW  937   0.885   5.561   4.024 -0.3770  0.1228 -0.4119
   13SOL    HW1  938   0.832   5.645   4.011  0.2071  0.6059  0.2882
   13SOL    HW2  939   0.848   5.509   4.101  0.5906  0.8259  0.5582
   14SOL     OW  940   0.768   1.444   0.355  0.1451  0.2638  0.7211
   14SOL    HW1  941   0.750   1.350   0.385  0.6782  0.7477  2.6975
   14SOL    HW2  942   0.795   1.444   0.259 -0.8167 -1.4896  0.4169
   15SOL     OW  943   1.553   6.711   7.022 -0.0703 -0.4539 -0.3395
   15SOL    HW1  944   1.522   6.780   7.087 -0.6897  0.0436 -1.1310
   15SOL    HW2  945   1.614   6.753   6.955 -1.0680 -0.4722 -1.2928
   16SOL     OW  946   1.796   3.426   6.350 -0.2503  0.8297 -0.4231
   16SOL    HW1  947   1.833   3.342   6.390  0.1375 -0.1561 -2.6619
   16SOL    HW2  948   1.856   3.503   6.373 -0.3562  0.4303  1.2773
   17SOL     OW  949   6.071   0.610   1.284  0.4716  0.6552 -0.6962
   17SOL    HW1  950   6.035   0.562   1.363  0.9031  1.6154  0.1014
   17SOL    HW2  951   6.027   0.699   1.275 -0.7620 -0.0711 -2.5109
   18SOL     OW  952   0.711   0.267   0.867  0.3720 -0.3471  0.1431
   18SOL    HW1  953   0.734   0.280   0.771 -0.5469 -1.5010 -0.2636
   18SOL    HW2  954   0.794   0.257   0.921  0.8871 -1.4325 -0.8122
   19SOL     OW  955   5.763   2.194   4.613  0.0832 -0.1097  0.1300
   19SOL    HW1  956   5.753   2.263   4.541 -0.0702  0.7812  0.9902
   19SOL    HW2  957   5.860   2.184   4.636  0.2667 -1.2406 -0.9757
   20SOL     OW  958   3.896   5.677   2.926 -0.1395 -0.1336  0.2982
   20SOL    HW1  959   3.870   5.639   2.837  1.4182 -2.2603  0.6938
   20SOL    HW2  960   3.868   5.773   2.930 -1.6608 -0.4176 -1.8569
   21SOL     OW  961   0.001   0.754   4.636  0.3835  0.0261  0.5689
   21SOL    HW1  962  -0.013   0.692   4.713  1.7772 -1.3487 -0.2457
   21SOL    HW2  963  -0.009   0.849   4.668  4.2506 -0.2338  3.3333
   22SOL     OW  964   1.182   1.931   2.887  0.1164 -0.7811 -0.0120
   22SOL    HW1  965   1.103   1.873   2.904  0.6094 -1.5107 -0.1726
   22SOL    HW2  966   1.237   1.939   2.970  0.8604 -1.8109 -0.3743
   23SOL     OW  967   0.988   3.825   2.689  0.2441  0.0854 -0.1637
   23SOL    HW1  968   0.980   3.748   2.752  0.1590  0.0217 -0.2516
   23SOL    HW2  969   1.043   3.897   2.730  0.0985  0.0880  0.0253
   24SOL     OW  970   2.215   4.680   3.480  0.1863 -0.3906 -0.6416
   24SOL    HW1  971   2.248   4.760   3.531 -0.9872  0.9900 -1.9386
   24SOL    HW2  972   2.239   4.597   3.530  0.4290  0.8053  1.3644
   25SOL     OW  973   4.757   1.147   4.827 -0.0499  0.1903 -0.5078
   25SOL    HW1  974   4.674   1.156   4.772 -0.9350  0.0246  0.7484
   25SOL    HW2  975   4.833   1.196   4.783 -0.5318 -0.5569 -2.2131
   26SOL     OW  976   2.829   0.853   4.657 -0.4534  0.2569  0.3870
   26SOL    HW1  977   2.823   0.837   4.755  0.1014  0.9375  0.5402
   26SOL    HW2  978   2.775   0.933   4.632  0.2802  0.7461  0.3209
   27SOL     OW  979   4.782   0.589   4.591  0.0670  0.1340  1.0462
   27SOL    HW1  980   4.819   0.520   4.655  0.2816  0.2490  1.0481
   27SOL    HW2  981   4.852   0.612   4.524  0.2045  0.8000  1.4119
   28SOL     OW  982   0.399   4.218   1.744 -0.0847  0.5595  0.1921
   28SOL    HW1  983   0.420   4.265   1.658  3.3613 -0.8291  0.1008
   28SOL    HW2  984   0.424   4.121   1.735 -2.3310 -0.2695  1.9266
   29SOL     OW  985   5.539   3.662   3.955 -0.4182  0.4796  0.1004
   29SOL    HW1  986   5.590   3.726   4.014 -0.2794  2.0634 -1.6332
   29SOL    HW2  987   5.599   3.587   3.929  0.5341  1.4189 -0.5259
   30SOL     OW  988   0.827   0.694   0.454  0.1336 -0.2116 -0.3336
   30SOL    HW1  989   0.810   0.596   0.443  0.1967 -0.2270 -0.2908
   30SOL    HW2  990   0.900   0.722   0.392 -0.7007  0.0461 -1.2381
   31SOL     OW  991   3.626   6.429   5.643 -0.3633  0.1818 -0.0535
   31SOL    HW1  992   3.661   6.349   5.594 -3.1770 -0.2033 -1.6681
   31SOL    HW2  993   3.608   6.503   5.578 -2.0295  0.4808  0.6864
   32SOL     OW  994   3.734   6.576   2.602  0.1653  0.1639 -0.2941
   32SOL    HW1  995   3.791   6.652   2.633 -0.9850  1.1627 -0.5489
   32SOL    HW2  996   3.787   6.491   2.606  1.2804  0.8670  0.5935
   33SOL     OW  997   2.589   0.119   3.092 -0.0944 -0.3680  0.2120
   33SOL    HW1  998   2.551   0.182   3.025 -0.4339 -0.6788  0.1125
   33SOL    HW2  999   2.676   0.156   3.127  0.3447 -0.4477 -0.7664
   34SOL     OW 1000   5.156   0.703   6.719  0.4408 -0.4414  1.1601
   34SOL    HW1 1001   5.132   0.621   6.770  2.9634 -0.5395  2.3384
   34SOL    HW2 1002   5.209   0.765   6.777  1.6735  0.3680 -0.7021
   35SOL     OW 1003   2.620   6.271   2.479  0.2978  0.3467  0.3784
   35SOL    HW1 1004   2.579   6.181   2.467  0.0603  0.2939  1.5189
   35SOL    HW2 1005   2.603   6.304   2.571  1.0422  1.2329  0.2173
   36SOL     OW 1006   2.578   5.531   0.158 -0.1874  0.1007  0.1556
   36SOL    HW1 1007   2.483   5.559   0.174 -0.0972  1.5523 -1.5734
   36SOL    HW2 1008   2.581   5.454   0.095 -0.1916  1.0235 -0.9965
   37SOL     OW 1009   3.128   2.102   5.367  0.0884  0.5676 -0.3685
   37SOL    HW1 1010   3.198   2.035   5.342  0.0682  0.4617 -0.1416
   37SOL    HW2 1011   3.069   2.064   5.438  0.2110  0.9071 -0.0797
   38SOL     OW 1012   6.461   4.422   2.836 -0.4331 -0.2436  0.0644
   38SOL    HW1 1013   6.446   4.382   2.926 -2.3120 -1.9510 -0.9447
   38SOL    HW2 1014   6.507   4.355   2.777 -0.3537  0.4012 -0.6206
   39SOL     OW 1015   4.701   4.924   4.455  0.0019 -0.3369  0.0343
   39SOL    HW1 1016   4.634   4.866   4.501  0.6153 -1.6801 -0.6863
   39SOL    HW2 1017   4.774   4.948   4.520 -0.1138 -0.6084  0.2670
   40SOL     OW 1018   2.613   3.131   5.329 -0.6193  0.5528 -0.4412
   40SOL    HW1 1019   2.562   3.071   5.267  0.4765  0.5341 -1.3561
   40SOL    HW2 1020   2.549   3.192   5.376 -1.8958 -1.8643  1.1846
   41SOL     OW 1021   3.596   3.793   5.965  0.0999  0.1079  0.5425
   41SOL    HW1 1022   3.680   3.761   6.008 -1.9494 -2.8946  2.6600
   41SOL    HW2 1023   3.574   3.736   5.886 -0.8599 -0.3172  1.1030
   42SOL     OW 1024   5.401   3.501   5.561 -0.0969  0.1095 -0.2870
   42SOL    HW1 1025   5.381   3.594   5.528 -1.1466 -0.6258 -1.8710
   42SOL    HW2 1026   5.325   3.468   5.616  0.8022  0.5990  1.3058
   43SOL     OW 1027   4.634   4.939   3.424  0.0842  0.3274 -0.4971
   43SOL    HW1 1028   4.588   5.022   3.457  0.3752  0.6483 -0.8745
   43SOL    HW2 1029   4.590   4.909   3.339  1.1186  1.1734 -1.3719
   44SOL     OW 1030   5.416   2.112   0.985  0.4553  0.3082  0.1414
   44SOL    HW1 1031   5.391   2.047   0.913  0.3623  0.4855  0.0130
   44SOL    HW2 1032   5.498   2.162   0.958  1.7390 -1.1853  1.1219
   45SOL     OW 1033   1.734   5.283   5.756 -0.0674 -0.0041 -0.3263
   45SOL    HW1 1034   1.643   5.282   5.714 -0.4653 -0.4598  0.5268
   45SOL    HW2 1035   1.785   5.202   5.725 -1.4177 -1.9932  2.2638
   46SOL     OW 1036   3.771   4.760   0.918 -0.3366  0.5504 -0.1055
   46SOL    HW1 1037   3.790   4.694   0.991  4.0181  0.6248 -0.9046
   46SOL    HW2 1038   3.791   4.853   0.950  0.8256  0.6628 -1.0714
   47SOL     OW 1039   5.572   1.135   5.869 -0.5989  0.1348 -0.3508
   47SOL    HW1 1040   5.551   1.176   5.957  3.3611  1.4501  0.1817
   47SOL    HW2 1041   5.669   1.112   5.865 -0.4670  0.6392 -4.5524
   48SOL     OW 1042   2.439   1.864   6.868  0.4217  0.4162 -0.2496
   48SOL    HW1 1043   2.367   1.932   6.852  2.0679  2.1979 -0.3956
   48SOL    HW2 1044   2.490   1.849   6.784  1.3375  0.4889  0.2881
   49SOL     OW 1045   4.804   2.799   2.151 -0.0376 -0.1100  0.1048
   49SOL    HW1 1046   4.771   2.878   2.100  1.3625 -0.1171 -0.8785
   49SOL    HW2 1047   4.868   2.747   2.094 -0.8514 -1.9081  0.7648
   50SOL     OW 1048   5.694   4.163   2.443  0.3282  0.0228 -0.1188
   50SOL    HW1 1049   5.785   4.149   2.483 -0.1921 -0.0226  1.1082
   50SOL    HW2 1050   5.664   4.257   2.460  0.3498  0.1956 -0.9831
   51SOL     OW 1051   2.360   6.823   3.561 -0.4641 -0.0461  0.0756
   51SOL    HW1 1052   2.326   6.760   3.631 -0.7324  0.1991  0.1655
   51SOL    HW2 1053   2.333   6.916   3.583 -0.9060 -0.0131 -0.5721
   52SOL     OW 1054   1.122   1.369   3.840 -0.0400 -0.0764  0.0626
   52SOL    HW1 1055   1.167   1.453   3.811  0.1398 -0.1058  0.2525
   52SOL    HW2 1056   1.174   1.328   3.915 -1.0797  0.5734  1.1766
   53SOL     OW 1057   2.609   2.018   6.387  0.4738 -0.1828 -0.5215
   53SOL    HW1 1058   2.568   1.974   6.307 -2.1158  2.3056 -0.7383
   53SOL    HW2 1059   2.680   2.081   6.357  0.8571 -0.6780 -0.6643
   54SOL     OW 1060   0.746   2.993   5.535 -0.6198  0.2698 -0.2760
   54SOL    HW1 1061   0.832   3.026   5.495  0.9630 -0.1310  2.4874
   54SOL    HW2 1062   0.717   2.910   5.487  1.1147 -0.1448 -0.6871
   55SOL     OW 1063   4.857   5.359   1.498 -0.0584  0.6022 -0.0498
   55SOL    HW1 1064   4.820   5.289   1.560  0.1279  0.9794  0.4856
   55SOL    HW2 1065   4.945   5.329   1.463  0.3546  0.8865  0.7382
   56SOL     OW 1066   0.756   1.428   4.290  0.1880  0.0204 -0.6431
   56SOL    HW1 1067   0.735   1.498   4.221  0.8662  0.1464 -0.7327
   56SOL    HW2 1068   0.734   1.464   4.381 -0.3715 -0.0125 -0.7604
   57SOL     OW 1069   6.298   4.708   2.512  0.8295  0.5915  0.3894
   57SOL    HW1 1070   6.240   4.760   2.449  0.4282 -1.0287 -0.6210
   57SOL    HW2 1071   6.340   4.771   2.577 -1.1503  1.9665  0.4475
   58SOL     OW 1072   2.820   6.370   2.783  0.5087  0.3852 -0.5944
   58SOL    HW1 1073   2.739   6.385   2.727 -0.3617 -1.3304  0.1128
   58SOL    HW2 1074   2.795   6.379   2.880  0.6387 -2.0565 -0.2797
   59SOL     OW 1075   0.577   5.590   2.476 -0.2504 -0.0792 -0.2429
   59SOL    HW1 1076   0.662   5.629   2.512  0.8856 -1.9369 -0.7561
   59SOL    HW2 1077   0.514   5.573   2.552 -0.3501  1.6469  0.1071
   60SOL     OW 1078   1.160   4.188   6.118 -0.0883  0.3155  0.2355
   60SOL    HW1 1079   1.060   4.191   6.122 -0.2615 -2.0774 -0.5093
   60SOL    HW2 1080   1.197   4.192   6.210 -0.7509  2.4942  0.4650
   61SOL     OW 1081   3.580   6.935   1.667 -0.0105  0.2102  0.3632
   61SOL    HW1 1082   3.601   6.954   1.570  0.2030  2.3819  0.7717
   61SOL    HW2 1083   3.482   6.917   1.677 -0.1345  0.5457 -0.1912
   62SOL     OW 1084   5.966   4.208   6.157 -0.1878  0.1741 -0.0833
   62SOL    HW1 1085   6.028   4.285   6.144  0.7043 -0.1226  2.0121
   62SOL    HW2 1086   5.952   4.161   6.069  0.5517  1.7128 -1.0689
   63SOL     OW 1087   0.613   0.961   5.973 -0.6565  0.0246 -0.2242
   63SOL    HW1 1088   0.536   0.902   5.995 -0.1465 -0.7662 -0.5461
   63SOL    HW2 1089   0.687   0.947   6.039 -0.6595  0.5470 -0.1040
   64SOL     OW 1090   1.837   5.109   3.422 -0.1099 -0.0248  0.3937
   64SOL    HW1 1091   1.853   5.181   3.489  2.4639  1.2221 -1.3783
   64SOL    HW2 1092   1.924   5.080   3.383 -1.4508 -0.6942 -2.3758
   65SOL     OW 1093   4.845   6.465   5.186 -0.2376  0.1923  0.2471
   65SOL    HW1 1094   4.853   6.370   5.156  0.3756  1.0600 -2.5674
   65SOL    HW2 1095   4.792   6.517   5.120 -0.6862  1.8233  1.8072
   66SOL     OW 1096   1.565   5.456   5.091  0.3631  0.3181  0.2878
   66SOL    HW1 1097   1.569   5.358   5.113 -2.7684  0.0621  0.1274
   66SOL    HW2 1098   1.553   5.508   5.176  1.4669  0.5577  0.3158
   67SOL     OW 1099   5.670   5.250   3.070 -0.5826 -0.2797 -0.8781
   67SOL    HW1 1100   5.575   5.220   3.060 -0.6542 -0.9238  1.2487
   67SOL    HW2 1101   5.696   5.245   3.166  1.6843 -0.3206 -1.4492
   68SOL     OW 1102   4.563   6.716   4.263  0.7053  0.3574 -0.1671
   68SOL    HW1 1103   4.643   6.741   4.208  0.7622 -0.7434 -0.5999
   68SOL    HW2 1104   4.556   6.778   4.342  2.4944 -0.0955  0.3722
   69SOL     OW 1105   3.281   4.045   1.425  0.0534  0.4597 -0.6094
   69SOL    HW1 1106   3.195   4.004   1.455  0.3266  0.2899 -0.0554
   69SOL    HW2 1107   3.349   4.038   1.497  0.0936  1.9558 -0.4615
   70SOL     OW 1108   5.498   3.215   1.552 -0.7341 -0.2553 -0.3979
   70SOL    HW1 1109   5.447   3.155   1.491  1.9405 -1.4428 -1.6359
   70SOL    HW2 1110   5.538   3.290   1.499  1.8581 -1.4602 -0.3005
   71SOL     OW 1111   3.965   5.638   0.569  0.4232  0.3789  0.0500
   71SOL    HW1 1112   3.966   5.538   0.565  1.6912  0.3731  0.0489
   71SOL    HW2 1113   3.870   5.671   0.566  0.0090 -0.7999 -0.3493
   72SOL     OW 1114   6.895   0.589   2.932  0.4275 -0.4440  0.4376
   72SOL    HW1 1115   6.975   0.647   2.945 -0.0275 -0.0971  2.0177
   72SOL    HW2 1116   6.826   0.612   3.002 -0.1646 -2.2023  0.4779
   73SOL     OW 1117   4.853   3.335   1.702  0.2361 -0.1888 -0.3404
   73SOL    HW1 1118   4.828   3.414   1.758  1.2207  0.2191 -0.4583
   73SOL    HW2 1119   4.939   3.353   1.656 -0.2385 -0.7795 -1.4931
   74SOL     OW 1120   2.861   5.779   3.040 -0.7713  0.9438  0.2958
   74SOL    HW1 1121   2.808   5.720   3.100 -1.9380  1.5591 -0.0857
   74SOL    HW2 1122   2.851   5.748   2.945 -0.4683  1.0849  0.2160
   75SOL     OW 1123   6.153   4.398   2.811  0.2328  0.2489  0.7363
   75SOL    HW1 1124   6.201   4.419   2.725  0.9650  0.2709  1.1455
   75SOL    HW2 1125   6.109   4.480   2.845  0.3398  0.3529  0.6281
   76SOL     OW 1126   2.056   3.799   5.964 -0.2997 -0.5332 -0.0672
   76SOL    HW1 1127   2.132   3.739   5.939  0.3266 -0.0872  0.7175
   76SOL    HW2 1128   1.987   3.747   6.013  1.0215 -0.3369  2.1601
   77SOL     OW 1129   6.758   4.984   1.276 -0.1456 -0.0604  0.1054
   77SOL    HW1 1130   6.847   5.026   1.258 -0.7524  1.5696  0.6596
   77SOL    HW2 1131   6.688   5.033   1.223 -0.6724 -1.6474 -0.7165
   78SOL     OW 1132   5.144   2.275   5.804 -0.1152  0.4557 -0.2061
   78SOL    HW1 1133   5.064   2.293   5.861  0.2167 -1.1241  0.8001
   78SOL    HW2 1134   5.223   2.253   5.862  0.5457  0.0368 -1.2314
   79SOL     OW 1135   5.450   5.538   1.390  0.2987 -0.4410 -0.2746
   79SOL    HW1 1136   5.539   5.562   1.429 -0.0356  0.9148 -0.3109
   79SOL    HW2 1137   5.448   5.440   1.370  2.4543 -0.2064 -1.9621
   80SOL     OW 1138   2.929   4.576   0.257  0.4569  0.1590  0.1257
   80SOL    HW1 1139   3.014   4.615   0.292  0.5617 -1.0679  1.2976
   80SOL    HW2 1140   2.853   4.605   0.315  0.2980 -0.0192  0.0076
   81SOL     OW 1141   3.789   1.894   2.775  0.0319  0.3783 -0.1899
   81SOL    HW1 1142   3.855   1.959   2.814  0.2598 -0.3382  0.6461
   81SOL    HW2 1143   3.816   1.801   2.798 -0.5953  0.0089 -0.9124
   82SOL     OW 1144   2.982   3.962   6.874 -0.3998 -0.3037  0.1881
   82SOL    HW1 1145   2.939   3.894   6.935 -0.7720  0.0237  0.2930
   82SOL    HW2 1146   2.935   4.049   6.884 -0.0554 -0.0849 -0.1091
   83SOL     OW 1147   0.635   3.475   6.649  0.6234 -0.0811 -0.8029
   83SOL    HW1 1148   0.595   3.529   6.723  0.8693  0.3386 -0.9729
   83SOL    HW2 1149   0.602   3.381   6.655  0.0571  0.1248 -0.6063
   84SOL     OW 1150   6.526   4.014   0.039 -0.2274 -0.1250  0.6241
   84SOL    HW1 1151   6.602   4.044  -0.019 -0.7110 -1.0396 -0.5319
   84SOL    HW2 1152   6.487   4.093   0.087  1.0058  0.4554  0.7103
   85SOL     OW 1153   0.844   3.101   6.196 -0.6544 -0.1684 -1.3034
   85SOL    HW1 1154   0.749   3.121   6.220 -0.5167  0.9754 -1.6755
   85SOL    HW2 1155   0.904   3.123   6.272 -0.5705  0.1854 -1.4717
   86SOL     OW 1156   3.751   4.920   5.736  0.2343  0.0569  0.6016
   86SOL    HW1 1157   3.828   4.875   5.692 -0.4194 -1.2816  0.7953
   86SOL    HW2 1158   3.668   4.904   5.683 -0.0938  0.6413  0.9279
   87SOL     OW 1159   0.610   5.468   5.282 -0.5104  0.5141 -0.4129
   87SOL    HW1 1160   0.589   5.407   5.206  0.9251 -0.9407  0.2740
   87SOL    HW2 1161   0.681   5.426   5.339 -0.4836  2.2258  0.8987
   88SOL     OW 1162   2.127   6.100   5.780 -0.2268 -0.4721 -0.0945
   88SOL    HW1 1163   2.132   6.114   5.878  3.1755  0.6360 -0.3208
   88SOL    HW2 1164   2.210   6.056   5.747 -1.2858 -0.8846 -2.5107
   89SOL     OW 1165   2.797   2.595   6.833  0.6228 -0.0256 -0.2270
   89SOL    HW1 1166   2.821   2.692   6.841 -0.0527  0.6464 -4.1211
   89SOL    HW2 1167   2.721   2.575   6.894  0.2558  2.1259  0.1254
   90SOL     OW 1168   1.880   1.529   3.459 -0.7144 -0.5184 -0.1205
   90SOL    HW1 1169   1.864   1.432   3.478 -3.0906 -0.0152  0.8223
   90SOL    HW2 1170   1.816   1.584   3.512 -1.3084  1.4620 -2.7057
   91SOL     OW 1171   0.196   1.347   2.235  0.3085 -0.1999  0.6318
   91SOL    HW1 1172   0.153   1.319   2.321 -0.6924  2.9542  1.2987
   91SOL    HW2 1173   0.294   1.330   2.239  0.2781 -0.1013  2.4362
   92SOL     OW 1174   1.244   1.316   0.610  0.0330  0.1672  0.3313
   92SOL    HW1 1175   1.340   1.334   0.588 -1.1538  3.7832 -2.8235
   92SOL    HW2 1176   1.209   1.388   0.669 -1.3472  0.2929 -0.6078
   93SOL     OW 1177   4.939   5.816   3.782 -0.4448  0.5694 -0.0122
   93SOL    HW1 1178   4.977   5.795   3.872 -0.2726  2.0340  0.2740
   93SOL    HW2 1179   5.008   5.800   3.712 -0.3620  0.0848  0.1718
   94SOL     OW 1180   6.970   1.365   6.622  0.4319  0.1380 -0.2635
   94SOL    HW1 1181   6.929   1.274   6.626  1.8967 -0.5755 -0.7442
   94SOL    HW2 1182   6.909   1.431   6.665 -1.6391 -0.6917 -1.7725
   95SOL     OW 1183   0.291   6.352   3.969 -0.9249 -0.0339  0.0551
   95SOL    HW1 1184   0.233   6.315   4.042 -0.8786 -0.4627 -0.1193
   95SOL    HW2 1185   0.242   6.349   3.882 -1.6021  2.0297  0.3251
   96SOL     OW 1186   5.677   4.740   4.677  0.3952  0.1518  0.6326
   96SOL    HW1 1187   5.594   4.788   4.650  1.8916  1.2450 -2.5196
   96SOL    HW2 1188   5.690   4.660   4.617  1.2138 -0.5003  1.6373
   97SOL     OW 1189   0.928   6.180   1.918  0.0844 -0.2849 -0.1830
   97SOL    HW1 1190   0.896   6.107   1.978  0.2365 -0.7851 -0.6936
   97SOL    HW2 1191   1.001   6.231   1.962  1.2157 -1.5809 -0.4965
   98SOL     OW 1192   0.747   0.993   6.914 -1.0141  0.0741  0.1641
   98SOL    HW1 1193   0.714   1.075   6.866  0.0866 -0.5368 -1.7717
   98SOL    HW2 1194   0.700   0.913   6.878 -0.3466 -0.3836  0.2954
   99SOL     OW 1195   0.726   3.671   4.951 -0.9799 -0.3288  0.3567
   99SOL    HW1 1196   0.704   3.597   5.014 -0.7372  0.8098  1.8258
   99SOL    HW2 1197   0.766   3.633   4.868 -1.4782 -1.8785  0.7980
  100SOL     OW 1198   2.994   5.229   4.059 -0.0813  0.4204 -0.1788
  100SOL    HW1 1199   2.948   5.147   4.025 -0.2091  0.3882  0.0689
  100SOL    HW2 1200   2.928   5.289   4.104  0.2114  0.1047  0.6950
  101SOL     OW 1201   4.862   2.948   3.088  0.4057 -0.6266 -0.3578
  101SOL    HW1 1202   4.860   3.026   3.026  0.2543 -1.2155 -1.1113
  101SOL    HW2 1203   4.883   2.980   3.180  0.7810  0.2531 -0.7266
  102SOL     OW 1204   4.104   4.793   3.514  0.4119  0.2122 -0.1606
  102SOL    HW1 1205   4.114   4.885   3.552  0.9157  0.3770 -0.6777
  102SOL    HW2 1206   4.145   4.726   3.576  1.7162  0.5352 -0.6582
  103SOL     OW 1207   3.981   3.021   3.492 -0.3321  0.0048  0.7872
  103SOL    HW1 1208   3.981   3.029   3.592  1.6380 -0.1199  0.8314
  103SOL    HW2 1209   4.026   2.936   3.465  4.7022  2.6277 -0.2255
  104SOL     OW 1210   0.316   4.507   5.592  0.3760 -0.1765 -0.0430
  104SOL    HW1 1211   0.261   4.424   5.594 -0.5664  0.4014 -1.1757
  104SOL    HW2 1212   0.412   4.483   5.576 -0.0898 -0.9870 -1.9067
  105SOL     OW 1213   1.086   1.797   5.735 -0.4165  0.2469 -0.6788
  105SOL    HW1 1214   1.082   1.747   5.822  1.3269  1.0454 -0.1005
  105SOL    HW2 1215   1.142   1.745   5.670  3.4603  2.3065  0.6706
  106SOL     OW 1216   2.105   3.288   2.168 -0.5832  0.2115  0.2823
  106SOL    HW1 1217   2.102   3.308   2.265  1.0232 -0.5975  0.5407
  106SOL    HW2 1218   2.147   3.364   2.119  1.1087 -0.4797  0.6120
  107SOL     OW 1219   5.589   3.575   6.241  0.2352  0.2362 -0.0528
  107SOL    HW1 1220   5.623   3.537   6.327  0.4809  0.7235  0.0680
  107SOL    HW2 1221   5.593   3.505   6.170  0.0571 -0.1615  0.3261
  108SOL     OW 1222   4.240   4.159   6.299 -0.0349  0.8902 -0.0252
  108SOL    HW1 1223   4.315   4.174   6.235 -0.0630  2.6623  0.2788
  108SOL    HW2 1224   4.270   4.183   6.391 -0.1061 -1.2760  0.6021
  109SOL     OW 1225   5.454   2.453   3.099 -0.2371 -0.0275  0.6433
  109SOL    HW1 1226   5.449   2.366   3.147 -0.1037 -0.7073 -0.5308
  109SOL    HW2 1227   5.549   2.484   3.096 -0.3843  0.5541  1.7248
  110SOL     OW 1228   4.000   6.206   6.800  0.5456  0.0537 -0.8472
  110SOL    HW1 1229   3.943   6.146   6.744  0.9488 -1.8986  0.7080
  110SOL    HW2 1230   3.944   6.279   6.838 -0.7297 -1.2010 -0.2156
  111SOL     OW 1231   4.675   2.651   4.579  0.1853 -0.0652  0.4683
  111SOL    HW1 1232   4.639   2.561   4.601  0.2640  0.1895  1.6920
  111SOL    HW2 1233   4.678   2.707   4.662  1.0315  0.7454 -0.0945
  112SOL     OW 1234   1.353   1.793   2.083 -0.0531  0.3553 -0.6989
  112SOL    HW1 1235   1.435   1.752   2.122 -0.4363  0.1170 -0.1212
  112SOL    HW2 1236   1.374   1.833   1.994  0.8601  0.9490 -0.2310
  113SOL     OW 1237   2.438   2.662   0.248  0.3244 -0.2361 -0.0137
  113SOL    HW1 1238   2.438   2.572   0.204 -0.2983 -0.3230  0.1501
  113SOL    HW2 1239   2.385   2.726   0.193  1.1007  0.1415 -0.3326
  114SOL     OW 1240   6.106   2.035   6.721 -0.2020 -0.8905  0.4010
  114SOL    HW1 1241   6.124   1.937   6.716  2.1589 -0.5524  1.0487
  114SOL    HW2 1242   6.037   2.053   6.792 -0.6537 -2.0607  0.2773
  115SOL     OW 1243   1.506   3.673   0.502 -0.1321  0.2737  0.1629
  115SOL    HW1 1244   1.468   3.602   0.443  0.1698  1.6748 -1.8649
  115SOL    HW2 1245   1.539   3.633   0.587  1.8356 -2.3404 -1.6779
  116SOL     OW 1246   4.842   4.830   5.420  0.0856  0.1449  0.3028
  116SOL    HW1 1247   4.846   4.731   5.432  3.1246  0.1051 -0.1355
  116SOL    HW2 1248   4.849   4.852   5.323  1.1218  0.7792  0.5054
  117SOL     OW 1249   3.649   5.263   5.952 -0.6652  0.4119 -0.0580
  117SOL    HW1 1250   3.649   5.266   6.052 -2.5543  1.4500 -0.0195
  117SOL    HW2 1251   3.637   5.356   5.916  2.8443  0.5003 -1.3982
  118SOL     OW 1252   0.443   0.643   5.965 -0.0139  0.1856  0.3299
  118SOL    HW1 1253   0.396   0.679   5.885  1.0768  0.3605 -0.2531
  118SOL    HW2 1254   0.412   0.692   6.047 -0.0914  1.0095 -0.1769
  119SOL     OW 1255   0.720   0.999   2.785  0.0794 -0.5111  0.1495
  119SOL    HW1 1256   0.685   0.906   2.780 -0.0520 -0.4159 -3.6306
  119SOL    HW2 1257   0.804   1.007   2.732 -0.9047  1.8154 -1.2615
  120SOL     OW 1258   2.358   6.425   5.368  0.7522  0.6894 -0.2878
  120SOL    HW1 1259   2.366   6.327   5.386 -1.0648  0.5534 -0.0164
  120SOL    HW2 1260   2.399   6.476   5.443 -1.9537  0.1080  1.7263
  121SOL     OW 1261   6.379   4.123   1.759  0.1303 -0.0137  0.6215
  121SOL    HW1 1262   6.443   4.105   1.834  0.2519  1.2782  0.8556
  121SOL    HW2 1263   6.301   4.175   1.794  0.9290  1.9712 -0.3933
  122SOL     OW 1264   6.272   5.595   2.452 -0.3082  0.6632 -0.1930
  122SOL    HW1 1265   6.282   5.558   2.545 -0.6576  1.6075  0.2355
  122SOL    HW2 1266   6.212   5.536   2.399 -1.9204  1.2755  0.8737
  123SOL     OW 1267   6.434   0.314   4.616 -0.2873 -0.6100  0.2038
  123SOL    HW1 1268   6.462   0.313   4.712  1.3217  1.0964 -0.1843
  123SOL    HW2 1269   6.385   0.399   4.597  2.1215  0.5951 -1.1049
  124SOL     OW 1270   1.428   3.725   1.577  0.2536 -0.2817  0.7167
  124SOL    HW1 1271   1.402   3.820   1.559 -1.1879 -0.8116 -0.1563
  124SOL    HW2 1272   1.427   3.709   1.676 -0.6059  0.3277  0.8205
  125SOL     OW 1273   6.680   4.463   1.615 -0.6639 -0.0163  0.8368
  125SOL    HW1 1274   6.749   4.533   1.634  0.6968 -0.9718 -0.3254
  125SOL    HW2 1275   6.684   4.393   1.687  0.1750 -0.4705  0.3743
  126SOL     OW 1276   3.755   4.898   0.177  0.1322  0.5595  0.2109
  126SOL    HW1 1277   3.709   4.974   0.223 -0.3814  0.6371 -0.4253
  126SOL    HW2 1278   3.694   4.857   0.110  0.3638 -0.4949  0.6203
  127SOL     OW 1279   2.260   1.361   2.753  0.2094  0.3925 -0.6288
  127SOL    HW1 1280   2.221   1.453   2.747 -1.9280 -0.4713 -0.6090
  127SOL    HW2 1281   2.354   1.363   2.720 -0.0254  2.4331 -1.3116
  128SOL     OW 1282   6.279   6.167   1.376 -0.3996  0.1073  0.5731
  128SOL    HW1 1283   6.179   6.177   1.378 -0.6363 -1.2398 -1.1954
  128SOL    HW2 1284   6.303   6.073   1.403 -0.2558 -1.7883 -4.8283
  129SOL     OW 1285   1.929   2.521   2.567 -0.0505  0.6517 -0.3543
  129SOL    HW1 1286   1.846   2.474   2.598  0.4344  0.5998  0.9156
  129SOL    HW2 1287   1.902   2.604   2.517 -0.8952  0.9689  0.5681
  130SOL     OW 1288   6.913   2.216   1.243 -0.1939 -0.4957 -0.3562
  130SOL    HW1 1289   6.911   2.204   1.143  1.6783 -0.0530 -0.4908
  130SOL    HW2 1290   6.983   2.156   1.282 -1.7310 -1.5412  0.8581
  131SOL     OW 1291   5.607   4.884   6.872 -0.1005 -0.2220  0.2527
  131SOL    HW1 1292   5.521   4.866   6.920 -0.1075 -1.1947 -0.0984
  131SOL    HW2 1293   5.588   4.935   6.788 -0.1238  1.1882  1.0948
  132SOL     OW 1294   3.453   5.431   3.675 -0.3760 -0.2906 -0.7041
  132SOL    HW1 1295   3.464   5.380   3.760  1.4923 -1.4605 -1.5628
  132SOL    HW2 1296   3.429   5.367   3.601 -0.8694  0.5286 -1.2661
  133SOL     OW 1297   6.131   2.699   2.800  0.7371  0.2428  0.0217
  133SOL    HW1 1298   6.163   2.611   2.765  0.8388 -0.0839  0.9155
  133SOL    HW2 1299   6.096   2.754   2.724  0.0887 -0.8071 -0.4683
  134SOL     OW 1300   6.791   4.094   2.248 -0.4459 -0.4772  0.2177
  134SOL    HW1 1301   6.864   4.050   2.301 -1.6847 -0.4771  2.0081
  134SOL    HW2 1302   6.825   4.116   2.156  1.8805 -0.2788  1.0582
  135SOL     OW 1303   0.194   4.794   6.620 -0.6920  0.2207 -0.2228
  135SOL    HW1 1304   0.151   4.853   6.688  0.6496  1.3471 -0.3226
  135SOL    HW2 1305   0.274   4.749   6.659 -0.5023  0.0855 -0.7518
  136SOL     OW 1306   1.852   6.482   1.605 -0.3700 -0.7844 -0.7787
  136SOL    HW1 1307   1.803   6.482   1.517 -0.0482 -2.1777 -0.9793
  136SOL    HW2 1308   1.840   6.571   1.649 -1.5404 -0.4635 -1.6767
  137SOL     OW 1309   5.814   6.426   3.541  0.2924  0.1483 -0.3369
  137SOL    HW1 1310   5.722   6.430   3.580 -0.0911 -0.0840 -1.1976
  137SOL    HW2 1311   5.866   6.507   3.570  0.0928 -0.1180  0.8085
  138SOL     OW 1312   4.302   6.888   2.531 -0.3343  0.1382 -0.0174
  138SOL    HW1 1313   4.395   6.887   2.568  0.1610  0.5921 -1.2081
  138SOL    HW2 1314   4.285   6.977   2.488 -0.5663 -0.6858 -1.6737
  139SOL     OW 1315   4.035   2.257   5.153 -0.2055  0.5167 -1.0435
  139SOL    HW1 1316   4.084   2.333   5.108  0.9367  1.0025  0.9100
  139SOL    HW2 1317   3.990   2.291   5.235 -2.0941 -0.4009 -1.6484
  140SOL     OW 1318   5.164   2.131   4.562 -0.1893 -0.3106  0.3665
  140SOL    HW1 1319   5.257   2.093   4.554 -0.5029 -0.7824 -1.8592
  140SOL    HW2 1320   5.097   2.058   4.552 -0.8417  0.0071  2.1351
  141SOL     OW 1321   3.122   2.465   5.896  0.4240 -0.0267  0.2847
  141SOL    HW1 1322   3.194   2.444   5.962 -0.2032  0.2332  1.0677
  141SOL    HW2 1323   3.163   2.477   5.805  1.2858 -0.4820  0.6004
  142SOL     OW 1324   2.703   0.991   1.743  0.0238  0.2292 -0.0847
  142SOL    HW1 1325   2.771   1.009   1.814 -0.4708  0.3663  0.3624
  142SOL    HW2 1326   2.645   1.072   1.731 -0.0232  0.1350 -0.5064
  143SOL     OW 1327   5.069   1.052   4.089 -0.1416 -0.2961  0.1994
  143SOL    HW1 1328   5.085   0.978   4.155  1.9385  0.9112  1.1471
  143SOL    HW2 1329   5.113   1.136   4.121  1.1697  0.2979 -2.8157
  144SOL     OW 1330   2.153   2.313   0.834  0.5594 -0.1563 -0.0033
  144SOL    HW1 1331   2.078   2.284   0.776  0.4397 -1.9702  0.9996
  144SOL    HW2 1332   2.164   2.249   0.910  1.3339  1.5903  1.4537
  145SOL     OW 1333   2.249   2.993   2.801  0.2652 -0.2670  0.4292
  145SOL    HW1 1334   2.161   2.961   2.769  1.0163  0.5963 -2.8779
  145SOL    HW2 1335   2.312   3.001   2.724  3.4785 -1.4110  2.7069
  146SOL     OW 1336   6.900   5.250   2.588  0.3798  0.2274  0.2295
  146SOL    HW1 1337   6.992   5.236   2.624  0.6809  1.4206 -0.0320
  146SOL    HW2 1338   6.877   5.175   2.526  0.5609 -0.8846  1.4669
  147SOL     OW 1339   6.056   6.040   2.209 -0.0145 -0.2722 -0.7720
  147SOL    HW1 1340   6.109   6.043   2.294 -1.4029 -0.4997  0.1569
  147SOL    HW2 1341   5.970   5.990   2.226 -0.9180  0.8074 -1.9609
  148SOL     OW 1342   1.653   6.957   6.104  0.1653  0.4563  0.5184
  148SOL    HW1 1343   1.654   6.862   6.136  0.3335  0.2218 -0.1662
  148SOL    HW2 1344   1.569   7.001   6.136 -1.7923 -1.0210 -2.2071
  149SOL     OW 1345   3.585   3.141   0.239 -0.8317  0.4606  0.0548
  149SOL    HW1 1346   3.654   3.076   0.206 -0.8317  1.0204 -1.0709
  149SOL    HW2 1347   3.516   3.155   0.169 -1.3900  0.9166  0.6828
  150SOL     OW 1348   4.441   7.018   0.109 -0.0038  0.2014  0.1520
  150SOL    HW1 1349   4.351   6.975   0.110 -0.3072  0.7785 -1.0336
  150SOL    HW2 1350   4.464   7.050   0.201 -0.8630 -0.2336  0.5273
  151SOL     OW 1351   4.531   3.554   0.599 -0.4668  0.0332  0.2898
  151SOL    HW1 1352   4.448   3.501   0.614  0.8954 -3.2700 -2.5059
  151SOL    HW2 1353   4.551   3.559   0.501  2.1132  1.6139  0.7888
  152SOL     OW 1354   4.365   4.767   3.911 -0.7439 -0.6514 -0.5104
  152SOL    HW1 1355   4.277   4.786   3.955  0.0136  1.3009  0.2689
  152SOL    HW2 1356   4.411   4.693   3.959 -1.5797 -1.1104 -0.3989
  153SOL     OW 1357   6.019   2.413   2.023  0.1600  0.2339 -0.0267
  153SOL    HW1 1358   6.116   2.396   2.010  0.4356  0.6913  1.2401
  153SOL    HW2 1359   5.983   2.350   2.092 -0.7639 -0.8311 -1.4511
  154SOL     OW 1360   3.826   4.538   5.392 -0.0703  0.4875  0.5679
  154SOL    HW1 1361   3.884   4.609   5.351  0.3313 -1.7815 -3.2980
  154SOL    HW2 1362   3.731   4.552   5.362  0.0805 -0.7515 -0.5775
  155SOL     OW 1363   5.245   3.125   2.007  0.4154 -0.0207  1.4008
  155SOL    HW1 1364   5.195   3.211   2.010  1.2622  0.4895  1.3385
  155SOL    HW2 1365   5.283   3.112   1.915 -0.5007 -0.9339  1.1376
  156SOL     OW 1366   4.040   0.149   0.914 -1.3246 -0.2789  0.3055
  156SOL    HW1 1367   4.050   0.059   0.872 -0.0642  0.8628 -2.0435
  156SOL    HW2 1368   3.964   0.198   0.872 -0.5063  0.6160 -0.1804
  157SOL     OW 1369   0.128   0.200   5.104 -0.2512  0.8297 -0.2988
  157SOL    HW1 1370   0.118   0.105   5.073 -2.6428  1.4482 -1.6759
  157SOL    HW2 1371   0.052   0.223   5.165  0.3033  1.8920  0.0189
  158SOL     OW 1372   4.349   6.658   2.827  0.2614  0.1526  0.1492
  158SOL    HW1 1373   4.373   6.749   2.859  0.3593  0.0205  0.4597
  158SOL    HW2 1374   4.383   6.590   2.892  1.2833 -0.1826 -0.7123
  159SOL     OW 1375   2.000   3.982   1.833 -0.0393  0.1689  0.3203
  159SOL    HW1 1376   2.075   3.935   1.878  0.0136  0.4075  0.4779
  159SOL    HW2 1377   2.032   4.021   1.746 -0.4523 -1.4434 -0.6120
  160SOL     OW 1378   0.575   3.517   3.790 -0.5607 -0.2656 -0.4926
  160SOL    HW1 1379   0.536   3.446   3.849 -1.2947 -1.2219 -2.0794
  160SOL    HW2 1380   0.603   3.477   3.703  1.2780  0.9653 -0.5248
  161SOL     OW 1381   1.557   4.422   0.815  0.0184  0.1876 -0.1574
  161SOL    HW1 1382   1.477   4.472   0.782 -0.4389  0.2201  0.9354
  161SOL    HW2 1383   1.532   4.368   0.896  1.1802  0.5294  0.4668
  162SOL     OW 1384   3.954   4.954   2.732  0.0446  0.1153  0.4003
  162SOL    HW1 1385   4.024   4.999   2.788  0.4997 -1.1283  0.8537
  162SOL    HW2 1386   3.869   4.948   2.784  0.2832 -0.4633  0.7327
  163SOL     OW 1387   1.767   2.605   3.779  0.5235  0.2858 -0.4937
  163SOL    HW1 1388   1.807   2.519   3.809  0.7021  1.1675  2.0529
  163SOL    HW2 1389   1.669   2.606   3.801  0.5715  0.8178 -0.2933
  164SOL     OW 1390   1.901   5.979   2.239 -0.1704 -0.7004 -0.2881
  164SOL    HW1 1391   1.999   5.969   2.256 -0.6936 -1.4814  2.9649
  164SOL    HW2 1392   1.875   5.922   2.161  2.0827  0.5055 -2.0606
  165SOL     OW 1393   3.368   6.278   3.421 -0.3564  1.0031  0.5302
  165SOL    HW1 1394   3.329   6.370   3.415 -1.3394  0.5255 -1.1308
  165SOL    HW2 1395   3.361   6.233   3.332  1.7810 -0.0403  0.8386
  166SOL     OW 1396   0.693   3.488   0.629  0.2292  0.1233  0.0135
  166SOL    HW1 1397   0.699   3.501   0.728 -0.9767  2.4199 -0.1243
  166SOL    HW2 1398   0.647   3.402   0.609 -0.0281 -0.1033  1.4683
  167SOL     OW 1399   1.656   3.154   0.610  0.8138 -0.5909 -0.2689
  167SOL    HW1 1400   1.657   3.143   0.511 -1.0684  1.2000 -0.5549
  167SOL    HW2 1401   1.648   3.065   0.654  0.2845 -1.3229 -1.7808
  168SOL     OW 1402   1.212   3.783   5.973 -0.1368 -0.0766  0.2391
  168SOL    HW1 1403   1.172   3.818   5.888  0.0849 -0.7397 -0.1445
  168SOL    HW2 1404   1.197   3.849   6.047  1.5508  1.5162 -0.7762
  169SOL     OW 1405   5.296   2.451   2.861  0.3240 -0.3858  0.3795
  169SOL    HW1 1406   5.219   2.513   2.847  0.1230 -0.0773  2.6137
  169SOL    HW2 1407   5.336   2.467   2.951  2.0999 -1.5450 -0.1533
  170SOL     OW 1408   5.511   3.157   4.118  0.3063 -0.5456  0.2339
  170SOL    HW1 1409   5.428   3.171   4.173 -0.3840 -0.2093 -0.8617
  170SOL    HW2 1410   5.511   3.064   4.081  0.1973 -0.4020 -0.1267
  171SOL     OW 1411   1.269   2.071   3.832  0.4829 -0.3004 -0.5901
  171SOL    HW1 1412   1.222   2.068   3.920 -0.7500  1.8561 -1.1087
  171SOL    HW2 1413   1.202   2.083   3.758  1.6681  0.7280 -1.5483
  172SOL     OW 1414   5.273   0.783   0.114 -0.4740  0.0468 -0.0710
  172SOL    HW1 1415   5.185   0.815   0.150 -0.9049 -0.9192 -0.2317
  172SOL    HW2 1416   5.284   0.685   0.135 -0.1236 -0.2119 -1.3755
  173SOL     OW 1417   5.118   3.077   1.479 -0.4221 -0.0414  0.3671
  173SOL    HW1 1418   5.061   3.055   1.400  1.7799 -2.1810 -0.7635
  173SOL    HW2 1419   5.112   3.003   1.545  1.3905 -0.5645 -0.0183
  174SOL     OW 1420   2.123   5.886   1.834 -0.1417  0.1226  0.3540
  174SOL    HW1 1421   2.099   5.791   1.855  2.1330 -0.3930  0.9117
  174SOL    HW2 1422   2.039   5.939   1.821 -1.5488 -2.4855 -2.6687
  175SOL     OW 1423   1.152   6.974   1.594 -0.1938  0.6330  0.6671
  175SOL    HW1 1424   1.140   7.068   1.561 -3.0744  0.0506 -0.2267
  175SOL    HW2 1425   1.069   6.943   1.639  1.1399 -1.1213  2.0839
  176SOL     OW 1426   1.768   4.654   3.364  0.2288 -0.1947 -0.0189
  176SOL    HW1 1427   1.814   4.568   3.386  1.0590  0.2100 -0.1500
  176SOL    HW2 1428   1.827   4.710   3.307 -0.2081  0.5802  0.2778
  177SOL     OW 1429   3.788   1.583   1.285 -1.1039  0.1320  0.0462
  177SOL    HW1 1430   3.771   1.681   1.291 -2.2024  0.0984 -1.7979
  177SOL    HW2 1431   3.735   1.544   1.209  0.0734 -1.7086  0.0986
  178SOL     OW 1432   5.200   5.820   4.852  0.6157  0.3166 -0.4804
  178SOL    HW1 1433   5.184   5.727   4.883  0.4779  0.3803 -0.3570
  178SOL    HW2 1434   5.294   5.847   4.875 -0.3437  1.4166  2.6724
  179SOL     OW 1435   0.252   3.937   6.871 -0.5785  0.5756  0.5972
  179SOL    HW1 1436   0.269   3.990   6.787  1.1680 -0.1654  0.4354
  179SOL    HW2 1437   0.190   3.988   6.930 -1.2424  1.4702 -0.8016
  180SOL     OW 1438   6.795   6.676   3.765 -0.2802  0.0178  0.0748
  180SOL    HW1 1439   6.753   6.760   3.799  0.8503 -0.3650  2.6603
  180SOL    HW2 1440   6.861   6.699   3.694  1.7152  1.7088  2.2912
  181SOL     OW 1441   2.110   0.212   1.241 -0.5978 -0.0495 -0.8244
  181SOL    HW1 1442   2.063   0.182   1.323 -1.4766 -0.8517 -1.5964
  181SOL    HW2 1443   2.124   0.134   1.180  1.1379  0.3007 -0.9197
  182SOL     OW 1444   2.570   4.758   5.367  0.3657  0.0432  0.0092
  182SOL    HW1 1445   2.531   4.833   5.421 -0.1879 -0.5475  0.4449
  182SOL    HW2 1446   2.651   4.791   5.318 -1.1813  1.6009 -1.7020
  183SOL     OW 1447   0.651   4.561   3.680 -0.3525  0.2264 -0.4080
  183SOL    HW1 1448   0.699   4.524   3.760 -0.1075 -0.8686 -1.0416
  183SOL    HW2 1449   0.705   4.636   3.641 -1.1506  1.7317  1.2498
  184SOL     OW 1450   6.451   0.070   3.210 -0.1517 -0.2702 -0.0993
  184SOL    HW1 1451   6.457  -0.029   3.195 -1.9718 -0.2265 -1.4024
  184SOL    HW2 1452   6.523   0.116   3.157 -0.3385 -0.7988 -0.8262
  185SOL     OW 1453   0.040   6.839   3.859 -0.0155  0.3825 -0.4327
  185SOL    HW1 1454   0.006   6.829   3.952 -1.4071  0.3006 -0.9304
  185SOL    HW2 1455   0.129   6.794   3.851  1.0573  2.0560  1.3353
  186SOL     OW 1456   0.476   5.791   4.308 -0.1582  0.1053 -0.4504
  186SOL    HW1 1457   0.575   5.778   4.306  0.4795  3.4377  1.3871
  186SOL    HW2 1458   0.449   5.849   4.231  0.2543  3.2637  1.6018
  187SOL     OW 1459   0.446   5.549   2.715 -0.1759 -0.0290  0.3513
  187SOL    HW1 1460   0.499   5.489   2.774  0.6360  0.3610  0.0386
  187SOL    HW2 1461   0.460   5.644   2.742  1.9689  0.3550 -1.7540
  188SOL     OW 1462   0.175   0.885   3.236 -0.3849  0.0246  0.2608
  188SOL    HW1 1463   0.218   0.826   3.304 -0.1981  1.4103  1.4095
  188SOL    HW2 1464   0.199   0.855   3.144  2.2569  0.1635  0.8412
  189SOL     OW 1465   5.990   0.643   3.813 -0.6836 -0.3051 -0.1991
  189SOL    HW1 1466   5.997   0.547   3.786 -1.0462 -0.4690  0.2676
  189SOL    HW2 1467   6.067   0.666   3.873  0.1103  0.0529 -1.3161
  190SOL     OW 1468   0.936   6.132   4.844  0.6316 -0.1734  0.5946
  190SOL    HW1 1469   0.873   6.207   4.823  0.5308  0.0925  1.8019
  190SOL    HW2 1470   0.969   6.140   4.938  0.0829 -2.0282  0.9957
  191SOL     OW 1471   2.680   5.384   1.796  0.5067  0.1550 -0.2509
  191SOL    HW1 1472   2.691   5.353   1.701 -0.8155  0.9947 -0.7019
  191SOL    HW2 1473   2.612   5.326   1.842  1.1370 -0.2428  0.2007
  192SOL     OW 1474   6.316   3.066   5.942 -0.1186 -0.3244 -0.0532
  192SOL    HW1 1475   6.413   3.046   5.960 -0.0089 -0.4840 -0.8189
  192SOL    HW2 1476   6.264   2.981   5.941 -0.2267 -0.2614  0.0801
  193SOL     OW 1477   4.335   0.171   4.720 -0.1984 -0.7385 -0.3522
  193SOL    HW1 1478   4.395   0.154   4.642 -2.0891 -0.0668 -2.0298
  193SOL    HW2 1479   4.375   0.130   4.802  3.6359  1.4817 -0.8600
  194SOL     OW 1480   6.284   6.360   6.029 -1.0298 -0.1993  0.0134
  194SOL    HW1 1481   6.330   6.398   6.109  2.5629 -1.2530 -1.3238
  194SOL    HW2 1482   6.236   6.276   6.054  2.1609 -1.9430  0.7852
  195SOL     OW 1483   4.587   4.834   2.066 -0.0190 -0.1147 -0.2873
  195SOL    HW1 1484   4.557   4.757   2.121  1.2807  0.2075  0.9212
  195SOL    HW2 1485   4.514   4.903   2.061 -1.0801 -1.2654 -1.1464
  196SOL     OW 1486   3.316   6.956   1.760 -0.9787 -0.2227  0.0625
  196SOL    HW1 1487   3.271   6.973   1.847 -0.7127  0.9836 -0.0181
  196SOL    HW2 1488   3.255   6.904   1.700 -2.5150  1.8274 -0.2433
  197SOL     OW 1489   5.716   0.775   6.245 -0.2689  0.2692  0.3183
  197SOL    HW1 1490   5.789   0.834   6.282 -0.2098  1.5900 -1.7569
  197SOL    HW2 1491   5.755   0.688   6.217  0.4027  0.7013 -0.1200
  198SOL     OW 1492   2.890   0.283   2.590  0.1564  0.3149 -0.0873
  198SOL    HW1 1493   2.896   0.214   2.517 -1.9678  0.2482 -0.2709
  198SOL    HW2 1494   2.800   0.277   2.633  0.6965  1.6285  1.2880
  199SOL     OW 1495   4.012   1.040   1.809  0.0540 -0.1950 -0.3814
  199SOL    HW1 1496   4.078   0.992   1.868  0.7368  0.3364 -0.6973
  199SOL    HW2 1497   4.011   0.998   1.719  1.5300  1.0518 -1.0366
  200SOL     OW 1498   0.817   5.092   4.479 -0.3155 -0.0886  0.0917
  200SOL    HW1 1499   0.857   5.182   4.495 -2.9353  1.1058  0.4902
  200SOL    HW2 1500   0.786   5.053   4.566  0.3022 -1.1652 -0.1476
  201SOL     OW 1501   1.507   5.918   4.641 -0.1638  0.1846  0.3879
  201SOL    HW1 1502   1.550   5.829   4.656 -0.7351  0.0433  1.3374
  201SOL    HW2 1503   1.444   5.937   4.717 -0.6416  1.0450 -0.2056
  202SOL     OW 1504   0.009   0.146   5.967  0.0835 -0.1988 -0.2969
  202SOL    HW1 1505  -0.037   0.221   5.919 -1.1241 -1.1751 -0.7051
  202SOL    HW2 1506   0.093   0.122   5.919  0.2248  0.5422 -0.4411
  203SOL     OW 1507   6.836   0.564   1.806  0.3410  0.1276  0.3130
  203SOL    HW1 1508   6.764   0.523   1.751  0.2962  1.3066 -0.5522
  203SOL    HW2 1509   6.881   0.493   1.860 -0.8275 -0.7696  0.1508
  204SOL     OW 1510   4.125   0.325   4.687  0.0118 -0.5410  0.1405
  204SOL    HW1 1511   4.045   0.282   4.729  1.1220  0.3367  3.5302
  204SOL    HW2 1512   4.206   0.270   4.706  0.9012  1.0872  1.2855
  205SOL     OW 1513   5.042   2.273   0.372  0.2161  0.2160  0.4102
  205SOL    HW1 1514   4.950   2.234   0.366  0.8177 -1.1037 -0.7996
  205SOL    HW2 1515   5.039   2.358   0.425 -1.7862  0.4892 -0.0675
  206SOL     OW 1516   6.280   3.235   6.840 -0.6438  0.4850 -0.5775
  206SOL    HW1 1517   6.255   3.194   6.752 -1.2536 -2.0357  0.6823
  206SOL    HW2 1518   6.245   3.178   6.915  2.7624  0.5795  1.3129
  207SOL     OW 1519   6.469   2.830   0.003 -0.1080  0.6692  0.1507
  207SOL    HW1 1520   6.390   2.823  -0.057  0.8856  0.6294 -1.2022
  207SOL    HW2 1521   6.444   2.799   0.095 -1.2348 -0.8762 -0.6303
  208SOL     OW 1522   2.973   5.545   2.143 -0.3056  0.1734 -0.1958
  208SOL    HW1 1523   3.036   5.484   2.189  0.2439  0.9033  0.0398
  208SOL    HW2 1524   3.022   5.627   2.113 -0.6564 -0.2353 -1.9979
  209SOL     OW 1525   2.237   4.284   5.110 -0.1650  0.2248  0.6918
  209SOL    HW1 1526   2.174   4.250   5.180  1.5734 -1.7621  1.3879
  209SOL    HW2 1527   2.272   4.207   5.056  1.0860  1.3404 -0.1609
  210SOL     OW 1528   0.839   6.320   4.253  0.1625 -0.6026  0.2323
  210SOL    HW1 1529   0.745   6.339   4.283  0.2548  0.0842  0.1012
  210SOL    HW2 1530   0.902   6.384   4.297  0.2360  0.8862 -1.8513
  211SOL     OW 1531   5.954   2.014   2.260  0.0389  0.2509 -0.3449
  211SOL    HW1 1532   5.887   2.086   2.275  0.0773  0.4795 -1.2023
  211SOL    HW2 1533   6.019   2.011   2.336  0.3150  1.4407 -0.5228
  212SOL     OW 1534   3.690   3.062   5.327 -0.2592 -0.1990 -0.2006
  212SOL    HW1 1535   3.703   3.115   5.411  3.3739 -1.6674  0.3563
  212SOL    HW2 1536   3.754   3.094   5.257  1.4283 -3.0733 -0.1220
  213SOL     OW 1537   0.747   5.800   4.021 -0.5535 -0.1549 -0.3821
  213SOL    HW1 1538   0.810   5.872   3.992 -1.7832  1.5688  0.9736
  213SOL    HW2 1539   0.662   5.807   3.970 -1.7571  1.2712  1.6510
  214SOL     OW 1540   3.032   5.878   2.224  0.1534 -0.2505  0.4033
  214SOL    HW1 1541   3.100   5.825   2.173  0.0285 -0.5081  0.5045
  214SOL    HW2 1542   3.047   5.975   2.208  2.1723 -0.1447  2.3835
  215SOL     OW 1543   6.070   2.728   4.479 -0.1921 -0.5172  0.2113
  215SOL    HW1 1544   6.083   2.674   4.562 -1.0867 -0.1907  0.5751
  215SOL    HW2 1545   5.973   2.728   4.454 -0.1779  0.7547  0.1099
  216SOL     OW 1546   0.562   6.409   4.889 -0.1630 -0.2164  0.4665
  216SOL    HW1 1547   0.492   6.392   4.820  0.5773  1.5183 -0.8020
  216SOL    HW2 1548   0.542   6.495   4.936 -0.0523 -0.8196  1.6612
  217SOL     OW 1549   1.895   6.036   1.194  0.4342  0.3911  0.0786
  217SOL    HW1 1550   1.805   6.016   1.233  1.2526 -1.8351  0.9879
  217SOL    HW2 1551   1.945   5.951   1.178  1.8906  1.4874 -1.6971
  218SOL     OW 1552   6.604   1.105   5.475  0.7665  0.4744  0.5636
  218SOL    HW1 1553   6.574   1.201   5.484 -3.7171 -0.5429 -0.8906
  218SOL    HW2 1554   6.659   1.094   5.393 -0.8259  1.4646 -0.6850
  219SOL     OW 1555   0.704   1.669   1.496  0.0189  0.4818  0.3982
  219SOL    HW1 1556   0.664   1.754   1.460 -1.5871  0.4646  2.0350
  219SOL    HW2 1557   0.759   1.690   1.576 -1.5768 -0.1255  1.7060
  220SOL     OW 1558   3.685   1.517   2.209 -0.2465 -0.5535  0.5119
  220SOL    HW1 1559   3.599   1.530   2.260  0.5082  0.0703  1.6591
  220SOL    HW2 1560   3.716   1.605   2.174  0.3017 -0.6498  0.7407
  221SOL     OW 1561   5.490   6.053   2.560 -0.0614  0.0657  0.0404
  221SOL    HW1 1562   5.579   6.057   2.605 -0.9410  0.7133  1.8273
  221SOL    HW2 1563   5.489   5.977   2.496  2.0124  0.5004 -0.6017
  222SOL     OW 1564   3.934   5.862   4.474 -0.3379  0.2793 -0.5340
  222SOL    HW1 1565   3.961   5.803   4.549  0.9742  1.5480  0.0477
  222SOL    HW2 1566   3.844   5.901   4.492 -0.4140 -0.1182 -0.0566
  223SOL     OW 1567   2.142   2.080   4.801  0.0554  0.5507 -0.3725
  223SOL    HW1 1568   2.048   2.115   4.794  0.2338  1.2232  0.4005
  223SOL    HW2 1569   2.206   2.157   4.801  0.5086  0.1915  0.6164
  224SOL     OW 1570   1.190   4.457   5.115 -0.2019  0.1733 -0.2335
  224SOL    HW1 1571   1.091   4.447   5.123 -0.0023 -1.4992  0.4513
  224SOL    HW2 1572   1.214   4.468   5.019 -1.0630  1.0461 -0.3743
  225SOL     OW 1573   6.121   0.457   0.573  0.4181  0.2318  0.0182
  225SOL    HW1 1574   6.123   0.392   0.648 -1.3209 -0.3453 -0.3918
  225SOL    HW2 1575   6.137   0.409   0.487 -0.3841  0.4160 -0.2399
  226SOL     OW 1576   2.968   4.659   5.401 -0.0797  0.1163  0.1245
  226SOL    HW1 1577   3.053   4.624   5.440  1.0464  1.4933 -0.9966
  226SOL    HW2 1578   2.941   4.601   5.324  0.4738  0.3076 -0.2228
  227SOL     OW 1579   4.397   6.577   6.126  0.2233  0.3160 -0.3502
  227SOL    HW1 1580   4.331   6.611   6.193 -0.2729  0.4926 -0.9153
  227SOL    HW2 1581   4.455   6.652   6.095  0.3502  0.2660 -0.2348
  228SOL     OW 1582   5.805   5.556   4.370 -0.1594  0.2753  0.6323
  228SOL    HW1 1583   5.766   5.599   4.289 -0.5931 -1.1972  0.0312
  228SOL    HW2 1584   5.883   5.610   4.402  1.2971 -0.1065 -1.9416
  229SOL     OW 1585   2.614   5.591   1.462 -0.2364  0.5359  0.1282
  229SOL    HW1 1586   2.686   5.660   1.456 -1.2795  1.5931 -0.5375
  229SOL    HW2 1587   2.621   5.529   1.384 -1.8333  2.4720 -1.6856
  230SOL     OW 1588   5.784   3.475   4.009 -0.9677  0.3244 -0.0374
  230SOL    HW1 1589   5.753   3.430   3.925 -0.6543 -1.4901  0.7646
  230SOL    HW2 1590   5.774   3.413   4.086 -0.8885  1.8191  1.2293
  231SOL     OW 1591   3.091   6.938   2.454  0.5068  0.0456 -0.2364
  231SOL    HW1 1592   3.179   6.892   2.447  1.0014  1.0455 -0.7375
  231SOL    HW2 1593   3.043   6.933   2.367  1.3409  1.9557 -0.8686
  232SOL     OW 1594   5.095   2.182   2.419 -0.2950  0.0613 -0.4807
  232SOL    HW1 1595   5.154   2.212   2.494 -0.8534  3.4191 -1.2073
  232SOL    HW2 1596   4.999   2.199   2.443 -0.6353 -0.8343 -1.1562
  233SOL     OW 1597   2.139   5.856   1.274  0.4204  0.2241 -0.1776
  233SOL    HW1 1598   2.118   5.850   1.372  1.6985  0.7161  0.1422
  233SOL    HW2 1599   2.132   5.765   1.234 -1.0576  0.1683  0.1558
  234SOL     OW 1600   6.181   4.279   6.678 -0.1732 -0.2766  0.5126
  234SOL    HW1 1601   6.174   4.348   6.750  2.5151 -1.9495  2.6258
  234SOL    HW2 1602   6.123   4.201   6.700 -2.1448  0.6415 -1.1466
  235SOL     OW 1603   4.372   6.566   5.441 -0.2664 -0.0509  0.1130
  235SOL    HW1 1604   4.420   6.580   5.527  0.0785 -0.5591  0.0080
  235SOL    HW2 1605   4.276   6.544   5.460 -0.4153  0.7683  0.3283
  236SOL     OW 1606   0.484   5.076   3.341 -0.3728  0.6709 -0.4835
  236SOL    HW1 1607   0.496   5.141   3.267 -0.4544  0.1253 -0.9905
  236SOL    HW2 1608   0.405   5.018   3.322 -0.0624  0.1557 -0.2495
  237SOL     OW 1609   1.097   3.860   5.734  0.5152  0.7284  0.0221
  237SOL    HW1 1610   1.040   3.785   5.700 -2.1613  1.5770  2.3117
  237SOL    HW2 1611   1.154   3.895   5.659 -1.5700 -0.5259 -2.2955
  238SOL     OW 1612   2.786   6.014   6.150 -0.0900 -0.1417  0.1983
  238SOL    HW1 1613   2.726   5.953   6.098 -0.4690 -0.1114  0.6015
  238SOL    HW2 1614   2.873   5.967   6.168  1.1668  0.7663 -2.7981
  239SOL     OW 1615   4.746   1.661   0.665  0.4518  0.4023 -0.0974
  239SOL    HW1 1616   4.786   1.716   0.738  1.1019  1.0663 -0.9374
  239SOL    HW2 1617   4.646   1.662   0.675  0.5402  0.2113  0.9612
  240SOL     OW 1618   4.353   1.418   7.006 -0.8837  0.1305  0.2954
  240SOL    HW1 1619   4.388   1.332   6.969  3.7273  1.0784  1.7873
  240SOL    HW2 1620   4.316   1.402   7.098  1.6127 -0.1693  1.3321
  241SOL     OW 1621   4.102   0.191   4.150 -0.7628 -0.1583 -0.1083
  241SOL    HW1 1622   4.117   0.289   4.149  1.6523 -0.4741 -0.2019
  241SOL    HW2 1623   4.114   0.155   4.242  2.3769 -0.8204 -0.6661
  242SOL     OW 1624   5.305   0.171   1.498  0.0770  0.0959 -0.0696
  242SOL    HW1 1625   5.277   0.214   1.412 -0.6833 -1.3677 -0.5952
  242SOL    HW2 1626   5.275   0.228   1.575 -2.2573 -0.1940 -0.6964
  243SOL     OW 1627   5.010   0.147   1.407  0.1772 -0.2607 -0.4472
  243SOL    HW1 1628   5.091   0.125   1.461  0.3863 -0.8469 -0.9939
  243SOL    HW2 1629   5.035   0.158   1.311 -0.1792  0.8712 -0.4278
  244SOL     OW 1630   6.817   6.426   6.901  0.1764  0.1607  0.2613
  244SOL    HW1 1631   6.899   6.416   6.957  0.0872  0.2232  0.4049
  244SOL    HW2 1632   6.809   6.521   6.870 -0.4123  0.4142  1.1466
  245SOL     OW 1633   2.815   1.195   5.298  0.2258 -0.0870  0.7799
  245SOL    HW1 1634   2.882   1.263   5.268  0.9489 -1.3102 -0.5529
  245SOL    HW2 1635   2.852   1.145   5.377 -0.0201  0.5957  1.3380
  246SOL     OW 1636   1.457   5.966   5.033  0.9321  0.4480 -0.7486
  246SOL    HW1 1637   1.401   5.997   4.957  2.0482 -0.6287 -2.0592
  246SOL    HW2 1638   1.522   6.038   5.057 -0.5027  1.4333  0.3293
  247SOL     OW 1639   1.299   4.513   1.597  0.7888 -0.1631  0.4200
  247SOL    HW1 1640   1.257   4.423   1.598 -0.1245  0.0864 -3.1594
  247SOL    HW2 1641   1.389   4.509   1.639  0.7021 -2.6703  0.4708
  248SOL     OW 1642   4.377   4.999   2.121  0.1763 -0.0975  0.2985
  248SOL    HW1 1643   4.307   5.053   2.074  0.0276 -0.4698  0.0860
  248SOL    HW2 1644   4.333   4.920   2.166  0.5023 -0.5341 -0.1401
  249SOL     OW 1645   2.844   2.296   4.389  0.1473 -0.7279  0.1220
  249SOL    HW1 1646   2.917   2.252   4.442  0.5436 -0.5909 -0.2971
  249SOL    HW2 1647   2.870   2.297   4.293 -0.3681 -0.5809 -0.0151
  250SOL     OW 1648   4.833   6.850   4.180  0.0935 -0.2524 -0.2728
  250SOL    HW1 1649   4.899   6.776   4.193  0.7235  0.4172  0.4417
  250SOL    HW2 1650   4.844   6.918   4.252  0.4046  1.1895 -1.6163
  251SOL     OW 1651   2.702   0.324   0.999  0.5415  0.1168  0.5977
  251SOL    HW1 1652   2.643   0.401   0.975  1.2143  0.1309 -1.1947
  251SOL    HW2 1653   2.646   0.250   1.036 -0.5587  0.3467 -0.5236
  252SOL     OW 1654   6.524   3.705   1.481 -0.6794  0.0059 -0.2301
  252SOL    HW1 1655   6.520   3.745   1.572 -2.0996 -0.4955 -0.0569
  252SOL    HW2 1656   6.461   3.753   1.420 -0.2986 -0.1523 -0.7629
  253SOL     OW 1657   3.047   0.781   6.282 -0.4290  0.1630 -0.0219
  253SOL    HW1 1658   2.993   0.821   6.356  0.3040  0.4312  0.3779
  253SOL    HW2 1659   3.003   0.698   6.249 -0.9749  0.2663  0.4393
  254SOL     OW 1660   3.767   3.419   2.929 -0.1320  0.0113  0.1355
  254SOL    HW1 1661   3.803   3.345   2.986 -1.4796 -0.5604  0.2670
  254SOL    HW2 1662   3.770   3.504   2.981  0.7831 -0.0593  0.2260
  255SOL     OW 1663   5.137   3.364   1.880 -0.0261 -0.1136 -0.1584
  255SOL    HW1 1664   5.201   3.440   1.872  1.9138 -1.7679 -1.0142
  255SOL    HW2 1665   5.110   3.333   1.788 -1.2640 -0.1213  0.1848
  256SOL     OW 1666   1.422   1.749   0.798 -0.3983 -0.0857 -0.4633
  256SOL    HW1 1667   1.511   1.787   0.825 -0.4969 -0.3749  0.2679
  256SOL    HW2 1668   1.352   1.820   0.803 -0.6394 -0.4100  1.1893
  257SOL     OW 1669   2.018   6.537   0.042  0.0809 -0.4435  0.7087
  257SOL    HW1 1670   1.942   6.601   0.029  0.1232 -0.6720 -0.8909
  257SOL    HW2 1671   1.983   6.445   0.057  0.0294 -0.1637  2.6107
  258SOL     OW 1672   0.715   1.151   0.528  0.4206 -0.2873  0.1059
  258SOL    HW1 1673   0.750   1.123   0.618  0.6969 -1.7675 -0.4307
  258SOL    HW2 1674   0.615   1.163   0.533  0.5552  0.6901  0.8412
  259SOL     OW 1675   0.453   0.248   3.246 -0.3548  0.0992  0.6219
  259SOL    HW1 1676   0.463   0.192   3.164 -3.0741  1.9041 -1.1274
  259SOL    HW2 1677   0.397   0.200   3.313 -1.0612 -0.0779 -0.0745
  260SOL     OW 1678   6.744   2.609   4.151 -0.4325  0.6101  0.7676
  260SOL    HW1 1679   6.766   2.512   4.160 -0.8935  0.1183 -2.1973
  260SOL    HW2 1680   6.650   2.618   4.117  0.4292  1.8944 -1.5307
  261SOL     OW 1681   3.014   3.111   2.899  0.2074 -0.4443  0.1365
  261SOL    HW1 1682   3.035   3.155   2.987  0.8922  0.2048 -0.3403
  261SOL    HW2 1683   3.005   3.181   2.828 -3.5987 -0.6143  0.2257
  262SOL     OW 1684   2.522   0.056   4.912  0.2063  0.5443 -0.0500
  262SOL    HW1 1685   2.435   0.044   4.961  0.7758 -1.5326  0.5396
  262SOL    HW2 1686   2.503   0.093   4.821 -1.0902  2.0479  0.7604
  263SOL     OW 1687   5.144   3.730   3.574 -0.4248 -0.3065 -0.3252
  263SOL    HW1 1688   5.063   3.671   3.575 -0.8144  0.2265  0.1419
  263SOL    HW2 1689   5.177   3.743   3.667  0.6884 -1.1679 -0.5851
  264SOL     OW 1690   0.509   3.437   1.407  0.7419 -0.5113  0.2116
  264SOL    HW1 1691   0.475   3.528   1.428 -2.2807 -1.4485 -0.1543
  264SOL    HW2 1692   0.528   3.431   1.309  3.2970  0.3410  0.5743
  265SOL     OW 1693   4.981   1.751   6.881 -0.0367 -0.3464  0.2490
  265SOL    HW1 1694   4.930   1.665   6.882  0.1872 -0.4941 -0.4881
  265SOL    HW2 1695   5.078   1.733   6.891  0.0244 -0.1906 -0.0514
  266SOL     OW 1696   1.583   1.024   0.087  0.2308  0.1258  0.2337
  266SOL    HW1 1697   1.569   1.055   0.181 -0.8502 -0.2148  0.2034
  266SOL    HW2 1698   1.536   1.086   0.024 -1.1490 -1.0041  0.1080
  267SOL     OW 1699   5.055   2.847   3.550 -0.0252 -0.4586  0.1604
  267SOL    HW1 1700   5.141   2.887   3.520  1.5389 -2.3489  1.8548
  267SOL    HW2 1701   5.045   2.860   3.649 -0.7197 -1.9347  0.3153
  268SOL     OW 1702   3.266   5.435   3.169  0.0066 -0.0375  0.3127
  268SOL    HW1 1703   3.304   5.510   3.222 -0.2469  0.6440 -0.4552
  268SOL    HW2 1704   3.171   5.455   3.146  0.0764 -0.3817 -0.2940
  269SOL     OW 1705   2.773   6.204   3.959  0.6317  0.0662 -0.3743
  269SOL    HW1 1706   2.839   6.271   3.995  0.7760  0.2557 -0.9778
  269SOL    HW2 1707   2.799   6.112   3.989 -0.9964  0.4691  2.6462
  270SOL     OW 1708   4.803   4.837   6.575 -0.3211 -0.2971 -0.6280
  270SOL    HW1 1709   4.751   4.899   6.634  2.8955  0.3661  1.7796
  270SOL    HW2 1710   4.834   4.887   6.494  0.6704  0.7945  0.3770
  271SOL     OW 1711   4.690   3.705   6.030  0.8957 -0.3408 -0.4303
  271SOL    HW1 1712   4.778   3.748   6.007  0.3305 -1.3902 -5.8526
  271SOL    HW2 1713   4.700   3.606   6.026 -0.2263 -0.5202  0.7300
  272SOL     OW 1714   4.007   6.585   5.177  0.7459 -0.1775  0.6363
  272SOL    HW1 1715   3.972   6.594   5.084  2.4460  1.5730  0.0895
  272SOL    HW2 1716   4.101   6.549   5.174  1.5903  1.7833  1.4477
  273SOL     OW 1717   4.226   4.970   1.296 -0.0878 -0.4219 -0.0958
  273SOL    HW1 1718   4.263   5.010   1.380 -3.7099 -0.7492  1.8587
  273SOL    HW2 1719   4.201   4.875   1.312 -0.1039 -0.7336 -1.8082
  274SOL     OW 1720   5.227   6.190   2.944  0.5374  0.4292  0.0677
  274SOL    HW1 1721   5.295   6.159   2.878 -1.4553  1.8937 -2.9177
  274SOL    HW2 1722   5.228   6.290   2.948 -2.2499  0.6100 -1.2049
  275SOL     OW 1723   4.335   5.792   1.728  0.4088  0.0443 -0.0152
  275SOL    HW1 1724   4.337   5.773   1.630 -1.1358 -1.2670  0.1660
  275SOL    HW2 1725   4.319   5.707   1.779 -1.6670  1.0585  1.1748
  276SOL     OW 1726   3.246   1.884   5.750  0.2829 -0.4830  0.2371
  276SOL    HW1 1727   3.171   1.923   5.803 -0.7468 -1.5746 -0.3923
  276SOL    HW2 1728   3.257   1.935   5.664 -1.1301 -1.5679 -0.6330
  277SOL     OW 1729   2.716   3.128   6.088 -0.0598 -0.6962  0.0392
  277SOL    HW1 1730   2.758   3.041   6.115  0.4281 -1.8773 -3.7976
  277SOL    HW2 1731   2.787   3.198   6.078 -0.0331 -0.6777  0.3573
  278SOL     OW 1732   3.386   2.214   1.781 -0.3159  0.0996  0.1515
  278SOL    HW1 1733   3.337   2.209   1.694 -1.2413  0.9483  0.6028
  278SOL    HW2 1734   3.448   2.293   1.779  0.8648 -0.8034 -0.3105
  279SOL     OW 1735   2.393   0.878   1.442  0.5538 -0.0627 -0.0844
  279SOL    HW1 1736   2.459   0.853   1.371  0.6535 -0.7623  0.2545
  279SOL    HW2 1737   2.379   0.801   1.504  0.3158  0.4775  0.5434
  280SOL     OW 1738   4.960   0.967   1.903 -0.0370  0.0038 -0.4905
  280SOL    HW1 1739   4.955   0.876   1.943 -1.4445 -0.2165 -1.0969
  280SOL    HW2 1740   5.056   0.995   1.894  0.4682 -1.8297 -1.2448
  281SOL     OW 1741   2.349   6.317   0.955  0.3182 -0.3588 -0.0982
  281SOL    HW1 1742   2.254   6.336   0.982  0.6795  1.2054  0.1664
  281SOL    HW2 1743   2.349   6.249   0.881 -1.0079 -0.3730 -0.1230
  282SOL     OW 1744   5.734   1.209   0.263 -0.2687 -0.3809  0.2113
  282SOL    HW1 1745   5.718   1.113   0.287  0.8933 -1.0738 -1.5087
  282SOL    HW2 1746   5.811   1.245   0.316 -0.9431 -0.2709  1.1267
  283SOL     OW 1747   4.061   2.965   5.312  0.0687 -0.0999 -0.2362
  283SOL    HW1 1748   3.995   2.968   5.387  0.8906  0.4161  0.4946
  283SOL    HW2 1749   4.105   2.875   5.310  0.2089 -0.0398  0.0534
  284SOL     OW 1750   3.371   3.925   5.064 -0.0352  0.0593 -0.3273
  284SOL    HW1 1751   3.337   3.980   5.140 -0.2050 -0.5365  0.0385
  284SOL    HW2 1752   3.464   3.893   5.086  1.0028  2.0548 -1.5139
  285SOL     OW 1753   0.679   5.158   1.981 -0.6606 -0.3426  0.2908
  285SOL    HW1 1754   0.648   5.114   2.065 -4.7600  2.0533  0.2614
  285SOL    HW2 1755   0.690   5.257   1.997 -2.2664  0.3031 -2.0566
  286SOL     OW 1756   6.463   3.195   5.002 -0.0775 -0.2913 -0.4983
  286SOL    HW1 1757   6.496   3.201   4.908  0.4669 -0.3951 -0.3144
  286SOL    HW2 1758   6.382   3.137   5.005  0.8860 -1.6980 -0.6509
  287SOL     OW 1759   5.750   4.417   3.218  0.0650  0.0501 -0.2721
  287SOL    HW1 1760   5.790   4.358   3.149  1.0990 -0.4591  0.7310
  287SOL    HW2 1761   5.814   4.429   3.293 -1.0633  0.5106  0.6538
  288SOL     OW 1762   1.106   0.392   5.180  0.0533  0.1343  0.5989
  288SOL    HW1 1763   1.086   0.390   5.278 -2.0276  0.6332  0.2232
  288SOL    HW2 1764   1.171   0.465   5.161  0.5668 -0.0407  1.6192
  289SOL     OW 1765   0.476   5.368   6.535 -0.1207 -0.6091 -0.8507
  289SOL    HW1 1766   0.395   5.401   6.583  0.5111 -0.1371 -0.0954
  289SOL    HW2 1767   0.529   5.445   6.500  1.9762 -0.6129  1.9226
  290SOL     OW 1768   0.314   0.732   5.727  0.4128 -0.0349  0.1806
  290SOL    HW1 1769   0.218   0.707   5.722  0.7424 -1.6516  1.1214
  290SOL    HW2 1770   0.326   0.827   5.696 -1.7643  0.9393  2.0353
  291SOL     OW 1771   4.535   0.732   2.193  0.2730 -0.4752 -0.2591
  291SOL    HW1 1772   4.532   0.653   2.131 -2.4934 -0.0779 -0.7547
  291SOL    HW2 1773   4.568   0.812   2.143  0.9246 -0.8017 -0.3695
  292SOL     OW 1774   6.562   1.037   2.280 -0.2269  0.6337 -0.4060
  292SOL    HW1 1775   6.487   0.996   2.227  1.4048 -1.0669 -1.5408
  292SOL    HW2 1776   6.619   1.093   2.220  1.0934 -0.5275 -0.3061
  293SOL     OW 1777   3.655   3.280   6.274 -0.0618  0.1116 -0.2663
  293SOL    HW1 1778   3.643   3.180   6.277 -0.9011  0.2113  0.2270
  293SOL    HW2 1779   3.576   3.321   6.227 -0.0918  0.5967  0.2050
  294SOL     OW 1780   4.830   0.482   0.577 -0.5592 -0.0973 -0.4479
  294SOL    HW1 1781   4.888   0.548   0.625 -0.7894 -0.1280 -0.1182
  294SOL    HW2 1782   4.809   0.515   0.485  0.1244 -0.1723 -0.6348
  295SOL     OW 1783   6.621   6.310   3.545 -0.1658 -0.1353  0.0284
  295SOL    HW1 1784   6.605   6.355   3.633 -1.4721 -1.6370  0.6278
  295SOL    HW2 1785   6.592   6.369   3.471  0.8727  1.1256  0.5960
  296SOL     OW 1786   4.255   2.412   0.099 -0.6182 -0.4564  0.2121
  296SOL    HW1 1787   4.173   2.355   0.089  1.1576 -3.0843 -0.3459
  296SOL    HW2 1788   4.253   2.485   0.031 -1.5339 -1.7494 -1.2145
  297SOL     OW 1789   3.258   3.712   6.826 -0.0103 -0.2748 -0.2123
  297SOL    HW1 1790   3.266   3.794   6.769  0.7576 -1.5298 -1.9988
  297SOL    HW2 1791   3.186   3.653   6.790  0.1948 -0.9106  0.3929
  298SOL     OW 1792   7.008   2.936   5.716  0.2241  0.5362  0.5764
  298SOL    HW1 1793   7.014   3.035   5.728  0.1736  0.3349  2.7473
  298SOL    HW2 1794   7.057   2.908   5.633  3.1000  2.0320  1.6482
  299SOL     OW 1795   6.533   6.185   1.808 -0.3169 -0.2209 -0.6030
  299SOL    HW1 1796   6.562   6.245   1.733 -0.1235 -0.0797 -0.4144
  299SOL    HW2 1797   6.533   6.235   1.894  0.2049 -0.5881 -0.3829
  300SOL     OW 1798   2.915   1.148   6.132 -0.0710 -0.6511  0.5294
  300SOL    HW1 1799   2.856   1.228   6.144  2.3796  0.9310  3.3695
  300SOL    HW2 1800   2.928   1.103   6.221  0.9568 -2.4965 -0.5022
  301SOL     OW 1801   4.502   4.740   4.510 -0.5446 -0.0577 -0.0797
  301SOL    HW1 1802   4.447   4.725   4.593 -2.8343  1.7695 -1.1200
  301SOL    HW2 1803   4.568   4.666   4.499 -1.3717 -1.2768  2.4216
  302SOL     OW 1804   3.196   0.001   6.857  0.2647  0.0991  0.1185
  302SOL    HW1 1805   3.279   0.037   6.815  0.1970 -0.7510 -0.7682
  302SOL    HW2 1806   3.116   0.048   6.819  0.1631 -1.0783 -1.1861
  303SOL     OW 1807   4.551   5.678   1.484 -0.4805  0.1215 -0.0146
  303SOL    HW1 1808   4.539   5.602   1.548  0.4669 -0.5875 -0.6584
  303SOL    HW2 1809   4.461   5.711   1.456 -0.9208  0.3347  1.5182
  304SOL     OW 1810   6.990   0.336   2.429  0.7081 -0.3196 -0.5332
  304SOL    HW1 1811   6.981   0.362   2.333 -0.4809 -1.8621 -0.8687
  304SOL    HW2 1812   6.936   0.399   2.486 -1.8531 -1.6725 -1.2991
  305SOL     OW 1813   0.694   4.837   6.883 -0.2075 -0.9679  0.3146
  305SOL    HW1 1814   0.787   4.807   6.864 -0.7092 -2.2015 -0.3242
  305SOL    HW2 1815   0.634   4.757   6.891 -1.4800 -0.1692 -0.7615
  306SOL     OW 1816   0.057   0.662   5.295 -0.1345  0.0691  0.5452
  306SOL    HW1 1817   0.020   0.570   5.306 -0.6583  0.3132  0.8267
  306SOL    HW2 1818  -0.017   0.728   5.291  0.2621  0.5784  1.2663
  307SOL     OW 1819   0.888   5.618   3.468 -0.3031  0.0120 -0.2034
  307SOL    HW1 1820   0.808   5.574   3.426  1.1481 -2.4326 -0.5780
  307SOL    HW2 1821   0.887   5.602   3.566 -0.7259  0.8029 -0.0679
  308SOL     OW 1822   1.374   1.728   2.812 -0.2881  0.2822  0.4766
  308SOL    HW1 1823   1.317   1.810   2.803  1.4743  1.6124  0.8661
  308SOL    HW2 1824   1.414   1.705   2.723  0.8543  1.1141  0.7568
  309SOL     OW 1825   6.444   3.749   4.831  0.0927 -0.2831 -0.6497
  309SOL    HW1 1826   6.506   3.827   4.826 -1.1109  0.6034 -2.4931
  309SOL    HW2 1827   6.358   3.777   4.873  0.0485 -0.9194 -0.3019
  310SOL     OW 1828   0.212   4.886   5.335  0.1103  0.6867 -0.1854
  310SOL    HW1 1829   0.230   4.844   5.423 -0.4605  1.0425  0.1080
  310SOL    HW2 1830   0.128   4.940   5.340 -0.7630 -0.4890 -1.3541
  311SOL     OW 1831   6.163   3.469   2.316 -0.6792  0.1206 -0.3907
  311SOL    HW1 1832   6.064   3.473   2.331 -0.9920 -4.1627  0.0118
  311SOL    HW2 1833   6.210   3.474   2.404 -0.6930  0.2589 -0.3917
  312SOL     OW 1834   0.561   6.184   5.855  0.7547 -0.1748 -0.6945
  312SOL    HW1 1835   0.604   6.095   5.845  0.3748 -0.6470  1.5099
  312SOL    HW2 1836   0.501   6.200   5.776 -0.2580 -2.4854 -0.4679
  313SOL     OW 1837   1.560   3.415   3.550 -0.0464 -0.4034  0.0911
  313SOL    HW1 1838   1.516   3.425   3.639  0.7288  1.6541  0.2994
  313SOL    HW2 1839   1.622   3.492   3.534 -0.7342 -0.2726 -2.5441
  314SOL     OW 1840   6.380   0.633   4.222 -0.3881 -0.4231 -0.4623
  314SOL    HW1 1841   6.454   0.667   4.163 -2.6311 -0.0105 -3.2337
  314SOL    HW2 1842   6.361   0.701   4.293  1.6713 -0.4423  0.1812
  315SOL     OW 1843   3.068   1.628   4.378  0.1285 -0.1083  0.2851
  315SOL    HW1 1844   3.087   1.722   4.349 -2.1619  1.2090  2.6796
  315SOL    HW2 1845   3.051   1.571   4.298 -1.5186  2.2722 -1.1745
  316SOL     OW 1846   6.869   0.636   0.643  0.4862  0.4593 -0.5503
  316SOL    HW1 1847   6.775   0.664   0.662 -0.2985  0.3170 -3.7156
  316SOL    HW2 1848   6.874   0.537   0.636  0.4784  0.5469 -2.0324
  317SOL     OW 1849   5.909   1.187   6.324  0.2366 -0.0056  0.5438
  317SOL    HW1 1850   5.896   1.165   6.420  1.4223 -0.4787  0.6126
  317SOL    HW2 1851   5.950   1.109   6.276 -0.7285  0.0676 -0.4484
  318SOL     OW 1852   2.924   3.575   6.428 -0.4881  0.7519 -0.3082
  318SOL    HW1 1853   2.843   3.571   6.368 -0.5204 -0.1465 -0.2158
  318SOL    HW2 1854   2.938   3.486   6.471  0.4218  0.9675 -0.1416
  319SOL     OW 1855   2.154   4.027   2.347 -0.1902 -0.0721  0.5770
  319SOL    HW1 1856   2.085   3.975   2.297 -1.2687  1.2841  0.5949
  319SOL    HW2 1857   2.200   3.967   2.413  0.4999 -1.6288 -1.2341
  320SOL     OW 1858   3.321   0.470   2.837  0.1375 -0.1457  0.7095
  320SOL    HW1 1859   3.233   0.434   2.806  0.2058 -0.9211  1.4101
  320SOL    HW2 1860   3.308   0.562   2.874 -0.1953  0.1731 -0.1551
  321SOL     OW 1861   6.036   6.049   5.194 -0.5093  0.9219 -0.4379
  321SOL    HW1 1862   6.052   6.140   5.156 -0.2005  0.6622 -0.9344
  321SOL    HW2 1863   6.116   5.991   5.178 -0.3672  0.8020  0.6116
  322SOL     OW 1864   6.883   2.062   5.248 -0.4409 -0.8060 -0.0945
  322SOL    HW1 1865   6.982   2.066   5.256  0.0345 -2.1651 -3.3227
  322SOL    HW2 1866   6.848   1.985   5.301  0.0206  0.3740  1.9926
  323SOL     OW 1867   3.409   0.589   3.115  0.3002  0.0849  0.1349
  323SOL    HW1 1868   3.309   0.584   3.121  0.2066 -0.0600 -1.2425
  323SOL    HW2 1869   3.446   0.496   3.113  0.2156  0.0392 -2.3410
  324SOL     OW 1870   2.069   2.359   2.733  0.3638 -0.0887  0.3218
  324SOL    HW1 1871   2.163   2.331   2.751  0.7430  0.6222 -0.5251
  324SOL    HW2 1872   2.066   2.424   2.657 -0.7532  0.3226  0.6859
  325SOL     OW 1873   3.869   5.473   4.139  0.0323 -0.3049 -0.5279
  325SOL    HW1 1874   3.921   5.440   4.218  2.2057  2.2719 -0.7187
  325SOL    HW2 1875   3.777   5.497   4.168 -1.0380 -4.3024 -0.0029
  326SOL     OW 1876   1.728   2.705   5.364  0.6791  0.4042 -0.0958
  326SOL    HW1 1877   1.768   2.783   5.315  0.1068  2.0898  1.9701
  326SOL    HW2 1878   1.653   2.737   5.422 -1.7222 -2.1958 -1.5207
  327SOL     OW 1879   4.278   2.367   3.767  0.5099  0.0556 -0.2586
  327SOL    HW1 1880   4.276   2.277   3.723 -0.0313 -0.6417  1.1142
  327SOL    HW2 1881   4.234   2.434   3.708  0.3191 -0.7304 -1.0271
  328SOL     OW 1882   3.764   0.507   5.802  0.6014 -0.4042 -0.3194
  328SOL    HW1 1883   3.840   0.486   5.741 -0.5108 -0.1895 -1.8549
  328SOL    HW2 1884   3.794   0.569   5.874  2.0145 -0.8495 -0.5014
  329SOL     OW 1885   1.949   0.288   0.839  0.4031 -0.1714  0.5262
  329SOL    HW1 1886   1.953   0.280   0.739  0.9620  0.9766  0.4367
  329SOL    HW2 1887   1.936   0.384   0.864 -0.1065 -0.4892  1.5605
  330SOL     OW 1888   3.722   0.909   1.928  0.1652 -0.1232 -0.3558
  330SOL    HW1 1889   3.776   0.980   1.883 -1.2567  0.8708 -0.5496
  330SOL    HW2 1890   3.625   0.923   1.908 -0.3562 -0.7155  1.5566
  331SOL     OW 1891   2.830   0.269   0.185 -0.0656 -0.5907 -0.2416
  331SOL    HW1 1892   2.803   0.340   0.120 -1.3162 -1.1305 -0.3311
  331SOL    HW2 1893   2.874   0.194   0.135 -1.5489 -1.2708 -0.5824
  332SOL     OW 1894   6.886   2.874   2.689  0.4660  0.6068 -0.3737
  332SOL    HW1 1895   6.912   2.909   2.599  0.6990  2.0658  0.2270
  332SOL    HW2 1896   6.942   2.918   2.759  0.6670 -0.9101  0.4685
  333SOL     OW 1897   6.817   2.922   2.057 -0.0973 -0.0435 -0.0882
  333SOL    HW1 1898   6.896   2.863   2.076 -0.7567 -1.3439 -1.2253
  333SOL    HW2 1899   6.746   2.869   2.011 -1.7106  1.0740  1.0168
  334SOL     OW 1900   4.824   4.879   5.132  0.7089  0.3836 -0.4404
  334SOL    HW1 1901   4.799   4.783   5.121 -0.0662  0.6707 -1.3656
  334SOL    HW2 1902   4.885   4.906   5.057  1.7549  0.3566  0.3849
  335SOL     OW 1903   4.403   0.699   6.067 -0.5094 -0.2632 -0.3118
  335SOL    HW1 1904   4.391   0.663   5.975 -0.0473 -3.4307  0.7658
  335SOL    HW2 1905   4.499   0.692   6.094 -0.1684  2.7758 -0.3128
  336SOL     OW 1906   0.286   3.192   2.155 -0.3070 -0.0022 -0.3378
  336SOL    HW1 1907   0.374   3.238   2.164 -0.1959 -0.1767 -0.5202
  336SOL    HW2 1908   0.268   3.172   2.059 -0.0300 -0.9509 -0.2020
  337SOL     OW 1909   0.732   5.773   4.310  0.4230  0.9352 -0.4208
  337SOL    HW1 1910   0.801   5.706   4.338 -3.2760 -2.5734  1.4744
  337SOL    HW2 1911   0.761   5.818   4.226  4.1825 -1.4477 -0.6519
  338SOL     OW 1912   1.301   2.894   1.633  0.5204 -1.0567  0.1976
  338SOL    HW1 1913   1.250   2.961   1.578  2.0310 -0.1363 -0.1453
  338SOL    HW2 1914   1.264   2.803   1.616  0.0412 -0.6287 -1.2714
  339SOL     OW 1915   6.093   5.397   1.617 -0.3052 -0.4310  0.2146
  339SOL    HW1 1916   6.062   5.490   1.638 -0.0282 -0.6338  1.6314
  339SOL    HW2 1917   6.120   5.351   1.702 -0.1163 -1.6960 -0.5075
  340SOL     OW 1918   1.870   0.913   1.349 -0.0157  0.3705  0.0640
  340SOL    HW1 1919   1.781   0.867   1.351 -0.3379  0.9963  0.6241
  340SOL    HW2 1920   1.859   1.004   1.310  0.3041  0.5939  0.4949
  341SOL     OW 1921   5.008   3.636   1.446  0.2755  0.0788 -0.5593
  341SOL    HW1 1922   4.915   3.642   1.481  0.7423 -0.2210  0.7664
  341SOL    HW2 1923   5.026   3.715   1.387 -0.1726  1.2321  0.7860
  342SOL     OW 1924   1.100   5.745   0.312 -0.1895  0.2590  0.1333
  342SOL    HW1 1925   1.042   5.665   0.321  0.0231  0.2146  1.3375
  342SOL    HW2 1926   1.066   5.803   0.238  0.5860 -1.6854 -1.8414
  343SOL     OW 1927   1.761   4.262   0.654 -0.2868  0.2720  0.0541
  343SOL    HW1 1928   1.842   4.233   0.704 -0.1485  1.8237  0.8086
  343SOL    HW2 1929   1.713   4.333   0.706  0.0295  2.2074 -2.1040
  344SOL     OW 1930   4.065   4.367   0.308 -0.1955 -0.0815 -0.4706
  344SOL    HW1 1931   4.018   4.285   0.342 -0.6694  0.8119  1.1090
  344SOL    HW2 1932   4.004   4.418   0.247 -0.0835 -0.6089 -1.0392
  345SOL     OW 1933   3.901   1.316   6.079 -0.4596  0.0638  0.5809
  345SOL    HW1 1934   3.861   1.354   6.163  0.8092  2.6326  0.1179
  345SOL    HW2 1935   3.967   1.381   6.041 -0.7860 -1.1361 -2.2829
  346SOL     OW 1936   2.733   4.008   1.124  0.3605  0.5303  0.1223
  346SOL    HW1 1937   2.711   3.922   1.168  1.4731 -0.1545 -0.5902
  346SOL    HW2 1938   2.787   4.065   1.186  0.7986  0.1256  0.1175
  347SOL     OW 1939   0.443   3.331   4.603  0.4516  0.7108  0.3395
  347SOL    HW1 1940   0.349   3.296   4.606  0.6636  0.2072  1.3661
  347SOL    HW2 1941   0.466   3.373   4.691  0.0829  3.8234 -0.9068
  348SOL     OW 1942   4.736   0.471   1.904  0.1137 -0.2491  0.5065
  348SOL    HW1 1943   4.714   0.392   1.960 -3.0396  0.0384 -0.1452
  348SOL    HW2 1944   4.662   0.538   1.911  1.4550  1.4847 -1.0101
  349SOL     OW 1945   4.516   6.392   5.104 -0.1814  0.1612  0.6150
  349SOL    HW1 1946   4.591   6.395   5.038  0.5201  2.5135  1.3999
  349SOL    HW2 1947   4.548   6.353   5.190 -0.1777  0.1218  0.5959
  350SOL     OW 1948   4.076   4.921   6.922 -0.2591  0.1507 -0.1305
  350SOL    HW1 1949   4.051   4.991   6.855  0.6778 -1.8648 -2.7677
  350SOL    HW2 1950   4.098   4.965   7.009 -0.7262  3.0064 -1.3394
  351SOL     OW 1951   4.706   1.387   3.740  0.5369  0.1729  0.3175
  351SOL    HW1 1952   4.785   1.382   3.679  2.1552 -1.1503  2.3828
  351SOL    HW2 1953   4.673   1.294   3.759 -2.1566  0.7136 -1.1736
  352SOL     OW 1954   2.967   1.058   5.882 -0.1333 -0.2028  0.2072
  352SOL    HW1 1955   2.883   1.060   5.829 -0.2740  0.1981  0.4394
  352SOL    HW2 1956   2.946   1.066   5.980  0.1244 -0.8671  0.3276
  353SOL     OW 1957   2.919   1.471   4.207 -0.0555  0.4399  0.2596
  353SOL    HW1 1958   2.870   1.386   4.222  0.9243  0.1740  2.3052
  353SOL    HW2 1959   2.854   1.546   4.193 -0.9272 -0.4730 -0.7132
  354SOL     OW 1960   6.555   5.540   0.084  0.0730  0.3342 -0.0296
  354SOL    HW1 1961   6.530   5.597   0.162 -2.4455  1.1602 -1.3170
  354SOL    HW2 1962   6.641   5.573   0.045 -0.0535  1.6769  0.7540
  355SOL     OW 1963   2.499   0.053   5.596  0.6864  0.0402  0.2341
  355SOL    HW1 1964   2.560  -0.024   5.576 -0.0108 -0.6236  0.6169
  355SOL    HW2 1965   2.421   0.051   5.534  0.7669  0.5667  0.1103
  356SOL     OW 1966   0.370   6.258   2.293  0.1134 -0.2250 -0.1504
  356SOL    HW1 1967   0.434   6.317   2.243 -0.4464 -0.2028 -0.8472
  356SOL    HW2 1968   0.395   6.257   2.390  0.9291  0.1009 -0.3478
  357SOL     OW 1969   4.079   3.742   0.372  0.2492 -0.5912  0.0085
  357SOL    HW1 1970   3.983   3.755   0.399  0.7327  3.4627  0.4443
  357SOL    HW2 1971   4.084   3.730   0.273 -0.6537  1.1580 -0.2849
  358SOL     OW 1972   1.388   0.905   0.562  0.1353 -0.3721 -0.6840
  358SOL    HW1 1973   1.422   0.814   0.539  2.6547  0.8133 -1.9992
  358SOL    HW2 1974   1.394   0.920   0.660 -1.1027 -1.8841 -0.3502
  359SOL     OW 1975   5.695   2.768   5.938  0.1983 -0.4257  0.2789
  359SOL    HW1 1976   5.703   2.854   5.989 -2.0052 -0.2035  0.3823
  359SOL    HW2 1977   5.705   2.786   5.841  0.2137 -0.1245  0.3342
  360SOL     OW 1978   6.382   0.797   2.394 -0.0644  0.0711  0.5731
  360SOL    HW1 1979   6.455   0.813   2.459  0.3928  1.9519 -0.3150
  360SOL    HW2 1980   6.312   0.868   2.405  0.4130  0.9290 -1.4409
  361SOL     OW 1981   3.750   0.450   3.415  0.1233  0.3832 -0.6677
  361SOL    HW1 1982   3.733   0.407   3.326 -2.4670  1.6804 -0.8896
  361SOL    HW2 1983   3.821   0.399   3.463  0.8267 -1.0164 -2.9972
  362SOL     OW 1984   4.337   5.076   0.178 -0.6654 -0.1685 -0.0183
  362SOL    HW1 1985   4.283   5.030   0.248 -0.4955 -0.7991 -0.2930
  362SOL    HW2 1986   4.281   5.143   0.131 -0.8740  0.0253  0.4935
  363SOL     OW 1987   4.576   6.263   2.839 -0.5145 -0.1558 -0.3859
  363SOL    HW1 1988   4.501   6.329   2.844 -0.1191  0.2521  0.6075
  363SOL    HW2 1989   4.652   6.302   2.788 -0.1804  0.2876  0.4242
  364SOL     OW 1990   3.148   1.934   1.320  0.4408 -0.0944 -0.4787
  364SOL    HW1 1991   3.100   2.005   1.371  1.4266 -0.5667  1.1848
  364SOL    HW2 1992   3.115   1.933   1.225 -0.2758  1.9138 -0.3031
  365SOL     OW 1993   5.600   2.218   6.673  0.4897 -0.5061  0.8048
  365SOL    HW1 1994   5.566   2.290   6.734  0.6811  0.4994 -0.2385
  365SOL    HW2 1995   5.607   2.132   6.723 -1.9473 -0.3707  1.5218
  366SOL     OW 1996   2.647   4.951   2.996  0.1912  0.4227  0.1203
  366SOL    HW1 1997   2.583   4.974   2.923 -0.3772 -2.0621 -0.2613
  366SOL    HW2 1998   2.608   4.978   3.084  0.4030  2.4628 -0.3763
  367SOL     OW 1999   1.852   3.266   5.287 -0.1462 -1.0115  0.8195
  367SOL    HW1 2000   1.804   3.349   5.316 -1.2590 -1.6276  0.7743
  367SOL    HW2 2001   1.844   3.255   5.188  2.2381  0.1924  0.4012
  368SOL     OW 2002   6.042   4.522   5.612 -0.2131  0.4931 -0.4047
  368SOL    HW1 2003   6.043   4.424   5.634 -2.2127  0.2365 -1.2737
  368SOL    HW2 2004   5.957   4.563   5.644  0.6060  1.9864 -0.0349
  369SOL     OW 2005   0.370   3.460   4.002  0.0918 -0.3618 -0.2210
  369SOL    HW1 2006   0.411   3.379   3.960  1.0245 -0.4434  0.8253
  369SOL    HW2 2007   0.272   3.445   4.015  0.0658 -0.9041 -1.0008
  370SOL     OW 2008   2.866   3.225   0.784  0.0460  0.0176  0.6645
  370SOL    HW1 2009   2.853   3.142   0.730 -0.4368  0.8094 -0.4742
  370SOL    HW2 2010   2.874   3.201   0.881 -2.3644 -1.1688  0.6336
  371SOL     OW 2011   2.735   5.606   0.999 -0.4772  0.0221  0.2642
  371SOL    HW1 2012   2.677   5.566   1.070 -0.0701 -0.5125  0.2945
  371SOL    HW2 2013   2.821   5.637   1.040  1.2555 -3.3616 -0.4833
  372SOL     OW 2014   5.291   6.232   2.563  0.2582 -0.5363  0.3861
  372SOL    HW1 2015   5.353   6.297   2.519  0.3614 -0.8482  0.0715
  372SOL    HW2 2016   5.336   6.144   2.571 -1.3093 -1.8052 -2.9961
  373SOL     OW 2017   3.154   3.550   4.094  0.0136  0.2086 -0.4182
  373SOL    HW1 2018   3.059   3.532   4.118 -0.5872  1.3388 -1.8095
  373SOL    HW2 2019   3.164   3.553   3.994  1.2338  1.4380 -0.2967
  374SOL     OW 2020   2.882   5.919   0.449 -0.6092 -0.1748 -0.1134
  374SOL    HW1 2021   2.815   5.908   0.375 -0.4947  1.3298 -0.4771
  374SOL    HW2 2022   2.965   5.868   0.428 -0.8053 -0.2401 -0.7322
  375SOL     OW 2023   0.763   5.716   2.021  0.2216 -0.7026 -0.2902
  375SOL    HW1 2024   0.718   5.701   2.109  1.0464 -0.5800  0.1602
  375SOL    HW2 2025   0.779   5.814   2.007 -1.9876 -0.4560 -1.6481
  376SOL     OW 2026   1.914   4.312   5.064 -0.1498 -0.0447 -0.6223
  376SOL    HW1 2027   1.933   4.361   5.149 -0.8844 -0.8512  0.0339
  376SOL    HW2 2028   1.995   4.313   5.006  0.5659  0.0175  0.3483
  377SOL     OW 2029   0.495   2.864   4.133  0.2639 -0.4225  0.4348
  377SOL    HW1 2030   0.570   2.902   4.186  0.1671  0.3298  0.0464
  377SOL    HW2 2031   0.411   2.915   4.152 -0.0052 -0.8224  0.3517
  378SOL     OW 2032   2.845   5.658   1.827  0.5289 -0.0179 -0.0772
  378SOL    HW1 2033   2.747   5.648   1.841  0.7977 -2.3676  0.4667
  378SOL    HW2 2034   2.865   5.752   1.799 -1.6944  0.8926  1.1660
  379SOL     OW 2035   5.248   0.709   3.056  0.2474  0.4747  0.2068
  379SOL    HW1 2036   5.307   0.715   2.975  1.5959  0.0623  1.1256
  379SOL    HW2 2037   5.229   0.613   3.075  1.1066  0.4749  1.1672
  380SOL     OW 2038   1.081   5.215   0.270  0.5377 -0.3290  0.7309
  380SOL    HW1 2039   1.171   5.185   0.238  0.6713  0.3329  0.4687
  380SOL    HW2 2040   1.012   5.149   0.241  0.5765  0.4896 -1.4310
  381SOL     OW 2041   2.085   5.208   4.475 -0.1858 -0.5966  0.6103
  381SOL    HW1 2042   2.117   5.117   4.446 -0.4538 -0.7930  0.9257
  381SOL    HW2 2043   2.123   5.277   4.414  2.8307 -0.5493  2.3612
  382SOL     OW 2044   4.382   4.961   4.857 -0.1491  0.3544  0.3911
  382SOL    HW1 2045   4.465   4.928   4.812  0.0775  0.4045  0.7685
  382SOL    HW2 2046   4.367   4.910   4.941 -0.6559  0.1592  0.1908
  383SOL     OW 2047   5.328   2.453   3.781  0.0542 -0.0119 -0.1477
  383SOL    HW1 2048   5.246   2.414   3.823  2.0070 -1.5990  2.5774
  383SOL    HW2 2049   5.307   2.542   3.742 -2.9453 -0.3926  0.3623
  384SOL     OW 2050   1.905   5.610   1.341  0.4754  0.5121  0.1563
  384SOL    HW1 2051   2.001   5.584   1.330  0.1453  0.0186 -1.8039
  384SOL    HW2 2052   1.900   5.693   1.397  1.9800  0.2148  0.7971
  385SOL     OW 2053   1.408   5.885   5.622 -0.2508 -0.1006  0.2178
  385SOL    HW1 2054   1.492   5.924   5.583 -0.5924 -0.2090 -0.6566
  385SOL    HW2 2055   1.421   5.787   5.636  0.2775  0.1334  1.5148
  386SOL     OW 2056   6.286   3.630   0.363  0.4932 -0.3483  0.0851
  386SOL    HW1 2057   6.276   3.646   0.461 -2.3122 -1.7913  0.1407
  386SOL    HW2 2058   6.250   3.708   0.312  2.3581  0.5958  0.1411
  387SOL     OW 2059   6.582   2.058   4.019 -0.4610  0.4556 -0.3953
  387SOL    HW1 2060   6.663   2.108   3.986 -0.4883  0.7222 -0.0608
  387SOL    HW2 2061   6.500   2.100   3.982 -0.5782  1.6666  1.1527
  388SOL     OW 2062   5.888   5.491   5.411 -0.1639 -0.2968 -0.5318
  388SOL    HW1 2063   5.820   5.470   5.481 -0.9327 -1.9259 -1.7075
  388SOL    HW2 2064   5.932   5.406   5.380  0.6191  0.4499 -1.5706
  389SOL     OW 2065   2.894   6.752   3.236 -0.5545  0.2826 -0.2219
  389SOL    HW1 2066   2.908   6.846   3.269 -0.1516 -0.3461  1.5364
  389SOL    HW2 2067   2.845   6.754   3.149  0.8860  2.1704 -1.0568
  390SOL     OW 2068   6.528   4.674   0.563 -0.4313 -0.2334  0.4000
  390SOL    HW1 2069   6.551   4.706   0.471 -1.1185  1.0753  0.6663
  390SOL    HW2 2070   6.607   4.684   0.623 -0.5517  0.7270  0.4093
  391SOL     OW 2071   1.621   5.286   4.019  0.6001 -0.2193  0.2571
  391SOL    HW1 2072   1.583   5.378   4.023  1.3927  0.1350 -0.2118
  391SOL    HW2 2073   1.593   5.242   3.934 -1.1520 -1.0476  1.2025
  392SOL     OW 2074   4.246   4.394   1.741  0.1659 -0.3554  0.0788
  392SOL    HW1 2075   4.319   4.365   1.803  2.3869  1.3520 -1.5517
  392SOL    HW2 2076   4.189   4.316   1.716  0.3303 -1.4128  2.7566
  393SOL     OW 2077   6.521   6.218   4.542  0.5268 -0.0585  0.2961
  393SOL    HW1 2078   6.467   6.302   4.532  1.3051  0.4936  0.6380
  393SOL    HW2 2079   6.502   6.177   4.631 -0.1571 -0.4680 -0.0345
  394SOL     OW 2080   1.555   1.619   5.816 -0.0319 -0.3505  0.2065
  394SOL    HW1 2081   1.465   1.654   5.788 -0.0377 -1.0433 -0.6772
  394SOL    HW2 2082   1.596   1.683   5.881 -0.7676  0.4403 -0.0828
  395SOL     OW 2083   0.507   6.760   5.499  0.6703 -0.5555 -0.4149
  395SOL    HW1 2084   0.469   6.717   5.417 -0.5455  1.1954 -0.8282
  395SOL    HW2 2085   0.442   6.827   5.535  2.9953  2.0363 -0.6975
  396SOL     OW 2086   6.237   0.744   2.943  0.2105 -0.4086  0.0579
  396SOL    HW1 2087   6.264   0.666   2.887  0.9549 -1.1184  1.3510
  396SOL    HW2 2088   6.310   0.765   3.009 -1.2611 -0.6516  1.8623
  397SOL     OW 2089   0.557   2.700   2.963 -0.3701 -0.3693  0.3252
  397SOL    HW1 2090   0.583   2.608   2.935  1.7395  0.4286 -0.5475
  397SOL    HW2 2091   0.628   2.739   3.022 -0.5758  1.1590 -0.3699
  398SOL     OW 2092   2.374   3.466   0.337 -0.2074 -0.0200  0.3246
  398SOL    HW1 2093   2.349   3.434   0.428  1.7630  0.4811  1.0876
  398SOL    HW2 2094   2.319   3.546   0.314  0.9746  1.4252  2.1960
  399SOL     OW 2095   4.975   3.136   0.903  0.2368  0.0679 -0.2277
  399SOL    HW1 2096   5.072   3.125   0.921  0.5533  1.7457 -0.6894
  399SOL    HW2 2097   4.942   3.059   0.849  1.2204 -0.7009  0.2486
  400SOL     OW 2098   0.240   6.838   5.689  0.2813  0.5514  0.2991
  400SOL    HW1 2099   0.325   6.883   5.715  1.0250 -0.5022 -0.2676
  400SOL    HW2 2100   0.259   6.747   5.654 -1.1833 -0.1723  1.2755
  401SOL     OW 2101   6.164   6.741   3.170  0.2284  0.2021  0.1303
  401SOL    HW1 2102   6.183   6.808   3.098 -0.5874 -2.2911 -2.6105
  401SOL    HW2 2103   6.068   6.748   3.198  0.0074 -0.0896 -0.5213
  402SOL     OW 2104   5.405   3.713   4.537  0.0012 -0.1420  0.0982
  402SOL    HW1 2105   5.371   3.681   4.449 -1.3012  0.4542  0.3619
  402SOL    HW2 2106   5.468   3.790   4.522 -0.4698  0.1714 -0.3041
  403SOL     OW 2107   0.485   3.080   0.241  0.6208  0.4909 -0.4071
  403SOL    HW1 2108   0.393   3.095   0.205 -0.3198  0.8323  1.9441
  403SOL    HW2 2109   0.528   3.167   0.262  0.5885  0.2864  0.5555
  404SOL     OW 2110   4.995   5.436   1.086  0.0931 -0.2847 -0.0310
  404SOL    HW1 2111   5.017   5.409   0.992 -2.2391  0.0612 -0.7302
  404SOL    HW2 2112   4.898   5.421   1.103 -0.2629  2.7537  1.2415
  405SOL     OW 2113   5.190   0.169   5.436  0.2909 -0.7531 -0.1415
  405SOL    HW1 2114   5.140   0.090   5.400 -1.4852 -0.1338  0.8697
  405SOL    HW2 2115   5.273   0.136   5.482  1.4563 -1.7059 -2.7448
  406SOL     OW 2116   6.871   3.965   0.847  0.0850 -0.0432  0.1169
  406SOL    HW1 2117   6.861   3.866   0.835  0.8008 -0.1989  0.7177
  406SOL    HW2 2118   6.853   3.990   0.942 -1.2956  0.5872 -0.2863
  407SOL     OW 2119   5.301   5.604   2.534  0.2621  0.6171  0.5646
  407SOL    HW1 2120   5.345   5.637   2.617  0.4387 -0.8052  1.0704
  407SOL    HW2 2121   5.251   5.678   2.490 -0.5886  1.1964  2.4255
  408SOL     OW 2122   1.349   6.949   3.653  0.1607  0.1561 -0.1335
  408SOL    HW1 2123   1.276   6.935   3.585  1.5428 -0.9047 -1.4677
  408SOL    HW2 2124   1.329   6.894   3.734  0.2847 -1.5329 -1.1824
  409SOL     OW 2125   5.643   2.339   5.705 -0.2381  0.1459 -0.6052
  409SOL    HW1 2126   5.648   2.428   5.661 -2.6376  1.6107  1.7626
  409SOL    HW2 2127   5.609   2.350   5.799  1.1562 -3.1078  0.4415
  410SOL     OW 2128   1.461   3.015   2.184 -0.4300  0.3824 -0.6617
  410SOL    HW1 2129   1.548   2.967   2.187 -1.6009 -1.8264  0.0878
  410SOL    HW2 2130   1.460   3.077   2.105  1.5745  0.0757 -0.9862
  411SOL     OW 2131   2.344   5.445   4.979 -0.1517 -0.3968  0.0551
  411SOL    HW1 2132   2.339   5.348   4.955  0.5325  0.0156 -1.9398
  411SOL    HW2 2133   2.434   5.465   5.019  0.3543 -0.2990 -1.0893
  412SOL     OW 2134   4.266   2.922   0.370  0.2629  0.2235  0.0381
  412SOL    HW1 2135   4.211   2.953   0.447 -2.3189  1.2284 -2.0265
  412SOL    HW2 2136   4.259   2.823   0.361  1.5028 -0.0551  1.6494
  413SOL     OW 2137   0.299   2.900   6.696 -0.2415 -0.1139  0.6220
  413SOL    HW1 2138   0.240   2.971   6.656 -1.2969 -0.5224  1.4147
  413SOL    HW2 2139   0.338   2.933   6.782 -0.7481 -0.4978  1.0017
  414SOL     OW 2140   2.079   2.692   0.386  1.2370 -0.1310  0.2622
  414SOL    HW1 2141   2.077   2.774   0.329  0.0536 -1.4452 -1.6988
  414SOL    HW2 2142   2.168   2.686   0.432  1.6237  1.8375 -0.1447
  415SOL     OW 2143   4.493   5.323   2.366  0.4228 -0.2889 -0.2529
  415SOL    HW1 2144   4.505   5.282   2.457 -1.0066 -1.4047 -0.5373
  415SOL    HW2 2145   4.547   5.271   2.299  0.6951 -0.0726 -0.2034
  416SOL     OW 2146   6.178   0.623   5.380 -0.1194  0.1313 -0.6386
  416SOL    HW1 2147   6.108   0.571   5.429 -0.1298 -1.1767 -1.9453
  416SOL    HW2 2148   6.267   0.579   5.392  0.1916  0.8125 -0.3766
  417SOL     OW 2149   1.854   5.718   2.657 -0.1881  0.7301 -0.2360
  417SOL    HW1 2150   1.828   5.783   2.586  1.8793  0.5866 -1.1926
  417SOL    HW2 2151   1.939   5.672   2.631 -0.3970 -0.7352  1.4589
  418SOL     OW 2152   0.184   2.123   0.566  0.1838 -0.2679 -0.1595
  418SOL    HW1 2153   0.173   2.071   0.481  2.3580 -0.5636 -0.3275
  418SOL    HW2 2154   0.199   2.059   0.642 -0.0618  0.0417  0.1513
  419SOL     OW 2155   2.039   4.570   6.795  0.2239 -0.5654 -0.5234
  419SOL    HW1 2156   2.067   4.650   6.849 -1.3426 -0.5035  0.2563
  419SOL    HW2 2157   2.013   4.600   6.703  0.6470 -0.3218 -0.5642
  420SOL     OW 2158   2.397   4.377   5.310  0.3102 -0.7033  0.4327
  420SOL    HW1 2159   2.349   4.342   5.229 -0.5354 -0.9368  1.0160
  420SOL    HW2 2160   2.483   4.419   5.282  0.5487 -1.7288 -0.4839
  421SOL     OW 2161   6.664   0.380   3.259 -0.2624 -0.1604  0.0215
  421SOL    HW1 2162   6.710   0.467   3.239 -1.8365  0.5135 -0.9199
  421SOL    HW2 2163   6.673   0.318   3.182 -0.2699 -0.3212  0.1486
  422SOL     OW 2164   4.033   4.734   0.538 -0.2895  0.3671 -0.0944
  422SOL    HW1 2165   3.965   4.712   0.608  0.5144 -1.8911  0.0341
  422SOL    HW2 2166   4.124   4.732   0.578  0.0282  1.3157 -0.7325
  423SOL     OW 2167   3.177   3.253   2.241  0.3055  0.0239  0.3394
  423SOL    HW1 2168   3.275   3.268   2.227  0.2550 -0.3006 -0.4198
  423SOL    HW2 2169   3.164   3.176   2.305  0.5595 -1.0275 -0.8301
  424SOL     OW 2170   6.609   0.721   1.698  0.1585 -0.1862  0.2372
  424SOL    HW1 2171   6.617   0.639   1.641 -1.1650  0.3067 -0.6838
  424SOL    HW2 2172   6.669   0.711   1.778  1.1312 -1.4065 -0.5986
  425SOL     OW 2173   2.379   4.575   6.249 -0.0482 -0.9575  0.3069
  425SOL    HW1 2174   2.363   4.670   6.275  1.9159 -0.3138 -0.6138
  425SOL    HW2 2175   2.345   4.514   6.321 -0.9145  0.4376  1.1229
  426SOL     OW 2176   4.832   3.727   3.859  0.1316  0.1151 -0.3094
  426SOL    HW1 2177   4.808   3.775   3.943  0.1043 -0.0099 -0.2460
  426SOL    HW2 2178   4.842   3.630   3.878 -0.9695 -0.0860 -0.6652
  427SOL     OW 2179   4.819   1.445   0.962 -0.1252 -0.1021 -0.4081
  427SOL    HW1 2180   4.847   1.361   0.916  3.1439  0.6040  0.0278
  427SOL    HW2 2181   4.888   1.471   1.030 -2.5848  1.3039  1.7405
  428SOL     OW 2182   1.974   4.095   1.234  0.2675  0.5063 -0.3054
  428SOL    HW1 2183   2.020   4.182   1.244  0.4166  0.4891 -0.8029
  428SOL    HW2 2184   1.973   4.046   1.321  1.0696  0.5619 -0.2643
  429SOL     OW 2185   1.040   6.663   1.105 -0.1220 -0.0317 -0.1440
  429SOL    HW1 2186   1.088   6.633   1.023  0.7191  0.3913  0.1768
  429SOL    HW2 2187   1.106   6.675   1.179 -0.6800  0.8865  0.2215
  430SOL     OW 2188   2.455   2.175   2.502 -0.2807  0.2901 -0.2452
  430SOL    HW1 2189   2.477   2.086   2.461  0.0534  0.0911  0.3549
  430SOL    HW2 2190   2.533   2.237   2.493 -0.2326  0.2688  0.0272
  431SOL     OW 2191   0.577   4.611   1.446  0.5438 -0.4779 -0.2972
  431SOL    HW1 2192   0.606   4.624   1.351  1.0818  2.0955  0.1319
  431SOL    HW2 2193   0.487   4.654   1.459  0.6344 -0.4983  0.4197
  432SOL     OW 2194   4.238   6.478   4.431 -0.6556  0.1192 -0.1346
  432SOL    HW1 2195   4.162   6.459   4.369 -0.4725 -0.9463 -0.0396
  432SOL    HW2 2196   4.270   6.393   4.473 -1.1817  0.8845  1.9109
  433SOL     OW 2197   0.117   1.310   4.729 -0.0147 -0.4940 -0.1735
  433SOL    HW1 2198   0.151   1.270   4.644  0.7164 -0.7564  0.2278
  433SOL    HW2 2199   0.163   1.266   4.807  1.2330  1.4980  0.2837
  434SOL     OW 2200   3.000   1.432   5.220  0.1416 -0.1600 -0.2518
  434SOL    HW1 2201   3.096   1.429   5.246  0.1040 -0.1105 -0.0995
  434SOL    HW2 2202   2.953   1.502   5.274 -0.3229 -1.2811  0.8749
  435SOL     OW 2203   0.245   4.306   1.315  0.1069 -0.0252 -0.4370
  435SOL    HW1 2204   0.218   4.357   1.396 -0.0768  2.2057 -1.8154
  435SOL    HW2 2205   0.327   4.253   1.334  1.5002  2.3698  0.5852
  436SOL     OW 2206   1.824   1.898   3.692  0.2225 -0.4329  0.0884
  436SOL    HW1 2207   1.868   1.902   3.602  0.4136 -2.0879  0.0675
  436SOL    HW2 2208   1.831   1.987   3.736  1.3854  0.0342 -0.9492
  437SOL     OW 2209   1.460   0.317   3.388 -0.0632  0.6224 -0.2238
  437SOL    HW1 2210   1.503   0.347   3.303  0.1523  0.6457 -0.1086
  437SOL    HW2 2211   1.382   0.257   3.367  0.2125  0.3320 -0.4314
  438SOL     OW 2212   5.514   0.013   0.992 -0.1555  0.1782 -0.6004
  438SOL    HW1 2213   5.523  -0.084   1.014 -0.3419  0.1257 -0.7491
  438SOL    HW2 2214   5.591   0.042   0.936 -0.3700 -0.0126 -0.9953
  439SOL     OW 2215   5.899   2.074   6.907 -0.8167  0.5979  0.5598
  439SOL    HW1 2216   5.812   2.033   6.879  0.0374 -0.5923 -0.4909
  439SOL    HW2 2217   5.890   2.174   6.906 -2.0972  0.5068  0.2311
  440SOL     OW 2218   4.093   2.792   0.727 -0.4041 -0.9520  0.7725
  440SOL    HW1 2219   4.142   2.730   0.789 -0.2475  0.4950  2.1698
  440SOL    HW2 2220   4.021   2.839   0.778 -0.0035  0.5969 -0.0395
  441SOL     OW 2221   5.269   5.449   3.766 -0.0549 -0.5151 -0.2159
  441SOL    HW1 2222   5.207   5.408   3.833 -1.2243  1.0354 -0.2843
  441SOL    HW2 2223   5.239   5.425   3.674 -1.1227  0.9164 -0.2769
  442SOL     OW 2224   0.758   4.585   0.233 -0.0499  0.0750 -0.7227
  442SOL    HW1 2225   0.668   4.618   0.257 -0.0864 -0.9608  0.7068
  442SOL    HW2 2226   0.754   4.537   0.145 -1.1428 -0.8921 -0.1703
  443SOL     OW 2227   6.431   3.563   5.510  0.0127 -0.3629  0.0610
  443SOL    HW1 2228   6.395   3.487   5.563  0.4641  0.4159  1.5183
  443SOL    HW2 2229   6.528   3.577   5.532 -0.1586  0.8595  0.0802
  444SOL     OW 2230   3.541   5.050   3.851 -0.2718  0.0774 -0.4895
  444SOL    HW1 2231   3.508   5.139   3.884 -0.2402 -0.2494  0.4195
  444SOL    HW2 2232   3.637   5.039   3.874 -0.1542 -0.0056 -1.0072
  445SOL     OW 2233   1.674   6.024   3.283  0.4640  0.3802  0.2418
  445SOL    HW1 2234   1.740   6.086   3.241  1.4998 -0.4999  0.5177
  445SOL    HW2 2235   1.721   5.941   3.313 -0.7660 -0.2414  0.5133
  446SOL     OW 2236   6.230   2.015   6.163  0.0424  0.1503 -0.1314
  446SOL    HW1 2237   6.280   2.089   6.209 -1.7425  1.1011  0.3879
  446SOL    HW2 2238   6.137   2.045   6.143 -0.1811 -1.3490 -1.6042
  447SOL     OW 2239   0.468   1.051   3.984  0.2928 -0.0950 -0.1903
  447SOL    HW1 2240   0.398   1.092   3.925  0.0666  2.8326  1.8452
  447SOL    HW2 2241   0.545   1.115   3.993  1.6626 -1.7603  0.3274
  448SOL     OW 2242   1.481   4.501   1.408 -0.2233 -0.0744 -0.1946
  448SOL    HW1 2243   1.558   4.513   1.471 -1.3005 -3.1090  1.9788
  448SOL    HW2 2244   1.395   4.516   1.457 -1.2328 -5.1179  0.1675
  449SOL     OW 2245   1.014   1.752   1.665 -0.0468 -0.2173 -0.0417
  449SOL    HW1 2246   1.004   1.719   1.759 -0.6387  1.6128  0.5734
  449SOL    HW2 2247   1.091   1.706   1.622  0.7130 -0.5415  1.5906
  450SOL     OW 2248   2.785   1.111   4.540  0.1783 -0.2544  0.2197
  450SOL    HW1 2249   2.865   1.171   4.529 -0.4208  0.7051  0.8655
  450SOL    HW2 2250   2.707   1.151   4.492 -0.6151  0.2967  1.8937
  451SOL     OW 2251   5.441   4.813   0.045  0.3649 -0.5785 -0.0251
  451SOL    HW1 2252   5.488   4.891   0.087  0.9593 -0.9195 -0.0477
  451SOL    HW2 2253   5.466   4.729   0.093 -1.3324 -0.6194  0.8858
  452SOL     OW 2254   5.808   6.821   3.568  0.1624  0.6621  0.6419
  452SOL    HW1 2255   5.842   6.914   3.581 -1.1605  1.2421  0.1671
  452SOL    HW2 2256   5.724   6.824   3.514 -0.9760 -0.6353  2.2233
  453SOL     OW 2257   5.751   2.280   1.585 -0.5757  0.5526  0.4528
  453SOL    HW1 2258   5.691   2.311   1.658 -2.8416 -0.7742 -0.7322
  453SOL    HW2 2259   5.794   2.193   1.612 -0.7305  0.5022  0.5374
  454SOL     OW 2260   1.617   1.215   1.165 -0.0139  0.1386  0.7960
  454SOL    HW1 2261   1.567   1.150   1.108  0.5864  1.1009 -0.9163
  454SOL    HW2 2262   1.563   1.299   1.175  0.6899  0.7179 -0.0476
  455SOL     OW 2263   1.592   6.468   4.583  0.1727  0.0756 -0.7733
  455SOL    HW1 2264   1.512   6.522   4.558  0.3459 -0.9013 -3.8589
  455SOL    HW2 2265   1.562   6.383   4.626 -0.4001  0.2355 -0.8422
  456SOL     OW 2266   2.935   6.645   1.728  0.6352  0.4399  0.2219
  456SOL    HW1 2267   3.006   6.696   1.681  1.8104  2.7731  4.0942
  456SOL    HW2 2268   2.859   6.706   1.750 -0.6043 -0.9602 -0.0064
  457SOL     OW 2269   4.745   6.677   0.256 -0.2645 -0.1044  0.0850
  457SOL    HW1 2270   4.762   6.595   0.311  0.6555  0.3480  0.4787
  457SOL    HW2 2271   4.714   6.751   0.315  0.9195  0.4412  0.0434
  458SOL     OW 2272   4.008   2.354   6.509  0.4826 -0.4928 -0.0857
  458SOL    HW1 2273   4.075   2.354   6.435 -0.4758  0.6192 -1.0036
  458SOL    HW2 2274   3.919   2.381   6.472  0.1526  0.8970  1.6187
  459SOL     OW 2275   3.554   1.201   1.580 -0.8449 -0.2933 -0.1521
  459SOL    HW1 2276   3.521   1.115   1.540 -1.0557  0.3784 -1.4937
  459SOL    HW2 2277   3.501   1.277   1.543  1.7736  0.7987 -2.0141
  460SOL     OW 2278   6.384   4.536   1.546  0.0293  0.1320  0.1261
  460SOL    HW1 2279   6.391   4.523   1.447  1.8226 -1.5151  0.4036
  460SOL    HW2 2280   6.472   4.517   1.589 -0.0361  3.1717  1.8778
  461SOL     OW 2281   5.919   1.367   5.757  0.4445 -0.7799  0.2725
  461SOL    HW1 2282   5.857   1.445   5.760  0.4267 -0.8114  0.8605
  461SOL    HW2 2283   6.013   1.399   5.766  0.4970 -0.7598 -0.3040
  462SOL     OW 2284   0.319   2.965   6.087 -0.1198 -0.3022  0.2708
  462SOL    HW1 2285   0.287   2.979   5.993  1.3571  1.8336  0.0100
  462SOL    HW2 2286   0.255   3.008   6.151 -0.1859 -0.1596  0.1093
  463SOL     OW 2287   3.294   0.166   5.088 -0.8962  0.5825  0.0406
  463SOL    HW1 2288   3.212   0.172   5.030 -0.9950  0.1652  0.1314
  463SOL    HW2 2289   3.352   0.246   5.072 -1.0269  0.5782 -0.4738
  464SOL     OW 2290   1.489   5.744   1.314 -0.2195  0.2923 -0.1251
  464SOL    HW1 2291   1.529   5.835   1.326 -0.6051  0.2133  2.4833
  464SOL    HW2 2292   1.419   5.746   1.242 -2.3216  2.8596  1.7941
  465SOL     OW 2293   3.234   2.686   1.567  0.1398  0.3552  0.5896
  465SOL    HW1 2294   3.166   2.751   1.601  0.5967  0.5073  1.2345
  465SOL    HW2 2295   3.322   2.704   1.611  0.9411  0.9935 -1.1740
  466SOL     OW 2296   6.328   6.910   0.108  0.2423 -0.0099 -0.4768
  466SOL    HW1 2297   6.383   6.827   0.099 -0.1902 -0.8194  2.7853
  466SOL    HW2 2298   6.235   6.892   0.074  0.1161 -0.9820  0.2974
  467SOL     OW 2299   2.426   1.380   3.882 -0.0185 -0.2803  0.0045
  467SOL    HW1 2300   2.328   1.399   3.869  0.1657  0.1267 -0.8200
  467SOL    HW2 2301   2.439   1.333   3.969 -1.0236 -0.8958 -0.1656
  468SOL     OW 2302   5.360   3.423   4.019  0.2150 -0.3388 -0.4795
  468SOL    HW1 2303   5.403   3.365   4.089  0.9588 -0.6780 -1.1976
  468SOL    HW2 2304   5.410   3.509   4.012 -0.6199  0.2223  0.2721
  469SOL     OW 2305   0.251   0.391   4.398 -0.1949  0.4086  0.3122
  469SOL    HW1 2306   0.201   0.320   4.449  2.0181 -1.7440 -0.3186
  469SOL    HW2 2307   0.196   0.419   4.319 -1.3372 -0.2658  0.8382
  470SOL     OW 2308   5.039   1.578   5.306 -0.1367 -0.0756  0.3142
  470SOL    HW1 2309   5.043   1.642   5.230  1.1929 -0.1439  0.3036
  470SOL    HW2 2310   5.039   1.628   5.392 -0.4285 -0.0314  0.2891
  471SOL     OW 2311   2.375   3.247   5.422  0.3058  0.4091 -0.0182
  471SOL    HW1 2312   2.375   3.335   5.470 -0.3266  0.6274 -0.4058
  471SOL    HW2 2313   2.283   3.227   5.389  0.2219 -0.8892  0.9376
  472SOL     OW 2314   6.189   3.528   4.849  0.3845 -0.1888  0.3539
  472SOL    HW1 2315   6.269   3.505   4.906  1.0690  0.3549 -0.3813
  472SOL    HW2 2316   6.106   3.495   4.895  0.8010  1.2318  2.2291
  473SOL     OW 2317   4.038   0.091   4.901  0.1780  0.9879  0.0344
  473SOL    HW1 2318   3.984   0.047   4.830 -0.8099  1.8374  0.2251
  473SOL    HW2 2319   4.019   0.048   4.989  0.4278  0.7643 -0.0205
  474SOL     OW 2320   0.262   4.514   7.020  0.5426 -0.3970 -0.1882
  474SOL    HW1 2321   0.204   4.571   6.962  2.3988  0.4292 -1.2824
  474SOL    HW2 2322   0.257   4.419   6.989 -0.6572 -0.4553  0.1144
  475SOL     OW 2323   5.771   4.102   3.520 -0.1294  0.2508 -0.5657
  475SOL    HW1 2324   5.803   4.187   3.563 -1.3412  1.2035 -1.4876
  475SOL    HW2 2325   5.844   4.063   3.464  0.1176  1.2354 -0.9411
  476SOL     OW 2326   5.845   0.077   3.595 -0.0856  0.3402  0.2428
  476SOL    HW1 2327   5.775   0.083   3.524  1.0706  0.3378 -0.9354
  476SOL    HW2 2328   5.821   0.138   3.670 -1.5717 -0.0048  0.0771
  477SOL     OW 2329   5.661   0.874   3.487  0.5940  0.0632 -0.3453
  477SOL    HW1 2330   5.743   0.931   3.494 -0.2302  1.0863  1.8649
  477SOL    HW2 2331   5.582   0.926   3.520 -0.5088 -1.7264 -0.0654
  478SOL     OW 2332   1.646   6.606   3.871 -0.4841 -0.5974  0.8278
  478SOL    HW1 2333   1.670   6.510   3.854 -0.0127 -0.5211  1.0536
  478SOL    HW2 2334   1.678   6.632   3.962 -1.1982 -0.4172  1.0353
  479SOL     OW 2335   4.431   2.163   3.389 -0.2242 -0.8988 -0.1188
  479SOL    HW1 2336   4.370   2.153   3.468 -1.1715  0.2808 -0.6709
  479SOL    HW2 2337   4.450   2.260   3.373  0.0589 -1.1241 -1.2590
  480SOL     OW 2338   0.258   1.814   2.318 -0.1667 -0.4348 -0.2316
  480SOL    HW1 2339   0.265   1.727   2.268 -1.2531 -0.8370  0.2717
  480SOL    HW2 2340   0.287   1.801   2.412 -1.1046 -0.4800  0.0668
  481SOL     OW 2341   0.812   2.761   0.902 -0.2334  0.7223 -0.3157
  481SOL    HW1 2342   0.757   2.700   0.845  0.0648  0.0517  0.1026
  481SOL    HW2 2343   0.755   2.802   0.973 -0.5041  1.1887 -0.7979
  482SOL     OW 2344   5.102   3.970   0.279  0.5889 -0.4587  0.1714
  482SOL    HW1 2345   5.157   3.933   0.204  1.6299 -1.7627  1.5067
  482SOL    HW2 2346   5.089   3.899   0.348 -1.0040  0.4743  0.8772
  483SOL     OW 2347   5.411   2.178   5.217  0.4416  0.1748  0.5599
  483SOL    HW1 2348   5.413   2.277   5.203  1.7706  0.6874  3.4772
  483SOL    HW2 2349   5.317   2.147   5.226  0.0083  1.1428 -0.4621
  484SOL     OW 2350   3.273   5.175   3.303  0.3988  0.2167 -0.3059
  484SOL    HW1 2351   3.315   5.097   3.258  1.3302  1.0089 -0.8525
  484SOL    HW2 2352   3.292   5.258   3.251  0.7093  1.0334  1.0430
  485SOL     OW 2353   1.740   6.716   4.569 -0.5953  0.4279 -0.3111
  485SOL    HW1 2354   1.839   6.712   4.581 -0.6724  3.1467  2.1276
  485SOL    HW2 2355   1.702   6.623   4.576  1.4210 -0.3119  3.0243
  486SOL     OW 2356   5.694   3.164   6.498  0.1125  0.7164 -0.2122
  486SOL    HW1 2357   5.614   3.113   6.527 -0.4213  1.2616 -0.6882
  486SOL    HW2 2358   5.771   3.145   6.559  0.1050 -1.0860 -0.6969
  487SOL     OW 2359   1.910   4.835   4.463 -0.2852  0.5621  0.0875
  487SOL    HW1 2360   1.884   4.846   4.559 -1.3469  0.8022 -0.2200
  487SOL    HW2 2361   1.866   4.753   4.426 -0.1467  0.6591 -0.2870
  488SOL     OW 2362   4.389   0.961   4.916  0.1427  0.1955  0.5439
  488SOL    HW1 2363   4.463   0.980   4.981  0.7833  0.2337 -0.1910
  488SOL    HW2 2364   4.303   1.000   4.952  0.3646 -0.2839  1.6366
  489SOL     OW 2365   5.653   3.116   1.775 -0.1392 -0.0068  0.0787
  489SOL    HW1 2366   5.631   3.028   1.818 -1.5210  0.0054 -0.5440
  489SOL    HW2 2367   5.579   3.142   1.713  1.4138  0.3824 -1.6876
  490SOL     OW 2368   1.295   3.030   0.317  0.2061  0.2138  0.5199
  490SOL    HW1 2369   1.347   3.108   0.353  1.7200  0.1795 -1.4000
  490SOL    HW2 2370   1.259   2.976   0.393  0.1854  2.0729  1.9103
  491SOL     OW 2371   4.370   5.802   5.371  0.0659 -0.3652 -0.4076
  491SOL    HW1 2372   4.308   5.878   5.393 -1.7353 -1.8248 -0.1376
  491SOL    HW2 2373   4.331   5.747   5.297 -0.0611 -2.5175  1.1549
  492SOL     OW 2374   3.428   3.428   4.925 -0.6265  0.1896 -0.0855
  492SOL    HW1 2375   3.354   3.468   4.871 -1.6827 -1.6769 -0.1160
  492SOL    HW2 2376   3.389   3.370   4.997  0.7922 -0.9029 -0.1585
  493SOL     OW 2377   1.416   3.064   4.643  0.1942  0.3064  0.6696
  493SOL    HW1 2378   1.416   3.112   4.555  1.2905  0.4900  0.7560
  493SOL    HW2 2379   1.503   3.015   4.654 -1.0848 -2.1968  0.3256
  494SOL     OW 2380   5.282   5.086   6.103 -0.6101 -0.3733 -0.0178
  494SOL    HW1 2381   5.340   5.130   6.172  0.4483  0.7993 -1.5892
  494SOL    HW2 2382   5.250   4.998   6.138 -1.3264  0.8028  2.5363
  495SOL     OW 2383   0.745   6.385   3.414 -0.2315 -0.0786  0.0008
  495SOL    HW1 2384   0.670   6.343   3.465 -0.1679  0.5397  0.6222
  495SOL    HW2 2385   0.712   6.418   3.326 -0.2085 -1.7249 -0.6607
  496SOL     OW 2386   4.241   2.553   1.701  0.8374 -0.5038  0.1118
  496SOL    HW1 2387   4.296   2.621   1.651  1.6300 -2.2140 -1.4592
  496SOL    HW2 2388   4.300   2.480   1.734 -0.2465 -1.4565  0.0081
  497SOL     OW 2389   3.603   5.650   3.996 -0.4145  0.2244 -0.7357
  497SOL    HW1 2390   3.686   5.686   4.038 -0.4619 -0.8799  0.3527
  497SOL    HW2 2391   3.613   5.652   3.897  1.4889 -1.1274 -0.6326
  498SOL     OW 2392   4.438   2.369   3.996  0.2659 -0.6986  0.1413
  498SOL    HW1 2393   4.388   2.392   3.913  0.9466 -0.6975 -0.2783
  498SOL    HW2 2394   4.405   2.282   4.032 -0.4554 -0.4000  0.2197
  499SOL     OW 2395   3.820   0.207   0.250  0.2524 -0.1121  0.3539
  499SOL    HW1 2396   3.907   0.241   0.213 -0.3293  0.7327 -0.2875
  499SOL    HW2 2397   3.761   0.179   0.175 -0.2910 -0.0339  0.7506
  500SOL     OW 2398   0.384   3.541   0.114 -0.2202 -0.8134  0.4854
  500SOL    HW1 2399   0.391   3.625   0.060 -0.0966 -0.7908  0.5345
  500SOL    HW2 2400   0.434   3.553   0.200 -0.0319 -1.0071  0.4034
  501SOL     OW 2401   2.351   5.853   3.250 -0.3334 -0.0241 -0.0344
  501SOL    HW1 2402   2.451   5.856   3.252 -0.1943 -2.1247 -1.2607
  501SOL    HW2 2403   2.317   5.915   3.179 -0.0844  2.0909  1.5679
  502SOL     OW 2404   3.769   4.628   1.169  0.0077  0.0476 -0.6270
  502SOL    HW1 2405   3.793   4.530   1.167 -0.2905 -0.0349 -0.2942
  502SOL    HW2 2406   3.670   4.638   1.167  0.0352  0.4028 -2.6446
  503SOL     OW 2407   5.884   3.477   2.337 -0.2006 -0.2700 -0.4394
  503SOL    HW1 2408   5.815   3.407   2.357 -0.8419  0.7801  1.2459
  503SOL    HW2 2409   5.852   3.566   2.372  2.3638  0.0910  1.2544
  504SOL     OW 2410   3.402   3.283   6.072 -0.5613  0.1205 -0.7190
  504SOL    HW1 2411   3.326   3.324   6.122  1.8747  1.7816  1.9145
  504SOL    HW2 2412   3.416   3.189   6.105 -0.0821  0.6047  0.5261
  505SOL     OW 2413   3.544   0.366   6.307 -0.1180  0.1645  0.1958
  505SOL    HW1 2414   3.555   0.331   6.400 -0.0532  0.1739  0.1919
  505SOL    HW2 2415   3.486   0.448   6.308  1.1387  1.0767  0.4229
  506SOL     OW 2416   3.599   5.160   0.828  0.2174 -0.2736 -0.3149
  506SOL    HW1 2417   3.591   5.103   0.746 -0.4145 -0.9682  0.2274
  506SOL    HW2 2418   3.509   5.173   0.869  0.6827 -1.0646  1.0369
  507SOL     OW 2419   4.941   6.274   1.626 -0.1096 -0.2208  0.1337
  507SOL    HW1 2420   4.895   6.344   1.572 -0.0864 -0.1656  0.1864
  507SOL    HW2 2421   5.011   6.230   1.570 -0.9905 -1.0856 -0.3201
  508SOL     OW 2422   1.346   5.924   1.809 -0.0584 -0.2510 -0.3987
  508SOL    HW1 2423   1.307   5.927   1.717 -1.1226  0.1189  0.0474
  508SOL    HW2 2424   1.375   5.831   1.830 -1.1098 -0.6429 -0.6011
  509SOL     OW 2425   4.254   0.915   5.686 -0.4882 -0.4321 -0.6520
  509SOL    HW1 2426   4.168   0.921   5.736 -0.0686 -1.0794  0.1868
  509SOL    HW2 2427   4.236   0.906   5.588 -1.3245  1.5512 -0.7337
  510SOL     OW 2428   5.113   3.103   6.989 -0.4877 -0.0352  0.2534
  510SOL    HW1 2429   5.089   3.187   6.940  0.0063  0.9420  1.5986
  510SOL    HW2 2430   5.096   3.024   6.931 -1.1393  0.9813 -0.9956
  511SOL     OW 2431   6.491   1.361   0.148 -0.0702  0.3115  0.5585
  511SOL    HW1 2432   6.420   1.292   0.132 -1.2033  1.3630  0.8549
  511SOL    HW2 2433   6.559   1.325   0.212 -0.7138 -0.4870  0.8135
  512SOL     OW 2434   4.167   2.206   1.334  0.1274 -0.6098  0.2033
  512SOL    HW1 2435   4.183   2.242   1.426 -0.6315  1.1520 -0.3141
  512SOL    HW2 2436   4.088   2.253   1.293 -0.5728 -2.5134 -0.7535
  513SOL     OW 2437   2.805   4.204   5.783  0.7235 -0.4387 -0.2561
  513SOL    HW1 2438   2.832   4.297   5.759 -3.7372  1.4006  0.7997
  513SOL    HW2 2439   2.805   4.147   5.701  0.2555  1.4921 -1.6806
  514SOL     OW 2440   1.810   1.366   3.178  0.2927 -0.1605 -0.1154
  514SOL    HW1 2441   1.893   1.417   3.153 -0.6300  1.0327 -0.8790
  514SOL    HW2 2442   1.827   1.268   3.169  1.4327  0.0822 -0.8542
  515SOL     OW 2443   3.856   0.132   2.924  0.4453  0.3033 -0.2211
  515SOL    HW1 2444   3.949   0.154   2.894  0.1473  0.4666 -1.0527
  515SOL    HW2 2445   3.813   0.214   2.962  0.6842  0.1961  0.2832
  516SOL     OW 2446   5.991   0.021   3.945  0.2994 -0.0524  0.2335
  516SOL    HW1 2447   5.902   0.047   3.981  0.8206 -0.4189  1.8596
  516SOL    HW2 2448   6.007  -0.077   3.963  1.8991  0.4619  1.9586
  517SOL     OW 2449   1.606   2.192   2.263 -0.1346 -0.4156 -0.0978
  517SOL    HW1 2450   1.653   2.144   2.337 -0.7302 -0.3694  0.3176
  517SOL    HW2 2451   1.507   2.192   2.280 -0.2158  0.2377 -0.5101
  518SOL     OW 2452   3.646   1.648   0.159 -0.1147 -0.0685  0.5183
  518SOL    HW1 2453   3.645   1.552   0.132  0.9171 -0.4075  1.5943
  518SOL    HW2 2454   3.673   1.705   0.081  0.1043 -0.7287  0.1071
  519SOL     OW 2455   4.642   1.495   3.419 -0.4084 -0.5328  0.5057
  519SOL    HW1 2456   4.641   1.561   3.493 -0.7481 -0.4763  0.4508
  519SOL    HW2 2457   4.644   1.402   3.456  2.5122 -0.5229  0.6290
  520SOL     OW 2458   5.744   0.300   0.477  0.3439 -0.0322 -0.2798
  520SOL    HW1 2459   5.777   0.225   0.420 -1.0871 -0.7346 -0.2259
  520SOL    HW2 2460   5.800   0.381   0.462  0.3627 -0.3705 -2.2616
  521SOL     OW 2461   4.572   4.937   6.712 -0.1179 -0.3371  0.6221
  521SOL    HW1 2462   4.506   4.997   6.668 -0.3463 -1.6773 -0.9711
  521SOL    HW2 2463   4.583   4.963   6.808 -3.4719 -0.4642  1.1372
  522SOL     OW 2464   2.096   0.313   2.953  1.3465 -0.1309  0.0022
  522SOL    HW1 2465   2.088   0.243   3.025  1.4049  0.8338  0.9777
  522SOL    HW2 2466   2.023   0.381   2.965  1.1055 -0.1800 -1.1206
  523SOL     OW 2467   0.011   4.430   4.366 -0.6305 -0.0389  0.2675
  523SOL    HW1 2468  -0.019   4.515   4.323 -0.4819  0.5353  1.2785
  523SOL    HW2 2469  -0.060   4.361   4.356 -0.7229  0.1781 -0.6234
  524SOL     OW 2470   6.452   1.718   5.789 -0.6804 -0.1208  0.1941
  524SOL    HW1 2471   6.446   1.630   5.837  2.9734  0.4893  2.0978
  524SOL    HW2 2472   6.466   1.792   5.855 -2.0772  1.7473 -1.4772
  525SOL     OW 2473   5.239   0.170   0.431  0.2524 -0.3267 -0.0951
  525SOL    HW1 2474   5.220   0.125   0.519  0.3617  1.9029  1.1333
  525SOL    HW2 2475   5.335   0.197   0.427  0.1799 -0.1515 -0.7868
  526SOL     OW 2476   6.170   6.598   2.584  0.7226 -0.3781  0.1516
  526SOL    HW1 2477   6.212   6.508   2.568 -2.4580 -1.8719 -0.6777
  526SOL    HW2 2478   6.137   6.635   2.497  0.5652  0.8407  0.7134
  527SOL     OW 2479   2.870   5.388   2.619  0.0348  0.2670  0.5279
  527SOL    HW1 2480   2.823   5.309   2.659  0.6878 -0.2084  0.3618
  527SOL    HW2 2481   2.968   5.379   2.634  0.4532 -0.5324 -2.2211
  528SOL     OW 2482   0.690   1.050   0.154  0.2062 -0.1323 -0.1307
  528SOL    HW1 2483   0.766   1.059   0.218 -0.2257  0.4489  0.3065
  528SOL    HW2 2484   0.725   1.017   0.066  1.1442  1.1527 -0.2766
  529SOL     OW 2485   2.112   1.807   4.572  0.3002 -0.5825  0.0085
  529SOL    HW1 2486   2.131   1.826   4.669  0.2455 -0.7355  0.0496
  529SOL    HW2 2487   2.020   1.839   4.550  0.5766  0.1203 -0.1799
  530SOL     OW 2488   4.053   3.480   2.661 -0.1557  0.6225 -0.7551
  530SOL    HW1 2489   4.061   3.380   2.656  1.0540  0.6761 -0.1733
  530SOL    HW2 2490   4.070   3.520   2.571  0.0675  0.3424 -0.8387
  531SOL     OW 2491   2.859   0.147   4.183  0.3342 -0.1865  0.0760
  531SOL    HW1 2492   2.785   0.114   4.241  0.6035 -0.7006  0.1346
  531SOL    HW2 2493   2.939   0.167   4.239 -0.0658  1.3334  0.1441
  532SOL     OW 2494   6.174   3.720   5.580 -0.8098 -0.4268 -0.2282
  532SOL    HW1 2495   6.146   3.627   5.559  0.0213 -0.5663 -0.7628
  532SOL    HW2 2496   6.271   3.732   5.559 -1.2447  0.9967 -1.6556
  533SOL     OW 2497   5.806   3.756   5.963  0.1041 -0.0196  0.1050
  533SOL    HW1 2498   5.748   3.700   6.022  0.8111  0.8252  1.6539
  533SOL    HW2 2499   5.902   3.733   5.979  0.3045  0.1151 -0.8399
  534SOL     OW 2500   1.475   0.864   1.652 -0.0173  0.1237 -0.3889
  534SOL    HW1 2501   1.456   0.783   1.709 -0.8076  0.8072  0.3393
  534SOL    HW2 2502   1.573   0.868   1.633  0.6696  0.9990  2.7314
  535SOL     OW 2503   3.074   0.417   6.275 -0.1631  0.5625 -0.6449
  535SOL    HW1 2504   2.995   0.471   6.246  0.6131  3.0791  1.4608
  535SOL    HW2 2505   3.155   0.476   6.275  1.0176 -0.9908  0.5380
  536SOL     OW 2506   5.300   1.140   4.510 -0.3909  0.2117  0.4479
  536SOL    HW1 2507   5.393   1.103   4.507 -0.6017 -0.2879 -0.2258
  536SOL    HW2 2508   5.241   1.080   4.563 -0.6740 -0.2955 -0.4269
  537SOL     OW 2509   3.604   1.475   1.117  0.6872  0.3989 -0.0988
  537SOL    HW1 2510   3.571   1.551   1.061 -0.2078  0.8046  0.9251
  537SOL    HW2 2511   3.644   1.405   1.059 -0.9918  0.4043 -1.3389
  538SOL     OW 2512   6.396   5.258   0.064  0.7613 -0.2704 -1.2476
  538SOL    HW1 2513   6.443   5.185   0.114  1.4612  0.1509 -1.2763
  538SOL    HW2 2514   6.461   5.303   0.004  0.9844  1.9784  0.5453
  539SOL     OW 2515   0.158   4.680   1.362  0.2844  0.2482 -0.1710
  539SOL    HW1 2516   0.058   4.682   1.368  0.1462  0.0392 -1.8432
  539SOL    HW2 2517   0.185   4.614   1.293  1.5980  0.2682  0.3022
  540SOL     OW 2518   5.847   0.168   4.837 -0.4374  0.2963  0.0947
  540SOL    HW1 2519   5.904   0.207   4.764 -0.7500 -0.6623 -0.6907
  540SOL    HW2 2520   5.811   0.080   4.807 -2.0309  0.7045  0.7241
  541SOL     OW 2521   2.722   5.885   5.767  0.9857 -0.1396  0.2449
  541SOL    HW1 2522   2.708   5.815   5.836  1.2448  0.5726  1.0298
  541SOL    HW2 2523   2.660   5.868   5.689  0.8604 -1.0706  0.5383
  542SOL     OW 2524   5.079   1.865   4.795  0.1698 -0.1002  0.7953
  542SOL    HW1 2525   5.094   1.921   4.714 -1.3461  1.9490  1.8324
  542SOL    HW2 2526   4.988   1.823   4.790 -0.5105  1.1335  1.9494
  543SOL     OW 2527   2.901   5.972   0.771  0.3705 -0.5329 -0.4246
  543SOL    HW1 2528   2.825   5.960   0.834  0.3113  0.7498 -0.2192
  543SOL    HW2 2529   2.869   5.959   0.677 -0.5770  1.7847 -0.4873
  544SOL     OW 2530   5.892   3.038   6.709  0.4017 -0.3425  0.0227
  544SOL    HW1 2531   5.907   2.939   6.700 -2.4933 -0.7374 -1.8255
  544SOL    HW2 2532   5.840   3.056   6.793  0.5178 -0.4614  0.1197
  545SOL     OW 2533   2.469   5.398   6.430 -0.2895 -0.1468 -0.2024
  545SOL    HW1 2534   2.512   5.317   6.389 -1.0866 -0.7443  0.1323
  545SOL    HW2 2535   2.417   5.371   6.511  0.3703  0.8694  0.5807
  546SOL     OW 2536   4.576   6.608   1.999  0.5851 -0.1755  0.2530
  546SOL    HW1 2537   4.525   6.658   2.069 -0.2687  1.5439 -1.4925
  546SOL    HW2 2538   4.534   6.519   1.985 -1.1080  0.6462 -0.1472
  547SOL     OW 2539   3.930   5.239   3.799  0.2644  0.6035  0.1934
  547SOL    HW1 2540   3.852   5.259   3.860  0.4259  1.6473  0.0656
  547SOL    HW2 2541   3.996   5.313   3.804  0.4265  0.5514 -1.0411
  548SOL     OW 2542   2.315   1.866   4.933 -0.2067 -0.5313 -0.3783
  548SOL    HW1 2543   2.256   1.855   5.013  0.6321 -1.4357  0.1354
  548SOL    HW2 2544   2.276   1.935   4.872 -0.9485  0.0572  0.7268
  549SOL     OW 2545   5.275   2.854   3.152 -0.3248  0.2138  0.2686
  549SOL    HW1 2546   5.278   2.871   3.053 -1.3170 -3.3426 -0.5216
  549SOL    HW2 2547   5.355   2.801   3.180 -1.2662 -1.0155  0.7812
  550SOL     OW 2548   2.684   1.471   1.810 -0.6048  0.0390  0.2467
  550SOL    HW1 2549   2.672   1.455   1.712  2.1061  0.4494 -0.2223
  550SOL    HW2 2550   2.695   1.569   1.826  0.8036 -0.1703  0.6817
  551SOL     OW 2551   2.526   5.530   2.146 -0.0762 -0.2416  0.0477
  551SOL    HW1 2552   2.547   5.563   2.238 -0.1257  0.2334 -0.1102
  551SOL    HW2 2553   2.513   5.431   2.149  0.4627 -0.3061  0.4542
  552SOL     OW 2554   0.957   5.535   1.965 -1.2729  0.3612 -0.1127
  552SOL    HW1 2555   0.977   5.525   1.868 -0.9526  0.7763 -0.0907
  552SOL    HW2 2556   0.875   5.592   1.977 -1.7112 -0.2513 -0.1587
  553SOL     OW 2557   6.863   3.356   5.252 -0.3954  0.2307 -0.2312
  553SOL    HW1 2558   6.876   3.291   5.327  1.4434  0.2946 -0.4565
  553SOL    HW2 2559   6.836   3.307   5.170 -2.4696  0.1627  0.4414
  554SOL     OW 2560   4.384   2.823   6.772 -1.0960  0.0156  0.0285
  554SOL    HW1 2561   4.422   2.845   6.862 -0.3798  1.7743 -0.6758
  554SOL    HW2 2562   4.455   2.782   6.715 -0.6154  1.8836 -0.7760
  555SOL     OW 2563   4.601   5.963   5.293  0.3404 -0.0685 -0.0096
  555SOL    HW1 2564   4.576   5.930   5.384 -2.0545  0.0081 -0.5596
  555SOL    HW2 2565   4.639   5.887   5.240  0.0647 -0.5688  0.4926
  556SOL     OW 2566   2.629   2.073   4.131 -0.4138 -0.3561 -0.0668
  556SOL    HW1 2567   2.642   2.076   4.032 -2.2345 -1.5820 -0.3883
  556SOL    HW2 2568   2.640   2.165   4.168  0.7909  0.0373 -1.3214
  557SOL     OW 2569   2.239   0.671   3.848  0.4938  0.0950  0.1045
  557SOL    HW1 2570   2.170   0.711   3.787  0.9243  1.3921  0.4463
  557SOL    HW2 2571   2.243   0.723   3.933 -0.2217 -1.7886  1.3750
  558SOL     OW 2572   3.253   3.644   1.902  0.0716 -0.0947 -0.0685
  558SOL    HW1 2573   3.296   3.597   1.979  2.1640 -0.1725 -1.1986
  558SOL    HW2 2574   3.260   3.585   1.821 -0.1674  0.8460 -0.7793
  559SOL     OW 2575   5.676   2.180   0.869  0.1424  0.6148  0.0389
  559SOL    HW1 2576   5.674   2.232   0.955 -0.8311  0.2745  0.2455
  559SOL    HW2 2577   5.688   2.083   0.889 -1.4524  0.3546 -0.0758
  560SOL     OW 2578   3.500   1.142   0.756  0.4561 -0.2921 -0.2949
  560SOL    HW1 2579   3.591   1.139   0.797 -0.2015  0.1952  1.3027
  560SOL    HW2 2580   3.435   1.181   0.822 -1.1712 -1.8814 -0.8535
  561SOL     OW 2581   6.922   0.977   6.379 -0.0779  0.3593 -0.2165
  561SOL    HW1 2582   6.902   1.061   6.430  0.6479 -0.0156  0.7134
  561SOL    HW2 2583   6.851   0.963   6.310 -1.6348  0.4168  1.2909
  562SOL     OW 2584   1.700   6.495   1.375 -0.4771 -0.2432 -0.1568
  562SOL    HW1 2585   1.633   6.568   1.367  0.2736  0.7250  1.6493
  562SOL    HW2 2586   1.771   6.507   1.305 -1.0219 -0.0009 -0.6759
  563SOL     OW 2587   0.241   6.556   0.201  0.2630 -0.0367 -0.5433
  563SOL    HW1 2588   0.306   6.514   0.265  0.5694  0.8246 -0.2677
  563SOL    HW2 2589   0.188   6.626   0.249 -0.5396 -0.3970 -0.8861
  564SOL     OW 2590   5.556   4.721   4.916 -0.3243 -0.0467 -0.2339
  564SOL    HW1 2591   5.619   4.731   4.840 -2.8352  0.2332 -2.4173
  564SOL    HW2 2592   5.520   4.627   4.918 -1.8091  0.4805 -0.7417
  565SOL     OW 2593   3.351   3.479   2.496 -0.2044  0.4278  0.3997
  565SOL    HW1 2594   3.260   3.468   2.456 -0.0199  0.7928 -0.1378
  565SOL    HW2 2595   3.402   3.547   2.443  0.4668  0.0491  0.5483
  566SOL     OW 2596   0.510   3.408   2.862  0.5452  0.0996 -0.2470
  566SOL    HW1 2597   0.573   3.476   2.825  0.8584 -0.7176 -1.2446
  566SOL    HW2 2598   0.559   3.350   2.928  0.5803  0.0951 -0.2769
  567SOL     OW 2599   3.912   5.911   4.911 -0.1308  0.0901  0.3775
  567SOL    HW1 2600   3.936   5.814   4.912 -0.6500 -0.0492 -0.5140
  567SOL    HW2 2601   3.986   5.963   4.870 -0.4495 -0.1032 -0.4642
  568SOL     OW 2602   5.445   2.064   4.558  0.0200 -0.0107  0.2352
  568SOL    HW1 2603   5.498   2.023   4.632  1.0771 -0.1055 -0.5459
  568SOL    HW2 2604   5.497   2.058   4.473 -0.6130  1.2932 -0.2640
  569SOL     OW 2605   4.643   7.012   2.183 -0.1177 -0.0605 -0.8111
  569SOL    HW1 2606   4.687   6.972   2.103  0.7217  1.3758 -1.0966
  569SOL    HW2 2607   4.712   7.055   2.242 -0.9782  1.0834 -0.5918
  570SOL     OW 2608   3.981   1.762   1.073  0.4751  0.1383  0.1499
  570SOL    HW1 2609   4.065   1.776   1.126  0.1114  0.4123  0.6580
  570SOL    HW2 2610   3.927   1.846   1.072 -0.3493 -0.3728  0.8008
  571SOL     OW 2611   2.302   6.070   3.092 -0.3947 -1.1942  0.5559
  571SOL    HW1 2612   2.254   6.147   3.135  0.2358  0.3340 -1.3334
  571SOL    HW2 2613   2.256   6.047   3.005  0.8788 -1.2596 -0.1219
  572SOL     OW 2614   1.756   6.726   1.935 -0.3659 -1.0292  0.5324
  572SOL    HW1 2615   1.731   6.740   1.839 -0.7026 -1.8433  0.4968
  572SOL    HW2 2616   1.853   6.706   1.942 -0.5589 -2.1046  0.2436
  573SOL     OW 2617   0.016   6.587   6.765  0.1531  0.3218  0.0179
  573SOL    HW1 2618   0.105   6.575   6.721 -1.0702 -0.7056 -2.3487
  573SOL    HW2 2619   0.024   6.653   6.839  3.2175 -0.9745  0.9941
  574SOL     OW 2620   4.182   1.631   6.919 -0.2836  0.3758  0.3847
  574SOL    HW1 2621   4.168   1.674   6.830 -0.5632  2.2564  1.2931
  574SOL    HW2 2622   4.259   1.568   6.913  1.0405  1.9970 -0.7009
  575SOL     OW 2623   3.636   3.618   3.819 -0.6916  0.4042 -0.7697
  575SOL    HW1 2624   3.618   3.697   3.878 -0.0958 -0.1644  0.1966
  575SOL    HW2 2625   3.674   3.543   3.874  0.6672  0.1374 -2.0153
  576SOL     OW 2626   6.286   6.496   2.294  0.2572 -0.0567 -0.1658
  576SOL    HW1 2627   6.379   6.531   2.284  0.1701  0.4973  0.9114
  576SOL    HW2 2628   6.279   6.442   2.378  0.0699 -1.6665 -1.1696
  577SOL     OW 2629   0.365   6.302   0.712 -0.2878  0.0389 -0.0497
  577SOL    HW1 2630   0.438   6.354   0.668 -1.1583  0.0860 -1.5269
  577SOL    HW2 2631   0.282   6.359   0.719 -1.1408 -0.9748 -1.3554
  578SOL     OW 2632   6.053   1.222   4.329 -0.3536  0.2933 -0.1655
  578SOL    HW1 2633   6.091   1.214   4.237  1.6725  0.9148  0.5577
  578SOL    HW2 2634   6.052   1.319   4.357 -1.1898  0.1416  0.3602
  579SOL     OW 2635   3.353   2.350   0.895  0.3967  0.2841  0.2104
  579SOL    HW1 2636   3.408   2.281   0.942 -0.1098 -0.8166 -0.7615
  579SOL    HW2 2637   3.332   2.319   0.803  0.3360  1.8552 -0.3408
  580SOL     OW 2638   6.649   1.212   0.317  0.1098  0.1590 -0.5247
  580SOL    HW1 2639   6.677   1.149   0.244  2.8376  1.6273 -0.8677
  580SOL    HW2 2640   6.653   1.165   0.405  0.0149 -0.7127 -0.9773
  581SOL     OW 2641   5.728   1.840   3.749 -0.8022  0.4391 -0.8294
  581SOL    HW1 2642   5.723   1.831   3.649 -0.6633  1.3088 -0.9250
  581SOL    HW2 2643   5.702   1.754   3.792 -0.8673  0.0571 -1.6191
  582SOL     OW 2644   0.999   4.807   3.114 -0.5813  0.0252  0.2491
  582SOL    HW1 2645   1.012   4.876   3.043  0.4657 -0.5400 -0.1423
  582SOL    HW2 2646   0.924   4.834   3.174 -1.6902  0.3701 -1.2388
  583SOL     OW 2647   5.314   1.676   0.466  0.1373 -0.0910 -0.1926
  583SOL    HW1 2648   5.244   1.648   0.400  0.4595 -1.4880  0.0183
  583SOL    HW2 2649   5.396   1.707   0.417  0.1374 -0.4958 -0.4552
  584SOL     OW 2650   5.492   6.718   2.526  0.5052 -0.2391  0.0292
  584SOL    HW1 2651   5.427   6.769   2.470 -0.3073 -1.3355 -0.0463
  584SOL    HW2 2652   5.532   6.643   2.473  2.1993  0.6742 -0.0659
  585SOL     OW 2653   4.380   5.003   3.594  0.3000  0.5303 -0.5854
  585SOL    HW1 2654   4.320   5.024   3.672  3.6703  0.2339  2.3623
  585SOL    HW2 2655   4.378   4.904   3.577  0.2056  0.4681 -0.2337
  586SOL     OW 2656   6.786   4.853   1.528  0.1549  0.0697 -0.2068
  586SOL    HW1 2657   6.809   4.909   1.449 -1.7045 -1.1492 -1.7117
  586SOL    HW2 2658   6.710   4.896   1.578 -2.2236 -1.5827 -2.1493
  587SOL     OW 2659   1.937   3.234   3.362 -0.2243  0.3790  0.6154
  587SOL    HW1 2660   1.970   3.303   3.298 -0.7102 -0.6693 -0.8223
  587SOL    HW2 2661   1.897   3.158   3.311  0.2970 -0.9773  2.1554
  588SOL     OW 2662   4.946   4.972   3.760  0.0197  0.5927  0.0299
  588SOL    HW1 2663   5.031   4.970   3.813  1.4274  0.4594 -2.0830
  588SOL    HW2 2664   4.878   5.028   3.807  1.1698  0.4781  1.9190
  589SOL     OW 2665   2.697   1.326   3.272  0.9173  0.4043  0.1728
  589SOL    HW1 2666   2.664   1.292   3.360 -1.5540  0.5564 -0.5950
  589SOL    HW2 2667   2.796   1.340   3.276  0.8304  0.7939  3.0122
  590SOL     OW 2668   1.893   6.047   5.265  0.1580 -0.4359 -0.2418
  590SOL    HW1 2669   1.979   6.095   5.284 -0.5637  0.7554  0.1796
  590SOL    HW2 2670   1.907   5.978   5.195  1.0538  1.1163 -1.6397
  591SOL     OW 2671   2.512   2.969   6.592 -0.3015 -0.4933  0.5311
  591SOL    HW1 2672   2.448   3.018   6.532 -0.2839 -0.3981  0.5899
  591SOL    HW2 2673   2.488   2.872   6.594  0.7853 -0.8480 -1.0948
  592SOL     OW 2674   3.659   3.206   1.650  0.0810  0.1683 -0.5246
  592SOL    HW1 2675   3.685   3.117   1.686 -0.2080  0.2753 -0.0359
  592SOL    HW2 2676   3.585   3.195   1.584 -0.3651  0.0944 -0.0204
  593SOL     OW 2677   2.494   2.760   5.862  0.3377  0.0958  0.4530
  593SOL    HW1 2678   2.406   2.763   5.814  1.3273 -1.5995 -1.6510
  593SOL    HW2 2679   2.536   2.851   5.859 -0.3339  0.3997 -0.5728
  594SOL     OW 2680   5.676   4.470   4.824  0.4867  0.1494 -0.2056
  594SOL    HW1 2681   5.661   4.473   4.726 -0.4683 -0.3060 -0.0791
  594SOL    HW2 2682   5.759   4.522   4.847  1.3452 -0.6940 -1.3616
  595SOL     OW 2683   3.793   0.318   1.199 -0.2437  0.2894  0.0946
  595SOL    HW1 2684   3.765   0.303   1.104  2.4464 -0.4441 -0.6894
  595SOL    HW2 2685   3.825   0.231   1.238  0.2348  0.8949  1.1005
  596SOL     OW 2686   0.042   2.060   0.064 -0.1604 -0.0030  0.2880
  596SOL    HW1 2687   0.054   2.150   0.023  0.1959  0.1512  0.7230
  596SOL    HW2 2688  -0.044   2.057   0.114 -1.4780 -0.7632 -1.9390
  597SOL     OW 2689   5.670   5.638   2.530 -0.6459  0.4260  0.0224
  597SOL    HW1 2690   5.765   5.653   2.558  0.6891 -2.2882 -2.5077
  597SOL    HW2 2691   5.636   5.554   2.571 -0.5848 -0.6035 -1.9208
  598SOL     OW 2692   1.895   3.870   6.911  0.4221  0.4206 -0.8875
  598SOL    HW1 2693   1.981   3.850   6.958 -0.8770  0.1616  1.5475
  598SOL    HW2 2694   1.850   3.785   6.887 -0.7844  0.4181  1.1391
  599SOL     OW 2695   5.649   0.837   1.847  0.5014  0.1138 -0.2215
  599SOL    HW1 2696   5.605   0.752   1.817  0.9507 -0.3131  0.3135
  599SOL    HW2 2697   5.698   0.821   1.933  2.1764  0.4320 -1.0676
  600SOL     OW 2698   2.350   6.799   0.261 -0.0429 -0.5174 -0.1929
  600SOL    HW1 2699   2.321   6.866   0.192 -2.5740  0.0662  1.2840
  600SOL    HW2 2700   2.367   6.711   0.217  0.2280  0.2924 -1.7787
  601SOL     OW 2701   6.888   0.844   3.579  0.3768 -0.5344 -0.1804
  601SOL    HW1 2702   6.868   0.749   3.605  1.6921 -0.5607  0.8325
  601SOL    HW2 2703   6.901   0.849   3.481  1.2902 -1.6144 -0.1345
  602SOL     OW 2704   6.983   4.998   6.416  0.4250  0.0186 -0.1813
  602SOL    HW1 2705   6.955   4.987   6.321 -1.9338  0.5464  0.3954
  602SOL    HW2 2706   7.083   5.005   6.421  0.5653  0.5367 -2.6492
  603SOL     OW 2707   3.940   5.997   4.191  0.4825 -0.0406  1.1534
  603SOL    HW1 2708   4.010   6.014   4.121 -0.5209  0.3899  0.2253
  603SOL    HW2 2709   3.981   6.005   4.282  1.2075  2.4539  0.6910
  604SOL     OW 2710   4.388   3.073   5.960  0.1437 -0.4431 -0.6176
  604SOL    HW1 2711   4.291   3.065   5.936 -0.4475  0.7502  1.1758
  604SOL    HW2 2712   4.441   3.095   5.878 -1.0176 -1.5649 -1.7021
  605SOL     OW 2713   1.168   0.380   4.759  0.4717 -0.9875  0.3663
  605SOL    HW1 2714   1.220   0.352   4.840  1.5163 -0.0261  0.0513
  605SOL    HW2 2715   1.230   0.394   4.683 -0.4915 -1.7833 -0.6070
  606SOL     OW 2716   1.802   4.064   0.053  0.4419 -0.3400  0.1410
  606SOL    HW1 2717   1.789   4.147  -0.002  1.5973 -1.1496 -1.4433
  606SOL    HW2 2718   1.854   3.997   0.000 -1.0335 -2.3624  1.1002
  607SOL     OW 2719   7.011   3.408   1.934  0.3620 -0.2973 -0.0786
  607SOL    HW1 2720   6.970   3.334   1.988 -1.6862 -0.1271 -1.2967
  607SOL    HW2 2721   7.069   3.464   1.993 -0.6433 -0.9422  1.6008
  608SOL     OW 2722   4.800   1.065   0.872  0.1410 -0.1354 -0.4533
  608SOL    HW1 2723   4.868   1.082   0.944  0.1753 -2.9872  0.3060
  608SOL    HW2 2724   4.723   1.014   0.910 -1.1564  0.6535 -1.9028
  609SOL     OW 2725   0.822   6.418   1.821  0.4950 -0.0140 -0.4296
  609SOL    HW1 2726   0.826   6.484   1.896  0.3658 -0.7906  0.2741
  609SOL    HW2 2727   0.855   6.329   1.853 -0.3362 -0.5691 -1.0727
  610SOL     OW 2728   1.293   6.539   6.501  0.0636 -0.3246  0.1595
  610SOL    HW1 2729   1.352   6.569   6.576 -1.1779 -0.3422  1.1938
  610SOL    HW2 2730   1.210   6.498   6.539  0.6149 -2.9314 -1.2146
  611SOL     OW 2731   0.233   0.394   3.655 -0.0148 -0.2903  0.6655
  611SOL    HW1 2732   0.228   0.484   3.698 -0.5592  1.0709 -2.0888
  611SOL    HW2 2733   0.146   0.347   3.666 -1.2384  1.3132 -1.3992
  612SOL     OW 2734   1.737   1.754   1.041 -0.1569  0.4574  0.3036
  612SOL    HW1 2735   1.779   1.667   1.016  0.2853  0.7201  0.1039
  612SOL    HW2 2736   1.690   1.745   1.129 -1.2353 -0.3263 -0.3358
  613SOL     OW 2737   1.632   6.419   3.158 -0.5580 -0.9577 -0.3494
  613SOL    HW1 2738   1.533   6.417   3.143 -0.4679 -1.1252 -0.9402
  613SOL    HW2 2739   1.654   6.493   3.222 -0.9632 -0.2723 -0.9797
  614SOL     OW 2740   2.014   2.849   4.462 -0.3024  0.5249  0.4249
  614SOL    HW1 2741   2.089   2.907   4.431  0.3831 -1.1211 -1.1639
  614SOL    HW2 2742   2.037   2.808   4.550  1.1263 -0.6925 -0.4736
  615SOL     OW 2743   0.981   4.790   0.264 -0.0158 -0.4430  0.8681
  615SOL    HW1 2744   1.029   4.774   0.350  1.0895 -1.8778  0.0330
  615SOL    HW2 2745   0.903   4.728   0.256 -0.7185  0.3626  1.2345
  616SOL     OW 2746   1.897   6.274   2.321 -0.1981  0.1690 -0.2153
  616SOL    HW1 2747   1.930   6.182   2.297 -0.8139 -0.4470  1.1967
  616SOL    HW2 2748   1.812   6.266   2.372 -0.7146  1.5900 -0.8147
  617SOL     OW 2749   2.573   6.535   1.745  0.3154  0.1686  0.2052
  617SOL    HW1 2750   2.546   6.615   1.691 -1.7145  0.5109  1.6023
  617SOL    HW2 2751   2.550   6.452   1.695 -0.8862  0.4817  0.2089
  618SOL     OW 2752   3.753   0.774   6.665  0.0993 -0.0900 -0.1165
  618SOL    HW1 2753   3.793   0.736   6.748 -0.0067 -1.3024 -0.5905
  618SOL    HW2 2754   3.827   0.801   6.602  0.1928 -0.6041 -0.2379
  619SOL     OW 2755   3.245   3.626   4.771 -0.0874  0.0055  0.4779
  619SOL    HW1 2756   3.150   3.639   4.744  0.2332  0.2374 -0.5879
  619SOL    HW2 2757   3.263   3.676   4.856 -0.7385  0.5353  0.3111
  620SOL     OW 2758   6.661   5.261   2.710  0.0411 -0.2024 -0.8081
  620SOL    HW1 2759   6.630   5.180   2.660  0.7055  0.0345 -1.6264
  620SOL    HW2 2760   6.758   5.278   2.691  0.5569 -0.5846  1.2362
  621SOL     OW 2761   6.177   5.599   4.083 -0.4578 -0.1649  0.2514
  621SOL    HW1 2762   6.119   5.661   4.031  0.0789  0.2813  0.1809
  621SOL    HW2 2763   6.246   5.559   4.023  1.2457  1.6390  0.8941
  622SOL     OW 2764   0.269   0.193   2.986  0.1640  0.2835 -0.5733
  622SOL    HW1 2765   0.304   0.121   2.925  1.3621  2.6048 -2.8225
  622SOL    HW2 2766   0.341   0.259   3.004 -0.3074 -0.0145  3.1230
  623SOL     OW 2767   4.319   4.220   5.353  0.3299 -0.2257 -0.0442
  623SOL    HW1 2768   4.253   4.145   5.359 -0.2290  0.3319  1.2863
  623SOL    HW2 2769   4.299   4.276   5.272  0.4970 -1.2533 -0.8128
  624SOL     OW 2770   0.406   6.163   6.774  0.5331  0.0934  0.2112
  624SOL    HW1 2771   0.445   6.254   6.789  0.2981  0.4247 -1.0515
  624SOL    HW2 2772   0.306   6.168   6.784  0.6248 -0.3434  1.5332
  625SOL     OW 2773   4.034   1.773   3.424  0.1272  0.2385  0.5627
  625SOL    HW1 2774   4.124   1.783   3.468  0.9181 -1.7866 -0.4826
  625SOL    HW2 2775   4.012   1.676   3.416 -1.4604  0.6682 -0.6402
  626SOL     OW 2776   0.436   1.871   1.668  0.1962 -0.0907  0.0124
  626SOL    HW1 2777   0.519   1.864   1.612  0.4516 -1.3107  0.4956
  626SOL    HW2 2778   0.355   1.859   1.610  0.3817  0.5674 -0.3819
  627SOL     OW 2779   2.875   4.618   7.019  0.0701 -0.0046 -0.1846
  627SOL    HW1 2780   2.830   4.703   7.047 -0.3321 -1.0725  2.7537
  627SOL    HW2 2781   2.913   4.573   7.100  1.0655 -2.1936 -1.7935
  628SOL     OW 2782   0.932   3.171   5.424 -0.2244  0.4465  0.1500
  628SOL    HW1 2783   0.877   3.227   5.485 -1.0633  2.4323 -2.2469
  628SOL    HW2 2784   1.002   3.227   5.381 -2.1576  0.2635 -3.6442
  629SOL     OW 2785   5.159   0.938   4.372  0.1223 -0.0598  0.3195
  629SOL    HW1 2786   5.071   0.952   4.418 -0.1810  2.0247 -0.7872
  629SOL    HW2 2787   5.228   0.998   4.413  0.3729  0.2571 -0.5499
  630SOL     OW 2788   2.289   3.180   6.111 -0.1444 -0.6682 -0.0413
  630SOL    HW1 2789   2.299   3.131   6.025 -0.5690  1.8587 -1.6530
  630SOL    HW2 2790   2.192   3.189   6.133 -0.1983  0.9932 -0.8026
  631SOL     OW 2791   6.883   4.296   5.844 -0.2173  0.1315 -0.1978
  631SOL    HW1 2792   6.944   4.258   5.914  0.5719  0.0439 -0.9129
  631SOL    HW2 2793   6.801   4.240   5.837  1.0462 -1.7025 -1.4371
  632SOL     OW 2794   1.013   0.004   5.370 -0.6242  0.0306 -0.5044
  632SOL    HW1 2795   1.063   0.061   5.304  0.0674 -1.6225 -1.4698
  632SOL    HW2 2796   1.025   0.042   5.461 -0.6739  1.7452 -1.1678
  633SOL     OW 2797   4.043   5.056   2.994  0.1611 -0.6606  0.4500
  633SOL    HW1 2798   3.993   4.972   3.014 -0.8782  0.3054  2.1269
  633SOL    HW2 2799   3.983   5.135   3.008  1.5463  0.4442  0.4232
  634SOL     OW 2800   2.911   5.232   0.910  0.2965 -0.0376  0.7822
  634SOL    HW1 2801   2.995   5.224   0.856 -0.9620 -3.1742 -0.9735
  634SOL    HW2 2802   2.838   5.267   0.851 -0.2212  0.2647  1.5926
  635SOL     OW 2803   5.069   6.890   2.761 -0.3415 -0.6482 -0.3203
  635SOL    HW1 2804   5.153   6.894   2.815  0.4179 -2.1252 -1.3055
  635SOL    HW2 2805   5.041   6.795   2.750 -2.6105 -0.1543  0.6168
  636SOL     OW 2806   6.490   6.455   2.758  0.1132 -0.5235  0.5251
  636SOL    HW1 2807   6.582   6.476   2.727  0.1415 -1.9551 -0.4453
  636SOL    HW2 2808   6.493   6.427   2.854  0.7221 -0.7791  0.4359
  637SOL     OW 2809   5.943   1.932   4.955 -0.0386 -0.0612 -1.2926
  637SOL    HW1 2810   5.988   2.019   4.973  1.9092 -1.5126  1.6648
  637SOL    HW2 2811   5.977   1.894   4.869  1.3455  0.7740 -1.1502
  638SOL     OW 2812   1.441   1.967   3.005  0.6694 -0.0380  0.0944
  638SOL    HW1 2813   1.474   1.887   2.956  1.4394  0.3563 -0.0514
  638SOL    HW2 2814   1.513   2.001   3.066 -0.5547 -1.0678  2.2270
  639SOL     OW 2815   1.613   6.713   6.248 -0.6141  0.2242 -0.6753
  639SOL    HW1 2816   1.546   6.710   6.322  2.9728 -0.8928  2.8767
  639SOL    HW2 2817   1.617   6.623   6.203 -2.4550  0.7591 -2.0191
  640SOL     OW 2818   2.907   3.497   2.616 -0.2700 -0.3544 -0.0772
  640SOL    HW1 2819   2.933   3.578   2.667 -0.2553 -1.3500  1.5596
  640SOL    HW2 2820   2.818   3.464   2.648 -0.0395 -1.2855 -0.3553
  641SOL     OW 2821   2.834   1.124   0.825  0.4264 -0.1003  0.2184
  641SOL    HW1 2822   2.838   1.147   0.728 -2.0328  0.1077  0.1073
  641SOL    HW2 2823   2.777   1.191   0.873  0.6885 -0.8408  1.6175
  642SOL     OW 2824   4.492   5.975   5.051  0.1508  0.0987 -0.1092
  642SOL    HW1 2825   4.533   6.000   5.138  0.8612 -0.3063 -0.3178
  642SOL    HW2 2826   4.545   5.902   5.009  0.9322  1.5367 -1.7489
  643SOL     OW 2827   6.831   0.929   3.068 -0.0149 -0.0418 -0.2798
  643SOL    HW1 2828   6.748   0.985   3.077 -1.3197 -2.1459  2.9984
  643SOL    HW2 2829   6.840   0.898   2.974 -1.2725  2.5809 -1.3768
  644SOL     OW 2830   1.358   0.688   3.102  0.2069  0.4087  0.3671
  644SOL    HW1 2831   1.310   0.775   3.112 -0.2412  0.1329  0.6652
  644SOL    HW2 2832   1.327   0.625   3.174 -0.0109 -0.2348 -0.2786
  645SOL     OW 2833   5.827   4.786   5.942 -0.1758 -0.5797  0.4981
  645SOL    HW1 2834   5.909   4.840   5.963  0.4126 -1.1944 -0.1458
  645SOL    HW2 2835   5.763   4.842   5.890  0.7212 -0.6807 -0.7552
  646SOL     OW 2836   6.095   2.132   2.970  0.4619 -0.5396 -0.4642
  646SOL    HW1 2837   6.040   2.050   2.987 -0.3372  0.3276  1.5374
  646SOL    HW2 2838   6.054   2.186   2.897 -0.3911 -0.7668 -0.1626
  647SOL     OW 2839   4.685   6.330   6.938  0.1870  0.2987 -0.3949
  647SOL    HW1 2840   4.701   6.282   6.852  1.8841  0.9939 -0.5053
  647SOL    HW2 2841   4.726   6.421   6.934  0.6740  0.1935  1.2874
  648SOL     OW 2842   4.492   2.404   5.932 -0.6977 -0.2551  0.2897
  648SOL    HW1 2843   4.488   2.499   5.964  0.2377  0.0893 -0.5677
  648SOL    HW2 2844   4.559   2.354   5.987  0.5935  0.2272 -0.7907
  649SOL     OW 2845   6.584   4.467   4.812 -0.1804 -0.5009 -0.0735
  649SOL    HW1 2846   6.675   4.427   4.797 -1.2103 -2.0063 -3.2915
  649SOL    HW2 2847   6.576   4.552   4.760 -0.1988  0.3579  1.3079
  650SOL     OW 2848   1.476   2.380   2.978  0.4250 -0.3788 -0.5906
  650SOL    HW1 2849   1.563   2.364   3.026  0.5567 -2.7029 -1.4694
  650SOL    HW2 2850   1.404   2.326   3.022 -0.7866  1.9579  0.4812
  651SOL     OW 2851   2.163   5.669   2.842 -0.3360 -0.1742  0.5007
  651SOL    HW1 2852   2.067   5.650   2.864 -0.1396 -0.0099  1.5522
  651SOL    HW2 2853   2.221   5.632   2.914  0.2744  1.2546  0.7773
  652SOL     OW 2854   2.853   4.307   1.233 -0.4206  0.3942  0.0785
  652SOL    HW1 2855   2.795   4.352   1.301 -1.7171  0.0208 -0.7478
  652SOL    HW2 2856   2.899   4.229   1.274 -1.9733 -0.4310  0.2937
  653SOL     OW 2857   0.835   5.857   6.630  0.5625 -0.4554 -0.3893
  653SOL    HW1 2858   0.844   5.956   6.623  0.9425 -0.4034  0.6733
  653SOL    HW2 2859   0.803   5.833   6.722  0.8280 -1.3375 -0.5202
  654SOL     OW 2860   6.399   3.876   3.938 -0.3816  0.3103 -0.5580
  654SOL    HW1 2861   6.357   3.935   3.869  0.9487  1.1046 -0.7472
  654SOL    HW2 2862   6.350   3.790   3.944 -2.3929  1.4219 -0.2855
  655SOL     OW 2863   2.276   5.499   1.973  0.1711  0.2305  0.0535
  655SOL    HW1 2864   2.356   5.548   2.006 -0.0991  0.4717  0.3486
  655SOL    HW2 2865   2.290   5.474   1.877  0.0071  1.5283 -0.3296
  656SOL     OW 2866   0.201   5.777   0.223 -0.6205  0.1778 -0.0146
  656SOL    HW1 2867   0.101   5.771   0.221 -0.6539  0.7000 -0.2000
  656SOL    HW2 2868   0.234   5.738   0.309 -0.8982 -0.9310 -0.3934
  657SOL     OW 2869   4.102   0.801   3.428 -0.1737 -0.3427  0.3451
  657SOL    HW1 2870   4.149   0.889   3.441 -0.8114 -0.1824  1.7285
  657SOL    HW2 2871   4.015   0.817   3.382 -0.8531 -0.0715  1.6887
  658SOL     OW 2872   3.483   2.744   1.678  0.1769 -0.0929 -0.2799
  658SOL    HW1 2873   3.489   2.735   1.778  0.4551  0.7714 -0.2028
  658SOL    HW2 2874   3.575   2.750   1.640  0.2250 -3.3494 -0.9411
  659SOL     OW 2875   0.296   2.330   2.177  0.7149 -0.2433  0.2804
  659SOL    HW1 2876   0.339   2.356   2.090 -1.6605 -0.2604 -0.9942
  659SOL    HW2 2877   0.321   2.236   2.199  2.9984  0.4093  0.7593
  660SOL     OW 2878   1.715   5.258   3.676  0.4823  0.5418 -0.4508
  660SOL    HW1 2879   1.797   5.313   3.658  1.7741 -1.1152  0.1195
  660SOL    HW2 2880   1.742   5.167   3.707 -1.5950 -0.2041 -0.6758
  661SOL     OW 2881   1.864   0.981   5.852 -0.5149 -0.0053 -0.8323
  661SOL    HW1 2882   1.957   1.012   5.869 -0.3604 -1.0256  0.3343
  661SOL    HW2 2883   1.826   0.942   5.936 -1.7507 -0.2130 -1.4689
  662SOL     OW 2884   6.131   4.985   2.316 -0.1541  0.4068 -0.0599
  662SOL    HW1 2885   6.047   4.931   2.313 -0.5059  0.9759 -0.7548
  662SOL    HW2 2886   6.136   5.035   2.402 -1.4189  1.7210 -0.6947
  663SOL     OW 2887   4.640   5.050   6.931  0.3355  0.0702 -0.6618
  663SOL    HW1 2888   4.730   5.084   6.903  1.0381 -1.1887 -0.0481
  663SOL    HW2 2889   4.650   4.958   6.969 -0.8930  0.7615  1.4993
  664SOL     OW 2890   0.512   0.879   0.745  0.0754 -0.1339  0.2503
  664SOL    HW1 2891   0.421   0.891   0.785  0.1788 -0.0266  0.4529
  664SOL    HW2 2892   0.573   0.836   0.812 -0.1235 -1.2374 -0.2540
  665SOL     OW 2893   4.285   0.014   1.696 -0.3181 -0.4102  0.2281
  665SOL    HW1 2894   4.352   0.019   1.771 -0.4028 -1.1704  0.3660
  665SOL    HW2 2895   4.216   0.085   1.709 -1.0144 -1.2725  1.5663
  666SOL     OW 2896   4.120   0.044   5.406 -0.1274  0.6024 -0.0017
  666SOL    HW1 2897   4.077   0.061   5.494 -0.1406  0.7244 -0.0312
  666SOL    HW2 2898   4.107  -0.052   5.380 -0.0978  0.5597  0.1423
  667SOL     OW 2899   4.949   2.126   0.997 -0.4415  0.2265  0.0450
  667SOL    HW1 2900   4.952   2.079   0.909 -0.9040  0.8541 -0.3123
  667SOL    HW2 2901   5.038   2.165   1.018 -0.5922  0.9587 -0.6413
  668SOL     OW 2902   3.937   6.753   0.748 -0.4661 -0.4534  0.0004
  668SOL    HW1 2903   3.902   6.704   0.828 -0.9757 -2.4767 -1.3742
  668SOL    HW2 2904   3.861   6.777   0.688  0.0549 -0.7947 -0.8230
  669SOL     OW 2905   2.691   1.458   2.454 -0.4577  0.3410 -0.6037
  669SOL    HW1 2906   2.621   1.471   2.384  0.9243  2.3414 -1.7165
  669SOL    HW2 2907   2.771   1.515   2.432  1.9077 -2.4402  0.1088
  670SOL     OW 2908   6.811   1.765   6.415 -0.0701 -0.2841 -0.3898
  670SOL    HW1 2909   6.899   1.807   6.396 -0.1705 -0.2527 -0.8119
  670SOL    HW2 2910   6.814   1.668   6.388 -0.4739 -0.0348 -1.3737
  671SOL     OW 2911   5.406   6.218   4.794 -0.1609 -0.4454 -0.1939
  671SOL    HW1 2912   5.389   6.170   4.708 -1.6537  2.0355 -1.4129
  671SOL    HW2 2913   5.434   6.312   4.774  1.6435 -0.4285  2.0636
  672SOL     OW 2914   5.338   4.544   4.927  0.0275  0.2031  0.8006
  672SOL    HW1 2915   5.326   4.518   5.023  1.1482  2.0564  1.4869
  672SOL    HW2 2916   5.376   4.466   4.876 -1.0267 -0.9611  1.7237
  673SOL     OW 2917   6.693   0.572   4.592 -0.3661 -0.1352  0.1120
  673SOL    HW1 2918   6.727   0.615   4.676  0.5304 -1.2443  0.3443
  673SOL    HW2 2919   6.610   0.520   4.613  1.9847 -3.7633  1.3117
  674SOL     OW 2920   2.847   6.404   2.168  0.5119  0.3220  0.7020
  674SOL    HW1 2921   2.766   6.460   2.185 -0.5609 -0.7831 -0.5541
  674SOL    HW2 2922   2.852   6.330   2.235 -1.0079 -1.1384 -0.7016
  675SOL     OW 2923   2.209   5.285   3.896  0.6548 -0.2832 -0.3478
  675SOL    HW1 2924   2.232   5.372   3.852 -0.6081  0.0608 -0.3717
  675SOL    HW2 2925   2.180   5.219   3.826 -0.7442  0.0663 -0.1412
  676SOL     OW 2926   3.250   5.696   0.588 -0.1703  0.0777  1.1633
  676SOL    HW1 2927   3.302   5.780   0.570 -2.6671  1.7755  1.2524
  676SOL    HW2 2928   3.200   5.706   0.675 -1.7386 -0.8124  0.4143
  677SOL     OW 2929   4.738   2.212   2.266 -0.2614 -0.0709  0.2409
  677SOL    HW1 2930   4.748   2.300   2.218 -0.5493  1.2154  2.4218
  677SOL    HW2 2931   4.699   2.145   2.203 -0.6913  1.5340 -1.3082
  678SOL     OW 2932   5.945   4.163   3.791 -0.3780 -0.5797 -0.1164
  678SOL    HW1 2933   5.903   4.236   3.845 -0.8835 -1.7975  1.2089
  678SOL    HW2 2934   6.000   4.203   3.718 -2.3898  1.1096 -0.8174
  679SOL     OW 2935   4.883   6.364   0.869 -0.4067  0.2795  0.2864
  679SOL    HW1 2936   4.871   6.266   0.852 -1.1648  0.1217  1.5858
  679SOL    HW2 2937   4.901   6.379   0.966  0.5924  1.3720 -0.0418
  680SOL     OW 2938   3.362   5.794   3.961 -0.6095  0.2225  0.1092
  680SOL    HW1 2939   3.308   5.807   4.044 -1.3143 -0.4119 -0.2348
  680SOL    HW2 2940   3.452   5.757   3.986 -0.7923  0.0959  0.5992
  681SOL     OW 2941   1.492   1.587   3.015 -0.1088  0.6215  0.3941
  681SOL    HW1 2942   1.475   1.649   2.938  0.3381  0.4686  0.1670
  681SOL    HW2 2943   1.547   1.510   2.984 -0.6565  0.1110  0.6774
  682SOL     OW 2944   1.424   0.063   3.163  0.3450  0.0728  0.1157
  682SOL    HW1 2945   1.359   0.095   3.232 -0.2157  1.0281 -0.8191
  682SOL    HW2 2946   1.440   0.135   3.096  2.6191 -0.0424  0.4601
  683SOL     OW 2947   5.312   1.531   2.101 -0.6936  0.1824 -0.0438
  683SOL    HW1 2948   5.308   1.527   2.002  0.2191  1.6073 -0.1734
  683SOL    HW2 2949   5.385   1.471   2.135 -0.5894  0.1679 -0.2950
  684SOL     OW 2950   5.943   6.234   0.154 -0.3332 -0.2701 -0.3139
  684SOL    HW1 2951   5.978   6.141   0.164 -0.5506 -0.2788  0.4196
  684SOL    HW2 2952   6.006   6.298   0.198 -1.5816 -0.3626  1.7428
  685SOL     OW 2953   5.231   6.589   7.020  0.0423 -0.4997 -0.0001
  685SOL    HW1 2954   5.284   6.508   7.047 -0.2504 -0.8909 -0.5942
  685SOL    HW2 2955   5.197   6.577   6.927  0.2908  0.4621 -0.2225
  686SOL     OW 2956   6.810   1.168   2.758 -0.0871  0.0176 -0.0323
  686SOL    HW1 2957   6.733   1.107   2.776 -0.3802  1.2092  3.4714
  686SOL    HW2 2958   6.781   1.242   2.697 -1.6696  0.2512  0.9457
  687SOL     OW 2959   6.353   3.734   6.660 -0.8351 -0.0317 -0.0446
  687SOL    HW1 2960   6.387   3.769   6.747  0.2196  1.0902 -0.8660
  687SOL    HW2 2961   6.320   3.641   6.672  2.2438 -1.1333  0.9348
  688SOL     OW 2962   5.754   1.519   5.192  0.3494  0.3609 -0.1494
  688SOL    HW1 2963   5.835   1.527   5.133  1.1796  2.6822  1.1572
  688SOL    HW2 2964   5.680   1.474   5.142  1.2060  1.6517 -2.7400
  689SOL     OW 2965   3.446   1.563   3.885  0.2643  0.1622 -0.2727
  689SOL    HW1 2966   3.464   1.471   3.920 -0.8954 -0.2062 -0.5852
  689SOL    HW2 2967   3.442   1.628   3.960 -0.8359 -0.3892  0.1733
  690SOL     OW 2968   6.465   2.488   1.487  0.0413 -0.6499 -0.7481
  690SOL    HW1 2969   6.442   2.581   1.514  2.8484 -0.1870  0.4435
  690SOL    HW2 2970   6.520   2.490   1.404 -1.2158 -1.4149 -1.6307
  691SOL     OW 2971   5.068   2.931   2.228 -0.3979 -0.3704 -0.0612
  691SOL    HW1 2972   4.996   2.864   2.212 -1.9194  1.1712  0.0643
  691SOL    HW2 2973   5.121   2.906   2.309 -0.5195 -1.7338 -0.3870
  692SOL     OW 2974   6.195   3.713   6.356 -0.1027 -0.6953 -0.9440
  692SOL    HW1 2975   6.221   3.647   6.426 -1.5393 -0.5868 -0.2683
  692SOL    HW2 2976   6.163   3.664   6.274 -2.2769 -0.9289 -0.0293
  693SOL     OW 2977   3.357   5.290   1.876  0.2724 -0.1523 -0.4981
  693SOL    HW1 2978   3.315   5.230   1.944 -0.5328  1.1285  0.1809
  693SOL    HW2 2979   3.397   5.235   1.803 -0.1960 -1.5095  0.2328
  694SOL     OW 2980   2.622   0.043   4.288 -0.1358  0.1112  0.5410
  694SOL    HW1 2981   2.526   0.046   4.263 -0.0678  1.8050  0.3963
  694SOL    HW2 2982   2.647  -0.050   4.315 -1.7656 -0.3693  0.4497
  695SOL     OW 2983   6.946   5.108   6.109  0.6829 -0.4053  0.2357
  695SOL    HW1 2984   6.966   5.010   6.112  1.7152 -0.2832 -1.4057
  695SOL    HW2 2985   6.854   5.124   6.143 -0.0012 -2.1162 -0.6582
  696SOL     OW 2986   2.567   5.808   5.164 -0.1249 -0.0306 -0.3912
  696SOL    HW1 2987   2.476   5.849   5.170 -0.1539 -0.3072  1.6286
  696SOL    HW2 2988   2.637   5.879   5.170 -0.1986 -0.0614  1.1885
  697SOL     OW 2989   1.978   2.546   1.105 -0.2772 -0.3877  0.3376
  697SOL    HW1 2990   1.913   2.593   1.164  0.6045 -0.1450  1.1406
  697SOL    HW2 2991   2.011   2.464   1.152 -1.7492 -1.8261 -1.0154
  698SOL     OW 2992   6.082   5.390   1.886 -0.2416 -0.3870  0.9837
  698SOL    HW1 2993   6.175   5.425   1.900 -0.2071 -0.6738  1.4822
  698SOL    HW2 2994   6.039   5.374   1.974 -0.2158 -1.7135  0.7692
  699SOL     OW 2995   4.667   4.574   0.255 -0.1603  0.2455 -0.1824
  699SOL    HW1 2996   4.636   4.488   0.214 -1.0695 -0.0552  1.0785
  699SOL    HW2 2997   4.592   4.641   0.252 -0.7823 -0.2348  2.1824
  700SOL     OW 2998   4.397   0.589   4.011 -0.0236 -0.0683  0.8329
  700SOL    HW1 2999   4.378   0.519   3.943  0.4585  1.4739 -0.9736
  700SOL    HW2 3000   4.436   0.547   4.093 -0.1610 -1.9286 -0.0240
  701SOL     OW 3001   6.961   2.354   5.400 -0.3499 -0.1240  0.2258
  701SOL    HW1 3002   6.939   2.401   5.315  0.7461 -1.0555 -0.5996
  701SOL    HW2 3003   7.009   2.268   5.380 -2.8949 -2.0146  1.6285
  702SOL     OW 3004   6.344   2.276   3.236 -0.3332 -0.3983 -0.3209
  702SOL    HW1 3005   6.398   2.299   3.318 -0.9531  0.2896 -0.0958
  702SOL    HW2 3006   6.292   2.192   3.254  0.2779 -0.7923 -0.3633
  703SOL     OW 3007   0.044   1.495   1.562  0.5003 -0.2923 -0.6683
  703SOL    HW1 3008   0.131   1.490   1.611  1.1400 -0.5884 -1.8067
  703SOL    HW2 3009   0.034   1.586   1.522 -1.1831  0.8366  2.0213
  704SOL     OW 3010   2.892   5.485   5.144  0.7166  0.0887 -0.0191
  704SOL    HW1 3011   2.946   5.437   5.213 -0.6938 -0.0507  1.0344
  704SOL    HW2 3012   2.882   5.581   5.169 -1.8192 -0.4300  1.3839
  705SOL     OW 3013   3.355   6.316   6.233 -0.5588 -0.4492  0.8843
  705SOL    HW1 3014   3.414   6.346   6.308 -0.2605 -1.4421  1.0606
  705SOL    HW2 3015   3.407   6.317   6.148 -1.2431  1.8606  0.4536
  706SOL     OW 3016   4.578   6.751   4.997 -0.0416 -0.2708 -0.0051
  706SOL    HW1 3017   4.619   6.820   4.938  0.9153 -0.6563  0.1908
  706SOL    HW2 3018   4.522   6.796   5.068  0.6548  0.3069  0.1863
  707SOL     OW 3019   1.156   6.693   6.018  0.1866  0.3029  0.2269
  707SOL    HW1 3020   1.130   6.672   6.112 -4.1327 -0.1820 -0.8720
  707SOL    HW2 3021   1.113   6.778   5.989 -0.5179 -0.7166 -1.9403
  708SOL     OW 3022   2.335   5.912   5.195  0.4454  0.3234 -0.2384
  708SOL    HW1 3023   2.281   5.864   5.265  0.9604 -0.3538 -0.2965
  708SOL    HW2 3024   2.296   6.003   5.179 -0.5280 -0.0611 -0.1020
  709SOL     OW 3025   4.886   4.015   0.068 -0.0610 -0.5130 -0.1000
  709SOL    HW1 3026   4.931   3.947   0.125 -0.1163 -0.8990 -0.5145
  709SOL    HW2 3027   4.942   4.033  -0.013  0.1254  0.1975  0.1755
  710SOL     OW 3028   2.770   0.508   1.527 -0.2965  0.7113 -0.5559
  710SOL    HW1 3029   2.869   0.508   1.531 -0.3323  1.4153  1.6491
  710SOL    HW2 3030   2.738   0.421   1.488  1.1369 -0.5372  0.9079
  711SOL     OW 3031   3.246   0.306   0.795  0.1032 -0.2421 -0.4415
  711SOL    HW1 3032   3.221   0.373   0.725 -0.3251 -0.1188 -0.1761
  711SOL    HW2 3033   3.208   0.217   0.770 -0.3102 -0.1313 -0.2148
  712SOL     OW 3034   3.463   5.650   2.242 -0.1258  0.2561 -0.6015
  712SOL    HW1 3035   3.441   5.557   2.209  0.2880  0.2600 -0.9039
  712SOL    HW2 3036   3.548   5.680   2.199  0.3741  0.3106  0.4028
  713SOL     OW 3037   3.799   4.989   3.908  0.1086  0.2283 -0.0725
  713SOL    HW1 3038   3.863   4.921   3.872 -0.3972 -0.4731  0.3365
  713SOL    HW2 3039   3.850   5.064   3.950  0.6607 -0.3189  0.2450
  714SOL     OW 3040   3.130   2.346   1.045  0.6380  0.4475 -0.7066
  714SOL    HW1 3041   3.207   2.331   0.983  0.9504 -0.1589 -0.1909
  714SOL    HW2 3042   3.162   2.336   1.139  0.0830  0.9477 -0.4621
  715SOL     OW 3043   0.258   2.872   1.117  0.0321  0.0125 -0.1006
  715SOL    HW1 3044   0.211   2.959   1.134 -0.7108 -0.7418  1.9617
  715SOL    HW2 3045   0.313   2.880   1.033 -1.3257  1.9059 -0.8842
  716SOL     OW 3046   3.722   4.127   5.331  0.5399  0.4138  0.2269
  716SOL    HW1 3047   3.783   4.157   5.404 -0.3596 -1.9379  2.1122
  716SOL    HW2 3048   3.721   4.027   5.328 -0.1544  0.4292 -2.4730
  717SOL     OW 3049   5.087   1.620   3.208  0.7349 -0.0534 -0.1781
  717SOL    HW1 3050   4.995   1.625   3.169  1.3880 -1.1598 -1.9990
  717SOL    HW2 3051   5.142   1.695   3.172  0.9039 -0.1717 -0.1675
  718SOL     OW 3052   1.932   6.106   1.455 -0.2413 -0.1174 -0.7138
  718SOL    HW1 3053   1.984   6.155   1.525  2.3083 -1.9685 -1.1456
  718SOL    HW2 3054   1.962   6.136   1.365 -0.7802 -0.4162 -0.9972
  719SOL     OW 3055   5.404   5.716   6.302 -0.0210  0.5624 -0.7515
  719SOL    HW1 3056   5.394   5.676   6.211  1.3644 -0.0906 -0.6492
  719SOL    HW2 3057   5.398   5.643   6.371  1.9127  0.5675 -0.5212
  720SOL     OW 3058   5.563   0.646   0.411  0.1434  0.4156  0.3202
  720SOL    HW1 3059   5.513   0.613   0.491  1.4351  0.6481  1.2553
  720SOL    HW2 3060   5.516   0.726   0.374 -1.1451 -0.4214  0.0683
  721SOL     OW 3061   5.699   6.943   2.466  0.3002 -0.6180  0.0198
  721SOL    HW1 3062   5.654   6.955   2.378 -0.2773 -1.7523  0.1446
  721SOL    HW2 3063   5.654   6.869   2.517  0.8584 -0.2273  1.1103
  722SOL     OW 3064   3.991   3.090   0.344  0.7946  0.8067  0.7614
  722SOL    HW1 3065   3.966   3.167   0.285 -0.5731 -0.6628 -0.6871
  722SOL    HW2 3066   4.049   3.122   0.418  1.1271  3.0406 -0.3861
  723SOL     OW 3067   4.710   2.233   5.447  0.6237 -0.3373  0.0733
  723SOL    HW1 3068   4.639   2.255   5.514 -0.2341 -0.1963 -0.8729
  723SOL    HW2 3069   4.744   2.317   5.405 -0.1493 -0.5380 -0.9850
  724SOL     OW 3070   2.531   6.463   3.978  0.3249  0.6316  0.1809
  724SOL    HW1 3071   2.502   6.389   3.917  2.1756  1.8106 -2.3107
  724SOL    HW2 3072   2.527   6.431   4.073 -0.4925 -2.0714 -0.6520
  725SOL     OW 3073   5.469   2.894   3.998 -0.0824  0.7184  0.0730
  725SOL    HW1 3074   5.492   2.873   3.903 -0.8538  1.1374 -0.2068
  725SOL    HW2 3075   5.377   2.932   4.003 -0.4403 -0.2121  1.0953
  726SOL     OW 3076   2.823   3.103   1.766 -0.2642  0.0027 -0.2155
  726SOL    HW1 3077   2.810   3.196   1.732 -0.0757 -0.0345 -0.3887
  726SOL    HW2 3078   2.916   3.092   1.801  0.5786 -0.8368 -2.5154
  727SOL     OW 3079   3.735   1.694   3.709 -0.4290  0.5501  0.0130
  727SOL    HW1 3080   3.682   1.771   3.745  0.8518  2.2451 -1.5535
  727SOL    HW2 3081   3.819   1.727   3.668  0.4326 -1.7771 -0.2818
  728SOL     OW 3082   4.047   4.467   6.097  0.1517  0.2870 -0.1413
  728SOL    HW1 3083   4.027   4.498   6.190  1.4643  0.3449  0.1357
  728SOL    HW2 3084   4.068   4.369   6.098 -0.1512  0.2165 -0.4292
  729SOL     OW 3085   5.024   4.181   4.661  0.8638 -0.4031 -0.3901
  729SOL    HW1 3086   4.975   4.201   4.746  1.3725  1.4489 -0.4885
  729SOL    HW2 3087   5.119   4.159   4.683  0.6958 -1.1823 -0.4088
  730SOL     OW 3088   0.027   6.439   0.483  0.5727  0.5736 -0.1866
  730SOL    HW1 3089   0.074   6.362   0.440 -0.7758 -0.5890  0.3442
  730SOL    HW2 3090  -0.059   6.457   0.434 -0.1937  0.2802  1.0173
  731SOL     OW 3091   5.796   4.959   3.459  0.2936  0.2849  0.7612
  731SOL    HW1 3092   5.705   4.940   3.423  1.1008 -1.5354 -0.4957
  731SOL    HW2 3093   5.802   4.928   3.554  0.0923 -1.2833  0.2934
  732SOL     OW 3094   4.661   6.861   0.480  0.3136  0.2613  0.0685
  732SOL    HW1 3095   4.709   6.925   0.540 -2.0700  2.3692 -0.0878
  732SOL    HW2 3096   4.575   6.832   0.523 -0.5662  0.3684 -1.5250
  733SOL     OW 3097   1.986   1.903   0.438  0.5765 -0.1301  0.1576
  733SOL    HW1 3098   1.966   1.851   0.522 -2.0440 -1.8191 -1.3425
  733SOL    HW2 3099   2.069   1.867   0.396  0.6125 -0.8684  0.8294
  734SOL     OW 3100   0.729   6.536   3.164  0.2549 -0.7414 -0.1234
  734SOL    HW1 3101   0.769   6.619   3.204 -0.8679 -1.1567  2.0267
  734SOL    HW2 3102   0.629   6.546   3.162  0.1187 -1.9903  0.0344
  735SOL     OW 3103   5.756   5.063   4.978 -0.2166 -0.4956 -0.3399
  735SOL    HW1 3104   5.686   5.124   4.942  0.0481 -0.6493 -1.1213
  735SOL    HW2 3105   5.712   4.982   5.018 -0.4613 -1.1379 -1.8322
  736SOL     OW 3106   3.161   1.038   4.158 -0.0043 -0.2458 -0.0019
  736SOL    HW1 3107   3.228   0.972   4.191  0.6984 -0.0600 -0.9849
  736SOL    HW2 3108   3.169   1.123   4.210  0.2020 -0.3930  0.2042
  737SOL     OW 3109   2.911   5.099   6.903  0.2933 -0.1215  0.3638
  737SOL    HW1 3110   2.910   5.156   6.822 -0.3610  0.1170  0.5294
  737SOL    HW2 3111   2.925   5.003   6.877 -0.3331 -0.0992 -0.0681
  738SOL     OW 3112   2.938   5.384   1.154 -0.4298 -0.5843 -0.0784
  738SOL    HW1 3113   3.007   5.456   1.150  0.3945 -1.1215  2.3636
  738SOL    HW2 3114   2.948   5.323   1.076  1.6543 -0.4509  0.0261
  739SOL     OW 3115   2.569   1.422   1.103 -0.6194 -0.0953  0.2574
  739SOL    HW1 3116   2.479   1.457   1.129 -2.0076 -3.1484  0.0380
  739SOL    HW2 3117   2.559   1.356   1.028  1.6165 -1.4963  1.0628
  740SOL     OW 3118   5.528   3.258   2.745  0.0011  0.2976  0.1011
  740SOL    HW1 3119   5.595   3.266   2.671  0.6443 -2.1022  0.3292
  740SOL    HW2 3120   5.490   3.165   2.745 -0.8402  0.5976  2.0669
  741SOL     OW 3121   3.098   0.512   1.398 -0.2036 -0.2837  0.0823
  741SOL    HW1 3122   3.102   0.420   1.360 -0.8797 -0.9859  1.6327
  741SOL    HW2 3123   3.116   0.579   1.325 -0.5480 -1.5832 -1.2528
  742SOL     OW 3124   2.119   6.423   6.508  0.4073 -0.0270 -0.1037
  742SOL    HW1 3125   2.078   6.437   6.418  2.2728 -0.9368 -1.1554
  742SOL    HW2 3126   2.117   6.325   6.531 -0.8624  0.2967  1.2751
  743SOL     OW 3127   0.445   4.382   1.534 -0.0069 -0.7352 -0.4590
  743SOL    HW1 3128   0.519   4.448   1.521  0.0903 -0.3285  1.7740
  743SOL    HW2 3129   0.366   4.428   1.574 -0.9053 -1.4829 -1.3245
  744SOL     OW 3130   5.268   1.818   2.120 -0.3401  0.2838 -0.1902
  744SOL    HW1 3131   5.267   1.721   2.144 -0.0148  0.4262  0.4286
  744SOL    HW2 3132   5.359   1.842   2.086  0.7970  1.1320  3.0371
  745SOL     OW 3133   5.335   1.167   0.643 -0.4340 -0.1348  0.2159
  745SOL    HW1 3134   5.405   1.135   0.707 -2.2247  0.9804  2.9156
  745SOL    HW2 3135   5.344   1.266   0.631 -1.2514 -0.0478  0.2455
  746SOL     OW 3136   5.560   5.370   2.645  0.2614  0.1493  0.1221
  746SOL    HW1 3137   5.473   5.330   2.674  0.0941  0.8175  0.5732
  746SOL    HW2 3138   5.621   5.298   2.613 -0.2807 -0.3803  0.2544
  747SOL     OW 3139   4.947   0.807   1.377 -0.1451  0.2081 -0.4746
  747SOL    HW1 3140   5.040   0.836   1.399  0.1131  1.6938 -3.1206
  747SOL    HW2 3141   4.882   0.875   1.410 -0.2786 -0.5551  0.8843
  748SOL     OW 3142   5.693   5.639   1.023 -0.2683  0.4128  0.0807
  748SOL    HW1 3143   5.668   5.736   1.031 -1.1092  0.3351 -1.2951
  748SOL    HW2 3144   5.759   5.616   1.094  0.4141  2.1483  0.0718
  749SOL     OW 3145   0.439   3.811   7.022  0.1272  0.2523  0.4058
  749SOL    HW1 3146   0.365   3.860   6.976 -0.2726 -0.2040  0.5550
  749SOL    HW2 3147   0.490   3.873   7.081  1.0623  1.0206 -1.1261
  750SOL     OW 3148   4.824   6.920   2.674 -0.2402 -0.9356 -0.1231
  750SOL    HW1 3149   4.828   6.866   2.590  1.9721 -1.1184  0.0274
  750SOL    HW2 3150   4.916   6.930   2.711 -1.0369  0.0382  1.7324
  751SOL     OW 3151   0.200   4.403   0.955  0.1832 -0.1779  0.3800
  751SOL    HW1 3152   0.243   4.477   1.007  0.3496 -0.7339  1.0578
  751SOL    HW2 3153   0.122   4.368   1.007  1.2633 -1.7719  1.0188
  752SOL     OW 3154   1.693   6.781   5.466  0.2750  0.3148 -0.3737
  752SOL    HW1 3155   1.787   6.748   5.459  0.1842  0.0144 -0.2251
  752SOL    HW2 3156   1.637   6.739   5.395  0.3072  0.6971 -0.6283
  753SOL     OW 3157   2.984   3.889   1.763 -0.0530  0.0974  0.3224
  753SOL    HW1 3158   3.033   3.852   1.684 -0.7849  2.4033 -1.3294
  753SOL    HW2 3159   3.015   3.843   1.846  2.3345 -0.9451 -1.0400
  754SOL     OW 3160   2.546   6.320   4.211  0.1488  0.3959 -0.4102
  754SOL    HW1 3161   2.619   6.377   4.249 -1.5657  0.8629  2.5111
  754SOL    HW2 3162   2.587   6.248   4.155  2.7929  1.0635  0.4860
  755SOL     OW 3163   0.979   6.506   3.502 -0.0243 -0.0379  0.4351
  755SOL    HW1 3164   1.006   6.427   3.556  0.7890  0.3115  0.5474
  755SOL    HW2 3165   0.906   6.481   3.439  0.8594 -1.0961 -0.1878
  756SOL     OW 3166   3.685   1.172   5.691 -0.6246  0.2290  0.6954
  756SOL    HW1 3167   3.768   1.163   5.636  0.9900 -0.3732  3.0545
  756SOL    HW2 3168   3.662   1.083   5.731 -0.7783  0.9308  2.2359
  757SOL     OW 3169   5.770   3.018   0.537 -0.2743  0.1492  0.2392
  757SOL    HW1 3170   5.852   2.965   0.517  0.1150  0.6276  0.5669
  757SOL    HW2 3171   5.795   3.106   0.576 -0.9166  0.5975 -0.3343
  758SOL     OW 3172   2.418   1.729   1.234 -0.4037 -0.1128  0.4803
  758SOL    HW1 3173   2.385   1.665   1.164 -0.2151  0.1357  0.1603
  758SOL    HW2 3174   2.475   1.679   1.300  2.1987  0.1798 -1.3913
  759SOL     OW 3175   2.390   1.691   5.897 -0.1239  0.1334 -0.0136
  759SOL    HW1 3176   2.354   1.651   5.812  0.6758  2.2358 -1.4477
  759SOL    HW2 3177   2.351   1.783   5.910 -0.7528 -0.4072  2.3137
  760SOL     OW 3178   6.010   4.505   0.712  0.0439  0.0760 -0.4556
  760SOL    HW1 3179   6.097   4.508   0.664 -0.3790 -1.1648 -1.3653
  760SOL    HW2 3180   5.941   4.462   0.654 -1.0069  0.3845  0.5119
  761SOL     OW 3181   5.527   5.285   5.485 -0.1719  0.4006  0.4485
  761SOL    HW1 3182   5.445   5.324   5.527 -1.2416  0.5291 -1.6330
  761SOL    HW2 3183   5.599   5.353   5.483 -1.3887  1.7481 -1.3752
  762SOL     OW 3184   4.925   3.233   6.452  0.0613  0.2790  0.5475
  762SOL    HW1 3185   4.907   3.329   6.433  2.6720  0.8610  0.5631
  762SOL    HW2 3186   4.891   3.209   6.543 -3.4551  0.2239 -0.6325
  763SOL     OW 3187   0.085   6.419   3.800 -0.2027 -0.1289  0.1333
  763SOL    HW1 3188   0.008   6.401   3.861  1.4426 -0.5796  2.1960
  763SOL    HW2 3189   0.051   6.434   3.707 -2.6621 -1.4270  0.7312
  764SOL     OW 3190   3.481   2.531   6.925 -0.3897  0.0120 -0.3813
  764SOL    HW1 3191   3.570   2.544   6.967  0.2259 -0.7628 -1.3889
  764SOL    HW2 3192   3.439   2.620   6.907 -0.1389  0.3698  0.7256
  765SOL     OW 3193   2.132   3.615   2.481 -0.5173 -0.0383  0.7463
  765SOL    HW1 3194   2.175   3.695   2.524 -1.4773 -0.5466  2.7604
  765SOL    HW2 3195   2.033   3.624   2.486 -0.6771 -0.2422 -1.2541
  766SOL     OW 3196   0.983   2.832   6.180  0.2911 -0.6425  0.2784
  766SOL    HW1 3197   1.065   2.884   6.204  0.5197 -1.2910  0.9276
  766SOL    HW2 3198   0.916   2.893   6.138  2.2241 -0.6100 -3.0603
  767SOL     OW 3199   3.946   0.001   2.232 -0.1200 -0.2851  0.3584
  767SOL    HW1 3200   3.853   0.004   2.196 -0.0575  1.2087  0.2324
  767SOL    HW2 3201   3.944   0.016   2.331 -0.1196 -1.9765  0.6337
  768SOL     OW 3202   1.354   5.406   2.026  0.2936 -0.4565 -0.7969
  768SOL    HW1 3203   1.354   5.352   1.942  0.9340  0.8647 -1.6826
  768SOL    HW2 3204   1.443   5.450   2.037 -0.2934  0.6351 -0.2570
  769SOL     OW 3205   1.758   5.540   0.437 -0.3448  0.3580 -0.6005
  769SOL    HW1 3206   1.706   5.455   0.441 -1.5333  1.0066 -1.4930
  769SOL    HW2 3207   1.728   5.601   0.510  0.2888  0.1301 -0.1483
  770SOL     OW 3208   0.041   2.820   6.111  0.8159 -0.4599  1.0173
  770SOL    HW1 3209   0.092   2.793   6.030  1.6080  0.5421  1.1687
  770SOL    HW2 3210  -0.019   2.897   6.089 -1.7066 -2.4330  0.4921
  771SOL     OW 3211   5.523   1.875   6.608 -0.4872 -0.0659 -0.2315
  771SOL    HW1 3212   5.528   1.815   6.528  0.5055 -1.3722  0.7662
  771SOL    HW2 3213   5.429   1.907   6.620 -0.4435  1.1662 -2.5957
  772SOL     OW 3214   6.909   6.975   6.950 -0.4625  0.1838  0.4710
  772SOL    HW1 3215   6.809   6.977   6.948 -0.4883  2.4486  0.5335
  772SOL    HW2 3216   6.941   6.885   6.980 -2.4389 -0.8530 -0.3461
  773SOL     OW 3217   0.665   4.122   2.838  0.3142 -0.5605 -0.4920
  773SOL    HW1 3218   0.728   4.144   2.912  0.5717  0.5853 -1.0139
  773SOL    HW2 3219   0.712   4.131   2.750 -1.0454  2.5792 -1.0435
  774SOL     OW 3220   1.215   5.260   2.500 -0.2761  0.3722 -0.1535
  774SOL    HW1 3221   1.187   5.175   2.455  0.1868  0.7538 -1.1887
  774SOL    HW2 3222   1.308   5.284   2.472 -0.4752  1.3241 -0.0413
  775SOL     OW 3223   3.668   2.001   5.537 -0.0127  0.5225 -0.4983
  775SOL    HW1 3224   3.736   1.928   5.532 -1.5315 -1.1137  0.9869
  775SOL    HW2 3225   3.701   2.082   5.489  4.0467  0.7070  2.1155
  776SOL     OW 3226   6.833   2.464   5.845 -0.0805 -0.4353  0.2466
  776SOL    HW1 3227   6.917   2.515   5.829  0.6429 -1.6310  0.1084
  776SOL    HW2 3228   6.821   2.451   5.944 -0.3156  0.0662  0.2874
  777SOL     OW 3229   3.731   3.985   2.793 -0.1124 -0.0327 -0.5381
  777SOL    HW1 3230   3.788   3.942   2.723  0.0966 -1.0529  0.2371
  777SOL    HW2 3231   3.784   4.054   2.842  0.3549 -0.6982 -0.0868
  778SOL     OW 3232   4.298   5.529   6.670  0.1915 -0.0567  0.4507
  778SOL    HW1 3233   4.286   5.479   6.755 -2.8119  2.2188  1.5660
  778SOL    HW2 3234   4.223   5.507   6.607  1.6765 -0.7530 -1.1648
  779SOL     OW 3235   1.729   3.140   2.374 -0.2176  0.0516  0.0091
  779SOL    HW1 3236   1.826   3.118   2.373 -0.1270  0.2968  1.2819
  779SOL    HW2 3237   1.677   3.061   2.407 -0.4206  0.0329 -0.3496
  780SOL     OW 3238   6.797   1.223   0.956  0.0255  0.3931 -0.5271
  780SOL    HW1 3239   6.702   1.253   0.947 -0.3584 -0.1287  1.2261
  780SOL    HW2 3240   6.816   1.204   1.053  2.2529  1.5752 -0.6731
  781SOL     OW 3241   3.278   0.097   4.210 -0.4748 -0.0424  0.0497
  781SOL    HW1 3242   3.207   0.056   4.153  0.2727 -1.6435  0.2191
  781SOL    HW2 3243   3.282   0.049   4.298  1.2639 -0.4380 -0.2182
  782SOL     OW 3244   5.567   4.918   1.309 -0.0600  0.9143 -0.1466
  782SOL    HW1 3245   5.638   4.925   1.240 -0.1447  1.2050 -0.2050
  782SOL    HW2 3246   5.521   4.829   1.301  2.0035 -0.4013  1.5494
  783SOL     OW 3247   3.760   1.215   5.258 -0.1116  0.0478  0.0952
  783SOL    HW1 3248   3.814   1.162   5.324 -0.3600 -0.6104 -0.2231
  783SOL    HW2 3249   3.819   1.248   5.185 -0.0819 -0.3674 -0.0649
  784SOL     OW 3250   0.620   5.047   0.043  0.0997  0.3404 -0.3020
  784SOL    HW1 3251   0.618   4.971  -0.022 -0.1923 -0.3285  0.4732
  784SOL    HW2 3252   0.595   5.132  -0.004 -2.1774 -0.4617 -0.6389
  785SOL     OW 3253   6.176   5.340   0.503 -0.3586 -0.1393 -0.1896
  785SOL    HW1 3254   6.119   5.285   0.565 -1.8638  3.0776  1.5580
  785SOL    HW2 3255   6.240   5.394   0.557 -0.2256  1.1942 -1.6219
  786SOL     OW 3256   0.430   3.338   0.455  0.2416 -0.3475  0.1782
  786SOL    HW1 3257   0.451   3.260   0.513 -1.1201 -0.3192  0.7386
  786SOL    HW2 3258   0.331   3.343   0.439  0.1899  1.7110  0.8250
  787SOL     OW 3259   6.843   6.597   3.379 -0.1784 -0.1183  0.1200
  787SOL    HW1 3260   6.870   6.687   3.413  2.3258  0.2310 -2.3418
  787SOL    HW2 3261   6.746   6.597   3.355  0.1441  2.6535 -1.6308
  788SOL     OW 3262   3.336   7.007   4.448  0.3740 -0.1354  0.5724
  788SOL    HW1 3263   3.280   6.929   4.475 -1.5013  0.0895 -2.2238
  788SOL    HW2 3264   3.431   6.978   4.436  0.1011 -1.4901  1.4944
  789SOL     OW 3265   3.898   5.249   1.284 -0.0019  0.0233  0.0103
  789SOL    HW1 3266   3.814   5.296   1.257 -0.4812 -1.1388 -0.5521
  789SOL    HW2 3267   3.876   5.158   1.319  0.6304  1.1165  3.6888
  790SOL     OW 3268   4.897   3.676   2.045 -0.0852 -0.1608  0.7328
  790SOL    HW1 3269   4.935   3.597   2.092  0.6589  0.0967  0.5785
  790SOL    HW2 3270   4.859   3.648   1.957  0.2689 -0.3352  0.6326
  791SOL     OW 3271   3.643   2.975   6.348 -0.9490  0.3168 -0.7141
  791SOL    HW1 3272   3.614   2.880   6.339 -2.3194  0.6993 -0.5666
  791SOL    HW2 3273   3.641   3.001   6.445 -0.6400  0.5079 -0.7583
  792SOL     OW 3274   1.744   6.151   3.847 -0.5219 -0.3955 -0.5201
  792SOL    HW1 3275   1.725   6.122   3.941  1.8690 -0.3310  0.0467
  792SOL    HW2 3276   1.727   6.075   3.784 -2.5967 -0.2965 -0.1491
  793SOL     OW 3277   3.370   1.631   0.715 -0.1034  0.0369 -0.7519
  793SOL    HW1 3278   3.454   1.582   0.689  0.7346  0.8647  0.3489
  793SOL    HW2 3279   3.308   1.568   0.761  0.4021 -0.3188 -0.5467
  794SOL     OW 3280   3.983   3.263   3.326 -0.2844 -0.2560  0.5781
  794SOL    HW1 3281   4.009   3.335   3.390  0.3720 -1.1105  1.2957
  794SOL    HW2 3282   3.997   3.174   3.368  1.7142 -0.9259 -1.2610
  795SOL     OW 3283   2.034   3.729   3.575 -0.3688 -0.0127 -0.1429
  795SOL    HW1 3284   2.028   3.730   3.475  0.0316 -0.2032 -0.1682
  795SOL    HW2 3285   2.038   3.635   3.608  0.4147  0.0665 -0.0025
  796SOL     OW 3286   2.428   4.835   6.631  0.1080 -0.1935 -0.8202
  796SOL    HW1 3287   2.424   4.929   6.665  3.2598  0.1848 -1.2597
  796SOL    HW2 3288   2.453   4.774   6.706 -0.9761 -0.5809 -0.7534
  797SOL     OW 3289   0.058   0.485   4.174  0.5510  0.1905 -0.4471
  797SOL    HW1 3290   0.043   0.558   4.241  0.1290 -0.5490  0.2883
  797SOL    HW2 3291  -0.030   0.454   4.139  0.6991 -0.2724 -0.4130
  798SOL     OW 3292   2.354   2.547   6.855  0.7489  0.0701  0.5415
  798SOL    HW1 3293   2.405   2.603   6.790  0.6166 -0.9852 -0.4916
  798SOL    HW2 3294   2.284   2.603   6.900  1.4536  1.0295  0.4809
  799SOL     OW 3295   0.936   4.375   5.468 -0.0288 -0.4826  0.4546
  799SOL    HW1 3296   0.924   4.473   5.453  0.6950 -0.4220  0.2410
  799SOL    HW2 3297   0.907   4.324   5.387 -0.0303 -0.4248  0.4192
  800SOL     OW 3298   4.082   0.778   4.409  0.1005  0.2682 -0.0024
  800SOL    HW1 3299   4.169   0.729   4.414 -0.7713 -1.1773  1.9603
  800SOL    HW2 3300   4.081   0.851   4.478 -0.4181 -0.0107  0.2873
  801SOL     OW 3301   0.526   4.761   1.996 -0.2062  0.0415 -0.4581
  801SOL    HW1 3302   0.481   4.672   1.991 -0.3402  0.1006 -0.3180
  801SOL    HW2 3303   0.556   4.788   1.904  0.0119 -0.2361 -0.4695
  802SOL     OW 3304   5.966   3.462   1.670  0.0642  0.3396  0.1779
  802SOL    HW1 3305   6.031   3.469   1.746  1.5281  0.0904 -1.0018
  802SOL    HW2 3306   5.970   3.370   1.632 -1.8509 -0.0347  0.7905
  803SOL     OW 3307   5.374   6.778   0.631  0.3183 -0.1689  0.0836
  803SOL    HW1 3308   5.396   6.874   0.648  1.3231 -0.2878 -0.4779
  803SOL    HW2 3309   5.383   6.726   0.716  2.9744 -0.3310 -0.2055
  804SOL     OW 3310   2.145   3.239   0.773 -0.4767  0.0101  0.3256
  804SOL    HW1 3311   2.055   3.197   0.762 -0.8857  1.1460 -0.8661
  804SOL    HW2 3312   2.213   3.168   0.791 -1.2347 -1.0939 -1.0167
  805SOL     OW 3313   0.843   6.145   6.629  0.4820 -0.0933  0.1413
  805SOL    HW1 3314   0.797   6.149   6.540 -1.1439 -1.1206  0.9030
  805SOL    HW2 3315   0.831   6.231   6.677 -0.8290 -0.4188  0.4114
  806SOL     OW 3316   1.913   2.568   0.734 -0.2582 -0.1247  0.0033
  806SOL    HW1 3317   1.994   2.626   0.741 -0.7196  0.9462 -2.4159
  806SOL    HW2 3318   1.839   2.605   0.790 -0.7554  2.1326 -1.9773
  807SOL     OW 3319   3.998   1.497   3.362  0.5860  1.0012  0.2359
  807SOL    HW1 3320   4.009   1.489   3.262  0.4461  0.7368  0.2416
  807SOL    HW2 3321   4.048   1.423   3.407  0.1796  0.7877  0.3378
  808SOL     OW 3322   2.590   6.530   1.361  0.3834  0.0877 -0.0406
  808SOL    HW1 3323   2.610   6.481   1.276 -1.0285  2.8897 -2.1599
  808SOL    HW2 3324   2.674   6.537   1.416  1.0018 -3.0678 -0.3952
  809SOL     OW 3325   0.340   1.732   4.177  0.2182 -0.0718  0.0025
  809SOL    HW1 3326   0.399   1.778   4.243  0.4022 -0.8150  0.3585
  809SOL    HW2 3327   0.267   1.683   4.224 -0.9582  1.1514 -0.4425
  810SOL     OW 3328   3.212   4.792   6.864  0.1424 -0.2636  0.8012
  810SOL    HW1 3329   3.228   4.694   6.850 -0.9807 -0.2153 -1.0850
  810SOL    HW2 3330   3.119   4.815   6.837  0.5162  1.4048  0.8359
  811SOL     OW 3331   0.397   3.639   3.644  0.0078  0.2575 -0.1627
  811SOL    HW1 3332   0.465   3.593   3.700  0.0811  0.7915  0.1998
  811SOL    HW2 3333   0.423   3.735   3.632 -0.2472  0.2658 -0.7251
  812SOL     OW 3334   0.122   2.152   3.652 -0.0127 -0.8164  0.5146
  812SOL    HW1 3335   0.217   2.130   3.678 -0.2284 -0.5240  1.6090
  812SOL    HW2 3336   0.064   2.073   3.672 -0.3384 -0.2576  1.8739
  813SOL     OW 3337   3.433   7.015   6.051  0.2229 -0.2176 -0.0854
  813SOL    HW1 3338   3.476   7.081   6.113 -0.5460 -0.4832  0.7580
  813SOL    HW2 3339   3.490   6.934   6.044 -0.1646 -0.6361  1.1566
  814SOL     OW 3340   0.526   1.237   4.335  0.0946 -0.2780  0.2999
  814SOL    HW1 3341   0.602   1.292   4.300 -0.3497  0.3275  0.2769
  814SOL    HW2 3342   0.559   1.145   4.355  0.9625  0.1164  0.7656
  815SOL     OW 3343   2.293   0.316   5.777 -0.0607  0.2781 -0.0856
  815SOL    HW1 3344   2.240   0.249   5.725  1.7444 -2.0490  0.9451
  815SOL    HW2 3345   2.240   0.345   5.857 -1.0087  0.4057 -0.7372
  816SOL     OW 3346   1.085   6.059   2.356  0.4871  0.3326  0.3977
  816SOL    HW1 3347   1.134   5.996   2.296 -0.1413 -1.0845  1.3149
  816SOL    HW2 3348   0.993   6.024   2.373 -0.0490  1.7585  0.5675
  817SOL     OW 3349   1.615   0.172   0.445 -0.0448 -0.0178  0.0729
  817SOL    HW1 3350   1.685   0.189   0.514  1.7034 -1.7878 -1.1631
  817SOL    HW2 3351   1.608   0.251   0.385 -0.3303  0.8307  1.1810
  818SOL     OW 3352   4.319   4.967   4.490  0.0565  0.0911 -0.2092
  818SOL    HW1 3353   4.322   5.004   4.583 -1.4356 -1.0398  0.3198
  818SOL    HW2 3354   4.380   4.888   4.484  0.3500  0.3212 -0.2688
  819SOL     OW 3355   6.406   1.163   1.220 -0.0688 -0.0414 -0.1094
  819SOL    HW1 3356   6.433   1.084   1.164  0.5994 -1.0378  1.5504
  819SOL    HW2 3357   6.466   1.240   1.198  1.6398 -1.0646  0.7173
  820SOL     OW 3358   1.753   1.495   6.077 -0.1215  0.6100  0.2711
  820SOL    HW1 3359   1.741   1.569   6.143 -1.9628  0.6971 -0.1021
  820SOL    HW2 3360   1.666   1.479   6.029  0.8547 -0.2263 -1.3056
  821SOL     OW 3361   5.568   6.368   2.751  0.3995  0.3095  0.3466
  821SOL    HW1 3362   5.666   6.355   2.736  0.1279 -2.4536  0.5478
  821SOL    HW2 3363   5.517   6.298   2.702 -1.2414 -0.8043  3.3948
  822SOL     OW 3364   4.153   5.716   3.002  0.0817 -0.2917 -0.5794
  822SOL    HW1 3365   4.058   5.691   2.988 -1.2216  2.5427  2.0490
  822SOL    HW2 3366   4.182   5.779   2.930 -0.3936 -0.2842 -0.7672
  823SOL     OW 3367   4.017   6.380   1.766  0.4395 -0.9567  0.3849
  823SOL    HW1 3368   4.062   6.443   1.829  0.1240 -0.6145  0.2694
  823SOL    HW2 3369   3.928   6.354   1.803  0.4914 -1.1921  0.3443
  824SOL     OW 3370   2.984   6.786   1.158  0.6719  0.2271  0.3168
  824SOL    HW1 3371   2.990   6.870   1.211  0.5534  0.4681 -0.0422
  824SOL    HW2 3372   2.951   6.808   1.065  1.2957 -0.1207  0.0085
  825SOL     OW 3373   5.835   1.822   2.121 -0.3425  0.1998  0.0502
  825SOL    HW1 3374   5.896   1.884   2.170 -0.0885 -0.3284  0.4136
  825SOL    HW2 3375   5.822   1.855   2.027 -1.1746  1.4406  0.5835
  826SOL     OW 3376   3.552   0.209   4.888  0.0648  0.1126  0.4288
  826SOL    HW1 3377   3.647   0.227   4.863  0.3888  0.4650  1.8259
  826SOL    HW2 3378   3.513   0.141   4.826 -0.2927  3.2944 -3.2292
  827SOL     OW 3379   3.416   3.348   0.450 -0.2546 -0.1934  0.0337
  827SOL    HW1 3380   3.422   3.268   0.390  0.3365 -1.3205  1.5243
  827SOL    HW2 3381   3.375   3.320   0.537 -0.0437  1.1419  0.5773
  828SOL     OW 3382   4.822   4.587   3.059  0.0365  0.1197 -0.0689
  828SOL    HW1 3383   4.868   4.580   3.148 -0.1989  2.3317  0.2820
  828SOL    HW2 3384   4.888   4.576   2.986  0.3762 -0.9128  0.3733
  829SOL     OW 3385   5.993   1.577   1.045  0.3605 -0.3042 -0.0001
  829SOL    HW1 3386   6.054   1.598   1.121 -0.6810 -0.5286  0.9197
  829SOL    HW2 3387   5.993   1.478   1.029  1.6539 -0.1342 -1.2419
  830SOL     OW 3388   3.761   1.850   1.295 -0.1522 -0.0171  0.1312
  830SOL    HW1 3389   3.766   1.925   1.360 -2.2568  0.1276  0.1757
  830SOL    HW2 3390   3.798   1.880   1.207 -0.5758  0.9448  0.2674
  831SOL     OW 3391   6.413   3.686   2.266 -0.3432  1.0776  0.1088
  831SOL    HW1 3392   6.432   3.639   2.180  2.4599 -0.1268  1.2396
  831SOL    HW2 3393   6.315   3.702   2.275 -1.1355 -2.0088 -1.6823
  832SOL     OW 3394   5.874   4.179   5.518 -0.0906 -0.0702  0.1821
  832SOL    HW1 3395   5.806   4.248   5.496 -0.2241 -0.2013  0.1794
  832SOL    HW2 3396   5.829   4.100   5.561  0.3328  0.7739  2.2909
  833SOL     OW 3397   5.630   0.515   5.624  0.9309  0.0970  0.3101
  833SOL    HW1 3398   5.664   0.488   5.534 -0.1201  1.5472 -0.5627
  833SOL    HW2 3399   5.589   0.437   5.670 -0.7578 -0.1512 -1.5353
  834SOL     OW 3400   4.905   2.103   6.356  0.3274  0.4780 -0.0617
  834SOL    HW1 3401   4.807   2.124   6.357  0.6122  2.2806 -2.1213
  834SOL    HW2 3402   4.918   2.007   6.333 -0.9579  0.3965 -0.5277
  835SOL     OW 3403   6.736   5.688   6.939 -0.5655  0.4448  0.0537
  835SOL    HW1 3404   6.757   5.659   6.846  0.8451  0.0952  0.4574
  835SOL    HW2 3405   6.670   5.763   6.937 -1.2366 -0.1518 -1.1781
  836SOL     OW 3406   1.574   0.617   3.985 -0.0342  0.1558  0.3618
  836SOL    HW1 3407   1.475   0.623   3.995  0.0409  2.2825  0.3604
  836SOL    HW2 3408   1.603   0.678   3.910  1.2334 -0.7603  0.0841
  837SOL     OW 3409   0.932   4.188   2.243 -0.6349  0.1174  0.0525
  837SOL    HW1 3410   1.026   4.186   2.208  0.4455  1.2549  2.6142
  837SOL    HW2 3411   0.920   4.113   2.309 -1.7164 -0.3063 -0.5962
  838SOL     OW 3412   2.188   1.052   5.093 -0.3856  0.7536 -0.3860
  838SOL    HW1 3413   2.245   1.087   5.167  0.7545 -0.6222 -0.5783
  838SOL    HW2 3414   2.154   1.129   5.038  1.1460  1.6154 -0.1715
  839SOL     OW 3415   0.806   6.017   5.693  0.2479 -0.5369  0.8286
  839SOL    HW1 3416   0.715   5.978   5.677 -0.3275  1.1851 -0.4196
  839SOL    HW2 3417   0.865   6.000   5.614  0.0269  0.9297  0.3213
  840SOL     OW 3418   5.562   6.613   3.233 -0.1698  0.5726  0.2642
  840SOL    HW1 3419   5.616   6.541   3.190  0.1478  0.9050  0.1059
  840SOL    HW2 3420   5.603   6.703   3.213 -0.7264  0.8197  0.2115
  841SOL     OW 3421   3.684   3.443   0.152  0.0676 -0.3108  0.5556
  841SOL    HW1 3422   3.590   3.432   0.185  0.6298 -1.8110  1.8054
  841SOL    HW2 3423   3.682   3.464   0.055 -1.5597 -1.8568  0.1829
  842SOL     OW 3424   0.078   1.846   1.522  0.0992  0.1711  0.4089
  842SOL    HW1 3425   0.078   1.938   1.484  1.8440  0.1705  0.3329
  842SOL    HW2 3426   0.153   1.793   1.483  1.4903 -0.0818  3.1877
  843SOL     OW 3427   4.205   5.562   3.539 -0.2860  0.4038 -0.2074
  843SOL    HW1 3428   4.132   5.499   3.512 -0.6600  1.3408 -1.4883
  843SOL    HW2 3429   4.171   5.656   3.534  0.9605  0.8500 -0.7244
  844SOL     OW 3430   0.780   3.668   1.093 -0.2552  0.1339 -0.6995
  844SOL    HW1 3431   0.739   3.650   1.182 -0.8166 -1.5414 -1.2518
  844SOL    HW2 3432   0.744   3.753   1.056  0.5261  1.2345  0.9560
  845SOL     OW 3433   6.682   3.001   2.847 -0.3459  0.1133  0.8058
  845SOL    HW1 3434   6.763   3.006   2.789 -0.7105 -0.9558  0.1784
  845SOL    HW2 3435   6.647   2.908   2.847 -3.3668  1.0891 -1.4497
  846SOL     OW 3436   2.090   1.189   4.173  0.7054  0.0281 -0.3531
  846SOL    HW1 3437   2.044   1.276   4.193 -1.1418 -1.0384  0.3389
  846SOL    HW2 3438   2.129   1.152   4.257  0.3766 -0.4029 -0.3879
  847SOL     OW 3439   5.717   1.070   3.131  0.3999  0.0471  0.3608
  847SOL    HW1 3440   5.768   1.140   3.181  4.2903 -1.4473 -1.1881
  847SOL    HW2 3441   5.680   1.004   3.197 -1.4233  2.1726  1.6573
  848SOL     OW 3442   1.695   3.800   2.194  0.1977  0.3457  1.2452
  848SOL    HW1 3443   1.715   3.702   2.186  2.0087  0.7024  0.9565
  848SOL    HW2 3444   1.600   3.817   2.168  0.3163 -1.1309 -0.3439
  849SOL     OW 3445   5.383   3.702   2.564 -0.0631 -0.0001  0.2667
  849SOL    HW1 3446   5.363   3.654   2.479  1.0531 -2.0456  1.0954
  849SOL    HW2 3447   5.456   3.769   2.548 -1.0823  0.9102 -0.7283
  850SOL     OW 3448   2.692   0.027   1.272 -0.1963 -0.2468 -1.2377
  850SOL    HW1 3449   2.625   0.066   1.210 -1.8990 -0.2897  0.4602
  850SOL    HW2 3450   2.704  -0.070   1.251 -1.2628 -0.4203 -1.1158
  851SOL     OW 3451   1.172   0.284   7.022 -0.1004 -0.2297 -0.1654
  851SOL    HW1 3452   1.203   0.323   6.935  0.2254 -1.2195 -0.5085
  851SOL    HW2 3453   1.237   0.308   7.094 -0.1198  0.1929 -0.2827
  852SOL     OW 3454   6.310   2.641   6.198 -0.2705 -0.3196 -0.5777
  852SOL    HW1 3455   6.362   2.726   6.200  0.7396 -0.9074 -1.3380
  852SOL    HW2 3456   6.221   2.655   6.243  0.1647  0.9354 -0.0851
  853SOL     OW 3457   1.495   2.914   1.829  0.0738  0.1614  0.3096
  853SOL    HW1 3458   1.428   2.909   1.755  0.0898 -0.2264  0.3154
  853SOL    HW2 3459   1.494   3.005   1.869 -2.6085 -0.6074  2.3021
  854SOL     OW 3460   4.378   2.039   0.044  0.0382 -0.1014  0.1810
  854SOL    HW1 3461   4.382   2.115   0.109  0.8724  0.3392 -0.3563
  854SOL    HW2 3462   4.411   2.070  -0.045 -1.2672 -0.6466 -0.5173
  855SOL     OW 3463   6.150   4.851   0.644  0.4214  0.6683 -0.3238
  855SOL    HW1 3464   6.128   4.863   0.547 -1.7777 -0.7898 -0.0692
  855SOL    HW2 3465   6.177   4.757   0.661 -2.5398 -0.0747  0.9452
  856SOL     OW 3466   4.461   5.373   2.055 -0.1816  0.9754  0.2736
  856SOL    HW1 3467   4.471   5.280   2.020 -0.6603  0.5881  1.1511
  856SOL    HW2 3468   4.364   5.395   2.064 -0.1038  0.4181  3.0245
  857SOL     OW 3469   3.257   4.939   4.993 -0.3598 -0.2978 -0.2020
  857SOL    HW1 3470   3.180   4.876   4.989 -0.5282 -0.0937 -0.2034
  857SOL    HW2 3471   3.295   4.940   5.086 -1.6478  1.1195  0.3547
  858SOL     OW 3472   1.953   4.350   3.387  0.0011 -0.2415  0.1197
  858SOL    HW1 3473   2.048   4.320   3.400 -0.0974 -0.4397  0.3811
  858SOL    HW2 3474   1.909   4.362   3.476  0.7611  3.0862  0.2132
  859SOL     OW 3475   1.377   5.120   4.695 -0.0431 -0.4871  0.1994
  859SOL    HW1 3476   1.349   5.026   4.717  1.6109 -2.1890 -3.9038
  859SOL    HW2 3477   1.313   5.159   4.629  0.1638  0.7137  0.6823
  860SOL     OW 3478   2.512   4.952   0.564  0.4604 -0.0533 -0.2966
  860SOL    HW1 3479   2.465   4.904   0.491 -1.7630 -0.9573  1.6208
  860SOL    HW2 3480   2.457   5.029   0.595  0.1174 -1.1343  2.0138
  861SOL     OW 3481   0.881   4.253   2.992  0.4119 -0.0813  0.1337
  861SOL    HW1 3482   0.873   4.303   3.078 -1.2848  0.2124 -0.1470
  861SOL    HW2 3483   0.916   4.314   2.921  0.6009  0.0405  0.3333
  862SOL     OW 3484   1.517   6.250   4.705  0.1026 -0.4667 -0.5893
  862SOL    HW1 3485   1.550   6.157   4.683 -0.2757 -0.3777 -1.6160
  862SOL    HW2 3486   1.431   6.244   4.755  0.6509 -0.6719  0.3586
  863SOL     OW 3487   3.185   2.520   5.614  0.1588 -0.3057  0.1190
  863SOL    HW1 3488   3.149   2.527   5.521  1.2825 -0.8892 -0.3757
  863SOL    HW2 3489   3.241   2.438   5.622  0.9123  0.2756  1.0293
  864SOL     OW 3490   4.273   6.430   7.007  0.4182 -0.1663  0.3392
  864SOL    HW1 3491   4.327   6.503   7.049  1.4802 -0.7818  0.0763
  864SOL    HW2 3492   4.237   6.370   7.079  1.1128 -0.4487  0.4642
  865SOL     OW 3493   0.427   0.233   6.929 -0.1579  0.7348  0.2219
  865SOL    HW1 3494   0.486   0.155   6.909  0.8687  1.9190 -1.6567
  865SOL    HW2 3495   0.332   0.203   6.933  0.0797 -0.4385 -1.7976
  866SOL     OW 3496   6.331   4.977   5.609  0.2802 -0.0452  0.0249
  866SOL    HW1 3497   6.333   4.908   5.537  4.1826  0.5483 -0.6134
  866SOL    HW2 3498   6.289   5.061   5.574  1.1198 -0.1254 -1.2292
  867SOL     OW 3499   0.948   0.842   7.001 -0.0185 -0.5165  0.1310
  867SOL    HW1 3500   0.874   0.900   6.966 -0.0793  0.0756  1.1890
  867SOL    HW2 3501   0.949   0.755   6.952 -0.6311 -0.0477 -0.7353
  868SOL     OW 3502   6.000   5.171   3.613 -0.4724  0.0237  0.3904
  868SOL    HW1 3503   6.052   5.150   3.695 -0.2406 -2.3677 -0.2803
  868SOL    HW2 3504   6.022   5.105   3.541 -3.4070 -0.3022 -0.3671
  869SOL     OW 3505   6.731   6.441   0.448 -0.5477  0.1316  0.0252
  869SOL    HW1 3506   6.706   6.505   0.521  1.1623  1.9729 -0.9115
  869SOL    HW2 3507   6.654   6.379   0.431 -2.3868  2.0296  0.8616
  870SOL     OW 3508   3.977   2.227   6.154 -0.5083 -0.1039  0.0195
  870SOL    HW1 3509   4.010   2.165   6.226 -2.3071 -0.6183  0.4657
  870SOL    HW2 3510   3.973   2.177   6.067 -1.3392 -0.4388  0.2425
  871SOL     OW 3511   0.793   3.041   5.940 -0.6301 -0.1494 -0.2518
  871SOL    HW1 3512   0.817   3.067   6.034 -0.4769  0.3529 -0.4236
  871SOL    HW2 3513   0.800   3.122   5.881 -0.6495 -0.4798 -0.7085
  872SOL     OW 3514   1.919   0.984   4.611  0.2525 -0.3245 -0.2728
  872SOL    HW1 3515   1.836   0.932   4.591  1.4710 -2.1959 -0.7592
  872SOL    HW2 3516   1.926   1.062   4.548 -0.5882 -0.7618 -0.9260
  873SOL     OW 3517   6.100   4.544   1.002 -0.2191  0.1650  0.1536
  873SOL    HW1 3518   6.200   4.547   1.001 -0.1923 -0.1395  1.0353
  873SOL    HW2 3519   6.067   4.509   0.915  0.5246 -1.5955  0.5376
  874SOL     OW 3520   0.128   6.480   0.725 -0.3518  0.4154  0.7721
  874SOL    HW1 3521   0.114   6.490   0.626 -1.5431  0.4358  0.9188
  874SOL    HW2 3522   0.064   6.541   0.773  0.6490  0.8691  1.5521
  875SOL     OW 3523   0.494   4.097   4.304  0.3301 -0.0039 -0.4206
  875SOL    HW1 3524   0.461   4.142   4.221 -0.6677 -0.2108 -0.1511
  875SOL    HW2 3525   0.578   4.047   4.284 -0.4741 -0.9635 -1.5848
  876SOL     OW 3526   3.121   4.833   2.489 -0.1026 -0.1450 -0.2225
  876SOL    HW1 3527   3.175   4.909   2.452  0.6713 -1.0791 -1.0758
  876SOL    HW2 3528   3.179   4.779   2.550 -0.5603 -0.2164  0.1471
  877SOL     OW 3529   3.697   0.953   1.328  0.1608  0.7605 -0.0245
  877SOL    HW1 3530   3.609   0.989   1.360 -0.1669  3.3445 -3.3268
  877SOL    HW2 3531   3.769   1.020   1.346  0.8434  0.1158 -0.3041
  878SOL     OW 3532   0.395   6.399   0.377  0.0062  0.2557 -0.5734
  878SOL    HW1 3533   0.482   6.348   0.376 -0.2970 -0.4303 -3.9767
  878SOL    HW2 3534   0.319   6.334   0.372 -0.6400  0.9186  0.4907
  879SOL     OW 3535   3.581   1.914   0.392 -0.6260  0.2901  0.2764
  879SOL    HW1 3536   3.532   1.931   0.306 -1.2413 -0.4321  0.4733
  879SOL    HW2 3537   3.522   1.862   0.454 -0.6206  1.7368  1.5810
  880SOL     OW 3538   3.292   3.938   1.910 -0.0344 -0.7366  0.2709
  880SOL    HW1 3539   3.221   3.993   1.954  0.9675 -0.3384  1.4403
  880SOL    HW2 3540   3.258   3.845   1.895 -0.0629 -1.2332  2.9907
  881SOL     OW 3541   6.547   4.172   2.717  0.2921  0.3965  0.9586
  881SOL    HW1 3542   6.578   4.232   2.644  0.4143  1.0122  1.5095
  881SOL    HW2 3543   6.468   4.119   2.686  1.3862 -0.6277 -0.2022
  882SOL     OW 3544   0.918   4.706   5.441  0.3147 -0.0841  0.4439
  882SOL    HW1 3545   0.978   4.652   5.382  0.1594 -1.1922  1.2482
  882SOL    HW2 3546   0.972   4.769   5.496  0.5364  0.3439 -0.2541
  883SOL     OW 3547   1.235   0.379   5.617 -0.5030  0.2042 -0.7910
  883SOL    HW1 3548   1.292   0.326   5.681 -1.2164  1.2673  0.7854
  883SOL    HW2 3549   1.290   0.406   5.539  1.1464  1.0312  0.5943
  884SOL     OW 3550   6.028   2.569   5.889 -0.1748 -0.0508  0.5614
  884SOL    HW1 3551   6.009   2.491   5.829  1.8594 -0.8940  0.9176
  884SOL    HW2 3552   6.003   2.654   5.842 -1.8806 -0.8443 -0.0673
  885SOL     OW 3553   0.420   1.228   7.000 -0.3910 -0.1166 -0.8148
  885SOL    HW1 3554   0.392   1.315   6.959  1.5982  0.0292 -2.0468
  885SOL    HW2 3555   0.467   1.245   7.086 -1.7845 -0.1642 -0.0242
  886SOL     OW 3556   0.505   5.989   2.151 -0.2877  0.3105  0.0411
  886SOL    HW1 3557   0.439   5.996   2.226 -0.4018 -0.4368  0.0199
  886SOL    HW2 3558   0.473   5.921   2.085  0.8716 -0.6324  0.4177
  887SOL     OW 3559   0.356   3.537   5.179  0.1570  0.5255 -0.0736
  887SOL    HW1 3560   0.267   3.561   5.217  0.2198  0.7072 -0.0363
  887SOL    HW2 3561   0.385   3.608   5.115  1.4901  1.9175  1.9191
  888SOL     OW 3562   5.985   4.969   5.644 -0.2916  0.3869  0.3117
  888SOL    HW1 3563   6.046   5.047   5.663  0.3684  0.5501 -2.1545
  888SOL    HW2 3564   6.026   4.885   5.680 -0.6705  1.0381  2.3638
  889SOL     OW 3565   6.907   0.664   1.539  0.4749  0.2613 -0.4947
  889SOL    HW1 3566   6.900   0.625   1.631  0.9532 -1.0452 -0.9943
  889SOL    HW2 3567   6.886   0.762   1.543  0.7901  0.2887  1.0502
  890SOL     OW 3568   1.978   6.892   3.010  0.6031  0.0245 -0.4872
  890SOL    HW1 3569   1.954   6.821   2.943 -1.2543 -0.3694  0.5410
  890SOL    HW2 3570   1.906   6.899   3.079  0.9667  2.5914 -0.2669
  891SOL     OW 3571   6.518   5.223   1.674 -0.4929 -0.0074  0.8249
  891SOL    HW1 3572   6.534   5.295   1.607  1.2502 -1.8247 -0.8760
  891SOL    HW2 3573   6.423   5.191   1.666 -0.0001 -1.1130 -1.9154
  892SOL     OW 3574   4.888   1.080   6.480 -0.3733  0.7815 -0.2892
  892SOL    HW1 3575   4.981   1.063   6.447 -0.2252  0.6252  0.2003
  892SOL    HW2 3576   4.855   1.000   6.531 -0.4822  1.1311  0.1953
  893SOL     OW 3577   6.637   2.531   0.310  0.1810  0.1509  0.6072
  893SOL    HW1 3578   6.650   2.435   0.285  0.2818  0.1119  0.8087
  893SOL    HW2 3579   6.669   2.590   0.236 -0.4572  0.0198  0.2225
  894SOL     OW 3580   0.193   3.797   1.877  0.3402  0.2738  0.1070
  894SOL    HW1 3581   0.139   3.713   1.885  0.4074 -0.1311 -2.6107
  894SOL    HW2 3582   0.156   3.866   1.940 -1.9036 -0.7227  0.0073
  895SOL     OW 3583   6.590   6.705   3.362 -0.1254 -0.4425 -0.7375
  895SOL    HW1 3584   6.568   6.757   3.445  0.4745 -0.3941 -0.6034
  895SOL    HW2 3585   6.528   6.627   3.354 -0.0881 -0.5387 -0.1588
  896SOL     OW 3586   6.685   3.970   4.336 -0.1695 -0.1049  0.7592
  896SOL    HW1 3587   6.671   3.896   4.402  1.6325 -0.5085  0.7277
  896SOL    HW2 3588   6.598   3.992   4.292 -0.5743 -3.0415 -0.1119
  897SOL     OW 3589   1.091   5.248   5.806 -0.3769  0.0720 -0.2677
  897SOL    HW1 3590   1.034   5.324   5.836 -0.9004  0.2188 -1.5550
  897SOL    HW2 3591   1.108   5.186   5.882 -0.2484  1.2789  0.7110
  898SOL     OW 3592   3.925   3.990   6.789  0.3537 -0.1890  0.3786
  898SOL    HW1 3593   3.843   3.938   6.813  0.2346 -0.6448 -0.9617
  898SOL    HW2 3594   3.899   4.071   6.737  0.6352  0.6394  1.4726
  899SOL     OW 3595   4.065   4.207   6.109 -0.5704  0.4067  0.8108
  899SOL    HW1 3596   4.128   4.202   6.186  1.1725  0.4922 -0.5341
  899SOL    HW2 3597   4.082   4.131   6.047 -1.3023  0.8503  0.0432
  900SOL     OW 3598   2.865   6.344   3.457 -0.0046  0.1577  0.1737
  900SOL    HW1 3599   2.851   6.320   3.553 -0.8505  0.8799  0.2440
  900SOL    HW2 3600   2.915   6.430   3.451 -0.0787  0.1863 -0.0316
  901SOL     OW 3601   0.075   6.990   4.908 -0.2572  0.2924  0.3853
  901SOL    HW1 3602   0.132   6.933   4.848 -1.3451  1.2261 -1.6264
  901SOL    HW2 3603   0.035   7.064   4.855 -1.1729  1.2596  2.3452
  902SOL     OW 3604   3.121   5.230   0.748 -0.0523 -0.0462 -0.4550
  902SOL    HW1 3605   3.157   5.147   0.705 -1.1689 -0.6515 -0.2606
  902SOL    HW2 3606   3.110   5.301   0.678 -0.7881 -0.6532 -0.9643
  903SOL     OW 3607   2.193   4.685   6.059  0.3790 -0.6191 -0.3868
  903SOL    HW1 3608   2.177   4.638   5.973 -0.0804 -1.7800  0.3069
  903SOL    HW2 3609   2.228   4.620   6.127 -1.4536 -0.2621  0.9654
  904SOL     OW 3610   3.013   0.967   1.668 -0.2622  0.9253 -0.1908
  904SOL    HW1 3611   2.934   0.936   1.614 -0.6427  1.2938  0.1460
  904SOL    HW2 3612   3.043   1.056   1.634 -1.1284  1.6303  0.8175
  905SOL     OW 3613   3.222   6.416   0.642  0.1484  0.2402 -0.5883
  905SOL    HW1 3614   3.228   6.456   0.734 -1.8272 -1.4326  0.3468
  905SOL    HW2 3615   3.275   6.472   0.578  0.1459  2.4525  1.2101
  906SOL     OW 3616   2.843   2.849   6.913 -0.5782 -0.5862 -0.2399
  906SOL    HW1 3617   2.799   2.891   6.834  0.8711  0.1830 -0.6761
  906SOL    HW2 3618   2.904   2.915   6.956  1.8421 -2.1891 -0.9947
  907SOL     OW 3619   5.806   5.295   0.781  0.0594  0.6465 -1.0554
  907SOL    HW1 3620   5.727   5.345   0.816 -0.7830 -0.5206 -1.2153
  907SOL    HW2 3621   5.882   5.358   0.766 -0.0602  1.4444  1.3224
  908SOL     OW 3622   3.552   4.000   4.215  0.2095 -0.3140  0.5000
  908SOL    HW1 3623   3.540   3.900   4.211  0.3627 -0.2958 -1.4123
  908SOL    HW2 3624   3.481   4.044   4.159 -0.6460  0.7648  2.3377
  909SOL     OW 3625   6.799   0.688   5.843  0.0769  0.3586  0.1150
  909SOL    HW1 3626   6.788   0.704   5.941  1.3495  1.1581  0.1547
  909SOL    HW2 3627   6.725   0.733   5.793  0.8535  2.2381  0.5686
  910SOL     OW 3628   3.757   2.903   4.559  0.5494 -0.1106 -0.1604
  910SOL    HW1 3629   3.725   2.964   4.631  2.1249  1.4933 -0.7111
  910SOL    HW2 3630   3.824   2.839   4.596  2.7831  1.9248 -0.4022
  911SOL     OW 3631   6.297   4.138   6.400  0.2573  0.7092  0.0500
  911SOL    HW1 3632   6.254   4.228   6.407  0.6764  1.0753 -1.5976
  911SOL    HW2 3633   6.234   4.074   6.357 -0.2666  0.0098  1.7641
  912SOL     OW 3634   0.008   6.089   0.532  0.2532 -0.5824 -0.1890
  912SOL    HW1 3635  -0.006   6.020   0.603 -1.1638  0.2229  0.3604
  912SOL    HW2 3636  -0.077   6.103   0.482  0.6720  0.3666 -0.6656
  913SOL     OW 3637   4.204   2.023   5.198 -0.2537  0.7215  0.6552
  913SOL    HW1 3638   4.291   2.012   5.150 -0.9322  1.1743 -0.7316
  913SOL    HW2 3639   4.162   2.110   5.171 -0.6548  1.0084  2.1127
  914SOL     OW 3640   2.915   4.604   0.567 -0.1070 -0.5313 -0.4718
  914SOL    HW1 3641   2.825   4.647   0.567 -0.5571 -1.4408  0.1174
  914SOL    HW2 3642   2.984   4.671   0.594 -0.9499 -0.4386  1.6572
  915SOL     OW 3643   0.219   1.507   4.327 -0.4922 -0.3870  0.3126
  915SOL    HW1 3644   0.124   1.538   4.326 -0.4234  0.1926 -3.1361
  915SOL    HW2 3645   0.225   1.415   4.288  0.4311  0.2511 -1.1906
  916SOL     OW 3646   4.686   0.624   5.004 -0.5967 -0.2720  0.1826
  916SOL    HW1 3647   4.599   0.576   5.018  0.0786 -1.8102 -0.5783
  916SOL    HW2 3648   4.761   0.557   5.004  0.6389  1.0665  1.1814
  917SOL     OW 3649   1.921   1.114   5.414 -0.2447 -0.4249 -0.6803
  917SOL    HW1 3650   1.970   1.119   5.327 -1.2100  3.0768 -1.1739
  917SOL    HW2 3651   1.832   1.159   5.405 -1.4242 -2.1017  1.5388
  918SOL     OW 3652   2.361   0.788   2.390 -0.0386 -0.3265  0.0932
  918SOL    HW1 3653   2.351   0.886   2.405  1.9456 -0.2248  0.9807
  918SOL    HW2 3654   2.294   0.739   2.446 -0.2742  0.4812  0.5304
  919SOL     OW 3655   4.334   5.104   6.624  0.0200 -0.5596  0.1025
  919SOL    HW1 3656   4.311   5.039   6.551  0.5665 -1.0072  0.3171
  919SOL    HW2 3657   4.351   5.194   6.584 -0.0384 -0.7193 -0.2882
  920SOL     OW 3658   0.550   0.596   2.221  0.9895  0.3575 -0.4485
  920SOL    HW1 3659   0.592   0.667   2.165  0.2987 -1.0051 -2.8085
  920SOL    HW2 3660   0.456   0.622   2.242  0.1125 -0.6124 -2.9017
  921SOL     OW 3661   4.254   5.689   4.243  0.5342 -0.0144 -0.1924
  921SOL    HW1 3662   4.243   5.770   4.301 -2.5410 -0.4672 -0.0023
  921SOL    HW2 3663   4.236   5.715   4.148 -0.3579 -0.4288 -0.1421
  922SOL     OW 3664   4.683   1.869   4.172 -0.2215  0.3633 -0.3098
  922SOL    HW1 3665   4.748   1.944   4.157  0.6350  0.0482  1.4847
  922SOL    HW2 3666   4.729   1.782   4.162 -1.1496  0.0429 -2.0995
  923SOL     OW 3667   6.407   5.415   4.878  0.0009 -0.5660 -0.4319
  923SOL    HW1 3668   6.367   5.326   4.902 -1.5586  0.5586  1.4552
  923SOL    HW2 3669   6.495   5.401   4.833  0.8139 -3.0338  1.6763
  924SOL     OW 3670   0.943   2.303   6.086  0.0864 -0.4063 -0.2412
  924SOL    HW1 3671   0.973   2.346   6.171 -0.8502  0.1405 -0.1735
  924SOL    HW2 3672   0.863   2.247   6.104 -0.2464 -0.1144 -0.8054
  925SOL     OW 3673   5.712   3.906   5.263 -0.1464  0.3292 -0.3879
  925SOL    HW1 3674   5.741   3.894   5.169 -0.0879  0.6934 -0.4172
  925SOL    HW2 3675   5.778   3.863   5.325 -0.8512 -1.0649 -0.5633
  926SOL     OW 3676   5.239   6.204   6.061 -0.1083 -0.0105 -0.6671
  926SOL    HW1 3677   5.244   6.242   6.154 -1.2071 -2.7509  0.6219
  926SOL    HW2 3678   5.154   6.235   6.017 -0.8872 -0.7235  0.2835
  927SOL     OW 3679   1.817   1.729   3.913  0.2877 -0.7813  0.2334
  927SOL    HW1 3680   1.794   1.800   3.846 -1.0195 -0.8347  0.5935
  927SOL    HW2 3681   1.911   1.742   3.945 -0.1199  1.2111  0.7633
  928SOL     OW 3682   4.389   6.073   1.247 -0.5061 -0.2560  0.0800
  928SOL    HW1 3683   4.394   5.974   1.232 -1.5367 -0.0848 -1.6915
  928SOL    HW2 3684   4.330   6.091   1.326 -2.3787 -1.0257 -1.0810
  929SOL     OW 3685   1.999   3.101   2.014 -0.4486 -0.0609 -0.1830
  929SOL    HW1 3686   2.036   3.173   2.074  0.2376 -1.5220  1.2326
  929SOL    HW2 3687   2.058   3.092   1.934  0.9648 -0.7222  0.8726
  930SOL     OW 3688   4.288   5.772   1.448  0.7616 -0.5255  0.9279
  930SOL    HW1 3689   4.273   5.869   1.468 -0.0067 -0.4706  0.1741
  930SOL    HW2 3690   4.201   5.731   1.420  1.5096 -0.8950 -0.9656
  931SOL     OW 3691   2.007   0.050   0.318  0.2449  0.5298 -0.5848
  931SOL    HW1 3692   1.937   0.005   0.374  1.8211  1.6693  2.5890
  931SOL    HW2 3693   2.056  -0.018   0.265 -1.3374 -0.6534 -0.6049
  932SOL     OW 3694   0.157   0.942   2.390  0.2401  0.3845 -0.4493
  932SOL    HW1 3695   0.192   0.898   2.307  1.0665  0.7126 -0.2862
  932SOL    HW2 3696   0.083   0.887   2.429  2.2682 -1.7448  0.6279
  933SOL     OW 3697   6.866   5.106   0.333  0.0544  0.6314 -0.0753
  933SOL    HW1 3698   6.805   5.158   0.274 -1.3028 -0.7260  0.0577
  933SOL    HW2 3699   6.882   5.156   0.418 -2.6030  0.1570  0.7854
  934SOL     OW 3700   6.419   6.033   2.114 -0.3846  0.5353  0.0444
  934SOL    HW1 3701   6.375   6.113   2.155  1.1732  1.0986  0.6844
  934SOL    HW2 3702   6.486   5.995   2.177 -0.7445 -1.0031 -0.4507
  935SOL     OW 3703   1.084   0.651   2.433  0.2636  0.0310 -0.1377
  935SOL    HW1 3704   1.183   0.658   2.437  0.2182  1.0405 -0.3310
  935SOL    HW2 3705   1.055   0.561   2.464  1.4019 -1.3321 -2.7261
  936SOL     OW 3706   0.294   3.219   1.631  0.1542  0.6041 -0.3681
  936SOL    HW1 3707   0.333   3.136   1.593  0.2185  1.0168 -1.2194
  936SOL    HW2 3708   0.365   3.290   1.636  0.1076  0.6091  0.3724
  937SOL     OW 3709   1.956   6.126   4.082  0.1496  0.6534 -0.5546
  937SOL    HW1 3710   1.967   6.226   4.081 -1.2431  0.8367 -2.0243
  937SOL    HW2 3711   1.861   6.103   4.103  0.1681 -0.3089 -1.4421
  938SOL     OW 3712   1.567   4.288   1.068  0.2402 -0.0994  0.3474
  938SOL    HW1 3713   1.595   4.194   1.048 -0.7270 -0.3772  0.2732
  938SOL    HW2 3714   1.614   4.319   1.151  1.6071 -0.1540 -0.3768
  939SOL     OW 3715   0.479   3.970   1.662  0.3577 -0.2553 -0.2170
  939SOL    HW1 3716   0.400   3.910   1.671  1.4032 -1.5146  1.2456
  939SOL    HW2 3717   0.562   3.914   1.658  1.2111  1.0449 -1.2808
  940SOL     OW 3718   5.123   2.067   5.279  0.4237 -0.2807  0.1058
  940SOL    HW1 3719   5.126   2.012   5.363  0.9469 -0.0525  0.2402
  940SOL    HW2 3720   5.056   2.028   5.216  0.7863 -1.0756  0.1950
  941SOL     OW 3721   0.526   2.611   4.585 -0.0125  0.1835 -0.2708
  941SOL    HW1 3722   0.583   2.620   4.504 -0.2348 -3.2158 -0.9509
  941SOL    HW2 3723   0.431   2.596   4.557  0.0245 -1.8211  0.4893
  942SOL     OW 3724   6.104   5.645   0.043 -0.2036 -0.2581  0.0283
  942SOL    HW1 3725   6.142   5.674  -0.045 -0.4511  1.7884  0.5518
  942SOL    HW2 3726   6.179   5.622   0.105  0.1486  1.5592  0.3291
  943SOL     OW 3727   0.837   0.523   3.946 -0.6610  0.0063 -0.0079
  943SOL    HW1 3728   0.829   0.511   4.045 -0.8396 -0.9101 -0.1215
  943SOL    HW2 3729   0.762   0.475   3.900  1.4645 -2.8392 -0.7563
  944SOL     OW 3730   0.819   0.698   2.430 -0.3186 -0.1058 -0.1646
  944SOL    HW1 3731   0.914   0.665   2.435 -0.2718  0.0813  0.2061
  944SOL    HW2 3732   0.801   0.758   2.508 -0.1724  1.3708 -1.2252
  945SOL     OW 3733   1.207   5.624   5.253  0.3055  0.2231 -1.0031
  945SOL    HW1 3734   1.116   5.593   5.225  1.0311 -1.6274 -1.4290
  945SOL    HW2 3735   1.249   5.555   5.312  0.6404  1.9937  0.9895
  946SOL     OW 3736   6.102   1.828   3.963  0.0227  0.2816  0.1638
  946SOL    HW1 3737   6.167   1.789   4.028  0.1637  1.8961  1.0323
  946SOL    HW2 3738   6.016   1.849   4.011 -1.6551 -2.7970 -1.1555
  947SOL     OW 3739   3.254   1.011   6.374  0.5799 -0.0627 -0.0493
  947SOL    HW1 3740   3.314   1.066   6.316 -1.6718  1.3074 -1.2301
  947SOL    HW2 3741   3.308   0.966   6.445  3.0694  0.3562 -1.5731
  948SOL     OW 3742   4.427   5.517   3.197  0.1325 -0.4516 -0.1333
  948SOL    HW1 3743   4.431   5.597   3.258 -0.8376 -1.3703  1.1979
  948SOL    HW2 3744   4.493   5.528   3.123  0.5211  1.2528  0.4224
  949SOL     OW 3745   5.464   1.093   3.296 -0.1143  0.0221  0.0039
  949SOL    HW1 3746   5.409   1.010   3.296 -1.7356  1.0447 -0.5917
  949SOL    HW2 3747   5.490   1.116   3.389 -3.4292  1.1778  0.7740
  950SOL     OW 3748   4.253   5.305   6.027 -0.0550  0.0403  0.4910
  950SOL    HW1 3749   4.188   5.244   5.982 -0.6762 -0.0407  1.4575
  950SOL    HW2 3750   4.310   5.251   6.090  1.3119  0.0261 -0.7139
  951SOL     OW 3751   5.498   5.330   3.910 -0.4560  0.4361  0.2821
  951SOL    HW1 3752   5.452   5.385   3.840 -1.2176  0.5378  0.8499
  951SOL    HW2 3753   5.506   5.236   3.878 -0.5176  0.5472 -0.0697
  952SOL     OW 3754   2.730   6.786   2.102 -0.0002 -0.0312 -0.9486
  952SOL    HW1 3755   2.648   6.839   2.081 -0.4814  0.5823  2.0486
  952SOL    HW2 3756   2.703   6.698   2.142  0.8322 -1.4518 -3.3268
  953SOL     OW 3757   6.177   5.481   3.018  0.3529 -0.3927 -0.1619
  953SOL    HW1 3758   6.079   5.465   3.017  0.1657 -0.0880 -4.0629
  953SOL    HW2 3759   6.225   5.393   3.027 -0.3025 -0.7380 -0.0012
  954SOL     OW 3760   4.384   3.309   0.401 -0.4145  0.4846 -0.0345
  954SOL    HW1 3761   4.405   3.293   0.304 -1.0764 -1.2905  0.0815
  954SOL    HW2 3762   4.290   3.344   0.409 -0.2666  0.8936 -0.0319
  955SOL     OW 3763   3.418   4.543   7.006  0.2872  0.6198  0.0042
  955SOL    HW1 3764   3.390   4.539   6.910 -1.2257  0.1452  0.4399
  955SOL    HW2 3765   3.494   4.607   7.016  1.0663  0.0166 -1.6447
  956SOL     OW 3766   0.894   0.795   3.646 -0.5751 -0.0313  0.1894
  956SOL    HW1 3767   0.852   0.873   3.691  1.1695  0.0929  1.7048
  956SOL    HW2 3768   0.949   0.743   3.711  0.2843 -1.1282 -1.3217
  957SOL     OW 3769   5.064   5.629   5.948 -0.6529 -0.4637  0.4664
  957SOL    HW1 3770   5.116   5.655   5.866  0.1098 -0.9882  0.7759
  957SOL    HW2 3771   4.975   5.594   5.921  0.0093 -1.6814 -0.2243
  958SOL     OW 3772   2.167   6.847   3.869 -0.2587 -0.1594 -1.1029
  958SOL    HW1 3773   2.099   6.774   3.871  0.1417 -0.5579 -1.6671
  958SOL    HW2 3774   2.259   6.806   3.873 -0.0353  0.4429  2.0685
  959SOL     OW 3775   4.966   2.709   6.511  0.7146  0.5838  0.3836
  959SOL    HW1 3776   4.959   2.785   6.446  0.7656  0.1268 -0.1682
  959SOL    HW2 3777   5.018   2.634   6.469 -1.6452 -0.8663 -0.1957
  960SOL     OW 3778   0.515   4.716   0.226 -0.0485 -0.3402  0.0700
  960SOL    HW1 3779   0.455   4.739   0.302  0.5131 -1.0518  0.7477
  960SOL    HW2 3780   0.477   4.753   0.141 -0.9483  0.0223  0.6149
  961SOL     OW 3781   1.849   0.853   1.613  0.4288  0.2064 -0.4846
  961SOL    HW1 3782   1.860   0.885   1.519 -1.3071  3.4366  0.2729
  961SOL    HW2 3783   1.939   0.848   1.657  0.9611  3.0288 -1.0820
  962SOL     OW 3784   4.666   0.271   0.491  0.1612 -0.4614 -0.0540
  962SOL    HW1 3785   4.592   0.323   0.450  0.9033 -0.0333 -0.9128
  962SOL    HW2 3786   4.727   0.332   0.540  0.7660 -0.5678 -0.6476
  963SOL     OW 3787   2.526   2.522   1.437  0.2668  0.3682  0.0991
  963SOL    HW1 3788   2.568   2.582   1.505 -1.0112 -0.4116  1.6271
  963SOL    HW2 3789   2.574   2.435   1.436 -0.4173 -0.0276  0.8475
  964SOL     OW 3790   1.843   6.405   3.893 -0.4106  0.0220 -0.2675
  964SOL    HW1 3791   1.856   6.405   3.992 -0.3131 -0.1417 -0.2796
  964SOL    HW2 3792   1.831   6.311   3.861 -0.5819  0.0851 -0.3930
  965SOL     OW 3793   6.572   4.355   4.435  0.5738  0.0216  0.5179
  965SOL    HW1 3794   6.549   4.445   4.400 -0.2661 -0.4148 -0.0867
  965SOL    HW2 3795   6.494   4.293   4.424  1.6439 -1.2096 -0.5747
  966SOL     OW 3796   2.556   4.123   5.332  0.1625  0.2172 -0.5940
  966SOL    HW1 3797   2.536   4.039   5.281  1.0266  0.7412 -1.8407
  966SOL    HW2 3798   2.486   4.191   5.311 -0.6763 -0.2456  0.6075
  967SOL     OW 3799   2.328   2.378   2.115  0.2850  0.0135  0.0202
  967SOL    HW1 3800   2.266   2.411   2.186 -0.4486  0.0780 -0.6299
  967SOL    HW2 3801   2.353   2.453   2.055  1.9888  0.2491  0.9705
  968SOL     OW 3802   5.823   0.415   4.943 -0.2651 -0.3219  0.2900
  968SOL    HW1 3803   5.816   0.327   4.897  1.5207 -1.0190  1.2640
  968SOL    HW2 3804   5.737   0.466   4.932 -0.3996 -1.0203 -2.5736
  969SOL     OW 3805   0.227   4.792   1.757 -0.2454 -0.3249  0.1066
  969SOL    HW1 3806   0.219   4.883   1.717  0.0362  0.4579  1.7517
  969SOL    HW2 3807   0.204   4.796   1.854  0.3483 -1.8960  0.3432
  970SOL     OW 3808   5.183   5.828   2.412  0.7926  0.0997  0.6932
  970SOL    HW1 3809   5.193   5.912   2.359  1.3776 -0.0853  0.5009
  970SOL    HW2 3810   5.154   5.754   2.351 -0.2819  0.2743  0.9615
  971SOL     OW 3811   5.956   0.133   6.492 -0.5097 -0.0129 -0.4714
  971SOL    HW1 3812   5.943   0.208   6.428  0.7737 -0.4552 -1.2936
  971SOL    HW2 3813   5.989   0.052   6.443 -2.6685 -1.4245  0.2444
  972SOL     OW 3814   0.916   0.148   5.823  0.3848 -0.9693  0.9321
  972SOL    HW1 3815   0.941   0.228   5.877  0.2980 -0.2081 -0.1248
  972SOL    HW2 3816   0.997   0.112   5.776  0.0689 -0.2385 -0.2169
  973SOL     OW 3817   1.609   0.823   5.851  0.1274  0.0213  0.4354
  973SOL    HW1 3818   1.693   0.871   5.824 -0.9074  0.6529 -1.8501
  973SOL    HW2 3819   1.560   0.879   5.918  0.0937  1.0682 -0.4439
  974SOL     OW 3820   6.418   5.488   0.662  0.3800  0.2503  0.1166
  974SOL    HW1 3821   6.463   5.572   0.633 -2.3380  1.3785 -1.1805
  974SOL    HW2 3822   6.349   5.509   0.731  1.9325 -1.4784  2.3514
  975SOL     OW 3823   2.632   5.730   3.314  0.1976  0.1665 -0.1898
  975SOL    HW1 3824   2.559   5.695   3.373 -0.1112 -0.1859 -0.7639
  975SOL    HW2 3825   2.713   5.750   3.368 -0.3642  0.6832  0.4824
  976SOL     OW 3826   0.581   4.862   2.623 -0.0633  0.2922 -0.1985
  976SOL    HW1 3827   0.569   4.810   2.538  3.6482 -1.4671  0.1322
  976SOL    HW2 3828   0.675   4.894   2.629  0.0615 -0.2907  3.5615
  977SOL     OW 3829   2.852   0.550   2.611  0.1694 -0.0041  0.0529
  977SOL    HW1 3830   2.894   0.463   2.584 -0.3569 -0.2103 -0.1005
  977SOL    HW2 3831   2.760   0.557   2.572  0.3053  0.7358 -0.1561
  978SOL     OW 3832   1.733   1.300   5.463 -0.6711  0.3565 -0.3726
  978SOL    HW1 3833   1.757   1.304   5.561  0.1576  0.3956 -0.5685
  978SOL    HW2 3834   1.637   1.325   5.451 -0.8432  0.1304  0.4587
  979SOL     OW 3835   1.274   5.599   5.981  0.4336  0.2518  0.1156
  979SOL    HW1 3836   1.206   5.581   6.052  1.2773  0.9957  1.1490
  979SOL    HW2 3837   1.279   5.522   5.918 -2.9768  1.0688 -1.3658
  980SOL     OW 3838   0.100   1.246   2.468 -0.2899 -0.2774  0.1090
  980SOL    HW1 3839   0.100   1.147   2.454 -1.2960 -0.2712 -0.0424
  980SOL    HW2 3840   0.189   1.275   2.503 -0.2300 -1.3532  0.9201
  981SOL     OW 3841   0.243   2.008   4.491  0.1001  0.6585  0.1882
  981SOL    HW1 3842   0.252   2.101   4.528 -3.3431  0.5132  1.8357
  981SOL    HW2 3843   0.328   1.958   4.507  1.3501  2.9017  1.1281
  982SOL     OW 3844   3.191   5.862   1.407  0.1400  0.7900  0.1887
  982SOL    HW1 3845   3.167   5.910   1.324  0.5307 -1.1760 -1.1379
  982SOL    HW2 3846   3.225   5.771   1.384 -1.7000 -0.6376  2.5622
  983SOL     OW 3847   4.527   6.011   4.140  0.4068  0.1806 -0.1109
  983SOL    HW1 3848   4.577   6.095   4.119 -1.2778  0.8697 -1.7591
  983SOL    HW2 3849   4.437   6.035   4.177  0.7343 -0.9860  1.5352
  984SOL     OW 3850   5.787   5.840   5.825 -0.1426 -0.2087 -0.2933
  984SOL    HW1 3851   5.721   5.821   5.898 -0.7071  1.1061 -0.4230
  984SOL    HW2 3852   5.753   5.803   5.739 -0.4926  0.0576 -0.2707
  985SOL     OW 3853   1.723   4.526   1.534 -0.2421 -0.1310 -0.0776
  985SOL    HW1 3854   1.726   4.427   1.523  2.3393 -0.0922 -0.3745
  985SOL    HW2 3855   1.813   4.559   1.565 -1.1008  2.0954  0.2193
  986SOL     OW 3856   2.963   5.156   3.204 -0.1946  0.0893  0.3013
  986SOL    HW1 3857   2.871   5.144   3.241 -0.3151 -0.5060 -0.1660
  986SOL    HW2 3858   3.030   5.151   3.279 -0.5154  0.1056  0.5913
  987SOL     OW 3859   5.031   5.751   5.209  0.4079  0.0539  0.9354
  987SOL    HW1 3860   4.974   5.822   5.167 -1.4619  0.0776  3.2699
  987SOL    HW2 3861   5.036   5.672   5.148 -1.8549  0.2029  0.4605
  988SOL     OW 3862   4.610   5.484   2.976  0.3237  0.6998  0.1888
  988SOL    HW1 3863   4.693   5.452   3.022 -0.0703  0.6335  0.8738
  988SOL    HW2 3864   4.620   5.473   2.877  0.7810 -0.1414  0.3188
  989SOL     OW 3865   2.675   2.136   5.738  0.5925 -0.9197 -0.1897
  989SOL    HW1 3866   2.687   2.235   5.733 -0.6638 -0.7179  0.3685
  989SOL    HW2 3867   2.729   2.092   5.666 -0.3925  0.3178 -1.7645
  990SOL     OW 3868   6.763   6.451   2.366 -0.0114 -0.2421  0.1844
  990SOL    HW1 3869   6.839   6.386   2.360  1.3405  1.1017  1.9057
  990SOL    HW2 3870   6.752   6.496   2.277 -0.1058 -1.7987 -0.6478
  991SOL     OW 3871   6.771   5.785   1.542  0.0306 -0.4236  0.4430
  991SOL    HW1 3872   6.812   5.852   1.481  1.5732 -1.0458  0.7404
  991SOL    HW2 3873   6.723   5.716   1.489  1.3332 -0.9412 -0.0963
  992SOL     OW 3874   6.873   5.891   1.099 -0.4122 -0.0552  0.1793
  992SOL    HW1 3875   6.882   5.813   1.036  0.2071  0.3415 -0.2342
  992SOL    HW2 3876   6.921   5.970   1.061  0.7921 -0.0759  1.5941
  993SOL     OW 3877   0.337   5.322   0.217 -0.1368 -0.5840  0.2294
  993SOL    HW1 3878   0.437   5.310   0.214 -0.3867 -3.6234  0.7174
  993SOL    HW2 3879   0.294   5.257   0.154 -1.8655  0.2690  0.4664
  994SOL     OW 3880   0.361   0.869   2.938 -0.6844  0.1288  0.0259
  994SOL    HW1 3881   0.406   0.862   3.027 -1.9002  1.6786  0.8165
  994SOL    HW2 3882   0.376   0.784   2.886  0.9785 -0.3683  1.2352
  995SOL     OW 3883   3.973   3.031   1.840  0.0975  0.3326 -0.4114
  995SOL    HW1 3884   3.985   3.019   1.939 -1.8706 -0.1443 -0.1979
  995SOL    HW2 3885   3.961   3.128   1.820  0.0757  0.3877 -0.1385
  996SOL     OW 3886   5.256   2.955   4.747  0.0270 -0.4527  0.3958
  996SOL    HW1 3887   5.177   2.910   4.788 -2.2200  0.5639 -2.4652
  996SOL    HW2 3888   5.282   3.035   4.803  0.1709 -1.7316  2.2333
  997SOL     OW 3889   3.487   0.149   4.022  0.0500 -0.4844  0.0827
  997SOL    HW1 3890   3.408   0.117   4.074  0.0597 -0.3507  0.1809
  997SOL    HW2 3891   3.566   0.092   4.044  0.4602  0.5639  1.4707
  998SOL     OW 3892   5.878   4.781   0.817  0.2422  0.0195 -0.0104
  998SOL    HW1 3893   5.888   4.830   0.731 -0.3460  1.2761  0.6063
  998SOL    HW2 3894   5.914   4.688   0.807  3.0015  1.0749 -0.7169
  999SOL     OW 3895   6.865   3.305   4.847 -0.0489  0.4718  0.3934
  999SOL    HW1 3896   6.932   3.368   4.885  1.8027 -0.0301 -1.8586
  999SOL    HW2 3897   6.898   3.211   4.855 -0.6695  0.1763 -0.3568
 1000SOL     OW 3898   1.058   3.013   5.867  0.0914 -0.0052 -0.3199
 1000SOL    HW1 3899   1.078   3.015   5.769 -1.0349 -0.1617 -0.5659
 1000SOL    HW2 3900   0.960   2.999   5.880  0.2975 -0.4025  0.8397
 1001SOL     OW 3901   5.598   5.153   2.022 -0.2729  0.4172  0.0933
 1001SOL    HW1 3902   5.576   5.245   2.054 -1.3525  0.5709 -1.0034
 1001SOL    HW2 3903   5.674   5.158   1.957  1.2727  0.2168  1.8079
 1002SOL     OW 3904   2.042   4.491   4.258 -0.1209  0.1109  0.6017
 1002SOL    HW1 3905   1.973   4.562   4.261 -0.8489 -0.5272 -0.4416
 1002SOL    HW2 3906   2.109   4.506   4.331 -2.2792 -0.1915  2.7543
 1003SOL     OW 3907   2.248   2.358   0.131  0.0936  0.1544  0.3812
 1003SOL    HW1 3908   2.296   2.364   0.219 -0.5161  1.9455  0.6435
 1003SOL    HW2 3909   2.246   2.263   0.101 -0.7436 -0.7102  2.9025
 1004SOL     OW 3910   5.881   3.571   6.795 -0.6119  0.0499  0.4035
 1004SOL    HW1 3911   5.797   3.563   6.848 -0.9451  1.0172  0.0457
 1004SOL    HW2 3912   5.934   3.649   6.828 -0.3994  0.1208 -0.1009
 1005SOL     OW 3913   3.553   5.986   0.846  0.6312 -0.5781  0.1588
 1005SOL    HW1 3914   3.495   5.906   0.860  1.7081 -1.2543  0.8234
 1005SOL    HW2 3915   3.553   6.010   0.748 -2.1200  0.5128  0.3087
 1006SOL     OW 3916   0.975   5.655   6.488 -0.3845  0.3716 -0.3968
 1006SOL    HW1 3917   1.035   5.703   6.426 -0.9711  2.0407  0.2796
 1006SOL    HW2 3918   0.902   5.716   6.520 -1.7013 -1.2100 -0.1964
 1007SOL     OW 3919   0.292   3.547   6.203 -0.4209  0.1844  0.3187
 1007SOL    HW1 3920   0.310   3.524   6.108 -1.7826 -0.6207  0.2328
 1007SOL    HW2 3921   0.246   3.636   6.208 -0.8102 -0.0090  0.1839
 1008SOL     OW 3922   0.922   4.797   4.931  0.0271 -0.9154  0.1172
 1008SOL    HW1 3923   0.977   4.850   4.995  1.2932 -1.1331 -0.7491
 1008SOL    HW2 3924   0.871   4.860   4.872  0.3233 -0.6737  0.1105
 1009SOL     OW 3925   4.554   6.505   3.496  0.3920 -0.4111 -0.2338
 1009SOL    HW1 3926   4.600   6.417   3.510  2.5309  0.5775 -0.7608
 1009SOL    HW2 3927   4.612   6.565   3.442 -1.1027  1.3125 -0.0209
 1010SOL     OW 3928   2.840   4.244   1.726 -0.4887  0.0191  0.0616
 1010SOL    HW1 3929   2.918   4.216   1.670 -0.5298  0.0692 -0.0208
 1010SOL    HW2 3930   2.871   4.308   1.797 -0.4221 -0.1115  0.1523
 1011SOL     OW 3931   1.328   2.091   1.005 -0.3800  0.3085 -0.0247
 1011SOL    HW1 3932   1.382   2.174   1.017  0.1545  0.0242 -0.4385
 1011SOL    HW2 3933   1.375   2.028   0.943  0.2627 -1.2282  1.9207
 1012SOL     OW 3934   0.785   0.807   4.465 -0.4417  0.0289 -0.0995
 1012SOL    HW1 3935   0.771   0.710   4.485  0.3842 -0.2011 -0.5883
 1012SOL    HW2 3936   0.823   0.817   4.373 -1.0343  0.8566 -0.2699
 1013SOL     OW 3937   5.130   6.721   4.491  0.9751  0.8937  0.0134
 1013SOL    HW1 3938   5.212   6.753   4.442  2.6127 -1.9362  0.6390
 1013SOL    HW2 3939   5.064   6.686   4.425  1.4695  0.6872 -0.3825
 1014SOL     OW 3940   5.146   4.925   5.199  0.4161  0.0651 -0.3153
 1014SOL    HW1 3941   5.231   4.915   5.148 -0.7504 -1.1933 -2.1634
 1014SOL    HW2 3942   5.115   5.020   5.195  1.3644  0.3837 -0.2382
 1015SOL     OW 3943   4.041   5.242   5.444  0.4683  0.6892 -0.1615
 1015SOL    HW1 3944   4.106   5.247   5.520  0.7249 -0.3159 -0.3020
 1015SOL    HW2 3945   3.965   5.182   5.470  1.2447 -0.7746 -1.1885
 1016SOL     OW 3946   5.415   0.133   6.635 -0.4918  0.1418 -0.2213
 1016SOL    HW1 3947   5.507   0.094   6.640 -0.7251 -0.4762 -0.8072
 1016SOL    HW2 3948   5.381   0.149   6.728 -0.1208 -0.3881  0.0081
 1017SOL     OW 3949   2.165   5.016   1.612  0.4000 -0.1161 -0.5767
 1017SOL    HW1 3950   2.194   5.091   1.672 -2.1659  0.7147 -0.2673
 1017SOL    HW2 3951   2.076   4.982   1.641 -1.3263  0.7604 -4.2548
 1018SOL     OW 3952   3.684   1.493   4.962 -0.0594  0.3100  0.2266
 1018SOL    HW1 3953   3.617   1.568   4.972 -1.8572 -1.4131  2.1390
 1018SOL    HW2 3954   3.747   1.514   4.887 -2.4207  2.2953 -1.3611
 1019SOL     OW 3955   1.828   3.985   6.665  0.6419 -0.3679  0.2088
 1019SOL    HW1 3956   1.850   3.941   6.752  0.9543 -1.6863 -0.5054
 1019SOL    HW2 3957   1.769   3.925   6.611 -0.5148  0.9348 -0.0297
 1020SOL     OW 3958   2.086   5.721   3.297 -0.1253  1.2296  0.7815
 1020SOL    HW1 3959   2.046   5.791   3.356  1.2514  2.7273 -0.0034
 1020SOL    HW2 3960   2.168   5.756   3.253  0.5984 -0.8761  0.3111
 1021SOL     OW 3961   0.742   4.628   6.133 -0.3342  0.6430 -0.2379
 1021SOL    HW1 3962   0.737   4.706   6.070 -0.2778  1.5947  0.8961
 1021SOL    HW2 3963   0.825   4.576   6.115  0.2216  1.5206 -0.2755
 1022SOL     OW 3964   3.289   1.107   1.916  0.0162  0.3271  0.3696
 1022SOL    HW1 3965   3.227   1.158   1.858 -2.4362  0.0541  2.5528
 1022SOL    HW2 3966   3.289   1.146   2.008  0.6786 -1.5366  1.2250
 1023SOL     OW 3967   6.908   3.551   3.042  0.5671 -0.2951  0.1833
 1023SOL    HW1 3968   6.915   3.566   2.943  1.2854  3.6168  0.6998
 1023SOL    HW2 3969   6.957   3.623   3.091 -0.2206 -1.7992  3.4660
 1024SOL     OW 3970   3.392   1.798   2.387 -0.1429 -0.1793 -1.2519
 1024SOL    HW1 3971   3.422   1.762   2.476 -0.5854  0.8003 -0.7011
 1024SOL    HW2 3972   3.411   1.896   2.382 -0.5128 -0.1413 -2.0808
 1025SOL     OW 3973   5.450   6.676   6.094 -0.7950 -0.2638  0.1242
 1025SOL    HW1 3974   5.496   6.588   6.097 -1.5696 -0.6570  0.9123
 1025SOL    HW2 3975   5.453   6.713   6.001  1.1749 -0.2267  0.1788
 1026SOL     OW 3976   6.526   3.359   2.046 -0.1240  0.6220  0.4762
 1026SOL    HW1 3977   6.588   3.395   2.116  0.2759  0.0994  0.3928
 1026SOL    HW2 3978   6.444   3.323   2.089  0.4741 -0.4398  0.7521
 1027SOL     OW 3979   6.416   4.965   2.024  0.1697  0.0196 -0.0094
 1027SOL    HW1 3980   6.335   5.016   1.996  3.1889  3.9441 -2.7218
 1027SOL    HW2 3981   6.454   4.917   1.944  0.7222 -1.5053  1.1283
 1028SOL     OW 3982   2.095   4.028   5.787  0.4434 -0.1518  0.3348
 1028SOL    HW1 3983   2.175   4.004   5.732 -0.7638 -0.5836 -1.3442
 1028SOL    HW2 3984   2.057   3.945   5.829  0.2735 -0.1143  0.2575
 1029SOL     OW 3985   5.490   6.527   5.724  0.4248  0.0796  0.5252
 1029SOL    HW1 3986   5.587   6.511   5.707 -0.2153 -0.8260 -3.1707
 1029SOL    HW2 3987   5.448   6.444   5.759  0.4703 -0.5478 -0.8531
 1030SOL     OW 3988   5.121   5.333   6.309 -0.2740 -0.4665  0.0752
 1030SOL    HW1 3989   5.113   5.367   6.402 -3.7799 -2.2710  0.5954
 1030SOL    HW2 3990   5.188   5.259   6.306  0.9251  0.5376  0.7701
 1031SOL     OW 3991   0.546   0.680   0.415  0.2609  0.2753  0.0736
 1031SOL    HW1 3992   0.633   0.699   0.461 -0.7306  1.4598  1.5744
 1031SOL    HW2 3993   0.525   0.754   0.351  0.3151  0.0258 -0.2370
 1032SOL     OW 3994   0.398   0.524   5.507 -0.0757 -0.0872 -0.6092
 1032SOL    HW1 3995   0.468   0.595   5.520 -0.0535 -0.2568  0.2135
 1032SOL    HW2 3996   0.308   0.561   5.529 -0.2087  0.0221 -1.3138
 1033SOL     OW 3997   1.621   0.950   5.070 -0.4345 -0.2494  0.4599
 1033SOL    HW1 3998   1.581   0.920   4.983  0.0302 -0.8665  0.4522
 1033SOL    HW2 3999   1.550   0.994   5.125 -0.5946  0.7044 -0.4778
 1034SOL     OW 4000   1.491   2.842   0.240  0.1643  0.4575  0.1195
 1034SOL    HW1 4001   1.427   2.911   0.206  0.5431  1.2558  0.9687
 1034SOL    HW2 4002   1.498   2.767   0.174 -0.1089  1.3255 -0.9259
 1035SOL     OW 4003   2.626   2.133   6.010  0.3700  0.0848 -0.6887
 1035SOL    HW1 4004   2.704   2.130   6.072  0.4705 -1.1126 -0.8347
 1035SOL    HW2 4005   2.656   2.110   5.917  0.0537  0.8848 -0.9993
 1036SOL     OW 4006   0.522   5.702   6.746  0.5090 -0.2417 -0.4907
 1036SOL    HW1 4007   0.428   5.709   6.713 -0.0606  0.2256  1.1194
 1036SOL    HW2 4008   0.546   5.784   6.797  1.6517 -0.5412 -0.5076
 1037SOL     OW 4009   4.115   0.394   2.297 -0.1967  0.0364 -0.1426
 1037SOL    HW1 4010   4.104   0.431   2.389 -0.3802  2.0535 -0.9215
 1037SOL    HW2 4011   4.047   0.436   2.236  1.8263  1.0788 -1.8177
 1038SOL     OW 4012   1.049   2.056   2.053  0.3570 -0.4134  0.9307
 1038SOL    HW1 4013   0.972   2.019   2.001  1.4787 -1.4219 -0.1085
 1038SOL    HW2 4014   1.030   2.150   2.081 -1.2447 -0.6626  0.7409
 1039SOL     OW 4015   6.260   4.300   0.530 -0.2617 -0.3981  0.0206
 1039SOL    HW1 4016   6.232   4.331   0.621  0.5458 -0.0559  0.1653
 1039SOL    HW2 4017   6.214   4.214   0.508  0.8479 -1.4194  1.4995
 1040SOL     OW 4018   5.126   1.605   0.246 -0.1204  0.1099 -0.2998
 1040SOL    HW1 4019   5.066   1.566   0.177 -2.1333  0.4956  1.1136
 1040SOL    HW2 4020   5.083   1.687   0.285  1.6060  0.7354  0.3980
 1041SOL     OW 4021   5.796   5.307   5.227 -0.5921 -0.0680  0.6125
 1041SOL    HW1 4022   5.815   5.246   5.304 -3.5804 -2.8253 -0.5845
 1041SOL    HW2 4023   5.833   5.268   5.143 -2.7219 -0.4796 -0.2061
 1042SOL     OW 4024   0.511   4.142   1.045 -0.0682 -0.2523 -0.2064
 1042SOL    HW1 4025   0.414   4.122   1.060 -0.2831  0.4897 -0.5620
 1042SOL    HW2 4026   0.559   4.058   1.023 -0.7206 -0.5616 -0.4813
 1043SOL     OW 4027   6.288   4.729   6.691 -0.1994 -0.4231 -0.1342
 1043SOL    HW1 4028   6.370   4.768   6.732  0.7404 -2.1452 -0.2540
 1043SOL    HW2 4029   6.234   4.683   6.762 -0.2451 -0.6209 -0.2937
 1044SOL     OW 4030   1.216   2.209   4.400 -0.2823 -0.0586  0.0732
 1044SOL    HW1 4031   1.305   2.163   4.401  0.0157  0.5111  0.1839
 1044SOL    HW2 4032   1.143   2.141   4.410  0.1520 -0.5007  0.2852
 1045SOL     OW 4033   4.318   2.267   0.486  0.2184 -0.0667 -0.0881
 1045SOL    HW1 4034   4.274   2.205   0.552 -0.5700 -0.5335 -1.0368
 1045SOL    HW2 4035   4.295   2.362   0.509  0.3555 -0.1916  0.5901
 1046SOL     OW 4036   6.897   1.255   6.165 -0.6230  0.2950 -0.0929
 1046SOL    HW1 4037   6.897   1.309   6.249 -2.0938 -0.3764  0.3842
 1046SOL    HW2 4038   6.990   1.225   6.144 -0.1360  1.0459  0.9077
 1047SOL     OW 4039   5.637   0.549   7.009  0.0333  0.2202  0.2161
 1047SOL    HW1 4040   5.650   0.493   7.091 -0.9196 -0.1982  0.1018
 1047SOL    HW2 4041   5.647   0.491   6.928  0.6205  0.5594  0.0390
 1048SOL     OW 4042   5.179   5.840   0.640  0.3839 -0.2480  0.5323
 1048SOL    HW1 4043   5.277   5.852   0.654  0.7338  0.8513 -2.2437
 1048SOL    HW2 4044   5.132   5.928   0.647 -0.1679 -0.5239  0.3891
 1049SOL     OW 4045   2.660   6.098   1.342 -0.4000  0.0013  0.5537
 1049SOL    HW1 4046   2.708   6.143   1.417 -0.1813 -1.7400  1.4926
 1049SOL    HW2 4047   2.586   6.042   1.378  0.1905 -1.4770 -0.4273
 1050SOL     OW 4048   1.139   0.515   4.164  0.1772  0.7325  0.4997
 1050SOL    HW1 4049   1.043   0.542   4.177  0.0449  1.4050 -1.5070
 1050SOL    HW2 4050   1.143   0.437   4.101  0.9204  0.0404  1.3736
 1051SOL     OW 4051   4.828   0.422   2.722  0.3414 -0.0658  0.8824
 1051SOL    HW1 4052   4.899   0.479   2.762  0.9377 -0.0441 -0.1656
 1051SOL    HW2 4053   4.738   0.455   2.752  0.5620  2.4277 -0.8582
 1052SOL     OW 4054   2.161   3.412   1.701  0.1652 -0.2905  0.3359
 1052SOL    HW1 4055   2.241   3.433   1.758 -0.1504  0.7590  0.3998
 1052SOL    HW2 4056   2.078   3.447   1.745 -0.2796 -0.9311  0.0245
 1053SOL     OW 4057   5.613   3.384   1.835 -0.3683  0.0623  0.3687
 1053SOL    HW1 4058   5.635   3.420   1.744 -0.7130  0.8950  0.6096
 1053SOL    HW2 4059   5.623   3.284   1.835 -2.8843 -0.2640 -1.3023
 1054SOL     OW 4060   6.294   2.121   0.142  0.1958 -0.2494 -0.5222
 1054SOL    HW1 4061   6.248   2.179   0.209  1.3320 -0.8874  0.8417
 1054SOL    HW2 4062   6.235   2.043   0.119 -0.8598  0.7860 -1.5185
 1055SOL     OW 4063   1.931   2.959   6.119  0.1049  0.4283  0.2397
 1055SOL    HW1 4064   1.974   2.924   6.035 -0.6010 -1.6418  0.6795
 1055SOL    HW2 4065   1.846   3.007   6.096 -0.4754 -0.7804 -0.1982
 1056SOL     OW 4066   2.475   2.104   5.365  0.3032 -0.1393 -0.8552
 1056SOL    HW1 4067   2.483   2.181   5.428 -0.0732  1.2734 -2.4820
 1056SOL    HW2 4068   2.416   2.034   5.406  0.4905  0.4957  0.5692
 1057SOL     OW 4069   1.493   1.620   1.761 -0.4900  0.2904 -0.5007
 1057SOL    HW1 4070   1.473   1.717   1.777  0.8590  0.6132 -0.6414
 1057SOL    HW2 4071   1.511   1.575   1.849  0.2258  0.5015 -0.5273
 1058SOL     OW 4072   5.179   4.743   6.839  1.1081  0.1493 -0.1742
 1058SOL    HW1 4073   5.189   4.776   6.932  2.7306  1.4556 -0.7685
 1058SOL    HW2 4074   5.253   4.679   6.818  1.4329  0.7702 -0.9397
 1059SOL     OW 4075   1.353   5.590   0.864  0.9509 -0.5577  0.1815
 1059SOL    HW1 4076   1.288   5.617   0.792  0.5359  2.3115  1.5106
 1059SOL    HW2 4077   1.445   5.618   0.838  0.5950  1.9418  1.3158
 1060SOL     OW 4078   5.040   5.375   3.927  0.5540 -0.2580  0.4149
 1060SOL    HW1 4079   5.017   5.282   3.957  0.0604 -0.4772 -0.5914
 1060SOL    HW2 4080   4.964   5.437   3.947  0.3874 -0.3251  0.0191
 1061SOL     OW 4081   3.465   5.494   5.401  0.5147 -0.3058  0.1044
 1061SOL    HW1 4082   3.507   5.557   5.467 -0.2206 -0.4703  0.7470
 1061SOL    HW2 4083   3.519   5.410   5.396  0.9590 -0.0116 -0.0210
 1062SOL     OW 4084   0.637   6.546   5.336 -0.0438 -0.0970 -0.1007
 1062SOL    HW1 4085   0.639   6.459   5.286 -1.4328 -0.8315  1.0367
 1062SOL    HW2 4086   0.703   6.609   5.296  1.0029 -1.6685 -0.9709
 1063SOL     OW 4087   5.316   0.890   3.264 -0.4862  0.5407  0.2219
 1063SOL    HW1 4088   5.242   0.885   3.331 -0.8179 -0.1497 -0.1905
 1063SOL    HW2 4089   5.302   0.821   3.193 -0.2813  1.4401 -0.7088
 1064SOL     OW 4090   6.069   6.918   6.643  0.2053 -0.7719 -0.7664
 1064SOL    HW1 4091   6.032   6.904   6.551  0.6729 -2.1039 -0.7678
 1064SOL    HW2 4092   5.994   6.922   6.709 -0.0406 -2.1696 -0.9275
 1065SOL     OW 4093   4.112   1.711   1.555 -0.5864 -0.2482 -0.2366
 1065SOL    HW1 4094   4.060   1.785   1.597 -0.4668  0.7888 -1.8451
 1065SOL    HW2 4095   4.174   1.748   1.486  0.7174 -1.6817  0.0767
 1066SOL     OW 4096   6.986   3.308   4.471  0.0098  0.5784 -0.3479
 1066SOL    HW1 4097   6.889   3.330   4.484 -0.1298 -0.2916  0.1573
 1066SOL    HW2 4098   7.042   3.363   4.533 -0.1378  1.2075 -0.7619
 1067SOL     OW 4099   0.769   4.409   4.272  0.0546  0.1374 -0.6682
 1067SOL    HW1 4100   0.839   4.354   4.227  2.3905  1.3116  1.2841
 1067SOL    HW2 4101   0.718   4.461   4.204  1.5968 -0.1685 -2.1263
 1068SOL     OW 4102   0.338   6.977   2.846 -0.0623 -0.6522  0.1805
 1068SOL    HW1 4103   0.419   6.970   2.788  1.0773  0.5779  1.5446
 1068SOL    HW2 4104   0.258   6.995   2.789  0.6988 -1.3263 -1.1503
 1069SOL     OW 4105   2.014   6.727   5.482 -0.7819  0.2158 -0.0779
 1069SOL    HW1 4106   2.022   6.684   5.572  1.0008  2.2961  0.8542
 1069SOL    HW2 4107   2.052   6.666   5.413 -1.0679 -0.9313  0.7446
 1070SOL     OW 4108   0.432   4.316   0.456  0.3407  0.0412 -0.1333
 1070SOL    HW1 4109   0.355   4.375   0.483  0.6858  0.4970 -0.1417
 1070SOL    HW2 4110   0.421   4.288   0.361 -0.2124 -0.5277  0.0844
 1071SOL     OW 4111   0.794   5.404   3.014  0.1647 -0.3015 -0.1436
 1071SOL    HW1 4112   0.832   5.348   2.940 -1.9410 -1.0522 -0.7197
 1071SOL    HW2 4113   0.849   5.391   3.097 -0.1217 -3.0871 -0.3171
 1072SOL     OW 4114   3.759   1.524   3.942 -0.2478 -0.5034 -0.0159
 1072SOL    HW1 4115   3.772   1.426   3.925 -3.0570 -0.7286 -1.3497
 1072SOL    HW2 4116   3.733   1.569   3.857 -1.0870  1.0140  1.0090
 1073SOL     OW 4117   0.729   0.620   5.206 -0.4758 -0.2949  0.0806
 1073SOL    HW1 4118   0.713   0.521   5.209 -1.0943 -0.1777  1.5725
 1073SOL    HW2 4119   0.815   0.639   5.159  0.6225 -1.6826  1.4274
 1074SOL     OW 4120   0.090   1.191   5.300  0.0628 -0.3789 -0.3250
 1074SOL    HW1 4121   0.169   1.199   5.240  0.3934 -0.3137  0.1147
 1074SOL    HW2 4122   0.052   1.282   5.318  0.4594 -0.3120  0.2128
 1075SOL     OW 4123   4.207   0.318   5.083  0.5756  0.0687 -0.3399
 1075SOL    HW1 4124   4.120   0.305   5.130  1.1101  1.2763  1.0705
 1075SOL    HW2 4125   4.192   0.319   4.984 -0.6310 -2.2074 -0.2432
 1076SOL     OW 4126   2.755   5.167   0.482  0.1723  0.0274  0.3526
 1076SOL    HW1 4127   2.843   5.142   0.441 -0.3159  0.6058 -1.1405
 1076SOL    HW2 4128   2.702   5.084   0.498  0.9956 -0.3336  1.3327
 1077SOL     OW 4129   5.377   2.466   2.156 -0.3707 -0.6331 -0.7743
 1077SOL    HW1 4130   5.305   2.469   2.226  0.8257 -0.7363  0.5094
 1077SOL    HW2 4131   5.355   2.529   2.082 -0.8023  0.8787  0.5818
 1078SOL     OW 4132   0.880   6.638   1.984 -0.2752 -0.2723  0.2354
 1078SOL    HW1 4133   0.834   6.707   2.039 -0.8942 -0.3639 -0.1507
 1078SOL    HW2 4134   0.943   6.586   2.041 -1.6899 -1.0798  1.1053
 1079SOL     OW 4135   0.674   2.879   1.136  0.3623  0.4904  0.6003
 1079SOL    HW1 4136   0.750   2.879   1.202  0.4027 -0.3710  0.5767
 1079SOL    HW2 4137   0.588   2.862   1.183  0.4303 -0.4519  0.4102
 1080SOL     OW 4138   6.867   0.342   5.806  0.4480 -0.3439  0.4851
 1080SOL    HW1 4139   6.815   0.424   5.784  0.0534 -0.4923  0.8567
 1080SOL    HW2 4140   6.959   0.349   5.767 -0.3003 -0.7253 -1.4749
 1081SOL     OW 4141   2.512   2.550   3.696  0.3051  0.1549 -0.3445
 1081SOL    HW1 4142   2.489   2.470   3.641 -0.7789 -1.1090  1.8149
 1081SOL    HW2 4143   2.553   2.521   3.783  1.2346  2.0278 -0.0950
 1082SOL     OW 4144   1.046   0.421   1.337 -0.0842  0.0454 -0.5123
 1082SOL    HW1 4145   1.081   0.485   1.269  0.6654  1.7766  1.4093
 1082SOL    HW2 4146   0.955   0.451   1.367 -0.2624 -0.5180 -0.4635
 1083SOL     OW 4147   4.318   5.419   1.759 -0.2371 -0.5100 -0.5878
 1083SOL    HW1 4148   4.286   5.480   1.832  0.5863 -1.8536  0.9551
 1083SOL    HW2 4149   4.252   5.345   1.745  1.0612 -2.0870  1.1281
 1084SOL     OW 4150   5.461   1.038   5.129  0.0927 -0.4405  0.4519
 1084SOL    HW1 4151   5.560   1.054   5.134  0.4506 -2.2355 -0.1257
 1084SOL    HW2 4152   5.413   1.125   5.128  1.5826  0.4610  2.1090
 1085SOL     OW 4153   2.193   0.628   0.874  0.9124  0.7146 -0.0825
 1085SOL    HW1 4154   2.246   0.611   0.791 -0.7951  1.3000 -1.3409
 1085SOL    HW2 4155   2.179   0.542   0.923  2.0783  0.3926 -0.2853
 1086SOL     OW 4156   4.300   6.647   0.216 -0.1366 -0.0878  0.0729
 1086SOL    HW1 4157   4.239   6.725   0.203 -0.3540 -0.1970  0.4304
 1086SOL    HW2 4158   4.389   6.667   0.175 -0.1879  0.3542  0.1744
 1087SOL     OW 4159   6.851   6.784   2.552 -0.3605 -0.9449  0.0789
 1087SOL    HW1 4160   6.792   6.813   2.626 -0.5330 -2.0755  0.4078
 1087SOL    HW2 4161   6.941   6.759   2.589 -0.7871 -2.5594  0.0915
 1088SOL     OW 4162   1.343   2.356   1.999 -0.8669 -0.1545  0.2756
 1088SOL    HW1 4163   1.409   2.355   1.924  0.0763 -2.5355  1.0338
 1088SOL    HW2 4164   1.379   2.410   2.075 -0.9590  0.6679 -0.2614
 1089SOL     OW 4165   4.703   6.912   1.601 -0.8584  0.3970 -0.5236
 1089SOL    HW1 4166   4.700   6.874   1.508  0.1342 -0.8049 -0.0855
 1089SOL    HW2 4167   4.675   6.842   1.666  1.1340  0.3528  0.3216
 1090SOL     OW 4168   0.813   6.101   3.261  0.5183 -0.4160  0.0723
 1090SOL    HW1 4169   0.839   6.051   3.344  2.1343 -0.5482 -0.4826
 1090SOL    HW2 4170   0.803   6.198   3.282 -0.2466 -0.6094  0.6521
 1091SOL     OW 4171   5.436   4.748   1.859  0.1893 -0.2741  0.2428
 1091SOL    HW1 4172   5.431   4.844   1.885  0.4767  0.2943 -1.6391
 1091SOL    HW2 4173   5.344   4.714   1.839  0.2314  0.1186 -0.6941
 1092SOL     OW 4174   5.016   5.636   1.290  0.1687 -0.1179  0.2098
 1092SOL    HW1 4175   5.111   5.667   1.291  0.7618 -1.8411  0.1408
 1092SOL    HW2 4176   5.011   5.545   1.249 -1.7557  0.6429 -1.4120
 1093SOL     OW 4177   4.034   1.978   0.384  0.1372 -0.5334  0.1137
 1093SOL    HW1 4178   4.038   2.073   0.418 -2.5362  0.0634 -0.9825
 1093SOL    HW2 4179   3.980   1.975   0.300  0.0999 -3.0711  0.1570
 1094SOL     OW 4180   1.288   3.899   3.708  0.3360  0.2465 -0.2590
 1094SOL    HW1 4181   1.371   3.844   3.718 -0.0212 -0.1609  0.4763
 1094SOL    HW2 4182   1.279   3.962   3.785 -0.1363  0.1631 -0.2427
 1095SOL     OW 4183   0.262   5.133   4.319  0.0432 -0.0964 -0.1758
 1095SOL    HW1 4184   0.280   5.167   4.227 -0.0068 -0.0136 -0.1551
 1095SOL    HW2 4185   0.201   5.196   4.367 -0.8991 -0.7389 -0.4973
 1096SOL     OW 4186   6.275   3.630   3.915 -0.7027 -0.3745  0.4410
 1096SOL    HW1 4187   6.357   3.583   3.882 -0.7877 -1.2536  1.4337
 1096SOL    HW2 4188   6.207   3.562   3.942 -1.6888  0.3475 -0.1890
 1097SOL     OW 4189   3.727   0.018   5.623  0.1676  0.5500  0.3991
 1097SOL    HW1 4190   3.669   0.049   5.548  1.2195 -0.9144 -1.0740
 1097SOL    HW2 4191   3.819   0.055   5.612  0.5165 -0.2460  0.5415
 1098SOL     OW 4192   4.020   3.892   3.221 -0.7606 -0.0184 -0.1126
 1098SOL    HW1 4193   4.045   3.823   3.154  1.4181  0.2369  0.3682
 1098SOL    HW2 4194   4.060   3.980   3.196 -0.5806  0.2637  1.0759
 1099SOL     OW 4195   1.484   2.737   4.104 -0.3897 -0.0006  0.0543
 1099SOL    HW1 4196   1.496   2.705   4.198 -0.6377  3.1809  1.2709
 1099SOL    HW2 4197   1.415   2.809   4.101  0.0327  0.4004 -2.4820
 1100SOL     OW 4198   6.754   6.079   2.886 -0.1184  0.1282 -0.1668
 1100SOL    HW1 4199   6.837   6.072   2.940  0.4106 -0.6987 -1.0417
 1100SOL    HW2 4200   6.683   6.124   2.939  1.1361  1.6453  0.2913
 1101SOL     OW 4201   5.101   1.601   1.211  0.0717 -0.2465 -0.0492
 1101SOL    HW1 4202   5.171   1.604   1.140 -1.5790  1.8958 -1.7238
 1101SOL    HW2 4203   5.075   1.695   1.237 -1.0315 -0.9788  1.7034
 1102SOL     OW 4204   4.123   4.051   5.448  0.0541  0.3845  0.0445
 1102SOL    HW1 4205   4.048   4.117   5.438 -1.0206 -0.9764 -1.4113
 1102SOL    HW2 4206   4.102   3.989   5.523  1.0791  1.6421  1.4326
 1103SOL     OW 4207   5.056   2.339   6.955  0.4184 -0.1299 -0.5575
 1103SOL    HW1 4208   5.109   2.255   6.966 -0.3620 -0.7398 -1.3058
 1103SOL    HW2 4209   5.093   2.410   7.015  0.7131 -1.1878  0.5537
 1104SOL     OW 4210   6.166   4.293   3.673 -0.2292 -0.5969  0.1980
 1104SOL    HW1 4211   6.209   4.205   3.652  1.0556 -0.1084  0.6693
 1104SOL    HW2 4212   6.219   4.367   3.631 -1.7464 -0.0624 -0.8826
 1105SOL     OW 4213   5.861   2.701   5.228 -0.0763 -0.3566 -0.0085
 1105SOL    HW1 4214   5.817   2.706   5.139  0.2069  0.8111 -0.1075
 1105SOL    HW2 4215   5.817   2.630   5.284 -0.8000 -0.5244 -0.7743
 1106SOL     OW 4216   4.991   1.855   2.226 -0.4524  0.2382  0.1222
 1106SOL    HW1 4217   4.981   1.866   2.325 -2.6079  1.5630 -0.1652
 1106SOL    HW2 4218   5.083   1.882   2.198 -0.0138  0.4466  1.6806
 1107SOL     OW 4219   6.342   3.471   2.856  0.4495  0.4904 -0.1344
 1107SOL    HW1 4220   6.246   3.448   2.875 -0.0951  2.3261 -0.4534
 1107SOL    HW2 4221   6.401   3.424   2.922 -0.6939 -0.2985  0.3653
 1108SOL     OW 4222   1.743   4.047   3.707 -0.2573  0.3714  0.1578
 1108SOL    HW1 4223   1.781   4.139   3.713 -2.5959  1.3918  0.7794
 1108SOL    HW2 4224   1.688   4.039   3.624 -2.7906  0.7505  1.6890
 1109SOL     OW 4225   0.045   2.238   5.733  0.7817 -0.0558 -0.2206
 1109SOL    HW1 4226   0.017   2.227   5.828  0.5821  0.5149 -0.2114
 1109SOL    HW2 4227   0.051   2.148   5.690  1.6846 -0.3845  0.5523
 1110SOL     OW 4228   6.185   5.582   6.050  0.3864  0.4949 -0.1690
 1110SOL    HW1 4229   6.207   5.680   6.051  0.9011  0.4344 -2.0093
 1110SOL    HW2 4230   6.095   5.568   6.091  0.6709  1.6218  0.9107
 1111SOL     OW 4231   3.237   0.045   1.439  0.4943  0.2392  0.2898
 1111SOL    HW1 4232   3.267  -0.048   1.461 -0.4155  0.1736  1.3216
 1111SOL    HW2 4233   3.179   0.042   1.358  0.8351 -0.0215  0.0504
 1112SOL     OW 4234   5.587   1.434   4.178  0.1103  0.2034  0.3493
 1112SOL    HW1 4235   5.628   1.346   4.154  0.6390  0.6959 -0.5870
 1112SOL    HW2 4236   5.651   1.487   4.233  0.9223  1.1228 -1.4193
 1113SOL     OW 4237   1.620   0.540   0.239  0.2539  0.1622  0.7277
 1113SOL    HW1 4238   1.574   0.621   0.204  0.3084 -0.4084 -0.7303
 1113SOL    HW2 4239   1.573   0.508   0.322 -0.8432  0.6537  0.3155
 1114SOL     OW 4240   3.753   2.742   1.643  0.0815  0.0469  0.4077
 1114SOL    HW1 4241   3.728   2.645   1.644  0.7111 -0.1581 -1.1250
 1114SOL    HW2 4242   3.850   2.751   1.665 -0.2312  0.4387  1.6785
 1115SOL     OW 4243   0.661   2.983   0.059 -0.5952 -0.2798  0.4714
 1115SOL    HW1 4244   0.604   3.042   0.117 -2.1589 -1.5648  0.3201
 1115SOL    HW2 4245   0.741   3.034   0.029 -0.6734  1.0082  2.2481
 1116SOL     OW 4246   3.667   1.107   7.010  0.3168 -0.3180  0.2125
 1116SOL    HW1 4247   3.596   1.126   6.942 -1.2491 -4.4152  0.4456
 1116SOL    HW2 4248   3.745   1.063   6.964  0.4468 -0.6076  0.7110
 1117SOL     OW 4249   1.804   1.707   2.727 -0.2437  0.4440 -0.3927
 1117SOL    HW1 4250   1.777   1.754   2.811 -1.1139  0.8072 -0.8601
 1117SOL    HW2 4251   1.722   1.674   2.680  0.2300  0.2893 -1.1229
 1118SOL     OW 4252   1.563   0.387   4.132 -0.0181 -0.1872  0.2502
 1118SOL    HW1 4253   1.592   0.468   4.081  2.0214 -0.4537  0.8911
 1118SOL    HW2 4254   1.561   0.308   4.070 -2.6156  0.3863 -0.5212
 1119SOL     OW 4255   6.140   3.889   4.635 -0.2453  0.4531  0.6784
 1119SOL    HW1 4256   6.097   3.950   4.568  0.3521  1.6619  1.3745
 1119SOL    HW2 4257   6.155   3.799   4.592  0.1775  1.2082 -0.8301
 1120SOL     OW 4258   0.051   3.225   5.740 -0.5606 -0.2270  0.9048
 1120SOL    HW1 4259   0.140   3.179   5.741  1.1605  2.6380 -1.8178
 1120SOL    HW2 4260   0.037   3.272   5.827 -0.0397 -1.6998  1.8252
 1121SOL     OW 4261   0.092   1.731   1.083  0.0756 -0.0584  0.3254
 1121SOL    HW1 4262   0.018   1.793   1.110 -0.3905 -0.5681  0.2298
 1121SOL    HW2 4263   0.104   1.660   1.152  2.5317  1.7282  1.8961
 1122SOL     OW 4264   0.539   6.309   3.575 -0.2824 -0.4994  0.5162
 1122SOL    HW1 4265   0.593   6.337   3.654  1.8832  0.7834 -1.2685
 1122SOL    HW2 4266   0.468   6.377   3.557  0.1269 -0.0499  0.5740
 1123SOL     OW 4267   4.391   2.010   5.541  0.4465 -0.3134 -0.7599
 1123SOL    HW1 4268   4.296   1.978   5.540  0.5020 -0.4691 -1.0535
 1123SOL    HW2 4269   4.433   1.985   5.629 -0.1151  0.7416 -0.1794
 1124SOL     OW 4270   6.961   3.901   4.892 -0.0567 -0.0296  0.0086
 1124SOL    HW1 4271   6.938   3.879   4.797  0.6036  1.2251 -0.4594
 1124SOL    HW2 4272   6.959   4.000   4.904 -1.3174 -0.2171  1.6227
 1125SOL     OW 4273   2.481   2.610   4.729  0.2227 -0.2304 -0.0516
 1125SOL    HW1 4274   2.549   2.683   4.732 -0.3421  0.3803 -1.2839
 1125SOL    HW2 4275   2.476   2.566   4.818  2.2177 -0.2997  0.0725
 1126SOL     OW 4276   5.373   2.222   1.734  0.5096  0.4171 -0.1997
 1126SOL    HW1 4277   5.379   2.150   1.665 -0.8964 -0.4831  0.5737
 1126SOL    HW2 4278   5.406   2.187   1.821  0.0909  0.8131  0.1204
 1127SOL     OW 4279   0.400   4.717   4.611  0.2524 -0.2577 -0.3098
 1127SOL    HW1 4280   0.387   4.621   4.589  1.7085 -0.2413 -1.4624
 1127SOL    HW2 4281   0.468   4.756   4.548 -0.6112  1.6295 -0.1457
 1128SOL     OW 4282   4.283   6.519   5.161  0.3792  0.1725  0.0032
 1128SOL    HW1 4283   4.296   6.537   5.259  1.8647  3.6065 -0.7025
 1128SOL    HW2 4284   4.365   6.474   5.125 -0.1847 -1.1305  0.2840
 1129SOL     OW 4285   0.370   6.618   0.740 -0.1313 -0.1619 -0.3342
 1129SOL    HW1 4286   0.396   6.587   0.831 -0.4649  0.3601 -0.0535
 1129SOL    HW2 4287   0.271   6.605   0.728  0.0074 -0.7589 -0.8340
 1130SOL     OW 4288   0.813   0.046   6.760  0.5580 -0.3425 -0.0929
 1130SOL    HW1 4289   0.887   0.008   6.815 -0.3714 -0.2380  1.2612
 1130SOL    HW2 4290   0.818   0.146   6.760 -0.6117 -0.2490  1.5303
 1131SOL     OW 4291   6.922   1.385   4.559 -0.1590 -0.3606 -0.0030
 1131SOL    HW1 4292   7.022   1.389   4.567 -0.0478  2.0941 -1.6417
 1131SOL    HW2 4293   6.897   1.337   4.475 -0.3102  0.2121 -0.2866
 1132SOL     OW 4294   0.275   4.967   4.588 -0.0961  0.3217  0.5954
 1132SOL    HW1 4295   0.307   4.878   4.619  0.8461  0.0402 -1.0547
 1132SOL    HW2 4296   0.344   5.008   4.527 -0.6256  2.0541  1.0922
 1133SOL     OW 4297   2.909   0.859   0.864 -0.3751  0.0481  0.2257
 1133SOL    HW1 4298   2.883   0.955   0.852  2.5815  0.8549 -0.4764
 1133SOL    HW2 4299   2.962   0.828   0.785  1.5383 -1.1080  1.8608
 1134SOL     OW 4300   2.411   1.939   2.842  0.1408 -0.1543 -0.4115
 1134SOL    HW1 4301   2.474   1.910   2.914 -0.0993  0.0121 -0.1306
 1134SOL    HW2 4302   2.404   1.867   2.773  0.7467 -0.1113 -0.5192
 1135SOL     OW 4303   0.294   3.476   0.727 -0.1525 -0.0455 -0.1018
 1135SOL    HW1 4304   0.313   3.568   0.761  0.2504 -0.1715  0.0234
 1135SOL    HW2 4305   0.315   3.471   0.629 -1.9017  0.4884 -0.5370
 1136SOL     OW 4306   1.439   5.397   6.142  0.1265  0.4896  0.5910
 1136SOL    HW1 4307   1.351   5.419   6.185 -1.4525 -0.4084 -1.9394
 1136SOL    HW2 4308   1.464   5.471   6.079 -1.3548 -1.2501 -2.2523
 1137SOL     OW 4309   2.615   5.921   2.915 -0.1455  0.1845 -0.1701
 1137SOL    HW1 4310   2.701   5.945   2.961 -0.2680  0.8426 -0.2717
 1137SOL    HW2 4311   2.579   5.836   2.954  0.2672  0.1994  0.2543
 1138SOL     OW 4312   2.702   0.911   4.026  0.8718  0.0160  0.4314
 1138SOL    HW1 4313   2.688   1.004   3.992 -0.7519 -0.3133  0.1653
 1138SOL    HW2 4314   2.785   0.910   4.082 -0.2721  2.1861  2.3702
 1139SOL     OW 4315   5.966   4.664   1.470  0.3765  0.1495 -0.2975
 1139SOL    HW1 4316   5.996   4.756   1.496  0.6035 -0.3836  1.4863
 1139SOL    HW2 4317   5.923   4.619   1.549 -2.0660 -0.3803 -1.8212
 1140SOL     OW 4318   2.985   4.373   0.468 -0.0516 -0.5528 -0.1942
 1140SOL    HW1 4319   3.082   4.383   0.446 -0.5139 -0.2055 -2.3707
 1140SOL    HW2 4320   2.949   4.460   0.501  0.6765 -1.0883  2.1561
 1141SOL     OW 4321   2.268   6.785   2.496  0.6449 -0.0268  0.3038
 1141SOL    HW1 4322   2.193   6.719   2.497  0.7606 -0.2968  3.6607
 1141SOL    HW2 4323   2.281   6.820   2.403 -1.4332 -2.3983 -0.9993
 1142SOL     OW 4324   1.239   4.816   1.195  0.1990  0.3605 -0.7497
 1142SOL    HW1 4325   1.222   4.813   1.293 -2.0863 -0.6261 -1.1069
 1142SOL    HW2 4326   1.246   4.722   1.160 -1.2007  0.6312 -1.8282
 1143SOL     OW 4327   0.471   1.458   5.488  0.5842  0.3966 -0.2294
 1143SOL    HW1 4328   0.539   1.407   5.540 -0.2378  1.3364  1.8708
 1143SOL    HW2 4329   0.466   1.552   5.522 -2.7659 -0.0104  0.7419
 1144SOL     OW 4330   6.877   1.409   5.313  0.0637 -1.0637 -1.0185
 1144SOL    HW1 4331   6.931   1.447   5.389  0.7244 -1.4903 -1.2649
 1144SOL    HW2 4332   6.839   1.484   5.259 -0.3633 -0.7551 -0.3056
 1145SOL     OW 4333   6.051   1.105   5.206 -0.1724  0.5342 -0.0996
 1145SOL    HW1 4334   6.069   1.090   5.303  0.2623  1.3591 -0.0424
 1145SOL    HW2 4335   5.953   1.097   5.188 -0.0833 -1.3537  0.0788
 1146SOL     OW 4336   4.944   6.346   1.894  0.7540 -0.0586  0.1765
 1146SOL    HW1 4337   4.989   6.320   1.808  1.6506  1.0887  0.2723
 1146SOL    HW2 4338   4.865   6.287   1.909  2.1905 -2.1485 -0.0200
 1147SOL     OW 4339   5.692   1.199   0.732 -0.0929  0.0007 -0.1795
 1147SOL    HW1 4340   5.731   1.181   0.822 -2.9832  0.3054  1.2506
 1147SOL    HW2 4341   5.652   1.115   0.695  1.7381 -0.3095 -1.6135
 1148SOL     OW 4342   4.906   1.085   7.007 -0.0370  0.6339  0.1769
 1148SOL    HW1 4343   4.810   1.114   7.009 -0.8127 -1.6841  0.4177
 1148SOL    HW2 4344   4.950   1.120   6.925 -1.2303  1.3552 -0.1740
 1149SOL     OW 4345   3.188   1.708   1.785 -0.0653  0.2977 -0.4622
 1149SOL    HW1 4346   3.158   1.801   1.807 -2.3316 -0.7087  1.0821
 1149SOL    HW2 4347   3.243   1.672   1.860 -0.7323 -0.2465 -0.2349
 1150SOL     OW 4348   4.666   6.677   5.333 -0.0016 -0.0615  0.1923
 1150SOL    HW1 4349   4.702   6.586   5.356 -0.7703 -0.5738 -0.5404
 1150SOL    HW2 4350   4.568   6.679   5.351  0.1827  0.9657  1.1510
 1151SOL     OW 4351   2.400   1.601   4.935  0.1399  0.8111  0.0013
 1151SOL    HW1 4352   2.319   1.577   4.989 -0.2080  1.3558 -0.2653
 1151SOL    HW2 4353   2.385   1.689   4.890  0.5342  0.5063 -0.7469
 1152SOL     OW 4354   2.292   4.922   6.144 -0.7569 -0.3889  0.1948
 1152SOL    HW1 4355   2.330   4.920   6.237  1.6728 -0.5114 -0.7268
 1152SOL    HW2 4356   2.264   4.830   6.118 -0.1538 -0.6206  0.3384
 1153SOL     OW 4357   5.530   6.278   3.531 -0.4060  0.4775  0.1240
 1153SOL    HW1 4358   5.567   6.348   3.592  0.2204 -0.1500  0.4775
 1153SOL    HW2 4359   5.605   6.224   3.492 -0.9372 -0.8281  0.8563
 1154SOL     OW 4360   2.681   1.327   3.766 -0.6301 -0.0400 -0.4477
 1154SOL    HW1 4361   2.658   1.301   3.672  0.0426  3.8945 -1.8687
 1154SOL    HW2 4362   2.599   1.325   3.822 -1.2052 -1.6438 -1.2794
 1155SOL     OW 4363   1.824   5.001   3.743  0.2705 -0.4178 -0.2079
 1155SOL    HW1 4364   1.795   5.004   3.839 -0.6860 -0.4811 -0.4912
 1155SOL    HW2 4365   1.843   4.907   3.716 -1.6315 -0.7004 -0.7001
 1156SOL     OW 4366   3.458   0.679   1.716 -0.3377 -0.2272 -0.3134
 1156SOL    HW1 4367   3.370   0.658   1.759  1.0209 -0.2750  2.6736
 1156SOL    HW2 4368   3.488   0.771   1.743  1.6531 -1.1517  0.8275
 1157SOL     OW 4369   5.002   1.324   0.694  0.2921 -0.1945  0.3891
 1157SOL    HW1 4370   5.054   1.366   0.619  1.2982  0.7113  1.5497
 1157SOL    HW2 4371   5.063   1.305   0.771 -1.0122  0.6684  1.7043
 1158SOL     OW 4372   0.561   4.083   3.416  0.1158  0.3018 -0.3013
 1158SOL    HW1 4373   0.492   4.038   3.358  0.5832 -1.8580  0.6879
 1158SOL    HW2 4374   0.652   4.062   3.381  0.3417  0.9826 -0.1309
 1159SOL     OW 4375   0.120   4.079   4.185 -0.1409 -0.6384  0.0224
 1159SOL    HW1 4376   0.117   3.979   4.192  0.8469 -0.6610  0.3473
 1159SOL    HW2 4377   0.105   4.119   4.275 -0.9769 -0.4704 -0.1845
 1160SOL     OW 4378   2.997   6.502   3.103  0.5713 -0.2195 -0.4143
 1160SOL    HW1 4379   2.935   6.426   3.084  0.7868 -1.1986  2.3428
 1160SOL    HW2 4380   2.947   6.577   3.146  0.6853  0.4776 -1.4702
 1161SOL     OW 4381   4.960   3.802   2.277  1.1336 -0.4415  0.3137
 1161SOL    HW1 4382   4.937   3.774   2.370  1.5880  0.3372  0.6656
 1161SOL    HW2 4383   4.910   3.745   2.212 -0.2993 -0.0390  1.0402
 1162SOL     OW 4384   2.595   3.549   6.731  0.0513 -0.3566  0.5909
 1162SOL    HW1 4385   2.530   3.502   6.671  0.1258  0.4729 -0.1595
 1162SOL    HW2 4386   2.583   3.647   6.723 -0.1371 -0.2239  2.1835
 1163SOL     OW 4387   2.597   3.851   6.678  0.5269 -0.0088 -0.5996
 1163SOL    HW1 4388   2.510   3.900   6.672  0.6756  0.5785  1.4366
 1163SOL    HW2 4389   2.666   3.911   6.719  1.3367 -1.1511 -0.2448
 1164SOL     OW 4390   0.282   1.641   3.665  0.0296 -0.5775  0.1893
 1164SOL    HW1 4391   0.262   1.702   3.742 -0.6159 -1.3316  0.6285
 1164SOL    HW2 4392   0.236   1.675   3.583 -0.1943 -0.3776  0.3965
 1165SOL     OW 4393   0.920   3.769   0.043  0.4242 -0.1728  0.2129
 1165SOL    HW1 4394   0.954   3.862   0.027  0.1657 -0.0999  0.0750
 1165SOL    HW2 4395   0.872   3.737  -0.038 -0.9462  0.2247  0.8332
 1166SOL     OW 4396   2.788   1.239   4.255 -0.3954 -0.6502  0.8700
 1166SOL    HW1 4397   2.799   1.181   4.174 -1.5234  0.3544 -0.0433
 1166SOL    HW2 4398   2.703   1.216   4.302  0.2154 -1.1709  1.7424
 1167SOL     OW 4399   4.697   0.594   6.491 -0.5774  0.0107 -0.1670
 1167SOL    HW1 4400   4.607   0.635   6.472 -0.2070  0.2378 -1.4956
 1167SOL    HW2 4401   4.701   0.503   6.450 -0.5732 -0.4433  0.8189
 1168SOL     OW 4402   0.528   1.688   3.019  0.5048 -0.2825 -0.6518
 1168SOL    HW1 4403   0.566   1.601   2.987  0.3580 -0.0201 -1.5864
 1168SOL    HW2 4404   0.454   1.716   2.957 -0.4346 -0.2063  0.4644
 1169SOL     OW 4405   4.287   0.576   0.682  0.5548 -0.0261 -0.3647
 1169SOL    HW1 4406   4.221   0.508   0.715  1.2241 -0.5431 -0.0745
 1169SOL    HW2 4407   4.354   0.595   0.753  0.1486  1.2565 -0.2969
 1170SOL     OW 4408   5.557   4.587   3.096 -0.0313  0.1643  0.1330
 1170SOL    HW1 4409   5.564   4.654   3.170  0.0427 -0.3799  0.6291
 1170SOL    HW2 4410   5.631   4.521   3.105  0.5792  0.6630 -1.0239
 1171SOL     OW 4411   0.425   2.911   2.861  0.6326  0.1361  1.0193
 1171SOL    HW1 4412   0.500   2.949   2.807  1.4108 -1.2655  1.0779
 1171SOL    HW2 4413   0.458   2.832   2.912 -0.0825  1.3349  3.5010
 1172SOL     OW 4414   3.841   1.757   3.048  0.4669 -0.4237 -0.3864
 1172SOL    HW1 4415   3.789   1.719   3.124 -1.3640 -0.2061 -1.4815
 1172SOL    HW2 4416   3.914   1.815   3.084 -0.9050  0.3894  1.2232
 1173SOL     OW 4417   4.004   2.834   0.459  0.4740  0.4094 -0.1740
 1173SOL    HW1 4418   3.979   2.930   0.445 -0.7269  0.3206  1.1916
 1173SOL    HW2 4419   4.035   2.820   0.553  0.6401 -0.5557 -0.3544
 1174SOL     OW 4420   5.312   4.856   4.306 -0.0395 -0.5648 -0.0968
 1174SOL    HW1 4421   5.388   4.921   4.299 -0.5890  0.1525  0.4785
 1174SOL    HW2 4422   5.236   4.899   4.355  0.0658 -2.0761  1.5000
 1175SOL     OW 4423   1.558   0.234   6.965 -0.3978 -0.3757  0.6188
 1175SOL    HW1 4424   1.627   0.226   7.037 -0.4335  0.3355  0.7454
 1175SOL    HW2 4425   1.597   0.281   6.886 -0.6163 -0.3409  0.5312
 1176SOL     OW 4426   2.880   2.347   6.521  0.2178  0.5913 -0.6856
 1176SOL    HW1 4427   2.787   2.349   6.485 -0.1301  1.4579  0.2314
 1176SOL    HW2 4428   2.880   2.308   6.613  0.6865  1.0620 -0.4801
 1177SOL     OW 4429   1.900   6.869   6.647  1.0222  0.4175  0.5008
 1177SOL    HW1 4430   1.835   6.938   6.680 -1.1679 -1.6237  0.6962
 1177SOL    HW2 4431   1.872   6.839   6.556  0.3411 -2.0087  1.4389
 1178SOL     OW 4432   1.132   2.471   3.853  0.3695  0.2018  0.6060
 1178SOL    HW1 4433   1.165   2.524   3.775  2.5116 -1.2955  0.4021
 1178SOL    HW2 4434   1.074   2.397   3.821 -0.3986  0.7701  0.6498
 1179SOL     OW 4435   5.871   5.688   6.494  0.3812  0.3839 -0.3182
 1179SOL    HW1 4436   5.778   5.652   6.485  0.9479 -1.1441 -0.2544
 1179SOL    HW2 4437   5.916   5.647   6.574 -0.3000  4.3569  2.4429
 1180SOL     OW 4438   5.232   4.433   6.610  0.1949  0.8876  0.1727
 1180SOL    HW1 4439   5.171   4.479   6.546  0.7482  1.4831  0.0734
 1180SOL    HW2 4440   5.291   4.499   6.654  2.2301  0.1348 -1.2672
 1181SOL     OW 4441   1.082   6.252   0.117 -0.7972  0.3312 -0.3581
 1181SOL    HW1 4442   1.076   6.300   0.205 -0.3247  0.2025 -0.2539
 1181SOL    HW2 4443   1.170   6.206   0.110 -2.0817 -2.4958  0.5651
 1182SOL     OW 4444   3.424   1.985   0.176 -0.4223 -0.4929 -0.2793
 1182SOL    HW1 4445   3.336   2.029   0.191 -0.4704 -0.3441 -0.9910
 1182SOL    HW2 4446   3.410   1.893   0.139 -0.3698 -1.5907  2.1901
 1183SOL     OW 4447   1.618   5.273   5.361 -0.1892 -0.1295 -0.1057
 1183SOL    HW1 4448   1.669   5.192   5.390 -0.9232 -0.8484 -0.7679
 1183SOL    HW2 4449   1.537   5.245   5.310 -0.0892  1.0413 -0.9577
 1184SOL     OW 4450   3.955   3.161   5.748 -0.1689  0.0829 -0.3532
 1184SOL    HW1 4451   4.032   3.222   5.730 -0.5617  0.3590 -1.1365
 1184SOL    HW2 4452   3.910   3.188   5.833 -0.3391  0.8839 -0.6923
 1185SOL     OW 4453   6.453   1.693   2.923 -0.1478  0.6414 -0.3850
 1185SOL    HW1 4454   6.400   1.683   2.839  1.6920  1.6737 -1.7185
 1185SOL    HW2 4455   6.538   1.641   2.916  0.7071  1.9020  0.2060
 1186SOL     OW 4456   4.693   2.251   1.735  0.4169 -0.1159 -0.1992
 1186SOL    HW1 4457   4.699   2.173   1.673  0.5917 -1.1029  1.0245
 1186SOL    HW2 4458   4.617   2.310   1.707 -0.4688 -1.3429 -0.4468
 1187SOL     OW 4459   3.493   1.863   0.805  0.0980  0.6031 -0.6761
 1187SOL    HW1 4460   3.443   1.788   0.762 -0.0768  0.0793  0.4224
 1187SOL    HW2 4461   3.487   1.945   0.747 -0.1173 -0.0845 -1.6462
 1188SOL     OW 4462   5.621   2.012   4.768 -0.4622  0.1156 -0.3240
 1188SOL    HW1 4463   5.619   2.075   4.845 -1.1439 -0.4210  0.1039
 1188SOL    HW2 4464   5.709   2.021   4.721  1.5303 -2.0373  2.6110
 1189SOL     OW 4465   1.989   1.518   5.053 -0.2706  0.2242 -0.1246
 1189SOL    HW1 4466   1.928   1.473   5.119 -1.5986  1.4570 -0.4449
 1189SOL    HW2 4467   1.940   1.595   5.011  1.5092  1.2047 -0.4704
 1190SOL     OW 4468   4.510   6.532   1.168 -0.8265  0.5673 -0.1738
 1190SOL    HW1 4469   4.457   6.563   1.088 -1.5993  0.6115  0.3398
 1190SOL    HW2 4470   4.559   6.610   1.207  0.4133  0.3367 -1.2250
 1191SOL     OW 4471   6.120   0.508   1.039 -0.1018 -0.1921 -0.0699
 1191SOL    HW1 4472   6.148   0.599   1.008  0.3330 -0.1972  0.2999
 1191SOL    HW2 4473   6.074   0.516   1.128  2.5532 -0.6053  1.4392
 1192SOL     OW 4474   5.356   4.638   2.104  0.4046  0.9111  0.3848
 1192SOL    HW1 4475   5.322   4.731   2.093 -0.4732  0.6141  0.4980
 1192SOL    HW2 4476   5.312   4.578   2.037 -0.0383  0.3332  1.1752
 1193SOL     OW 4477   2.496   1.047   6.987 -0.0668 -0.1913  0.0559
 1193SOL    HW1 4478   2.420   1.009   7.040 -0.9863  1.4228 -0.0083
 1193SOL    HW2 4479   2.483   1.146   6.979  1.9453  0.0855 -0.1666
 1194SOL     OW 4480   4.181   2.643   6.143  0.6648 -0.1318  0.4139
 1194SOL    HW1 4481   4.159   2.699   6.063  1.6716 -0.8210 -0.3797
 1194SOL    HW2 4482   4.250   2.689   6.199  0.3325  0.1215  0.6192
 1195SOL     OW 4483   0.576   1.980   4.978 -0.5279  0.1998  0.4749
 1195SOL    HW1 4484   0.611   1.985   5.071  0.9765  0.7461 -0.0796
 1195SOL    HW2 4485   0.583   1.886   4.945  2.3129  0.5763 -0.2525
 1196SOL     OW 4486   2.470   5.973   6.362  0.3030  0.1035  0.4350
 1196SOL    HW1 4487   2.500   5.902   6.298 -1.2524 -1.6115  1.4729
 1196SOL    HW2 4488   2.375   5.956   6.387  0.7546  0.8576  2.9643
 1197SOL     OW 4489   1.760   0.744   5.383 -0.2620 -0.2615 -0.2100
 1197SOL    HW1 4490   1.660   0.747   5.389 -0.2106  0.2398  0.5273
 1197SOL    HW2 4491   1.799   0.798   5.457  0.5780 -1.6332  0.3881
 1198SOL     OW 4492   2.856   0.559   3.911  0.0639  0.1087  0.0967
 1198SOL    HW1 4493   2.875   0.609   3.827 -1.8591 -0.6657 -0.8646
 1198SOL    HW2 4494   2.758   0.539   3.916  0.2927 -0.6964  2.0600
 1199SOL     OW 4495   5.654   4.915   4.065  0.5240  0.0374  0.3039
 1199SOL    HW1 4496   5.622   4.965   4.145  0.6980 -1.3373  1.2838
 1199SOL    HW2 4497   5.605   4.827   4.059  1.8548 -0.7130  0.0240
 1200SOL     OW 4498   3.903   2.441   0.289 -0.0414  0.5209 -0.0964
 1200SOL    HW1 4499   3.838   2.411   0.219  0.8036  0.6743 -0.9576
 1200SOL    HW2 4500   3.914   2.540   0.285  0.0731  0.5225  0.2036
 1201SOL     OW 4501   2.557   3.503   1.703  0.1659 -0.6445  0.0979
 1201SOL    HW1 4502   2.488   3.492   1.774  0.7563  0.0859  0.8084
 1201SOL    HW2 4503   2.580   3.600   1.694  0.1979 -0.7409 -1.0059
 1202SOL     OW 4504   1.050   6.986   6.901 -0.1857 -0.2694 -0.4289
 1202SOL    HW1 4505   1.014   7.038   6.979  0.3043 -0.7230  0.1085
 1202SOL    HW2 4506   1.146   7.011   6.885 -0.2680 -0.2179 -0.8529
 1203SOL     OW 4507   0.485   6.051   3.310 -0.3873  0.0407 -0.1626
 1203SOL    HW1 4508   0.561   6.000   3.350 -0.9944 -0.9659 -0.2417
 1203SOL    HW2 4509   0.445   6.112   3.379  0.0911  0.1058  0.0582
 1204SOL     OW 4510   6.109   4.120   4.457  0.4927  0.4205 -0.1089
 1204SOL    HW1 4511   6.194   4.149   4.500  0.8856 -0.0472 -0.5676
 1204SOL    HW2 4512   6.091   4.176   4.377  1.2121 -0.5119 -0.9504
 1205SOL     OW 4513   4.825   2.787   0.086  0.4884  0.0619  0.0769
 1205SOL    HW1 4514   4.781   2.703   0.117 -0.4677  1.3075  2.3994
 1205SOL    HW2 4515   4.760   2.863   0.093  1.5333  1.1438 -1.2630
 1206SOL     OW 4516   5.830   3.308   5.419 -0.3665  0.0934  0.3048
 1206SOL    HW1 4517   5.797   3.293   5.512 -0.8820 -1.0017 -0.0310
 1206SOL    HW2 4518   5.774   3.255   5.355  2.1114 -2.0196 -0.2926
 1207SOL     OW 4519   5.276   4.973   1.590 -0.1168  0.8616  0.4907
 1207SOL    HW1 4520   5.194   4.934   1.632  0.7648 -0.4170  1.0813
 1207SOL    HW2 4521   5.355   4.953   1.647  1.4058 -2.3059 -2.3642
 1208SOL     OW 4522   5.383   6.438   3.936  0.6057 -0.0909  0.3830
 1208SOL    HW1 4523   5.373   6.355   3.991  1.1369 -0.2927  0.1868
 1208SOL    HW2 4524   5.293   6.479   3.920  0.2149 -1.1686 -0.3292
 1209SOL     OW 4525   0.161   2.798   1.408  0.0241  0.4262 -0.4641
 1209SOL    HW1 4526   0.193   2.807   1.314  1.2349  0.7489 -0.0501
 1209SOL    HW2 4527   0.106   2.716   1.417  0.3244  0.1141 -1.3459
 1210SOL     OW 4528   0.963   5.898   3.864  0.7467 -0.3133  0.0982
 1210SOL    HW1 4529   1.019   5.921   3.785  2.9168  3.8264  2.4949
 1210SOL    HW2 4530   1.006   5.825   3.917  0.3705 -1.6421 -1.3791
 1211SOL     OW 4531   0.130   0.449   5.902  0.5198 -0.2297  0.1870
 1211SOL    HW1 4532   0.097   0.523   5.843 -0.0377 -0.4858  0.1718
 1211SOL    HW2 4533   0.183   0.384   5.847 -2.0926 -1.8420 -0.6613
 1212SOL     OW 4534   6.547   3.804   2.767  0.3036  0.0456  0.2743
 1212SOL    HW1 4535   6.540   3.756   2.680  3.2302 -0.0471 -0.0086
 1212SOL    HW2 4536   6.499   3.892   2.761 -1.1823 -0.7796 -0.7128
 1213SOL     OW 4537   1.285   0.819   5.285 -0.2334 -0.0908  0.2716
 1213SOL    HW1 4538   1.269   0.756   5.209  0.8667  0.0043 -0.0618
 1213SOL    HW2 4539   1.343   0.775   5.354  0.6379  0.5718 -0.0192
 1214SOL     OW 4540   1.947   1.844   1.888 -0.2172  0.0591  0.4702
 1214SOL    HW1 4541   2.035   1.833   1.842 -0.2111  0.5718  0.3521
 1214SOL    HW2 4542   1.923   1.941   1.890  0.3146  0.1971  2.4990
 1215SOL     OW 4543   6.513   2.854   2.246 -0.1231 -0.2805  0.3984
 1215SOL    HW1 4544   6.532   2.857   2.148 -0.9880 -0.3478  0.2248
 1215SOL    HW2 4545   6.598   2.868   2.297  0.8187 -2.6894 -0.3489
 1216SOL     OW 4546   2.363   4.235   1.032 -0.3040 -0.3766 -0.0072
 1216SOL    HW1 4547   2.387   4.190   1.118  1.5346 -0.2149 -0.3939
 1216SOL    HW2 4548   2.328   4.327   1.050 -0.6580 -0.6263  0.5959
 1217SOL     OW 4549   0.185   6.038   3.896 -0.3140  0.6331 -0.0983
 1217SOL    HW1 4550   0.127   6.006   3.821 -1.1801  0.9508  0.4092
 1217SOL    HW2 4551   0.127   6.077   3.968  0.5422  0.9510  0.4371
 1218SOL     OW 4552   2.190   1.930   3.289  0.1313  0.9722  0.2872
 1218SOL    HW1 4553   2.268   1.867   3.287 -0.5317  0.1488 -0.2687
 1218SOL    HW2 4554   2.174   1.967   3.197  0.4537  1.8981  0.5888
 1219SOL     OW 4555   6.942   6.259   2.359 -0.1266  0.1248  0.0317
 1219SOL    HW1 4556   6.923   6.171   2.315  0.2322  0.7589 -1.4385
 1219SOL    HW2 4557   7.024   6.250   2.416 -0.1108 -0.5086 -0.0777
 1220SOL     OW 4558   2.998   6.012   3.772 -0.0176 -0.0510 -0.4168
 1220SOL    HW1 4559   2.999   5.939   3.840  0.9432 -0.6812 -1.0785
 1220SOL    HW2 4560   3.031   5.976   3.684 -1.8443  0.5768 -1.4083
 1221SOL     OW 4561   1.489   4.750   3.410  0.1534 -0.5012  0.6895
 1221SOL    HW1 4562   1.529   4.842   3.411 -0.6090 -0.1546  0.2887
 1221SOL    HW2 4563   1.561   4.682   3.394  0.4288  0.2101 -1.5324
 1222SOL     OW 4564   3.649   4.348   5.679 -0.6329  0.0158 -0.0809
 1222SOL    HW1 4565   3.627   4.446   5.675 -0.3072  0.1114  0.3942
 1222SOL    HW2 4566   3.739   4.336   5.720 -0.8622 -0.5083  0.2781
 1223SOL     OW 4567   3.629   1.061   3.131  0.1255 -0.8299 -0.2124
 1223SOL    HW1 4568   3.541   1.017   3.149  0.3964 -1.5681 -0.6530
 1223SOL    HW2 4569   3.646   1.064   3.033 -0.4085  1.3327 -0.2857
 1224SOL     OW 4570   2.175   1.116   4.426  0.4815  0.0289  0.1614
 1224SOL    HW1 4571   2.201   1.022   4.449 -2.7830 -0.7571  1.2254
 1224SOL    HW2 4572   2.175   1.172   4.509  1.8858  0.8759 -0.3794
 1225SOL     OW 4573   2.196   0.823   3.143  0.1601 -0.4978 -0.5274
 1225SOL    HW1 4574   2.189   0.817   3.242 -1.0293 -0.1504 -0.5767
 1225SOL    HW2 4575   2.166   0.914   3.112  2.4475  0.1618 -1.0659
 1226SOL     OW 4576   3.022   5.496   3.115 -0.5589 -0.0076 -0.1603
 1226SOL    HW1 4577   3.062   5.550   3.041 -1.9339  1.6772  0.2594
 1226SOL    HW2 4578   2.945   5.443   3.078 -1.1635  0.7335  0.0135
 1227SOL     OW 4579   3.632   5.427   0.827  0.4102  0.6352  0.0146
 1227SOL    HW1 4580   3.600   5.337   0.797 -1.5855  1.2889  0.0392
 1227SOL    HW2 4581   3.732   5.428   0.829  0.4823 -1.3634 -0.6138
 1228SOL     OW 4582   0.550   5.286   3.094  0.2372 -0.0914 -0.1677
 1228SOL    HW1 4583   0.634   5.338   3.079  0.1867 -0.1834 -0.8299
 1228SOL    HW2 4584   0.528   5.235   3.011 -0.1449 -0.5449  0.2071
 1229SOL     OW 4585   2.274   0.141   0.965  0.5901 -0.4611  0.0479
 1229SOL    HW1 4586   2.227   0.057   0.989  0.3947 -0.1195  0.9114
 1229SOL    HW2 4587   2.332   0.126   0.884  0.4815 -1.3848  0.1365
 1230SOL     OW 4588   2.217   6.623   4.758 -0.0877 -0.3142 -0.5081
 1230SOL    HW1 4589   2.265   6.710   4.749  1.0494 -0.8790 -0.0485
 1230SOL    HW2 4590   2.122   6.641   4.785  0.5191  0.7441  1.0614
 1231SOL     OW 4591   0.376   0.346   6.301  0.0971 -0.0514  0.6119
 1231SOL    HW1 4592   0.418   0.279   6.239 -1.0389 -1.5667  1.4170
 1231SOL    HW2 4593   0.306   0.397   6.252 -1.1184 -1.5608  0.7136
 1232SOL     OW 4594   5.866   1.002   2.905 -0.3459 -0.3467 -0.3921
 1232SOL    HW1 4595   5.813   1.061   2.966 -0.4460  0.0336 -0.8461
 1232SOL    HW2 4596   5.865   0.909   2.941  1.3433  0.2369  1.3459
 1233SOL     OW 4597   4.184   2.381   6.283  0.3803 -0.7124  0.6367
 1233SOL    HW1 4598   4.194   2.464   6.228  4.4685 -1.2717  0.1649
 1233SOL    HW2 4599   4.162   2.304   6.224  1.8056 -0.7913  0.1629
 1234SOL     OW 4600   6.054   4.116   1.183 -0.2350  0.7219  0.6906
 1234SOL    HW1 4601   5.958   4.091   1.194 -0.8917  3.1338  0.9559
 1234SOL    HW2 4602   6.081   4.104   1.087 -0.0003 -2.2647  1.0078
 1235SOL     OW 4603   6.846   1.026   2.447 -0.2890 -0.1172  0.6006
 1235SOL    HW1 4604   6.773   1.014   2.379  0.2913 -0.4550  0.0263
 1235SOL    HW2 4605   6.847   1.122   2.477 -0.0636  0.2295 -0.4487
 1236SOL     OW 4606   0.691   2.512   2.222 -0.1699  0.0090 -0.0443
 1236SOL    HW1 4607   0.603   2.481   2.187 -0.4611 -0.0035  0.6801
 1236SOL    HW2 4608   0.759   2.438   2.212  0.4558  0.8232 -2.9188
 1237SOL     OW 4609   1.326   4.307   1.299  0.3980 -0.0265  0.0017
 1237SOL    HW1 4610   1.336   4.318   1.200  1.0900  1.6980  0.2269
 1237SOL    HW2 4611   1.387   4.371   1.346 -2.0704  1.3527  1.5343
 1238SOL     OW 4612   2.894   4.796   4.821 -0.2543 -0.8044 -0.1277
 1238SOL    HW1 4613   2.908   4.733   4.898  0.8603 -0.6544 -0.1989
 1238SOL    HW2 4614   2.855   4.745   4.744  1.2390 -1.5707 -0.4072
 1239SOL     OW 4615   6.048   6.094   1.020  0.4626  0.1976  0.4465
 1239SOL    HW1 4616   6.115   6.083   1.094 -0.6402 -0.0618  1.4268
 1239SOL    HW2 4617   6.004   6.007   1.001 -0.8971  0.7111  1.0934
 1240SOL     OW 4618   5.996   6.884   4.439  0.0467  0.3466  0.3998
 1240SOL    HW1 4619   6.024   6.971   4.399 -0.6109  0.4569  0.1623
 1240SOL    HW2 4620   5.933   6.838   4.377  1.6246 -1.0648 -0.2317
 1241SOL     OW 4621   1.273   3.553   6.299  0.2933  0.7324 -0.4114
 1241SOL    HW1 4622   1.336   3.592   6.232 -0.8437  0.6625 -1.5594
 1241SOL    HW2 4623   1.280   3.454   6.298 -0.7425  0.6397 -1.5215
 1242SOL     OW 4624   4.980   2.616   4.553 -0.2514 -0.0157  0.3807
 1242SOL    HW1 4625   4.994   2.715   4.552 -0.4980  0.0206 -0.5793
 1242SOL    HW2 4626   4.884   2.597   4.572 -0.1281 -0.0794  0.9300
 1243SOL     OW 4627   1.525   4.943   2.571 -0.1207  0.2711  0.1767
 1243SOL    HW1 4628   1.559   4.966   2.662 -0.6143 -0.9442  0.6835
 1243SOL    HW2 4629   1.452   4.876   2.579  0.2895 -0.3600 -1.1703
 1244SOL     OW 4630   0.470   2.112   0.310  0.3263 -0.3352  0.3689
 1244SOL    HW1 4631   0.529   2.056   0.251  0.8300  1.9120 -1.3665
 1244SOL    HW2 4632   0.375   2.081   0.300  0.5064 -0.4947 -1.0299
 1245SOL     OW 4633   1.940   3.111   5.822 -0.5475  0.3816  0.8309
 1245SOL    HW1 4634   2.005   3.185   5.802 -0.9645  0.6996  0.6510
 1245SOL    HW2 4635   1.991   3.025   5.834 -0.1655  0.4413 -0.2520
 1246SOL     OW 4636   3.565   2.730   0.284  0.1170  0.2284  0.5312
 1246SOL    HW1 4637   3.514   2.802   0.238  1.5836  0.2764 -1.1022
 1246SOL    HW2 4638   3.597   2.663   0.217  0.6784 -0.7600  1.7358
 1247SOL     OW 4639   1.467   5.882   3.116 -0.1184 -0.1713 -0.1735
 1247SOL    HW1 4640   1.565   5.867   3.098 -0.2670 -2.0728  0.3721
 1247SOL    HW2 4641   1.457   5.952   3.187  1.0333 -1.9342  1.8619
 1248SOL     OW 4642   1.864   2.175   4.321 -0.5559 -0.4050 -0.2422
 1248SOL    HW1 4643   1.879   2.270   4.347  0.7972 -1.0446  1.5399
 1248SOL    HW2 4644   1.768   2.160   4.300 -1.0122  1.0832  0.6698
 1249SOL     OW 4645   4.948   2.872   4.603 -0.4154 -0.0020  0.0792
 1249SOL    HW1 4646   4.854   2.863   4.634 -0.4901  0.4618 -0.0021
 1249SOL    HW2 4647   4.977   2.967   4.613  0.1371 -0.1978  0.3748
 1250SOL     OW 4648   1.143   6.008   0.725 -0.5522  0.7082  0.6360
 1250SOL    HW1 4649   1.103   5.949   0.795 -0.0821  1.0443  1.2055
 1250SOL    HW2 4650   1.102   6.099   0.731  0.4793  1.1369  1.4164
 1251SOL     OW 4651   6.661   5.997   4.452  0.8161  0.4317 -0.5744
 1251SOL    HW1 4652   6.609   6.078   4.478 -0.2498 -0.7568  1.1963
 1251SOL    HW2 4653   6.723   5.972   4.527  1.7569  0.0842 -1.4469
 1252SOL     OW 4654   0.698   4.866   5.401  0.0947 -0.1359  0.4106
 1252SOL    HW1 4655   0.760   4.944   5.409  1.1260 -1.0464  1.8824
 1252SOL    HW2 4656   0.749   4.782   5.418 -0.8260 -1.2361 -1.9277
 1253SOL     OW 4657   0.112   2.821   1.829  0.2778  0.3819  0.4231
 1253SOL    HW1 4658   0.067   2.780   1.909 -0.0857  1.4098  0.7487
 1253SOL    HW2 4659   0.044   2.849   1.762  0.6150 -2.5718 -1.3779
 1254SOL     OW 4660   6.940   0.593   3.705 -0.8459  0.1049 -0.1626
 1254SOL    HW1 4661   7.035   0.624   3.714 -0.7536 -0.3083  0.3457
 1254SOL    HW2 4662   6.930   0.542   3.620 -0.0971 -1.6102  0.7156
 1255SOL     OW 4663   3.946   1.240   6.744 -0.2462  0.5174  0.0638
 1255SOL    HW1 4664   3.927   1.325   6.792 -0.6061  0.4735  0.0036
 1255SOL    HW2 4665   3.941   1.164   6.808 -4.2428  0.0026 -0.5473
 1256SOL     OW 4666   3.041   0.509   1.995 -0.2955 -0.0654 -0.5029
 1256SOL    HW1 4667   3.016   0.413   1.985 -0.0277  0.0412 -2.4246
 1256SOL    HW2 4668   2.962   0.562   2.025 -0.7372 -0.7042 -0.5493
 1257SOL     OW 4669   1.534   1.931   6.208 -0.0421  0.6736  0.1553
 1257SOL    HW1 4670   1.623   1.899   6.239 -0.4729 -0.9549 -0.2408
 1257SOL    HW2 4671   1.462   1.885   6.259 -0.7475 -1.2430 -2.3752
 1258SOL     OW 4672   1.531   6.519   6.015  0.4347  0.6725 -0.2445
 1258SOL    HW1 4673   1.518   6.431   5.969  2.0471  0.2715 -0.0033
 1258SOL    HW2 4674   1.508   6.594   5.952 -3.5560  0.1629  0.3637
 1259SOL     OW 4675   4.103   0.015   5.900 -0.0801  0.2121 -0.4584
 1259SOL    HW1 4676   4.187   0.060   5.928 -0.3750  0.1599  0.5441
 1259SOL    HW2 4677   4.113  -0.084   5.907  0.3554  0.1241 -2.0498
 1260SOL     OW 4678   5.073   6.334   4.594  0.0303  0.2358  0.1570
 1260SOL    HW1 4679   5.073   6.426   4.633 -0.4271 -0.0532  0.8697
 1260SOL    HW2 4680   5.147   6.281   4.634 -2.5790 -1.2042  3.5490
 1261SOL     OW 4681   2.903   2.213   0.948  0.2506  0.5648  0.0379
 1261SOL    HW1 4682   2.926   2.117   0.961  0.0915  0.3809 -0.9458
 1261SOL    HW2 4683   2.979   2.270   0.978  0.7823  0.0858 -0.3659
 1262SOL     OW 4684   6.756   3.132   3.411  0.2566  0.5174  0.8212
 1262SOL    HW1 4685   6.773   3.040   3.376  0.5964  0.5459  0.9094
 1262SOL    HW2 4686   6.813   3.197   3.362 -0.7921  0.8355 -0.0156
 1263SOL     OW 4687   1.514   4.063   2.325 -0.2807  0.0489 -0.5348
 1263SOL    HW1 4688   1.556   4.004   2.394  0.3585  0.4951 -0.5419
 1263SOL    HW2 4689   1.426   4.023   2.297  0.8724 -1.7847 -1.7381
 1264SOL     OW 4690   6.285   5.218   3.063  0.3866 -0.7237 -0.5764
 1264SOL    HW1 4691   6.375   5.177   3.070  0.6221  0.0535  1.4004
 1264SOL    HW2 4692   6.216   5.154   3.097  0.7493  0.3829  2.4679
 1265SOL     OW 4693   2.189   2.051   6.758  0.5846  0.0085  0.0018
 1265SOL    HW1 4694   2.220   2.143   6.781 -1.4288  0.9499 -0.7316
 1265SOL    HW2 4695   2.209   2.033   6.661 -0.7792  0.5067 -0.3958
 1266SOL     OW 4696   1.341   3.073   6.696 -0.0767 -0.1246  0.4726
 1266SOL    HW1 4697   1.318   3.143   6.629 -1.7498 -0.8636  0.2057
 1266SOL    HW2 4698   1.316   3.105   6.787  2.3063  0.9274  0.8307
 1267SOL     OW 4699   4.268   5.748   4.552 -0.2247  0.1838  0.2603
 1267SOL    HW1 4700   4.334   5.681   4.519  0.6792  0.3779  1.6084
 1267SOL    HW2 4701   4.316   5.823   4.598 -1.4412 -0.6818  3.1011
 1268SOL     OW 4702   5.069   4.841   1.707 -0.3333  0.6063  0.2131
 1268SOL    HW1 4703   5.049   4.908   1.779 -1.3761 -0.5207  1.0277
 1268SOL    HW2 4704   4.984   4.816   1.660  0.3267  1.2935 -1.4276
 1269SOL     OW 4705   3.161   0.440   2.269 -0.6270 -0.2015 -0.2252
 1269SOL    HW1 4706   3.247   0.486   2.292 -0.8605  0.0672  0.1010
 1269SOL    HW2 4707   3.153   0.435   2.169  0.1570 -0.9595 -0.2684
 1270SOL     OW 4708   6.101   5.110   6.705  0.4253  0.3793  0.0769
 1270SOL    HW1 4709   6.002   5.104   6.717  0.0590  1.9538 -1.6961
 1270SOL    HW2 4710   6.132   5.035   6.647  0.2690 -0.0178  0.4971
 1271SOL     OW 4711   2.037   0.004   2.232  0.2150  0.3296  1.0165
 1271SOL    HW1 4712   2.052   0.078   2.298  0.1174 -0.1622  1.5937
 1271SOL    HW2 4713   2.108  -0.066   2.244 -0.1824 -0.0723  1.0324
 1272SOL     OW 4714   2.334   2.709   2.867 -0.2326  0.5898 -0.7310
 1272SOL    HW1 4715   2.398   2.687   2.793  1.2351  4.2464 -0.7625
 1272SOL    HW2 4716   2.245   2.731   2.829 -0.4943 -0.9170 -1.0397
 1273SOL     OW 4717   4.008   0.981   5.014  0.5065 -0.3100  0.4450
 1273SOL    HW1 4718   4.043   0.909   5.074 -0.7595 -0.4151  1.0789
 1273SOL    HW2 4719   3.950   0.940   4.943 -0.3188  0.0869  0.8820
 1274SOL     OW 4720   5.915   4.327   6.996 -0.3440  0.0388  0.3669
 1274SOL    HW1 4721   5.949   4.269   6.921 -1.0298 -0.3708  0.3629
 1274SOL    HW2 4722   5.925   4.423   6.971  0.2963 -0.0806  0.1414
 1275SOL     OW 4723   1.183   1.523   5.463 -0.4761  0.6182  0.0608
 1275SOL    HW1 4724   1.136   1.511   5.550  1.0455 -1.0498  0.7238
 1275SOL    HW2 4725   1.130   1.481   5.390 -1.3358  1.2373  0.3206
 1276SOL     OW 4726   1.985   0.062   1.963 -0.0277  0.2368  0.6310
 1276SOL    HW1 4727   2.008   0.028   2.054 -0.3432 -4.4732 -0.8150
 1276SOL    HW2 4728   1.885   0.069   1.955 -0.0265  0.0386  0.4490
 1277SOL     OW 4729   3.126   5.805   4.613  0.3201  0.2081  0.4276
 1277SOL    HW1 4730   3.083   5.720   4.644 -1.2137  0.7567 -0.0777
 1277SOL    HW2 4731   3.224   5.791   4.603 -0.0929 -2.0300 -1.3087
 1278SOL     OW 4732   3.409   1.703   5.843 -0.0241 -0.1367  0.1449
 1278SOL    HW1 4733   3.357   1.776   5.798 -1.0306 -0.3799  0.8566
 1278SOL    HW2 4734   3.504   1.731   5.853  0.0081  0.3184 -1.2223
 1279SOL     OW 4735   1.758   3.451   3.103 -0.5472 -0.3533  0.0984
 1279SOL    HW1 4736   1.734   3.501   3.186  0.7684 -0.8239  0.7906
 1279SOL    HW2 4737   1.851   3.478   3.074 -1.2980  0.4569 -1.7326
 1280SOL     OW 4738   5.637   1.223   1.500  0.2593  0.6187 -0.1692
 1280SOL    HW1 4739   5.649   1.214   1.401  2.0752 -0.0866  0.0672
 1280SOL    HW2 4740   5.561   1.285   1.520  0.9746  2.1649 -1.9990
 1281SOL     OW 4741   1.511   6.027   2.063  0.5189 -0.4374  0.2441
 1281SOL    HW1 4742   1.556   6.115   2.078  1.0911 -0.6372 -0.2729
 1281SOL    HW2 4743   1.412   6.042   2.057  0.5480  0.0723  0.8594
 1282SOL     OW 4744   0.798   1.976   1.982 -0.5105 -0.3896 -0.3415
 1282SOL    HW1 4745   0.788   1.878   1.968 -1.2584 -0.3607 -0.0899
 1282SOL    HW2 4746   0.739   2.004   2.058  0.5986  0.0580  0.3662
 1283SOL     OW 4747   3.103   3.088   1.027  0.2586  0.9942 -0.2368
 1283SOL    HW1 4748   3.007   3.113   1.039 -0.2782 -0.6995 -0.6852
 1283SOL    HW2 4749   3.110   3.014   0.959  1.6682 -0.2358  1.1540
 1284SOL     OW 4750   1.666   5.717   4.667  0.3172  0.1291  0.7069
 1284SOL    HW1 4751   1.725   5.643   4.635  0.0480  0.3129 -0.2483
 1284SOL    HW2 4752   1.703   5.754   4.753  2.4275  1.2156 -0.5925
 1285SOL     OW 4753   0.783   2.609   0.553  0.3770  0.9786  0.0918
 1285SOL    HW1 4754   0.707   2.667   0.582  0.1852  0.4163  0.7584
 1285SOL    HW2 4755   0.852   2.664   0.507 -0.1699  1.5943 -0.0050
 1286SOL     OW 4756   1.503   3.198   5.789  0.0699  0.6523  0.3702
 1286SOL    HW1 4757   1.522   3.100   5.788  0.6768  0.7647  0.5574
 1286SOL    HW2 4758   1.561   3.244   5.721 -1.8348  0.6098 -1.3711
 1287SOL     OW 4759   1.256   1.952   5.171 -0.3272 -0.1801  0.4416
 1287SOL    HW1 4760   1.266   2.045   5.207 -1.7620  0.3480 -0.4230
 1287SOL    HW2 4761   1.307   1.944   5.085 -1.0254  0.1511 -0.0175
 1288SOL     OW 4762   2.042   6.997   5.545 -0.4569  0.1517 -0.1975
 1288SOL    HW1 4763   2.042   6.903   5.512  0.6926  0.2089 -0.3970
 1288SOL    HW2 4764   1.955   7.041   5.521 -0.4743 -0.4520 -1.3012
 1289SOL     OW 4765   3.693   2.487   1.637 -0.1547  0.5303 -0.5237
 1289SOL    HW1 4766   3.629   2.435   1.581 -0.8123  2.1998 -1.3716
 1289SOL    HW2 4767   3.706   2.440   1.725 -2.7475  0.2756 -0.2114
 1290SOL     OW 4768   0.023   4.266   2.109  0.1052 -0.1099  0.7416
 1290SOL    HW1 4769  -0.006   4.353   2.068  0.5525  1.0485  2.7801
 1290SOL    HW2 4770   0.016   4.272   2.208 -0.9774 -2.8370  0.9131
 1291SOL     OW 4771   6.656   2.218   2.162  0.4970  0.3270  0.6534
 1291SOL    HW1 4772   6.572   2.267   2.137  0.1789 -1.0542 -1.1339
 1291SOL    HW2 4773   6.646   2.181   2.254 -1.1454 -0.3443  0.2447
 1292SOL     OW 4774   3.993   3.863   0.045  0.4435 -0.1233  0.5340
 1292SOL    HW1 4775   3.967   3.881  -0.050 -0.5798 -0.5233  0.7226
 1292SOL    HW2 4776   3.936   3.790   0.082  1.6871 -0.8597  1.0794
 1293SOL     OW 4777   0.213   5.110   6.056 -0.2694 -0.0476 -0.6423
 1293SOL    HW1 4778   0.275   5.189   6.060  0.8069 -0.9086  0.5099
 1293SOL    HW2 4779   0.119   5.142   6.063  0.0451  1.2426 -1.6979
 1294SOL     OW 4780   4.781   1.765   6.534  0.2456 -0.6135  0.0214
 1294SOL    HW1 4781   4.763   1.831   6.606  2.8412  0.1831  0.0471
 1294SOL    HW2 4782   4.879   1.760   6.517 -0.2185 -0.9484 -3.3205
 1295SOL     OW 4783   4.379   4.207   6.518 -0.1252 -0.0722 -0.0738
 1295SOL    HW1 4784   4.374   4.146   6.597  0.1220 -1.6900 -1.2463
 1295SOL    HW2 4785   4.454   4.272   6.531  0.3490 -0.7580  0.7447
 1296SOL     OW 4786   4.300   3.393   1.234  0.0489  0.1467  0.0731
 1296SOL    HW1 4787   4.301   3.408   1.333  1.2577  0.4202  0.0358
 1296SOL    HW2 4788   4.374   3.329   1.210  0.3628  0.8052 -0.7525
 1297SOL     OW 4789   5.238   4.073   4.784 -0.3829 -0.7394  0.2661
 1297SOL    HW1 4790   5.221   3.978   4.810  1.1446 -1.4120 -0.9624
 1297SOL    HW2 4791   5.310   4.111   4.843 -1.4506 -0.0934  1.1894
 1298SOL     OW 4792   1.244   4.182   2.277 -0.2238  0.3866 -0.1880
 1298SOL    HW1 4793   1.288   4.267   2.306 -0.1861  0.0829  0.6585
 1298SOL    HW2 4794   1.230   4.185   2.178 -0.5457  1.5371 -0.1350
 1299SOL     OW 4795   5.983   3.494   6.566 -0.0930 -0.0002 -0.0436
 1299SOL    HW1 4796   5.952   3.548   6.488 -0.9257 -0.2507  0.1068
 1299SOL    HW2 4797   5.951   3.536   6.651  0.5171  0.0834  0.1467
 1300SOL     OW 4798   1.596   2.919   2.476  0.2063 -0.2558  0.0564
 1300SOL    HW1 4799   1.554   2.839   2.432 -1.6191  1.9651 -2.5977
 1300SOL    HW2 4800   1.541   2.946   2.555  0.3622 -1.1039  0.4680
 1301SOL     OW 4801   3.864   5.620   5.887  1.0087 -0.2006  0.0235
 1301SOL    HW1 4802   3.901   5.539   5.841  0.5945 -1.2929  1.5392
 1301SOL    HW2 4803   3.937   5.686   5.900  1.9104 -1.3017  0.7957
 1302SOL     OW 4804   4.602   2.599   2.621  0.6042 -0.1208 -0.8874
 1302SOL    HW1 4805   4.609   2.655   2.704 -1.9292  1.7377 -1.8093
 1302SOL    HW2 4806   4.666   2.635   2.553  0.8574 -0.0215 -0.6043
 1303SOL     OW 4807   1.258   0.227   1.209 -0.5553 -0.1765 -0.2084
 1303SOL    HW1 4808   1.186   0.185   1.265  0.5899 -0.5621  1.0307
 1303SOL    HW2 4809   1.281   0.317   1.247  0.2302 -0.4381 -0.0439
 1304SOL     OW 4810   4.618   6.149   0.808  0.2295 -0.4657  0.3392
 1304SOL    HW1 4811   4.636   6.231   0.864  0.7878 -0.7958  0.6548
 1304SOL    HW2 4812   4.577   6.079   0.865 -0.8889 -0.1734 -0.0902
 1305SOL     OW 4813   1.459   3.800   4.828 -0.6059  0.2653  0.4143
 1305SOL    HW1 4814   1.541   3.857   4.824 -1.1741  1.0455 -1.0583
 1305SOL    HW2 4815   1.467   3.725   4.761 -0.1062 -1.0918  1.9369
 1306SOL     OW 4816   0.100   3.481   4.018 -0.0830  0.9914 -0.1560
 1306SOL    HW1 4817   0.051   3.507   4.101 -0.9697  0.8052 -0.6139
 1306SOL    HW2 4818   0.035   3.457   3.946  0.6785  0.2352 -0.6222
 1307SOL     OW 4819   0.892   4.754   1.805 -0.7714 -0.2265 -0.5596
 1307SOL    HW1 4820   0.984   4.740   1.767 -0.4045 -0.2956  0.3435
 1307SOL    HW2 4821   0.832   4.681   1.773 -0.5132 -0.1975 -1.1347
 1308SOL     OW 4822   1.306   2.156   2.267 -0.4779 -0.1806  0.7802
 1308SOL    HW1 4823   1.233   2.224   2.260 -1.2336 -0.9855  0.6658
 1308SOL    HW2 4824   1.283   2.076   2.212  1.1073  0.0646 -0.2984
 1309SOL     OW 4825   5.308   5.328   5.606  0.2676  0.1338 -0.2808
 1309SOL    HW1 4826   5.306   5.228   5.608 -0.9701 -0.0013  4.1784
 1309SOL    HW2 4827   5.214   5.363   5.605  0.6789  1.2622 -1.0222
 1310SOL     OW 4828   1.592   2.715   5.978  0.6500  0.2256 -0.6273
 1310SOL    HW1 4829   1.661   2.643   5.993  1.9088  1.6832  0.9682
 1310SOL    HW2 4830   1.609   2.791   6.041 -1.0979  1.6212 -1.7547
 1311SOL     OW 4831   0.995   0.428   0.408  0.0974 -0.2748 -0.0491
 1311SOL    HW1 4832   1.091   0.436   0.381 -0.4210  0.5008 -1.8046
 1311SOL    HW2 4833   0.973   0.331   0.420  0.7717 -0.5602 -0.9690
 1312SOL     OW 4834   1.858   5.213   4.128 -0.2124  0.2870  0.4331
 1312SOL    HW1 4835   1.842   5.185   4.223 -0.7227  0.1736  0.3169
 1312SOL    HW2 4836   1.777   5.258   4.092  1.0353  3.2727  1.0601
 1313SOL     OW 4837   0.957   2.940   6.966 -0.6218  0.6792  0.7934
 1313SOL    HW1 4838   1.044   2.957   7.012  0.1506  0.2604 -0.4670
 1313SOL    HW2 4839   0.941   2.842   6.960 -1.0799  0.7497  0.8347
 1314SOL     OW 4840   3.291   6.891   2.104 -0.0377 -0.3574 -0.1329
 1314SOL    HW1 4841   3.207   6.945   2.110  0.0476 -0.2795  0.4549
 1314SOL    HW2 4842   3.298   6.831   2.183  0.3810 -0.4827 -0.2608
 1315SOL     OW 4843   1.684   1.718   3.549  0.5610 -0.0300 -0.5719
 1315SOL    HW1 4844   1.600   1.762   3.517 -0.2431 -0.3260  1.0251
 1315SOL    HW2 4845   1.747   1.787   3.585  0.8975  0.1617 -1.5002
 1316SOL     OW 4846   2.938   2.241   5.876 -0.0352 -0.6398  0.7288
 1316SOL    HW1 4847   3.005   2.314   5.889  0.2136 -0.3789 -1.5695
 1316SOL    HW2 4848   2.863   2.275   5.819  1.4832 -2.8254 -2.9460
 1317SOL     OW 4849   3.995   3.125   3.742 -0.0529  0.0380 -0.0107
 1317SOL    HW1 4850   4.015   3.090   3.834  0.7469  0.1032 -0.1550
 1317SOL    HW2 4851   4.033   3.217   3.733 -0.7941  0.3373 -0.1594
 1318SOL     OW 4852   6.244   5.750   3.018  0.1789 -0.6155 -0.0542
 1318SOL    HW1 4853   6.263   5.652   3.013  0.6250 -0.4743 -1.5719
 1318SOL    HW2 4854   6.305   5.792   3.086  0.4398 -1.2825  0.1343
 1319SOL     OW 4855   6.927   2.268   2.216 -0.5737 -1.0284  0.1324
 1319SOL    HW1 4856   6.830   2.264   2.193 -0.4958 -2.7617  0.0066
 1319SOL    HW2 4857   6.961   2.177   2.237  1.2909 -0.6498 -0.9334
 1320SOL     OW 4858   5.960   1.425   6.675  0.1938  0.0403  0.1473
 1320SOL    HW1 4859   5.946   1.508   6.620 -1.0837 -0.2473  0.0099
 1320SOL    HW2 4860   6.029   1.368   6.632  1.7783  1.4353  0.7190
 1321SOL     OW 4861   1.690   0.767   4.321  0.0001  0.3555 -0.3093
 1321SOL    HW1 4862   1.746   0.841   4.284 -0.3190  1.3675  1.1350
 1321SOL    HW2 4863   1.665   0.704   4.248  0.7608  1.3572 -1.4710
 1322SOL     OW 4864   4.085   0.262   4.419 -0.1315 -0.1017 -0.2551
 1322SOL    HW1 4865   4.108   0.299   4.510 -0.6403 -0.1096 -0.1187
 1322SOL    HW2 4866   4.076   0.338   4.354  1.7413 -0.1914 -0.6636
 1323SOL     OW 4867   1.906   0.633   1.265 -0.4159  0.0489  0.4325
 1323SOL    HW1 4868   1.994   0.659   1.304  1.7647 -0.9605 -3.2421
 1323SOL    HW2 4869   1.859   0.714   1.229 -0.4330  0.4500  1.3443
 1324SOL     OW 4870   0.221   3.128   1.907  0.4200 -0.3362 -0.5645
 1324SOL    HW1 4871   0.211   3.178   1.821 -0.3259 -1.6115 -1.2669
 1324SOL    HW2 4872   0.154   3.053   1.909 -0.4336  0.3960  1.6805
 1325SOL     OW 4873   2.006   1.634   1.091  0.2155 -0.2074  0.0171
 1325SOL    HW1 4874   1.966   1.555   1.138 -0.4151 -0.5866 -1.1236
 1325SOL    HW2 4875   2.050   1.694   1.158  1.6087 -2.0258  0.8251
 1326SOL     OW 4876   6.464   6.070   4.789 -0.0891  0.4509 -0.0382
 1326SOL    HW1 4877   6.376   6.023   4.779  0.3426 -0.2269 -0.7334
 1326SOL    HW2 4878   6.523   6.018   4.850 -0.3867  1.2427  0.9569
 1327SOL     OW 4879   3.870   5.253   2.443  0.1290 -0.0589  0.6625
 1327SOL    HW1 4880   3.851   5.350   2.433 -0.4241 -0.0986  1.2820
 1327SOL    HW2 4881   3.949   5.240   2.503 -0.3702 -0.0111  1.3445
 1328SOL     OW 4882   3.340   3.777   4.129  0.0074  0.5820  0.6122
 1328SOL    HW1 4883   3.261   3.719   4.111 -1.1446  1.8765  1.2963
 1328SOL    HW2 4884   3.383   3.748   4.215  0.1619  0.0064  0.3447
 1329SOL     OW 4885   3.789   6.350   1.903 -0.0779 -0.3665  0.3066
 1329SOL    HW1 4886   3.806   6.421   1.970 -1.6974 -0.9589  1.4148
 1329SOL    HW2 4887   3.709   6.373   1.848  0.6932 -0.3168 -0.8386
 1330SOL     OW 4888   6.349   3.960   5.427  0.2997  0.0783 -0.3821
 1330SOL    HW1 4889   6.439   3.933   5.459  0.1728 -1.0215 -0.8993
 1330SOL    HW2 4890   6.328   3.912   5.342  1.4775  4.3100 -3.4219
 1331SOL     OW 4891   2.554   6.068   0.522  0.2732  0.1151  0.3442
 1331SOL    HW1 4892   2.637   6.114   0.489  0.7171  0.9369  2.4695
 1331SOL    HW2 4893   2.517   6.011   0.448  2.6369 -0.1769 -0.7378
 1332SOL     OW 4894   0.399   0.731   6.468  0.2268 -0.0364  0.0453
 1332SOL    HW1 4895   0.335   0.792   6.514  0.4233  0.4285 -0.2847
 1332SOL    HW2 4896   0.356   0.642   6.453 -1.4637  1.1459 -2.8572
 1333SOL     OW 4897   4.334   5.141   6.906 -0.5031  0.2428 -0.0245
 1333SOL    HW1 4898   4.338   5.115   6.809  1.4440  0.7656 -0.1136
 1333SOL    HW2 4899   4.374   5.068   6.962 -0.8100  0.3286  0.3124
 1334SOL     OW 4900   6.921   1.067   0.318 -0.0098  0.0655 -0.0251
 1334SOL    HW1 4901   6.902   1.160   0.289 -1.3933  0.1669  1.0884
 1334SOL    HW2 4902   7.015   1.062   0.354  0.3242  0.8426 -0.7636
 1335SOL     OW 4903   3.911   3.405   0.885  0.2315 -0.5352 -0.0551
 1335SOL    HW1 4904   3.993   3.462   0.886 -0.2735  0.2882 -1.4275
 1335SOL    HW2 4905   3.935   3.310   0.905  1.5407 -0.3208 -0.5319
 1336SOL     OW 4906   1.158   1.773   4.951  0.3830 -0.1060  0.2903
 1336SOL    HW1 4907   1.244   1.822   4.946  0.6568 -0.6483 -0.5638
 1336SOL    HW2 4908   1.174   1.681   4.985  0.2868 -0.4955 -0.6732
 1337SOL     OW 4909   1.884   5.078   5.689 -0.3004 -0.0430  0.2733
 1337SOL    HW1 4910   1.983   5.091   5.683 -0.5777  3.0237  0.7827
 1337SOL    HW2 4911   1.863   5.017   5.765  1.1824 -0.3701  0.4473
 1338SOL     OW 4912   1.606   0.741   6.374  0.1257 -0.1601  0.1636
 1338SOL    HW1 4913   1.668   0.816   6.396 -1.1255  1.0248 -0.1752
 1338SOL    HW2 4914   1.563   0.708   6.458 -0.9473  1.0034  0.0924
 1339SOL     OW 4915   2.569   0.128   6.843  0.8161 -0.0153  0.2353
 1339SOL    HW1 4916   2.648   0.112   6.783  1.9362  1.7356  1.1502
 1339SOL    HW2 4917   2.516   0.204   6.807 -0.1287 -0.7738 -0.0184
 1340SOL     OW 4918   3.724   3.576   1.886 -0.0884  0.0041 -0.1872
 1340SOL    HW1 4919   3.728   3.673   1.906 -4.0764  0.1820  0.5292
 1340SOL    HW2 4920   3.734   3.524   1.971  1.0145 -0.2060 -0.4290
 1341SOL     OW 4921   3.610   6.239   4.183 -0.7948  0.5947 -0.0707
 1341SOL    HW1 4922   3.658   6.183   4.115  1.7979  1.0348  1.2475
 1341SOL    HW2 4923   3.528   6.191   4.213 -0.2183 -1.1577 -1.0887
 1342SOL     OW 4924   6.253   4.832   3.442 -0.0534 -0.6592  0.1330
 1342SOL    HW1 4925   6.332   4.827   3.381  1.7209  1.3725  2.1129
 1342SOL    HW2 4926   6.218   4.926   3.444 -0.1949 -0.7157  2.0413
 1343SOL     OW 4927   4.819   6.551   2.891 -0.3550  0.5629  0.0481
 1343SOL    HW1 4928   4.863   6.506   2.969 -2.1187  1.4382  1.6324
 1343SOL    HW2 4929   4.795   6.482   2.822  2.8287 -0.0131 -0.6469
 1344SOL     OW 4930   2.265   3.641   5.849  0.6318 -0.3646  0.5538
 1344SOL    HW1 4931   2.322   3.568   5.888 -0.1316 -1.1083  0.2861
 1344SOL    HW2 4932   2.316   3.727   5.851  0.8419 -0.4735  2.7157
 1345SOL     OW 4933   0.592   4.243   3.936  0.2609  0.3041  0.1859
 1345SOL    HW1 4934   0.521   4.208   3.996  1.3287 -0.8856  0.8064
 1345SOL    HW2 4935   0.580   4.204   3.845 -0.1033  0.4300  0.1763
 1346SOL     OW 4936   3.079   1.897   5.147  0.3154  0.2210 -0.1527
 1346SOL    HW1 4937   3.152   1.866   5.087  1.1612  0.3537  0.7899
 1346SOL    HW2 4938   3.004   1.830   5.145  1.1206 -0.7081  0.0672
 1347SOL     OW 4939   4.381   5.304   1.385  0.2535 -0.4321  0.0934
 1347SOL    HW1 4940   4.283   5.312   1.400  0.0007 -1.2263 -1.0360
 1347SOL    HW2 4941   4.399   5.286   1.289  1.6121  1.2733 -0.0196
 1348SOL     OW 4942   2.370   5.685   1.360  0.6106 -0.0484 -0.4346
 1348SOL    HW1 4943   2.461   5.652   1.383  1.5891  0.4505 -3.2259
 1348SOL    HW2 4944   2.306   5.661   1.434  2.7676 -1.2353  1.1614
 1349SOL     OW 4945   6.037   3.291   1.094  0.4002  0.2627 -0.1199
 1349SOL    HW1 4946   6.085   3.372   1.129  0.9920  0.5106 -1.4488
 1349SOL    HW2 4947   5.968   3.262   1.160  1.8671  0.3477  1.5401
 1350SOL     OW 4948   6.689   1.986   6.558 -0.3569 -0.1796 -0.0125
 1350SOL    HW1 4949   6.745   2.067   6.576 -2.3290  1.3966 -0.6121
 1350SOL    HW2 4950   6.746   1.915   6.517  1.4836  0.8068  0.7090
 1351SOL     OW 4951   0.412   5.084   2.622 -0.4859 -0.1395  0.1862
 1351SOL    HW1 4952   0.471   5.003   2.623 -0.1101  0.0520 -1.9090
 1351SOL    HW2 4953   0.430   5.137   2.539 -1.0142  1.9003  1.3127
 1352SOL     OW 4954   0.962   2.457   1.277  0.6430 -0.2908  0.1213
 1352SOL    HW1 4955   1.030   2.527   1.256  0.8424 -0.4893  0.0928
 1352SOL    HW2 4956   0.980   2.419   1.368 -0.4451  0.8328  0.8308
 1353SOL     OW 4957   5.209   1.563   1.509 -0.2447  0.2024 -0.3669
 1353SOL    HW1 4958   5.123   1.533   1.548  0.9803 -1.9554  0.8887
 1353SOL    HW2 4959   5.202   1.564   1.409 -2.1361  1.6391 -0.2802
 1354SOL     OW 4960   4.435   6.314   3.215  0.5020  0.8178 -0.4700
 1354SOL    HW1 4961   4.519   6.277   3.254  0.6291 -0.7287 -2.0896
 1354SOL    HW2 4962   4.356   6.274   3.261  0.6355  1.2704  0.1666
 1355SOL     OW 4963   4.392   1.836   2.649 -0.2558 -0.0264 -0.6368
 1355SOL    HW1 4964   4.479   1.830   2.697 -0.3980  0.6913 -0.2797
 1355SOL    HW2 4965   4.399   1.902   2.574  0.5444 -2.4925 -2.8883
 1356SOL     OW 4966   5.172   6.772   5.263  0.2893 -0.2560 -0.3754
 1356SOL    HW1 4967   5.150   6.701   5.197  0.3981 -0.0202 -0.6701
 1356SOL    HW2 4968   5.271   6.781   5.270  0.4693 -2.8448  2.5727
 1357SOL     OW 4969   1.308   1.125   5.033  0.7941 -0.6258 -0.1531
 1357SOL    HW1 4970   1.312   1.037   4.985  1.6834 -1.2546  1.0444
 1357SOL    HW2 4971   1.340   1.114   5.127 -0.1200  0.7629  0.3531
 1358SOL     OW 4972   3.192   6.980   5.756 -0.2159  0.2399 -0.2743
 1358SOL    HW1 4973   3.204   7.028   5.669 -1.9067 -0.7721 -1.1216
 1358SOL    HW2 4974   3.098   6.990   5.788 -0.3022 -1.4477  0.1296
 1359SOL     OW 4975   1.232   6.264   1.555  0.4842 -0.1749 -0.4537
 1359SOL    HW1 4976   1.182   6.348   1.578  0.2232 -0.5220  0.2706
 1359SOL    HW2 4977   1.173   6.185   1.572  0.1845 -0.4628 -2.5473
 1360SOL     OW 4978   6.701   2.229   3.542  0.0619 -0.3006 -0.2032
 1360SOL    HW1 4979   6.640   2.306   3.529  0.7792  0.1347 -1.0994
 1360SOL    HW2 4980   6.665   2.149   3.494 -0.4137 -0.3803  0.2847
 1361SOL     OW 4981   4.030   0.677   4.062  0.6987 -0.0193 -0.6707
 1361SOL    HW1 4982   4.021   0.675   3.963  0.9358  2.1034 -0.7888
 1361SOL    HW2 4983   3.994   0.764   4.097  0.8868 -0.5985  1.0796
 1362SOL     OW 4984   3.502   5.722   2.708  0.6107  0.8467 -0.1247
 1362SOL    HW1 4985   3.461   5.766   2.788  1.1768  0.0206  0.6384
 1362SOL    HW2 4986   3.594   5.756   2.694  0.7155  0.5859 -0.0837
 1363SOL     OW 4987   5.246   3.211   2.288 -0.6402 -0.3524  0.0028
 1363SOL    HW1 4988   5.222   3.189   2.193  1.3098 -0.0255 -0.6248
 1363SOL    HW2 4989   5.206   3.299   2.313  0.9179  0.8380 -1.4553
 1364SOL     OW 4990   3.473   5.193   1.649 -0.4615  0.3922  0.1480
 1364SOL    HW1 4991   3.513   5.119   1.594 -0.7868  0.7135 -0.5280
 1364SOL    HW2 4992   3.546   5.246   1.692 -0.1978  0.3494 -0.2473
 1365SOL     OW 4993   4.430   6.062   3.491  0.1360 -0.0933  0.2693
 1365SOL    HW1 4994   4.386   6.117   3.561 -0.4235 -0.6568  0.3650
 1365SOL    HW2 4995   4.440   5.968   3.524 -1.4698 -0.7302 -0.9474
 1366SOL     OW 4996   4.761   1.889   6.779 -0.0978 -0.1589 -0.1786
 1366SOL    HW1 4997   4.835   1.837   6.822 -0.8401 -0.6110  0.5999
 1366SOL    HW2 4998   4.681   1.889   6.840 -0.1218  1.9439 -0.1372
 1367SOL     OW 4999   0.963   3.223   0.189  0.3264 -0.0379  0.4173
 1367SOL    HW1 5000   0.880   3.279   0.188  1.0128  1.0275  1.2623
 1367SOL    HW2 5001   0.942   3.132   0.152 -1.2135  0.1980  0.6390
 1368SOL     OW 5002   6.794   2.068   6.933 -0.1795 -0.0117 -0.1198
 1368SOL    HW1 5003   6.738   2.018   6.999 -0.0381  1.9347  1.5778
 1368SOL    HW2 5004   6.832   2.004   6.866 -4.2441 -1.4706 -1.3193
 1369SOL     OW 5005   1.081   4.916   5.176 -0.1827  0.3838 -0.1111
 1369SOL    HW1 5006   1.094   4.961   5.264 -0.3532  2.4247 -1.0649
 1369SOL    HW2 5007   1.057   4.819   5.190 -1.0442  0.8640  2.0823
 1370SOL     OW 5008   2.790   6.653   0.344 -0.1698 -0.1625 -0.7517
 1370SOL    HW1 5009   2.721   6.646   0.272 -0.9151  0.6708 -0.1388
 1370SOL    HW2 5010   2.806   6.749   0.366  0.8103 -0.3693 -0.5197
 1371SOL     OW 5011   6.832   5.428   3.312  0.3099  0.1274  0.0755
 1371SOL    HW1 5012   6.761   5.403   3.379 -0.3919  1.3048 -0.2082
 1371SOL    HW2 5013   6.872   5.344   3.275 -1.9150 -0.6420 -0.7907
 1372SOL     OW 5014   2.458   5.146   2.821 -0.2552 -0.4548 -0.4692
 1372SOL    HW1 5015   2.441   5.242   2.798  0.3638 -0.3870 -0.6632
 1372SOL    HW2 5016   2.377   5.092   2.798 -0.8974  0.1313  0.3657
 1373SOL     OW 5017   5.701   6.254   1.512  0.1535  0.0061 -0.2163
 1373SOL    HW1 5018   5.696   6.333   1.452  0.7458  0.5301  0.4150
 1373SOL    HW2 5019   5.612   6.208   1.515 -0.3647  1.0054 -0.1071
 1374SOL     OW 5020   0.553   6.571   1.839  0.0683  0.2297 -0.1615
 1374SOL    HW1 5021   0.625   6.503   1.830  0.9664  1.1944 -0.5256
 1374SOL    HW2 5022   0.590   6.662   1.816 -1.1999  0.7771 -0.1259
 1375SOL     OW 5023   6.997   2.469   2.670  0.0467 -0.2135 -0.5783
 1375SOL    HW1 5024   6.909   2.508   2.698 -0.1147 -1.7508  1.3511
 1375SOL    HW2 5025   7.056   2.541   2.635 -1.6479  1.0086 -1.0441
 1376SOL     OW 5026   2.380   6.538   0.213  0.2848  0.0508  0.2793
 1376SOL    HW1 5027   2.374   6.482   0.130  0.7951 -0.6927  0.7337
 1376SOL    HW2 5028   2.323   6.497   0.284 -0.6397  1.0215  0.1318
 1377SOL     OW 5029   4.441   4.860   0.466  0.1302  0.2928  0.4139
 1377SOL    HW1 5030   4.389   4.945   0.473 -1.1563 -0.0032 -3.3740
 1377SOL    HW2 5031   4.384   4.783   0.496 -1.5662  0.0723 -2.9156
 1378SOL     OW 5032   6.697   0.989   0.557  0.4423  0.5638 -0.1968
 1378SOL    HW1 5033   6.614   0.937   0.539  0.2187  1.0982 -0.7538
 1378SOL    HW2 5034   6.751   0.943   0.627  0.5623 -0.7617 -1.1258
 1379SOL     OW 5035   4.784   1.347   1.781  0.2948 -0.2223  0.5025
 1379SOL    HW1 5036   4.730   1.289   1.720 -0.7480  1.1319  0.0995
 1379SOL    HW2 5037   4.814   1.293   1.860 -1.8383 -0.9842  0.8508
 1380SOL     OW 5038   6.745   3.182   5.064  0.4004 -0.3287 -0.2884
 1380SOL    HW1 5039   6.778   3.245   4.993  0.7453 -2.2343 -1.9436
 1380SOL    HW2 5040   6.659   3.140   5.034 -0.1636 -0.1736  1.0676
 1381SOL     OW 5041   6.048   0.543   1.921  1.0131 -0.1747 -0.2371
 1381SOL    HW1 5042   5.970   0.484   1.899 -0.6760  2.1917 -0.9158
 1381SOL    HW2 5043   6.131   0.504   1.880 -0.0236 -2.0063 -0.7289
 1382SOL     OW 5044   2.804   1.840   4.946  0.1359 -0.7599 -0.2338
 1382SOL    HW1 5045   2.774   1.750   4.978 -0.2814 -0.6360 -0.2763
 1382SOL    HW2 5046   2.759   1.862   4.859  1.8178 -1.4150 -1.3128
 1383SOL     OW 5047   2.765   2.724   0.523 -0.4105  0.3409  0.4784
 1383SOL    HW1 5048   2.684   2.668   0.544 -0.4207  1.0206  2.4488
 1383SOL    HW2 5049   2.842   2.692   0.578  0.2057  0.7930 -0.1147
 1384SOL     OW 5050   5.954   1.962   4.446 -0.3940  0.1684 -0.5130
 1384SOL    HW1 5051   5.888   2.030   4.413  1.2493  3.0434  1.6206
 1384SOL    HW2 5052   6.011   1.932   4.370 -1.2622  1.0889 -1.5671
 1385SOL     OW 5053   3.176   2.786   6.674  0.3716  0.1102 -0.2273
 1385SOL    HW1 5054   3.233   2.784   6.756 -0.0067  0.9940  0.0600
 1385SOL    HW2 5055   3.126   2.699   6.666 -0.0123  0.2340  0.7738
 1386SOL     OW 5056   3.215   5.755   3.390 -0.5401 -0.1306 -0.7110
 1386SOL    HW1 5057   3.268   5.697   3.328  0.2873 -0.5962  0.3941
 1386SOL    HW2 5058   3.242   5.736   3.484  0.3523  2.6506 -0.3281
 1387SOL     OW 5059   0.565   1.886   0.150 -0.0117 -0.0720  0.5367
 1387SOL    HW1 5060   0.539   1.852   0.059  1.4505 -3.6398  1.2738
 1387SOL    HW2 5061   0.535   1.820   0.219 -0.0816  1.9922  2.5771
 1388SOL     OW 5062   5.229   2.983   3.988  0.8245  0.2323 -0.2710
 1388SOL    HW1 5063   5.241   3.077   3.958 -0.6813  0.4466 -0.2929
 1388SOL    HW2 5064   5.160   2.979   4.060 -0.0827 -0.9697 -1.1476
 1389SOL     OW 5065   4.170   3.308   5.722 -0.1929  0.0423 -0.3119
 1389SOL    HW1 5066   4.222   3.233   5.680  3.3194  0.7261  2.3490
 1389SOL    HW2 5067   4.170   3.387   5.661  0.3204 -0.5675 -1.1252
 1390SOL     OW 5068   6.232   6.773   3.460 -0.3503  0.2949  0.7304
 1390SOL    HW1 5069   6.222   6.762   3.361  0.8131  0.5391  0.5690
 1390SOL    HW2 5070   6.208   6.867   3.485  1.0600  0.7680  0.4032
 1391SOL     OW 5071   5.939   1.627   6.444  0.0060 -0.6603 -0.3096
 1391SOL    HW1 5072   5.998   1.619   6.364  3.5867  0.6112  1.9840
 1391SOL    HW2 5073   5.889   1.714   6.440  1.4629  0.2084 -0.4459
 1392SOL     OW 5074   3.551   3.931   1.014 -0.1359  0.1942  0.4981
 1392SOL    HW1 5075   3.575   3.835   1.024  0.9453  0.5116  1.1126
 1392SOL    HW2 5076   3.599   3.985   1.084  0.4462  1.3678 -0.7689
 1393SOL     OW 5077   5.589   5.839   1.734 -0.0546  0.4096  0.2314
 1393SOL    HW1 5078   5.638   5.893   1.802 -1.1115 -0.2972  1.6166
 1393SOL    HW2 5079   5.589   5.743   1.762 -1.4271  0.2601 -0.2008
 1394SOL     OW 5080   2.564   5.625   0.506 -0.0772  0.2108  0.1787
 1394SOL    HW1 5081   2.501   5.568   0.558 -0.1348 -0.6174 -0.7641
 1394SOL    HW2 5082   2.657   5.589   0.515 -0.4427 -1.7550 -2.5402
 1395SOL     OW 5083   1.066   3.889   1.873  0.4477  0.2063  0.3311
 1395SOL    HW1 5084   1.066   3.843   1.785 -0.4950 -0.0308  0.4453
 1395SOL    HW2 5085   1.139   3.852   1.930 -1.4651 -2.6652  1.1584
 1396SOL     OW 5086   3.255   4.148   4.357  0.1659  0.3371 -0.6768
 1396SOL    HW1 5087   3.194   4.225   4.375  0.2993  0.2492  0.2321
 1396SOL    HW2 5088   3.201   4.064   4.348  0.0425  0.4914 -1.3702
 1397SOL     OW 5089   4.697   0.923   2.018  0.2176 -0.6591  0.7879
 1397SOL    HW1 5090   4.780   0.929   1.963  0.2936 -0.4647  0.9242
 1397SOL    HW2 5091   4.617   0.941   1.961  0.4006  1.2291  1.0894
 1398SOL     OW 5092   4.599   3.118   0.565 -0.0052  0.0225 -0.3714
 1398SOL    HW1 5093   4.658   3.179   0.618 -0.1077  0.3256 -0.6078
 1398SOL    HW2 5094   4.523   3.170   0.526 -0.1677 -0.2799 -0.4628
 1399SOL     OW 5095   2.265   4.440   6.748 -0.0116  0.9144  0.0461
 1399SOL    HW1 5096   2.350   4.492   6.759 -0.3706  2.0116 -1.9182
 1399SOL    HW2 5097   2.188   4.503   6.752 -0.6160  0.1817  0.0077
 1400SOL     OW 5098   6.919   0.330   5.216  0.3056  0.2514 -0.1674
 1400SOL    HW1 5099   6.931   0.337   5.117  0.6159  0.1445 -0.1368
 1400SOL    HW2 5100   6.840   0.272   5.235  2.3768 -2.8453 -0.3186
 1401SOL     OW 5101   6.116   6.482   6.338  0.3744  0.0264  0.2886
 1401SOL    HW1 5102   6.062   6.398   6.344  0.4719 -0.2416 -1.9019
 1401SOL    HW2 5103   6.078   6.550   6.400 -1.7718 -0.5453 -0.3160
 1402SOL     OW 5104   1.430   3.920   4.504  0.2899 -1.0899  0.3729
 1402SOL    HW1 5105   1.410   3.986   4.577  1.9356 -0.2259  0.0753
 1402SOL    HW2 5106   1.424   3.966   4.415  0.7856 -1.5040  0.1190
 1403SOL     OW 5107   1.642   6.394   5.284 -0.3279  0.5765 -0.3373
 1403SOL    HW1 5108   1.633   6.361   5.190 -1.0176  0.8911 -0.3896
 1403SOL    HW2 5109   1.606   6.487   5.290  1.6475  1.3958 -0.2198
 1404SOL     OW 5110   5.323   2.309   0.367 -0.0299  0.4750 -0.3101
 1404SOL    HW1 5111   5.229   2.277   0.369  0.2874 -0.6123 -1.5467
 1404SOL    HW2 5112   5.380   2.251   0.426  0.0933  0.3108 -0.5871
 1405SOL     OW 5113   6.334   5.732   0.997  0.1701 -0.4445 -0.1562
 1405SOL    HW1 5114   6.367   5.683   1.078  0.5732  0.2281  0.1005
 1405SOL    HW2 5115   6.238   5.755   1.009 -0.7655 -3.2561 -1.3120
 1406SOL     OW 5116   3.228   4.290   5.437 -0.3202  0.5777  0.1585
 1406SOL    HW1 5117   3.139   4.290   5.390 -0.0903 -0.6957 -0.3086
 1406SOL    HW2 5118   3.240   4.377   5.485 -1.3578  1.1925 -0.6505
 1407SOL     OW 5119   0.498   1.267   0.972 -0.5047 -0.0115 -0.3845
 1407SOL    HW1 5120   0.464   1.347   0.921  1.3498 -0.1993 -2.0149
 1407SOL    HW2 5121   0.545   1.298   1.055 -1.6562  0.4313  0.1231
 1408SOL     OW 5122   1.895   4.431   2.612 -0.5049  0.1074  0.1743
 1408SOL    HW1 5123   1.878   4.483   2.528 -1.3511  0.0719  0.3156
 1408SOL    HW2 5124   1.888   4.333   2.592 -0.3781  0.0883  0.2214
 1409SOL     OW 5125   0.599   0.709   5.439 -0.5400 -0.1516 -0.1215
 1409SOL    HW1 5126   0.625   0.663   5.355 -1.1178  1.0985 -1.0148
 1409SOL    HW2 5127   0.635   0.802   5.439  1.6967 -0.9019  2.2052
 1410SOL     OW 5128   3.982   1.671   6.040 -0.3688  0.2834  0.3919
 1410SOL    HW1 5129   4.045   1.738   6.079 -0.9349  0.5333  0.8868
 1410SOL    HW2 5130   4.034   1.605   5.986  0.4848 -0.3087  1.8835
 1411SOL     OW 5131   4.302   5.914   2.307  0.0308 -0.0096  0.6157
 1411SOL    HW1 5132   4.380   5.881   2.361  0.7933 -0.2239 -0.5953
 1411SOL    HW2 5133   4.221   5.921   2.367  1.2560  1.4871  2.2208
 1412SOL     OW 5134   1.730   1.953   2.510  0.1345  0.0432 -0.2272
 1412SOL    HW1 5135   1.762   1.914   2.597  0.4398 -0.9397 -0.7600
 1412SOL    HW2 5136   1.763   1.896   2.435 -1.3741  0.0308 -0.9100
 1413SOL     OW 5137   1.985   2.037   4.094 -0.0168  0.3693 -0.1700
 1413SOL    HW1 5138   1.917   2.041   4.166 -0.4922  2.1247 -0.6669
 1413SOL    HW2 5139   1.942   2.059   4.006  0.7584 -0.7103 -0.8573
 1414SOL     OW 5140   0.177   6.434   2.144 -0.3875  0.6435  0.0001
 1414SOL    HW1 5141   0.196   6.405   2.238  0.4092 -0.6340 -0.5238
 1414SOL    HW2 5142   0.261   6.467   2.102 -0.1102 -1.2569 -1.0624
 1415SOL     OW 5143   4.227   3.714   0.669 -0.2352  0.1632  0.1707
 1415SOL    HW1 5144   4.138   3.677   0.643  0.5509 -0.5101 -1.7556
 1415SOL    HW2 5145   4.259   3.778   0.599  0.3016  1.3000  1.4135
 1416SOL     OW 5146   5.576   2.687   5.496  0.6643 -0.6316  0.3911
 1416SOL    HW1 5147   5.490   2.673   5.545  0.3139 -0.6999 -0.2279
 1416SOL    HW2 5148   5.561   2.753   5.422  0.9835 -1.1341 -0.1223
 1417SOL     OW 5149   6.037   2.023   5.856 -0.4384  0.1215 -0.8727
 1417SOL    HW1 5150   6.004   2.072   5.937 -0.9570 -0.1301 -0.9233
 1417SOL    HW2 5151   5.981   2.049   5.777 -0.2168  0.0350 -1.0576
 1418SOL     OW 5152   4.132   6.507   3.092 -0.0662 -0.7287 -0.0490
 1418SOL    HW1 5153   4.039   6.528   3.062 -0.3220 -1.1181  0.4622
 1418SOL    HW2 5154   4.131   6.431   3.156  0.7188 -1.4020 -0.8049
 1419SOL     OW 5155   5.409   1.963   1.669 -0.3017  0.3115  0.5486
 1419SOL    HW1 5156   5.351   1.915   1.603  2.8464 -2.2496 -0.6416
 1419SOL    HW2 5157   5.427   1.904   1.747 -0.7603  1.7910  1.8164
 1420SOL     OW 5158   1.134   5.570   4.837  0.9127  0.3329 -0.4595
 1420SOL    HW1 5159   1.198   5.634   4.880 -0.3318  1.4999 -0.2679
 1420SOL    HW2 5160   1.123   5.594   4.741  0.5983  0.2962 -0.4357
 1421SOL     OW 5161   5.261   6.364   5.401 -0.6453  0.0604  0.4130
 1421SOL    HW1 5162   5.328   6.308   5.449 -1.4359 -0.6042  0.7631
 1421SOL    HW2 5163   5.295   6.386   5.309  0.3853  0.4028  0.8620
 1422SOL     OW 5164   0.765   4.361   4.871  0.3029  0.0788  0.0921
 1422SOL    HW1 5165   0.682   4.309   4.852  0.4922  0.2329 -1.2231
 1422SOL    HW2 5166   0.748   4.458   4.855  0.4144  0.2561  0.9709
 1423SOL     OW 5167   6.456   0.426   3.731  0.5485  1.0251  0.0137
 1423SOL    HW1 5168   6.456   0.400   3.828 -0.9745  1.3432  0.1328
 1423SOL    HW2 5169   6.478   0.347   3.675  0.0243  0.4796  0.5632
 1424SOL     OW 5170   6.090   0.446   6.739  0.4137  0.2161 -0.1529
 1424SOL    HW1 5171   6.014   0.460   6.802  0.0053  1.1640 -0.8399
 1424SOL    HW2 5172   6.078   0.503   6.658  0.6221 -1.3994 -1.3900
 1425SOL     OW 5173   2.715   1.486   6.379 -0.0821 -0.5968  0.4020
 1425SOL    HW1 5174   2.683   1.393   6.398 -0.5355 -0.9025 -1.6237
 1425SOL    HW2 5175   2.637   1.544   6.354  0.3999 -0.1530 -0.1027
 1426SOL     OW 5176   4.080   5.106   5.217  0.2598  0.1802 -0.2470
 1426SOL    HW1 5177   4.160   5.048   5.236  0.6604  0.5040 -0.8903
 1426SOL    HW2 5178   4.060   5.162   5.297 -0.8893 -1.6991  0.8342
 1427SOL     OW 5179   6.444   0.101   0.547  0.1451 -0.0790  0.3623
 1427SOL    HW1 5180   6.539   0.092   0.579  0.3388  0.2425 -0.1018
 1427SOL    HW2 5181   6.385   0.041   0.600  0.9859 -2.2345 -1.0302
 1428SOL     OW 5182   2.174   3.999   5.290 -0.1639  0.0544  0.7135
 1428SOL    HW1 5183   2.096   4.010   5.229 -0.5337 -2.1451  0.7082
 1428SOL    HW2 5184   2.256   3.982   5.236  0.0814  1.0326  0.7630
 1429SOL     OW 5185   6.839   0.787   5.312 -0.0993 -0.2426  0.0258
 1429SOL    HW1 5186   6.858   0.870   5.364 -0.5050 -0.2207  0.1392
 1429SOL    HW2 5187   6.829   0.811   5.215 -0.6669 -0.0908  0.1185
 1430SOL     OW 5188   4.783   4.631   1.917 -0.4468  0.1598  0.3114
 1430SOL    HW1 5189   4.838   4.642   2.000 -0.2238 -0.6800  0.2845
 1430SOL    HW2 5190   4.799   4.540   1.878 -2.4022 -0.4076  0.7101
 1431SOL     OW 5191   0.777   2.254   4.629  0.3242  0.3071  0.0098
 1431SOL    HW1 5192   0.870   2.291   4.628  0.1264  1.0161  2.3172
 1431SOL    HW2 5193   0.728   2.290   4.708 -1.2375 -1.7456  0.0409
 1432SOL     OW 5194   2.169   0.397   1.017  0.2338  0.2671 -0.2798
 1432SOL    HW1 5195   2.077   0.401   1.057  0.3413  0.4580 -0.0531
 1432SOL    HW2 5196   2.199   0.302   1.012  0.9155  0.3478  1.6769
 1433SOL     OW 5197   6.223   1.083   5.922  0.0421 -0.0037  0.2328
 1433SOL    HW1 5198   6.214   1.074   5.823  0.8787 -0.2448  0.1708
 1433SOL    HW2 5199   6.306   1.036   5.952 -2.1247 -3.3950  1.5459
 1434SOL     OW 5200   6.529   1.148   3.177 -0.1349 -0.3315 -0.2344
 1434SOL    HW1 5201   6.433   1.123   3.187 -0.7846  2.0824  0.3282
 1434SOL    HW2 5202   6.580   1.119   3.257 -0.9166  0.4464  0.5648
 1435SOL     OW 5203   5.082   6.447   1.166 -0.7452 -0.1959 -0.2553
 1435SOL    HW1 5204   5.178   6.428   1.144 -0.7336  0.2399 -0.5962
 1435SOL    HW2 5205   5.048   6.520   1.106 -1.6824 -1.2428 -1.0555
 1436SOL     OW 5206   4.436   1.179   6.842  0.2966  0.5286  0.5397
 1436SOL    HW1 5207   4.446   1.080   6.833  1.6236  0.7957 -1.6017
 1436SOL    HW2 5208   4.429   1.220   6.751 -0.7860  2.3762  1.3998
 1437SOL     OW 5209   2.475   6.396   6.710  0.4740 -0.1038 -0.3438
 1437SOL    HW1 5210   2.409   6.468   6.689  0.4659  0.1881  0.6321
 1437SOL    HW2 5211   2.520   6.366   6.626 -0.0885  0.4865 -0.8623
 1438SOL     OW 5212   1.313   5.985   6.314  0.2822  0.7868 -0.5360
 1438SOL    HW1 5213   1.412   5.992   6.302  0.1027  0.9930 -2.0463
 1438SOL    HW2 5214   1.267   6.036   6.241 -0.9430  2.1670  1.1086
 1439SOL     OW 5215   5.218   2.118   6.306 -0.1480 -0.2230  0.2490
 1439SOL    HW1 5216   5.237   2.111   6.404 -0.5275 -0.2406  0.3224
 1439SOL    HW2 5217   5.120   2.131   6.291 -0.0259  0.3713 -0.1001
 1440SOL     OW 5218   3.972   3.052   2.841  0.4980 -0.5476  0.1355
 1440SOL    HW1 5219   3.952   3.111   2.919 -1.6403  0.1530 -0.8487
 1440SOL    HW2 5220   3.953   2.957   2.866 -1.4367 -0.2025  0.1606
 1441SOL     OW 5221   6.914   5.837   3.112  0.0288 -0.3322  0.1929
 1441SOL    HW1 5222   6.937   5.772   3.184  2.1538 -0.3111 -0.3761
 1441SOL    HW2 5223   6.962   5.924   3.129 -0.1010 -0.0475 -0.7908
 1442SOL     OW 5224   3.761   5.584   3.538  0.3322 -0.3299 -0.2967
 1442SOL    HW1 5225   3.822   5.505   3.529  0.9999  0.0943  0.3447
 1442SOL    HW2 5226   3.732   5.615   3.448  0.9040 -0.6721 -0.6022
 1443SOL     OW 5227   0.712   2.218   6.667 -0.3219 -0.5703 -0.8381
 1443SOL    HW1 5228   0.687   2.313   6.686  0.3358 -0.6221  0.3822
 1443SOL    HW2 5229   0.802   2.199   6.705 -0.6359 -1.8058 -0.6587
 1444SOL     OW 5230   6.820   3.327   3.851 -0.4175 -0.6042  0.4849
 1444SOL    HW1 5231   6.743   3.264   3.852 -2.7431  1.9955  0.2476
 1444SOL    HW2 5232   6.822   3.380   3.936  0.7511 -0.1960  0.2333
 1445SOL     OW 5233   3.260   3.839   3.291 -0.9305  0.6639 -0.5689
 1445SOL    HW1 5234   3.227   3.899   3.219  0.6398  0.1687 -1.7585
 1445SOL    HW2 5235   3.336   3.784   3.257 -1.1363 -0.7042  1.0163
 1446SOL     OW 5236   0.100   0.836   6.790 -0.5265 -0.2359 -0.0454
 1446SOL    HW1 5237   0.066   0.767   6.727  0.5975  0.8457 -1.9147
 1446SOL    HW2 5238   0.024   0.868   6.848 -1.9482 -0.2499 -1.8079
 1447SOL     OW 5239   1.234   4.037   0.563  0.0977  0.5152 -0.4745
 1447SOL    HW1 5240   1.213   4.013   0.469  1.3337  0.4077 -0.7412
 1447SOL    HW2 5241   1.333   4.046   0.574 -0.1023  1.8140  0.5084
 1448SOL     OW 5242   0.483   4.758   4.981  0.9181 -0.5146  0.3270
 1448SOL    HW1 5243   0.454   4.778   5.075  4.9776 -1.1720  1.8982
 1448SOL    HW2 5244   0.413   4.702   4.937 -1.4043  0.3019  2.6852
 1449SOL     OW 5245   1.616   1.481   4.608 -0.0366  0.1415 -0.6633
 1449SOL    HW1 5246   1.708   1.481   4.648 -0.6503 -2.4810  1.0694
 1449SOL    HW2 5247   1.609   1.407   4.541 -1.8442 -2.5639  2.2139
 1450SOL     OW 5248   3.996   2.044   2.850 -0.2922 -0.2039  0.5997
 1450SOL    HW1 5249   4.056   1.978   2.805 -0.5515  2.4830 -4.4230
 1450SOL    HW2 5250   4.040   2.078   2.932  1.9335 -3.0507  0.7636
 1451SOL     OW 5251   1.060   2.315   6.469  0.1517  0.5773 -0.1344
 1451SOL    HW1 5252   1.117   2.350   6.395  0.1476  0.1189 -0.3567
 1451SOL    HW2 5253   0.998   2.387   6.501  1.0871  1.1948  0.3514
 1452SOL     OW 5254   5.247   1.068   1.924  0.0166  0.5445 -0.2024
 1452SOL    HW1 5255   5.312   1.070   1.849  0.9004 -0.8440  0.4681
 1452SOL    HW2 5256   5.189   1.149   1.922  2.4281  2.3519 -0.2537
 1453SOL     OW 5257   4.214   1.537   2.286  0.4903  0.0351 -0.3597
 1453SOL    HW1 5258   4.217   1.452   2.338 -1.3260  0.2744  0.1867
 1453SOL    HW2 5259   4.277   1.531   2.208  2.9043 -0.5233  1.5028
 1454SOL     OW 5260   5.374   2.608   5.657 -0.7638  0.1856 -0.2814
 1454SOL    HW1 5261   5.300   2.568   5.604  0.5116 -1.5259 -0.8716
 1454SOL    HW2 5262   5.387   2.555   5.741  1.7059 -1.5310 -1.6225
 1455SOL     OW 5263   3.304   1.872   6.871 -0.1096  0.7315 -0.2146
 1455SOL    HW1 5264   3.337   1.805   6.804 -0.0973  0.9337 -0.4129
 1455SOL    HW2 5265   3.340   1.851   6.961  0.2344  0.7176 -0.3560
 1456SOL     OW 5266   2.276   0.382   6.434 -0.1285 -0.1287 -0.6803
 1456SOL    HW1 5267   2.365   0.345   6.408  0.0878 -0.3190  0.3170
 1456SOL    HW2 5268   2.224   0.404   6.351  0.3127 -1.2822 -1.2861
 1457SOL     OW 5269   1.775   3.150   6.521  0.9220 -0.0798 -0.7586
 1457SOL    HW1 5270   1.698   3.152   6.584  1.4351 -0.2575 -0.1251
 1457SOL    HW2 5271   1.785   3.058   6.483  0.1782  0.1913 -1.6552
 1458SOL     OW 5272   3.803   4.223   1.726  0.2660 -0.2714 -0.3553
 1458SOL    HW1 5273   3.733   4.294   1.730 -0.6185 -1.1370 -0.2831
 1458SOL    HW2 5274   3.764   4.139   1.689  1.1783 -0.8801  0.0304
 1459SOL     OW 5275   6.556   6.492   3.746  0.9560 -0.5805 -0.2100
 1459SOL    HW1 5276   6.627   6.561   3.763  1.2541 -1.1519  0.9762
 1459SOL    HW2 5277   6.471   6.538   3.719  1.0153  0.2964  0.9962
 1460SOL     OW 5278   6.709   3.265   1.432 -0.8070 -0.3645  0.4015
 1460SOL    HW1 5279   6.661   3.339   1.479 -2.2231  0.4494 -2.1466
 1460SOL    HW2 5280   6.645   3.190   1.413 -0.5999 -0.1854 -1.1600
 1461SOL     OW 5281   4.316   4.551   2.901 -0.3758  0.2990 -0.8316
 1461SOL    HW1 5282   4.320   4.451   2.898  2.5105  0.2502  0.7068
 1461SOL    HW2 5283   4.381   4.588   2.835 -1.7671  1.2192 -1.7259
 1462SOL     OW 5284   6.325   0.651   0.861 -0.1356  0.1794 -0.6667
 1462SOL    HW1 5285   6.334   0.618   0.767 -0.1346 -0.0207 -0.5972
 1462SOL    HW2 5286   6.413   0.641   0.908 -0.2586 -0.1506 -0.5061
 1463SOL     OW 5287   3.460   0.292   4.319  0.0413 -0.9719  0.4059
 1463SOL    HW1 5288   3.394   0.229   4.279  0.0648 -0.4899 -0.4168
 1463SOL    HW2 5289   3.461   0.281   4.419 -2.2512 -0.0552  0.5802
 1464SOL     OW 5290   2.120   5.530   5.266  0.2810  0.0460  0.0918
 1464SOL    HW1 5291   2.028   5.567   5.271  0.2135  0.5595 -3.1852
 1464SOL    HW2 5292   2.143   5.509   5.171  3.0271 -1.4692  0.9770
 1465SOL     OW 5293   1.972   6.264   0.362  0.1330  0.1974  0.1536
 1465SOL    HW1 5294   2.069   6.289   0.363  0.1546  0.2215 -1.1600
 1465SOL    HW2 5295   1.938   6.265   0.268 -0.7960 -1.1874  0.4527
 1466SOL     OW 5296   1.223   4.646   3.312 -0.4353 -0.1418 -0.5709
 1466SOL    HW1 5297   1.162   4.713   3.270 -0.6181 -1.1696 -2.0095
 1466SOL    HW2 5298   1.301   4.693   3.354 -3.0629  1.4412  3.1577
 1467SOL     OW 5299   0.231   2.540   6.257 -0.2699  0.2838 -0.2079
 1467SOL    HW1 5300   0.285   2.611   6.213  1.5215 -0.6876  0.3213
 1467SOL    HW2 5301   0.135   2.569   6.263  0.1738  2.0660 -1.1545
 1468SOL     OW 5302   0.350   0.853   1.582  0.1539 -0.2850 -0.4675
 1468SOL    HW1 5303   0.436   0.894   1.612  0.3535 -0.2831 -1.0199
 1468SOL    HW2 5304   0.286   0.926   1.557  0.3657 -0.2894 -1.0569
 1469SOL     OW 5305   5.619   4.455   5.886 -0.2815  0.5808 -0.3728
 1469SOL    HW1 5306   5.633   4.366   5.842  0.1165  0.0641  0.7647
 1469SOL    HW2 5307   5.534   4.454   5.939  0.5722  0.2701  1.0493
 1470SOL     OW 5308   1.098   0.220   0.846  0.2566 -0.3025 -0.3977
 1470SOL    HW1 5309   1.171   0.154   0.861  0.5173  0.2645  0.9897
 1470SOL    HW2 5310   1.136   0.312   0.842 -0.2694 -0.0939 -0.6509
 1471SOL     OW 5311   4.772   3.064   1.689 -0.0228  0.1332  0.3070
 1471SOL    HW1 5312   4.817   3.149   1.717 -0.0127 -0.1097  1.0569
 1471SOL    HW2 5313   4.710   3.034   1.762 -0.0085 -0.5173  0.0568
 1472SOL     OW 5314   3.135   5.335   2.694 -0.2800 -0.3814  0.0781
 1472SOL    HW1 5315   3.164   5.312   2.787 -1.0262 -1.3691  0.0844
 1472SOL    HW2 5316   3.177   5.421   2.666  0.9163 -0.6900  0.8726
 1473SOL     OW 5317   0.354   5.972   4.119 -0.0352 -0.4585  0.0414
 1473SOL    HW1 5318   0.293   5.988   4.042 -0.5174 -0.1242  0.4916
 1473SOL    HW2 5319   0.316   6.013   4.202  2.1891  2.4258 -0.2098
 1474SOL     OW 5320   3.848   2.150   4.756 -0.2426 -0.6308  0.0964
 1474SOL    HW1 5321   3.939   2.188   4.773 -0.5176  0.5112 -0.8754
 1474SOL    HW2 5322   3.816   2.102   4.838  0.4865  0.4867  1.0762
 1475SOL     OW 5323   3.359   0.269   3.659  0.3259  0.7123  0.0105
 1475SOL    HW1 5324   3.392   0.354   3.700 -0.5273  1.1801 -0.2569
 1475SOL    HW2 5325   3.431   0.199   3.665  1.1659  1.5463 -0.0784
 1476SOL     OW 5326   4.031   1.671   2.471 -0.1246 -0.4920  0.0020
 1476SOL    HW1 5327   4.100   1.628   2.413  2.2400  0.1792  2.1577
 1476SOL    HW2 5328   3.961   1.603   2.495 -0.1110 -1.2678 -2.0049
 1477SOL     OW 5329   7.014   6.484   3.204  0.0366 -0.2152  0.2246
 1477SOL    HW1 5330   6.955   6.511   3.280  0.9276 -1.5577  1.4342
 1477SOL    HW2 5331   6.959   6.474   3.121 -1.1843 -0.0468  0.9945
 1478SOL     OW 5332   3.046   1.165   3.940 -0.3214  0.6269  0.4365
 1478SOL    HW1 5333   3.076   1.127   4.027  1.2669 -2.7771 -1.4070
 1478SOL    HW2 5334   3.122   1.216   3.898  0.2427 -0.9044 -0.5084
 1479SOL     OW 5335   0.510   0.270   5.430  0.5469 -0.2063  0.8056
 1479SOL    HW1 5336   0.466   0.356   5.455  0.9827 -0.4633  2.6121
 1479SOL    HW2 5337   0.610   0.282   5.432  0.6047 -0.3479 -0.5199
 1480SOL     OW 5338   4.838   4.784   1.313 -0.7628  0.5810 -0.2169
 1480SOL    HW1 5339   4.874   4.844   1.242 -0.7490  0.2057 -0.5307
 1480SOL    HW2 5340   4.903   4.710   1.331 -0.5200  0.9811  0.5787
 1481SOL     OW 5341   5.235   5.021   3.405  0.0194  0.0584 -0.4984
 1481SOL    HW1 5342   5.278   4.957   3.341 -0.6368  0.0527 -0.9457
 1481SOL    HW2 5343   5.138   4.997   3.415  0.2052 -0.2033  0.8290
 1482SOL     OW 5344   1.865   0.583   5.199 -0.0312 -0.0680  0.5390
 1482SOL    HW1 5345   1.831   0.623   5.284 -1.8560 -0.6866  0.1370
 1482SOL    HW2 5346   1.835   0.638   5.121  1.2185  0.2229  0.2294
 1483SOL     OW 5347   6.881   2.043   3.638  0.3589 -0.4502 -0.2482
 1483SOL    HW1 5348   6.816   2.117   3.622  3.0934  2.9587  2.7681
 1483SOL    HW2 5349   6.847   1.982   3.710 -0.3171  0.0875 -0.1079
 1484SOL     OW 5350   4.829   1.838   5.526  0.2945  0.2536 -0.2203
 1484SOL    HW1 5351   4.741   1.834   5.480  0.7211 -2.3636 -0.9753
 1484SOL    HW2 5352   4.819   1.808   5.621  0.3103  0.3134 -0.1995
 1485SOL     OW 5353   2.462   6.721   1.542  0.5591 -0.0761  0.2923
 1485SOL    HW1 5354   2.473   6.816   1.513  1.0196  0.1467  1.1724
 1485SOL    HW2 5355   2.453   6.663   1.461 -1.5082  0.9016 -0.2446
 1486SOL     OW 5356   5.487   1.769   0.260  0.5808 -0.1500 -0.2066
 1486SOL    HW1 5357   5.441   1.710   0.194  3.1014 -3.0081  0.3755
 1486SOL    HW2 5358   5.541   1.838   0.212  2.3586 -2.1724 -1.2516
 1487SOL     OW 5359   0.580   0.345   4.215 -0.5257 -0.0851 -0.2136
 1487SOL    HW1 5360   0.578   0.440   4.183  1.6051  0.2511  0.4768
 1487SOL    HW2 5361   0.519   0.336   4.294 -0.5964  0.7602 -0.1559
 1488SOL     OW 5362   4.474   1.070   3.261 -0.0377 -0.3719  0.5772
 1488SOL    HW1 5363   4.385   1.086   3.218  0.2372 -2.1004 -0.7370
 1488SOL    HW2 5364   4.488   0.972   3.273  1.5770 -0.1153  1.0451
 1489SOL     OW 5365   3.070   3.927   0.483  0.0451 -0.1841 -0.3642
 1489SOL    HW1 5366   3.106   3.894   0.396 -0.4524  1.0367 -1.0578
 1489SOL    HW2 5367   2.993   3.870   0.511  0.7194 -1.0886 -0.2830
 1490SOL     OW 5368   3.971   5.284   3.163  0.2471  0.3277 -0.0228
 1490SOL    HW1 5369   4.057   5.313   3.120 -0.8786  0.8238 -2.0639
 1490SOL    HW2 5370   3.989   5.208   3.226  2.1963  0.5771 -0.2170
 1491SOL     OW 5371   5.727   6.008   0.490 -0.7275  0.1152  0.4969
 1491SOL    HW1 5372   5.724   6.011   0.590 -1.9571 -2.6017  0.6408
 1491SOL    HW2 5373   5.818   5.980   0.460 -0.4734  0.5243  0.8730
 1492SOL     OW 5374   5.985   4.599   0.292 -0.3494  0.9267  0.1187
 1492SOL    HW1 5375   5.940   4.533   0.353 -0.5586  0.7910 -0.1805
 1492SOL    HW2 5376   6.077   4.567   0.270  0.5976  2.0602  2.1519
 1493SOL     OW 5377   3.270   0.243   1.912  0.6282 -0.5310 -0.5713
 1493SOL    HW1 5378   3.302   0.336   1.927 -1.6371  0.2539 -0.2531
 1493SOL    HW2 5379   3.267   0.225   1.813 -0.3863  0.3005 -0.7036
 1494SOL     OW 5380   1.684   5.587   1.138 -0.5486  0.2535 -0.1427
 1494SOL    HW1 5381   1.778   5.622   1.142 -0.5958  0.3019  0.8323
 1494SOL    HW2 5382   1.623   5.651   1.186 -1.1906  0.5286 -1.2820
 1495SOL     OW 5383   0.590   5.294   5.083  0.0062 -0.3381 -0.0402
 1495SOL    HW1 5384   0.561   5.204   5.052  0.6058  0.0594 -1.8750
 1495SOL    HW2 5385   0.537   5.365   5.036 -0.9971  0.3066  1.9350
 1496SOL     OW 5386   2.160   4.492   4.939  0.1701 -0.1484 -0.0289
 1496SOL    HW1 5387   2.190   4.446   5.023 -1.9141  0.1424  0.9431
 1496SOL    HW2 5388   2.087   4.439   4.896  0.7155  0.0825 -1.2790
 1497SOL     OW 5389   1.088   1.299   3.492 -0.0140 -0.3266  0.1572
 1497SOL    HW1 5390   1.087   1.274   3.589  0.5295  1.1601  0.5774
 1497SOL    HW2 5391   1.143   1.381   3.480  1.3014 -1.4117 -1.6692
 1498SOL     OW 5392   2.593   2.479   2.269 -0.3288 -0.3676  0.0942
 1498SOL    HW1 5393   2.656   2.494   2.192 -0.5204 -0.8371 -0.1622
 1498SOL    HW2 5394   2.551   2.389   2.259  1.6453 -1.6161  2.1687
 1499SOL     OW 5395   5.523   2.360   5.944  0.4208 -0.1511  0.1899
 1499SOL    HW1 5396   5.450   2.297   5.967 -1.2140  1.5647 -0.0344
 1499SOL    HW2 5397   5.501   2.451   5.977  1.8276  0.7072 -1.0515
 1500SOL     OW 5398   1.422   2.987   2.670 -0.5781 -0.0689  0.6083
 1500SOL    HW1 5399   1.363   3.064   2.645 -0.2319 -0.2422 -0.8210
 1500SOL    HW2 5400   1.487   3.017   2.740  0.5280  1.3997 -0.9757
 1501SOL     OW 5401   3.993   1.374   0.730 -0.7235 -0.0552 -0.1375
 1501SOL    HW1 5402   4.023   1.430   0.808 -0.0931  1.5263 -1.4479
 1501SOL    HW2 5403   3.919   1.421   0.683 -0.2404 -0.3527 -1.2225
 1502SOL     OW 5404   3.090   3.180   6.114 -0.3784 -0.3516  0.8669
 1502SOL    HW1 5405   3.160   3.169   6.044  0.2313  0.0585  1.3909
 1502SOL    HW2 5406   3.020   3.109   6.104 -0.3895 -0.2063 -0.2381
 1503SOL     OW 5407   6.799   3.670   2.086 -0.2977  0.0633  0.2567
 1503SOL    HW1 5408   6.781   3.575   2.109 -2.9655  1.0054  2.6387
 1503SOL    HW2 5409   6.853   3.712   2.159  1.0760  0.3872 -0.8931
 1504SOL     OW 5410   5.931   5.294   6.932 -0.3415 -0.0843 -0.0410
 1504SOL    HW1 5411   5.895   5.228   6.865 -0.2766 -0.1752  0.0142
 1504SOL    HW2 5412   6.020   5.263   6.964  1.0040  1.3911 -2.0752
 1505SOL     OW 5413   4.034   5.673   4.663 -0.5293 -0.0381  0.1209
 1505SOL    HW1 5414   4.108   5.708   4.606  1.0681  0.3504  2.2906
 1505SOL    HW2 5415   4.057   5.581   4.695 -1.0998 -0.0061  0.6373
 1506SOL     OW 5416   0.609   0.020   6.932 -0.0264  0.3218  0.1110
 1506SOL    HW1 5417   0.641   0.109   6.964  1.3194 -0.0730 -0.0645
 1506SOL    HW2 5418   0.648   0.002   6.841 -1.5324  0.2154 -0.5453
 1507SOL     OW 5419   6.005   3.303   2.784 -0.4980 -0.1196  0.2659
 1507SOL    HW1 5420   6.012   3.340   2.877 -0.5390 -0.1185  0.2688
 1507SOL    HW2 5421   6.089   3.254   2.761  1.0955  2.9616 -1.0633
 1508SOL     OW 5422   1.592   0.832   1.992 -0.0752 -0.1278 -0.5280
 1508SOL    HW1 5423   1.494   0.854   1.986 -0.4701 -1.3742  0.6190
 1508SOL    HW2 5424   1.607   0.740   1.954  0.5546 -0.1589 -0.2131
 1509SOL     OW 5425   0.616   3.899   1.033 -0.3765  0.3820 -0.2173
 1509SOL    HW1 5426   0.627   3.856   0.943  0.3204 -0.6322  0.3258
 1509SOL    HW2 5427   0.570   3.835   1.094  0.7463  0.3507  0.6317
 1510SOL     OW 5428   6.399   6.088   3.692 -0.3186  0.1367 -0.3783
 1510SOL    HW1 5429   6.456   6.008   3.712  1.8703  1.2461 -1.7645
 1510SOL    HW2 5430   6.402   6.152   3.769  0.9939  0.5334 -0.7390
 1511SOL     OW 5431   4.290   1.743   3.551 -0.5327  0.2461  0.3319
 1511SOL    HW1 5432   4.321   1.649   3.565 -0.2838  0.1862 -0.5355
 1511SOL    HW2 5433   4.350   1.805   3.600 -1.2135 -0.0875  1.6312
 1512SOL     OW 5434   1.592   3.445   1.867 -0.3867 -0.5370  0.0463
 1512SOL    HW1 5435   1.537   3.403   1.795  0.0611 -1.4462  0.2124
 1512SOL    HW2 5436   1.672   3.388   1.885 -1.1822 -1.0710  2.2114
 1513SOL     OW 5437   3.665   4.686   7.001 -0.4346  0.4159 -0.1779
 1513SOL    HW1 5438   3.717   4.728   6.926 -1.6831 -0.3090 -1.5044
 1513SOL    HW2 5439   3.718   4.610   7.039  0.0577  0.5425 -0.5862
 1514SOL     OW 5440   0.369   3.915   5.047 -0.4306  0.3802 -0.3378
 1514SOL    HW1 5441   0.413   3.919   5.136  1.0283  0.8202 -1.0502
 1514SOL    HW2 5442   0.314   3.998   5.033 -1.4517 -0.1351  0.5257
 1515SOL     OW 5443   1.977   5.538   5.628 -0.0133  0.1888 -0.2770
 1515SOL    HW1 5444   1.966   5.446   5.667 -0.4019  0.9473  1.5041
 1515SOL    HW2 5445   2.028   5.532   5.543 -0.2664 -1.7121 -0.3365
 1516SOL     OW 5446   4.745   0.824   2.376  0.2385  0.7145  0.0047
 1516SOL    HW1 5447   4.796   0.910   2.380  4.4961 -1.4986 -0.3335
 1516SOL    HW2 5448   4.727   0.800   2.281 -1.0863  1.2441  0.1047
 1517SOL     OW 5449   5.283   1.681   0.753 -0.0898 -0.4786 -0.1103
 1517SOL    HW1 5450   5.279   1.679   0.653 -1.2203 -3.5792 -0.1158
 1517SOL    HW2 5451   5.196   1.713   0.789 -0.0006 -0.2204 -0.1250
 1518SOL     OW 5452   1.371   6.048   5.969 -0.5036  0.8300 -0.3697
 1518SOL    HW1 5453   1.306   6.034   5.894  0.0180 -0.0291 -0.6728
 1518SOL    HW2 5454   1.433   6.122   5.945 -3.4999  4.2231  1.3926
 1519SOL     OW 5455   1.035   0.032   4.508 -0.1239 -0.2332 -0.0940
 1519SOL    HW1 5456   0.971   0.109   4.506  0.2866  0.1197  0.1778
 1519SOL    HW2 5457   1.126   0.064   4.483  0.6626 -0.0140  2.6766
 1520SOL     OW 5458   2.403   2.691   0.811  0.2821 -0.5212 -0.4979
 1520SOL    HW1 5459   2.332   2.648   0.867 -0.4720  0.6488 -0.5316
 1520SOL    HW2 5460   2.456   2.755   0.868 -0.6047  0.8086 -1.1281
 1521SOL     OW 5461   0.195   2.199   1.010  0.6208  0.0205  0.1998
 1521SOL    HW1 5462   0.212   2.273   1.075 -0.3606 -2.0712  3.0482
 1521SOL    HW2 5463   0.219   2.229   0.918  2.3625  3.0720  1.5073
 1522SOL     OW 5464   3.370   5.090   5.414  0.3278  0.3341 -0.7529
 1522SOL    HW1 5465   3.406   5.048   5.331  0.4125  1.3880 -1.2658
 1522SOL    HW2 5466   3.446   5.121   5.472  0.2962 -1.2192  0.1878
 1523SOL     OW 5467   4.526   4.599   1.528 -0.4913 -0.2356 -0.0587
 1523SOL    HW1 5468   4.462   4.644   1.591  0.3170  1.6640 -0.5092
 1523SOL    HW2 5469   4.551   4.509   1.563 -1.0180  0.2649  1.6903
 1524SOL     OW 5470   4.890   3.328   3.589 -0.6708 -0.2407  0.3089
 1524SOL    HW1 5471   4.850   3.289   3.505  1.7860  0.6437 -1.3930
 1524SOL    HW2 5472   4.890   3.428   3.582  0.1503 -0.1835  1.0791
 1525SOL     OW 5473   5.187   2.120   0.056 -0.2307  0.2604  0.3666
 1525SOL    HW1 5474   5.088   2.127   0.062 -0.2060  0.8831  0.1578
 1525SOL    HW2 5475   5.228   2.179   0.126 -0.0029  1.0931 -0.4505
 1526SOL     OW 5476   1.117   4.094   2.035  0.1850 -0.2196 -0.5376
 1526SOL    HW1 5477   1.095   4.025   1.966  0.1849  0.4161 -1.1863
 1526SOL    HW2 5478   1.076   4.182   2.009 -0.6632 -0.1906  0.7857
 1527SOL     OW 5479   5.553   3.531   4.255  0.1623  0.5848 -0.5271
 1527SOL    HW1 5480   5.611   3.605   4.287 -0.6625  0.6329  0.9825
 1527SOL    HW2 5481   5.609   3.451   4.235  0.9210  1.1877 -0.8662
 1528SOL     OW 5482   0.912   3.478   6.677 -0.9621  0.4252 -0.1219
 1528SOL    HW1 5483   0.813   3.467   6.687 -0.7136 -1.5294  0.5097
 1528SOL    HW2 5484   0.954   3.390   6.657  0.5564  1.4000 -1.4644
 1529SOL     OW 5485   6.705   2.862   6.876 -0.0440  0.2418 -1.1314
 1529SOL    HW1 5486   6.727   2.776   6.831  0.2209 -0.3693  0.1295
 1529SOL    HW2 5487   6.613   2.856   6.917  0.3219  0.2262 -0.2875
 1530SOL     OW 5488   0.822   2.738   2.284  0.1348 -0.1085 -0.2874
 1530SOL    HW1 5489   0.877   2.762   2.205  2.3878 -0.3230  1.1183
 1530SOL    HW2 5490   0.766   2.658   2.263  0.6267 -0.1139 -1.6705
 1531SOL     OW 5491   5.236   6.303   6.337  0.1198 -0.2941 -0.1169
 1531SOL    HW1 5492   5.317   6.271   6.386 -0.7728 -0.4305  1.3056
 1531SOL    HW2 5493   5.192   6.376   6.388 -0.5627 -0.0868 -0.9721
 1532SOL     OW 5494   0.595   0.531   2.480  0.0051  0.1857 -0.4465
 1532SOL    HW1 5495   0.675   0.589   2.495  1.1681 -1.2004 -1.0389
 1532SOL    HW2 5496   0.573   0.530   2.382  0.6446 -1.1380 -0.5995
 1533SOL     OW 5497   6.482   3.260   5.731 -0.1542 -0.0252 -0.4644
 1533SOL    HW1 5498   6.388   3.291   5.744 -0.0923  0.0141 -0.1093
 1533SOL    HW2 5499   6.502   3.256   5.633 -0.1709  1.0314 -0.5177
 1534SOL     OW 5500   1.349   0.337   3.858 -0.0755 -0.5839  0.2859
 1534SOL    HW1 5501   1.434   0.286   3.867 -0.7105 -1.8024 -0.3152
 1534SOL    HW2 5502   1.362   0.415   3.798  0.2980 -1.5555 -0.9209
 1535SOL     OW 5503   4.264   4.312   0.039  0.1227 -0.8216 -0.1959
 1535SOL    HW1 5504   4.324   4.240   0.073  0.1316 -0.9412 -0.4616
 1535SOL    HW2 5505   4.172   4.276   0.026  0.1746 -0.8429 -0.5274
 1536SOL     OW 5506   6.393   6.379   6.377  0.4637 -0.7806  0.2913
 1536SOL    HW1 5507   6.434   6.429   6.453  0.0686 -1.8051  1.2097
 1536SOL    HW2 5508   6.298   6.409   6.364  0.7228 -0.1537 -0.2351
 1537SOL     OW 5509   1.921   0.479   6.428  0.4419  0.1564  0.3052
 1537SOL    HW1 5510   1.900   0.576   6.437  0.3414  0.0269  1.6659
 1537SOL    HW2 5511   1.988   0.465   6.354  0.9137  1.3117  0.5061
 1538SOL     OW 5512   4.674   5.078   1.616  0.2470 -0.2891 -0.4974
 1538SOL    HW1 5513   4.711   5.025   1.692  2.0106  1.7099  0.1032
 1538SOL    HW2 5514   4.574   5.074   1.619  0.1779  0.8584  2.8266
 1539SOL     OW 5515   6.818   2.676   1.103 -0.2591 -0.6807 -0.0779
 1539SOL    HW1 5516   6.838   2.774   1.106  0.3501 -0.6737 -2.6025
 1539SOL    HW2 5517   6.900   2.624   1.125 -0.3259 -0.6554  0.2488
 1540SOL     OW 5518   6.929   3.536   5.747 -0.4877 -0.0786 -0.3002
 1540SOL    HW1 5519   6.987   3.480   5.806 -1.1809 -1.1309 -0.5796
 1540SOL    HW2 5520   6.906   3.622   5.794  1.2260  0.3372 -0.1746
 1541SOL     OW 5521   6.590   6.679   1.179  0.4872  0.8214 -0.1921
 1541SOL    HW1 5522   6.525   6.615   1.138  0.0527  1.2667 -0.1993
 1541SOL    HW2 5523   6.664   6.627   1.223  1.0245  0.3273 -1.6081
 1542SOL     OW 5524   2.717   5.124   1.093  0.3266 -0.1319  0.2150
 1542SOL    HW1 5525   2.775   5.173   1.028 -0.8214 -0.0325 -0.7660
 1542SOL    HW2 5526   2.771   5.053   1.139  1.0266 -0.6156 -1.2990
 1543SOL     OW 5527   1.075   4.387   1.392  0.1242 -0.1636 -0.5018
 1543SOL    HW1 5528   1.048   4.420   1.302  0.0118  0.1263 -0.3651
 1543SOL    HW2 5529   1.154   4.327   1.384 -0.7003 -1.2147 -0.9306
 1544SOL     OW 5530   4.604   6.320   1.056  0.2851 -0.6366 -0.1831
 1544SOL    HW1 5531   4.575   6.411   1.087  0.3728  0.6940 -3.5359
 1544SOL    HW2 5532   4.694   6.299   1.094 -0.2046  0.1303  1.5380
 1545SOL     OW 5533   0.067   6.112   6.201  0.1932  0.0996 -0.0573
 1545SOL    HW1 5534   0.134   6.165   6.148  0.5504 -0.9336 -0.6859
 1545SOL    HW2 5535   0.110   6.081   6.286 -0.1562  1.1705  0.5196
 1546SOL     OW 5536   6.591   2.506   0.580  0.2341  0.0493  0.2503
 1546SOL    HW1 5537   6.673   2.517   0.636 -0.4322  0.8137  1.0886
 1546SOL    HW2 5538   6.614   2.524   0.484  0.6884  2.0002  0.6832
 1547SOL     OW 5539   1.119   6.544   5.791  0.3160  0.1292 -0.3998
 1547SOL    HW1 5540   1.120   6.592   5.880 -1.0173 -0.5732  0.0192
 1547SOL    HW2 5541   1.026   6.514   5.771  0.6454  0.0836 -1.9567
 1548SOL     OW 5542   5.708   5.967   5.034  0.2268 -1.0269 -0.5232
 1548SOL    HW1 5543   5.726   5.968   5.132 -1.4697  1.3943 -0.1477
 1548SOL    HW2 5544   5.786   6.006   4.985 -0.6187  2.1357  0.3810
 1549SOL     OW 5545   3.416   0.606   2.368 -0.5506 -0.2520  0.5277
 1549SOL    HW1 5546   3.411   0.676   2.439 -3.0729  0.2739 -0.0718
 1549SOL    HW2 5547   3.467   0.642   2.289 -1.5966  0.8363  0.3282
 1550SOL     OW 5548   1.129   1.565   2.154  0.0634 -0.8743 -1.1418
 1550SOL    HW1 5549   1.217   1.524   2.177  0.7021  0.7724 -0.5771
 1550SOL    HW2 5550   1.125   1.659   2.187 -1.3365 -0.4183 -2.4552
 1551SOL     OW 5551   1.790   1.109   2.370  0.1062 -0.2454 -0.4576
 1551SOL    HW1 5552   1.774   1.143   2.278 -0.3868  0.9741  0.0576
 1551SOL    HW2 5553   1.842   1.177   2.422  0.9311 -1.1805 -0.0058
 1552SOL     OW 5554   1.794   1.241   5.719 -0.4558  0.6958  0.3038
 1552SOL    HW1 5555   1.774   1.144   5.734 -2.0560  0.7278 -1.3702
 1552SOL    HW2 5556   1.866   1.270   5.783  0.1599 -1.6017  0.7420
 1553SOL     OW 5557   2.506   0.149   4.640 -0.1592 -0.4005 -0.2237
 1553SOL    HW1 5558   2.409   0.125   4.636 -0.1790 -0.5944  0.9175
 1553SOL    HW2 5559   2.526   0.219   4.572 -0.9004 -0.9991 -1.0776
 1554SOL     OW 5560   3.931   6.794   1.190 -0.7326 -0.1798  0.5817
 1554SOL    HW1 5561   3.934   6.853   1.271 -1.5484  2.8146 -1.4166
 1554SOL    HW2 5562   3.839   6.758   1.179 -0.8877  0.2443  0.4584
 1555SOL     OW 5563   3.502   0.004   3.756  0.3641  0.5272 -0.0060
 1555SOL    HW1 5564   3.544  -0.082   3.785  0.0792  0.0110 -1.0919
 1555SOL    HW2 5565   3.464   0.051   3.836 -0.3167 -0.8014  0.4774
 1556SOL     OW 5566   5.135   0.995   4.714 -0.3720  0.2285  0.0397
 1556SOL    HW1 5567   5.115   1.043   4.800 -2.7371 -1.6047  0.6237
 1556SOL    HW2 5568   5.050   0.970   4.669  0.7825 -1.6600 -1.2293
 1557SOL     OW 5569   4.228   5.177   4.333  0.2279 -0.3048 -0.1601
 1557SOL    HW1 5570   4.155   5.189   4.401 -0.2653 -2.2191 -0.2943
 1557SOL    HW2 5571   4.292   5.107   4.364  1.6399  0.8328 -0.3877
 1558SOL     OW 5572   4.552   2.432   6.283 -0.1984 -0.0799  0.0497
 1558SOL    HW1 5573   4.474   2.462   6.228  0.2175  1.3558  0.1886
 1558SOL    HW2 5574   4.595   2.512   6.326  0.9655 -0.9086  0.4859
 1559SOL     OW 5575   3.600   6.393   2.884 -0.0686  0.4351 -0.3625
 1559SOL    HW1 5576   3.550   6.454   2.823 -2.5008 -0.4145  0.6561
 1559SOL    HW2 5577   3.586   6.298   2.856  0.3208  0.1328  0.4272
 1560SOL     OW 5578   6.644   4.526   6.228 -0.5287  0.2373 -0.9428
 1560SOL    HW1 5579   6.741   4.542   6.244 -0.4687 -0.2210 -0.8344
 1560SOL    HW2 5580   6.612   4.454   6.290 -0.7870 -0.0643 -1.4201
 1561SOL     OW 5581   0.157   3.747   5.035 -0.3438  0.4947  0.0866
 1561SOL    HW1 5582   0.247   3.792   5.041 -0.3772  0.5944 -0.1389
 1561SOL    HW2 5583   0.085   3.814   5.055 -0.3530  0.3324  0.6084
 1562SOL     OW 5584   5.544   6.134   4.346  0.0916 -0.1572  0.4231
 1562SOL    HW1 5585   5.641   6.111   4.343 -0.1462 -1.3244  1.0469
 1562SOL    HW2 5586   5.517   6.177   4.260  1.2533  0.6183  0.4265
 1563SOL     OW 5587   2.726   0.580   0.047  0.0591 -0.0361  0.0714
 1563SOL    HW1 5588   2.715   0.538  -0.043 -0.2996 -1.5828  0.8074
 1563SOL    HW2 5589   2.637   0.593   0.090  0.2223  0.7524  0.1980
 1564SOL     OW 5590   1.309   5.113   6.915 -0.1887 -0.1803  0.2968
 1564SOL    HW1 5591   1.308   5.115   7.015  1.6972  0.5075  0.3273
 1564SOL    HW2 5592   1.386   5.166   6.881 -1.1991  0.1688 -1.5646
 1565SOL     OW 5593   2.098   1.731   6.714  0.3909 -0.1941 -0.4407
 1565SOL    HW1 5594   2.008   1.723   6.671  0.3826  0.5468 -0.5655
 1565SOL    HW2 5595   2.124   1.827   6.720  1.3526 -0.4240 -0.7694
 1566SOL     OW 5596   0.686   3.411   5.534  0.6328 -0.3026  0.0338
 1566SOL    HW1 5597   0.784   3.391   5.544  0.9721  1.4788  0.6109
 1566SOL    HW2 5598   0.647   3.351   5.465  1.7664 -2.1621  0.9251
 1567SOL     OW 5599   4.331   4.590   3.198  0.1370  0.2675  0.2032
 1567SOL    HW1 5600   4.258   4.618   3.135 -0.1380 -0.6097  0.1090
 1567SOL    HW2 5601   4.395   4.530   3.149 -0.4443 -0.9690  0.9084
 1568SOL     OW 5602   0.804   6.400   6.777 -0.5703  0.0578 -0.0240
 1568SOL    HW1 5603   0.860   6.454   6.840  1.1095 -1.2834 -0.2772
 1568SOL    HW2 5604   0.710   6.434   6.778  0.0202  1.8041  1.1337
 1569SOL     OW 5605   5.408   6.036   4.593  0.0030  0.4373  0.2651
 1569SOL    HW1 5606   5.479   6.062   4.528 -0.3587 -0.0259 -0.3234
 1569SOL    HW2 5607   5.349   5.966   4.552  0.1267 -0.2983  1.3027
 1570SOL     OW 5608   4.780   0.762   5.437  0.0973  0.2907 -0.4475
 1570SOL    HW1 5609   4.817   0.832   5.499  1.1629  0.1566 -0.9168
 1570SOL    HW2 5610   4.710   0.804   5.379  0.6545  0.9531 -0.6575
 1571SOL     OW 5611   0.120   3.492   6.543 -0.0602  0.0085  0.1767
 1571SOL    HW1 5612   0.160   3.558   6.480 -1.1258 -0.2769 -0.8464
 1571SOL    HW2 5613   0.185   3.418   6.560  1.0556  1.1653  1.1502
 1572SOL     OW 5614   0.909   1.603   3.208 -0.6995 -0.0646  0.3167
 1572SOL    HW1 5615   0.911   1.603   3.308 -0.5507 -0.4176  0.3134
 1572SOL    HW2 5616   0.941   1.515   3.174  2.4375  1.1336 -0.1290
 1573SOL     OW 5617   5.314   2.566   0.263  0.0409 -0.0335 -0.9447
 1573SOL    HW1 5618   5.332   2.480   0.309  1.8633  0.4674 -0.6545
 1573SOL    HW2 5619   5.266   2.628   0.325  0.2575 -0.2391 -0.5722
 1574SOL     OW 5620   5.214   2.576   6.145  0.2839 -0.2337  0.0360
 1574SOL    HW1 5621   5.149   2.588   6.070 -0.6242 -0.1907  0.8067
 1574SOL    HW2 5622   5.308   2.588   6.111 -0.1626  0.9218 -0.8652
 1575SOL     OW 5623   3.665   3.862   3.071  0.3381 -0.2070  0.0210
 1575SOL    HW1 5624   3.706   3.773   3.091  0.5077 -0.3441 -0.9033
 1575SOL    HW2 5625   3.681   3.885   2.975  3.3080  2.3637  0.9533
 1576SOL     OW 5626   4.282   6.123   4.180 -0.0423  0.3268  0.0430
 1576SOL    HW1 5627   4.220   6.141   4.104  0.5673  0.1147 -0.5127
 1576SOL    HW2 5628   4.233   6.075   4.253 -1.3727  2.9140  1.0047
 1577SOL     OW 5629   4.344   0.233   2.044  0.0800 -0.5036  0.4716
 1577SOL    HW1 5630   4.375   0.291   2.119  0.2678 -1.3291  1.0415
 1577SOL    HW2 5631   4.256   0.192   2.067 -0.8413  0.7978 -0.6007
 1578SOL     OW 5632   0.174   5.262   3.119  0.5082 -0.1269 -0.1165
 1578SOL    HW1 5633   0.125   5.310   3.046  0.3332 -0.0045  0.0780
 1578SOL    HW2 5634   0.243   5.202   3.080 -0.8472 -1.5205 -0.4973
 1579SOL     OW 5635   4.929   6.642   0.784 -0.0807 -0.2796  0.1469
 1579SOL    HW1 5636   4.893   6.683   0.701 -2.1719  0.9835  1.5728
 1579SOL    HW2 5637   4.927   6.542   0.776 -0.9402 -0.1876 -1.0145
 1580SOL     OW 5638   4.337   2.825   5.768 -0.1687  0.2591 -0.0029
 1580SOL    HW1 5639   4.268   2.890   5.799 -1.9268 -1.9810  1.1274
 1580SOL    HW2 5640   4.297   2.764   5.699  1.2467  0.0090 -0.6459
 1581SOL     OW 5641   6.568   6.525   6.529  0.1137  0.0337  0.0041
 1581SOL    HW1 5642   6.586   6.614   6.570 -0.1341 -0.0529  0.3072
 1581SOL    HW2 5643   6.631   6.509   6.452 -0.7335  1.0552 -0.9354
 1582SOL     OW 5644   6.683   3.473   6.982  0.1759  0.4486 -0.1740
 1582SOL    HW1 5645   6.657   3.400   6.918  0.1552  0.7196 -0.4828
 1582SOL    HW2 5646   6.731   3.545   6.932  3.8080 -1.1341  0.7620
 1583SOL     OW 5647   1.229   1.798   0.082 -0.0243 -0.3394 -0.3775
 1583SOL    HW1 5648   1.314   1.746   0.076 -1.2106 -2.5382  0.7213
 1583SOL    HW2 5649   1.209   1.817   0.178 -1.9182 -1.9599 -0.3876
 1584SOL     OW 5650   5.426   6.230   3.219  0.0042  0.7578 -0.0765
 1584SOL    HW1 5651   5.366   6.299   3.258 -0.5954 -0.1431  0.6214
 1584SOL    HW2 5652   5.512   6.228   3.271 -0.8406 -0.5244  1.3126
 1585SOL     OW 5653   2.831   0.660   0.389  0.3134 -0.4035  0.1537
 1585SOL    HW1 5654   2.736   0.677   0.363 -0.1611 -0.9473  1.4257
 1585SOL    HW2 5655   2.874   0.746   0.415  0.2469 -0.1206 -0.6493
 1586SOL     OW 5656   6.772   2.432   1.482 -0.0215 -0.3618 -0.2399
 1586SOL    HW1 5657   6.785   2.335   1.499 -1.0709 -0.4500  0.1684
 1586SOL    HW2 5658   6.719   2.444   1.398 -1.3672 -0.2427  0.5816
 1587SOL     OW 5659   0.955   5.013   3.874  0.2511  0.0354 -0.1590
 1587SOL    HW1 5660   1.043   4.987   3.834  1.0085 -0.8319  1.9269
 1587SOL    HW2 5661   0.970   5.049   3.966 -1.6509 -0.9457  0.5807
 1588SOL     OW 5662   0.072   1.855   6.434 -0.5694 -0.4597 -0.1563
 1588SOL    HW1 5663   0.045   1.944   6.473 -3.6682 -1.2685 -0.1945
 1588SOL    HW2 5664   0.132   1.808   6.499 -0.8067  0.6754  0.9419
 1589SOL     OW 5665   1.436   3.858   2.075 -0.3684 -0.0809  0.2606
 1589SOL    HW1 5666   1.360   3.851   2.140 -0.4450 -2.0958  0.0331
 1589SOL    HW2 5667   1.414   3.805   1.993 -0.6770  3.1208 -1.9131
 1590SOL     OW 5668   3.671   1.936   5.235  0.1980  0.1479  0.4753
 1590SOL    HW1 5669   3.687   1.904   5.142 -1.8497 -0.9616  0.4484
 1590SOL    HW2 5670   3.742   1.899   5.296  0.5440 -0.5823 -0.3501
 1591SOL     OW 5671   1.944   1.901   0.905  0.1233 -0.6275 -0.2606
 1591SOL    HW1 5672   1.895   1.868   0.985  1.3311 -0.6216  0.5107
 1591SOL    HW2 5673   2.040   1.872   0.910  0.6279  0.8111 -0.8354
 1592SOL     OW 5674   5.571   4.433   2.481 -0.4115 -0.1061  0.3186
 1592SOL    HW1 5675   5.611   4.517   2.446  1.3448 -0.1098  2.0988
 1592SOL    HW2 5676   5.479   4.421   2.444 -0.2626  1.9717 -0.8619
 1593SOL     OW 5677   6.891   5.027   2.155  0.3106 -0.2280 -0.6253
 1593SOL    HW1 5678   6.885   5.091   2.077 -1.2792  0.9945  0.4262
 1593SOL    HW2 5679   6.904   5.079   2.239  1.0882 -1.4792  0.0521
 1594SOL     OW 5680   3.285   0.718   3.871 -0.6676 -0.2627  0.0806
 1594SOL    HW1 5681   3.329   0.660   3.802  1.1465 -0.7640  1.5702
 1594SOL    HW2 5682   3.229   0.661   3.931 -1.9305  0.1221 -0.6806
 1595SOL     OW 5683   5.708   1.359   2.111  0.2897  0.0257  0.3640
 1595SOL    HW1 5684   5.622   1.343   2.159  0.1889 -2.2183 -0.4595
 1595SOL    HW2 5685   5.749   1.444   2.144 -1.7645  0.6715  1.4362
 1596SOL     OW 5686   3.726   3.788   0.638 -0.3366  0.0046  0.4266
 1596SOL    HW1 5687   3.628   3.770   0.642  0.0418 -3.1510 -1.4837
 1596SOL    HW2 5688   3.749   3.825   0.548  0.3550 -0.3273  0.4610
 1597SOL     OW 5689   2.974   4.805   4.078  0.3882  0.0775  0.6094
 1597SOL    HW1 5690   2.942   4.899   4.067  1.1049  0.4770  1.6821
 1597SOL    HW2 5691   3.034   4.781   4.002 -1.1028 -0.1183 -0.5560
 1598SOL     OW 5692   1.828   2.683   0.005  0.3496 -0.2365 -0.2912
 1598SOL    HW1 5693   1.742   2.633   0.020  0.6496  0.0076  3.2295
 1598SOL    HW2 5694   1.898   2.645   0.066  1.1446  3.0798  1.0707
 1599SOL     OW 5695   0.758   3.942   4.959 -0.2310 -0.0691 -0.2832
 1599SOL    HW1 5696   0.671   3.988   4.974 -0.2517 -0.0019 -0.6009
 1599SOL    HW2 5697   0.749   3.845   4.983 -0.2044  0.0763  0.3267
 1600SOL     OW 5698   1.984   0.126   2.722  0.2877  0.0142 -0.4276
 1600SOL    HW1 5699   1.900   0.094   2.766  1.2381  0.2641  1.6815
 1600SOL    HW2 5700   2.024   0.200   2.777  1.9584 -0.1829 -1.3266
 1601SOL     OW 5701   4.140   5.838   3.506 -0.0880  0.1157  0.1444
 1601SOL    HW1 5702   4.128   5.938   3.508  1.4184  0.3572 -1.2163
 1601SOL    HW2 5703   4.114   5.804   3.415  0.3551 -0.5916  0.2781
 1602SOL     OW 5704   4.200   6.946   0.463  0.5641  0.4320 -0.3219
 1602SOL    HW1 5705   4.262   7.016   0.429  0.4586 -0.1663 -1.7862
 1602SOL    HW2 5706   4.106   6.967   0.436  0.4989 -0.1470 -0.5614
 1603SOL     OW 5707   1.766   0.150   1.631 -0.1311  0.1093  0.1575
 1603SOL    HW1 5708   1.696   0.220   1.623 -0.8858 -0.5063  1.0895
 1603SOL    HW2 5709   1.725   0.060   1.613  0.4513 -0.2384  0.5194
 1604SOL     OW 5710   5.966   5.797   4.455  0.1247  0.8515 -0.5298
 1604SOL    HW1 5711   5.915   5.879   4.430 -0.4077  0.2355 -1.5254
 1604SOL    HW2 5712   6.064   5.819   4.463 -0.2813  2.1314  1.7877
 1605SOL     OW 5713   2.226   2.939   4.747 -0.1305 -0.0181 -0.4994
 1605SOL    HW1 5714   2.273   2.955   4.660 -0.1030 -1.9122 -0.8652
 1605SOL    HW2 5715   2.290   2.957   4.823 -0.3969  2.4569 -0.7780
 1606SOL     OW 5716   6.749   6.072   3.456 -0.3672  0.2970 -0.2422
 1606SOL    HW1 5717   6.686   6.144   3.486 -0.2032 -0.3364  1.7814
 1606SOL    HW2 5718   6.697   5.999   3.412 -0.8501  0.4848  0.0098
 1607SOL     OW 5719   0.338   0.166   5.928  0.1461 -0.1320 -0.0166
 1607SOL    HW1 5720   0.349   0.204   5.836  1.1858 -1.2604 -0.3829
 1607SOL    HW2 5721   0.412   0.199   5.987  0.9270 -1.3504 -0.2776
 1608SOL     OW 5722   3.444   6.573   4.573  0.1296  0.7872  0.0720
 1608SOL    HW1 5723   3.390   6.600   4.652  0.0897 -0.2383  0.4125
 1608SOL    HW2 5724   3.425   6.477   4.550 -0.0278  1.1347 -1.3221
 1609SOL     OW 5725   6.451   6.457   3.364 -0.3482  0.0199  0.2343
 1609SOL    HW1 5726   6.396   6.420   3.439 -0.3764 -2.7014 -1.0255
 1609SOL    HW2 5727   6.395   6.466   3.282  0.2756  0.5823 -0.1433
 1610SOL     OW 5728   1.692   6.947   2.581  0.0743 -0.5796  0.2701
 1610SOL    HW1 5729   1.744   6.939   2.496  0.5637 -0.5032  0.5543
 1610SOL    HW2 5730   1.594   6.948   2.561  0.1873 -0.5145 -0.2947
 1611SOL     OW 5731   6.554   3.738   0.560  0.1234 -0.0787 -0.2021
 1611SOL    HW1 5732   6.486   3.791   0.508 -0.6354  0.8117  1.6051
 1611SOL    HW2 5733   6.507   3.672   0.619  0.9238 -0.5626 -0.0910
 1612SOL     OW 5734   1.137   2.670   1.199  0.2283 -0.2169  0.0828
 1612SOL    HW1 5735   1.171   2.665   1.105 -0.5768  0.7147 -0.2673
 1612SOL    HW2 5736   1.214   2.674   1.262  0.8071  2.0288 -0.7024
 1613SOL     OW 5737   5.807   2.121   5.678 -0.3111  0.5913  0.1034
 1613SOL    HW1 5738   5.753   2.205   5.681  0.3337  1.0900 -1.2257
 1613SOL    HW2 5739   5.751   2.047   5.639 -0.3579  0.8449 -0.3161
 1614SOL     OW 5740   1.203   3.103   1.475  0.3953  0.0580 -0.5478
 1614SOL    HW1 5741   1.111   3.096   1.436 -0.4649 -0.2518  1.4208
 1614SOL    HW2 5742   1.224   3.199   1.494  0.7761  0.1987 -1.6343
 1615SOL     OW 5743   6.438   2.663   3.063 -0.4838  0.1511  0.2074
 1615SOL    HW1 5744   6.476   2.684   3.153 -1.5835 -0.1421  0.7630
 1615SOL    HW2 5745   6.343   2.693   3.060 -0.8297 -0.9505 -0.4173
 1616SOL     OW 5746   1.651   4.454   5.360 -0.2104  0.5072  0.0972
 1616SOL    HW1 5747   1.621   4.372   5.408  2.1223 -2.0477 -2.4526
 1616SOL    HW2 5748   1.580   4.484   5.297 -0.3561 -0.8013 -0.3866
 1617SOL     OW 5749   0.482   1.886   4.569 -0.6402 -0.2335  0.4826
 1617SOL    HW1 5750   0.552   1.936   4.619  0.6273  0.5694 -1.9773
 1617SOL    HW2 5751   0.490   1.788   4.589  1.0307 -0.1212  0.4277
 1618SOL     OW 5752   6.079   1.928   1.201 -0.0671 -0.4232  0.1711
 1618SOL    HW1 5753   6.162   1.977   1.226  1.1843 -2.4693  0.2140
 1618SOL    HW2 5754   6.071   1.925   1.101 -0.0086 -0.3469  0.1645
 1619SOL     OW 5755   0.316   3.779   2.534  0.6444  0.3425  0.3445
 1619SOL    HW1 5756   0.267   3.727   2.605  0.4481  0.2166  0.1167
 1619SOL    HW2 5757   0.400   3.817   2.574  1.0985 -0.6418  0.3706
 1620SOL     OW 5758   6.993   1.949   2.311  0.0754 -0.4487  0.3670
 1620SOL    HW1 5759   6.974   1.981   2.403  0.6041 -0.0761  0.3527
 1620SOL    HW2 5760   7.084   1.907   2.308  0.0012 -0.5928  0.0459
 1621SOL     OW 5761   5.667   5.194   5.962 -0.3594 -0.3514  0.6512
 1621SOL    HW1 5762   5.671   5.123   6.032 -0.0643 -0.9124  0.0746
 1621SOL    HW2 5763   5.760   5.212   5.927 -0.3509  0.6913  1.1541
 1622SOL     OW 5764   3.466   2.302   6.776  0.4120  0.7338  0.4523
 1622SOL    HW1 5765   3.461   2.397   6.808 -2.0520  0.9114 -0.2351
 1622SOL    HW2 5766   3.518   2.299   6.691  1.1172  1.3479  0.8527
 1623SOL     OW 5767   0.251   5.338   3.787 -0.4657 -0.4907 -0.1269
 1623SOL    HW1 5768   0.269   5.400   3.863  1.0453  1.0294 -1.6369
 1623SOL    HW2 5769   0.302   5.254   3.800 -0.6962 -0.4988  0.8144
 1624SOL     OW 5770   1.116   6.338   2.040  0.1991 -0.1654  0.1934
 1624SOL    HW1 5771   1.162   6.332   2.129 -0.3994  1.7326  0.6601
 1624SOL    HW2 5772   1.183   6.361   1.970  0.7279 -1.9509  0.0543
 1625SOL     OW 5773   5.486   0.444   6.317  0.5991  0.1478 -0.2821
 1625SOL    HW1 5774   5.387   0.451   6.329  0.7687  1.4319  0.4890
 1625SOL    HW2 5775   5.515   0.509   6.246  1.1002  1.0338  0.7190
 1626SOL     OW 5776   7.019   1.153   2.059  0.2619 -0.1347 -0.4677
 1626SOL    HW1 5777   7.055   1.089   1.992 -1.2088 -0.7132 -0.7401
 1626SOL    HW2 5778   7.087   1.167   2.131  2.5498  1.7433 -2.7988
 1627SOL     OW 5779   5.957   2.248   2.751 -0.2952 -0.5402 -0.1222
 1627SOL    HW1 5780   5.936   2.176   2.685 -1.3057  0.3179 -0.7712
 1627SOL    HW2 5781   5.875   2.269   2.804  0.6896 -1.8071  2.0619
 1628SOL     OW 5782   6.977   1.330   0.235  0.9700 -0.1127 -0.5092
 1628SOL    HW1 5783   7.075   1.315   0.250  1.4621  2.4184 -0.7198
 1628SOL    HW2 5784   6.940   1.382   0.312 -0.0159 -0.2795 -0.8585
 1629SOL     OW 5785   2.845   5.347   4.861  0.0972  0.0408 -0.2479
 1629SOL    HW1 5786   2.885   5.377   4.948 -0.8251 -0.1043  0.2368
 1629SOL    HW2 5787   2.789   5.420   4.823  1.3621  0.5039 -1.2883
 1630SOL     OW 5788   6.954   2.886   1.632 -0.0866 -0.2340  0.1372
 1630SOL    HW1 5789   6.877   2.828   1.606  0.8579 -1.9243  0.9596
 1630SOL    HW2 5790   7.026   2.878   1.564 -0.4433  1.0270 -0.4176
 1631SOL     OW 5791   1.150   2.907   0.523  0.9751 -0.3337  0.2062
 1631SOL    HW1 5792   1.176   2.886   0.617  0.4834  1.8462  0.8803
 1631SOL    HW2 5793   1.082   2.980   0.523  2.0948  0.8026 -1.9013
 1632SOL     OW 5794   6.108   1.764   5.883 -0.6373  1.0100  0.4764
 1632SOL    HW1 5795   6.093   1.709   5.965  0.6228  0.2348  0.2110
 1632SOL    HW2 5796   6.082   1.859   5.901 -2.1296  0.5041  1.1778
 1633SOL     OW 5797   5.021   5.891   3.041  0.0004  0.1681  0.4993
 1633SOL    HW1 5798   5.055   5.977   3.003 -0.5977  0.2664  0.1843
 1633SOL    HW2 5799   4.925   5.878   3.015  0.3948 -1.1273 -0.3843
 1634SOL     OW 5800   4.582   4.262   5.318 -0.0295 -0.1837 -0.1227
 1634SOL    HW1 5801   4.492   4.237   5.354  0.3201 -2.2643 -0.5723
 1634SOL    HW2 5802   4.649   4.260   5.392 -0.3380  1.5041  0.2402
 1635SOL     OW 5803   1.484   5.223   3.357 -0.2390 -0.5855  0.5152
 1635SOL    HW1 5804   1.512   5.307   3.311  0.3289 -1.8124 -1.4978
 1635SOL    HW2 5805   1.424   5.246   3.434 -0.0057  1.6517  0.0977
 1636SOL     OW 5806   0.700   5.659   4.829 -0.5092 -0.2474 -0.1890
 1636SOL    HW1 5807   0.646   5.726   4.880  0.3121  0.6440 -0.4613
 1636SOL    HW2 5808   0.721   5.696   4.738 -3.0614 -2.3217 -1.7477
 1637SOL     OW 5809   4.660   1.438   6.576 -0.4801 -0.5330  0.3778
 1637SOL    HW1 5810   4.669   1.493   6.493  1.8806 -0.5550  0.5444
 1637SOL    HW2 5811   4.563   1.424   6.596 -1.1455  1.5046 -1.0093
 1638SOL     OW 5812   2.298   1.005   6.280  0.3750  0.1922  0.1039
 1638SOL    HW1 5813   2.310   0.910   6.249 -0.3343  0.2577 -0.3898
 1638SOL    HW2 5814   2.318   1.011   6.378  2.3843 -0.0751 -0.2562
 1639SOL     OW 5815   0.059   0.008   5.587 -0.0846  0.1887 -0.1827
 1639SOL    HW1 5816   0.087  -0.016   5.495  0.9943  0.8266 -0.0361
 1639SOL    HW2 5817   0.111  -0.046   5.653 -0.3319  0.2488  0.0653
 1640SOL     OW 5818   5.947   1.115   4.836 -0.4969 -0.3340  0.2587
 1640SOL    HW1 5819   5.862   1.077   4.872 -0.0908 -0.7871  0.7725
 1640SOL    HW2 5820   5.930   1.206   4.797 -1.2751 -0.5699  0.0298
 1641SOL     OW 5821   2.501   3.718   6.187 -0.3057  0.1680  1.1029
 1641SOL    HW1 5822   2.480   3.759   6.099  0.2680 -0.7960  0.4979
 1641SOL    HW2 5823   2.551   3.784   6.243 -0.1921  0.6045  0.4991
 1642SOL     OW 5824   3.682   2.030   3.584 -0.4451  0.1159  0.3066
 1642SOL    HW1 5825   3.700   1.984   3.497  0.0710 -0.8602  0.9113
 1642SOL    HW2 5826   3.744   1.995   3.653 -0.0258  1.7666  0.7949
 1643SOL     OW 5827   0.672   2.325   4.879  0.6288 -0.0200 -0.2638
 1643SOL    HW1 5828   0.730   2.280   4.947  0.4686  1.3906  0.8658
 1643SOL    HW2 5829   0.653   2.419   4.909 -2.0986 -0.3696 -0.6803
 1644SOL     OW 5830   3.416   0.071   3.285  0.2711  0.4387 -0.0068
 1644SOL    HW1 5831   3.376   0.043   3.372 -1.4576  2.7135  0.0453
 1644SOL    HW2 5832   3.515   0.076   3.293  0.1171  1.0519  1.9755
 1645SOL     OW 5833   1.622   0.041   5.250 -0.2464 -0.3582  0.6998
 1645SOL    HW1 5834   1.527   0.052   5.280  0.0989 -1.6076  2.4254
 1645SOL    HW2 5835   1.628  -0.033   5.183 -0.6755  0.7930 -0.6622
 1646SOL     OW 5836   0.654   2.560   1.666  0.4866 -0.0023  0.3578
 1646SOL    HW1 5837   0.710   2.483   1.637  0.6276  0.6503 -1.2694
 1646SOL    HW2 5838   0.577   2.528   1.720  0.8562 -1.2186  0.1842
 1647SOL     OW 5839   6.429   6.102   2.842  0.4913  0.5806 -0.4015
 1647SOL    HW1 5840   6.457   6.028   2.781  0.0371  0.3264 -0.3103
 1647SOL    HW2 5841   6.333   6.125   2.824 -0.4033 -1.0709  1.7360
 1648SOL     OW 5842   6.073   4.643   6.315 -0.1580  0.4207 -0.3596
 1648SOL    HW1 5843   6.151   4.703   6.295  0.5569 -0.9950 -2.0916
 1648SOL    HW2 5844   6.099   4.578   6.387 -0.9192  2.0604  1.4880
 1649SOL     OW 5845   4.360   0.977   6.082  0.5309 -0.4523  0.5224
 1649SOL    HW1 5846   4.364   0.877   6.094  2.6380 -0.7071 -1.6969
 1649SOL    HW2 5847   4.295   1.015   6.149  0.9781 -3.0786  2.6525
 1650SOL     OW 5848   4.883   6.012   5.470  0.0733  0.5639 -0.3283
 1650SOL    HW1 5849   4.872   6.089   5.407  0.8876 -1.0413 -2.5789
 1650SOL    HW2 5850   4.980   5.994   5.484 -0.0788  1.1856  1.8810
 1651SOL     OW 5851   2.736   5.095   4.744 -0.3238 -0.0595 -0.3553
 1651SOL    HW1 5852   2.829   5.059   4.735 -1.4407 -3.3925 -0.0248
 1651SOL    HW2 5853   2.727   5.141   4.832  1.0472  0.5445 -0.4960
 1652SOL     OW 5854   6.119   2.373   1.420  0.6666  0.1146  0.2026
 1652SOL    HW1 5855   6.067   2.410   1.342  0.8144  0.9596  0.4887
 1652SOL    HW2 5856   6.145   2.448   1.481  0.1467 -0.5843  1.3254
 1653SOL     OW 5857   4.923   6.318   4.343 -0.6315 -0.6181  0.0273
 1653SOL    HW1 5858   4.875   6.402   4.319 -1.6901 -0.7279  1.5863
 1653SOL    HW2 5859   4.969   6.331   4.432 -1.2051 -1.8235  0.5116
 1654SOL     OW 5860   3.305   6.393   2.436 -0.5122  0.1852 -1.2103
 1654SOL    HW1 5861   3.234   6.452   2.474 -0.5826  0.3687 -1.6207
 1654SOL    HW2 5862   3.276   6.297   2.441 -0.1231  0.1096  0.0643
 1655SOL     OW 5863   6.981   2.426   0.462 -0.1242 -0.0767 -0.1045
 1655SOL    HW1 5864   6.904   2.363   0.458  1.1897 -1.8433  0.7845
 1655SOL    HW2 5865   7.067   2.374   0.452  0.9891  1.6848 -0.1110
 1656SOL     OW 5866   1.409   3.674   1.842  0.2489  0.4159 -0.2556
 1656SOL    HW1 5867   1.338   3.606   1.827 -0.2289  1.4295 -3.2029
 1656SOL    HW2 5868   1.495   3.628   1.865 -0.1689 -1.1759 -1.7375
 1657SOL     OW 5869   4.631   6.968   4.781  0.0273 -0.2811  0.0735
 1657SOL    HW1 5870   4.556   6.991   4.842  0.6240  2.1785 -0.0319
 1657SOL    HW2 5871   4.609   6.999   4.688  0.3500 -1.3700 -0.3845
 1658SOL     OW 5872   6.475   2.578   1.957 -0.4315 -0.4148 -0.3478
 1658SOL    HW1 5873   6.441   2.561   2.050 -2.5199 -0.5313 -1.0748
 1658SOL    HW2 5874   6.494   2.491   1.912 -2.4649 -0.5727 -1.0323
 1659SOL     OW 5875   4.438   1.393   3.236 -0.7984  0.6054 -0.3871
 1659SOL    HW1 5876   4.479   1.405   3.145 -0.7177 -2.9299 -0.9498
 1659SOL    HW2 5877   4.510   1.398   3.305 -0.3169  0.0470 -0.8382
 1660SOL     OW 5878   6.855   2.024   2.559  0.3801  0.1434 -0.0893
 1660SOL    HW1 5879   6.934   2.081   2.582 -0.3470  0.9010  0.6180
 1660SOL    HW2 5880   6.817   1.985   2.643  0.0724 -0.3069 -0.4336
 1661SOL     OW 5881   3.422   6.642   3.017 -0.2771 -0.2011  0.1146
 1661SOL    HW1 5882   3.483   6.628   2.939 -1.2102  0.6579 -0.8026
 1661SOL    HW2 5883   3.367   6.560   3.032  2.5154 -1.8455  2.3277
 1662SOL     OW 5884   5.526   0.046   3.745  0.0250  0.0114 -0.2580
 1662SOL    HW1 5885   5.622   0.074   3.753  0.4231 -1.0277 -1.1194
 1662SOL    HW2 5886   5.514  -0.043   3.789 -0.5872  0.1974 -0.0417
 1663SOL     OW 5887   0.496   4.648   0.589 -0.1583 -0.1095 -0.0220
 1663SOL    HW1 5888   0.405   4.610   0.608 -0.1833 -0.2460 -0.4156
 1663SOL    HW2 5889   0.563   4.574   0.587 -0.1644 -0.1026 -0.5253
 1664SOL     OW 5890   3.912   3.466   5.425  0.4009 -0.0220  0.1815
 1664SOL    HW1 5891   3.862   3.485   5.341  1.4229 -0.7460 -0.6248
 1664SOL    HW2 5892   3.876   3.383   5.468 -0.6644  0.8055  0.9208
 1665SOL     OW 5893   6.855   1.942   4.310  0.1270  0.1425 -0.2173
 1665SOL    HW1 5894   6.775   1.893   4.344 -0.5793  1.1005 -0.4655
 1665SOL    HW2 5895   6.887   1.900   4.225  1.5146 -1.8720  1.2177
 1666SOL     OW 5896   2.964   2.020   4.216 -0.4513  0.4180  0.6260
 1666SOL    HW1 5897   2.929   1.957   4.146  1.6449 -0.0428 -0.0977
 1666SOL    HW2 5898   3.032   1.972   4.273  1.2991  1.9941 -0.0156
 1667SOL     OW 5899   5.065   3.413   0.903 -0.4463  0.0475 -0.5077
 1667SOL    HW1 5900   5.073   3.314   0.899 -1.1948 -0.0504  0.2255
 1667SOL    HW2 5901   5.037   3.441   0.995  0.7825  1.0155 -0.4012
 1668SOL     OW 5902   6.008   1.104   0.879 -0.1945 -0.0594  0.1972
 1668SOL    HW1 5903   6.096   1.137   0.846  0.2730 -2.3907 -1.0558
 1668SOL    HW2 5904   6.015   1.008   0.905 -2.3706 -0.3294  0.0011
 1669SOL     OW 5905   1.377   6.142   6.570  0.0909  0.0316  0.1340
 1669SOL    HW1 5906   1.367   6.077   6.495  1.4329  0.1275 -0.1559
 1669SOL    HW2 5907   1.296   6.200   6.574 -0.2713 -0.3741 -0.8488
 1670SOL     OW 5908   2.389   4.422   6.492 -0.2767  0.2221  0.2880
 1670SOL    HW1 5909   2.377   4.473   6.577  0.5379  2.3438 -0.7945
 1670SOL    HW2 5910   2.357   4.328   6.504  1.0049  0.0945  3.2736
 1671SOL     OW 5911   2.050   3.740   1.572  0.0500 -0.1472 -0.2270
 1671SOL    HW1 5912   2.132   3.748   1.628  0.2047 -0.3215 -0.4245
 1671SOL    HW2 5913   1.969   3.744   1.630  0.2120 -0.4381  0.0214
 1672SOL     OW 5914   5.919   4.185   5.254 -0.2941  0.5819 -0.4147
 1672SOL    HW1 5915   5.869   4.259   5.210 -2.8808 -1.3122 -0.8708
 1672SOL    HW2 5916   5.911   4.193   5.353  0.7501  1.7064 -0.3958
 1673SOL     OW 5917   5.561   6.610   5.467 -0.1883 -0.0911 -0.4413
 1673SOL    HW1 5918   5.496   6.649   5.402 -1.5539 -0.8178  0.4582
 1673SOL    HW2 5919   5.519   6.602   5.557  1.4293  0.1906  0.3781
 1674SOL     OW 5920   1.870   4.313   3.759 -0.3431 -0.5943 -0.8375
 1674SOL    HW1 5921   1.808   4.382   3.723  0.1663 -0.0399 -0.6602
 1674SOL    HW2 5922   1.894   4.335   3.853 -1.0666 -1.6265 -0.3883
 1675SOL     OW 5923   2.957   1.186   2.602  0.0086 -0.4172  0.2095
 1675SOL    HW1 5924   2.992   1.094   2.619  1.2464  0.0538  0.3055
 1675SOL    HW2 5925   2.984   1.246   2.677  1.3557  0.5778 -1.0209
 1676SOL     OW 5926   5.075   5.436   5.285 -0.4546 -0.0017 -0.1350
 1676SOL    HW1 5927   5.079   5.453   5.384 -0.8821  2.8070 -0.5114
 1676SOL    HW2 5928   5.168   5.429   5.249 -0.2868 -0.5322  0.3800
 1677SOL     OW 5929   4.809   1.815   0.938 -0.4489  0.3869 -0.1940
 1677SOL    HW1 5930   4.772   1.776   1.022 -0.7665 -1.2368 -1.0483
 1677SOL    HW2 5931   4.753   1.892   0.908 -1.5385 -0.3194 -0.0015
 1678SOL     OW 5932   4.469   1.641   0.300 -0.0361 -0.3592  0.1649
 1678SOL    HW1 5933   4.386   1.696   0.297 -0.0618 -0.4092 -0.1312
 1678SOL    HW2 5934   4.466   1.578   0.377 -0.8829 -1.3100 -0.6202
 1679SOL     OW 5935   4.789   0.609   1.542  0.1523  0.1622  0.5095
 1679SOL    HW1 5936   4.834   0.662   1.470 -0.6590 -1.3033 -1.1673
 1679SOL    HW2 5937   4.854   0.587   1.614  1.3639  0.5557 -0.4346
 1680SOL     OW 5938   6.760   6.653   4.106  0.1201  0.2495  0.3013
 1680SOL    HW1 5939   6.816   6.572   4.125  0.3838  0.3070 -0.2235
 1680SOL    HW2 5940   6.818   6.735   4.113 -0.0654  0.3697  0.4676
 1681SOL     OW 5941   4.806   5.557   4.915  0.4625 -0.2950  0.0710
 1681SOL    HW1 5942   4.851   5.515   4.836 -0.8957 -2.1656  0.2209
 1681SOL    HW2 5943   4.844   5.518   4.999  1.3775  1.1358  0.3462
 1682SOL     OW 5944   4.931   4.395   5.718 -0.0610  0.0068  0.0351
 1682SOL    HW1 5945   4.876   4.411   5.800  0.4714 -0.6421  0.5306
 1682SOL    HW2 5946   4.966   4.482   5.683 -2.0165  0.5303 -0.7482
 1683SOL     OW 5947   6.943   6.715   6.436  0.0679  0.2985  0.1933
 1683SOL    HW1 5948   6.917   6.619   6.443  0.3177  0.2864  1.1877
 1683SOL    HW2 5949   6.988   6.732   6.349  1.5229 -0.8706  0.6702
 1684SOL     OW 5950   6.482   2.037   5.829 -0.1202  0.1186  0.5832
 1684SOL    HW1 5951   6.581   2.031   5.840 -0.0401  0.8863  0.3733
 1684SOL    HW2 5952   6.439   2.034   5.919  0.1815  1.0157  0.7723
 1685SOL     OW 5953   3.589   2.983   6.971  0.2239 -0.2016 -0.2888
 1685SOL    HW1 5954   3.678   2.996   7.014  0.3539 -0.0919 -0.5901
 1685SOL    HW2 5955   3.558   3.069   6.931 -0.5589  0.0736  0.8291
 1686SOL     OW 5956   4.367   4.656   5.640 -0.3663  0.1542  0.3136
 1686SOL    HW1 5957   4.361   4.687   5.545 -3.3079 -2.0057 -0.3708
 1686SOL    HW2 5958   4.281   4.675   5.686  1.3496  2.0517  2.9541
 1687SOL     OW 5959   1.310   2.953   5.385 -0.2010  0.0884 -0.6283
 1687SOL    HW1 5960   1.265   3.011   5.454 -2.5764 -2.4323  0.1211
 1687SOL    HW2 5961   1.392   2.913   5.425  0.1303  1.0197 -0.3349
 1688SOL     OW 5962   0.215   2.012   0.266 -0.3030  0.2292 -0.1846
 1688SOL    HW1 5963   0.199   1.925   0.313  1.1146 -0.4910 -1.0047
 1688SOL    HW2 5964   0.159   2.016   0.183  1.2770 -0.9199 -1.3584
 1689SOL     OW 5965   6.936   6.007   2.160 -0.2936 -0.4426  0.1824
 1689SOL    HW1 5966   6.873   6.038   2.088  1.2611  2.3214 -0.1212
 1689SOL    HW2 5967   7.026   6.048   2.145 -0.2843  1.6067  4.5216
 1690SOL     OW 5968   4.303   5.397   4.072  0.1890  0.8235 -0.2393
 1690SOL    HW1 5969   4.263   5.469   4.016 -1.1616  1.3573  1.3291
 1690SOL    HW2 5970   4.241   5.318   4.074 -0.3048  1.2192  1.3121
 1691SOL     OW 5971   3.343   0.571   5.027  0.0705 -0.7189 -0.2108
 1691SOL    HW1 5972   3.270   0.546   5.090  1.6040 -1.8579  1.1899
 1691SOL    HW2 5973   3.318   0.544   4.934 -1.2863 -1.0602  0.2362
 1692SOL     OW 5974   6.585   2.281   2.814 -0.3591  0.1232  0.3548
 1692SOL    HW1 5975   6.506   2.300   2.871 -0.1831  2.2696 -0.0189
 1692SOL    HW2 5976   6.669   2.289   2.869 -0.3507 -3.0536  0.9757
 1693SOL     OW 5977   2.987   5.691   2.757 -0.4558 -0.0852  0.4768
 1693SOL    HW1 5978   2.962   5.787   2.755  0.0913  0.0512  0.0732
 1693SOL    HW2 5979   2.982   5.652   2.665  2.8162  0.4964 -0.0740
 1694SOL     OW 5980   4.136   6.384   0.480 -0.0618  0.2241 -0.0201
 1694SOL    HW1 5981   4.163   6.319   0.551  2.5134  1.7464  0.4835
 1694SOL    HW2 5982   4.078   6.455   0.520  1.4036  1.0941  0.6565
 1695SOL     OW 5983   4.006   0.997   5.800 -0.0258  0.3735  0.5772
 1695SOL    HW1 5984   3.985   0.977   5.895  1.1286  0.1135  0.7897
 1695SOL    HW2 5985   3.936   0.957   5.741 -1.5971  1.8215  1.3684
 1696SOL     OW 5986   6.565   4.953   4.046 -0.2821  0.1114 -0.0277
 1696SOL    HW1 5987   6.606   4.934   4.135  1.0895  0.4124 -0.5573
 1696SOL    HW2 5988   6.533   5.048   4.043  1.8881  0.8978 -0.5994
 1697SOL     OW 5989   3.592   1.499   2.975  0.5113  0.3886 -0.2435
 1697SOL    HW1 5990   3.654   1.441   3.029 -2.1425 -0.3016  2.3103
 1697SOL    HW2 5991   3.571   1.581   3.028 -0.1022  1.0176 -1.4480
 1698SOL     OW 5992   5.897   0.490   4.386  0.1145  0.4864 -0.2682
 1698SOL    HW1 5993   5.816   0.465   4.332 -0.3155  2.2335 -0.5099
 1698SOL    HW2 5994   5.942   0.569   4.344  0.6754  0.9156  1.0753
 1699SOL     OW 5995   5.759   1.186   4.125  0.2648 -0.0033  0.2223
 1699SOL    HW1 5996   5.806   1.105   4.090 -0.7993  0.4270 -2.3982
 1699SOL    HW2 5997   5.707   1.161   4.207  0.5612 -1.7895 -0.0928
 1700SOL     OW 5998   6.758   4.098   5.493 -0.3907 -0.0703  0.4414
 1700SOL    HW1 5999   6.698   4.019   5.481 -0.6203  0.0946  0.4870
 1700SOL    HW2 6000   6.725   4.153   5.570 -0.4251  0.2449  0.2056
 1701SOL     OW 6001   5.620   2.981   0.940  0.6192 -0.0967  0.2098
 1701SOL    HW1 6002   5.674   3.031   0.872 -1.2754  0.7499 -0.7323
 1701SOL    HW2 6003   5.596   3.043   1.015  0.0581 -0.1776  0.0973
 1702SOL     OW 6004   4.606   2.794   6.623  0.0696  0.1946  0.0531
 1702SOL    HW1 6005   4.580   2.883   6.585  1.1395  0.9699  1.0819
 1702SOL    HW2 6006   4.684   2.805   6.684 -0.5680 -1.2711  1.1945
 1703SOL     OW 6007   3.128   1.441   4.794  0.0674  0.0057 -0.1246
 1703SOL    HW1 6008   3.147   1.357   4.845  0.3035  1.1009  1.7083
 1703SOL    HW2 6009   3.072   1.502   4.851  0.8521  1.5396 -0.9402
 1704SOL     OW 6010   3.339   3.026   4.922  0.1607  0.6027 -0.2189
 1704SOL    HW1 6011   3.358   2.966   5.000  0.6360 -0.6188 -1.2507
 1704SOL    HW2 6012   3.325   2.971   4.840 -1.8313  1.7865 -0.7298
 1705SOL     OW 6013   3.394   0.939   3.161 -0.5412 -0.3018  0.3011
 1705SOL    HW1 6014   3.320   0.994   3.123 -1.9152 -2.4997 -0.3769
 1705SOL    HW2 6015   3.364   0.896   3.246  0.4060 -0.2923  0.6620
 1706SOL     OW 6016   0.800   1.765   4.639 -0.1875  0.1030  0.3515
 1706SOL    HW1 6017   0.769   1.859   4.655 -0.5113  0.7632 -3.2823
 1706SOL    HW2 6018   0.900   1.763   4.632 -0.2505  0.4670 -0.8470
 1707SOL     OW 6019   5.364   2.774   4.535  0.1463 -0.3766  0.5984
 1707SOL    HW1 6020   5.339   2.825   4.617  0.8966  2.8312 -1.0165
 1707SOL    HW2 6021   5.451   2.727   4.550  0.9961  1.3215  1.2730
 1708SOL     OW 6022   4.750   0.175   4.159 -0.1712 -1.0193 -0.7776
 1708SOL    HW1 6023   4.662   0.127   4.164  0.2173 -1.7706 -0.8827
 1708SOL    HW2 6024   4.746   0.246   4.089 -1.1800  0.0191  0.2925
 1709SOL     OW 6025   3.416   4.880   5.768 -0.2997 -0.2666  0.2261
 1709SOL    HW1 6026   3.447   4.805   5.827  1.2100  0.4004  0.3409
 1709SOL    HW2 6027   3.426   4.967   5.817 -2.1967  0.0286  0.1618
 1710SOL     OW 6028   2.155   6.178   0.103 -0.0194 -0.0219  0.3154
 1710SOL    HW1 6029   2.068   6.220   0.128  0.5698 -0.0785  2.7100
 1710SOL    HW2 6030   2.156   6.082   0.131  0.5853 -0.2046 -0.2874
 1711SOL     OW 6031   1.816   4.776   5.039  0.0770 -0.1415 -0.1281
 1711SOL    HW1 6032   1.796   4.870   5.066  1.6524 -0.0485  0.8388
 1711SOL    HW2 6033   1.823   4.719   5.120  1.3508 -0.6108 -0.5351
 1712SOL     OW 6034   5.217   0.965   1.000  0.0681  0.2850  0.8205
 1712SOL    HW1 6035   5.300   0.990   0.951  0.0654 -0.2103  0.5642
 1712SOL    HW2 6036   5.137   1.003   0.952  0.2278  2.1624  1.9441
 1713SOL     OW 6037   4.999   6.075   4.229  0.0229  0.1854  0.0964
 1713SOL    HW1 6038   4.986   6.166   4.268  3.0826  0.5963  0.4565
 1713SOL    HW2 6039   5.012   6.083   4.130  1.7599  0.4239  0.2989
 1714SOL     OW 6040   5.914   2.040   3.769 -0.1722 -0.8582  0.3392
 1714SOL    HW1 6041   6.011   2.018   3.769 -0.3229 -1.5525 -0.5607
 1714SOL    HW2 6042   5.860   1.956   3.779 -0.7100 -0.7260 -1.1898
 1715SOL     OW 6043   1.737   4.206   6.453 -0.1807  0.4297  0.3894
 1715SOL    HW1 6044   1.805   4.146   6.494 -0.4989 -0.6089 -0.5360
 1715SOL    HW2 6045   1.689   4.157   6.380 -2.6381  0.7646  1.6646
 1716SOL     OW 6046   0.160   4.372   4.765 -0.6223  0.2261 -0.7235
 1716SOL    HW1 6047   0.234   4.339   4.824 -1.2791 -0.9294 -0.5176
 1716SOL    HW2 6048   0.141   4.305   4.693 -0.9874  0.8402 -1.2132
 1717SOL     OW 6049   3.542   0.378   5.333 -0.2290  0.4009  0.1846
 1717SOL    HW1 6050   3.595   0.299   5.364 -0.8213 -0.0590  0.0421
 1717SOL    HW2 6051   3.545   0.449   5.403  2.5983  1.3880 -0.7905
 1718SOL     OW 6052   6.365   3.831   1.945 -0.0279 -0.0408 -0.0472
 1718SOL    HW1 6053   6.352   3.732   1.949 -0.1544  0.0187  1.2712
 1718SOL    HW2 6054   6.277   3.877   1.957  0.3005  0.2520  1.3818
 1719SOL     OW 6055   4.830   4.140   4.480 -0.4614 -0.2022  0.0734
 1719SOL    HW1 6056   4.899   4.156   4.551  0.4131 -0.8528 -0.6080
 1719SOL    HW2 6057   4.762   4.213   4.484  0.6380  0.8584  0.3215
 1720SOL     OW 6058   0.433   0.198   5.115  0.2459  0.5867 -0.2587
 1720SOL    HW1 6059   0.336   0.219   5.127  0.4518  1.3562  0.0920
 1720SOL    HW2 6060   0.462   0.221   5.022 -0.0518 -0.2431 -0.5660
 1721SOL     OW 6061   5.432   3.970   5.019  0.2459  0.4870 -0.7156
 1721SOL    HW1 6062   5.473   3.972   4.928 -0.0831  2.7449 -0.8730
 1721SOL    HW2 6063   5.460   4.051   5.070 -2.4472  1.1615 -0.1360
 1722SOL     OW 6064   2.444   0.988   3.452 -0.1643  0.0743  0.5336
 1722SOL    HW1 6065   2.472   0.904   3.498  1.7515  0.6766  0.5586
 1722SOL    HW2 6066   2.468   0.983   3.355  1.2632  1.0846  0.7961
 1723SOL     OW 6067   4.963   3.930   1.970  0.4147 -0.8010  0.5634
 1723SOL    HW1 6068   4.976   3.998   2.042  0.5540 -0.7649  0.5049
 1723SOL    HW2 6069   4.950   3.840   2.011 -0.1767 -0.6784  0.6555
 1724SOL     OW 6070   1.570   0.551   4.984  0.4303  0.5797  0.0816
 1724SOL    HW1 6071   1.617   0.463   4.994 -0.9880 -0.0617  1.5040
 1724SOL    HW2 6072   1.638   0.624   4.983  1.5420 -0.4045  0.6316
 1725SOL     OW 6073   1.201   4.871   6.872 -0.2952 -0.3033  0.1758
 1725SOL    HW1 6074   1.198   4.858   6.773 -0.8282 -1.2888  0.3028
 1725SOL    HW2 6075   1.248   4.956   6.894  1.1846 -0.8225 -0.8601
 1726SOL     OW 6076   0.817   3.149   2.856 -0.1220  0.5451  0.2003
 1726SOL    HW1 6077   0.870   3.218   2.806 -1.8878  1.2787 -0.7745
 1726SOL    HW2 6078   0.848   3.145   2.951  0.6243  2.0546  0.0506
 1727SOL     OW 6079   0.148   4.100   3.713 -0.3545 -0.1411 -0.1422
 1727SOL    HW1 6080   0.122   4.022   3.769 -0.1879 -0.1748 -0.1127
 1727SOL    HW2 6081   0.119   4.084   3.619  0.3536 -0.5737 -0.2926
 1728SOL     OW 6082   1.084   4.192   4.793  0.2378  0.4345 -0.4769
 1728SOL    HW1 6083   1.089   4.182   4.892  2.7790 -0.7297 -0.6379
 1728SOL    HW2 6084   1.043   4.281   4.770 -1.8872  0.0487  1.5219
 1729SOL     OW 6085   2.192   1.023   5.949 -1.0470 -0.6185  0.5412
 1729SOL    HW1 6086   2.158   1.116   5.945 -0.0109 -0.2558 -0.3010
 1729SOL    HW2 6087   2.234   1.006   6.038 -0.4518  0.0203  0.3889
 1730SOL     OW 6088   6.791   2.891   3.307 -0.1777  0.1398  0.2520
 1730SOL    HW1 6089   6.764   2.892   3.210 -1.0478  0.8212  0.4927
 1730SOL    HW2 6090   6.845   2.809   3.325  1.7857  1.0129 -1.2897
 1731SOL     OW 6091   5.091   3.446   2.355  0.5077 -0.3346  0.4963
 1731SOL    HW1 6092   5.024   3.491   2.415 -0.5022  0.7601 -1.3692
 1731SOL    HW2 6093   5.048   3.426   2.267  2.3025 -0.7220 -0.3256
 1732SOL     OW 6094   2.767   5.177   2.776 -0.1915 -0.0109 -0.4399
 1732SOL    HW1 6095   2.670   5.152   2.773 -0.2362 -0.0445  0.9132
 1732SOL    HW2 6096   2.822   5.100   2.743 -0.5564 -0.4583 -0.0128
 1733SOL     OW 6097   2.497   5.656   6.361  0.6454 -0.5228 -0.0573
 1733SOL    HW1 6098   2.596   5.673   6.365  0.8886 -1.0950 -2.3120
 1733SOL    HW2 6099   2.480   5.558   6.361  0.4846 -0.6691 -3.9740
 1734SOL     OW 6100   1.739   5.520   0.163 -0.6449 -0.7364 -0.5532
 1734SOL    HW1 6101   1.724   5.422   0.149  1.7541 -1.1532 -0.4699
 1734SOL    HW2 6102   1.726   5.543   0.260  1.0898 -1.4469 -0.1315
 1735SOL     OW 6103   4.068   3.218   2.668 -0.2080 -0.6979 -0.4816
 1735SOL    HW1 6104   4.043   3.158   2.744  0.7496 -0.7821 -0.2296
 1735SOL    HW2 6105   4.112   3.164   2.596  1.5920 -0.1809  0.1718
 1736SOL     OW 6106   2.411   1.048   4.791  0.4327 -0.5853 -0.1418
 1736SOL    HW1 6107   2.485   1.115   4.781 -0.4205  0.3452 -0.4220
 1736SOL    HW2 6108   2.323   1.093   4.774 -0.1499 -1.8512 -0.5899
 1737SOL     OW 6109   2.260   3.031   4.481  0.2685  0.2079 -0.3520
 1737SOL    HW1 6110   2.283   2.975   4.401  0.7090 -0.2758  0.0983
 1737SOL    HW2 6111   2.229   3.121   4.452 -0.2322 -0.1973 -1.0865
 1738SOL     OW 6112   4.439   6.692   0.927  0.2349  0.2349 -0.3651
 1738SOL    HW1 6113   4.538   6.698   0.911  0.9113 -0.8990  2.6988
 1738SOL    HW2 6114   4.401   6.784   0.935  1.4139  0.6988  0.2166
 1739SOL     OW 6115   6.540   3.976   2.244  0.1312  0.2459  0.3813
 1739SOL    HW1 6116   6.567   3.880   2.237 -0.5888  0.0155  0.6576
 1739SOL    HW2 6117   6.622   4.033   2.253  0.5563 -0.3574  0.4306
 1740SOL     OW 6118   1.618   6.668   6.533  0.2075  0.9126 -0.0457
 1740SOL    HW1 6119   1.540   6.718   6.571 -0.3961 -1.0348  1.4596
 1740SOL    HW2 6120   1.695   6.673   6.597  0.2237  0.1359  0.0002
 1741SOL     OW 6121   1.703   6.720   1.651 -0.1919  0.4349  0.2456
 1741SOL    HW1 6122   1.716   6.746   1.556  0.1412  2.4865  0.7992
 1741SOL    HW2 6123   1.605   6.711   1.671 -0.2632  0.0821 -0.2741
 1742SOL     OW 6124   3.968   5.791   6.215  0.0324 -0.3446  0.0567
 1742SOL    HW1 6125   4.045   5.806   6.278  2.0676 -0.9534 -2.1341
 1742SOL    HW2 6126   3.910   5.872   6.213  0.4445  0.0478  1.9604
 1743SOL     OW 6127   3.006   4.844   5.589  0.4675  0.0064 -0.9126
 1743SOL    HW1 6128   2.961   4.799   5.512  0.3977  0.1729 -0.9700
 1743SOL    HW2 6129   3.055   4.776   5.643  0.4011 -0.1320 -1.0249
 1744SOL     OW 6130   1.090   1.714   4.661 -0.0697 -0.1672  0.3009
 1744SOL    HW1 6131   1.102   1.618   4.687 -2.3392 -0.4999  0.3419
 1744SOL    HW2 6132   1.108   1.772   4.740 -0.3276 -0.6906  0.7508
 1745SOL     OW 6133   4.773   4.348   6.988  0.0192  0.3718 -0.2262
 1745SOL    HW1 6134   4.863   4.375   7.021 -0.5416  1.0231  0.8427
 1745SOL    HW2 6135   4.710   4.340   7.066 -0.9261  0.2483 -0.9854
 1746SOL     OW 6136   6.800   3.769   5.865  0.2921 -0.3242 -0.1709
 1746SOL    HW1 6137   6.712   3.812   5.883  0.4715 -0.7872  2.0922
 1746SOL    HW2 6138   6.845   3.816   5.789 -1.1734  0.9603 -0.3049
 1747SOL     OW 6139   5.678   1.305   4.508 -0.0131  0.0880  0.4035
 1747SOL    HW1 6140   5.626   1.270   4.586  1.2288 -1.3824  0.6365
 1747SOL    HW2 6141   5.690   1.232   4.441  1.5158  0.4355  0.2583
 1748SOL     OW 6142   0.862   2.182   4.107  0.3396 -0.5322  0.1872
 1748SOL    HW1 6143   0.792   2.222   4.048  1.8249 -0.9977 -2.0092
 1748SOL    HW2 6144   0.895   2.251   4.171 -0.6917  0.2493 -0.0884
 1749SOL     OW 6145   6.298   2.204   6.907  0.3994 -0.4217  0.0241
 1749SOL    HW1 6146   6.279   2.180   7.002 -1.1758  0.6993  0.0268
 1749SOL    HW2 6147   6.325   2.122   6.857 -0.0338 -1.2751  1.1420
 1750SOL     OW 6148   6.985   3.849   1.522  0.4711  0.0951  0.3813
 1750SOL    HW1 6149   6.895   3.886   1.496  0.4576 -1.3027 -1.8081
 1750SOL    HW2 6150   6.973   3.765   1.574  0.4506 -0.8262 -1.0537
 1751SOL     OW 6151   3.851   5.008   1.500  0.1085  0.3809 -0.1784
 1751SOL    HW1 6152   3.852   4.931   1.436  2.0738 -0.5385  0.8628
 1751SOL    HW2 6153   3.763   5.012   1.546 -0.9618  0.4189 -2.1228
 1752SOL     OW 6154   3.641   2.492   0.867  0.0210 -0.0374  0.0763
 1752SOL    HW1 6155   3.723   2.549   0.870 -1.0690  1.7377 -1.7674
 1752SOL    HW2 6156   3.581   2.522   0.792 -2.1120 -1.5699  1.0490
 1753SOL     OW 6157   1.179   5.636   2.146 -0.0085  0.3159  0.0934
 1753SOL    HW1 6158   1.095   5.647   2.093  0.8572  0.6223 -1.2859
 1753SOL    HW2 6159   1.225   5.551   2.119 -0.4667 -0.4908  1.7304
 1754SOL     OW 6160   6.086   6.356   2.930  0.5053 -0.5320  0.5198
 1754SOL    HW1 6161   6.039   6.310   3.006 -2.7596  0.2793 -0.8299
 1754SOL    HW2 6162   6.105   6.290   2.858 -2.6732 -0.2860 -0.7170
 1755SOL     OW 6163   0.558   3.640   2.223 -0.0197  0.3625  0.3768
 1755SOL    HW1 6164   0.632   3.705   2.204  0.7359 -0.8055 -0.8402
 1755SOL    HW2 6165   0.586   3.579   2.297  0.2709 -0.1096 -0.1153
 1756SOL     OW 6166   2.962   1.568   0.537 -0.1197 -0.2817  0.3986
 1756SOL    HW1 6167   3.017   1.606   0.611  1.3502  1.9902 -1.6829
 1756SOL    HW2 6168   2.880   1.624   0.525  0.2065  0.0477 -0.3595
 1757SOL     OW 6169   5.324   1.046   3.724  0.3548  0.1444  0.0029
 1757SOL    HW1 6170   5.293   0.972   3.783  1.9442  0.4420  1.2853
 1757SOL    HW2 6171   5.245   1.098   3.691 -0.6066 -0.0510  1.8640
 1758SOL     OW 6172   3.346   1.494   2.000  0.1911  0.2435  0.0241
 1758SOL    HW1 6173   3.415   1.462   1.935 -0.4332  0.3057 -0.6940
 1758SOL    HW2 6174   3.258   1.451   1.978  0.2879 -0.9757  1.8319
 1759SOL     OW 6175   1.068   4.858   2.617  0.7184 -0.5614 -0.2490
 1759SOL    HW1 6176   1.099   4.781   2.672  2.9230 -1.2474 -2.2815
 1759SOL    HW2 6177   1.107   4.851   2.525 -1.7745  1.1869 -1.5529
 1760SOL     OW 6178   1.778   6.348   1.919 -0.3523  0.7005  0.0838
 1760SOL    HW1 6179   1.863   6.352   1.973 -1.0553 -1.2211  1.4256
 1760SOL    HW2 6180   1.725   6.431   1.935  0.3779  1.0527  0.7672
 1761SOL     OW 6181   0.129   1.218   5.750 -0.0177 -0.2278  0.5500
 1761SOL    HW1 6182   0.083   1.144   5.701  0.2974 -1.2036  1.6859
 1761SOL    HW2 6183   0.101   1.306   5.712 -2.3844 -0.8017  0.8395
 1762SOL     OW 6184   6.329   6.883   2.945 -0.4139  0.3529 -0.1342
 1762SOL    HW1 6185   6.409   6.862   3.000 -0.7120  0.7456  0.4520
 1762SOL    HW2 6186   6.326   6.981   2.926 -0.0317  0.1636 -1.3013
 1763SOL     OW 6187   7.018   0.822   4.084 -0.2422 -0.5044  0.1924
 1763SOL    HW1 6188   7.014   0.758   4.160 -1.6032 -0.5251  0.1386
 1763SOL    HW2 6189   7.108   0.866   4.081  0.8464 -2.6267  0.0254
 1764SOL     OW 6190   6.958   4.164   4.867  0.3084  1.0677 -0.1974
 1764SOL    HW1 6191   7.005   4.213   4.793 -0.5447  1.4419 -0.5070
 1764SOL    HW2 6192   6.876   4.215   4.895  1.3451  1.6435  1.9828
 1765SOL     OW 6193   1.359   5.253   0.945 -0.2747  0.8005 -0.7870
 1765SOL    HW1 6194   1.298   5.331   0.934 -1.9266 -0.2656  0.2617
 1765SOL    HW2 6195   1.336   5.205   1.030  0.7702 -0.7502 -1.3408
 1766SOL     OW 6196   6.023   5.137   0.628 -0.5062  0.3689  0.5062
 1766SOL    HW1 6197   6.045   5.043   0.654  0.1177 -0.0344 -1.3322
 1766SOL    HW2 6198   5.947   5.170   0.684 -1.4414 -1.5963  0.4893
 1767SOL     OW 6199   6.689   6.596   5.930  0.0142 -0.1867  0.1508
 1767SOL    HW1 6200   6.788   6.602   5.927  0.0783 -1.1604 -2.5339
 1767SOL    HW2 6201   6.661   6.503   5.906 -1.5732  0.5075 -0.8257
 1768SOL     OW 6202   0.208   2.869   3.052 -0.0899  0.5101 -0.0426
 1768SOL    HW1 6203   0.273   2.862   2.977  1.4561  0.7305  1.2228
 1768SOL    HW2 6204   0.197   2.778   3.094 -2.3524 -0.0123 -1.6077
 1769SOL     OW 6205   1.340   1.747   3.191 -0.5913  0.4478 -0.3391
 1769SOL    HW1 6206   1.380   1.838   3.176 -0.0509 -0.1288 -2.7012
 1769SOL    HW2 6207   1.397   1.678   3.148 -2.1066 -0.8094 -0.4054
 1770SOL     OW 6208   3.614   5.471   0.241 -0.4236 -0.1336 -0.7191
 1770SOL    HW1 6209   3.670   5.521   0.175 -0.2146  0.3994 -0.1455
 1770SOL    HW2 6210   3.668   5.449   0.322 -1.3222  1.4302  0.3582
 1771SOL     OW 6211   0.722   3.008   1.687 -0.2057 -0.3132 -0.2334
 1771SOL    HW1 6212   0.797   3.026   1.751 -1.2381  0.4339  0.8315
 1771SOL    HW2 6213   0.739   2.923   1.638  1.6769  0.2025 -0.5629
 1772SOL     OW 6214   2.407   5.953   1.414 -0.0618  0.5249 -0.4873
 1772SOL    HW1 6215   2.463   5.931   1.494  0.4573 -0.1847 -1.0278
 1772SOL    HW2 6216   2.350   5.875   1.390 -1.2763  1.2282  0.0285
 1773SOL     OW 6217   4.507   5.823   2.466 -0.1439 -0.2091  0.3410
 1773SOL    HW1 6218   4.598   5.839   2.426 -0.5707  0.4112 -0.4046
 1773SOL    HW2 6219   4.503   5.863   2.557  0.5693 -0.8945  0.6880
 1774SOL     OW 6220   1.590   3.614   4.632 -0.4431 -0.3214 -0.4761
 1774SOL    HW1 6221   1.609   3.590   4.537 -0.3834  0.3095 -0.6244
 1774SOL    HW2 6222   1.671   3.654   4.673 -0.1764 -1.4242  0.1226
 1775SOL     OW 6223   4.917   2.071   2.057 -0.2462  0.1238  0.6312
 1775SOL    HW1 6224   4.942   1.977   2.079  0.0108  0.0706  0.1377
 1775SOL    HW2 6225   4.914   2.125   2.140  1.7426  0.1727  0.7156
 1776SOL     OW 6226   2.356   2.841   1.192  0.3362 -0.0899  0.3378
 1776SOL    HW1 6227   2.430   2.855   1.258  0.6364 -1.6935  0.3916
 1776SOL    HW2 6228   2.387   2.869   1.101  1.1824 -1.0964  0.2901
 1777SOL     OW 6229   6.635   2.466   1.249 -0.0579 -0.0081  0.1549
 1777SOL    HW1 6230   6.652   2.387   1.190  0.3328  0.6869 -0.6894
 1777SOL    HW2 6231   6.660   2.549   1.200 -0.8542  0.6721  0.8797
 1778SOL     OW 6232   0.535   2.844   2.329 -0.0499  0.0666 -0.2361
 1778SOL    HW1 6233   0.605   2.800   2.272  1.2512 -0.0781  1.3838
 1778SOL    HW2 6234   0.579   2.888   2.407 -1.9472 -2.3914  2.3975
 1779SOL     OW 6235   5.846   6.779   1.967  0.4710 -0.1475 -0.0328
 1779SOL    HW1 6236   5.937   6.760   1.931  0.4516  0.2959 -0.3169
 1779SOL    HW2 6237   5.809   6.861   1.924  0.0354 -0.1865  0.2590
 1780SOL     OW 6238   3.761   4.021   2.372 -0.2699  0.5957 -0.1051
 1780SOL    HW1 6239   3.671   3.989   2.401 -1.3287  4.2136  1.1762
 1780SOL    HW2 6240   3.757   4.047   2.276 -0.6740  0.9622  0.0076
 1781SOL     OW 6241   2.212   6.502   5.711  0.1531  0.1511 -0.1393
 1781SOL    HW1 6242   2.278   6.438   5.751  1.1087 -1.2218 -3.5238
 1781SOL    HW2 6243   2.120   6.465   5.722  0.5403 -1.0012 -0.5739
 1782SOL     OW 6244   6.183   3.804   0.175  0.5099  0.0940 -1.0123
 1782SOL    HW1 6245   6.088   3.801   0.203  0.4553  0.3512 -1.1656
 1782SOL    HW2 6246   6.200   3.736   0.104  0.9672 -1.5430  0.5829
 1783SOL     OW 6247   4.686   2.292   6.090  0.0367 -0.4941 -0.1589
 1783SOL    HW1 6248   4.688   2.193   6.081 -1.0294 -0.6423  0.9601
 1783SOL    HW2 6249   4.653   2.317   6.181  3.2449  0.8711  0.7975
 1784SOL     OW 6250   5.753   6.457   1.327  0.1747  0.3870 -0.0410
 1784SOL    HW1 6251   5.728   6.444   1.231 -0.1985 -0.1666  0.1271
 1784SOL    HW2 6252   5.714   6.543   1.360 -2.4237 -0.8978  0.4934
 1785SOL     OW 6253   3.348   4.065   5.826 -0.5465  0.0665 -0.7649
 1785SOL    HW1 6254   3.329   4.042   5.922 -0.1517 -0.5697 -0.8338
 1785SOL    HW2 6255   3.275   4.030   5.768 -0.0061 -0.9361 -0.8569
 1786SOL     OW 6256   5.845   0.587   0.405 -0.0764  0.4450  0.4005
 1786SOL    HW1 6257   5.747   0.596   0.418 -0.0824  0.7423  0.1607
 1786SOL    HW2 6258   5.893   0.625   0.485 -0.1596  0.1090  0.6100
 1787SOL     OW 6259   3.432   3.158   3.143  0.5935  0.3595  0.4143
 1787SOL    HW1 6260   3.468   3.173   3.051  1.2844  0.0700  0.6251
 1787SOL    HW2 6261   3.348   3.105   3.138  1.6682 -1.3988  0.0340
 1788SOL     OW 6262   6.787   5.085   0.854  0.1270 -0.2635 -0.1739
 1788SOL    HW1 6263   6.757   5.171   0.812  2.1161  0.2297 -0.7264
 1788SOL    HW2 6264   6.866   5.050   0.803 -1.3517 -3.0713 -0.6938
 1789SOL     OW 6265   2.298   5.028   3.890  0.1932  0.3869 -0.3746
 1789SOL    HW1 6266   2.257   4.972   3.963  3.0344 -1.2410  0.1223
 1789SOL    HW2 6267   2.267   5.122   3.900  0.0998  0.1482  2.7123
 1790SOL     OW 6268   4.639   6.364   2.244  0.2923 -0.3760  0.4433
 1790SOL    HW1 6269   4.626   6.448   2.297  1.4525  0.4745 -0.5535
 1790SOL    HW2 6270   4.658   6.287   2.305 -0.6957  0.0887  1.3672
 1791SOL     OW 6271   6.966   5.814   0.178  0.1011 -0.1109  0.1379
 1791SOL    HW1 6272   7.012   5.835   0.092 -0.0289 -1.7449 -0.3599
 1791SOL    HW2 6273   6.881   5.867   0.185  0.8396  1.1172 -0.0458
 1792SOL     OW 6274   6.548   6.613   2.389  0.5094  0.1409 -1.1936
 1792SOL    HW1 6275   6.640   6.574   2.391  0.2611 -0.5050  1.1540
 1792SOL    HW2 6276   6.520   6.635   2.483 -1.7991  0.1539 -1.8402
 1793SOL     OW 6277   1.922   2.183   7.015 -0.3117 -0.0992 -0.4109
 1793SOL    HW1 6278   1.933   2.103   6.957  0.9656  0.8486 -1.5318
 1793SOL    HW2 6279   2.008   2.233   7.021 -0.8835  0.8013  0.8651
 1794SOL     OW 6280   5.076   5.617   6.264 -0.0577 -0.1356  0.7835
 1794SOL    HW1 6281   5.093   5.636   6.168 -2.0403 -2.3910 -0.1114
 1794SOL    HW2 6282   5.119   5.531   6.290 -0.2238  0.0341  1.6898
 1795SOL     OW 6283   3.007   1.460   6.911 -0.8222  0.4853  0.0320
 1795SOL    HW1 6284   3.044   1.499   6.827 -1.0291 -3.4110 -2.1157
 1795SOL    HW2 6285   3.068   1.388   6.944 -2.8735 -1.1087  0.5884
 1796SOL     OW 6286   3.999   5.391   4.361 -0.2816  0.8600  0.7100
 1796SOL    HW1 6287   4.092   5.387   4.324  0.3938  0.8899  2.3479
 1796SOL    HW2 6288   3.989   5.325   4.435 -0.7922  2.5915  2.2403
 1797SOL     OW 6289   1.564   2.152   2.643 -0.0773  0.4493  0.1369
 1797SOL    HW1 6290   1.468   2.126   2.658 -0.5511  1.6350 -0.7049
 1797SOL    HW2 6291   1.601   2.098   2.567 -0.3401  0.5903 -0.0925
 1798SOL     OW 6292   6.989   4.189   5.612  0.0890  0.2469  0.3509
 1798SOL    HW1 6293   6.910   4.146   5.569 -0.0159  0.8787 -0.1064
 1798SOL    HW2 6294   6.958   4.246   5.688  0.0243  0.9777 -0.2048
 1799SOL     OW 6295   5.326   5.601   1.981 -0.2221  0.6023  0.1491
 1799SOL    HW1 6296   5.395   5.626   2.049  0.4152 -1.9249  0.5605
 1799SOL    HW2 6297   5.333   5.660   1.902  2.7370  0.1980  0.0057
 1800SOL     OW 6298   2.174   2.994   6.855 -0.4212  0.3749 -0.0568
 1800SOL    HW1 6299   2.153   3.090   6.874  1.6147  0.8756 -0.0850
 1800SOL    HW2 6300   2.263   2.971   6.895 -0.6226 -1.3634 -0.5227
 1801SOL     OW 6301   6.835   4.058   1.950 -0.3422  0.8294  0.3405
 1801SOL    HW1 6302   6.839   3.960   1.928  0.9681  0.8427  0.4458
 1801SOL    HW2 6303   6.927   4.097   1.945 -0.9366  2.2144 -0.3599
 1802SOL     OW 6304   0.455   0.447   0.530  0.0785 -0.2385 -0.5007
 1802SOL    HW1 6305   0.490   0.526   0.480 -0.2151  0.1882 -0.0386
 1802SOL    HW2 6306   0.494   0.363   0.492 -0.5949  0.0291 -1.8439
 1803SOL     OW 6307   6.567   2.169   5.293 -0.0821  0.1809  0.3826
 1803SOL    HW1 6308   6.575   2.135   5.387 -0.1943  1.2470  0.7974
 1803SOL    HW2 6309   6.648   2.142   5.241 -0.7692 -1.8286  0.2999
 1804SOL     OW 6310   0.316   2.366   5.059 -0.2435  0.5741  0.3335
 1804SOL    HW1 6311   0.284   2.436   5.123  0.3238  0.5724  0.6187
 1804SOL    HW2 6312   0.371   2.298   5.107  4.3683  3.1056 -0.8049
 1805SOL     OW 6313   0.691   5.489   6.789 -0.1182 -0.4513 -0.1933
 1805SOL    HW1 6314   0.622   5.557   6.765 -0.6070 -0.8380  0.1159
 1805SOL    HW2 6315   0.756   5.480   6.714  0.7418  1.3304  0.2648
 1806SOL     OW 6316   6.610   1.931   0.038 -0.6925  0.4100  0.0503
 1806SOL    HW1 6317   6.533   1.900  -0.018 -2.0551  2.4769  0.6857
 1806SOL    HW2 6318   6.614   1.878   0.122 -2.5537  1.3737  0.8065
 1807SOL     OW 6319   6.335   6.932   6.728  0.0077 -0.1632  0.2260
 1807SOL    HW1 6320   6.334   7.022   6.771 -0.1716 -0.1100  0.1112
 1807SOL    HW2 6321   6.242   6.902   6.710  0.0440 -0.6268  0.7865
 1808SOL     OW 6322   0.158   3.807   5.345 -0.2123 -0.2693 -0.0246
 1808SOL    HW1 6323   0.142   3.817   5.444 -0.8460  1.1319 -0.2491
 1808SOL    HW2 6324   0.139   3.893   5.299  0.9237 -0.6579 -1.2853
 1809SOL     OW 6325   0.100   3.111   3.924  0.0187 -0.3425 -0.2232
 1809SOL    HW1 6326   0.005   3.081   3.924  0.2629 -1.1412 -0.8610
 1809SOL    HW2 6327   0.103   3.211   3.916 -0.7573 -0.3200 -0.3555
 1810SOL     OW 6328   5.181   1.352   0.955  0.1529 -0.5112  0.1647
 1810SOL    HW1 6329   5.268   1.306   0.936 -0.1928 -1.7259  1.4106
 1810SOL    HW2 6330   5.200   1.440   0.999  0.7703 -1.2960  1.5442
 1811SOL     OW 6331   3.627   4.680   1.561  0.0108  0.1167 -0.0266
 1811SOL    HW1 6332   3.688   4.611   1.523  0.6519  0.3857  0.4928
 1811SOL    HW2 6333   3.620   4.668   1.660 -0.4140  0.3704 -0.0226
 1812SOL     OW 6334   2.340   0.347   0.762  0.1096  0.1017  0.6837
 1812SOL    HW1 6335   2.287   0.342   0.847  0.6349 -2.2018  0.9426
 1812SOL    HW2 6336   2.294   0.293   0.691  0.7774  0.2405  0.1317
 1813SOL     OW 6337   7.000   1.927   1.866  0.4898 -0.1078  0.0710
 1813SOL    HW1 6338   6.978   1.849   1.807 -0.4416  0.1401  0.0678
 1813SOL    HW2 6339   6.946   1.921   1.950 -1.7530  1.9483 -1.0868
 1814SOL     OW 6340   1.551   2.913   5.486 -0.2188  0.4479 -0.4985
 1814SOL    HW1 6341   1.529   2.897   5.582  2.2130 -0.1920  0.0386
 1814SOL    HW2 6342   1.590   3.004   5.475  0.6582  0.0662 -0.6286
 1815SOL     OW 6343   2.906   0.021   5.764  0.3817  0.8929  0.2308
 1815SOL    HW1 6344   2.877  -0.004   5.672  0.9450  0.4202  0.1772
 1815SOL    HW2 6345   2.859  -0.037   5.831 -0.1043  1.3052  0.2514
 1816SOL     OW 6346   6.770   2.069   5.740 -0.4083  0.0951  0.2594
 1816SOL    HW1 6347   6.855   2.019   5.727  0.0915  0.1271  2.9155
 1816SOL    HW2 6348   6.778   2.159   5.697  0.0438 -0.7106 -1.4043
 1817SOL     OW 6349   6.396   5.734   3.845  0.4914 -0.1539  0.1957
 1817SOL    HW1 6350   6.490   5.747   3.812  0.2927  2.2531  0.3755
 1817SOL    HW2 6351   6.380   5.796   3.922 -0.0223 -3.4315  2.9214
 1818SOL     OW 6352   1.026   1.255   2.630 -0.3900 -0.3998 -0.1851
 1818SOL    HW1 6353   1.088   1.246   2.552  0.0382 -1.7229  0.2889
 1818SOL    HW2 6354   0.946   1.308   2.602  0.6322  0.7720 -0.9817
 1819SOL     OW 6355   2.118   3.338   1.027 -0.6115 -0.2702  0.4450
 1819SOL    HW1 6356   2.021   3.317   1.033 -0.7231 -0.1059 -0.5826
 1819SOL    HW2 6357   2.145   3.344   0.931  0.4376 -0.4103  0.7195
 1820SOL     OW 6358   6.063   6.274   4.567  0.2247  0.1271  0.1000
 1820SOL    HW1 6359   5.995   6.344   4.589 -1.0180 -0.9739 -0.1119
 1820SOL    HW2 6360   6.134   6.274   4.637 -0.6562  0.4803  1.0188
 1821SOL     OW 6361   3.927   3.060   2.120 -0.3143 -0.0159 -0.2335
 1821SOL    HW1 6362   3.872   3.140   2.146 -0.4857 -0.5940  1.2640
 1821SOL    HW2 6363   3.894   2.979   2.168 -0.3818 -1.0961 -2.0196
 1822SOL     OW 6364   6.479   2.799   4.815  0.0611 -0.2063  0.2577
 1822SOL    HW1 6365   6.411   2.818   4.744  1.4662  0.1118 -1.0766
 1822SOL    HW2 6366   6.566   2.776   4.771  0.9162 -0.2358  1.9043
 1823SOL     OW 6367   0.218   6.199   5.787  0.1051  0.3863 -0.2752
 1823SOL    HW1 6368   0.276   6.255   5.847  0.0603  0.5357 -0.3684
 1823SOL    HW2 6369   0.273   6.166   5.710 -0.2395  1.7006 -1.1284
 1824SOL     OW 6370   2.858   7.019   5.496 -0.0434 -0.4401 -0.0435
 1824SOL    HW1 6371   2.771   7.003   5.450  0.4640 -1.8434 -0.5731
 1824SOL    HW2 6372   2.908   7.091   5.449 -0.1952 -0.8056 -0.7772
 1825SOL     OW 6373   5.459   0.308   1.780  0.1212 -0.1492  0.0388
 1825SOL    HW1 6374   5.460   0.258   1.866 -1.4222  2.4193  1.6739
 1825SOL    HW2 6375   5.370   0.353   1.768  1.6600  2.9599 -0.7751
 1826SOL     OW 6376   6.178   5.598   6.390  0.0573 -0.0169  0.1238
 1826SOL    HW1 6377   6.089   5.609   6.345  0.2780  0.3112 -0.2437
 1826SOL    HW2 6378   6.250   5.605   6.322  0.3042 -2.5338  0.0486
 1827SOL     OW 6379   0.631   4.237   1.285  0.1452 -0.0487 -0.2722
 1827SOL    HW1 6380   0.566   4.182   1.339  1.0075 -0.6641  0.1592
 1827SOL    HW2 6381   0.611   4.225   1.188 -0.5010 -0.0853 -0.1425
 1828SOL     OW 6382   0.477   6.590   5.073  0.5069  0.4988  0.0294
 1828SOL    HW1 6383   0.386   6.616   5.041  0.9671  1.8559 -0.2526
 1828SOL    HW2 6384   0.479   6.591   5.173  0.2381  0.5513  0.0336
 1829SOL     OW 6385   5.015   6.481   3.770  0.4024 -0.1141 -0.2520
 1829SOL    HW1 6386   5.064   6.526   3.695 -0.2421  1.3375  0.1609
 1829SOL    HW2 6387   4.941   6.541   3.802  1.4686 -0.1020  2.4228
 1830SOL     OW 6388   7.021   3.857   0.050  0.4528  0.1809  0.2524
 1830SOL    HW1 6389   7.013   3.810   0.138 -0.4645  0.8736  0.5607
 1830SOL    HW2 6390   7.062   3.796  -0.017  1.2020 -0.3493  1.1651
 1831SOL     OW 6391   2.208   0.922   4.034 -0.1889  0.3736 -0.2659
 1831SOL    HW1 6392   2.275   0.951   4.102 -1.0369  0.3433  0.6085
 1831SOL    HW2 6393   2.183   0.999   3.976  0.2838  0.4881 -0.3172
 1832SOL     OW 6394   5.213   3.392   5.837  0.6012  0.3427  0.5176
 1832SOL    HW1 6395   5.169   3.318   5.888  1.6158  1.1028  2.5879
 1832SOL    HW2 6396   5.143   3.447   5.792 -0.3609 -0.2279  1.2683
 1833SOL     OW 6397   6.197   2.180   0.735 -0.0198 -0.0193  0.3839
 1833SOL    HW1 6398   6.121   2.128   0.776  0.1528 -0.0703  0.6418
 1833SOL    HW2 6399   6.226   2.136   0.651 -0.3424  0.0553  0.2303
 1834SOL     OW 6400   1.486   4.169   1.907  0.3040 -0.0906 -0.2316
 1834SOL    HW1 6401   1.494   4.259   1.864  2.5378 -0.5672 -0.9551
 1834SOL    HW2 6402   1.459   4.179   2.003  0.5439  1.3305 -0.2992
 1835SOL     OW 6403   6.148   6.622   6.825  0.1418  0.3669 -0.0496
 1835SOL    HW1 6404   6.196   6.537   6.802 -0.3138  0.5754 -1.9402
 1835SOL    HW2 6405   6.051   6.603   6.837 -0.1287  0.7350 -1.4680
 1836SOL     OW 6406   3.252   5.577   2.528  0.0879 -0.5736  0.1687
 1836SOL    HW1 6407   3.280   5.637   2.603  1.0024  1.4026 -1.6224
 1836SOL    HW2 6408   3.333   5.543   2.480 -0.4001  0.9205 -1.8828
 1837SOL     OW 6409   0.860   2.431   0.298  0.5094 -0.0445  0.0125
 1837SOL    HW1 6410   0.822   2.503   0.356  0.4823 -0.5482  0.6307
 1837SOL    HW2 6411   0.827   2.443   0.204 -0.5292  0.0056  0.3702
 1838SOL     OW 6412   3.814   1.262   3.840 -0.1554 -0.3453 -0.3230
 1838SOL    HW1 6413   3.864   1.280   3.755 -0.4621  1.2293 -0.1851
 1838SOL    HW2 6414   3.775   1.170   3.835  0.7810 -0.7190 -1.4021
 1839SOL     OW 6415   2.135   0.767   5.104  0.7465  0.0156  0.4161
 1839SOL    HW1 6416   2.160   0.754   5.200 -1.0781  0.3899  0.9984
 1839SOL    HW2 6417   2.174   0.853   5.071  0.6704  0.3158  1.0950
 1840SOL     OW 6418   6.308   6.393   5.171  0.5017 -0.2946 -0.0354
 1840SOL    HW1 6419   6.230   6.335   5.151  0.6413 -0.3553 -0.4205
 1840SOL    HW2 6420   6.392   6.338   5.171  0.4412 -0.4227  1.3892
 1841SOL     OW 6421   5.366   0.217   0.140  0.1474  0.3057 -0.2587
 1841SOL    HW1 6422   5.272   0.184   0.151  0.3495 -0.0064  0.6511
 1841SOL    HW2 6423   5.365   0.315   0.121 -0.3425  0.4392  0.4116
 1842SOL     OW 6424   0.204   4.544   5.862 -0.1551 -0.8303  0.1316
 1842SOL    HW1 6425   0.261   4.523   5.782 -0.4190 -1.0460 -0.0014
 1842SOL    HW2 6426   0.203   4.465   5.923  1.1360 -0.1915  1.0092
 1843SOL     OW 6427   1.310   6.136   0.256  0.4373 -0.6367  0.4398
 1843SOL    HW1 6428   1.407   6.154   0.272  0.5792 -0.2533 -0.7712
 1843SOL    HW2 6429   1.269   6.096   0.338  1.6594 -0.9734  0.8960
 1844SOL     OW 6430   0.310   0.634   1.880  0.2604 -0.1025 -0.1443
 1844SOL    HW1 6431   0.263   0.669   1.798 -3.1672  1.6269  2.3020
 1844SOL    HW2 6432   0.391   0.689   1.898 -0.7948  1.6724 -0.5938
 1845SOL     OW 6433   1.758   0.553   1.538  0.1399  0.4521 -0.6129
 1845SOL    HW1 6434   1.839   0.499   1.514  1.9561  3.4917 -1.7974
 1845SOL    HW2 6435   1.784   0.629   1.597 -1.9823  1.1338 -0.4502
 1846SOL     OW 6436   1.226   4.669   6.273  0.2489  0.1646 -0.8037
 1846SOL    HW1 6437   1.161   4.616   6.219  0.5458 -0.2340 -0.7757
 1846SOL    HW2 6438   1.184   4.755   6.302 -0.2111 -0.0239 -0.9131
 1847SOL     OW 6439   5.857   2.032   1.614  0.3105  0.4160  0.7049
 1847SOL    HW1 6440   5.850   2.010   1.712  0.3041  1.2806  0.9061
 1847SOL    HW2 6441   5.782   1.989   1.565 -0.2410  0.7574  1.2335
 1848SOL     OW 6442   0.179   1.027   1.467 -0.0900 -0.0081 -0.5990
 1848SOL    HW1 6443   0.212   1.120   1.452  0.1572  0.2565  1.3407
 1848SOL    HW2 6444   0.083   1.030   1.492  0.0589 -0.2244  0.0012
 1849SOL     OW 6445   4.016   6.001   2.752  0.1007 -0.2364 -0.0703
 1849SOL    HW1 6446   3.938   5.939   2.760 -0.1056 -0.1882 -1.4808
 1849SOL    HW2 6447   3.989   6.093   2.781  0.8521 -1.0108  3.6948
 1850SOL     OW 6448   5.340   6.883   6.887 -0.3524 -0.4849 -0.4998
 1850SOL    HW1 6449   5.358   6.830   6.805 -0.5510  0.7395 -1.3602
 1850SOL    HW2 6450   5.314   6.821   6.962 -1.2802 -1.5378 -1.6526
 1851SOL     OW 6451   1.449   1.170   3.746  0.2644 -0.3978 -0.2226
 1851SOL    HW1 6452   1.482   1.239   3.682  1.3399 -1.4142 -0.8093
 1851SOL    HW2 6453   1.429   1.086   3.696 -0.3640 -0.7292  0.5740
 1852SOL     OW 6454   4.152   3.385   1.718  0.1725  0.4869  0.2175
 1852SOL    HW1 6455   4.191   3.307   1.768  1.1129  1.2164  0.6716
 1852SOL    HW2 6456   4.055   3.392   1.738 -0.0622 -0.9109 -0.2986
 1853SOL     OW 6457   0.829   4.984   2.591  0.0032  0.1688 -0.5685
 1853SOL    HW1 6458   0.918   4.943   2.611 -0.2667  0.4720  1.5066
 1853SOL    HW2 6459   0.828   5.016   2.497  1.8666 -0.3925 -0.8286
 1854SOL     OW 6460   2.480   6.271   3.327  0.1747  0.3105  0.1643
 1854SOL    HW1 6461   2.514   6.190   3.375 -0.1681 -0.3406 -0.6693
 1854SOL    HW2 6462   2.381   6.265   3.317  0.0397  1.2674  0.8781
 1855SOL     OW 6463   0.967   1.728   6.524  0.2583 -0.0322 -0.1697
 1855SOL    HW1 6464   0.939   1.772   6.439  0.2084 -2.4024 -1.4631
 1855SOL    HW2 6465   1.057   1.764   6.551 -0.4049  1.8766 -0.3029
 1856SOL     OW 6466   6.561   3.802   1.728 -1.0055  0.3140 -0.0850
 1856SOL    HW1 6467   6.492   3.850   1.781  0.6359  0.8822  1.6165
 1856SOL    HW2 6468   6.627   3.758   1.789  0.6456  0.5129 -1.6252
 1857SOL     OW 6469   6.931   6.845   4.156  0.0131 -0.4541 -0.0946
 1857SOL    HW1 6470   7.025   6.880   4.157  0.0111 -0.4505 -0.0589
 1857SOL    HW2 6471   6.868   6.922   4.147  0.1130 -0.6414 -3.8571
 1858SOL     OW 6472   6.111   5.335   5.258  0.2003  0.1091 -0.2143
 1858SOL    HW1 6473   6.152   5.406   5.202 -0.0243  2.4714  2.3885
 1858SOL    HW2 6474   6.029   5.299   5.213  0.9008  0.7239 -2.0469
 1859SOL     OW 6475   5.534   6.481   2.042  0.2006  0.6543 -0.1564
 1859SOL    HW1 6476   5.589   6.545   2.096  0.5862 -1.0196  1.5764
 1859SOL    HW2 6477   5.444   6.471   2.085 -0.9029  2.0928 -2.0130
 1860SOL     OW 6478   0.225   1.308   3.864 -0.2890 -0.3445  0.7936
 1860SOL    HW1 6479   0.180   1.376   3.805  0.2895 -0.7489 -0.1480
 1860SOL    HW2 6480   0.311   1.346   3.898  1.7651 -1.6145 -2.4103
 1861SOL     OW 6481   5.235   6.594   5.612 -0.6136  0.2499 -0.1126
 1861SOL    HW1 6482   5.256   6.527   5.540  0.3320  0.9021 -0.4597
 1861SOL    HW2 6483   5.302   6.586   5.686 -0.3868  0.9362 -0.2428
 1862SOL     OW 6484   6.776   4.184   3.271 -0.2589  0.6702  0.0341
 1862SOL    HW1 6485   6.864   4.169   3.224 -1.3848 -0.4615 -1.8612
 1862SOL    HW2 6486   6.785   4.161   3.368  0.9308 -1.9409 -0.6204
 1863SOL     OW 6487   1.924   4.161   2.081 -0.3066  0.4119 -0.1572
 1863SOL    HW1 6488   1.827   4.159   2.057  0.2597 -0.3444 -2.8156
 1863SOL    HW2 6489   1.955   4.069   2.105 -0.3689  0.7736  1.3666
 1864SOL     OW 6490   3.913   0.880   6.485 -0.1659  0.0776  0.4911
 1864SOL    HW1 6491   3.870   0.833   6.407  1.1851  0.4761 -0.5276
 1864SOL    HW2 6492   3.922   0.977   6.463  0.3453  0.1712  1.1104
 1865SOL     OW 6493   5.559   6.252   5.657 -0.3755 -0.0348  0.3041
 1865SOL    HW1 6494   5.501   6.287   5.731 -0.8079  0.5903 -0.3155
 1865SOL    HW2 6495   5.504   6.239   5.574  0.5665  1.7166 -0.6563
 1866SOL     OW 6496   4.536   4.316   1.595 -0.2667  0.3111 -0.2632
 1866SOL    HW1 6497   4.491   4.300   1.683 -0.9313  0.6557 -0.5367
 1866SOL    HW2 6498   4.625   4.270   1.595 -0.0740  0.6536  0.7443
 1867SOL     OW 6499   4.927   4.930   2.429 -0.2788 -0.0864 -0.3598
 1867SOL    HW1 6500   4.954   5.027   2.430 -0.4033 -0.0211 -1.7019
 1867SOL    HW2 6501   4.827   4.925   2.422 -0.3607 -0.3299  0.7630
 1868SOL     OW 6502   0.697   5.037   6.674 -0.1769  0.6463  0.3031
 1868SOL    HW1 6503   0.699   4.965   6.743 -0.9947  0.5792  0.2711
 1868SOL    HW2 6504   0.602   5.059   6.652  0.0705  0.6859 -0.7733
 1869SOL     OW 6505   0.208   1.695   3.395  0.1912 -0.0449 -0.7034
 1869SOL    HW1 6506   0.280   1.649   3.344  1.5175  1.0065  0.1597
 1869SOL    HW2 6507   0.228   1.792   3.402 -0.4787  0.0186  0.8868
 1870SOL     OW 6508   4.528   2.491   1.188 -0.2303  0.3372  0.0848
 1870SOL    HW1 6509   4.531   2.391   1.200  0.3281  0.3711  0.2520
 1870SOL    HW2 6510   4.481   2.532   1.266  0.0968  0.2498  0.3333
 1871SOL     OW 6511   1.499   6.338   3.841  0.3463  0.0150  0.2805
 1871SOL    HW1 6512   1.556   6.278   3.897  0.2242  0.4348  0.8628
 1871SOL    HW2 6513   1.505   6.431   3.875  1.2795  0.5270 -1.1856
 1872SOL     OW 6514   0.668   2.606   3.865 -0.9417 -0.3729 -0.2867
 1872SOL    HW1 6515   0.733   2.578   3.937  0.8250 -1.1699 -2.1000
 1872SOL    HW2 6516   0.710   2.592   3.775 -3.6028 -0.7110 -1.5489
 1873SOL     OW 6517   6.880   3.597   3.596 -0.2657  0.1215  0.6880
 1873SOL    HW1 6518   6.947   3.523   3.597 -0.4303 -0.0229  1.0583
 1873SOL    HW2 6519   6.841   3.605   3.504  0.3097  0.2584  0.4516
 1874SOL     OW 6520   5.408   4.867   5.295 -0.3176  0.6917  0.3261
 1874SOL    HW1 6521   5.442   4.774   5.308  0.1478  0.8854  0.4957
 1874SOL    HW2 6522   5.398   4.885   5.197 -0.9695  0.2630  0.3103
 1875SOL     OW 6523   5.477   6.230   6.477  0.3229  0.3627 -0.4735
 1875SOL    HW1 6524   5.539   6.304   6.450  1.8369 -0.4238  0.6927
 1875SOL    HW2 6525   5.521   6.142   6.462 -0.9005 -0.2694 -0.4864
 1876SOL     OW 6526   4.695   6.119   0.547  0.2104 -0.3071 -0.1499
 1876SOL    HW1 6527   4.688   6.132   0.646  0.3088 -1.8764  0.1004
 1876SOL    HW2 6528   4.617   6.066   0.515  0.1271  0.2818 -0.9399
 1877SOL     OW 6529   5.509   0.158   2.240  0.0121 -0.1147  0.4787
 1877SOL    HW1 6530   5.603   0.186   2.219 -0.5524  1.2450 -0.3467
 1877SOL    HW2 6531   5.453   0.238   2.259 -0.7077 -0.9802  2.3415
 1878SOL     OW 6532   5.514   2.603   5.065  0.0732 -0.2045  0.4388
 1878SOL    HW1 6533   5.527   2.526   5.002  0.0216 -1.7252  2.1615
 1878SOL    HW2 6534   5.417   2.609   5.090  0.1084  0.3155  0.4406
 1879SOL     OW 6535   2.870   1.358   0.178 -0.2594 -0.6649 -0.5225
 1879SOL    HW1 6536   2.814   1.436   0.150  0.2209  0.2357  0.9060
 1879SOL    HW2 6537   2.837   1.276   0.133 -1.9359  0.0539 -0.6900
 1880SOL     OW 6538   5.385   4.377   1.915 -0.2759  0.3064 -0.4130
 1880SOL    HW1 6539   5.362   4.363   2.011  3.5053 -0.9757  0.4702
 1880SOL    HW2 6540   5.398   4.475   1.898  2.0864  0.3768  1.3195
 1881SOL     OW 6541   1.932   6.610   6.773  0.1420  0.7027 -0.4667
 1881SOL    HW1 6542   1.932   6.709   6.787  1.1458  0.2856  4.0503
 1881SOL    HW2 6543   2.022   6.581   6.739  0.0993  1.2334 -1.0566
 1882SOL     OW 6544   3.455   5.691   5.186 -0.5955  0.5331 -0.1886
 1882SOL    HW1 6545   3.484   5.605   5.226 -2.7250 -0.2285 -0.1690
 1882SOL    HW2 6546   3.527   5.760   5.199  1.1558 -1.2002 -0.2179
 1883SOL     OW 6547   0.716   0.709   3.208  0.5138  0.4022  0.2697
 1883SOL    HW1 6548   0.741   0.805   3.219  0.0640  1.0056 -3.0075
 1883SOL    HW2 6549   0.618   0.701   3.189  0.5702 -0.7181  0.3546
 1884SOL     OW 6550   4.983   0.472   4.275 -0.3099  0.1813 -0.2443
 1884SOL    HW1 6551   5.041   0.523   4.212 -0.5682 -1.0665 -1.5313
 1884SOL    HW2 6552   4.925   0.409   4.224  0.2510 -1.6769  1.2861
 1885SOL     OW 6553   0.669   3.929   6.875  0.4968  0.3862 -0.4079
 1885SOL    HW1 6554   0.737   3.856   6.868  0.7605  0.6526 -0.6934
 1885SOL    HW2 6555   0.609   3.926   6.795  1.2745  1.2261 -1.0613
 1886SOL     OW 6556   4.725   2.023   6.083 -0.0783  0.1221  0.5405
 1886SOL    HW1 6557   4.713   1.996   5.987  0.6690  2.0976 -0.1703
 1886SOL    HW2 6558   4.809   1.982   6.118 -1.1512 -1.8944  0.9038
 1887SOL     OW 6559   2.174   5.821   5.979 -0.0752 -0.0719  0.0978
 1887SOL    HW1 6560   2.081   5.797   6.009 -0.1246 -0.7585 -0.5800
 1887SOL    HW2 6561   2.171   5.905   5.926 -0.6557 -1.1638 -1.7162
 1888SOL     OW 6562   3.390   2.998   0.611  0.1711 -0.0643  0.2366
 1888SOL    HW1 6563   3.410   3.085   0.657  0.6399  0.1211 -0.3146
 1888SOL    HW2 6564   3.414   2.923   0.672  0.0345  0.1828  0.6046
 1889SOL     OW 6565   3.459   1.730   4.560 -0.1556  0.5428  0.1039
 1889SOL    HW1 6566   3.506   1.713   4.473 -0.9560  0.8795 -0.4030
 1889SOL    HW2 6567   3.367   1.689   4.556  0.5988 -1.4939  1.6477
 1890SOL     OW 6568   4.500   4.634   1.240 -0.4776  0.2720  0.6748
 1890SOL    HW1 6569   4.514   4.625   1.339 -0.4194  0.8505  0.7258
 1890SOL    HW2 6570   4.510   4.730   1.214  0.9287 -0.0576 -0.1084
 1891SOL     OW 6571   0.772   6.245   1.284 -0.2045  0.0234 -0.3825
 1891SOL    HW1 6572   0.809   6.220   1.195  1.4787  2.9649 -0.6490
 1891SOL    HW2 6573   0.794   6.340   1.304 -0.6297 -0.4603  3.1559
 1892SOL     OW 6574   2.126   4.784   4.893  0.0200  0.0327 -0.7316
 1892SOL    HW1 6575   2.150   4.689   4.877 -0.0469 -0.7625  2.9879
 1892SOL    HW2 6576   2.043   4.789   4.948  1.7967  2.0141  2.0289
 1893SOL     OW 6577   5.734   4.706   0.293 -0.5258  0.5795  0.0252
 1893SOL    HW1 6578   5.664   4.654   0.341 -0.2972 -0.3942 -0.6562
 1893SOL    HW2 6579   5.819   4.653   0.289 -1.2147 -0.5763 -3.5607
 1894SOL     OW 6580   3.354   6.933   5.046  0.0729  0.2948 -0.6065
 1894SOL    HW1 6581   3.343   7.032   5.043 -2.0221  0.3066  2.5449
 1894SOL    HW2 6582   3.391   6.906   5.135 -0.4595 -1.8181 -0.9675
 1895SOL     OW 6583   7.000   2.650   6.304  0.0560 -0.3426 -0.2428
 1895SOL    HW1 6584   7.006   2.697   6.393 -0.0152  0.2964 -0.5674
 1895SOL    HW2 6585   7.021   2.715   6.231 -2.9384 -0.0075 -0.9271
 1896SOL     OW 6586   1.836   4.870   5.877 -0.3355 -0.3245 -0.2168
 1896SOL    HW1 6587   1.855   4.819   5.960 -2.7830  0.0300  0.6445
 1896SOL    HW2 6588   1.764   4.824   5.825 -0.3203  0.5688 -1.0613
 1897SOL     OW 6589   6.175   1.714   4.867 -0.1221  0.4400  0.3951
 1897SOL    HW1 6590   6.238   1.738   4.941  0.0587  0.4956  0.2265
 1897SOL    HW2 6591   6.204   1.761   4.783  0.6755 -0.9351 -0.1372
 1898SOL     OW 6592   1.096   2.611   6.938 -0.1821 -0.0235 -0.3518
 1898SOL    HW1 6593   0.999   2.616   6.965 -0.0058 -0.3947  0.3733
 1898SOL    HW2 6594   1.103   2.619   6.839 -1.0921 -1.7045 -0.5879
 1899SOL     OW 6595   6.671   0.178   3.070  0.1677  0.3608 -0.6706
 1899SOL    HW1 6596   6.758   0.152   3.114  0.4050 -0.1862 -1.4400
 1899SOL    HW2 6597   6.680   0.168   2.971 -0.8445  0.0875 -0.7463
 1900SOL     OW 6598   0.793   4.717   2.040  0.0039 -0.7383  0.8611
 1900SOL    HW1 6599   0.699   4.750   2.044 -0.2342 -1.2818  0.0695
 1900SOL    HW2 6600   0.833   4.741   1.951  0.1943 -1.5805  0.7076
 1901SOL     OW 6601   0.831   4.585   5.749 -0.3941  0.2841  0.1763
 1901SOL    HW1 6602   0.919   4.633   5.750 -0.0739 -0.3041  1.5582
 1901SOL    HW2 6603   0.762   4.641   5.796 -0.9936  1.0941 -1.5561
 1902SOL     OW 6604   5.806   0.994   0.030 -0.6445  0.4562  0.7280
 1902SOL    HW1 6605   5.722   1.047   0.034 -0.3625  1.0207 -0.4422
 1902SOL    HW2 6606   5.799   0.925  -0.042 -0.0790  0.5620  0.5666
 1903SOL     OW 6607   2.885   5.744   5.411 -0.3350 -0.6186 -0.6374
 1903SOL    HW1 6608   2.934   5.711   5.492  1.1107 -0.5099 -1.4366
 1903SOL    HW2 6609   2.787   5.727   5.422 -0.4517  1.0967  1.9842
 1904SOL     OW 6610   2.821   6.279   4.773 -0.1905  0.3407  0.5501
 1904SOL    HW1 6611   2.913   6.251   4.799 -0.6979 -2.1842 -0.1576
 1904SOL    HW2 6612   2.770   6.304   4.855  0.5781  0.0144  1.1418
 1905SOL     OW 6613   4.804   4.008   1.017  0.2606 -0.2489  0.3904
 1905SOL    HW1 6614   4.818   3.909   1.008  2.7815 -0.0677  1.6001
 1905SOL    HW2 6615   4.881   4.049   1.065 -1.0132  2.2595  0.4761
 1906SOL     OW 6616   2.072   0.611   4.873  0.5430  0.4590 -0.0176
 1906SOL    HW1 6617   2.058   0.666   4.955  2.8289  1.6900 -0.3537
 1906SOL    HW2 6618   2.143   0.543   4.890 -0.3255 -0.5820 -0.4367
 1907SOL     OW 6619   5.791   6.678   0.718  0.1205  0.6699 -0.0386
 1907SOL    HW1 6620   5.845   6.650   0.639  0.6167  2.4875 -0.3939
 1907SOL    HW2 6621   5.696   6.651   0.706 -0.2255  2.5789 -2.2149
 1908SOL     OW 6622   1.836   5.741   2.073 -0.2510  0.2417  0.3434
 1908SOL    HW1 6623   1.915   5.702   2.026 -1.1842 -1.9431  0.4854
 1908SOL    HW2 6624   1.828   5.700   2.164 -0.8616  1.3467  0.8036
 1909SOL     OW 6625   3.722   5.235   0.062  0.2273  0.4703  0.3792
 1909SOL    HW1 6626   3.794   5.305   0.068 -0.4203  1.0580  2.4838
 1909SOL    HW2 6627   3.661   5.245   0.141 -0.4265 -1.9124  0.2436
 1910SOL     OW 6628   2.296   2.288   5.768  0.4103  0.6050 -0.1465
 1910SOL    HW1 6629   2.355   2.303   5.689 -0.7919  3.0828 -0.6500
 1910SOL    HW2 6630   2.327   2.206   5.817  1.4705 -0.7441 -2.8580
 1911SOL     OW 6631   1.529   6.288   5.871  0.3416 -0.0406  0.9179
 1911SOL    HW1 6632   1.491   6.317   5.783 -1.0175 -3.4657  0.2373
 1911SOL    HW2 6633   1.628   6.301   5.871  0.2598  0.8245 -0.7435
 1912SOL     OW 6634   1.317   0.605   2.846  0.6369 -0.2161  0.4954
 1912SOL    HW1 6635   1.400   0.570   2.804  0.1390  0.5493 -1.2071
 1912SOL    HW2 6636   1.339   0.641   2.937  2.3790  0.8550 -0.2844
 1913SOL     OW 6637   5.185   1.312   4.131 -0.1629 -0.2625 -0.3258
 1913SOL    HW1 6638   5.221   1.380   4.195 -1.7968  1.2889 -0.9703
 1913SOL    HW2 6639   5.192   1.346   4.038 -0.1489 -1.3873 -0.7448
 1914SOL     OW 6640   5.538   6.170   2.976  0.3472 -0.0016 -0.1372
 1914SOL    HW1 6641   5.534   6.248   2.913 -1.9925  0.1208  0.0613
 1914SOL    HW2 6642   5.479   6.189   3.055 -1.0954 -2.3403 -0.5669
 1915SOL     OW 6643   3.107   1.394   0.361  0.5026  0.0155 -0.0916
 1915SOL    HW1 6644   3.022   1.372   0.313 -0.2479 -0.5598  1.4043
 1915SOL    HW2 6645   3.095   1.480   0.412  0.2254 -0.8393  1.3588
 1916SOL     OW 6646   0.303   2.768   3.539 -0.0976  0.2311 -0.2547
 1916SOL    HW1 6647   0.359   2.826   3.479 -1.4590 -0.2253 -2.0796
 1916SOL    HW2 6648   0.275   2.820   3.619  0.4600  1.4267 -0.8104
 1917SOL     OW 6649   2.210   1.936   1.512 -0.3216 -0.7147 -0.0756
 1917SOL    HW1 6650   2.257   1.906   1.595 -2.1832  0.0970  1.3578
 1917SOL    HW2 6651   2.116   1.960   1.535 -1.0372 -0.9461 -2.5578
 1918SOL     OW 6652   0.325   1.555   0.096  0.0242 -0.3072  0.7573
 1918SOL    HW1 6653   0.252   1.617   0.124  0.7750 -0.0069  2.1226
 1918SOL    HW2 6654   0.308   1.525   0.002 -0.7715  1.3459  0.3314
 1919SOL     OW 6655   4.666   0.605   5.991 -0.1693 -0.2734  0.0238
 1919SOL    HW1 6656   4.703   0.516   6.019  1.2433  0.1958 -0.2752
 1919SOL    HW2 6657   4.703   0.630   5.902  0.2928  1.0985  0.5759
 1920SOL     OW 6658   0.079   6.964   0.765 -0.0052 -0.1466 -0.2541
 1920SOL    HW1 6659   0.119   6.919   0.685 -2.1992 -1.3909 -0.7295
 1920SOL    HW2 6660   0.030   7.046   0.737  1.0046  0.6184  0.1464
 1921SOL     OW 6661   0.247   1.038   6.702  0.1044 -0.4477  1.0628
 1921SOL    HW1 6662   0.183   0.961   6.712 -1.9611  0.8939 -0.9529
 1921SOL    HW2 6663   0.220   1.112   6.764 -0.5307  0.2447 -0.0211
 1922SOL     OW 6664   0.961   5.200   4.926 -0.3058  0.0011 -0.2625
 1922SOL    HW1 6665   0.895   5.275   4.934  1.7159  1.7513  1.2742
 1922SOL    HW2 6666   1.024   5.219   4.850 -1.0462 -1.2599 -1.2228
 1923SOL     OW 6667   3.765   2.252   5.471 -0.0495 -0.2564  0.3577
 1923SOL    HW1 6668   3.692   2.311   5.436 -0.7876 -1.6420 -0.5084
 1923SOL    HW2 6669   3.853   2.301   5.465 -0.7490  1.0727  0.5248
 1924SOL     OW 6670   0.982   5.383   0.460  0.3887  0.2152  0.3033
 1924SOL    HW1 6671   0.914   5.327   0.509 -1.8448  1.7753 -0.8352
 1924SOL    HW2 6672   1.034   5.325   0.398 -1.9415 -0.7230 -0.9306
 1925SOL     OW 6673   5.051   5.179   5.140 -0.0754 -0.3325  0.2112
 1925SOL    HW1 6674   5.084   5.257   5.193  1.4403 -0.7542 -0.0372
 1925SOL    HW2 6675   4.952   5.183   5.131 -0.0016  1.7623 -0.1208
 1926SOL     OW 6676   0.121   4.056   5.228  0.2154 -0.1608 -0.3754
 1926SOL    HW1 6677   0.062   4.136   5.217 -0.9252 -1.1856 -2.3229
 1926SOL    HW2 6678   0.198   4.080   5.287 -0.7890  1.9521  0.2190
 1927SOL     OW 6679   2.652   1.631   0.891  0.1753  0.4011  0.0575
 1927SOL    HW1 6680   2.651   1.541   0.936  0.2333 -0.5803 -1.8069
 1927SOL    HW2 6681   2.569   1.642   0.836  0.4973  1.1991 -0.2785
 1928SOL     OW 6682   4.937   2.044   0.728  0.5994  0.1936  0.0981
 1928SOL    HW1 6683   5.005   2.098   0.677 -0.5815 -0.5745 -2.4666
 1928SOL    HW2 6684   4.853   2.098   0.737 -0.1359 -0.6808 -1.2958
 1929SOL     OW 6685   5.854   4.826   3.690 -0.6982 -0.4793 -0.1474
 1929SOL    HW1 6686   5.931   4.762   3.692 -0.1383  0.1774  0.2458
 1929SOL    HW2 6687   5.861   4.887   3.770 -2.1837 -1.0418  0.4323
 1930SOL     OW 6688   1.521   6.270   4.166 -0.6676  0.2208 -0.3004
 1930SOL    HW1 6689   1.430   6.236   4.186 -0.9700  0.6763 -0.8860
 1930SOL    HW2 6690   1.522   6.370   4.173 -0.7970  0.4186 -2.5259
 1931SOL     OW 6691   4.670   0.800   2.859  0.2165 -0.0026 -0.4088
 1931SOL    HW1 6692   4.631   0.724   2.912 -0.7137  0.2208 -0.7470
 1931SOL    HW2 6693   4.713   0.764   2.777  0.6571 -0.2471 -0.0779
 1932SOL     OW 6694   2.846   2.334   0.526  0.5059 -0.1455 -0.0620
 1932SOL    HW1 6695   2.860   2.387   0.609  2.5932 -1.9068  0.8274
 1932SOL    HW2 6696   2.795   2.251   0.548  0.9043 -0.5308 -0.5665
 1933SOL     OW 6697   6.672   1.695   4.839 -0.3521 -0.1549 -0.2078
 1933SOL    HW1 6698   6.695   1.600   4.858  0.2298  0.1418  0.6226
 1933SOL    HW2 6699   6.696   1.752   4.918 -0.0019  0.7856 -0.9719
 1934SOL     OW 6700   0.418   2.020   5.772 -0.6853 -0.3329 -0.4075
 1934SOL    HW1 6701   0.509   2.008   5.732  0.2065  1.0473  1.0466
 1934SOL    HW2 6702   0.354   2.052   5.702  0.6808  1.4747 -0.9016
 1935SOL     OW 6703   2.689   2.167   4.903  0.1717  0.4059 -0.3048
 1935SOL    HW1 6704   2.726   2.084   4.862  0.7304 -0.5141  1.9341
 1935SOL    HW2 6705   2.679   2.238   4.832  2.0629 -0.7226 -1.7840
 1936SOL     OW 6706   0.063   6.757   0.306  0.9579 -0.0053 -0.4243
 1936SOL    HW1 6707   0.074   6.828   0.236  0.3654 -1.2092 -1.7936
 1936SOL    HW2 6708  -0.033   6.732   0.312  0.5663  1.7312  2.5880
 1937SOL     OW 6709   6.782   0.829   0.330  0.0577 -0.0655 -0.0187
 1937SOL    HW1 6710   6.692   0.821   0.372  0.6096 -0.2326  1.1559
 1937SOL    HW2 6711   6.819   0.921   0.345  0.1572 -0.0441 -0.3650
 1938SOL     OW 6712   1.428   3.439   2.268  0.6934 -0.2502 -0.0719
 1938SOL    HW1 6713   1.381   3.362   2.309 -0.3666  1.4649  2.1541
 1938SOL    HW2 6714   1.502   3.406   2.209  0.4871 -2.9243  1.0452
 1939SOL     OW 6715   1.235   6.771   2.097  0.1202 -0.0807  0.1596
 1939SOL    HW1 6716   1.260   6.677   2.122  1.7694  0.6938  1.5920
 1939SOL    HW2 6717   1.147   6.793   2.138 -0.9643 -1.4120 -1.3221
 1940SOL     OW 6718   2.483   4.487   2.962  0.1059 -0.5982 -0.3480
 1940SOL    HW1 6719   2.422   4.512   2.886  0.2739 -0.0737 -0.3092
 1940SOL    HW2 6720   2.575   4.471   2.927  0.0321 -1.0398 -0.3521
 1941SOL     OW 6721   1.823   0.152   5.108 -0.5534  0.3275 -0.1851
 1941SOL    HW1 6722   1.746   0.117   5.160 -0.9379 -2.1883 -2.2454
 1941SOL    HW2 6723   1.892   0.188   5.171 -1.0353 -2.3716  2.0947
 1942SOL     OW 6724   2.496   0.372   3.318 -0.2550 -0.1010 -0.7164
 1942SOL    HW1 6725   2.516   0.329   3.406  1.2010  0.4401 -0.7464
 1942SOL    HW2 6726   2.409   0.338   3.283  0.4892 -2.5129 -0.4168
 1943SOL     OW 6727   0.338   6.693   4.583  0.0338  0.6921 -0.1579
 1943SOL    HW1 6728   0.247   6.651   4.580  0.4337 -0.2976  0.6680
 1943SOL    HW2 6729   0.339   6.776   4.527 -1.3484  0.6774 -0.2377
 1944SOL     OW 6730   2.097   1.997   5.572  0.2118 -0.4186  0.0941
 1944SOL    HW1 6731   2.090   2.094   5.595 -0.9971 -0.2577 -0.8673
 1944SOL    HW2 6732   2.032   1.945   5.628 -0.0506 -0.5081 -0.2934
 1945SOL     OW 6733   4.704   2.035   5.232 -0.0382 -0.2376  0.2865
 1945SOL    HW1 6734   4.706   2.086   5.318  0.9386  0.4335 -0.1096
 1945SOL    HW2 6735   4.694   2.099   5.155  1.4289 -0.5762 -0.2330
 1946SOL     OW 6736   6.677   3.096   4.309  0.1002 -0.0551 -0.7728
 1946SOL    HW1 6737   6.770   3.061   4.309  1.4392  3.1056  1.0653
 1946SOL    HW2 6738   6.628   3.061   4.389 -0.6217 -2.1784 -2.0393
 1947SOL     OW 6739   6.091   4.475   5.999 -0.1582 -0.1779 -0.0412
 1947SOL    HW1 6740   6.090   4.433   5.908  0.4058 -1.6814  0.6157
 1947SOL    HW2 6741   5.998   4.503   6.022 -0.4007 -0.2455 -0.8737
 1948SOL     OW 6742   3.266   1.175   2.180  0.1354  0.2058  0.5879
 1948SOL    HW1 6743   3.331   1.240   2.217 -0.4672  0.1899  1.7066
 1948SOL    HW2 6744   3.198   1.151   2.250  0.5535 -1.9001  0.3371
 1949SOL     OW 6745   4.018   0.236   6.847  0.2136 -0.4110  0.2192
 1949SOL    HW1 6746   4.040   0.319   6.795  0.9611 -0.5556  0.2976
 1949SOL    HW2 6747   3.995   0.162   6.784 -2.7349  0.4191  0.1535
 1950SOL     OW 6748   5.773   5.261   4.146 -0.6439  0.4805  0.8586
 1950SOL    HW1 6749   5.701   5.295   4.206 -2.0649 -0.8759 -0.0146
 1950SOL    HW2 6750   5.851   5.232   4.201 -1.6165 -0.0523  1.9988
 1951SOL     OW 6751   4.045   1.658   4.830 -0.7878  0.3114  0.6851
 1951SOL    HW1 6752   3.950   1.678   4.852 -0.0407  1.7027  2.9660
 1951SOL    HW2 6753   4.073   1.710   4.749 -1.8111  0.2263  0.2609
 1952SOL     OW 6754   4.569   5.317   4.791  0.1282  0.2430 -0.2542
 1952SOL    HW1 6755   4.567   5.294   4.889 -0.3500  0.1774 -0.2772
 1952SOL    HW2 6756   4.572   5.417   4.781  0.1973  0.2497 -0.1715
 1953SOL     OW 6757   6.717   1.400   5.939  0.0926 -0.0560 -0.1601
 1953SOL    HW1 6758   6.661   1.353   6.008 -1.4557  2.2515  0.3016
 1953SOL    HW2 6759   6.789   1.452   5.985  1.0840 -1.0521 -0.5660
 1954SOL     OW 6760   6.082   0.759   6.976 -0.4505 -0.4511 -0.1087
 1954SOL    HW1 6761   6.177   0.782   6.995 -0.2972  0.2638 -1.6079
 1954SOL    HW2 6762   6.028   0.768   7.059  1.1054 -2.7842  1.2694
 1955SOL     OW 6763   1.535   4.989   1.796  0.1698  0.1276 -0.0432
 1955SOL    HW1 6764   1.451   5.037   1.771 -0.7491 -1.0247  0.7398
 1955SOL    HW2 6765   1.560   5.013   1.890 -0.8299 -1.5720  0.7068
 1956SOL     OW 6766   4.113   5.447   4.779 -0.0569  0.0518  0.4840
 1956SOL    HW1 6767   4.069   5.380   4.719  1.2877  1.0219 -1.6985
 1956SOL    HW2 6768   4.112   5.413   4.873 -2.1068 -1.6028 -0.0560
 1957SOL     OW 6769   2.579   5.960   4.320  0.6457 -0.8830 -0.0455
 1957SOL    HW1 6770   2.642   5.960   4.243  2.0622  0.2296  1.0629
 1957SOL    HW2 6771   2.613   6.022   4.391 -1.9339  0.1383  0.4102
 1958SOL     OW 6772   0.674   3.420   5.081  0.4287  0.0965  0.0824
 1958SOL    HW1 6773   0.653   3.342   5.140  0.9926  1.0411  1.5992
 1958SOL    HW2 6774   0.706   3.387   4.992  0.0032 -1.3819  0.4544
 1959SOL     OW 6775   3.244   1.137   0.136  0.2008  0.0763 -0.1207
 1959SOL    HW1 6776   3.217   1.200   0.208  0.1945  0.1153 -0.1572
 1959SOL    HW2 6777   3.199   1.049   0.151  0.8647 -0.1795  0.3947
 1960SOL     OW 6778   1.341   5.396   5.772 -0.5552  0.1498 -0.3772
 1960SOL    HW1 6779   1.407   5.347   5.716 -0.6736 -0.7080  0.2099
 1960SOL    HW2 6780   1.260   5.338   5.787 -1.8487  1.4952 -1.8084
 1961SOL     OW 6781   6.201   0.598   4.010  0.2236 -0.0855 -0.4376
 1961SOL    HW1 6782   6.152   0.511   4.023  3.7097 -2.2722 -0.7392
 1961SOL    HW2 6783   6.251   0.621   4.094 -0.6479  1.7355 -0.3582
 1962SOL     OW 6784   6.993   4.403   2.579  0.3129  0.5603  0.6073
 1962SOL    HW1 6785   6.937   4.486   2.572  1.8345  1.5222 -1.0602
 1962SOL    HW2 6786   7.041   4.388   2.493  1.1078 -1.3449  1.3248
 1963SOL     OW 6787   2.895   6.987   1.531  0.2363 -0.4778  0.7764
 1963SOL    HW1 6788   2.919   7.074   1.573  1.3491 -1.5238  2.4676
 1963SOL    HW2 6789   2.821   6.944   1.584  0.3042 -0.9642  0.4822
 1964SOL     OW 6790   6.299   6.351   3.583  0.1778 -0.1129 -0.2148
 1964SOL    HW1 6791   6.258   6.287   3.518  1.4728 -2.3826  1.0468
 1964SOL    HW2 6792   6.353   6.300   3.650  0.3504  2.2646  1.6006
 1965SOL     OW 6793   3.270   1.269   4.994  0.0656 -0.4116  0.5952
 1965SOL    HW1 6794   3.257   1.171   5.008  0.1604 -0.6653 -0.8839
 1965SOL    HW2 6795   3.336   1.284   4.921 -0.7060  0.7368  0.0859
 1966SOL     OW 6796   1.222   6.112   4.553 -0.2674 -0.0454  0.1620
 1966SOL    HW1 6797   1.233   6.101   4.652  2.4293 -1.3236 -0.2159
 1966SOL    HW2 6798   1.209   6.209   4.532 -3.8998  0.0538  1.9029
 1967SOL     OW 6799   2.826   5.847   3.469  0.2154 -0.1955 -0.6013
 1967SOL    HW1 6800   2.842   5.942   3.440 -1.4421  0.1491 -0.4847
 1967SOL    HW2 6801   2.900   5.818   3.529  0.2149  1.3968  0.2270
 1968SOL     OW 6802   2.604   2.334   4.216  0.2431  0.3206  0.3157
 1968SOL    HW1 6803   2.538   2.334   4.291 -0.2596 -1.4362 -0.0948
 1968SOL    HW2 6804   2.694   2.362   4.250 -0.1626  0.3503  1.3806
 1969SOL     OW 6805   6.196   3.164   0.438  0.2605  0.7631 -0.3076
 1969SOL    HW1 6806   6.178   3.101   0.514  0.3096  1.6814  0.4828
 1969SOL    HW2 6807   6.110   3.195   0.399  0.2246  0.9043 -0.1144
 1970SOL     OW 6808   7.012   6.786   1.915  0.0496 -0.1413 -0.1872
 1970SOL    HW1 6809   6.928   6.799   1.863 -1.4714 -1.1974  1.8815
 1970SOL    HW2 6810   6.995   6.725   1.992  2.3401  0.9097  1.2667
 1971SOL     OW 6811   0.098   4.090   0.027 -0.6017 -0.6359  0.8482
 1971SOL    HW1 6812   0.129   4.122   0.117 -3.3073  0.4191  1.5195
 1971SOL    HW2 6813   0.038   4.011   0.039 -2.2219  0.4528  0.1704
 1972SOL     OW 6814   3.559   3.439   3.179  0.0285  0.0323 -0.0742
 1972SOL    HW1 6815   3.640   3.408   3.227  2.2170  0.1124 -3.3982
 1972SOL    HW2 6816   3.491   3.366   3.176  0.0792 -0.1839  2.3710
 1973SOL     OW 6817   1.233   3.566   5.170  0.0270  0.1432  0.2095
 1973SOL    HW1 6818   1.308   3.569   5.103 -0.9176  1.1992 -0.8542
 1973SOL    HW2 6819   1.158   3.511   5.133 -0.1418 -0.0354  0.8147
 1974SOL     OW 6820   0.496   3.384   5.780  0.2020  0.1316 -0.3905
 1974SOL    HW1 6821   0.510   3.303   5.723  1.4468  1.2427 -1.7590
 1974SOL    HW2 6822   0.514   3.466   5.726 -0.3950  1.3189  1.1298
 1975SOL     OW 6823   4.332   5.629   4.874  0.3538  0.2179  0.1747
 1975SOL    HW1 6824   4.414   5.618   4.818  0.5205 -2.6115  0.8178
 1975SOL    HW2 6825   4.261   5.568   4.841 -0.1553 -0.1954  1.9393
 1976SOL     OW 6826   6.278   5.546   1.348  0.1580  0.0802  0.7389
 1976SOL    HW1 6827   6.242   5.476   1.410  0.6931 -0.1482  0.8018
 1976SOL    HW2 6828   6.293   5.506   1.258  1.9121 -0.3126  1.1733
 1977SOL     OW 6829   1.305   2.357   6.739 -0.4080  0.5253 -0.0844
 1977SOL    HW1 6830   1.359   2.347   6.823 -1.7930  1.3670  0.9481
 1977SOL    HW2 6831   1.308   2.452   6.709 -0.4252  0.3499 -0.6444
 1978SOL     OW 6832   5.417   6.322   5.860  0.1341  0.3378 -0.1157
 1978SOL    HW1 6833   5.330   6.363   5.887 -0.4282 -1.1944  0.5306
 1978SOL    HW2 6834   5.482   6.327   5.935 -0.0605 -0.2618  0.0982
 1979SOL     OW 6835   4.593   1.560   1.705  0.0337  0.8371 -0.2046
 1979SOL    HW1 6836   4.673   1.506   1.730 -1.5586 -1.4395  0.3022
 1979SOL    HW2 6837   4.622   1.650   1.674  2.8491 -0.2943 -1.1892
 1980SOL     OW 6838   4.795   1.950   3.379 -0.6694  0.4181  0.2686
 1980SOL    HW1 6839   4.786   1.855   3.348 -0.1958  0.3909  0.2050
 1980SOL    HW2 6840   4.707   1.983   3.412 -0.7160 -0.2209  0.7981
 1981SOL     OW 6841   4.855   6.632   6.011 -0.0287  0.0873 -0.1395
 1981SOL    HW1 6842   4.902   6.693   5.946  0.2605  1.0919  0.9702
 1981SOL    HW2 6843   4.895   6.541   6.007 -0.1282  0.0791 -1.4761
 1982SOL     OW 6844   4.636   5.392   5.324  1.0127  0.3440 -0.5867
 1982SOL    HW1 6845   4.563   5.323   5.323  0.9949  0.3338 -2.5904
 1982SOL    HW2 6846   4.602   5.476   5.366  0.9739 -0.7353  1.7235
 1983SOL     OW 6847   2.075   2.716   2.832  0.5898  0.0934  0.0694
 1983SOL    HW1 6848   2.034   2.802   2.801 -1.0375 -0.6742 -0.0287
 1983SOL    HW2 6849   2.006   2.644   2.831  1.8299 -1.1534  0.4854
 1984SOL     OW 6850   6.231   3.609   6.985  0.4475  0.2745 -0.3493
 1984SOL    HW1 6851   6.202   3.574   6.895  2.5644 -0.3929 -0.8206
 1984SOL    HW2 6852   6.326   3.638   6.980 -0.0065  2.2108  1.1765
 1985SOL     OW 6853   2.965   6.600   4.990  0.0351  0.3073  0.1180
 1985SOL    HW1 6854   3.049   6.649   4.968  1.4306 -1.1444  1.8200
 1985SOL    HW2 6855   2.959   6.589   5.090 -1.6006 -0.5906 -0.0531
 1986SOL     OW 6856   2.966   3.900   5.539 -0.0588  0.1076  0.5101
 1986SOL    HW1 6857   2.956   3.862   5.447 -1.0098 -1.0118  1.0451
 1986SOL    HW2 6858   2.937   3.832   5.606 -0.4899  1.3137  1.5857
 1987SOL     OW 6859   5.176   1.289   5.692  0.1422  0.1385 -0.9742
 1987SOL    HW1 6860   5.144   1.383   5.702 -2.8683 -0.9980  2.1501
 1987SOL    HW2 6861   5.109   1.237   5.638 -0.0118 -0.9301  0.2100
 1988SOL     OW 6862   3.730   1.016   3.863 -0.2188 -0.0134  0.3290
 1988SOL    HW1 6863   3.657   0.949   3.855 -0.6057  0.5763 -2.2473
 1988SOL    HW2 6864   3.809   0.986   3.810  0.6297  0.3435  1.3565
 1989SOL     OW 6865   5.480   0.668   2.157  0.0055  0.0854 -0.4721
 1989SOL    HW1 6866   5.503   0.732   2.229 -0.2925  0.8163 -1.0150
 1989SOL    HW2 6867   5.560   0.612   2.135  0.1733  0.0471  0.2218
 1990SOL     OW 6868   3.025   4.823   2.152 -1.1833  0.2888 -0.0021
 1990SOL    HW1 6869   3.113   4.804   2.109 -0.7474  1.7890  0.1743
 1990SOL    HW2 6870   2.958   4.754   2.122  0.0390 -0.9183 -0.0792
 1991SOL     OW 6871   3.609   5.527   3.068 -0.3999 -0.3520  0.1782
 1991SOL    HW1 6872   3.626   5.440   3.113  0.2164  0.5094  1.6963
 1991SOL    HW2 6873   3.655   5.528   2.979  1.2749 -0.8714  0.9827
 1992SOL     OW 6874   0.943   3.190   6.610  0.3086  0.7887  0.2461
 1992SOL    HW1 6875   0.864   3.127   6.612  0.4045  0.5847 -1.2440
 1992SOL    HW2 6876   1.011   3.155   6.546  1.6080  0.9988  1.4796
 1993SOL     OW 6877   2.560   5.021   1.528 -0.2205  0.3741 -0.2492
 1993SOL    HW1 6878   2.637   5.008   1.466  0.1730 -1.3403  0.5220
 1993SOL    HW2 6879   2.569   4.958   1.606 -0.7772  2.3235  1.4950
 1994SOL     OW 6880   6.528   0.084   6.102 -0.3101  0.0145 -0.0487
 1994SOL    HW1 6881   6.619   0.093   6.061 -0.8690 -2.5092 -2.1420
 1994SOL    HW2 6882   6.533   0.101   6.200  2.2845  0.5105 -0.2091
 1995SOL     OW 6883   3.898   4.888   6.491  0.3494 -0.1551  0.1681
 1995SOL    HW1 6884   3.875   4.863   6.397 -1.3141 -0.8245  0.7063
 1995SOL    HW2 6885   3.923   4.806   6.542 -0.0663  0.0009  0.6336
 1996SOL     OW 6886   2.935   1.268   3.533  0.8992 -0.1308  0.2404
 1996SOL    HW1 6887   2.871   1.192   3.535 -0.2770  0.7678 -1.0069
 1996SOL    HW2 6888   2.902   1.342   3.592  0.2954  0.6663 -1.0491
 1997SOL     OW 6889   2.013   1.605   2.588 -0.4048 -1.0544 -0.4246
 1997SOL    HW1 6890   1.926   1.629   2.630  0.2051  0.4188  0.0528
 1997SOL    HW2 6891   2.084   1.599   2.658 -0.0545 -1.9842 -0.8407
 1998SOL     OW 6892   4.035   0.333   0.450  0.2749 -0.6131 -0.2426
 1998SOL    HW1 6893   3.964   0.380   0.502 -2.7824 -2.2802 -2.5627
 1998SOL    HW2 6894   4.080   0.397   0.388 -0.6973  0.1132 -0.2136
 1999SOL     OW 6895   0.386   6.373   5.335  0.1045 -0.2548 -0.5133
 1999SOL    HW1 6896   0.462   6.310   5.316 -0.1025 -0.2759 -1.2856
 1999SOL    HW2 6897   0.306   6.321   5.363  1.1158 -0.1315  3.1471
 2000SOL     OW 6898   1.516   1.363   3.529  0.0408 -0.1835  0.1375
 2000SOL    HW1 6899   1.563   1.450   3.516 -0.7247  0.1664 -0.3673
 2000SOL    HW2 6900   1.510   1.314   3.443 -0.0131 -0.4824  0.3082
 2001SOL     OW 6901   4.635   2.193   6.409 -0.0101 -0.0426 -0.3272
 2001SOL    HW1 6902   4.599   2.282   6.381 -0.1658 -0.4107 -1.3165
 2001SOL    HW2 6903   4.588   2.121   6.359 -0.2726 -0.7280  0.8646
 2002SOL     OW 6904   0.960   6.137   6.237 -0.2834  0.0527  0.3185
 2002SOL    HW1 6905   0.892   6.123   6.165 -2.1304  0.4129  1.9183
 2002SOL    HW2 6906   1.050   6.153   6.195 -0.8199 -1.9387 -1.8396
 2003SOL     OW 6907   6.365   4.975   0.736 -0.5142 -0.1877  0.2814
 2003SOL    HW1 6908   6.325   5.053   0.784  0.0905 -0.2006  0.8062
 2003SOL    HW2 6909   6.291   4.919   0.697 -0.9979 -0.0123  0.9334
 2004SOL     OW 6910   2.681   5.307   4.440  0.4851 -0.0131 -0.3041
 2004SOL    HW1 6911   2.741   5.257   4.503 -0.6049 -1.3079 -0.2264
 2004SOL    HW2 6912   2.587   5.301   4.474  0.3317  2.4980 -0.0744
 2005SOL     OW 6913   0.303   4.108   5.428  0.5084 -0.2024 -0.6423
 2005SOL    HW1 6914   0.361   4.173   5.380 -0.4355  0.8103 -0.4480
 2005SOL    HW2 6915   0.300   4.131   5.526  0.7720 -1.0009 -0.4389
 2006SOL     OW 6916   5.689   2.823   4.638 -0.0541  0.3074  0.0352
 2006SOL    HW1 6917   5.736   2.846   4.723  0.5706 -0.5111 -0.0787
 2006SOL    HW2 6918   5.668   2.725   4.637 -0.5443  0.4125 -0.5170
 2007SOL     OW 6919   2.138   1.747   3.703  0.3611 -0.0294 -0.2550
 2007SOL    HW1 6920   2.140   1.777   3.799  0.5032 -1.4851  0.2141
 2007SOL    HW2 6921   2.073   1.803   3.652  0.3008  0.7809  0.6777
 2008SOL     OW 6922   3.820   1.994   1.055 -0.1336 -0.5996  0.3521
 2008SOL    HW1 6923   3.818   1.964   0.959  0.3381 -0.0222  0.1475
 2008SOL    HW2 6924   3.870   2.081   1.061  1.0907 -1.3396  1.3108
 2009SOL     OW 6925   4.558   1.860   5.404 -0.3588 -0.0689  0.2095
 2009SOL    HW1 6926   4.571   1.911   5.319 -0.8443  1.5937  1.0892
 2009SOL    HW2 6927   4.507   1.915   5.469 -0.0192 -1.3061  1.5987
 2010SOL     OW 6928   2.225   4.033   4.223 -0.1773 -0.4320  0.2642
 2010SOL    HW1 6929   2.216   4.051   4.125 -0.9249 -1.4770  0.1181
 2010SOL    HW2 6930   2.147   4.074   4.271  0.2965  0.2556  0.4521
 2011SOL     OW 6931   1.771   3.643   0.178 -0.6320  0.0329 -0.6500
 2011SOL    HW1 6932   1.816   3.646   0.268  0.0179  0.0313 -0.9643
 2011SOL    HW2 6933   1.747   3.736   0.150 -0.6818  0.0520 -0.5430
 2012SOL     OW 6934   5.842   3.487   3.571  0.9223 -0.4200  0.3803
 2012SOL    HW1 6935   5.848   3.416   3.641 -1.5476 -0.3431  0.7664
 2012SOL    HW2 6936   5.816   3.573   3.613 -1.6520 -0.5998 -0.6430
 2013SOL     OW 6937   1.469   1.129   6.825 -0.8841  1.1001 -0.2131
 2013SOL    HW1 6938   1.495   1.208   6.769 -0.9367  0.3793 -1.2806
 2013SOL    HW2 6939   1.439   1.055   6.766 -1.0903  0.3613  0.7943
 2014SOL     OW 6940   0.365   4.215   4.103  0.2200  0.1384 -0.4969
 2014SOL    HW1 6941   0.297   4.144   4.083 -0.0069  0.5415 -1.1727
 2014SOL    HW2 6942   0.318   4.298   4.133  0.5018 -0.0936  0.6448
 2015SOL     OW 6943   2.290   4.777   1.618  0.5053  0.0902  0.3705
 2015SOL    HW1 6944   2.245   4.867   1.620 -0.8082 -0.5374  0.0539
 2015SOL    HW2 6945   2.354   4.774   1.541 -0.6851  0.2084 -0.6628
 2016SOL     OW 6946   3.348   3.692   0.308  0.3807  0.4914  0.2855
 2016SOL    HW1 6947   3.419   3.762   0.305  0.8822  0.0508  1.3987
 2016SOL    HW2 6948   3.355   3.641   0.393 -1.3842  0.5506  0.5093
 2017SOL     OW 6949   4.755   6.264   0.297 -0.1782 -0.4379  0.1055
 2017SOL    HW1 6950   4.850   6.283   0.273 -0.1403  0.1955  0.7346
 2017SOL    HW2 6951   4.749   6.233   0.392 -0.6504  0.0579  0.2455
 2018SOL     OW 6952   1.307   0.565   3.345  0.0558 -0.2519 -0.7556
 2018SOL    HW1 6953   1.242   0.495   3.374  1.4216 -1.3064 -0.1736
 2018SOL    HW2 6954   1.400   0.528   3.348  0.8009  1.5492 -0.5379
 2019SOL     OW 6955   5.716   0.000   1.837  0.7101 -0.1425  0.2111
 2019SOL    HW1 6956   5.632   0.044   1.868 -0.2272 -1.1469 -0.8117
 2019SOL    HW2 6957   5.753   0.051   1.759  0.7820  0.0183  0.3494
 2020SOL     OW 6958   1.213   0.461   6.793 -0.4192  0.4674 -0.2214
 2020SOL    HW1 6959   1.262   0.425   6.713 -0.2642  0.4710 -0.1280
 2020SOL    HW2 6960   1.267   0.533   6.836 -0.4222  0.3489 -0.0136
 2021SOL     OW 6961   6.040   1.553   2.880 -0.4333  0.3812  0.0907
 2021SOL    HW1 6962   6.013   1.499   2.960 -1.4645 -1.6787 -1.5504
 2021SOL    HW2 6963   5.981   1.633   2.872  0.3023  1.1643  1.8581
 2022SOL     OW 6964   1.529   4.560   4.562  0.0484  0.4637  0.3829
 2022SOL    HW1 6965   1.568   4.505   4.637  3.1853  1.8733 -0.0800
 2022SOL    HW2 6966   1.447   4.514   4.528 -0.9006 -0.8174  3.8897
 2023SOL     OW 6967   3.904   6.262   5.590  0.0198 -0.2402  0.3947
 2023SOL    HW1 6968   3.892   6.246   5.492  1.8407  0.6885 -0.0236
 2023SOL    HW2 6969   3.882   6.356   5.612 -1.1192 -0.6452  1.0346
 2024SOL     OW 6970   3.623   6.016   2.621  0.4532 -0.4439  0.1213
 2024SOL    HW1 6971   3.550   5.966   2.574 -0.4184  1.1315 -0.2882
 2024SOL    HW2 6972   3.689   6.049   2.553 -0.1005  0.7086  0.1218
 2025SOL     OW 6973   2.424   2.822   1.853  0.1486  0.0307 -0.1469
 2025SOL    HW1 6974   2.375   2.893   1.802  1.4580 -0.0967 -1.6587
 2025SOL    HW2 6975   2.520   2.820   1.823  0.6116 -1.0565  1.3001
 2026SOL     OW 6976   2.070   3.225   2.676 -0.2507  0.0324 -0.1273
 2026SOL    HW1 6977   1.998   3.270   2.730 -0.9555  0.2460 -1.2176
 2026SOL    HW2 6978   2.153   3.219   2.731 -1.0641 -0.1272  1.1247
 2027SOL     OW 6979   3.315   0.013   0.946  0.5648  0.0453  0.4124
 2027SOL    HW1 6980   3.299   0.098   0.995  0.9631  0.4323 -0.1164
 2027SOL    HW2 6981   3.259   0.012   0.863  0.1652 -0.4460  0.6791
 2028SOL     OW 6982   6.123   5.253   1.141  1.0548  0.1451 -0.8322
 2028SOL    HW1 6983   6.154   5.224   1.050  2.2247 -2.8234  0.3707
 2028SOL    HW2 6984   6.198   5.241   1.207 -0.4177  0.0228  0.9028
 2029SOL     OW 6985   6.031   6.592   1.372 -0.0551 -0.0119  0.0681
 2029SOL    HW1 6986   6.026   6.597   1.472  1.2124 -1.1447  0.2166
 2029SOL    HW2 6987   5.959   6.530   1.339 -1.0173  1.0127  0.1804
 2030SOL     OW 6988   6.039   1.883   5.243 -1.0462  0.3756 -0.6424
 2030SOL    HW1 6989   6.061   1.979   5.257  0.6012  0.3431 -2.6298
 2030SOL    HW2 6990   6.011   1.868   5.149  0.2807 -1.3165 -0.8208
 2031SOL     OW 6991   6.675   5.385   4.515  0.4739  0.5517  0.6903
 2031SOL    HW1 6992   6.769   5.403   4.487  0.1331 -2.1244 -2.8161
 2031SOL    HW2 6993   6.613   5.450   4.471  0.4277  0.2518  0.3113
 2032SOL     OW 6994   6.922   5.240   1.535  0.1627  0.1532 -0.1009
 2032SOL    HW1 6995   6.968   5.232   1.623  1.1018  0.5950 -0.5345
 2032SOL    HW2 6996   6.851   5.311   1.540  0.9858  0.9900 -0.0035
 2033SOL     OW 6997   6.381   5.177   6.222 -0.6581 -0.0344 -0.3279
 2033SOL    HW1 6998   6.395   5.271   6.191  0.1346 -0.1790 -0.4455
 2033SOL    HW2 6999   6.298   5.140   6.180 -0.5225  0.3339 -0.9402
 2034SOL     OW 7000   6.011   6.692   1.629 -0.5361 -0.2391  0.2155
 2034SOL    HW1 7001   6.065   6.702   1.713 -2.9879  1.9963  1.7038
 2034SOL    HW2 7002   5.948   6.615   1.640 -0.5622 -0.2091  0.2817
 2035SOL     OW 7003   5.881   4.777   6.579  0.1646 -0.0775  0.1845
 2035SOL    HW1 7004   5.867   4.829   6.495  3.0423  0.0559 -0.3197
 2035SOL    HW2 7005   5.850   4.683   6.566 -0.6690  0.2887 -0.5389
 2036SOL     OW 7006   0.498   5.425   3.623  0.0376  0.7233 -0.1853
 2036SOL    HW1 7007   0.438   5.486   3.571  0.5103 -0.4120 -2.1753
 2036SOL    HW2 7008   0.444   5.352   3.664 -0.6196  2.6832  2.7203
 2037SOL     OW 7009   5.711   2.436   0.386 -0.6165  0.2470  0.4002
 2037SOL    HW1 7010   5.622   2.406   0.419 -0.3968 -1.0163 -0.0991
 2037SOL    HW2 7011   5.754   2.494   0.455 -1.7098  0.6843  0.7485
 2038SOL     OW 7012   0.996   2.012   4.831 -0.5520 -0.3922 -0.3766
 2038SOL    HW1 7013   0.900   2.012   4.803 -0.6513  0.2188 -0.0530
 2038SOL    HW2 7014   1.014   1.934   4.891 -1.7396  1.4328  2.5290
 2039SOL     OW 7015   3.107   5.771   0.350  0.3210  0.1590  0.6393
 2039SOL    HW1 7016   3.190   5.748   0.299 -1.3550 -1.1561 -1.7086
 2039SOL    HW2 7017   3.118   5.746   0.446  2.2454 -0.9901  0.1552
 2040SOL     OW 7018   3.701   3.227   2.328  0.3779  0.5891  0.2103
 2040SOL    HW1 7019   3.683   3.276   2.413  0.1402  1.3837 -0.2895
 2040SOL    HW2 7020   3.731   3.134   2.349 -1.3558  0.1961  1.1430
 2041SOL     OW 7021   0.025   0.836   5.996  0.0374 -0.0815 -0.6996
 2041SOL    HW1 7022  -0.041   0.899   5.955 -2.4226 -2.3284 -0.4399
 2041SOL    HW2 7023   0.012   0.744   5.959  1.9390 -0.9367  0.5880
 2042SOL     OW 7024   1.064   2.693   5.914  1.0870 -0.0761  0.0778
 2042SOL    HW1 7025   1.099   2.758   5.846 -0.3924 -0.8140 -1.4650
 2042SOL    HW2 7026   1.031   2.743   5.994 -0.1972  1.1419 -1.1484
 2043SOL     OW 7027   3.414   4.167   3.228 -0.1549 -0.1560  0.2688
 2043SOL    HW1 7028   3.395   4.263   3.205 -1.2723 -0.6963 -1.1800
 2043SOL    HW2 7029   3.512   4.154   3.240  0.0882  0.9953 -0.3524
 2044SOL     OW 7030   5.922   0.994   1.351 -0.7357 -0.6642  0.8055
 2044SOL    HW1 7031   5.848   1.062   1.349 -0.4248 -0.0943 -4.3282
 2044SOL    HW2 7032   6.010   1.041   1.344 -0.4666 -1.3905 -1.7881
 2045SOL     OW 7033   1.340   1.348   2.808 -0.4186 -0.4593  0.0990
 2045SOL    HW1 7034   1.315   1.252   2.808 -0.1873 -0.5198  0.0399
 2045SOL    HW2 7035   1.428   1.360   2.854 -0.0044 -0.3904 -0.6989
 2046SOL     OW 7036   0.915   4.279   6.191  0.0210 -0.5259 -0.2217
 2046SOL    HW1 7037   0.858   4.242   6.264 -1.0370  2.2362  0.5055
 2046SOL    HW2 7038   0.864   4.277   6.105 -1.3026  1.8073  0.4008
 2047SOL     OW 7039   1.188   2.988   3.281 -0.1024 -0.2673  0.6750
 2047SOL    HW1 7040   1.129   2.910   3.260 -1.3432  0.6726  0.5583
 2047SOL    HW2 7041   1.284   2.960   3.272 -0.5205 -1.4440 -0.6081
 2048SOL     OW 7042   3.796   5.162   4.155  0.0967 -0.5038 -0.6271
 2048SOL    HW1 7043   3.754   5.084   4.202  0.5187 -0.5343 -0.2999
 2048SOL    HW2 7044   3.804   5.239   4.219 -1.6468  0.3195 -1.3042
 2049SOL     OW 7045   6.801   6.870   5.880  0.3544 -0.3425 -0.0736
 2049SOL    HW1 7046   6.731   6.873   5.808 -0.0936 -1.5223  0.2921
 2049SOL    HW2 7047   6.853   6.785   5.872  0.3404 -0.4597  0.9415
 2050SOL     OW 7048   2.369   5.063   4.556  0.9204  0.6760  0.1599
 2050SOL    HW1 7049   2.289   5.032   4.607 -0.9103  0.3058 -2.7075
 2050SOL    HW2 7050   2.387   5.159   4.577 -0.3704  0.8053  0.7849
 2051SOL     OW 7051   5.583   1.978   6.082 -0.1975 -0.4263 -0.0065
 2051SOL    HW1 7052   5.594   1.964   5.984 -1.4575 -2.0918  0.0520
 2051SOL    HW2 7053   5.622   2.067   6.107 -1.2682  0.7733 -2.2701
 2052SOL     OW 7054   6.839   2.802   3.042  0.1714 -0.3339  0.3068
 2052SOL    HW1 7055   6.888   2.715   3.030  2.6468  0.8576  0.9923
 2052SOL    HW2 7056   6.886   2.873   2.989 -0.8895  0.8937  0.9758
 2053SOL     OW 7057   3.812   5.662   1.478 -0.3669 -0.3643 -0.0536
 2053SOL    HW1 7058   3.829   5.754   1.512 -0.2803 -0.3890 -0.0286
 2053SOL    HW2 7059   3.800   5.599   1.555  1.2924 -0.6982 -0.0171
 2054SOL     OW 7060   6.566   4.799   1.224 -0.4044  0.5263  0.6558
 2054SOL    HW1 7061   6.512   4.859   1.165  1.0121  0.5666 -0.6665
 2054SOL    HW2 7062   6.642   4.851   1.264  0.5196 -0.2113 -0.0764
 2055SOL     OW 7063   0.039   5.490   3.027  0.2918 -0.0159  0.1063
 2055SOL    HW1 7064  -0.060   5.478   3.020  0.1845 -0.2016  1.6022
 2055SOL    HW2 7065   0.062   5.536   3.113  1.5297 -0.3086 -0.0386
 2056SOL     OW 7066   3.251   5.548   0.912 -0.5135 -0.1021 -0.1843
 2056SOL    HW1 7067   3.341   5.582   0.884 -0.9405 -0.0555 -1.5621
 2056SOL    HW2 7068   3.179   5.598   0.865 -1.4240  1.4211  2.5613
 2057SOL     OW 7069   4.213   3.595   5.423 -0.1812  0.7180 -0.0393
 2057SOL    HW1 7070   4.138   3.631   5.368  0.4817  0.2410 -1.3079
 2057SOL    HW2 7071   4.281   3.552   5.363  1.1433  1.1912  1.0634
 2058SOL     OW 7072   0.672   4.444   1.932  0.2263 -0.0414 -0.3249
 2058SOL    HW1 7073   0.689   4.542   1.932 -0.3510  0.1128  1.7479
 2058SOL    HW2 7074   0.583   4.425   1.889  0.0448  0.4177 -0.1534
 2059SOL     OW 7075   1.629   0.134   2.179  0.2883 -0.1964  0.2093
 2059SOL    HW1 7076   1.676   0.115   2.093  0.6196 -0.3563  0.4225
 2059SOL    HW2 7077   1.560   0.063   2.196 -1.9562  1.4255 -1.4245
 2060SOL     OW 7078   6.325   3.841   1.000 -0.2275 -0.6706  0.0431
 2060SOL    HW1 7079   6.415   3.879   0.980  0.3355 -2.5794 -1.3282
 2060SOL    HW2 7080   6.259   3.874   0.932  0.0267 -1.2467 -0.4978
 2061SOL     OW 7081   1.441   3.228   4.383 -0.2911  0.4754  0.0917
 2061SOL    HW1 7082   1.538   3.252   4.387  0.3913 -2.0336  0.9912
 2061SOL    HW2 7083   1.416   3.204   4.290  0.3803 -0.3063  0.1024
 2062SOL     OW 7084   1.072   5.060   2.328  0.6888  0.8946 -0.0634
 2062SOL    HW1 7085   1.116   5.112   2.254  0.2938  0.4177 -0.6437
 2062SOL    HW2 7086   0.973   5.063   2.316  0.6784 -1.0780 -0.8843
 2063SOL     OW 7087   3.620   0.543   1.317  0.0883  0.0711  0.0763
 2063SOL    HW1 7088   3.578   0.475   1.256  1.6806 -0.3576 -0.5967
 2063SOL    HW2 7089   3.696   0.587   1.270  0.9871  0.1534  1.5474
 2064SOL     OW 7090   3.851   0.269   2.078  0.1076  0.6442 -0.6062
 2064SOL    HW1 7091   3.862   0.170   2.071  0.3104  0.6906 -0.9801
 2064SOL    HW2 7092   3.754   0.292   2.080 -0.0415  0.2304  2.7456
 2065SOL     OW 7093   2.468   0.661   1.924 -0.0781 -0.7632  0.0050
 2065SOL    HW1 7094   2.541   0.672   1.856 -1.2996  1.3477 -1.0538
 2065SOL    HW2 7095   2.506   0.675   2.015  0.7083  1.4947 -0.5941
 2066SOL     OW 7096   3.331   3.518   2.128  0.0786 -0.2234  0.0584
 2066SOL    HW1 7097   3.257   3.500   2.192 -1.5104  0.6904 -1.4327
 2066SOL    HW2 7098   3.394   3.440   2.126 -0.1103 -0.4777  2.2834
 2067SOL     OW 7099   1.376   4.988   0.858 -0.0127 -0.1589  0.0334
 2067SOL    HW1 7100   1.438   4.959   0.931  0.1169 -0.9000 -0.3610
 2067SOL    HW2 7101   1.355   5.085   0.869 -0.1069 -0.2869  1.1340
 2068SOL     OW 7102   3.364   2.671   1.300  0.5423 -0.0600 -0.2559
 2068SOL    HW1 7103   3.336   2.765   1.284 -0.2116 -0.3542 -0.7012
 2068SOL    HW2 7104   3.325   2.639   1.387 -0.2349 -0.3502 -0.6986
 2069SOL     OW 7105   6.096   4.216   1.800 -0.0726  0.0440 -0.5213
 2069SOL    HW1 7106   5.999   4.219   1.827 -0.6983 -1.0756 -2.4415
 2069SOL    HW2 7107   6.109   4.271   1.718  1.1667  0.9535  0.2363
 2070SOL     OW 7108   3.561   4.138   1.199  0.2848  0.0533  0.1923
 2070SOL    HW1 7109   3.584   4.140   1.296  1.6531  1.1074 -0.1248
 2070SOL    HW2 7110   3.464   4.159   1.187 -0.1951 -1.3300  1.3828
 2071SOL     OW 7111   0.691   6.750   0.738 -0.2377  0.2640 -0.0837
 2071SOL    HW1 7112   0.744   6.728   0.820 -0.1382 -0.8667 -0.4380
 2071SOL    HW2 7113   0.605   6.793   0.765 -0.7489 -1.1787  0.7000
 2072SOL     OW 7114   4.766   1.404   0.595  0.0557  0.0514 -0.0390
 2072SOL    HW1 7115   4.844   1.356   0.637 -0.1542  0.8143  1.2689
 2072SOL    HW2 7116   4.773   1.502   0.615  0.3559  0.5824 -2.4789
 2073SOL     OW 7117   5.129   1.106   5.011 -0.0184  0.1188  0.6891
 2073SOL    HW1 7118   5.119   1.017   5.055  2.8518 -0.0373  1.2300
 2073SOL    HW2 7119   5.087   1.177   5.067 -2.0239 -0.8075  0.4249
 2074SOL     OW 7120   5.189   0.565   1.524 -0.4238 -0.3526  0.4944
 2074SOL    HW1 7121   5.160   0.484   1.575 -1.7265 -0.8770 -1.0061
 2074SOL    HW2 7122   5.137   0.644   1.556 -0.0863 -0.3508  1.0566
 2075SOL     OW 7123   3.866   5.889   1.840 -0.4623 -0.1901  0.0283
 2075SOL    HW1 7124   3.868   5.950   1.919  1.3076  0.8633 -0.7932
 2075SOL    HW2 7125   3.896   5.798   1.868  2.7362  0.7850  0.1654
 2076SOL     OW 7126   4.415   1.533   2.541 -0.0237 -0.0371  0.1505
 2076SOL    HW1 7127   4.410   1.633   2.542  0.6083  0.0224 -0.8655
 2076SOL    HW2 7128   4.323   1.495   2.543 -0.3071  0.5935 -0.4543
 2077SOL     OW 7129   5.029   2.368   6.616  0.0531  0.5186  0.7021
 2077SOL    HW1 7130   5.043   2.394   6.520  1.2912 -0.1428  0.6865
 2077SOL    HW2 7131   4.999   2.273   6.620  2.0517 -0.1404  1.0344
 2078SOL     OW 7132   0.224   3.171   4.367 -0.4661  0.4441 -0.5793
 2078SOL    HW1 7133   0.192   3.265   4.378  0.5428  0.7271  0.0115
 2078SOL    HW2 7134   0.234   3.127   4.456 -1.2797 -0.3590 -0.8617
 2079SOL     OW 7135   3.198   2.933   2.723  0.2662  0.3250  0.2948
 2079SOL    HW1 7136   3.273   2.889   2.772 -0.9552 -1.0432  1.0074
 2079SOL    HW2 7137   3.115   2.927   2.777 -0.7843  0.1395 -1.2706
 2080SOL     OW 7138   2.944   1.988   2.880 -0.4265 -0.1214 -0.7187
 2080SOL    HW1 7139   2.876   2.056   2.853  1.8434  1.9714 -1.5052
 2080SOL    HW2 7140   2.984   2.012   2.968  0.9524  0.0690 -1.3607
 2081SOL     OW 7141   2.187   2.159   1.057 -0.1217  0.5115  0.3154
 2081SOL    HW1 7142   2.251   2.087   1.084  0.7341  0.3910 -1.8889
 2081SOL    HW2 7143   2.196   2.236   1.121  2.4645  0.6163 -0.0821
 2082SOL     OW 7144   0.587   6.786   3.202 -0.3609 -0.0953 -0.2176
 2082SOL    HW1 7145   0.673   6.830   3.179 -0.4683  0.9663  1.2703
 2082SOL    HW2 7146   0.512   6.850   3.187 -0.7071 -0.3969  0.2036
 2083SOL     OW 7147   2.408   2.682   5.118  0.0641  0.2832  0.0311
 2083SOL    HW1 7148   2.394   2.770   5.072 -0.1684  1.1305  1.6207
 2083SOL    HW2 7149   2.428   2.699   5.215 -1.5909 -1.4846  0.7376
 2084SOL     OW 7150   2.274   5.376   6.685 -0.1996 -0.0677  0.2621
 2084SOL    HW1 7151   2.304   5.438   6.757 -0.9933  0.1227  0.4380
 2084SOL    HW2 7152   2.195   5.415   6.639 -0.0199 -0.4379 -0.3644
 2085SOL     OW 7153   3.489   0.223   2.262 -0.0961 -0.0353  0.0665
 2085SOL    HW1 7154   3.528   0.301   2.212 -0.2860 -0.4023 -0.6654
 2085SOL    HW2 7155   3.441   0.163   2.198 -2.9968  1.0347  1.0693
 2086SOL     OW 7156   3.027   1.974   6.690  0.8716 -0.0454  0.1413
 2086SOL    HW1 7157   2.951   1.910   6.679  0.9491 -0.1452  0.1762
 2086SOL    HW2 7158   3.107   1.924   6.724  1.7232 -0.4686 -2.2359
 2087SOL     OW 7159   1.338   1.579   0.566  0.5265  0.7710  0.1643
 2087SOL    HW1 7160   1.314   1.576   0.663 -1.4844  1.6881 -0.2656
 2087SOL    HW2 7161   1.296   1.659   0.523 -0.7855 -0.9862 -2.0113
 2088SOL     OW 7162   3.452   0.062   6.764 -0.6353 -0.5168 -0.4771
 2088SOL    HW1 7163   3.461   0.062   6.665 -0.1193  0.7008 -0.4540
 2088SOL    HW2 7164   3.492   0.146   6.801 -0.8448 -0.9361  0.7603
 2089SOL     OW 7165   3.424   3.626   3.469  0.5960  0.1404 -0.1829
 2089SOL    HW1 7166   3.478   3.620   3.385 -1.6714 -0.1678 -1.7217
 2089SOL    HW2 7167   3.458   3.701   3.525  2.3650  0.1683 -1.2214
 2090SOL     OW 7168   1.891   4.347   6.827  0.1282 -0.4834  0.2238
 2090SOL    HW1 7169   1.831   4.348   6.907 -1.9451  0.7071 -1.2358
 2090SOL    HW2 7170   1.945   4.431   6.825  0.4370 -0.6715  0.5328
 2091SOL     OW 7171   0.603   0.236   6.063  0.5886  0.2969  0.4419
 2091SOL    HW1 7172   0.646   0.323   6.038  1.2295  0.9407  3.4204
 2091SOL    HW2 7173   0.674   0.168   6.083  0.1026 -0.3236  0.1185
 2092SOL     OW 7174   4.985   5.443   6.851  0.4778 -0.3229  0.0648
 2092SOL    HW1 7175   4.905   5.397   6.890 -0.1124 -0.4203 -1.2143
 2092SOL    HW2 7176   5.012   5.519   6.910  1.0015 -1.8119  1.8188
 2093SOL     OW 7177   1.719   4.977   4.034 -0.2074 -0.3498  0.0777
 2093SOL    HW1 7178   1.625   4.998   4.008  0.0244 -0.6881 -1.0721
 2093SOL    HW2 7179   1.759   5.055   4.083 -0.5937  0.3990 -0.7762
 2094SOL     OW 7180   0.223   1.882   6.162 -0.2677 -0.2745 -0.2467
 2094SOL    HW1 7181   0.211   1.790   6.200  0.4838  0.3787  1.7314
 2094SOL    HW2 7182   0.167   1.892   6.080 -0.8508 -2.2776 -0.1519
 2095SOL     OW 7183   1.438   6.794   6.682 -0.1173  0.3798 -0.0232
 2095SOL    HW1 7184   1.358   6.777   6.741  1.5663 -1.8633  1.8239
 2095SOL    HW2 7185   1.514   6.826   6.739  1.1855 -0.5610 -1.1757
 2096SOL     OW 7186   3.450   5.936   1.514  0.3617 -0.0091 -0.0255
 2096SOL    HW1 7187   3.464   6.033   1.535  0.1299  0.1481 -0.5951
 2096SOL    HW2 7188   3.356   5.922   1.484  0.4327 -0.3951 -0.0696
 2097SOL     OW 7189   6.084   5.014   3.069  0.7996 -0.5203  0.3612
 2097SOL    HW1 7190   6.046   4.921   3.064 -1.7372  0.3504  1.8367
 2097SOL    HW2 7191   6.022   5.078   3.024  2.1898  0.5960 -0.0479
 2098SOL     OW 7192   0.334   4.838   7.008 -0.4237  0.4146 -0.0342
 2098SOL    HW1 7193   0.307   4.926   7.046  0.7536  0.5123  0.6267
 2098SOL    HW2 7194   0.405   4.852   6.938  0.1797 -0.0338  0.4767
 2099SOL     OW 7195   0.423   1.177   1.989 -0.0817 -0.1474 -0.1790
 2099SOL    HW1 7196   0.378   1.088   1.994  0.4108 -0.3901  0.0815
 2099SOL    HW2 7197   0.456   1.203   2.080 -2.1017  1.3081  0.2072
 2100SOL     OW 7198   5.500   6.161   0.531 -0.2233 -0.3682  0.5965
 2100SOL    HW1 7199   5.448   6.142   0.448 -0.5382 -1.8165  1.1047
 2100SOL    HW2 7200   5.593   6.125   0.522  0.6750  1.9625 -0.1980
 2101SOL     OW 7201   2.975   1.963   1.045  0.2616  0.4084 -0.5281
 2101SOL    HW1 7202   2.908   1.893   1.023 -0.5692  1.3747 -1.1900
 2101SOL    HW2 7203   2.949   2.008   1.130  1.4298 -0.8333  0.5190
 2102SOL     OW 7204   2.113   0.646   4.405 -0.1535  0.5393  0.1471
 2102SOL    HW1 7205   2.130   0.716   4.474  4.5308  2.4281 -2.4886
 2102SOL    HW2 7206   2.073   0.688   4.323  1.0794 -0.1610 -0.8466
 2103SOL     OW 7207   2.852   6.887   0.932  0.1962 -0.4274 -0.1500
 2103SOL    HW1 7208   2.811   6.978   0.919 -1.4377 -1.0015  0.6446
 2103SOL    HW2 7209   2.867   6.844   0.843 -0.8995 -0.1435 -0.4911
 2104SOL     OW 7210   0.953   6.766   6.750  0.1449 -0.0404  0.1394
 2104SOL    HW1 7211   0.977   6.832   6.822  0.8700 -1.5120  1.2886
 2104SOL    HW2 7212   0.934   6.816   6.665 -0.8981  1.7662  1.3475
 2105SOL     OW 7213   6.711   2.526   2.309  0.0230  0.4946  0.1699
 2105SOL    HW1 7214   6.710   2.626   2.299 -0.2091  0.7450  2.2931
 2105SOL    HW2 7215   6.789   2.489   2.258 -0.0704  1.7098 -0.9177
 2106SOL     OW 7216   3.844   4.674   5.626  1.0991 -0.2667  0.0191
 2106SOL    HW1 7217   3.871   4.611   5.553  1.0402 -1.4402  0.9799
 2106SOL    HW2 7218   3.756   4.645   5.663  1.1511  0.2925  0.5931
 2107SOL     OW 7219   4.350   6.269   3.652 -0.2399  0.3835  0.5553
 2107SOL    HW1 7220   4.429   6.327   3.632  0.0075 -0.3090 -0.5570
 2107SOL    HW2 7221   4.275   6.326   3.686  0.3626  1.1971  0.5617
 2108SOL     OW 7222   4.363   3.345   0.677 -0.2626  0.4804 -0.1165
 2108SOL    HW1 7223   4.349   3.342   0.578  0.3551 -1.2379 -0.1754
 2108SOL    HW2 7224   4.324   3.263   0.719  0.7891  0.4652  0.8783
 2109SOL     OW 7225   3.995   2.915   6.713  0.2862 -0.2232 -0.1621
 2109SOL    HW1 7226   3.980   2.889   6.809 -0.3129  0.1849 -0.1344
 2109SOL    HW2 7227   3.949   2.849   6.654 -2.3992  1.3961 -0.0597
 2110SOL     OW 7228   2.195   2.334   4.811 -0.0233 -0.0528 -0.0217
 2110SOL    HW1 7229   2.213   2.400   4.737  1.5372 -1.2628 -0.7944
 2110SOL    HW2 7230   2.097   2.322   4.821 -0.2977  0.6706 -1.4267
 2111SOL     OW 7231   3.672   3.296   4.774  0.1180 -0.1683  0.2866
 2111SOL    HW1 7232   3.702   3.201   4.778  1.3384  0.0306 -2.0496
 2111SOL    HW2 7233   3.617   3.318   4.854  2.8981 -1.7469  2.8087
 2112SOL     OW 7234   2.587   2.141   3.869  0.3842 -0.0394 -0.1216
 2112SOL    HW1 7235   2.615   2.236   3.854 -1.6187  0.5326 -0.4822
 2112SOL    HW2 7236   2.487   2.136   3.875  0.5096 -1.9414  1.2634
 2113SOL     OW 7237   3.345   2.104   4.397 -0.2507 -0.5246 -0.5702
 2113SOL    HW1 7238   3.408   2.141   4.328 -0.8503 -1.2722 -1.5453
 2113SOL    HW2 7239   3.395   2.049   4.463  0.4789  0.9875  0.1986
 2114SOL     OW 7240   3.376   1.628   6.757  0.1132 -0.0781 -0.2174
 2114SOL    HW1 7241   3.277   1.615   6.747  0.1154  1.1695 -2.6180
 2114SOL    HW2 7242   3.424   1.582   6.682  1.1305  1.2629 -0.4381
 2115SOL     OW 7243   4.836   5.911   3.326  0.1195  0.7162  0.3710
 2115SOL    HW1 7244   4.930   5.885   3.307 -0.0189  0.4583  0.0136
 2115SOL    HW2 7245   4.833   6.002   3.366  0.5816  0.3790  1.1869
 2116SOL     OW 7246   0.007   5.931   6.957  0.2641  0.3121  0.0761
 2116SOL    HW1 7247   0.042   6.024   6.941 -0.7375  0.6730 -0.0908
 2116SOL    HW2 7248  -0.084   5.922   6.916  0.6913 -1.0114 -0.6347
 2117SOL     OW 7249   1.695   3.018   4.609  0.1155 -0.4509  0.0350
 2117SOL    HW1 7250   1.761   3.071   4.663 -1.2414  2.9423 -1.3300
 2117SOL    HW2 7251   1.731   3.006   4.516  0.7646 -2.8540  0.5242
 2118SOL     OW 7252   6.511   2.744   6.646 -0.2447  0.0582 -0.3907
 2118SOL    HW1 7253   6.584   2.736   6.579  0.4121  0.7547  0.2205
 2118SOL    HW2 7254   6.444   2.671   6.631  0.1178 -0.0739 -1.5014
 2119SOL     OW 7255   1.916   1.009   1.000 -0.6689 -0.2586 -0.4000
 2119SOL    HW1 7256   1.903   1.086   1.063 -1.4892 -0.7662  0.0742
 2119SOL    HW2 7257   2.004   0.966   1.019 -0.6685 -0.0747  0.0368
 2120SOL     OW 7258   3.178   0.529   1.115  0.0635 -0.3024  0.3756
 2120SOL    HW1 7259   3.206   0.551   1.021 -2.5530 -1.1312 -0.6932
 2120SOL    HW2 7260   3.242   0.463   1.154  1.0555 -0.1652 -0.9411
 2121SOL     OW 7261   2.862   0.585   3.404 -0.2545 -0.4350  0.1864
 2121SOL    HW1 7262   2.793   0.596   3.332 -0.5391 -1.6965  0.2598
 2121SOL    HW2 7263   2.932   0.655   3.392 -1.5120  0.8767  0.1008
 2122SOL     OW 7264   3.089   5.818   6.698 -0.5431 -0.2208 -0.3033
 2122SOL    HW1 7265   3.117   5.817   6.602 -0.3920 -0.2359 -0.2587
 2122SOL    HW2 7266   2.993   5.789   6.706 -0.4158 -0.6638 -0.3998
 2123SOL     OW 7267   6.654   0.425   1.676  0.1759 -0.2463  0.2366
 2123SOL    HW1 7268   6.568   0.442   1.629  0.0363 -0.1195  0.5326
 2123SOL    HW2 7269   6.686   0.332   1.657 -0.8754 -0.8880  1.4425
 2124SOL     OW 7270   1.549   1.074   0.379  0.8357 -0.3486 -0.2906
 2124SOL    HW1 7271   1.642   1.079   0.416  0.7603  0.3845 -0.1686
 2124SOL    HW2 7272   1.496   1.008   0.432  1.0688 -0.1885  0.1481
 2125SOL     OW 7273   5.440   2.195   2.142  0.9153 -0.3925  0.0766
 2125SOL    HW1 7274   5.415   2.290   2.122  1.5863 -0.3898 -0.7962
 2125SOL    HW2 7275   5.426   2.177   2.239  3.5526  1.4742  0.9045
 2126SOL     OW 7276   3.788   4.520   0.133 -0.3463  0.2937  0.1218
 2126SOL    HW1 7277   3.829   4.565   0.212  0.1137  1.6368 -0.8465
 2126SOL    HW2 7278   3.741   4.437   0.163  0.4867  0.3373  1.6852
 2127SOL     OW 7279   1.515   3.354   5.152  0.1090 -0.4341 -0.2220
 2127SOL    HW1 7280   1.555   3.407   5.228  0.1653  0.5361 -0.9049
 2127SOL    HW2 7281   1.506   3.413   5.072 -1.1756 -1.0905 -0.5857
 2128SOL     OW 7282   2.383   2.547   6.097 -0.3048  0.1255  0.2474
 2128SOL    HW1 7283   2.413   2.624   6.154  1.5203 -0.0053 -0.4730
 2128SOL    HW2 7284   2.393   2.462   6.148 -4.1485  0.3849  1.7716
 2129SOL     OW 7285   6.620   4.844   2.338  0.1263 -0.2025 -0.0328
 2129SOL    HW1 7286   6.535   4.808   2.300  0.3839 -0.1537 -0.6765
 2129SOL    HW2 7287   6.697   4.787   2.309  0.5447  0.8613 -1.1156
 2130SOL     OW 7288   5.798   6.124   5.717  0.7349 -0.1740  0.4541
 2130SOL    HW1 7289   5.825   6.027   5.717 -0.8901 -0.6552  0.9166
 2130SOL    HW2 7290   5.699   6.131   5.709  0.8441  1.4815  0.2392
 2131SOL     OW 7291   0.796   1.368   2.525 -0.2845  0.5658  0.1123
 2131SOL    HW1 7292   0.715   1.311   2.522 -0.7454  1.1536  0.9567
 2131SOL    HW2 7293   0.792   1.428   2.606  1.0885  0.4430  0.2916
 2132SOL     OW 7294   2.346   5.632   0.191 -0.0848  0.5685 -0.5514
 2132SOL    HW1 7295   2.266   5.626   0.251  0.4300  0.2939  0.1177
 2132SOL    HW2 7296   2.380   5.726   0.189 -1.1038  0.9501 -1.7619
 2133SOL     OW 7297   1.171   3.075   1.857  0.1862  0.5984  0.5384
 2133SOL    HW1 7298   1.189   3.010   1.783  0.1526  0.3850  0.7171
 2133SOL    HW2 7299   1.077   3.108   1.850  0.7047  1.9516 -0.5819
 2134SOL     OW 7300   5.395   0.112   3.169  0.1206 -0.2127  0.3962
 2134SOL    HW1 7301   5.386   0.210   3.185 -0.2365 -0.0103 -0.8894
 2134SOL    HW2 7302   5.491   0.089   3.153  0.0781  0.1299 -0.4053
 2135SOL     OW 7303   2.206   1.501   4.555  0.8257 -0.2719 -0.4796
 2135SOL    HW1 7304   2.170   1.586   4.595 -0.2553 -0.3622 -1.2246
 2135SOL    HW2 7305   2.291   1.476   4.602 -0.1906 -0.1846  1.4923
 2136SOL     OW 7306   5.815   3.845   1.913 -0.5722 -0.1965  0.3575
 2136SOL    HW1 7307   5.717   3.865   1.918 -0.8550 -1.6283  1.0735
 2136SOL    HW2 7308   5.828   3.757   1.867  0.2944 -0.5619  1.2801
 2137SOL     OW 7309   1.293   2.642   0.946  0.1070 -0.3943  0.3992
 2137SOL    HW1 7310   1.269   2.550   0.915  0.7306 -0.5238  0.2910
 2137SOL    HW2 7311   1.307   2.702   0.867 -0.2215 -0.2200  0.4680
 2138SOL     OW 7312   2.339   4.351   1.441 -0.1940  0.0378  0.3714
 2138SOL    HW1 7313   2.376   4.431   1.394 -2.1847  0.1922 -1.0673
 2138SOL    HW2 7314   2.393   4.332   1.523  1.6776  1.4814 -0.4647
 2139SOL     OW 7315   6.648   5.395   5.182  0.2021 -0.3468  0.0126
 2139SOL    HW1 7316   6.739   5.353   5.178  0.6676  0.7108 -2.3597
 2139SOL    HW2 7317   6.581   5.327   5.210  1.4263 -1.7186 -0.2433
 2140SOL     OW 7318   2.324   3.914   6.711  0.0195 -0.3883  0.0161
 2140SOL    HW1 7319   2.262   3.974   6.762  0.9345  0.5257  0.0794
 2140SOL    HW2 7320   2.271   3.846   6.661 -0.9449 -1.1236  1.9182
 2141SOL     OW 7321   4.461   2.819   5.335 -0.1019 -0.2206  0.3555
 2141SOL    HW1 7322   4.518   2.755   5.282 -0.6633 -0.6861  0.3069
 2141SOL    HW2 7323   4.365   2.794   5.325 -0.1656 -0.8762  2.3307
 2142SOL     OW 7324   5.520   4.659   4.071 -0.3730  0.5608  0.4849
 2142SOL    HW1 7325   5.504   4.654   3.973  2.9595  1.4960 -0.2172
 2142SOL    HW2 7326   5.485   4.576   4.114 -0.4580 -0.6376 -1.7412
 2143SOL     OW 7327   5.878   6.952   2.243 -0.0531  0.3656  0.2393
 2143SOL    HW1 7328   5.883   6.875   2.179  0.1943  1.8711 -1.6230
 2143SOL    HW2 7329   5.845   6.919   2.331 -2.1739 -1.5256 -1.1389
 2144SOL     OW 7330   2.374   0.670   6.803  0.1322 -0.4893  0.0312
 2144SOL    HW1 7331   2.296   0.660   6.866 -0.3703  0.6215 -0.3900
 2144SOL    HW2 7332   2.455   0.695   6.855 -0.3733  0.8368  0.2367
 2145SOL     OW 7333   2.900   2.211   2.518 -0.2825 -0.6022  0.2364
 2145SOL    HW1 7334   2.920   2.113   2.517 -2.4982 -1.1073  0.5058
 2145SOL    HW2 7335   2.882   2.243   2.425 -0.3232 -0.6215  0.2378
 2146SOL     OW 7336   0.058   5.814   1.924  0.5964  0.2876 -0.5500
 2146SOL    HW1 7337   0.096   5.743   1.865  1.3245 -0.0500  0.2929
 2146SOL    HW2 7338  -0.039   5.799   1.938  1.2368 -2.4217  2.0786
 2147SOL     OW 7339   4.582   1.006   5.120 -0.3883  0.0554 -0.0547
 2147SOL    HW1 7340   4.654   1.075   5.109  0.1307 -0.2112  1.4472
 2147SOL    HW2 7341   4.504   1.047   5.167 -1.2050  0.3046 -1.5556
 2148SOL     OW 7342   4.725   4.020   6.295  0.3284  0.0979  0.3895
 2148SOL    HW1 7343   4.735   4.075   6.378 -0.5096 -1.6842  1.7450
 2148SOL    HW2 7344   4.758   4.072   6.216 -1.4965  2.9598  1.3833
 2149SOL     OW 7345   5.859   1.626   5.830 -0.2078  0.0542  0.6894
 2149SOL    HW1 7346   5.805   1.644   5.913  1.2211  1.4261  1.3672
 2149SOL    HW2 7347   5.952   1.659   5.843  0.8014 -2.0650 -0.5320
 2150SOL     OW 7348   6.222   1.473   5.415 -0.2624 -0.0806  0.2013
 2150SOL    HW1 7349   6.158   1.404   5.450 -2.3365  2.0306  0.8302
 2150SOL    HW2 7350   6.177   1.527   5.344  1.5571  0.1977 -0.7991
 2151SOL     OW 7351   2.409   5.084   6.741 -0.0482  0.8565 -0.3538
 2151SOL    HW1 7352   2.349   5.143   6.688  0.0536  1.4904  0.2262
 2151SOL    HW2 7353   2.502   5.118   6.738  0.4559 -0.5491 -1.8762
 2152SOL     OW 7354   2.783   1.506   5.851 -0.4915 -0.0407 -0.6272
 2152SOL    HW1 7355   2.854   1.491   5.920  0.8692  0.7463 -1.8167
 2152SOL    HW2 7356   2.757   1.602   5.851  1.9653  0.7747 -3.3857
 2153SOL     OW 7357   6.449   1.789   0.703 -0.4041 -0.7342  0.2416
 2153SOL    HW1 7358   6.513   1.856   0.742 -1.6436  0.3038  0.6008
 2153SOL    HW2 7359   6.385   1.837   0.643 -0.9255 -1.7153  0.0058
 2154SOL     OW 7360   5.929   1.174   2.138  0.7164 -0.1947  0.5408
 2154SOL    HW1 7361   6.002   1.226   2.094  1.2891 -0.2892  1.3442
 2154SOL    HW2 7362   5.843   1.222   2.128  1.3042  1.1550  1.6195
 2155SOL     OW 7363   4.559   5.945   1.587  0.0254 -0.0590  0.9346
 2155SOL    HW1 7364   4.544   5.900   1.499 -0.1684  1.0340  0.3885
 2155SOL    HW2 7365   4.508   5.896   1.659 -1.1988  0.0130  0.1472
 2156SOL     OW 7366   4.505   4.241   0.432  0.1615 -0.4206 -0.2480
 2156SOL    HW1 7367   4.532   4.306   0.503 -1.5211 -0.6415  0.6304
 2156SOL    HW2 7368   4.468   4.158   0.475  1.4021 -1.6190 -1.3592
 2157SOL     OW 7369   2.780   5.950   2.224 -0.0041  0.0342 -1.0951
 2157SOL    HW1 7370   2.871   5.909   2.232  0.0593  0.4829  0.7991
 2157SOL    HW2 7371   2.710   5.878   2.231  0.1794 -0.2171 -1.7881
 2158SOL     OW 7372   3.945   1.453   2.749  0.4283 -0.2512  0.2698
 2158SOL    HW1 7373   4.034   1.495   2.767 -0.6107  1.6663  1.3826
 2158SOL    HW2 7374   3.897   1.507   2.679  0.6167 -2.0558 -1.3372
 2159SOL     OW 7375   5.564   3.065   3.519  0.1207 -0.1952 -0.1827
 2159SOL    HW1 7376   5.643   3.007   3.503  2.8257  3.6678 -2.5221
 2159SOL    HW2 7377   5.559   3.090   3.615  2.7576  0.6181 -0.1891
 2160SOL     OW 7378   0.254   0.915   4.116  1.0088 -0.6863 -0.1915
 2160SOL    HW1 7379   0.291   0.888   4.205  1.8091  0.4653 -0.1441
 2160SOL    HW2 7380   0.324   0.965   4.065 -0.4384  1.5619 -0.1298
 2161SOL     OW 7381   2.867   2.918   6.393 -0.0653 -0.2925 -0.3823
 2161SOL    HW1 7382   2.820   2.847   6.340  0.1174 -0.8853  0.2326
 2161SOL    HW2 7383   2.843   3.008   6.357 -0.3714 -0.6617 -1.1190
 2162SOL     OW 7384   4.145   1.932   1.369  0.3342  0.5332 -0.7984
 2162SOL    HW1 7385   4.160   2.030   1.356 -0.3472  0.5752 -1.3678
 2162SOL    HW2 7386   4.063   1.918   1.425  2.1379  0.3123  1.9475
 2163SOL     OW 7387   6.418   2.590   2.548 -0.4706 -0.8027  0.2828
 2163SOL    HW1 7388   6.488   2.526   2.580 -1.1286 -2.6246 -1.6934
 2163SOL    HW2 7389   6.435   2.681   2.588  2.8020 -1.2252  0.1438
 2164SOL     OW 7390   1.896   3.091   0.777 -0.5815 -0.0721  0.0787
 2164SOL    HW1 7391   1.874   3.021   0.844  1.2140 -0.9010 -0.1350
 2164SOL    HW2 7392   1.812   3.131   0.741 -1.5875 -0.6024  1.7720
 2165SOL     OW 7393   5.076   6.744   0.490 -0.2025 -0.1589  0.1312
 2165SOL    HW1 7394   5.157   6.751   0.549  0.1497  0.6252 -0.4194
 2165SOL    HW2 7395   5.076   6.820   0.425 -0.5276 -1.0557 -0.9494
 2166SOL     OW 7396   4.689   5.623   0.103  0.1464  0.1936 -0.0359
 2166SOL    HW1 7397   4.737   5.544   0.142  0.3875  0.9051  1.1667
 2166SOL    HW2 7398   4.637   5.594   0.023 -1.2680 -1.5908  1.4344
 2167SOL     OW 7399   3.102   5.239   5.681 -0.1506 -0.4531 -0.2685
 2167SOL    HW1 7400   3.109   5.244   5.581  1.6334  1.4271 -0.1293
 2167SOL    HW2 7401   3.026   5.296   5.712 -1.8798 -2.4876 -0.6001
 2168SOL     OW 7402   4.201   5.775   6.364  0.2735 -0.1223  0.0567
 2168SOL    HW1 7403   4.267   5.765   6.439  0.4438 -0.0627 -0.0852
 2168SOL    HW2 7404   4.125   5.711   6.378  0.7743 -0.7914 -0.2147
 2169SOL     OW 7405   6.232   6.924   2.435  0.7620 -0.3720  0.2091
 2169SOL    HW1 7406   6.295   6.898   2.362  0.3124  1.5429 -0.9032
 2169SOL    HW2 7407   6.196   7.015   2.418 -0.4367 -0.4325  2.1175
 2170SOL     OW 7408   3.374   4.781   1.768  0.9413  0.5113  0.1435
 2170SOL    HW1 7409   3.454   4.731   1.800 -0.0759 -0.6074  1.0727
 2170SOL    HW2 7410   3.306   4.716   1.732 -0.4921  1.1576  1.5426
 2171SOL     OW 7411   6.769   3.838   1.260  0.0215 -0.5178 -0.2736
 2171SOL    HW1 7412   6.816   3.750   1.262  2.6794  0.8304  0.4098
 2171SOL    HW2 7413   6.751   3.868   1.353  2.6031  1.3202 -0.2717
 2172SOL     OW 7414   0.101   6.754   2.712 -0.1884 -0.3155 -0.3911
 2172SOL    HW1 7415   0.092   6.843   2.756 -2.0466 -1.1202  0.9731
 2172SOL    HW2 7416   0.197   6.727   2.710  0.1160  0.4758  1.7407
 2173SOL     OW 7417   5.825   6.773   4.241 -0.2007 -0.0083  0.2892
 2173SOL    HW1 7418   5.834   6.676   4.223  0.4768  0.3625 -1.5738
 2173SOL    HW2 7419   5.833   6.824   4.155 -4.1458  1.5015  0.5855
 2174SOL     OW 7420   2.347   6.833   4.315 -0.3810  0.4431 -0.8713
 2174SOL    HW1 7421   2.440   6.800   4.300  0.2495  0.7229  1.7756
 2174SOL    HW2 7422   2.298   6.769   4.374 -1.5810  0.7525 -1.5025
 2175SOL     OW 7423   3.482   1.158   6.244  0.5232  0.6157 -0.1316
 2175SOL    HW1 7424   3.492   1.256   6.261 -1.2893  0.5909  1.5163
 2175SOL    HW2 7425   3.434   1.144   6.157 -0.4922  1.2956  0.2921
 2176SOL     OW 7426   5.219   2.829   0.701 -0.1068  0.7633 -0.0822
 2176SOL    HW1 7427   5.213   2.914   0.650  1.9192  1.1862  0.3260
 2176SOL    HW2 7428   5.297   2.833   0.764  0.9128 -1.9269 -1.0555
 2177SOL     OW 7429   6.887   1.669   2.116 -0.1078  0.3494 -0.2080
 2177SOL    HW1 7430   6.826   1.620   2.054 -0.5664 -0.2853  0.7127
 2177SOL    HW2 7431   6.858   1.764   2.125  0.7056  0.7942 -1.9076
 2178SOL     OW 7432   0.226   3.960   2.321 -0.3783  0.2744  0.8102
 2178SOL    HW1 7433   0.311   4.009   2.304 -0.5711  0.5900  0.7549
 2178SOL    HW2 7434   0.242   3.887   2.388  0.0529 -0.0152  0.3966
 2179SOL     OW 7435   4.895   4.440   1.620 -0.4943  0.3826  0.3002
 2179SOL    HW1 7436   4.980   4.426   1.672 -0.4834 -0.7951  0.0062
 2179SOL    HW2 7437   4.879   4.537   1.607  2.6551  0.6697 -2.6153
 2180SOL     OW 7438   5.246   0.237   1.202 -0.1320  0.3020 -0.2996
 2180SOL    HW1 7439   5.268   0.172   1.129 -1.4194 -0.7255  0.1789
 2180SOL    HW2 7440   5.246   0.330   1.165  2.8926  0.2291 -0.7510
 2181SOL     OW 7441   1.457   4.943   3.948  0.0210 -0.5614  0.0333
 2181SOL    HW1 7442   1.471   4.845   3.930  0.3889 -0.8670  1.7779
 2181SOL    HW2 7443   1.368   4.956   3.992  0.6236 -0.3406  1.2391
 2182SOL     OW 7444   5.171   3.814   0.922 -0.4556 -0.1411 -0.0095
 2182SOL    HW1 7445   5.183   3.809   1.021  0.0944  0.9365 -0.0057
 2182SOL    HW2 7446   5.076   3.791   0.899 -0.2167 -1.8997  0.6070
 2183SOL     OW 7447   3.917   2.925   0.878 -0.3019  0.2565  0.2104
 2183SOL    HW1 7448   3.854   2.919   0.800  2.4872  0.3643 -2.2069
 2183SOL    HW2 7449   3.894   2.853   0.944 -1.6767 -1.0195 -1.5394
 2184SOL     OW 7450   3.492   2.919   5.447  0.3171 -0.2011  0.5717
 2184SOL    HW1 7451   3.535   2.981   5.382  0.6265 -2.0437 -1.0925
 2184SOL    HW2 7452   3.396   2.944   5.460  0.1878  0.0694 -0.8204
 2185SOL     OW 7453   6.040   1.413   6.950 -0.0285 -0.1944 -0.1849
 2185SOL    HW1 7454   6.018   1.428   6.854  2.3170 -1.5172 -1.0128
 2185SOL    HW2 7455   6.110   1.342   6.958 -0.0294 -0.0143  2.5022
 2186SOL     OW 7456   4.093   5.989   6.585 -0.0686  0.5142 -0.5920
 2186SOL    HW1 7457   4.029   5.945   6.649 -0.6034 -1.2341 -2.2407
 2186SOL    HW2 7458   4.179   6.009   6.633 -0.9650  0.6938  1.0409
 2187SOL     OW 7459   3.589   0.320   1.598  0.6479 -0.1623  0.2033
 2187SOL    HW1 7460   3.669   0.364   1.557  0.7524  0.8355  1.4430
 2187SOL    HW2 7461   3.507   0.373   1.578  0.7137  0.3964  1.3229
 2188SOL     OW 7462   0.938   0.188   3.315  0.1368 -0.7395 -0.0058
 2188SOL    HW1 7463   0.866   0.167   3.248 -1.2497  1.5086  0.6797
 2188SOL    HW2 7464   0.920   0.138   3.400 -1.2813  0.5861  0.5219
 2189SOL     OW 7465   3.400   2.902   4.015 -0.0315 -0.2160  0.5994
 2189SOL    HW1 7466   3.464   2.892   3.938 -0.3094 -0.6648  0.4226
 2189SOL    HW2 7467   3.450   2.894   4.101  0.5584  1.8409  0.5183
 2190SOL     OW 7468   2.056   6.228   5.005  0.2655  0.5832  0.0913
 2190SOL    HW1 7469   2.002   6.147   4.983 -0.4276  1.1356 -0.2867
 2190SOL    HW2 7470   2.046   6.296   4.933  1.4611  0.7167  0.0209
 2191SOL     OW 7471   1.052   0.070   1.978 -0.1085 -0.3315 -0.6489
 2191SOL    HW1 7472   0.978   0.090   1.914 -0.4390 -2.0142 -0.8303
 2191SOL    HW2 7473   1.139   0.100   1.939 -0.4468 -0.2098 -1.3271
 2192SOL     OW 7474   5.000   1.810   1.382 -0.3943  0.2335  0.1088
 2192SOL    HW1 7475   4.954   1.789   1.469 -0.6167 -1.6890 -0.4305
 2192SOL    HW2 7476   4.934   1.853   1.320 -0.5768  0.4709  0.4598
 2193SOL     OW 7477   5.395   3.682   1.308  0.1327 -0.0544  0.4414
 2193SOL    HW1 7478   5.463   3.720   1.246 -1.5562 -2.5463 -3.3431
 2193SOL    HW2 7479   5.438   3.615   1.368  1.3683 -0.0418 -0.3895
 2194SOL     OW 7480   3.877   6.561   3.026  0.6188  0.0309 -0.2561
 2194SOL    HW1 7481   3.791   6.529   3.066  0.4935  2.1339  1.3037
 2194SOL    HW2 7482   3.857   6.605   2.938  0.0474  0.6287  0.1586
 2195SOL     OW 7483   0.186   0.011   1.615 -0.1298  0.1920  0.3939
 2195SOL    HW1 7484   0.281   0.041   1.609  0.4348 -1.3101  1.1430
 2195SOL    HW2 7485   0.138   0.033   1.530  1.0968  0.3071 -0.2899
 2196SOL     OW 7486   2.796   4.833   4.406 -0.0139  0.7126 -0.4761
 2196SOL    HW1 7487   2.760   4.912   4.355 -2.1971 -0.4139 -0.7853
 2196SOL    HW2 7488   2.728   4.801   4.471  0.4786 -1.3986 -0.9137
 2197SOL     OW 7489   3.876   1.828   5.500  0.6584  0.1957  0.1194
 2197SOL    HW1 7490   3.885   1.731   5.481  0.6318  0.4922 -1.5779
 2197SOL    HW2 7491   3.964   1.873   5.484  0.8007  0.3937  1.3738
 2198SOL     OW 7492   4.647   4.023   1.398 -0.0608  0.3396 -0.2205
 2198SOL    HW1 7493   4.613   3.931   1.379 -1.7689  1.0336 -0.7210
 2198SOL    HW2 7494   4.602   4.060   1.479 -0.0992  1.0879 -0.5759
 2199SOL     OW 7495   4.401   6.123   0.060 -0.3131  0.5831 -0.6582
 2199SOL    HW1 7496   4.325   6.074   0.018 -0.4261 -2.0051  2.1931
 2199SOL    HW2 7497   4.370   6.215   0.087 -2.7202 -0.5582  0.8936
 2200SOL     OW 7498   0.514   5.042   4.895  0.1820  0.2889  0.1058
 2200SOL    HW1 7499   0.513   4.949   4.933  1.2886  1.0406  2.1636
 2200SOL    HW2 7500   0.431   5.090   4.923 -0.2048  0.0630 -0.6277
 2201SOL     OW 7501   6.916   1.750   5.713  0.1577 -0.1009 -0.2204
 2201SOL    HW1 7502   6.948   1.699   5.792 -0.3139  0.4360  0.3275
 2201SOL    HW2 7503   6.820   1.730   5.697  0.4571 -0.8546 -1.1831
 2202SOL     OW 7504   5.641   5.540   6.423 -0.1150  0.2014  0.6293
 2202SOL    HW1 7505   5.543   5.528   6.406  0.1981 -0.3779 -0.8965
 2202SOL    HW2 7506   5.679   5.456   6.461  0.2657 -0.5433 -1.2733
 2203SOL     OW 7507   6.761   2.901   5.851  0.1741  0.8763  0.4141
 2203SOL    HW1 7508   6.690   2.852   5.800 -0.7250  2.2739  0.2627
 2203SOL    HW2 7509   6.845   2.903   5.797  0.4819 -1.0937  0.7386
 2204SOL     OW 7510   5.118   1.288   1.852  0.1070 -0.0795 -0.2983
 2204SOL    HW1 7511   5.024   1.312   1.875  0.6396  0.6686  1.2594
 2204SOL    HW2 7512   5.161   1.363   1.802 -0.1989 -0.5329 -1.2493
 2205SOL     OW 7513   2.197   1.798   1.784 -0.6804 -0.0004 -0.1039
 2205SOL    HW1 7514   2.278   1.857   1.787 -0.6010 -0.1280  0.3672
 2205SOL    HW2 7515   2.226   1.702   1.779 -0.8071 -0.0112 -0.6619
 2206SOL     OW 7516   1.252   1.565   5.857 -0.4017  0.2039 -0.2186
 2206SOL    HW1 7517   1.189   1.582   5.933  1.6182  0.9174  1.3807
 2206SOL    HW2 7518   1.267   1.466   5.849 -2.5106 -0.0933 -1.3791
 2207SOL     OW 7519   6.201   2.420   2.736 -0.5509 -0.0438  0.0484
 2207SOL    HW1 7520   6.131   2.348   2.734 -1.0865  0.4759 -1.7598
 2207SOL    HW2 7521   6.250   2.415   2.822 -0.7499 -2.4013  0.1065
 2208SOL     OW 7522   2.723   2.719   6.273  0.3092  0.6128  0.2937
 2208SOL    HW1 7523   2.629   2.711   6.238  0.7991  0.1573 -1.0025
 2208SOL    HW2 7524   2.787   2.699   6.199  1.4508  1.7237  0.9569
 2209SOL     OW 7525   6.352   6.957   4.122  0.0445 -0.1577 -0.5007
 2209SOL    HW1 7526   6.413   6.886   4.088 -0.3412 -0.6371 -0.2068
 2209SOL    HW2 7527   6.340   7.027   4.052  1.5026  0.3246 -0.3069
 2210SOL     OW 7528   0.169   3.112   3.400  0.2177 -0.1721  0.2062
 2210SOL    HW1 7529   0.252   3.152   3.362 -0.6934  0.4393 -1.2088
 2210SOL    HW2 7530   0.101   3.102   3.328 -1.5242  0.8362  1.6495
 2211SOL     OW 7531   5.909   2.569   3.297  0.0149 -0.6502  0.3951
 2211SOL    HW1 7532   5.993   2.529   3.260 -0.2427 -0.9003  0.0718
 2211SOL    HW2 7533   5.863   2.501   3.354  2.0101  0.6667  3.8948
 2212SOL     OW 7534   1.413   6.572   1.448 -0.2395  0.5825 -0.1426
 2212SOL    HW1 7535   1.393   6.575   1.350 -0.5541 -3.2522 -0.3465
 2212SOL    HW2 7536   1.446   6.481   1.473 -2.2456  0.6966  3.7072
 2213SOL     OW 7537   0.205   0.264   2.579  0.0692  0.0228  0.1309
 2213SOL    HW1 7538   0.131   0.306   2.527 -0.2197 -0.0499  0.4818
 2213SOL    HW2 7539   0.291   0.277   2.530 -0.0899  0.5880 -0.0123
 2214SOL     OW 7540   4.903   0.635   6.905  0.3460  0.5128 -0.5019
 2214SOL    HW1 7541   4.826   0.631   6.842  0.8697 -0.6552 -1.0871
 2214SOL    HW2 7542   4.972   0.568   6.879  1.1223  0.8462  0.5998
 2215SOL     OW 7543   4.005   5.099   3.349 -0.7548 -0.0557  0.2870
 2215SOL    HW1 7544   3.938   5.109   3.422  1.3711 -0.9134  2.4913
 2215SOL    HW2 7545   4.024   5.002   3.333  0.4187  0.1698  0.1732
 2216SOL     OW 7546   1.349   2.677   6.121 -0.1766 -0.0994  0.2924
 2216SOL    HW1 7547   1.410   2.741   6.073 -0.4475  1.1629  1.5547
 2216SOL    HW2 7548   1.390   2.586   6.122  1.9516  0.7950  1.4495
 2217SOL     OW 7549   0.184   5.476   5.154 -0.0702 -0.3982  0.1641
 2217SOL    HW1 7550   0.215   5.537   5.227 -0.0989  0.4669 -0.5254
 2217SOL    HW2 7551   0.104   5.515   5.109  1.7084  0.7090 -2.3310
 2218SOL     OW 7552   4.084   6.812   3.105  0.1079 -0.0129 -0.0014
 2218SOL    HW1 7553   4.121   6.719   3.096 -1.0236 -0.5440  0.5021
 2218SOL    HW2 7554   3.998   6.818   3.055 -0.5409  0.3350  1.1056
 2219SOL     OW 7555   4.403   6.251   0.458  0.8089  0.2616 -0.7235
 2219SOL    HW1 7556   4.398   6.236   0.557 -0.2720 -0.3371 -0.8455
 2219SOL    HW2 7557   4.438   6.169   0.413 -1.3843 -0.5575 -1.0549
 2220SOL     OW 7558   5.672   6.712   5.102 -0.2104 -0.5009  0.3610
 2220SOL    HW1 7559   5.609   6.647   5.059  0.5153 -1.6551  0.9764
 2220SOL    HW2 7560   5.760   6.708   5.056 -0.5735  1.1854 -0.5626
 2221SOL     OW 7561   4.471   1.720   0.710 -0.4530  0.1809 -0.2275
 2221SOL    HW1 7562   4.479   1.730   0.809 -0.6616 -0.7298 -0.1059
 2221SOL    HW2 7563   4.375   1.719   0.684 -0.4134  2.6170 -0.7172
 2222SOL     OW 7564   0.038   4.722   2.527  0.0162  0.0654 -0.1310
 2222SOL    HW1 7565  -0.051   4.724   2.574  1.2982 -0.6041  2.5108
 2222SOL    HW2 7566   0.026   4.681   2.436 -2.4897  0.7414 -0.1957
 2223SOL     OW 7567   6.505   3.000   6.255 -0.4301  0.1773  0.2710
 2223SOL    HW1 7568   6.571   2.930   6.282  0.6937  0.3341 -1.8689
 2223SOL    HW2 7569   6.534   3.043   6.170 -1.7511  2.4031  0.8544
 2224SOL     OW 7570   6.003   3.007   6.067  0.0678  0.0898 -0.1994
 2224SOL    HW1 7571   6.065   3.054   6.129  0.2735 -0.9952  0.4364
 2224SOL    HW2 7572   6.034   2.913   6.053 -1.9951 -0.8460  1.0259
 2225SOL     OW 7573   2.312   6.072   3.461  0.6375 -0.0252  0.3818
 2225SOL    HW1 7574   2.285   5.990   3.410  1.4421  1.3227 -2.4341
 2225SOL    HW2 7575   2.402   6.058   3.501  1.9733  0.2527 -2.3048
 2226SOL     OW 7576   6.940   0.912   3.311  0.5534 -0.3437 -0.5059
 2226SOL    HW1 7577   6.896   0.918   3.222  2.0983  0.2196 -1.2676
 2226SOL    HW2 7578   7.039   0.904   3.299  0.8700  0.5693  1.1723
 2227SOL     OW 7579   1.631   5.229   6.827  0.0733 -0.1442 -0.4600
 2227SOL    HW1 7580   1.565   5.177   6.772 -1.7340  2.4305 -0.9458
 2227SOL    HW2 7581   1.667   5.305   6.772 -0.2660  1.3202  1.2295
 2228SOL     OW 7582   1.253   1.434   6.216  0.1053 -0.0098  0.3095
 2228SOL    HW1 7583   1.329   1.451   6.153 -0.8595 -0.9593 -1.1711
 2228SOL    HW2 7584   1.219   1.340   6.203 -1.4348  0.4505  0.7862
 2229SOL     OW 7585   6.716   1.700   3.616  0.2115 -0.6796  0.1286
 2229SOL    HW1 7586   6.762   1.713   3.529  0.2870 -1.5077  0.0362
 2229SOL    HW2 7587   6.672   1.610   3.618 -0.5340 -0.3164  0.6073
 2230SOL     OW 7588   2.556   6.236   1.667  0.3919 -0.0950  0.0386
 2230SOL    HW1 7589   2.642   6.207   1.626  0.6214 -0.6732  0.9018
 2230SOL    HW2 7590   2.486   6.166   1.650  0.0594  0.3962 -0.7059
 2231SOL     OW 7591   0.587   6.800   2.664 -0.4039  0.4612 -0.4483
 2231SOL    HW1 7592   0.673   6.794   2.715 -0.8991 -1.2151  0.2473
 2231SOL    HW2 7593   0.605   6.839   2.574  1.5765 -2.3028 -1.3647
 2232SOL     OW 7594   6.154   0.768   2.160  0.0137  0.6786  0.2624
 2232SOL    HW1 7595   6.117   0.775   2.252 -1.4265 -1.6516 -0.0700
 2232SOL    HW2 7596   6.122   0.684   2.117  0.6512  1.6873 -2.3804
 2233SOL     OW 7597   6.960   2.127   0.980  0.4357  1.1476 -0.1806
 2233SOL    HW1 7598   6.952   2.123   0.880  1.2708 -0.6742 -0.2090
 2233SOL    HW2 7599   7.047   2.171   1.004  0.0207  2.0177 -0.2251
 2234SOL     OW 7600   3.395   5.868   2.454  0.1267  0.3033  0.1512
 2234SOL    HW1 7601   3.334   5.789   2.451  0.4506 -0.0746  1.9644
 2234SOL    HW2 7602   3.466   5.858   2.385  0.0017 -0.8732  0.1644
 2235SOL     OW 7603   6.095   6.287   5.065 -0.2428  0.1105 -0.0104
 2235SOL    HW1 7604   6.012   6.339   5.048 -0.6859 -0.2084  1.1191
 2235SOL    HW2 7605   6.130   6.251   4.978 -0.6734  1.1427 -0.6270
 2236SOL     OW 7606   5.542   2.837   2.939 -0.5355 -0.1701 -0.4938
 2236SOL    HW1 7607   5.460   2.858   2.887 -1.4844 -0.8912  0.6664
 2236SOL    HW2 7608   5.610   2.795   2.880 -2.1004 -2.2690 -0.9105
 2237SOL     OW 7609   1.194   5.130   4.086 -0.4365  0.0198 -0.0436
 2237SOL    HW1 7610   1.121   5.158   4.148 -0.2209  0.6755 -0.0827
 2237SOL    HW2 7611   1.281   5.131   4.135 -0.4479 -0.7970  0.0149
 2238SOL     OW 7612   2.267   1.778   4.172 -0.2185 -0.2748  0.2230
 2238SOL    HW1 7613   2.287   1.787   4.269  0.6877 -2.3801  0.2995
 2238SOL    HW2 7614   2.339   1.723   4.129 -1.3455 -0.5821 -1.3449
 2239SOL     OW 7615   1.442   3.056   1.346 -0.4093 -0.4700  0.8261
 2239SOL    HW1 7616   1.346   3.046   1.372  0.0215  0.3983  2.9238
 2239SOL    HW2 7617   1.475   3.146   1.375  0.9137 -0.5497 -0.3423
 2240SOL     OW 7618   4.214   5.266   6.365  0.3920  0.4361  1.0484
 2240SOL    HW1 7619   4.236   5.359   6.334 -1.7757  0.6243 -0.1422
 2240SOL    HW2 7620   4.257   5.200   6.303  3.5954  0.4825  3.0241
 2241SOL     OW 7621   2.323   4.304   4.263 -0.2432 -0.1563 -0.3366
 2241SOL    HW1 7622   2.318   4.208   4.234 -0.6859 -0.0523 -0.6147
 2241SOL    HW2 7623   2.376   4.310   4.348  3.5463 -0.1845 -2.4363
 2242SOL     OW 7624   1.828   6.417   6.585  0.3687  0.0202 -0.0729
 2242SOL    HW1 7625   1.753   6.380   6.639 -0.8071  0.6933 -1.1817
 2242SOL    HW2 7626   1.870   6.494   6.634  1.4047 -1.3327  1.2522
 2243SOL     OW 7627   0.700   0.506   4.491  0.6010  0.2742 -0.2327
 2243SOL    HW1 7628   0.601   0.518   4.493  0.8158  2.3197  0.6505
 2243SOL    HW2 7629   0.728   0.447   4.567  0.0309 -0.8970 -0.9044
 2244SOL     OW 7630   0.404   1.929   2.918  0.1492  0.1479  0.5310
 2244SOL    HW1 7631   0.486   1.972   2.954  0.7412 -1.7056  1.4984
 2244SOL    HW2 7632   0.325   1.957   2.973  0.4102  0.5385  0.7113
 2245SOL     OW 7633   5.953   3.482   2.047  0.3408 -0.1016 -0.4195
 2245SOL    HW1 7634   5.952   3.487   2.147  1.8072 -4.0465 -0.0187
 2245SOL    HW2 7635   5.866   3.515   2.011 -0.1951  1.5309  2.1230
 2246SOL     OW 7636   6.916   1.689   2.560  0.3032 -0.2979  0.1354
 2246SOL    HW1 7637   6.825   1.723   2.539 -0.3789 -1.5125  1.0119
 2246SOL    HW2 7638   6.949   1.632   2.485  0.9522  1.2450 -0.8012
 2247SOL     OW 7639   6.454   6.718   2.653  0.0397 -0.6173 -0.2297
 2247SOL    HW1 7640   6.456   6.623   2.686 -1.3775 -0.5971 -0.0326
 2247SOL    HW2 7641   6.359   6.747   2.640 -0.0641  2.4501  4.7665
 2248SOL     OW 7642   0.334   1.582   6.009 -0.4256  0.3267 -0.1582
 2248SOL    HW1 7643   0.303   1.637   5.932 -0.4173 -0.0248 -0.4178
 2248SOL    HW2 7644   0.312   1.485   5.992 -1.3071  0.3537  0.7219
 2249SOL     OW 7645   1.181   4.667   3.932  0.7133  0.3425  0.2045
 2249SOL    HW1 7646   1.110   4.626   3.988  0.6588  0.8022  0.4793
 2249SOL    HW2 7647   1.141   4.702   3.847  0.8739 -0.7811 -0.3565
 2250SOL     OW 7648   5.100   4.289   6.798 -0.1529 -0.1900 -0.4270
 2250SOL    HW1 7649   5.048   4.349   6.858 -0.8083 -1.1733  0.0248
 2250SOL    HW2 7650   5.144   4.343   6.726 -1.0822  0.7686 -0.2988
 2251SOL     OW 7651   3.092   0.822   0.661 -0.0266  0.1961 -0.4052
 2251SOL    HW1 7652   3.185   0.845   0.689  0.0873  0.0770 -0.6929
 2251SOL    HW2 7653   3.069   0.870   0.577 -0.7866  1.4865  0.4870
 2252SOL     OW 7654   6.228   2.359   1.068 -0.2486  0.4509 -0.2334
 2252SOL    HW1 7655   6.282   2.369   0.984  0.8088  0.5909  0.4446
 2252SOL    HW2 7656   6.269   2.289   1.126 -0.3798  1.0673  0.6186
 2253SOL     OW 7657   4.722   2.203   0.771  0.1631  0.0125 -0.2532
 2253SOL    HW1 7658   4.637   2.220   0.820  0.4550  1.1021 -0.0854
 2253SOL    HW2 7659   4.710   2.226   0.675  0.7332  1.9455  0.0846
 2254SOL     OW 7660   3.853   0.590   2.957 -0.4786  0.1937  0.2127
 2254SOL    HW1 7661   3.868   0.687   2.938 -1.5252  0.9145  2.6361
 2254SOL    HW2 7662   3.762   0.564   2.923 -0.8909  0.5404  1.0118
 2255SOL     OW 7663   0.110   3.640   2.091 -0.0239 -0.3468  0.1377
 2255SOL    HW1 7664   0.197   3.620   2.136  0.4683  1.6994  0.1637
 2255SOL    HW2 7665   0.045   3.676   2.159 -0.0319  0.5681 -0.3443
 2256SOL     OW 7666   3.667   6.918   0.116  0.2605 -0.1160  0.2829
 2256SOL    HW1 7667   3.655   6.880   0.024  0.7561  0.5958 -0.0725
 2256SOL    HW2 7668   3.612   7.001   0.125  3.3968  2.2581 -0.8142
 2257SOL     OW 7669   5.330   5.318   1.946 -0.6628 -0.5600 -0.5837
 2257SOL    HW1 7670   5.350   5.416   1.951 -1.8688 -0.3498  0.7011
 2257SOL    HW2 7671   5.301   5.293   1.854  1.1609 -0.0358 -1.3365
 2258SOL     OW 7672   2.277   5.483   4.737  0.0914 -0.4946 -0.2769
 2258SOL    HW1 7673   2.320   5.493   4.826 -0.3460  0.2251 -0.1387
 2258SOL    HW2 7674   2.277   5.571   4.689  0.2307 -0.8479 -0.9480
 2259SOL     OW 7675   6.876   3.956   3.758 -0.1845  0.1097  0.8336
 2259SOL    HW1 7676   6.937   3.919   3.828 -1.0059 -4.9543 -0.7182
 2259SOL    HW2 7677   6.785   3.915   3.768 -1.3383  1.9754 -1.1348
 2260SOL     OW 7678   5.188   0.842   5.727  0.3783  0.2262  0.1287
 2260SOL    HW1 7679   5.285   0.855   5.744  0.3824  0.8108 -0.2991
 2260SOL    HW2 7680   5.174   0.785   5.646  0.3601 -0.7485  0.8099
 2261SOL     OW 7681   6.256   6.078   6.703 -0.7635 -0.3980  0.0930
 2261SOL    HW1 7682   6.294   6.094   6.612 -1.8280  1.0258 -0.1274
 2261SOL    HW2 7683   6.190   6.003   6.698 -1.1500 -0.0308 -0.4084
 2262SOL     OW 7684   2.187   5.406   1.705 -0.1968 -0.2780  0.2303
 2262SOL    HW1 7685   2.266   5.467   1.700 -0.1288  0.0952  3.7950
 2262SOL    HW2 7686   2.216   5.317   1.738 -0.8984 -1.1204 -1.2956
 2263SOL     OW 7687   4.604   3.995   5.621 -0.0780 -0.2415  0.4797
 2263SOL    HW1 7688   4.558   3.972   5.535 -0.6918  2.1749  0.0787
 2263SOL    HW2 7689   4.692   3.947   5.626 -0.8176 -1.7958 -0.6387
 2264SOL     OW 7690   2.260   3.100   5.844  0.6656  0.2719  0.0959
 2264SOL    HW1 7691   2.289   3.031   5.778 -0.9353 -0.7800  0.4329
 2264SOL    HW2 7692   2.202   3.167   5.799  0.9074  0.4903  0.1053
 2265SOL     OW 7693   3.003   6.187   2.050  0.4422  0.4777 -0.0832
 2265SOL    HW1 7694   3.097   6.217   2.032  0.6640 -0.6804 -0.9426
 2265SOL    HW2 7695   2.952   6.262   2.094  1.4056  1.5397 -0.7235
 2266SOL     OW 7696   1.901   4.608   6.513  0.1875  0.2679 -0.0873
 2266SOL    HW1 7697   1.901   4.673   6.437 -1.0228 -0.8367 -1.0792
 2266SOL    HW2 7698   1.816   4.617   6.565  1.3700  1.6424  1.7776
 2267SOL     OW 7699   2.241   4.258   0.493 -0.4696 -0.2372  0.4210
 2267SOL    HW1 7700   2.320   4.242   0.434 -1.6772  0.4799 -1.4757
 2267SOL    HW2 7701   2.273   4.286   0.584  1.4502 -1.3829  0.1653
 2268SOL     OW 7702   3.010   0.656   0.011  0.1405 -0.1571  0.0197
 2268SOL    HW1 7703   2.929   0.617   0.055 -0.1407  1.5608  1.1120
 2268SOL    HW2 7704   2.986   0.742  -0.035  1.6860  1.5860  2.2472
 2269SOL     OW 7705   1.510   6.565   4.906 -0.0370  0.0173  0.5463
 2269SOL    HW1 7706   1.604   6.541   4.883  0.2655 -0.3676  2.0523
 2269SOL    HW2 7707   1.479   6.508   4.982 -2.6278 -2.1376 -1.9233
 2270SOL     OW 7708   1.689   3.363   0.070  0.7346 -0.3089 -0.4185
 2270SOL    HW1 7709   1.717   3.365   0.166  2.2274 -0.7226 -0.8226
 2270SOL    HW2 7710   1.625   3.287   0.055  1.3281 -0.9053  0.0328
 2271SOL     OW 7711   0.273   5.276   1.031  0.0719 -0.2098 -0.0036
 2271SOL    HW1 7712   0.183   5.317   1.040  0.8588  1.6334 -0.0176
 2271SOL    HW2 7713   0.336   5.319   1.095  1.8100  1.2301 -2.4877
 2272SOL     OW 7714   4.404   1.161   1.493  0.0342  0.6075  0.1379
 2272SOL    HW1 7715   4.317   1.136   1.451  0.6624  1.1922 -1.6321
 2272SOL    HW2 7716   4.468   1.192   1.422  1.4248  0.9702  1.4740
 2273SOL     OW 7717   1.884   1.449   4.732  0.5233  0.8619  0.7586
 2273SOL    HW1 7718   1.860   1.398   4.815 -0.7774 -1.3220 -0.8584
 2273SOL    HW2 7719   1.982   1.472   4.735  0.6479  0.3080  2.6026
 2274SOL     OW 7720   6.282   2.414   5.623 -0.3088  0.0610 -0.0137
 2274SOL    HW1 7721   6.354   2.344   5.627 -1.2086 -0.8908 -0.0273
 2274SOL    HW2 7722   6.270   2.443   5.528  1.4237  1.7274  0.2123
 2275SOL     OW 7723   4.455   6.156   5.889  0.0918 -0.5838  0.6557
 2275SOL    HW1 7724   4.431   6.064   5.918  1.0431 -1.1436 -0.2428
 2275SOL    HW2 7725   4.555   6.165   5.885  0.0269 -0.1847 -1.2302
 2276SOL     OW 7726   1.484   1.379   5.493  0.0280 -0.3172 -0.3120
 2276SOL    HW1 7727   1.505   1.367   5.590  2.3089 -0.7911 -0.8145
 2276SOL    HW2 7728   1.394   1.339   5.474 -0.3160 -0.5358  1.5180
 2277SOL     OW 7729   3.273   3.406   2.930  0.0166  0.0438  0.3850
 2277SOL    HW1 7730   3.218   3.371   2.854 -0.2171 -0.3733  0.7428
 2277SOL    HW2 7731   3.231   3.379   3.017 -0.0927  1.0930  0.6727
 2278SOL     OW 7732   6.006   3.796   6.853  0.5280 -0.4214 -0.1388
 2278SOL    HW1 7733   6.099   3.814   6.883  0.4663  1.5448 -1.0198
 2278SOL    HW2 7734   6.002   3.794   6.753 -0.8077  2.5511 -0.2484
 2279SOL     OW 7735   2.166   1.161   1.688  0.2908 -0.6889  0.8971
 2279SOL    HW1 7736   2.242   1.099   1.705  1.4950  0.9934  1.9050
 2279SOL    HW2 7737   2.096   1.149   1.758  0.2944 -1.2378  0.8081
 2280SOL     OW 7738   0.885   2.217   0.800  0.0651  0.3645 -0.1621
 2280SOL    HW1 7739   0.983   2.211   0.777  0.0322 -0.5489 -0.1219
 2280SOL    HW2 7740   0.874   2.214   0.899 -0.0985 -1.8191 -0.2012
 2281SOL     OW 7741   1.203   0.502   1.665  0.4478  0.3150  0.3883
 2281SOL    HW1 7742   1.235   0.461   1.580 -1.0001 -2.3895  1.0351
 2281SOL    HW2 7743   1.178   0.598   1.649 -0.2915 -0.2652 -2.3709
 2282SOL     OW 7744   4.202   4.369   5.587  0.1520  0.8816 -1.1628
 2282SOL    HW1 7745   4.249   4.453   5.559 -1.3108  1.6582 -1.4108
 2282SOL    HW2 7746   4.216   4.299   5.517  1.0254  1.0454 -1.1705
 2283SOL     OW 7747   4.714   1.248   5.092  0.5735 -0.0412 -0.8220
 2283SOL    HW1 7748   4.708   1.341   5.128  1.4727 -0.3027  0.0592
 2283SOL    HW2 7749   4.751   1.251   4.999  1.0144  0.4655 -0.6373
 2284SOL     OW 7750   2.176   3.318   5.177  0.0711  0.1877  0.3286
 2284SOL    HW1 7751   2.213   3.231   5.144 -1.5831 -0.1549 -0.7115
 2284SOL    HW2 7752   2.115   3.357   5.108  1.0372  2.3719  0.6363
 2285SOL     OW 7753   1.082   1.842   3.164  0.0262 -0.0460 -0.4808
 2285SOL    HW1 7754   1.168   1.803   3.197  0.0859  0.7849  0.3692
 2285SOL    HW2 7755   1.011   1.771   3.165  0.2361 -0.2569  0.6434
 2286SOL     OW 7756   0.787   1.362   4.782 -0.5639  0.5292 -0.2316
 2286SOL    HW1 7757   0.813   1.375   4.878 -0.9248  2.6492 -0.3748
 2286SOL    HW2 7758   0.810   1.269   4.754  0.4245  0.1579  1.6279
 2287SOL     OW 7759   0.250   4.538   1.645 -0.1775 -0.1438  0.0354
 2287SOL    HW1 7760   0.238   4.636   1.662  0.4573  0.4380 -2.4223
 2287SOL    HW2 7761   0.166   4.501   1.604  0.4766  0.0181 -1.4964
 2288SOL     OW 7762   0.612   1.198   6.816 -0.5199  0.6005 -0.3015
 2288SOL    HW1 7763   0.575   1.172   6.727 -0.1058  2.3701 -1.0359
 2288SOL    HW2 7764   0.540   1.195   6.885 -1.4713  1.6522 -1.2133
 2289SOL     OW 7765   5.411   0.886   2.877 -0.0753  0.1406 -0.7457
 2289SOL    HW1 7766   5.505   0.860   2.856  0.8437  1.6912  1.0487
 2289SOL    HW2 7767   5.412   0.967   2.937 -2.5931  1.1320 -1.9082
 2290SOL     OW 7768   5.358   4.602   3.867  0.5235 -0.0481 -0.8146
 2290SOL    HW1 7769   5.301   4.520   3.858  0.5017  0.1759 -3.3314
 2290SOL    HW2 7770   5.309   4.671   3.920 -1.6337  0.1513 -2.9297
 2291SOL     OW 7771   5.380   4.367   4.520 -0.2500  0.2094 -0.6126
 2291SOL    HW1 7772   5.312   4.403   4.584 -0.4524 -0.9213 -0.1668
 2291SOL    HW2 7773   5.373   4.268   4.517  1.6158  0.0223 -0.2838
 2292SOL     OW 7774   0.845   5.205   2.820 -0.1003  0.3326  0.2465
 2292SOL    HW1 7775   0.908   5.139   2.860 -0.7972 -0.6184 -0.1929
 2292SOL    HW2 7776   0.843   5.193   2.720 -1.0496  0.2767  0.2627
 2293SOL     OW 7777   0.171   4.432   4.008 -0.3394  0.0654 -0.3123
 2293SOL    HW1 7778   0.136   4.522   3.980  0.2492  0.3696 -0.1067
 2293SOL    HW2 7779   0.127   4.361   3.954 -0.2058  0.5446 -1.0829
 2294SOL     OW 7780   5.525   6.778   3.763  0.3198 -0.2680  0.1248
 2294SOL    HW1 7781   5.516   6.777   3.663  0.6678  0.7326  0.0672
 2294SOL    HW2 7782   5.434   6.771   3.805  0.2086 -1.2309 -0.2385
 2295SOL     OW 7783   3.430   5.370   3.966  0.7775  0.0280  0.2736
 2295SOL    HW1 7784   3.423   5.373   4.066  0.0674  0.0887  0.2272
 2295SOL    HW2 7785   3.340   5.353   3.926  1.4434 -2.7343 -0.2739
 2296SOL     OW 7786   3.999   3.161   0.956 -0.2083  0.4331 -0.1582
 2296SOL    HW1 7787   3.961   3.073   0.926  0.6262  0.4249 -1.2442
 2296SOL    HW2 7788   3.972   3.178   1.051  0.4152 -1.4569  0.4035
 2297SOL     OW 7789   4.134   0.083   2.869  0.2760  0.3654 -0.1800
 2297SOL    HW1 7790   4.217   0.075   2.923  0.0584  0.1922  0.1296
 2297SOL    HW2 7791   4.113  -0.006   2.828  0.6836  0.5959 -0.9158
 2298SOL     OW 7792   3.894   6.143   3.070  0.6603 -0.4456 -0.5997
 2298SOL    HW1 7793   3.881   6.174   2.975  1.2584  0.7831 -0.3084
 2298SOL    HW2 7794   3.940   6.215   3.122 -1.1489 -0.3988  1.0510
 2299SOL     OW 7795   5.137   5.658   2.218 -0.8883 -0.2135 -0.1772
 2299SOL    HW1 7796   5.200   5.589   2.184 -0.4961 -1.5855  3.0207
 2299SOL    HW2 7797   5.057   5.663   2.157  0.8050 -0.6386 -2.5785
 2300SOL     OW 7798   6.242   4.912   4.397 -0.3253 -0.2489  0.1985
 2300SOL    HW1 7799   6.251   4.965   4.313  2.5838 -0.4697  0.2947
 2300SOL    HW2 7800   6.212   4.819   4.375  1.0573 -0.5025 -0.7031
 2301SOL     OW 7801   6.709   4.087   5.193 -0.3992 -0.1494  0.7078
 2301SOL    HW1 7802   6.753   3.999   5.179 -0.5258 -0.0590 -0.3542
 2301SOL    HW2 7803   6.720   4.115   5.288 -0.5763 -1.4227  1.1242
 2302SOL     OW 7804   1.692   2.329   0.373 -0.5012 -0.3155  0.1540
 2302SOL    HW1 7805   1.763   2.393   0.403 -0.1822 -0.0930 -1.0442
 2302SOL    HW2 7806   1.603   2.374   0.376 -0.3806 -0.0724  0.0879
 2303SOL     OW 7807   6.285   4.878   0.203 -0.3521 -0.0532  0.1008
 2303SOL    HW1 7808   6.257   4.869   0.107 -1.6746 -2.3867  0.6209
 2303SOL    HW2 7809   6.367   4.935   0.208 -1.2855  1.6669 -2.1960
 2304SOL     OW 7810   6.104   4.257   4.217  0.5266 -0.1059 -0.3370
 2304SOL    HW1 7811   6.092   4.356   4.223 -2.0911 -0.3879  0.2043
 2304SOL    HW2 7812   6.149   4.234   4.131  0.5346  1.5191 -0.7965
 2305SOL     OW 7813   2.264   4.543   0.217  0.4305  0.1180 -0.1522
 2305SOL    HW1 7814   2.340   4.488   0.251 -0.4764 -0.0319  1.7467
 2305SOL    HW2 7815   2.184   4.530   0.276 -1.9359 -1.6840 -3.4045
 2306SOL     OW 7816   5.743   3.909   2.648 -0.4094 -0.1981  0.1108
 2306SOL    HW1 7817   5.836   3.934   2.621  0.1257 -0.5357  1.5598
 2306SOL    HW2 7818   5.722   3.946   2.738 -0.9574 -1.7369  0.6627
 2307SOL     OW 7819   5.608   6.414   6.051 -0.4744  0.0683  0.0263
 2307SOL    HW1 7820   5.658   6.387   6.133 -1.9071  0.8000  1.1845
 2307SOL    HW2 7821   5.672   6.434   5.978  0.7936 -2.1208  0.4519
 2308SOL     OW 7822   2.181   4.062   1.648  0.0733 -0.7972  0.0161
 2308SOL    HW1 7823   2.145   4.042   1.556  0.8582  1.1929 -0.7709
 2308SOL    HW2 7824   2.281   4.060   1.645  0.1239  0.3187  0.5509
 2309SOL     OW 7825   6.724   6.150   0.530 -0.5388  0.7082 -0.1002
 2309SOL    HW1 7826   6.793   6.201   0.582 -0.2614 -0.7133  1.0079
 2309SOL    HW2 7827   6.646   6.210   0.510 -0.5502  1.3817  1.7666
 2310SOL     OW 7828   1.765   0.682   3.336  0.2922 -0.7144  0.5780
 2310SOL    HW1 7829   1.751   0.668   3.238  0.2182  1.5824  0.2040
 2310SOL    HW2 7830   1.687   0.732   3.374  0.8750 -0.5159  1.5689
 2311SOL     OW 7831   1.373   6.999   2.112  0.2405 -0.3102 -0.0404
 2311SOL    HW1 7832   1.384   7.044   2.023 -0.5330  0.3313  0.1820
 2311SOL    HW2 7833   1.315   6.918   2.102  0.1098 -0.2077 -0.1139
 2312SOL     OW 7834   0.247   0.901   0.865 -0.0428 -0.6367 -0.1019
 2312SOL    HW1 7835   0.187   0.927   0.790  1.3257  0.2829 -0.9130
 2312SOL    HW2 7836   0.212   0.817   0.908 -0.4925 -1.5588 -2.1585
 2313SOL     OW 7837   4.706   3.150   5.333  0.4797 -0.2751 -0.1671
 2313SOL    HW1 7838   4.606   3.149   5.336  0.5082 -0.1607  2.4278
 2313SOL    HW2 7839   4.738   3.242   5.356  1.1990 -0.5554 -0.0401
 2314SOL     OW 7840   2.996   7.017   1.293 -0.3513 -0.0535 -0.0148
 2314SOL    HW1 7841   2.954   7.094   1.245  0.1288  0.2668  0.0785
 2314SOL    HW2 7842   2.952   7.006   1.383  1.3291  1.8020  1.1208
 2315SOL     OW 7843   6.365   0.153   2.631  0.7793 -0.0476 -0.8533
 2315SOL    HW1 7844   6.463   0.161   2.652  0.9352  0.7423 -1.8464
 2315SOL    HW2 7845   6.354   0.121   2.537  0.0759 -0.6341 -0.5783
 2316SOL     OW 7846   6.867   2.432   5.159 -0.1366  0.3465 -0.2090
 2316SOL    HW1 7847   6.815   2.499   5.106 -1.5669  0.5113  1.3178
 2316SOL    HW2 7848   6.853   2.341   5.120 -0.1214  0.6242 -0.8687
 2317SOL     OW 7849   4.091   4.929   3.952 -0.1645  0.2929 -0.5072
 2317SOL    HW1 7850   4.115   5.023   3.978 -3.3843  1.5024 -1.4554
 2317SOL    HW2 7851   4.089   4.872   4.033 -0.8384  1.7240  0.5250
 2318SOL     OW 7852   2.400   1.951   1.784  0.0729  0.3872  0.5121
 2318SOL    HW1 7853   2.444   1.938   1.873 -1.7419  1.4471  1.6206
 2318SOL    HW2 7854   2.404   2.047   1.759  0.7148  0.0739 -0.6792
 2319SOL     OW 7855   2.904   1.126   4.958 -0.0195  0.2345 -0.0960
 2319SOL    HW1 7856   2.968   1.133   4.882 -0.7934 -2.1695 -1.0834
 2319SOL    HW2 7857   2.936   1.056   5.022 -1.4187 -0.7556 -0.4250
 2320SOL     OW 7858   5.924   0.519   6.929 -0.2827 -0.3846 -0.4183
 2320SOL    HW1 7859   5.833   0.538   6.964 -1.1094 -3.0918 -0.8632
 2320SOL    HW2 7860   5.975   0.604   6.920 -2.4326  1.1010  0.6951
 2321SOL     OW 7861   5.427   1.100   3.033 -0.4137 -0.6149  0.0195
 2321SOL    HW1 7862   5.331   1.123   3.049 -0.0185  0.5083  0.9285
 2321SOL    HW2 7863   5.471   1.077   3.120  0.5824  0.7123 -0.0967
 2322SOL     OW 7864   5.517   1.941   2.102 -0.3578 -0.6780 -0.2174
 2322SOL    HW1 7865   5.459   2.019   2.123 -0.3423 -0.6532 -0.2654
 2322SOL    HW2 7866   5.612   1.963   2.123 -0.5343 -1.2251  1.2351
 2323SOL     OW 7867   1.153   4.927   3.707  0.6574 -0.4898 -0.2958
 2323SOL    HW1 7868   1.248   4.939   3.679  0.9829 -0.1370  0.8985
 2323SOL    HW2 7869   1.123   4.835   3.684  0.4613  0.1653 -2.9549
 2324SOL     OW 7870   4.806   0.389   6.161  0.3229 -0.1203 -0.7859
 2324SOL    HW1 7871   4.802   0.289   6.170 -0.8326 -0.2977 -2.7763
 2324SOL    HW2 7872   4.874   0.413   6.092 -1.3389  0.2443 -2.3910
 2325SOL     OW 7873   1.793   6.894   4.359 -0.4599 -0.0431  0.4528
 2325SOL    HW1 7874   1.787   6.827   4.433 -1.6114  0.6773  1.0461
 2325SOL    HW2 7875   1.712   6.885   4.300  0.2720 -0.3674 -0.5219
 2326SOL     OW 7876   1.485   2.471   5.057 -0.3222  0.3696 -0.5729
 2326SOL    HW1 7877   1.433   2.416   4.992  0.6423 -0.1552 -0.9114
 2326SOL    HW2 7878   1.546   2.412   5.110 -0.8752  0.8286  0.6196
 2327SOL     OW 7879   2.930   0.295   3.933 -0.2555 -0.4964 -0.3713
 2327SOL    HW1 7880   2.936   0.248   4.021  0.7865 -2.7947 -1.5852
 2327SOL    HW2 7881   2.927   0.394   3.948 -1.3973 -0.8512  2.2638
 2328SOL     OW 7882   3.815   2.739   6.561 -0.2984  0.1434  0.0178
 2328SOL    HW1 7883   3.749   2.737   6.637 -1.1896  0.0611 -0.7388
 2328SOL    HW2 7884   3.887   2.672   6.578 -1.7884 -1.6410 -0.3358
 2329SOL     OW 7885   3.788   2.090   1.451 -0.3677 -0.0054  0.1287
 2329SOL    HW1 7886   3.820   2.181   1.422 -3.6615  1.6037  1.0227
 2329SOL    HW2 7887   3.750   2.096   1.543  0.5718 -2.7140  0.7967
 2330SOL     OW 7888   3.749   0.925   3.365 -0.1490 -0.4972  0.0706
 2330SOL    HW1 7889   3.802   0.853   3.320  1.4802 -0.2083  1.4322
 2330SOL    HW2 7890   3.706   0.983   3.296  2.0470 -0.2141 -1.1334
 2331SOL     OW 7891   3.350   0.095   2.715 -0.3139 -0.3049  0.2570
 2331SOL    HW1 7892   3.320   0.003   2.741 -1.1837  0.3471  1.6934
 2331SOL    HW2 7893   3.271   0.157   2.716  0.0363  0.2257 -1.8957
 2332SOL     OW 7894   4.245   5.393   6.942 -0.5960  0.1892  0.1750
 2332SOL    HW1 7895   4.323   5.419   6.999 -2.8706  0.9587  3.2536
 2332SOL    HW2 7896   4.254   5.297   6.915  1.2080  0.1527  0.7552
 2333SOL     OW 7897   1.506   2.703   4.391  0.0497  0.8116  0.4803
 2333SOL    HW1 7898   1.485   2.773   4.460 -1.6547  0.5322  0.2816
 2333SOL    HW2 7899   1.448   2.623   4.405 -0.3101  0.7307 -1.2416
 2334SOL     OW 7900   5.477   4.227   4.851  0.0952 -0.1305 -0.1587
 2334SOL    HW1 7901   5.576   4.237   4.850  0.0512  0.3534 -0.0168
 2334SOL    HW2 7902   5.444   4.211   4.758  0.2201  0.6252 -0.3364
 2335SOL     OW 7903   1.199   0.562   1.173 -0.3092  0.0531  0.0885
 2335SOL    HW1 7904   1.185   0.538   1.077  2.6811 -0.4597 -0.3084
 2335SOL    HW2 7905   1.215   0.661   1.181 -1.5818  0.2709  0.2565
 2336SOL     OW 7906   1.266   4.460   4.135 -0.4411 -0.1191 -0.2243
 2336SOL    HW1 7907   1.326   4.534   4.109 -0.5419 -0.6242 -2.0257
 2336SOL    HW2 7908   1.297   4.420   4.221 -0.0698  1.6213  0.4819
 2337SOL     OW 7909   5.993   7.007   2.612 -0.5044 -0.1371  0.5700
 2337SOL    HW1 7910   6.067   6.973   2.670 -1.6866 -0.6220  1.8354
 2337SOL    HW2 7911   5.938   6.930   2.580 -2.6685  0.4327  2.7073
 2338SOL     OW 7912   3.514   6.638   2.761 -0.1617  0.0289  0.0655
 2338SOL    HW1 7913   3.424   6.672   2.734  0.4973  3.2265  1.4784
 2338SOL    HW2 7914   3.574   6.637   2.681 -1.5723 -3.1473 -1.1342
 2339SOL     OW 7915   4.657   4.030   0.292  0.0425  0.2413  0.6671
 2339SOL    HW1 7916   4.583   4.080   0.338 -1.7264 -0.9914 -0.6613
 2339SOL    HW2 7917   4.681   4.076   0.207  1.0096  0.7714  1.2155
 2340SOL     OW 7918   2.343   0.693   1.623  1.0841 -0.4327  0.1399
 2340SOL    HW1 7919   2.413   0.654   1.683  1.6436  1.4036  0.7495
 2340SOL    HW2 7920   2.254   0.656   1.646  1.3025  0.1413  2.0599
 2341SOL     OW 7921   5.027   2.981   6.691 -0.2297 -0.1301  0.6259
 2341SOL    HW1 7922   4.971   2.909   6.732 -0.8036  0.0811  0.2410
 2341SOL    HW2 7923   5.036   2.964   6.593  1.8376 -1.0906  0.9413
 2342SOL     OW 7924   3.809   7.019   3.544  0.5672 -0.0629  0.2097
 2342SOL    HW1 7925   3.758   7.064   3.617 -0.4558  0.6279 -0.8907
 2342SOL    HW2 7926   3.748   6.956   3.495  0.9651  0.2045 -0.6467
 2343SOL     OW 7927   0.588   1.400   1.184  0.2258  0.4496  0.3164
 2343SOL    HW1 7928   0.637   1.486   1.171  1.5567 -0.1002  1.4468
 2343SOL    HW2 7929   0.557   1.394   1.279 -2.1657  0.8064 -0.3745
 2344SOL     OW 7930   3.584   5.156   5.630 -0.2811 -0.7596  0.0294
 2344SOL    HW1 7931   3.604   5.253   5.637  0.5296 -0.9937  1.3689
 2344SOL    HW2 7932   3.523   5.130   5.705 -0.9480 -1.1811 -0.6504
 2345SOL     OW 7933   4.734   2.344   4.061  0.1986  0.2171  0.5594
 2345SOL    HW1 7934   4.639   2.373   4.068  0.2096  0.2720  0.4809
 2345SOL    HW2 7935   4.774   2.379   3.976  0.6008  1.0951  1.1007
 2346SOL     OW 7936   3.014   6.556   0.201 -0.0085  0.2160  0.8684
 2346SOL    HW1 7937   2.991   6.601   0.115 -0.7517  0.0574  0.9787
 2346SOL    HW2 7938   2.952   6.587   0.273  1.0611  0.8931  1.5272
 2347SOL     OW 7939   5.185   4.633   1.841  0.0905  0.3692 -0.1639
 2347SOL    HW1 7940   5.152   4.543   1.812 -0.9719  0.1622  1.5514
 2347SOL    HW2 7941   5.143   4.704   1.783 -1.1812 -0.0844  0.1701
 2348SOL     OW 7942   2.990   1.567   6.241 -0.0872  0.3484 -0.4273
 2348SOL    HW1 7943   2.899   1.596   6.270 -0.0257 -0.7648  1.0187
 2348SOL    HW2 7944   2.982   1.489   6.179 -0.1133 -0.3001  0.3790
 2349SOL     OW 7945   2.232   4.251   5.957 -0.1032 -0.3466 -0.1549
 2349SOL    HW1 7946   2.168   4.201   5.900 -0.3686  0.9147 -0.9889
 2349SOL    HW2 7947   2.188   4.276   6.043 -0.2912 -0.6462 -0.1627
 2350SOL     OW 7948   0.468   3.691   1.479  0.0528  0.5093  0.1963
 2350SOL    HW1 7949   0.394   3.748   1.514  0.0117 -0.1062  1.1496
 2350SOL    HW2 7950   0.556   3.735   1.496 -0.0408  0.8221 -0.1250
 2351SOL     OW 7951   6.638   5.304   4.777  0.0380  0.0463 -0.1097
 2351SOL    HW1 7952   6.733   5.321   4.805 -0.0398  0.1012  0.1315
 2351SOL    HW2 7953   6.633   5.294   4.678  0.1673  0.9701 -0.2205
 2352SOL     OW 7954   1.297   3.694   5.397 -0.3243  0.1370  0.1277
 2352SOL    HW1 7955   1.272   3.636   5.319  0.0164 -0.1904  0.2602
 2352SOL    HW2 7956   1.340   3.778   5.365 -1.0644  0.4459 -0.0788
 2353SOL     OW 7957   6.186   0.601   6.141 -0.0393  0.1035 -0.2804
 2353SOL    HW1 7958   6.143   0.692   6.145  0.7101  0.4400  0.5553
 2353SOL    HW2 7959   6.278   0.609   6.104 -0.7507 -0.6644 -2.3753
 2354SOL     OW 7960   1.158   3.439   2.088 -0.0550  0.1446  0.3778
 2354SOL    HW1 7961   1.115   3.351   2.108  0.0029  0.5373  2.4099
 2354SOL    HW2 7962   1.225   3.461   2.160 -0.5650  2.1601  0.2953
 2355SOL     OW 7963   6.092   0.361   3.381  0.0705  0.0312 -0.1414
 2355SOL    HW1 7964   5.998   0.382   3.352 -0.7418  0.6587  2.6715
 2355SOL    HW2 7965   6.091   0.281   3.441  1.3705  0.0477 -0.0664
 2356SOL     OW 7966   0.375   5.414   1.677  0.7810 -0.5546 -0.5438
 2356SOL    HW1 7967   0.469   5.390   1.703  0.8225 -0.3833 -0.5371
 2356SOL    HW2 7968   0.312   5.373   1.743  0.7696 -1.7795 -1.2849
 2357SOL     OW 7969   2.929   3.917   6.599 -0.0979 -0.0052  0.1143
 2357SOL    HW1 7970   2.873   3.839   6.573 -0.5719 -0.1293  1.4142
 2357SOL    HW2 7971   2.888   3.962   6.678 -1.0263  2.8655 -1.8478
 2358SOL     OW 7972   5.588   1.434   0.136 -0.2777 -0.3313  0.2666
 2358SOL    HW1 7973   5.635   1.356   0.178 -1.1480 -1.8368 -1.4035
 2358SOL    HW2 7974   5.656   1.502   0.106  0.7431 -1.6173 -0.4611
 2359SOL     OW 7975   3.868   0.416   5.010 -0.5215  0.0935  0.1518
 2359SOL    HW1 7976   3.887   0.384   5.103 -2.3601  0.2664  0.6335
 2359SOL    HW2 7977   3.868   0.338   4.947 -0.6227 -0.2324  0.5467
 2360SOL     OW 7978   5.010   5.654   0.005 -0.1018  0.4435  0.1455
 2360SOL    HW1 7979   5.036   5.729  -0.055  0.0556  0.6678  0.4946
 2360SOL    HW2 7980   4.921   5.673   0.046 -0.2175  0.2825 -0.0320
 2361SOL     OW 7981   0.557   6.120   5.342  0.7097 -0.1081  0.0259
 2361SOL    HW1 7982   0.541   6.024   5.365 -0.4547  0.0582 -0.0516
 2361SOL    HW2 7983   0.630   6.126   5.274 -0.9781 -1.1659 -2.0054
 2362SOL     OW 7984   5.765   6.879   5.533 -0.1264 -0.9120 -0.4712
 2362SOL    HW1 7985   5.800   6.871   5.439 -1.3319 -0.6461 -0.9634
 2362SOL    HW2 7986   5.675   6.836   5.539  0.0254 -1.1050  0.6231
 2363SOL     OW 7987   1.220   4.652   4.639  0.1301 -0.1101 -0.3540
 2363SOL    HW1 7988   1.121   4.667   4.640  0.2072  0.4001  0.0252
 2363SOL    HW2 7989   1.249   4.628   4.547 -0.4930 -1.3120 -0.2629
 2364SOL     OW 7990   3.169   5.647   2.947 -0.4529 -0.5239 -0.9867
 2364SOL    HW1 7991   3.099   5.663   2.878  1.5003 -0.7468 -3.1561
 2364SOL    HW2 7992   3.239   5.587   2.909  0.6037 -0.8299  1.3085
 2365SOL     OW 7993   0.544   6.645   2.180  0.3826 -0.3984  0.3291
 2365SOL    HW1 7994   0.493   6.703   2.116 -3.2983 -0.9302  2.4827
 2365SOL    HW2 7995   0.562   6.556   2.138 -0.6824 -0.2498 -0.4749
 2366SOL     OW 7996   1.765   2.514   1.642 -0.0868  0.3966 -0.0411
 2366SOL    HW1 7997   1.838   2.534   1.578 -0.0854  0.1498 -0.1200
 2366SOL    HW2 7998   1.676   2.524   1.597 -0.1839  2.3318  0.5005
 2367SOL     OW 7999   0.321   1.399   1.833  0.0466  0.4352 -0.1172
 2367SOL    HW1 8000   0.248   1.445   1.884  1.0753  3.1549 -0.8943
 2367SOL    HW2 8001   0.340   1.310   1.875 -0.8978  1.4136  2.6682
 2368SOL     OW 8002   4.313   1.246   2.011  0.0466  0.2276 -0.4733
 2368SOL    HW1 8003   4.346   1.325   1.960 -0.2203  3.1576  3.4778
 2368SOL    HW2 8004   4.215   1.255   2.027  0.0435 -0.8300  0.1878
 2369SOL     OW 8005   1.312   3.017   0.920 -0.0887 -0.1163  0.6253
 2369SOL    HW1 8006   1.270   3.095   0.968  0.6929 -0.5587  2.1078
 2369SOL    HW2 8007   1.380   2.975   0.980  1.8359  0.0194 -1.3403
 2370SOL     OW 8008   3.427   1.187   2.737 -0.2841  0.7291 -0.0988
 2370SOL    HW1 8009   3.520   1.223   2.727  0.1321 -0.0554  0.8920
 2370SOL    HW2 8010   3.388   1.173   2.646  0.4057  1.4503 -0.5243
 2371SOL     OW 8011   1.542   5.612   1.553 -0.4294  0.1272  0.1927
 2371SOL    HW1 8012   1.543   5.672   1.473  0.5397 -0.6694 -0.4136
 2371SOL    HW2 8013   1.556   5.518   1.524 -0.2721 -0.1967  1.2880
 2372SOL     OW 8014   6.769   0.027   6.722  0.4233 -0.1439 -0.1605
 2372SOL    HW1 8015   6.836  -0.011   6.786 -0.4173 -2.7746 -0.7363
 2372SOL    HW2 8016   6.800   0.011   6.628 -0.4853 -0.4440 -0.4187
 2373SOL     OW 8017   1.221   0.875   6.937 -0.2705 -0.0821 -0.2833
 2373SOL    HW1 8018   1.127   0.863   6.969  0.1688 -1.0664  0.7014
 2373SOL    HW2 8019   1.253   0.967   6.961 -0.5780 -0.1691  0.4993
 2374SOL     OW 8020   1.549   5.133   6.161 -0.2184 -0.1888 -0.2204
 2374SOL    HW1 8021   1.505   5.223   6.157 -1.1522 -0.5121  1.5770
 2374SOL    HW2 8022   1.646   5.142   6.138 -0.3580  1.2402 -0.3339
 2375SOL     OW 8023   1.892   1.483   5.303  0.3441 -0.6317  0.5672
 2375SOL    HW1 8024   1.829   1.421   5.348 -1.3634 -1.1078 -2.2541
 2375SOL    HW2 8025   1.856   1.577   5.307  0.8936 -0.4400  1.3230
 2376SOL     OW 8026   2.816   1.487   2.760 -0.1535  0.2726 -0.1219
 2376SOL    HW1 8027   2.750   1.445   2.823  0.6331  0.5162  0.9005
 2376SOL    HW2 8028   2.903   1.439   2.767  0.4717  1.4229  0.3266
 2377SOL     OW 8029   3.489   4.114   1.819 -0.1773 -0.1426 -0.0169
 2377SOL    HW1 8030   3.431   4.045   1.861  1.0304 -0.3097  1.4466
 2377SOL    HW2 8031   3.580   4.112   1.861  0.4311  1.1347 -1.1869
 2378SOL     OW 8032   0.278   3.871   3.418 -0.1867  0.5169 -0.3516
 2378SOL    HW1 8033   0.320   3.808   3.353 -1.0469  0.3030 -0.7106
 2378SOL    HW2 8034   0.233   3.820   3.491 -0.3926  0.7323 -0.3275
 2379SOL     OW 8035   1.555   5.380   1.400  0.2710 -0.0678 -0.1524
 2379SOL    HW1 8036   1.586   5.413   1.311  0.1701  1.1611  0.2503
 2379SOL    HW2 8037   1.474   5.323   1.388 -0.5178  1.1301 -0.7683
 2380SOL     OW 8038   3.965   1.512   5.662  0.0099 -0.0410  0.0818
 2380SOL    HW1 8039   3.975   1.435   5.726  0.6987  0.3726  0.4848
 2380SOL    HW2 8040   3.868   1.535   5.653 -0.0693  0.1820  1.3400
 2381SOL     OW 8041   0.448   0.655   3.690 -0.3007 -0.2674  0.8316
 2381SOL    HW1 8042   0.490   0.740   3.721  1.8709 -0.6913 -0.6787
 2381SOL    HW2 8043   0.484   0.632   3.600 -1.8769 -2.0952  0.6209
 2382SOL     OW 8044   2.727   0.722   5.216 -0.3365  0.3597 -0.3793
 2382SOL    HW1 8045   2.655   0.791   5.210 -0.0436  0.6554 -0.5906
 2382SOL    HW2 8046   2.693   0.635   5.181 -0.3481  0.7001 -1.2366
 2383SOL     OW 8047   0.270   1.448   5.096  0.1858 -0.1460  0.1578
 2383SOL    HW1 8048   0.295   1.488   5.007  1.1996 -1.2900 -0.0919
 2383SOL    HW2 8049   0.289   1.350   5.095  3.7351  0.3225  2.8099
 2384SOL     OW 8050   0.905   4.200   4.172 -0.0534  0.5435  0.0378
 2384SOL    HW1 8051   0.900   4.156   4.261  2.5700  0.7392  0.3647
 2384SOL    HW2 8052   0.891   4.133   4.100 -0.4078  0.0456  0.5633
 2385SOL     OW 8053   6.787   4.828   5.593 -0.6426  0.4178  0.1422
 2385SOL    HW1 8054   6.812   4.735   5.618 -1.1779 -0.3047 -1.8230
 2385SOL    HW2 8055   6.757   4.878   5.674 -1.1844 -1.3751  1.0893
 2386SOL     OW 8056   1.684   3.503   5.328 -0.0180 -0.2686  0.2345
 2386SOL    HW1 8057   1.693   3.538   5.421  1.2906  0.2003 -0.0572
 2386SOL    HW2 8058   1.681   3.579   5.263 -0.6685 -0.5995 -0.1429
 2387SOL     OW 8059   0.035   0.235   3.348 -0.1614 -0.3429  0.0967
 2387SOL    HW1 8060  -0.043   0.224   3.409 -0.1333 -0.2701  0.1460
 2387SOL    HW2 8061   0.004   0.236   3.253 -0.5675  2.6439  0.1947
 2388SOL     OW 8062   1.831   3.039   1.713  0.2092  0.6658  0.2109
 2388SOL    HW1 8063   1.881   2.971   1.660 -0.5504  0.3069 -0.0547
 2388SOL    HW2 8064   1.769   2.993   1.776 -1.5266  1.0855 -1.1209
 2389SOL     OW 8065   3.660   6.264   0.710 -0.0242 -0.0146  0.0639
 2389SOL    HW1 8066   3.756   6.286   0.726  0.1942 -0.4189 -0.6543
 2389SOL    HW2 8067   3.616   6.241   0.797  0.3949  0.6663  0.4668
 2390SOL     OW 8068   0.011   2.478   6.684  0.4544  0.6056 -0.0399
 2390SOL    HW1 8069  -0.015   2.404   6.746  0.5526 -1.3024 -2.1373
 2390SOL    HW2 8070   0.110   2.477   6.670  0.2954  0.0896 -1.2647
 2391SOL     OW 8071   6.256   5.947   0.804  0.0022  0.5025 -0.4054
 2391SOL    HW1 8072   6.281   5.881   0.875 -1.1284 -1.0252 -1.3481
 2391SOL    HW2 8073   6.339   5.981   0.760  0.6375  0.0272  0.3863
 2392SOL     OW 8074   0.523   1.701   5.233  0.4202 -0.0584 -0.2091
 2392SOL    HW1 8075   0.613   1.676   5.198  0.0777  0.3269 -1.4110
 2392SOL    HW2 8076   0.473   1.619   5.259  1.0314 -0.2865  0.2756
 2393SOL     OW 8077   2.479   6.146   2.882 -0.3794  0.8440  0.1606
 2393SOL    HW1 8078   2.410   6.132   2.953 -0.4389 -0.4337 -0.1170
 2393SOL    HW2 8079   2.539   6.066   2.878 -1.5902 -0.0693 -2.5408
 2394SOL     OW 8080   2.506   0.785   1.183 -0.0366  0.2014 -0.2296
 2394SOL    HW1 8081   2.514   0.876   1.142  0.5051 -0.1272 -0.8740
 2394SOL    HW2 8082   2.596   0.756   1.216 -0.3068  0.1090  0.4463
 2395SOL     OW 8083   3.992   0.238   5.214  0.0329 -0.4044 -0.1805
 2395SOL    HW1 8084   4.062   0.195   5.271 -0.1295 -0.5777 -0.1110
 2395SOL    HW2 8085   3.901   0.211   5.247 -0.0849  0.4338  0.2224
 2396SOL     OW 8086   3.971   1.692   0.740 -0.6689  0.4408 -0.4204
 2396SOL    HW1 8087   3.913   1.770   0.763 -1.5605 -0.8050  1.8941
 2396SOL    HW2 8088   3.922   1.632   0.677 -0.9142  0.6084 -0.3936
 2397SOL     OW 8089   3.461   5.978   3.751 -0.8338  0.3211 -0.9638
 2397SOL    HW1 8090   3.404   6.030   3.687 -1.1022  0.6863 -0.4380
 2397SOL    HW2 8091   3.402   5.922   3.809 -0.7593  1.4865  0.2882
 2398SOL     OW 8092   3.703   2.299   1.050  1.0030  0.2319  0.4781
 2398SOL    HW1 8093   3.685   2.324   0.955  0.8837  0.5139  0.5726
 2398SOL    HW2 8094   3.676   2.375   1.110  2.6493  0.7389  0.6180
 2399SOL     OW 8095   3.630   2.112   4.597 -0.5506 -0.2610 -0.1998
 2399SOL    HW1 8096   3.704   2.152   4.652 -1.7809  0.9965  0.6159
 2399SOL    HW2 8097   3.543   2.121   4.647 -1.2523 -1.7773 -1.0907
 2400SOL     OW 8098   2.880   6.572   5.256 -0.1750  0.6170  0.5087
 2400SOL    HW1 8099   2.884   6.488   5.309 -1.6757  0.5821  0.6220
 2400SOL    HW2 8100   2.817   6.636   5.301  0.8143  1.7384  0.3361
 2401SOL     OW 8101   0.860   3.524   1.850 -0.3335 -0.1704  0.1963
 2401SOL    HW1 8102   0.815   3.611   1.827  1.3045  0.6429 -0.0730
 2401SOL    HW2 8103   0.827   3.492   1.939 -1.6878  0.2029 -0.1546
 2402SOL     OW 8104   1.318   3.121   6.018  0.8237  0.1251 -0.2463
 2402SOL    HW1 8105   1.232   3.103   5.971  0.1605 -0.1358  1.0531
 2402SOL    HW2 8106   1.392   3.124   5.950  0.2836 -2.7021 -1.0853
 2403SOL     OW 8107   0.231   3.141   0.151  0.3138  0.1895 -0.4319
 2403SOL    HW1 8108   0.154   3.125   0.212  0.1313 -1.1391 -0.9731
 2403SOL    HW2 8109   0.224   3.233   0.112 -0.5747  0.3631  0.1047
 2404SOL     OW 8110   3.265   6.149   2.508  0.2551  0.4319  0.7134
 2404SOL    HW1 8111   3.210   6.146   2.591 -3.4268 -0.5144 -1.5553
 2404SOL    HW2 8112   3.288   6.056   2.479 -1.8029  0.4344 -1.2121
 2405SOL     OW 8113   0.855   1.006   6.469  0.1614  0.3531 -0.4051
 2405SOL    HW1 8114   0.770   0.965   6.504  0.1724 -0.2413 -1.0439
 2405SOL    HW2 8115   0.874   1.091   6.518 -1.6462  1.3380 -1.3235
 2406SOL     OW 8116   4.751   1.050   1.530 -0.1425  0.2703  0.0728
 2406SOL    HW1 8117   4.705   1.061   1.618 -1.8462 -0.6222 -0.6433
 2406SOL    HW2 8118   4.757   1.138   1.484 -0.1019  0.5897  0.6820
 2407SOL     OW 8119   1.511   4.887   4.341 -0.2845  0.4583 -0.0572
 2407SOL    HW1 8120   1.528   4.881   4.440 -0.7776 -2.3914 -0.0731
 2407SOL    HW2 8121   1.597   4.910   4.295  1.1244 -2.5717  0.7631
 2408SOL     OW 8122   6.151   6.047   3.513  0.3563 -0.2088 -0.1942
 2408SOL    HW1 8123   6.159   5.965   3.457 -0.2711 -2.0410  2.2226
 2408SOL    HW2 8124   6.225   6.049   3.580 -1.2115 -0.3759  1.6251
 2409SOL     OW 8125   0.920   1.852   5.472 -0.0022 -0.3028 -0.2744
 2409SOL    HW1 8126   0.929   1.862   5.373 -0.0459  3.2736 -0.0642
 2409SOL    HW2 8127   0.996   1.898   5.517 -1.0865 -0.0154  1.3603
 2410SOL     OW 8128   2.894   3.463   4.163  0.3417  0.4064 -0.1247
 2410SOL    HW1 8129   2.877   3.365   4.159 -0.8969  0.4498  2.2838
 2410SOL    HW2 8130   2.845   3.508   4.089  1.4046 -0.7879 -1.6291
 2411SOL     OW 8131   1.318   2.510   4.418  0.6943  0.7476  0.5534
 2411SOL    HW1 8132   1.270   2.423   4.412  1.0891  0.5672 -0.0910
 2411SOL    HW2 8133   1.259   2.583   4.386  0.8731  0.5120 -0.3514
 2412SOL     OW 8134   4.345   6.051   5.634 -0.6002  0.1333  0.2595
 2412SOL    HW1 8135   4.374   6.120   5.701 -0.2365  0.5318 -0.2955
 2412SOL    HW2 8136   4.388   5.963   5.656 -0.2688  0.3251  0.3987
 2413SOL     OW 8137   5.808   4.033   1.004 -0.4271  0.0166 -0.1562
 2413SOL    HW1 8138   5.780   4.056   0.911  2.5007  2.2082 -0.6520
 2413SOL    HW2 8139   5.755   4.087   1.069 -1.0007  0.0796 -0.6667
 2414SOL     OW 8140   6.143   2.282   0.366  0.5142 -0.0829  0.0671
 2414SOL    HW1 8141   6.139   2.382   0.358  1.1710 -0.1029 -0.5870
 2414SOL    HW2 8142   6.050   2.246   0.375  0.1823  0.4893 -0.9339
 2415SOL     OW 8143   0.915   6.420   3.857 -0.4399  0.1759 -0.4432
 2415SOL    HW1 8144   0.987   6.383   3.798 -1.6002 -2.0117 -0.6009
 2415SOL    HW2 8145   0.835   6.360   3.853 -2.3518  2.5755 -0.3724
 2416SOL     OW 8146   1.639   6.271   2.157  0.2313 -0.5887 -0.6172
 2416SOL    HW1 8147   1.722   6.214   2.148  0.3953 -0.5825  0.6510
 2416SOL    HW2 8148   1.662   6.366   2.136  1.1826 -0.1464  2.0891
 2417SOL     OW 8149   4.066   5.841   0.420 -0.0608 -0.5888  0.0150
 2417SOL    HW1 8150   4.050   5.769   0.487 -1.2904  0.5254  0.9669
 2417SOL    HW2 8151   4.021   5.925   0.450 -0.0511  0.1339 -1.8663
 2418SOL     OW 8152   3.239   2.151   4.070 -0.8610  0.1481  0.1396
 2418SOL    HW1 8153   3.200   2.215   4.136 -2.3431  0.8170 -1.3107
 2418SOL    HW2 8154   3.204   2.172   3.979  0.2484 -1.4473 -0.6978
 2419SOL     OW 8155   1.149   2.438   5.199  0.1926 -0.1841 -0.1986
 2419SOL    HW1 8156   1.074   2.503   5.207  0.1853 -0.0790 -1.0843
 2419SOL    HW2 8157   1.124   2.367   5.133 -0.3817 -1.8960  1.7436
 2420SOL     OW 8158   0.224   6.813   0.551  0.0397  0.6062 -0.1145
 2420SOL    HW1 8159   0.163   6.802   0.473  0.6746  0.0198 -0.5367
 2420SOL    HW2 8160   0.309   6.763   0.535  1.8761  3.6434 -0.8140
 2421SOL     OW 8161   0.222   2.232   6.574  0.3966 -0.3729  0.4095
 2421SOL    HW1 8162   0.265   2.180   6.648 -0.3583 -0.8840  0.5062
 2421SOL    HW2 8163   0.268   2.320   6.564  0.2664 -0.1195  1.7584
 2422SOL     OW 8164   1.071   3.631   4.906  0.3122  0.0065  0.0475
 2422SOL    HW1 8165   0.972   3.633   4.915  0.3856  0.2886  0.8868
 2422SOL    HW2 8166   1.096   3.584   4.822 -0.5239 -0.2930 -0.0402
 2423SOL     OW 8167   6.663   4.590   3.236 -0.2557  0.1393 -0.3274
 2423SOL    HW1 8168   6.744   4.644   3.259  0.3506 -1.7121  2.4431
 2423SOL    HW2 8169   6.685   4.528   3.160  0.1891  1.1802 -1.0659
 2424SOL     OW 8170   3.574   1.778   3.060 -0.2753  0.1027  0.0725
 2424SOL    HW1 8171   3.660   1.745   3.020  0.0045  0.5330  0.3078
 2424SOL    HW2 8172   3.590   1.867   3.103 -0.3475 -0.7182  1.9194
 2425SOL     OW 8173   3.705   6.804   4.658  0.8168  0.2250  0.0377
 2425SOL    HW1 8174   3.656   6.830   4.574  1.4106 -0.1479 -0.4269
 2425SOL    HW2 8175   3.760   6.722   4.641  0.8806  0.0978  0.8176
 2426SOL     OW 8176   4.721   4.241   5.571  0.1294  0.1014 -0.4683
 2426SOL    HW1 8177   4.801   4.257   5.628 -0.3072 -0.2304  0.2480
 2426SOL    HW2 8178   4.688   4.147   5.584  0.6786 -0.3483 -2.1048
 2427SOL     OW 8179   0.505   6.196   1.960  0.4144 -0.5941  0.1918
 2427SOL    HW1 8180   0.527   6.125   2.028  1.4640  0.7552  1.3236
 2427SOL    HW2 8181   0.555   6.176   1.876  1.6342 -0.6053  0.8844
 2428SOL     OW 8182   0.973   1.763   2.745  0.6401  0.3014 -0.4016
 2428SOL    HW1 8183   1.029   1.787   2.665  1.1169  1.0188  0.1398
 2428SOL    HW2 8184   1.029   1.710   2.809 -0.1793 -1.6632 -1.2289
 2429SOL     OW 8185   2.002   5.552   6.834 -0.8172 -0.5152  0.0439
 2429SOL    HW1 8186   1.917   5.505   6.810 -1.0921 -0.5230  0.9680
 2429SOL    HW2 8187   1.989   5.650   6.825 -1.4117 -0.4226  1.5560
 2430SOL     OW 8188   6.376   2.087   4.865 -0.3489  0.5971 -0.6851
 2430SOL    HW1 8189   6.466   2.113   4.830  0.6973 -2.0071 -0.2194
 2430SOL    HW2 8190   6.312   2.078   4.789  0.4981  0.0513 -1.3590
 2431SOL     OW 8191   6.112   0.761   6.491 -0.3639 -0.7200  0.3424
 2431SOL    HW1 8192   6.170   0.683   6.467 -0.9952 -0.7429 -1.2721
 2431SOL    HW2 8193   6.150   0.809   6.569  0.7142 -1.9152  0.5768
 2432SOL     OW 8194   6.945   0.474   1.156 -0.5821  0.3475  0.3952
 2432SOL    HW1 8195   7.006   0.487   1.233 -1.0913  2.9834  0.4538
 2432SOL    HW2 8196   6.866   0.535   1.165 -1.2509 -0.1269 -1.6240
 2433SOL     OW 8197   2.755   4.091   5.518 -0.0001 -0.4417 -0.0452
 2433SOL    HW1 8198   2.714   4.105   5.428 -0.0079  2.6259  0.3445
 2433SOL    HW2 8199   2.837   4.033   5.509 -2.2394 -3.7160 -1.3128
 2434SOL     OW 8200   1.328   4.540   0.757  0.5888  0.4254 -0.5795
 2434SOL    HW1 8201   1.286   4.630   0.756 -0.1378  0.1055  0.1206
 2434SOL    HW2 8202   1.263   4.472   0.723  0.5736 -0.0572  0.3780
 2435SOL     OW 8203   3.154   1.905   6.360  0.2049  0.3409 -0.4888
 2435SOL    HW1 8204   3.079   1.971   6.364 -1.6389 -1.7229  0.5947
 2435SOL    HW2 8205   3.240   1.952   6.383 -0.8766  2.4961 -0.5347
 2436SOL     OW 8206   3.247   4.906   4.526 -0.4592 -0.6011 -0.4145
 2436SOL    HW1 8207   3.305   4.825   4.531 -0.2132 -0.3905  0.3777
 2436SOL    HW2 8208   3.183   4.897   4.451  0.3989 -0.9708 -1.1178
 2437SOL     OW 8209   2.667   2.581   6.547 -0.4129 -0.2700  0.3660
 2437SOL    HW1 8210   2.727   2.601   6.470 -0.4102 -0.8464  0.2141
 2437SOL    HW2 8211   2.715   2.604   6.633 -1.3701  2.9091  0.1685
 2438SOL     OW 8212   4.361   2.126   2.842 -0.4058  0.5730  0.1386
 2438SOL    HW1 8213   4.428   2.193   2.810 -1.7504  0.6845 -2.7417
 2438SOL    HW2 8214   4.280   2.130   2.784 -0.9265 -2.9520  0.4006
 2439SOL     OW 8215   0.321   0.138   3.670 -0.5767  0.0144 -0.3416
 2439SOL    HW1 8216   0.300   0.236   3.662  0.2384  0.4014  1.6742
 2439SOL    HW2 8217   0.257   0.096   3.734 -0.7104 -0.7168 -0.9432
 2440SOL     OW 8218   0.305   1.903   5.162  0.3124 -0.4739  0.4118
 2440SOL    HW1 8219   0.349   1.967   5.099  0.0182 -0.4829  0.1945
 2440SOL    HW2 8220   0.370   1.832   5.189  0.0520 -1.2598 -0.9517
 2441SOL     OW 8221   4.760   0.140   2.787 -0.1517  0.4608 -0.0464
 2441SOL    HW1 8222   4.788   0.046   2.765  0.5863  0.9031 -1.0710
 2441SOL    HW2 8223   4.822   0.204   2.742  0.2563  1.4509  1.8159
 2442SOL     OW 8224   3.503   4.229   1.456  0.2748 -0.2766 -0.2770
 2442SOL    HW1 8225   3.460   4.206   1.543 -0.3297  0.0406 -0.4852
 2442SOL    HW2 8226   3.510   4.329   1.448  0.3281 -0.3033 -0.5894
 2443SOL     OW 8227   0.763   4.296   5.934  0.1332  0.6830 -0.0028
 2443SOL    HW1 8228   0.818   4.361   5.881 -1.3882  1.3507 -0.8201
 2443SOL    HW2 8229   0.792   4.202   5.912  0.6227  1.0015 -0.7649
 2444SOL     OW 8230   0.152   1.651   4.614 -0.4298  0.5215  0.1518
 2444SOL    HW1 8231   0.184   1.569   4.567 -2.1333  0.3405 -0.7862
 2444SOL    HW2 8232   0.141   1.725   4.548 -1.7005  0.6143  0.4299
 2445SOL     OW 8233   0.750   4.423   0.019 -0.7007  0.1095 -0.4471
 2445SOL    HW1 8234   0.849   4.414   0.014 -0.5381  1.0875  0.7538
 2445SOL    HW2 8235   0.708   4.347  -0.031  0.6382 -0.8122 -0.2334
 2446SOL     OW 8236   1.870   0.486   0.987  0.0437 -0.2904  0.0187
 2446SOL    HW1 8237   1.848   0.584   0.992  1.1773 -0.0829  1.1846
 2446SOL    HW2 8238   1.871   0.447   1.079  0.5527 -1.1977 -0.3631
 2447SOL     OW 8239   1.806   5.409   1.493 -0.0320 -0.2054 -0.4908
 2447SOL    HW1 8240   1.859   5.465   1.429 -2.1869  1.6948 -0.7844
 2447SOL    HW2 8241   1.708   5.420   1.473 -0.6289 -3.1009  0.3498
 2448SOL     OW 8242   5.606   2.252   1.929 -0.1437  0.1850 -0.0969
 2448SOL    HW1 8243   5.544   2.223   2.002  0.0227 -0.2776 -0.1349
 2448SOL    HW2 8244   5.596   2.351   1.914  0.8727  0.6085  1.5994
 2449SOL     OW 8245   6.861   5.777   5.740  0.0700  0.2096  0.3845
 2449SOL    HW1 8246   6.781   5.837   5.739  1.0253  1.5733 -1.4887
 2449SOL    HW2 8247   6.907   5.781   5.651  2.5912 -0.0385  1.5833
 2450SOL     OW 8248   5.627   4.025   3.962 -0.5737 -0.2611  0.0712
 2450SOL    HW1 8249   5.703   3.972   3.923 -0.1971  0.4038 -0.1278
 2450SOL    HW2 8250   5.561   4.045   3.889  0.7969  2.1527 -0.6396
 2451SOL     OW 8251   2.023   4.105   4.400 -0.1775  0.2848 -0.9392
 2451SOL    HW1 8252   2.040   4.082   4.496  2.5692  1.5120 -1.0337
 2451SOL    HW2 8253   1.982   4.196   4.395 -0.1685  0.2889 -0.9396
 2452SOL     OW 8254   6.165   0.962   4.112  0.0981  0.0574 -0.1659
 2452SOL    HW1 8255   6.260   0.944   4.139  0.1054  1.1397  0.5817
 2452SOL    HW2 8256   6.164   1.017   4.029  0.1334  0.1834 -0.0837
 2453SOL     OW 8257   0.579   0.428   2.731 -0.0243 -0.0042  0.2703
 2453SOL    HW1 8258   0.588   0.455   2.635  1.7727  1.2372  0.7277
 2453SOL    HW2 8259   0.634   0.346   2.748  2.1230  1.4656  0.8053
 2454SOL     OW 8260   4.668   4.905   3.707 -0.6277 -0.0922 -0.2727
 2454SOL    HW1 8261   4.692   4.920   3.611 -0.1633 -0.4829 -0.2211
 2454SOL    HW2 8262   4.744   4.861   3.754 -0.7870  0.2524  0.3203
 2455SOL     OW 8263   5.089   3.238   6.217  0.5951  0.2118 -0.2250
 2455SOL    HW1 8264   4.998   3.242   6.259 -0.4753 -0.4101 -2.3584
 2455SOL    HW2 8265   5.155   3.285   6.276 -0.8139 -0.4676  2.0304
 2456SOL     OW 8266   3.114   6.173   0.734  0.0052 -0.5991  0.4013
 2456SOL    HW1 8267   3.035   6.113   0.748 -0.2594 -0.2323  0.4857
 2456SOL    HW2 8268   3.086   6.255   0.684 -0.5522  1.3937  3.6314
 2457SOL     OW 8269   4.986   1.886   3.548 -0.3467  0.2476 -0.0179
 2457SOL    HW1 8270   4.947   1.885   3.640 -0.4099 -0.7663 -0.0537
 2457SOL    HW2 8271   4.917   1.919   3.483 -0.9190 -0.8317  0.0280
 2458SOL     OW 8272   4.445   0.909   6.969 -0.2773 -0.2169  0.3007
 2458SOL    HW1 8273   4.475   0.896   7.063 -3.5627 -1.0428  1.3677
 2458SOL    HW2 8274   4.525   0.911   6.908  2.0782  1.9412  3.1689
 2459SOL     OW 8275   1.252   2.687   3.183 -0.0072 -0.0429 -0.6882
 2459SOL    HW1 8276   1.340   2.700   3.229  0.8292 -1.2602 -1.8843
 2459SOL    HW2 8277   1.223   2.592   3.191 -0.0164 -0.2153 -2.3313
 2460SOL     OW 8278   5.324   2.632   1.922 -0.1211  0.0409  0.4490
 2460SOL    HW1 8279   5.306   2.655   1.826 -1.2785 -0.0936  0.6215
 2460SOL    HW2 8280   5.333   2.716   1.975  0.1870  0.1144  0.2813
 2461SOL     OW 8281   2.964   3.396   4.776  0.2727 -0.6215 -0.2753
 2461SOL    HW1 8282   2.959   3.368   4.681 -0.0831 -1.1735 -0.0997
 2461SOL    HW2 8283   2.993   3.319   4.833 -1.3619 -0.8537  0.2953
 2462SOL     OW 8284   6.655   0.153   1.176 -0.0139 -0.4208 -0.4117
 2462SOL    HW1 8285   6.589   0.188   1.242 -0.3611 -1.7520 -0.0244
 2462SOL    HW2 8286   6.666   0.054   1.189  1.1651 -0.4171 -1.2533
 2463SOL     OW 8287   2.175   5.622   3.542 -0.2237 -0.1920  0.0999
 2463SOL    HW1 8288   2.090   5.618   3.595 -0.0907 -3.2724  0.2655
 2463SOL    HW2 8289   2.155   5.654   3.450 -1.0558  1.7319  0.8878
 2464SOL     OW 8290   6.543   3.881   5.869  0.4708  0.1064 -0.6678
 2464SOL    HW1 8291   6.506   3.803   5.819  0.6588 -0.5816  0.2301
 2464SOL    HW2 8292   6.468   3.940   5.898  0.2085 -0.4001 -0.2891
 2465SOL     OW 8293   5.945   3.613   3.118 -0.0580  0.1326  0.5145
 2465SOL    HW1 8294   5.985   3.704   3.110 -1.9068  0.8774 -1.1171
 2465SOL    HW2 8295   5.927   3.593   3.214 -1.9251  2.6052  0.7925
 2466SOL     OW 8296   4.071   1.207   0.143 -0.0632 -0.1114 -0.3654
 2466SOL    HW1 8297   3.982   1.230   0.182 -0.0886 -0.5689 -0.1482
 2466SOL    HW2 8298   4.143   1.260   0.188 -0.1505 -0.2582 -0.0481
 2467SOL     OW 8299   1.006   1.222   2.901 -0.1421  0.4707 -0.0840
 2467SOL    HW1 8300   1.105   1.217   2.912 -0.2267 -2.8514  0.1475
 2467SOL    HW2 8301   0.984   1.261   2.812  1.2868  2.4513  0.3766
 2468SOL     OW 8302   6.578   5.890   5.670  0.4012 -0.3966  0.1461
 2468SOL    HW1 8303   6.488   5.934   5.662 -0.3686 -1.1222  3.4054
 2468SOL    HW2 8304   6.574   5.799   5.629  0.6429  0.6701 -2.4520
 2469SOL     OW 8305   0.266   1.261   3.197 -0.2948 -0.5792 -0.0124
 2469SOL    HW1 8306   0.167   1.244   3.204 -0.3112 -0.5190 -0.0941
 2469SOL    HW2 8307   0.282   1.335   3.131 -0.4706  2.4084  3.0326
 2470SOL     OW 8308   5.229   2.415   0.714  1.0460  0.2992  0.1969
 2470SOL    HW1 8309   5.168   2.485   0.675  0.7283 -0.1796 -0.1733
 2470SOL    HW2 8310   5.185   2.326   0.709  1.1510  0.1700  1.3434
 2471SOL     OW 8311   0.484   3.361   2.230  0.6360  0.4547  0.3228
 2471SOL    HW1 8312   0.551   3.360   2.305  0.6680  0.8468  0.3019
 2471SOL    HW2 8313   0.418   3.435   2.245  1.7302  1.7625 -0.9629
 2472SOL     OW 8314   4.783   2.452   2.859  0.5828  0.0325  0.2614
 2472SOL    HW1 8315   4.841   2.432   2.938 -1.0931  0.2296  1.6249
 2472SOL    HW2 8316   4.758   2.549   2.861  3.9592  1.2238 -3.0178
 2473SOL     OW 8317   6.435   4.327   2.091 -0.2000 -0.5135 -0.2338
 2473SOL    HW1 8318   6.464   4.364   2.180 -0.3634  0.6313 -0.6354
 2473SOL    HW2 8319   6.469   4.234   2.081  0.4320 -0.4060  0.7275
 2474SOL     OW 8320   2.990   5.208   1.359 -0.4451  0.1129 -0.6890
 2474SOL    HW1 8321   3.073   5.236   1.409  0.3794 -3.2005  0.0308
 2474SOL    HW2 8322   2.962   5.282   1.297  1.8018  2.1557  0.5571
 2475SOL     OW 8323   2.973   1.752   5.848  0.2148 -0.0421  0.3287
 2475SOL    HW1 8324   3.007   1.784   5.936  0.0762 -1.4530  0.9346
 2475SOL    HW2 8325   2.873   1.747   5.851  0.2005  0.0650  0.0364
 2476SOL     OW 8326   6.793   1.016   6.039 -0.0060 -0.1568  0.2991
 2476SOL    HW1 8327   6.761   1.012   5.944  2.6670 -2.6089 -0.6384
 2476SOL    HW2 8328   6.826   1.108   6.058 -2.6285  1.0264 -0.3008
 2477SOL     OW 8329   5.207   4.364   3.252  0.1206  0.6836 -0.7344
 2477SOL    HW1 8330   5.154   4.311   3.318  0.0672  0.0936 -1.2472
 2477SOL    HW2 8331   5.226   4.455   3.290 -1.1804  0.8749 -0.5059
 2478SOL     OW 8332   4.191   5.364   2.055  0.7285  0.3781  0.1470
 2478SOL    HW1 8333   4.174   5.271   2.022 -1.1857  0.1709  1.5282
 2478SOL    HW2 8334   4.198   5.363   2.155  1.0788  1.6589  0.1512
 2479SOL     OW 8335   3.485   4.885   2.222  0.2175 -0.1045 -0.4629
 2479SOL    HW1 8336   3.552   4.845   2.159  0.1375 -1.2145  0.1237
 2479SOL    HW2 8337   3.394   4.850   2.200  0.1465 -0.2674  0.0800
 2480SOL     OW 8338   6.848   4.486   3.002 -0.0749  0.1748 -0.2657
 2480SOL    HW1 8339   6.909   4.422   3.049  0.2226  0.6291 -0.0293
 2480SOL    HW2 8340   6.800   4.438   2.929  2.2453  0.2583 -1.9742
 2481SOL     OW 8341   5.214   1.468   4.903  0.0697 -0.2295  0.2625
 2481SOL    HW1 8342   5.286   1.402   4.883 -0.2491 -0.7001  0.6202
 2481SOL    HW2 8343   5.243   1.559   4.875  0.9654 -0.3426  0.7768
 2482SOL     OW 8344   6.892   3.218   0.158 -0.6232  0.2690 -0.6471
 2482SOL    HW1 8345   6.896   3.161   0.076 -0.9435 -0.5135 -0.1353
 2482SOL    HW2 8346   6.870   3.312   0.133 -1.2201 -0.0656 -1.4243
 2483SOL     OW 8347   5.386   5.779   4.462  0.0607  0.1369  0.0826
 2483SOL    HW1 8348   5.441   5.727   4.527  1.4525  0.9923 -0.3800
 2483SOL    HW2 8349   5.440   5.798   4.380 -0.9571  0.9528 -0.4218
 2484SOL     OW 8350   5.223   3.342   0.260 -0.1943 -0.6478  0.0716
 2484SOL    HW1 8351   5.274   3.279   0.202 -0.2999 -1.1872  0.5601
 2484SOL    HW2 8352   5.250   3.330   0.355  1.2479  1.4453 -0.0192
 2485SOL     OW 8353   5.501   1.268   3.973 -0.2589  0.1972  0.2596
 2485SOL    HW1 8354   5.515   1.342   4.039  1.4477  1.3193 -1.2660
 2485SOL    HW2 8355   5.413   1.282   3.926 -1.9892 -1.1560  2.8366
 2486SOL     OW 8356   1.407   5.666   1.810 -0.7132  0.6732 -0.6052
 2486SOL    HW1 8357   1.443   5.612   1.735  0.2796  0.2595  0.1403
 2486SOL    HW2 8358   1.468   5.658   1.889 -1.1771  1.9271 -0.0889
 2487SOL     OW 8359   1.121   4.836   0.511 -0.4779  0.0906 -0.4254
 2487SOL    HW1 8360   1.101   4.933   0.529 -1.3220  0.6175 -3.5141
 2487SOL    HW2 8361   1.157   4.793   0.594  0.1588  3.0887  0.9941
 2488SOL     OW 8362   5.905   0.380   4.109 -0.5402 -0.5549 -0.0528
 2488SOL    HW1 8363   5.886   0.330   4.194 -0.8632 -1.1550 -0.4653
 2488SOL    HW2 8364   5.955   0.321   4.046 -2.1972 -0.9098 -1.1180
 2489SOL     OW 8365   0.206   5.060   3.991  0.5572  0.4384  0.0736
 2489SOL    HW1 8366   0.261   4.978   4.006  0.1268  0.3032  1.0024
 2489SOL    HW2 8367   0.172   5.061   3.897  1.3488  0.0384 -0.2185
 2490SOL     OW 8368   4.030   2.250   0.437  0.6568 -0.2747 -0.2009
 2490SOL    HW1 8369   4.126   2.271   0.419  0.2672  0.4256 -1.5471
 2490SOL    HW2 8370   3.971   2.311   0.385 -0.5305 -1.3561 -0.1884
 2491SOL     OW 8371   4.750   5.963   2.397  0.0005 -0.1930  0.8903
 2491SOL    HW1 8372   4.797   5.910   2.468  0.0803 -1.1861  0.1051
 2491SOL    HW2 8373   4.813   6.031   2.359  0.5397 -0.9368  0.4453
 2492SOL     OW 8374   6.918   1.517   4.829 -0.2659 -0.0544  0.9883
 2492SOL    HW1 8375   6.963   1.459   4.762 -1.1793 -0.0254  0.3320
 2492SOL    HW2 8376   6.970   1.602   4.839 -0.0135 -0.1435  0.4654
 2493SOL     OW 8377   2.111   3.288   5.668  0.2904 -0.1953 -0.1112
 2493SOL    HW1 8378   2.118   3.250   5.576  6.9061  1.0337 -0.6197
 2493SOL    HW2 8379   2.097   3.387   5.663  2.2805  0.1292 -0.0423
 2494SOL     OW 8380   2.363   3.322   0.099 -0.2286  0.0712 -0.1733
 2494SOL    HW1 8381   2.353   3.354   0.193  0.7944  0.6241 -0.2377
 2494SOL    HW2 8382   2.373   3.222   0.098  1.7024  0.2274  0.4901
 2495SOL     OW 8383   3.908   5.788   2.280  0.2038 -0.5282  0.5276
 2495SOL    HW1 8384   3.979   5.728   2.317  0.4379  0.8654  2.5146
 2495SOL    HW2 8385   3.950   5.857   2.222  0.3316 -0.3835  0.7915
 2496SOL     OW 8386   6.746   5.808   4.025  0.5024 -0.6272  0.3288
 2496SOL    HW1 8387   6.709   5.766   3.942  2.2042  0.7534 -1.2138
 2496SOL    HW2 8388   6.842   5.783   4.035  0.8464  0.7625  0.7811
 2497SOL     OW 8389   6.864   2.969   3.959 -0.1804 -0.2137  0.5938
 2497SOL    HW1 8390   6.862   2.958   4.058 -1.5112  0.7258  0.6949
 2497SOL    HW2 8391   6.785   3.023   3.930 -1.3154 -2.6767 -1.2479
 2498SOL     OW 8392   6.982   6.626   4.321 -0.0217 -0.5634 -0.1092
 2498SOL    HW1 8393   6.953   6.709   4.274  0.6939  0.7617  1.6514
 2498SOL    HW2 8394   7.068   6.593   4.281 -0.3248 -0.4782 -0.8375
 2499SOL     OW 8395   0.984   3.975   2.440  0.5242  0.2835 -0.2937
 2499SOL    HW1 8396   1.074   3.969   2.396  1.5458 -0.3599  1.7631
 2499SOL    HW2 8397   0.986   3.927   2.527 -1.6559  0.8154  0.1117
 2500SOL     OW 8398   1.629   2.764   4.660 -0.1301 -0.2080  0.4108
 2500SOL    HW1 8399   1.610   2.749   4.757 -0.1999  0.4885  0.5079
 2500SOL    HW2 8400   1.675   2.852   4.648 -0.3285 -0.1843 -0.2060
 2501SOL     OW 8401   1.572   4.293   3.513  0.6303 -0.6057 -0.0498
 2501SOL    HW1 8402   1.513   4.214   3.497 -0.6066  0.2719  0.0519
 2501SOL    HW2 8403   1.576   4.350   3.430  1.5894 -0.8048 -0.1559
 2502SOL     OW 8404   6.030   4.687   3.358  0.4913 -0.1486 -0.0256
 2502SOL    HW1 8405   6.091   4.753   3.315  0.3029  0.3960  0.5379
 2502SOL    HW2 8406   5.967   4.734   3.419 -0.0840 -0.7731 -0.1197
 2503SOL     OW 8407   6.993   2.690   4.201  0.1942  0.1774 -0.5280
 2503SOL    HW1 8408   7.064   2.660   4.138 -0.4111  0.3932 -1.3267
 2503SOL    HW2 8409   6.903   2.678   4.159 -0.2165  0.4472  0.2415
 2504SOL     OW 8410   3.740   0.760   0.611  0.6592  0.3603  0.8353
 2504SOL    HW1 8411   3.715   0.793   0.520 -0.7115 -1.6081  0.4378
 2504SOL    HW2 8412   3.839   0.748   0.617  0.6548 -0.7559 -0.8633
 2505SOL     OW 8413   3.840   4.796   6.839 -0.2306 -0.1569  0.2324
 2505SOL    HW1 8414   3.847   4.738   6.758 -1.4148  0.9073 -0.6770
 2505SOL    HW2 8415   3.928   4.840   6.856 -0.1536  0.2190 -0.9916
 2506SOL     OW 8416   0.518   3.646   6.824  0.0017 -0.0193  0.1157
 2506SOL    HW1 8417   0.506   3.736   6.866 -1.8246  0.4824 -1.3339
 2506SOL    HW2 8418   0.445   3.585   6.855  0.8808 -0.8290  0.6211
 2507SOL     OW 8419   6.617   1.472   3.254 -0.4916 -0.3738 -0.1747
 2507SOL    HW1 8420   6.695   1.426   3.296 -1.4108 -1.2073  0.6729
 2507SOL    HW2 8421   6.646   1.517   3.170  1.1024  0.1703  0.6375
 2508SOL     OW 8422   5.608   5.507   0.801  0.0683  0.4218  0.0676
 2508SOL    HW1 8423   5.551   5.555   0.733 -0.4992 -0.2760  0.0328
 2508SOL    HW2 8424   5.612   5.562   0.885 -0.1479  0.7732 -0.1453
 2509SOL     OW 8425   6.192   4.240   5.186 -0.3936  0.2927 -0.0189
 2509SOL    HW1 8426   6.101   4.207   5.210 -0.2644 -0.4377 -0.4964
 2509SOL    HW2 8427   6.243   4.167   5.140  0.4756  0.6526  0.3485
 2510SOL     OW 8428   2.047   1.851   0.070 -0.2069 -0.0101  0.0249
 2510SOL    HW1 8429   1.964   1.844   0.124 -0.2744 -0.5303 -0.1484
 2510SOL    HW2 8430   2.067   1.764   0.026 -0.9158  0.7471 -1.9353
 2511SOL     OW 8431   1.737   2.396   2.144 -0.1176  0.6839 -0.4626
 2511SOL    HW1 8432   1.702   2.309   2.178  0.0628  0.5398 -0.6392
 2511SOL    HW2 8433   1.771   2.384   2.051  0.2461  0.8577 -0.3568
 2512SOL     OW 8434   6.793   2.237   6.508 -0.0143  1.1280  0.2397
 2512SOL    HW1 8435   6.835   2.265   6.421  1.4405  2.2565  1.2673
 2512SOL    HW2 8436   6.715   2.295   6.528 -1.0251  0.1741 -0.8100
 2513SOL     OW 8437   5.707   4.901   2.440  0.3036  0.5373  0.7105
 2513SOL    HW1 8438   5.671   4.810   2.420 -0.6576  1.1987 -0.7506
 2513SOL    HW2 8439   5.805   4.904   2.419  0.0055  0.2659 -0.8680
 2514SOL     OW 8440   4.495   3.853   6.196  0.2588  0.4397  0.3548
 2514SOL    HW1 8441   4.568   3.809   6.143 -0.3658  0.8294 -0.8722
 2514SOL    HW2 8442   4.530   3.935   6.241  1.0065 -0.3579  1.2534
 2515SOL     OW 8443   0.074   4.861   1.142  0.6513  0.1633 -0.3561
 2515SOL    HW1 8444   0.169   4.893   1.136  1.9826 -3.2346 -0.0210
 2515SOL    HW2 8445   0.074   4.761   1.152 -2.9951  0.0917  0.1200
 2516SOL     OW 8446   1.098   1.015   1.542  0.0731 -0.2324 -0.0807
 2516SOL    HW1 8447   1.180   0.987   1.492  0.3432 -1.8918  1.2384
 2516SOL    HW2 8448   1.087   1.115   1.534  0.7960 -0.2760 -2.3372
 2517SOL     OW 8449   4.202   1.116   6.274 -0.3401 -0.0429 -0.1912
 2517SOL    HW1 8450   4.141   1.152   6.344  0.1454  1.7362 -0.6309
 2517SOL    HW2 8451   4.228   1.190   6.211  3.1912 -0.4061  0.6358
 2518SOL     OW 8452   0.273   3.855   1.100 -0.1785  0.2082  0.4948
 2518SOL    HW1 8453   0.332   3.774   1.103 -0.7434 -0.2868 -0.8028
 2518SOL    HW2 8454   0.265   3.886   1.005 -1.5651  0.5814  0.7185
 2519SOL     OW 8455   5.661   4.208   6.103 -0.1123  0.0285  0.5638
 2519SOL    HW1 8456   5.669   4.243   6.196  0.3425  1.8990 -0.1264
 2519SOL    HW2 8457   5.753   4.195   6.065 -0.2849  0.3714  0.0164
 2520SOL     OW 8458   4.270   1.861   6.220 -0.8260 -0.3730 -0.2276
 2520SOL    HW1 8459   4.256   1.809   6.304 -0.1525  0.8564  0.6737
 2520SOL    HW2 8460   4.313   1.802   6.151  2.2767 -0.4425  1.5835
 2521SOL     OW 8461   6.975   4.255   3.890  0.2286  0.3112  0.1383
 2521SOL    HW1 8462   7.005   4.178   3.833  0.6041  1.2080 -0.8991
 2521SOL    HW2 8463   6.921   4.318   3.834 -2.3205 -0.4498  1.5740
 2522SOL     OW 8464   4.390   2.158   1.146 -0.0831 -0.1270 -0.9530
 2522SOL    HW1 8465   4.326   2.192   1.215  0.0700 -0.6027 -0.5699
 2522SOL    HW2 8466   4.346   2.087   1.091 -0.2021  0.2474 -1.3395
 2523SOL     OW 8467   0.462   2.534   1.443 -0.1800  0.5588 -0.0857
 2523SOL    HW1 8468   0.545   2.525   1.387  0.1823  1.3260  0.3247
 2523SOL    HW2 8469   0.485   2.575   1.531 -0.9511  0.5016  0.1474
 2524SOL     OW 8470   1.030   1.084   4.019  0.0384 -0.3711 -0.4553
 2524SOL    HW1 8471   0.989   1.005   3.973  0.7785 -2.3990  2.1479
 2524SOL    HW2 8472   1.115   1.109   3.972 -1.0554  0.0182 -2.3110
 2525SOL     OW 8473   2.072   3.162   5.424  0.0748 -0.1140 -0.1558
 2525SOL    HW1 8474   2.068   3.065   5.399  1.1754 -0.4780  0.9484
 2525SOL    HW2 8475   2.002   3.213   5.373 -0.5419 -1.4842 -0.7350
 2526SOL     OW 8476   5.145   4.395   2.653  0.5614 -0.6165  0.1469
 2526SOL    HW1 8477   5.173   4.317   2.708  1.7415  0.4449  1.0965
 2526SOL    HW2 8478   5.055   4.427   2.683  0.3693 -1.1778  0.1865
 2527SOL     OW 8479   1.152   6.937   2.452 -1.0001 -0.4435 -0.1232
 2527SOL    HW1 8480   1.130   7.002   2.524 -0.1691  0.4683 -0.6770
 2527SOL    HW2 8481   1.099   6.958   2.370 -0.2326 -0.0257 -0.5242
 2528SOL     OW 8482   2.282   5.539   3.831 -0.0976 -0.0170  0.0088
 2528SOL    HW1 8483   2.376   5.520   3.805  0.0091  0.6068 -0.0916
 2528SOL    HW2 8484   2.235   5.586   3.756 -0.2906  0.2702  0.3044
 2529SOL     OW 8485   0.641   1.135   3.139  0.5300  0.3550 -0.3571
 2529SOL    HW1 8486   0.561   1.090   3.181  0.1141  0.8027 -0.6583
 2529SOL    HW2 8487   0.622   1.155   3.043  1.5181 -0.7451 -0.7970
 2530SOL     OW 8488   2.863   0.852   2.531  0.6112 -0.1677 -0.6925
 2530SOL    HW1 8489   2.831   0.757   2.531  0.6981 -0.2037 -1.7476
 2530SOL    HW2 8490   2.950   0.858   2.579 -0.5943 -0.1792  1.6584
 2531SOL     OW 8491   4.161   0.548   5.415  0.1105 -0.1015 -0.1171
 2531SOL    HW1 8492   4.219   0.608   5.471 -0.1915  0.7892 -0.7261
 2531SOL    HW2 8493   4.199   0.456   5.415 -0.8880 -0.6156  3.0698
 2532SOL     OW 8494   1.560   3.545   0.826  0.3048  0.2145  0.0725
 2532SOL    HW1 8495   1.609   3.633   0.829  0.0203  0.3788 -0.0985
 2532SOL    HW2 8496   1.478   3.551   0.882  0.6714 -0.1802  0.6527
 2533SOL     OW 8497   5.814   5.829   2.253  0.2421  0.2604  0.4421
 2533SOL    HW1 8498   5.873   5.825   2.334 -1.0650  0.3458  1.4301
 2533SOL    HW2 8499   5.828   5.748   2.197  0.2688 -0.4274  1.4160
 2534SOL     OW 8500   5.041   0.326   4.612  0.1736  0.1683 -0.2020
 2534SOL    HW1 8501   4.985   0.309   4.531  0.5853 -0.9361 -0.2692
 2534SOL    HW2 8502   5.118   0.385   4.588 -1.4176  2.5598  0.0913
 2535SOL     OW 8503   6.885   4.642   3.410  0.7856 -0.4515  0.3314
 2535SOL    HW1 8504   6.833   4.648   3.495  1.6146 -0.0766  0.8316
 2535SOL    HW2 8505   6.956   4.572   3.419  0.3194 -1.0297 -0.3761
 2536SOL     OW 8506   2.907   4.938   0.756  0.5405  0.7782 -0.5918
 2536SOL    HW1 8507   2.975   4.899   0.818 -1.7395 -1.1744  0.8491
 2536SOL    HW2 8508   2.895   5.036   0.776  0.3860  0.3499  1.5979
 2537SOL     OW 8509   1.283   1.299   1.820 -0.2329 -0.6169  0.1346
 2537SOL    HW1 8510   1.313   1.204   1.808 -1.4381 -0.9997 -0.0440
 2537SOL    HW2 8511   1.359   1.355   1.852  1.4007 -0.9592 -2.8259
 2538SOL     OW 8512   4.644   6.472   0.529  0.3765 -0.0995 -0.1404
 2538SOL    HW1 8513   4.729   6.504   0.488  1.0131 -0.3590  0.9467
 2538SOL    HW2 8514   4.636   6.373   0.516  2.2151 -0.7931  3.1041
 2539SOL     OW 8515   2.940   4.209   6.243 -0.0402  0.7625  0.8570
 2539SOL    HW1 8516   2.861   4.192   6.184  1.6332  2.1345 -2.0466
 2539SOL    HW2 8517   2.915   4.195   6.339 -2.3450 -4.0639 -0.1460
 2540SOL     OW 8518   4.408   0.218   0.746  0.1608 -0.1641 -0.0408
 2540SOL    HW1 8519   4.379   0.214   0.650  0.9700 -1.6563 -0.2543
 2540SOL    HW2 8520   4.482   0.284   0.756  0.6656 -0.6320 -0.6207
 2541SOL     OW 8521   4.913   1.240   4.606 -0.1537  0.0601  0.1605
 2541SOL    HW1 8522   4.847   1.283   4.545 -0.7532  1.4689  1.7145
 2541SOL    HW2 8523   4.975   1.310   4.643  1.7455 -1.1105 -0.6552
 2542SOL     OW 8524   4.843   6.734   2.152  0.2166 -0.2315  0.0141
 2542SOL    HW1 8525   4.758   6.744   2.101  0.6675  0.3578 -0.6617
 2542SOL    HW2 8526   4.898   6.662   2.110  0.5014  0.1161 -0.2202
 2543SOL     OW 8527   0.194   5.183   4.741 -0.0634 -0.1040 -0.1529
 2543SOL    HW1 8528   0.210   5.097   4.692  1.6231 -0.2232  0.5746
 2543SOL    HW2 8529   0.239   5.180   4.830 -1.7006  0.7616  0.7452
 2544SOL     OW 8530   0.598   2.539   5.960 -0.3404 -0.5537 -0.4562
 2544SOL    HW1 8531   0.690   2.560   5.929 -0.8313 -0.4467 -1.9293
 2544SOL    HW2 8532   0.602   2.486   6.044  1.1026 -1.8055 -1.2737
 2545SOL     OW 8533   5.074   5.971   6.642 -0.1009  0.1759 -0.6268
 2545SOL    HW1 8534   5.109   5.942   6.553 -0.9349  1.7132 -1.4998
 2545SOL    HW2 8535   5.127   6.050   6.674 -1.2868  1.1259 -0.9216
 2546SOL     OW 8536   3.396   5.164   1.184  0.6346 -0.0551  0.2110
 2546SOL    HW1 8537   3.374   5.208   1.097 -1.3961 -0.9357  0.2369
 2546SOL    HW2 8538   3.410   5.066   1.170 -0.0745 -0.2672  0.9286
 2547SOL     OW 8539   1.258   1.452   4.423  0.0337 -0.6646  0.3860
 2547SOL    HW1 8540   1.198   1.378   4.392 -1.5298  0.4648  0.5371
 2547SOL    HW2 8541   1.296   1.429   4.512 -0.3445 -1.3437  0.3793
 2548SOL     OW 8542   0.296   0.733   5.225 -0.3869 -0.0810 -0.1215
 2548SOL    HW1 8543   0.201   0.719   5.254 -0.8239 -1.9642 -2.2214
 2548SOL    HW2 8544   0.352   0.657   5.256  0.3202  0.6340  0.4208
 2549SOL     OW 8545   6.194   6.027   5.476  0.8851 -0.7180 -0.5072
 2549SOL    HW1 8546   6.244   6.054   5.393  1.5836  1.2610  0.5044
 2549SOL    HW2 8547   6.255   6.030   5.555 -0.2575 -0.5832  0.4002
 2550SOL     OW 8548   5.761   6.947   0.581  0.3739 -0.1579  0.0579
 2550SOL    HW1 8549   5.798   6.861   0.615  0.4180 -0.3876 -0.5660
 2550SOL    HW2 8550   5.829   6.993   0.524  0.7400  0.7990  1.2096
 2551SOL     OW 8551   4.106   4.721   2.051  0.7096  0.3081  0.1471
 2551SOL    HW1 8552   4.019   4.732   2.002 -0.1011 -1.7092  1.0296
 2551SOL    HW2 8553   4.176   4.688   1.988  0.3587  0.2254 -0.2048
 2552SOL     OW 8554   6.537   0.369   5.668 -0.2142 -0.1131  0.5659
 2552SOL    HW1 8555   6.602   0.425   5.616 -2.2987  0.1654 -1.9254
 2552SOL    HW2 8556   6.587   0.295   5.713  1.9344  0.5585 -0.5325
 2553SOL     OW 8557   5.110   1.492   2.307  0.1417 -0.7388  0.1720
 2553SOL    HW1 8558   5.157   1.511   2.221  0.8079  0.6833  0.8273
 2553SOL    HW2 8559   5.142   1.405   2.344  0.4802 -0.9433 -0.5800
 2554SOL     OW 8560   3.896   2.156   0.663 -0.2484 -0.0817 -0.0448
 2554SOL    HW1 8561   3.980   2.192   0.623 -1.1966  2.4960  0.0546
 2554SOL    HW2 8562   3.824   2.157   0.593 -1.0806  1.2989  0.7799
 2555SOL     OW 8563   6.118   4.414   1.610  0.6736 -0.4482  0.2060
 2555SOL    HW1 8564   6.202   4.465   1.590  0.3434  0.5338  1.1844
 2555SOL    HW2 8565   6.045   4.479   1.631  0.0047 -1.3198  0.6274
 2556SOL     OW 8566   3.007   2.557   1.405 -0.5181  0.2505  0.3145
 2556SOL    HW1 8567   2.992   2.563   1.504 -0.6168 -1.2370  0.4122
 2556SOL    HW2 8568   3.104   2.569   1.385 -0.4536  0.2563  0.6184
 2557SOL     OW 8569   4.960   3.807   5.142 -0.0577  0.2382 -0.6537
 2557SOL    HW1 8570   4.892   3.750   5.096  2.5890 -1.2739 -3.0580
 2557SOL    HW2 8571   4.994   3.759   5.223 -0.3224 -0.0046 -0.6843
 2558SOL     OW 8572   0.497   6.857   2.383  0.4093 -0.0996  0.6648
 2558SOL    HW1 8573   0.403   6.859   2.416  1.4634 -0.3105  4.1031
 2558SOL    HW2 8574   0.529   6.762   2.379  0.3112 -0.0911 -1.2271
 2559SOL     OW 8575   0.744   2.782   3.186 -0.3807  0.3434  0.1074
 2559SOL    HW1 8576   0.843   2.787   3.200  0.1606 -3.0598 -1.3908
 2559SOL    HW2 8577   0.703   2.726   3.258 -0.7599 -0.4282 -0.6874
 2560SOL     OW 8578   1.917   1.310   2.469  0.1805 -0.0247 -0.4524
 2560SOL    HW1 8579   1.996   1.305   2.407 -1.0951  1.3572 -2.2811
 2560SOL    HW2 8580   1.931   1.385   2.534  0.0831  0.6521 -1.2057
 2561SOL     OW 8581   5.282   0.731   5.228  0.4085 -0.1174 -0.0108
 2561SOL    HW1 8582   5.298   0.632   5.221  1.3996 -0.0329  0.8381
 2561SOL    HW2 8583   5.367   0.776   5.254  1.1719  1.4690 -4.3404
 2562SOL     OW 8584   5.742   4.472   2.200  0.4579 -0.9062 -0.1493
 2562SOL    HW1 8585   5.659   4.526   2.215  1.6801  1.0469  0.0003
 2562SOL    HW2 8586   5.813   4.502   2.264  1.8851 -1.1562 -1.5409
 2563SOL     OW 8587   6.246   1.066   3.192  0.3515  0.0108 -0.1976
 2563SOL    HW1 8588   6.235   1.111   3.281  0.2010 -0.6623  0.1289
 2563SOL    HW2 8589   6.200   1.121   3.121  0.2785  0.4336  0.1696
 2564SOL     OW 8590   5.422   2.251   3.294 -0.1633  0.1539 -0.0570
 2564SOL    HW1 8591   5.369   2.171   3.266  0.6075 -0.3775 -0.0480
 2564SOL    HW2 8592   5.366   2.311   3.351 -0.5865 -0.6659  0.4104
 2565SOL     OW 8593   3.270   1.860   4.953 -0.1456  0.5634  0.4504
 2565SOL    HW1 8594   3.227   1.856   4.863 -3.4490  1.5775  1.8120
 2565SOL    HW2 8595   3.326   1.942   4.960 -0.0612  0.6022 -0.5715
 2566SOL     OW 8596   5.301   6.066   6.925  0.2475  0.0828  0.1704
 2566SOL    HW1 8597   5.332   6.058   6.830  0.7782  0.7872  0.2676
 2566SOL    HW2 8598   5.264   5.979   6.956 -1.3955  0.2503 -1.1738
 2567SOL     OW 8599   5.996   1.192   5.523  0.1194  0.1282  0.0515
 2567SOL    HW1 8600   5.910   1.173   5.477 -1.5154  2.8718  1.7134
 2567SOL    HW2 8601   5.980   1.249   5.604  3.3026 -0.8832  1.6072
 2568SOL     OW 8602   1.825   4.611   1.202  0.8013  0.2072 -0.3988
 2568SOL    HW1 8603   1.848   4.679   1.272  1.3653 -0.7956  0.4236
 2568SOL    HW2 8604   1.847   4.648   1.112 -0.2362  1.6491 -0.1012
 2569SOL     OW 8605   5.121   6.961   0.287 -0.0163  0.1694 -0.4287
 2569SOL    HW1 8606   5.168   7.038   0.330  0.1959 -0.5145  0.5856
 2569SOL    HW2 8607   5.041   6.995   0.238  1.8247  1.4430 -2.7465
 2570SOL     OW 8608   6.276   0.537   2.352  0.5317  0.0478  0.3816
 2570SOL    HW1 8609   6.294   0.635   2.364  0.5262  0.0379  0.4690
 2570SOL    HW2 8610   6.257   0.519   2.256 -0.6171  0.3224  0.5399
 2571SOL     OW 8611   6.345   1.737   5.073 -0.5360 -0.0243  0.4468
 2571SOL    HW1 8612   6.283   1.685   5.130  1.1121 -0.9288  1.4739
 2571SOL    HW2 8613   6.404   1.794   5.130  3.2086 -3.1498  0.1101
 2572SOL     OW 8614   2.539   5.185   1.933  0.0118 -0.0138 -0.8258
 2572SOL    HW1 8615   2.598   5.105   1.920 -0.2736 -0.1299 -1.4232
 2572SOL    HW2 8616   2.530   5.204   2.031 -0.5294 -1.1880 -0.6319
 2573SOL     OW 8617   5.770   4.198   4.769 -0.3127 -0.4143  0.0852
 2573SOL    HW1 8618   5.805   4.287   4.740  1.0801 -0.2306  2.0724
 2573SOL    HW2 8619   5.840   4.151   4.823 -1.0556 -2.6996 -0.8386
 2574SOL     OW 8620   2.015   6.382   0.820 -0.4273 -0.0598  0.2872
 2574SOL    HW1 8621   2.070   6.452   0.867 -1.2020  0.4683  0.4280
 2574SOL    HW2 8622   1.951   6.341   0.886 -0.8850  0.0373 -0.0922
 2575SOL     OW 8623   3.905   4.256   6.679 -0.1482  0.2817  0.7001
 2575SOL    HW1 8624   3.997   4.293   6.670 -0.7692  1.6924 -0.3190
 2575SOL    HW2 8625   3.855   4.307   6.749  0.1008 -1.0983  1.9353
 2576SOL     OW 8626   2.912   6.377   6.129 -0.2881 -0.3728 -0.2799
 2576SOL    HW1 8627   2.833   6.377   6.189 -1.7387  0.3436 -2.1005
 2576SOL    HW2 8628   2.986   6.324   6.171 -1.0554  0.4794  2.2891
 2577SOL     OW 8629   6.144   5.029   2.038 -0.3114  0.6786  0.0651
 2577SOL    HW1 8630   6.134   5.012   2.136 -0.8145 -0.2103 -0.1278
 2577SOL    HW2 8631   6.066   4.990   1.989  1.3436 -1.5194 -0.9698
 2578SOL     OW 8632   0.502   4.068   0.569 -0.1837 -0.1296  0.3679
 2578SOL    HW1 8633   0.463   4.159   0.558 -1.4677 -0.4699  1.6386
 2578SOL    HW2 8634   0.595   4.075   0.605 -0.5662  0.6819  1.2456
 2579SOL     OW 8635   2.478   3.948   0.116  0.5463 -0.5617 -0.2185
 2579SOL    HW1 8636   2.501   4.035   0.074  0.3123 -0.8435 -0.9433
 2579SOL    HW2 8637   2.404   3.904   0.065 -0.3611 -0.5127  0.9996
 2580SOL     OW 8638   0.139   6.180   3.274 -0.2878 -0.5109 -0.0966
 2580SOL    HW1 8639   0.100   6.157   3.364  0.6963 -1.3987  0.1255
 2580SOL    HW2 8640   0.179   6.272   3.278  1.5977 -1.3102  1.0459
 2581SOL     OW 8641   6.749   3.898   6.560  0.1579 -0.1552  0.1900
 2581SOL    HW1 8642   6.774   3.802   6.575  1.1047  0.2995  1.7787
 2581SOL    HW2 8643   6.654   3.912   6.586  0.4371 -0.3800  1.4016
 2582SOL     OW 8644   1.551   6.212   6.964 -0.0947 -0.0593 -0.3608
 2582SOL    HW1 8645   1.616   6.257   6.902 -0.9017  1.6046 -0.0591
 2582SOL    HW2 8646   1.510   6.280   7.025 -1.9727 -1.0658 -0.4052
 2583SOL     OW 8647   3.389   2.087   4.732 -0.2391  0.1436 -0.1214
 2583SOL    HW1 8648   3.299   2.045   4.728  0.1242 -0.6645 -0.1160
 2583SOL    HW2 8649   3.408   2.119   4.826 -0.7061  0.7635 -0.2327
 2584SOL     OW 8650   2.573   5.927   1.619 -0.3122  0.7064 -0.3461
 2584SOL    HW1 8651   2.570   5.940   1.719 -0.4545  0.7967 -0.3613
 2584SOL    HW2 8652   2.638   5.855   1.597  0.3151  1.2266 -0.2410
 2585SOL     OW 8653   4.839   2.264   6.815 -0.5476  0.0066  0.4291
 2585SOL    HW1 8654   4.875   2.195   6.753 -0.8030 -0.3523  0.6755
 2585SOL    HW2 8655   4.914   2.300   6.871 -0.3500  0.2000  0.0467
 2586SOL     OW 8656   4.022   0.754   2.192 -0.6333 -0.3442  0.6702
 2586SOL    HW1 8657   4.119   0.775   2.177 -0.5304  0.7438  2.5413
 2586SOL    HW2 8658   3.978   0.735   2.104  0.8222  1.2144 -0.4637
 2587SOL     OW 8659   6.695   5.575   6.696  0.3578  0.0952  0.0390
 2587SOL    HW1 8660   6.626   5.623   6.641 -1.3549 -2.0281  0.1724
 2587SOL    HW2 8661   6.747   5.513   6.637  0.0180 -0.5758  0.4349
 2588SOL     OW 8662   5.679   0.305   3.094 -0.1224 -0.2335  0.2080
 2588SOL    HW1 8663   5.754   0.264   3.042  0.5329  1.2427 -0.0432
 2588SOL    HW2 8664   5.714   0.346   3.178 -0.8676 -0.7312  0.7762
 2589SOL     OW 8665   0.067   1.031   0.693  0.1133 -0.3229  0.6921
 2589SOL    HW1 8666  -0.012   1.022   0.754 -1.6652 -1.8170 -1.6576
 2589SOL    HW2 8667   0.058   1.115   0.639 -1.0903 -1.5330 -1.0874
 2590SOL     OW 8668   3.920   4.573   1.697  0.1859  0.7504 -0.1172
 2590SOL    HW1 8669   3.935   4.672   1.696 -0.9709  0.9662 -1.9244
 2590SOL    HW2 8670   3.836   4.552   1.747  0.9739  0.5389  1.1750
 2591SOL     OW 8671   1.627   2.756   0.455  0.1629  0.7117  0.0612
 2591SOL    HW1 8672   1.686   2.682   0.423  0.2465 -0.1761  2.1285
 2591SOL    HW2 8673   1.585   2.802   0.376  1.9660  0.0254 -1.3545
 2592SOL     OW 8674   6.122   2.748   6.500  0.0443  0.7917  0.1594
 2592SOL    HW1 8675   6.139   2.822   6.435  0.3892 -1.0291 -1.9050
 2592SOL    HW2 8676   6.045   2.773   6.559 -0.9915  2.0749 -1.6362
 2593SOL     OW 8677   6.884   3.616   2.483 -0.0843  0.7055  0.0948
 2593SOL    HW1 8678   6.828   3.538   2.455 -0.0909  1.6291 -2.7540
 2593SOL    HW2 8679   6.973   3.584   2.515 -0.3362 -0.5243 -0.3845
 2594SOL     OW 8680   5.382   3.562   1.910  0.3693 -0.0489  0.8960
 2594SOL    HW1 8681   5.397   3.620   1.991  2.0758  0.2440  0.4039
 2594SOL    HW2 8682   5.456   3.496   1.903  0.4163  0.1401 -0.6036
 2595SOL     OW 8683   4.852   3.371   5.591 -0.3297  0.2695 -0.2452
 2595SOL    HW1 8684   4.769   3.407   5.633 -0.9733 -1.2782 -0.1302
 2595SOL    HW2 8685   4.843   3.372   5.492 -0.9560 -0.8987 -0.2165
 2596SOL     OW 8686   3.150   0.892   1.880 -0.3644  0.2731 -0.2422
 2596SOL    HW1 8687   3.115   0.914   1.789 -0.1576  1.8709  0.0378
 2596SOL    HW2 8688   3.219   0.959   1.907  0.3705 -0.7902  0.6708
 2597SOL     OW 8689   1.820   1.256   4.946 -0.9475  0.2758  0.8456
 2597SOL    HW1 8690   1.840   1.195   5.023  0.8345 -0.0771  0.1677
 2597SOL    HW2 8691   1.746   1.217   4.891 -1.4516 -0.0470  1.7286
 2598SOL     OW 8692   5.086   5.271   1.311 -0.1182 -0.7514 -0.1506
 2598SOL    HW1 8693   5.053   5.327   1.235 -0.7171 -1.8584 -0.7304
 2598SOL    HW2 8694   5.171   5.226   1.285 -0.1889 -0.9328 -0.0691
 2599SOL     OW 8695   3.924   2.111   2.594 -0.5790 -0.7557 -0.2241
 2599SOL    HW1 8696   3.958   2.118   2.688 -0.6476  2.9747 -0.3448
 2599SOL    HW2 8697   3.824   2.099   2.596 -0.9420  1.7077  0.3341
 2600SOL     OW 8698   3.329   4.942   6.115 -0.0006  0.0436 -0.7064
 2600SOL    HW1 8699   3.249   4.988   6.078  0.9072  2.4295  0.1036
 2600SOL    HW2 8700   3.407   4.957   6.054  0.5114  0.3485  0.0118
 2601SOL     OW 8701   5.748   5.839   1.477 -0.0192 -0.3773  0.1548
 2601SOL    HW1 8702   5.693   5.804   1.553  0.5007 -2.1954 -0.2536
 2601SOL    HW2 8703   5.773   5.763   1.417  0.8689  0.7969 -0.9971
 2602SOL     OW 8704   6.335   0.662   1.293 -0.4582 -0.2072 -0.1939
 2602SOL    HW1 8705   6.321   0.759   1.311 -0.5360 -0.6018  2.1330
 2602SOL    HW2 8706   6.246   0.615   1.289 -0.3562 -0.6415  1.7796
 2603SOL     OW 8707   3.850   2.094   5.034  0.4108  0.1798 -0.1715
 2603SOL    HW1 8708   3.812   2.069   5.124  0.2552  1.3602  0.1132
 2603SOL    HW2 8709   3.929   2.154   5.047  0.5735  0.1105 -0.8227
 2604SOL     OW 8710   1.729   4.997   6.600  0.3357 -0.7633  0.0934
 2604SOL    HW1 8711   1.768   4.925   6.657 -0.1815 -0.3829  0.9592
 2604SOL    HW2 8712   1.629   4.999   6.612  0.1403 -1.0684 -1.3017
 2605SOL     OW 8713   5.525   5.330   0.252 -0.5659  0.2535 -0.6881
 2605SOL    HW1 8714   5.598   5.261   0.259 -0.0363  0.7487 -1.1828
 2605SOL    HW2 8715   5.565   5.421   0.252 -1.0375  0.4990 -2.5738
 2606SOL     OW 8716   5.379   4.413   2.923 -0.6460  0.3561  0.1978
 2606SOL    HW1 8717   5.453   4.398   2.858 -0.6225 -1.9763  0.6947
 2606SOL    HW2 8718   5.412   4.468   3.000  0.0972  0.7076 -0.3642
 2607SOL     OW 8719   2.232   4.163   4.731 -0.0268  0.3765  0.1838
 2607SOL    HW1 8720   2.306   4.203   4.678 -0.6497  0.7796 -0.4062
 2607SOL    HW2 8721   2.268   4.093   4.792  0.8378  0.6030 -0.0583
 2608SOL     OW 8722   6.912   2.326   6.916 -0.2014 -0.5094 -0.2626
 2608SOL    HW1 8723   7.006   2.327   6.949  0.1754 -2.2275 -1.2193
 2608SOL    HW2 8724   6.867   2.241   6.943 -1.0425 -0.3288 -1.0165
 2609SOL     OW 8725   4.052   6.374   6.046  0.5291 -0.0670  0.0088
 2609SOL    HW1 8726   3.994   6.296   6.021  0.6360 -1.0863  2.6461
 2609SOL    HW2 8727   4.145   6.359   6.012 -0.0839  0.3585 -2.0068
 2610SOL     OW 8728   1.612   1.951   3.280 -0.1225 -0.5099  0.2368
 2610SOL    HW1 8729   1.582   1.875   3.339 -0.5791 -1.2584 -0.9116
 2610SOL    HW2 8730   1.700   1.928   3.239  1.4214  1.0584  2.4602
 2611SOL     OW 8731   1.974   1.420   1.997 -0.1438  0.6355  0.0139
 2611SOL    HW1 8732   1.951   1.505   2.044 -1.0067  0.7151 -0.5183
 2611SOL    HW2 8733   1.961   1.431   1.899  0.7097  0.1834 -0.1625
 2612SOL     OW 8734   0.155   3.467   0.457 -0.3843  0.1556 -0.5766
 2612SOL    HW1 8735   0.141   3.562   0.429  0.4344  0.6865  0.7217
 2612SOL    HW2 8736   0.067   3.427   0.483 -0.5870  0.9013 -0.0905
 2613SOL     OW 8737   5.836   1.736   4.088  0.3605  0.4773 -0.4243
 2613SOL    HW1 8738   5.899   1.690   4.151 -1.2367  0.5823  1.3307
 2613SOL    HW2 8739   5.796   1.668   4.027 -1.2061 -0.4040  1.4699
 2614SOL     OW 8740   6.347   3.610   3.442  0.4230 -0.2122  0.3190
 2614SOL    HW1 8741   6.391   3.575   3.524  0.1585  1.7158  1.3277
 2614SOL    HW2 8742   6.267   3.664   3.467 -0.3485 -0.5535 -1.2840
 2615SOL     OW 8743   5.915   3.154   1.801  0.2209  0.0286  0.1772
 2615SOL    HW1 8744   5.934   3.066   1.844  0.4025  0.2303  0.5078
 2615SOL    HW2 8745   5.820   3.156   1.770  0.6899 -0.9513 -1.4201
 2616SOL     OW 8746   4.391   6.824   1.526  0.0475 -0.3404 -0.3427
 2616SOL    HW1 8747   4.351   6.900   1.578 -1.0711  0.2940 -2.0355
 2616SOL    HW2 8748   4.354   6.738   1.561  0.7764 -0.1012  1.1206
 2617SOL     OW 8749   2.556   4.435   6.062 -0.3015 -0.1582 -0.4429
 2617SOL    HW1 8750   2.491   4.484   6.120 -0.5946 -0.7921 -0.2204
 2617SOL    HW2 8751   2.516   4.423   5.971 -0.7310 -1.0087 -0.1545
 2618SOL     OW 8752   6.659   6.235   4.135 -0.8280 -0.2833 -0.0661
 2618SOL    HW1 8753   6.576   6.284   4.161 -0.0295  0.2640  1.5457
 2618SOL    HW2 8754   6.635   6.161   4.072 -2.7576 -1.1183  1.5308
 2619SOL     OW 8755   4.649   1.556   5.142 -0.4055  0.0726  0.4267
 2619SOL    HW1 8756   4.564   1.580   5.095 -0.2508 -0.4335 -0.1199
 2619SOL    HW2 8757   4.702   1.639   5.161 -0.6260  0.3111  0.0005
 2620SOL     OW 8758   1.181   1.363   1.552  0.0033  0.1169  0.2117
 2620SOL    HW1 8759   1.215   1.339   1.643  0.1797  0.5969  0.2796
 2620SOL    HW2 8760   1.175   1.463   1.545 -0.8366  0.0572 -0.0063
 2621SOL     OW 8761   0.401   4.854   3.921  0.1785  0.2113 -0.3530
 2621SOL    HW1 8762   0.483   4.812   3.960 -1.1833 -3.3721 -0.9570
 2621SOL    HW2 8763   0.381   4.814   3.832 -3.7124 -1.3877  0.9693
 2622SOL     OW 8764   6.142   6.602   5.221  0.0135  0.4606  0.5230
 2622SOL    HW1 8765   6.201   6.523   5.203 -2.1859 -1.3217  0.6416
 2622SOL    HW2 8766   6.118   6.604   5.318  1.0237  2.0527  0.7709
 2623SOL     OW 8767   3.103   6.583   6.024  0.4055  0.3012  0.2516
 2623SOL    HW1 8768   3.100   6.629   6.112  1.1970 -1.5796  1.3197
 2623SOL    HW2 8769   3.020   6.528   6.013  0.9562 -0.5909  0.4872
 2624SOL     OW 8770   1.557   4.830   2.299 -0.0695 -0.2768  0.6578
 2624SOL    HW1 8771   1.598   4.900   2.357 -0.6833  1.2379 -0.6615
 2624SOL    HW2 8772   1.462   4.815   2.326 -0.3756  0.4775  0.0295
 2625SOL     OW 8773   2.290   3.006   1.708  0.3506  0.1157  0.1283
 2625SOL    HW1 8774   2.199   3.040   1.733 -0.6998 -2.0964 -0.3783
 2625SOL    HW2 8775   2.345   3.081   1.671 -0.6893  1.8361  1.8911
 2626SOL     OW 8776   5.860   5.738   5.181  0.0006 -0.3843  0.1301
 2626SOL    HW1 8777   5.842   5.829   5.220 -0.2011 -0.1854 -0.4174
 2626SOL    HW2 8778   5.867   5.671   5.255 -0.3192 -0.0017  0.5141
 2627SOL     OW 8779   5.886   4.406   4.376  0.2727 -0.0303  0.2893
 2627SOL    HW1 8780   5.847   4.314   4.384 -0.8660  0.5545  2.4113
 2627SOL    HW2 8781   5.841   4.454   4.301 -1.0125 -0.3931  0.7837
 2628SOL     OW 8782   3.099   5.007   1.134 -0.2127  0.0028 -0.3496
 2628SOL    HW1 8783   3.180   5.049   1.175 -1.1444  1.8818 -0.3620
 2628SOL    HW2 8784   3.017   5.048   1.172 -1.1416 -0.2660 -2.0003
 2629SOL     OW 8785   0.477   3.444   1.698 -0.1429  0.2962 -0.3148
 2629SOL    HW1 8786   0.490   3.474   1.604  0.1587 -0.3514 -0.4831
 2629SOL    HW2 8787   0.469   3.524   1.758 -2.8741  0.7778 -1.1839
 2630SOL     OW 8788   5.142   5.288   3.542  0.2381  0.0932 -0.3638
 2630SOL    HW1 8789   5.170   5.257   3.452 -0.4790 -0.6618 -0.3385
 2630SOL    HW2 8790   5.049   5.255   3.562  0.6698 -0.4002  0.9517
 2631SOL     OW 8791   5.574   3.188   1.167  0.0142 -0.6751 -0.2097
 2631SOL    HW1 8792   5.660   3.215   1.212 -0.4881 -1.5712  1.3444
 2631SOL    HW2 8793   5.497   3.206   1.228 -1.0679  1.0993 -1.9848
 2632SOL     OW 8794   2.474   2.949   6.953 -0.1130  0.1906 -0.2208
 2632SOL    HW1 8795   2.526   3.035   6.956  0.5447 -0.2183  0.3708
 2632SOL    HW2 8796   2.478   2.911   6.861  0.9103  0.0005 -0.1038
 2633SOL     OW 8797   1.787   5.671   6.118  0.6440  0.4575 -0.2216
 2633SOL    HW1 8798   1.776   5.645   6.022  1.2518 -1.2287  0.1237
 2633SOL    HW2 8799   1.700   5.663   6.166  0.6539 -0.1836 -0.3092
 2634SOL     OW 8800   3.681   2.863   5.041  0.1407 -0.1382  0.0504
 2634SOL    HW1 8801   3.721   2.771   5.043 -0.2302 -0.3077  1.5970
 2634SOL    HW2 8802   3.750   2.930   5.065 -0.1975 -0.3321  1.7298
 2635SOL     OW 8803   5.313   4.597   2.712 -0.8853  0.1802 -0.6118
 2635SOL    HW1 8804   5.248   4.528   2.681 -1.1595  0.0551  0.2066
 2635SOL    HW2 8805   5.395   4.595   2.654 -1.7168  0.5370 -1.8386
 2636SOL     OW 8806   3.273   4.079   5.261  0.1568 -0.0336 -0.8231
 2636SOL    HW1 8807   3.209   4.103   5.188 -0.6009  0.3519 -0.0461
 2636SOL    HW2 8808   3.286   4.158   5.321 -0.3448 -0.7732  0.2850
 2637SOL     OW 8809   2.448   1.461   4.680 -0.0126  0.3013  0.2981
 2637SOL    HW1 8810   2.507   1.380   4.684  0.2394  0.4673 -0.0827
 2637SOL    HW2 8811   2.431   1.493   4.773 -1.3622 -1.0842  0.5739
 2638SOL     OW 8812   2.136   2.049   2.601 -0.3154  0.1439  0.2881
 2638SOL    HW1 8813   2.196   2.099   2.663  0.6762  0.6557 -1.0433
 2638SOL    HW2 8814   2.049   2.029   2.647  1.2396 -1.6730  2.7131
 2639SOL     OW 8815   2.497   0.707   4.109 -0.3433 -0.1889 -0.0818
 2639SOL    HW1 8816   2.516   0.680   4.203 -0.4903  0.1485  0.0464
 2639SOL    HW2 8817   2.576   0.755   4.072 -0.0547 -0.8511 -0.3332
 2640SOL     OW 8818   4.141   6.388   3.780 -0.1292 -0.0552 -0.4029
 2640SOL    HW1 8819   4.155   6.468   3.837 -1.2963  0.1640 -0.3908
 2640SOL    HW2 8820   4.055   6.397   3.730 -0.4549 -1.4360 -0.1509
 2641SOL     OW 8821   5.378   5.946   6.150 -0.8125 -0.5213 -0.0192
 2641SOL    HW1 8822   5.399   5.926   6.246 -0.4985 -0.0686  0.0103
 2641SOL    HW2 8823   5.370   6.045   6.137  1.2048 -0.4174 -0.8549
 2642SOL     OW 8824   3.900   0.678   5.982  1.0284  0.1055  0.1560
 2642SOL    HW1 8825   3.845   0.761   5.984  2.2061  0.9363 -0.4927
 2642SOL    HW2 8826   3.891   0.629   6.068 -3.4598 -1.6807 -1.0371
 2643SOL     OW 8827   3.162   2.264   6.202 -0.3502  0.0233 -0.0937
 2643SOL    HW1 8828   3.251   2.285   6.162  0.6659 -1.0252  1.5308
 2643SOL    HW2 8829   3.171   2.255   6.301 -2.4864  0.9480  0.2349
 2644SOL     OW 8830   1.337   4.425   1.968 -0.1925  0.0484 -0.1009
 2644SOL    HW1 8831   1.341   4.466   2.060 -0.7116 -0.2628  0.0630
 2644SOL    HW2 8832   1.245   4.391   1.951 -0.0928  0.0915 -0.7393
 2645SOL     OW 8833   3.940   4.059   0.225  0.5134 -0.5521 -0.2881
 2645SOL    HW1 8834   4.005   4.042   0.300  0.9177 -3.2443 -1.1339
 2645SOL    HW2 8835   3.944   3.983   0.161 -4.0158 -1.2175 -0.0607
 2646SOL     OW 8836   5.839   5.230   1.835 -0.2243 -0.1129  0.2909
 2646SOL    HW1 8837   5.778   5.276   1.770 -0.7319 -1.4238 -0.1866
 2646SOL    HW2 8838   5.927   5.278   1.837 -1.5489  2.5103  1.8208
 2647SOL     OW 8839   0.362   2.078   3.753  0.0343 -0.0697  0.7007
 2647SOL    HW1 8840   0.410   2.165   3.757 -0.0983  0.0308  0.2335
 2647SOL    HW2 8841   0.428   2.003   3.757  0.5445  0.0604 -2.4899
 2648SOL     OW 8842   3.429   0.993   1.451  0.4111 -0.1991 -0.0086
 2648SOL    HW1 8843   3.338   1.035   1.455 -0.2316 -1.6277  2.1685
 2648SOL    HW2 8844   3.421   0.897   1.426  1.3216 -0.3551  0.2544
 2649SOL     OW 8845   1.322   1.734   1.334 -0.6888  0.5285 -0.4572
 2649SOL    HW1 8846   1.292   1.651   1.287  2.5419 -0.5523 -0.8506
 2649SOL    HW2 8847   1.322   1.811   1.269  0.5617 -0.2101 -1.3821
 2650SOL     OW 8848   1.247   4.197   1.768 -0.8928  0.2783  0.1359
 2650SOL    HW1 8849   1.281   4.204   1.861 -2.4094 -2.7181  1.0378
 2650SOL    HW2 8850   1.308   4.140   1.714 -0.6695  0.9873 -0.3757
 2651SOL     OW 8851   1.652   5.860   1.902 -0.5800  0.1104  0.2694
 2651SOL    HW1 8852   1.700   5.794   1.960 -0.1484  0.3648  0.2121
 2651SOL    HW2 8853   1.610   5.930   1.959  3.8939  3.1884  0.2876
 2652SOL     OW 8854   4.429   5.239   0.407 -0.0841  0.2498  0.2890
 2652SOL    HW1 8855   4.390   5.157   0.364  0.1207 -0.8194  2.0263
 2652SOL    HW2 8856   4.356   5.292   0.451 -0.0745  0.3590  0.1727
 2653SOL     OW 8857   5.616   6.648   1.435 -0.2623  0.0581 -0.4510
 2653SOL    HW1 8858   5.585   6.667   1.528 -2.0094 -1.6890 -0.6282
 2653SOL    HW2 8859   5.566   6.708   1.371 -0.6882 -0.2795 -0.4383
 2654SOL     OW 8860   4.658   5.557   6.170  0.1228 -0.0379 -0.0717
 2654SOL    HW1 8861   4.655   5.500   6.252  2.3731  0.0712  0.1345
 2654SOL    HW2 8862   4.581   5.534   6.111 -0.9743 -0.8336  1.5836
 2655SOL     OW 8863   0.003   2.515   1.167  0.1126  0.1766 -0.1662
 2655SOL    HW1 8864   0.102   2.528   1.170  0.1181  0.0614  0.2224
 2655SOL    HW2 8865  -0.024   2.446   1.234 -0.4647  1.8144  1.3766
 2656SOL     OW 8866   6.944   2.165   0.720 -0.2836  0.8117  0.1558
 2656SOL    HW1 8867   6.996   2.116   0.650 -1.0081 -1.0702  0.8715
 2656SOL    HW2 8868   6.993   2.248   0.745  1.4027  0.1008 -0.5903
 2657SOL     OW 8869   2.230   5.201   0.222  0.5512 -0.2678  0.2014
 2657SOL    HW1 8870   2.153   5.154   0.264 -1.2765  0.9953 -1.5606
 2657SOL    HW2 8871   2.201   5.291   0.190  2.3968 -0.2850 -1.7278
 2658SOL     OW 8872   0.688   6.855   6.152 -0.1347  0.7623 -0.2275
 2658SOL    HW1 8873   0.748   6.933   6.133  1.2025  0.2819  1.6872
 2658SOL    HW2 8874   0.625   6.879   6.226  0.4554 -0.0244  0.5477
 2659SOL     OW 8875   4.588   2.619   4.129  0.0095  0.1269 -0.1044
 2659SOL    HW1 8876   4.649   2.650   4.056  0.8756 -0.1365  0.4892
 2659SOL    HW2 8877   4.513   2.566   4.089  0.3591  0.1528 -0.8227
 2660SOL     OW 8878   4.133   3.528   6.614  0.1780 -0.6087 -0.7174
 2660SOL    HW1 8879   4.126   3.570   6.523  0.1335 -2.7419 -1.7720
 2660SOL    HW2 8880   4.209   3.463   6.614 -0.3011 -1.1918  0.5546
 2661SOL     OW 8881   6.348   1.254   4.504 -0.1572  0.1548  0.1302
 2661SOL    HW1 8882   6.249   1.269   4.498 -1.0074 -4.2297 -0.1077
 2661SOL    HW2 8883   6.368   1.200   4.586  1.8899 -0.1511 -0.5269
 2662SOL     OW 8884   3.796   3.211   5.988  0.3761 -0.0930  0.0431
 2662SOL    HW1 8885   3.854   3.176   6.061  0.0582  0.7022  0.6801
 2662SOL    HW2 8886   3.811   3.309   5.976 -0.4607  0.0231 -0.1340
 2663SOL     OW 8887   1.374   0.538   4.827 -0.0756  0.6056 -0.3726
 2663SOL    HW1 8888   1.388   0.473   4.753  0.3131 -0.1051  0.3095
 2663SOL    HW2 8889   1.455   0.542   4.885  0.2344  2.3308 -0.8701
 2664SOL     OW 8890   1.869   3.957   0.327  0.1892 -0.0162  0.6372
 2664SOL    HW1 8891   1.952   3.994   0.367 -0.9074  1.2420  1.8419
 2664SOL    HW2 8892   1.852   4.001   0.238  0.1583  0.6592  0.9696
 2665SOL     OW 8893   5.068   5.555   1.788 -0.8691 -0.1240 -0.4777
 2665SOL    HW1 8894   5.156   5.603   1.787 -1.0522  0.2131 -1.2845
 2665SOL    HW2 8895   5.015   5.582   1.707 -1.3589 -0.9894 -0.4501
 2666SOL     OW 8896   4.724   5.931   0.218 -0.1212  0.5122  0.2043
 2666SOL    HW1 8897   4.810   5.978   0.236 -0.3505  0.9653  0.1401
 2666SOL    HW2 8898   4.708   5.929   0.119 -0.5045  1.0218  0.2512
 2667SOL     OW 8899   2.850   3.552   2.128  0.3118 -0.2933  0.1935
 2667SOL    HW1 8900   2.848   3.452   2.136 -1.2733 -0.1699  2.4598
 2667SOL    HW2 8901   2.758   3.588   2.139  1.1782  1.5333  2.2119
 2668SOL     OW 8902   1.677   1.834   2.936  0.2328  0.0367  0.5860
 2668SOL    HW1 8903   1.732   1.837   3.019  0.5767  0.7919  0.3394
 2668SOL    HW2 8904   1.677   1.924   2.892  0.2147 -0.4013 -0.3353
 2669SOL     OW 8905   6.940   4.483   4.824 -0.6409 -0.2434 -0.2526
 2669SOL    HW1 8906   6.899   4.547   4.759  2.0313  0.4722 -1.3741
 2669SOL    HW2 8907   7.030   4.454   4.791 -0.2948 -1.9229  1.9014
 2670SOL     OW 8908   0.712   1.450   2.161 -0.1919  0.3677  0.0990
 2670SOL    HW1 8909   0.784   1.412   2.220  0.8570  0.1383 -1.2842
 2670SOL    HW2 8910   0.652   1.508   2.216  0.6594  0.0587  1.4226
 2671SOL     OW 8911   6.508   4.091   1.481 -0.5263 -0.5372 -0.3365
 2671SOL    HW1 8912   6.472   4.153   1.551 -1.2309 -0.6186 -0.6247
 2671SOL    HW2 8913   6.434   4.038   1.441 -0.0362 -0.9795 -0.6742
 2672SOL     OW 8914   1.600   3.094   5.152 -0.3956 -0.2824 -0.2938
 2672SOL    HW1 8915   1.556   3.183   5.156 -1.1790 -0.5899 -1.4714
 2672SOL    HW2 8916   1.531   3.022   5.148  0.1490 -0.7730 -2.2430
 2673SOL     OW 8917   1.481   5.086   6.648  0.7821 -0.1268 -0.2030
 2673SOL    HW1 8918   1.445   5.161   6.594  0.0820  0.3654  0.9165
 2673SOL    HW2 8919   1.421   5.006   6.639 -0.3387  0.5155  1.2142
 2674SOL     OW 8920   5.970   0.852   1.800 -0.6400  0.4206 -0.3928
 2674SOL    HW1 8921   5.878   0.890   1.798 -0.9282 -0.1636  1.0251
 2674SOL    HW2 8922   5.969   0.759   1.765 -0.8874 -0.1428  1.0541
 2675SOL     OW 8923   1.977   5.923   3.826 -0.0661 -0.1153  0.6805
 2675SOL    HW1 8924   1.990   5.845   3.888 -1.6596 -1.1208 -0.1850
 2675SOL    HW2 8925   1.910   5.986   3.867 -0.9564 -0.6729  0.1209
 2676SOL     OW 8926   0.939   2.052   2.421  0.0943  0.2692 -0.0308
 2676SOL    HW1 8927   1.007   2.111   2.466  0.1904 -0.7318  1.2008
 2676SOL    HW2 8928   0.847   2.087   2.440  0.1332 -0.1526  0.9970
 2677SOL     OW 8929   4.712   7.018   5.980  0.2725 -0.0113 -0.3875
 2677SOL    HW1 8930   4.689   7.088   5.913 -0.5965 -0.2149 -0.3175
 2677SOL    HW2 8931   4.792   7.047   6.033 -0.1028  0.9454 -0.3295
 2678SOL     OW 8932   4.745   3.161   5.836  0.2628  0.1983 -0.5594
 2678SOL    HW1 8933   4.737   3.061   5.841 -0.5847  0.3066  1.9051
 2678SOL    HW2 8934   4.841   3.186   5.823  1.7674 -1.0723  5.0617
 2679SOL     OW 8935   0.922   3.378   1.632 -0.0410 -0.6269 -0.2654
 2679SOL    HW1 8936   0.878   3.442   1.695 -0.0161 -1.7474  0.9452
 2679SOL    HW2 8937   0.859   3.354   1.559 -0.6887 -0.6011  0.2778
 2680SOL     OW 8938   2.794   4.734   3.501 -0.3775 -0.3181 -0.2481
 2680SOL    HW1 8939   2.776   4.730   3.600  1.5344 -1.6825  0.0938
 2680SOL    HW2 8940   2.892   4.741   3.485 -0.7457  1.8277 -2.0694
 2681SOL     OW 8941   1.738   4.180   2.958 -0.5263  0.1461  0.5854
 2681SOL    HW1 8942   1.720   4.277   2.942  0.2937  0.1440 -0.4595
 2681SOL    HW2 8943   1.807   4.170   3.029 -1.0240  0.3078  1.0945
 2682SOL     OW 8944   0.332   6.865   5.180 -0.0693 -0.3062 -0.3723
 2682SOL    HW1 8945   0.343   6.777   5.226 -1.2362  0.1437  0.8566
 2682SOL    HW2 8946   0.418   6.916   5.186 -0.1412 -0.3101  1.2718
 2683SOL     OW 8947   5.841   0.372   1.853  0.1249 -0.1094 -0.6410
 2683SOL    HW1 8948   5.904   0.352   1.778  0.3165 -0.6651 -0.3384
 2683SOL    HW2 8949   5.841   0.296   1.918 -0.4723  0.1131 -0.3725
 2684SOL     OW 8950   6.391   5.911   1.384  0.3414  0.0757  0.6857
 2684SOL    HW1 8951   6.437   5.825   1.405  0.3731  0.2396  1.3093
 2684SOL    HW2 8952   6.293   5.895   1.374  0.2719  0.0538  1.3579
 2685SOL     OW 8953   2.213   2.393   5.114 -0.2783  0.0550 -0.5199
 2685SOL    HW1 8954   2.298   2.354   5.149 -0.0640  2.5477  2.1562
 2685SOL    HW2 8955   2.217   2.396   5.014  2.9678  0.3945 -0.5012
 2686SOL     OW 8956   5.069   3.561   5.656 -0.0711  0.1135  0.9257
 2686SOL    HW1 8957   5.044   3.658   5.663 -1.2006 -0.0325 -0.6079
 2686SOL    HW2 8958   4.997   3.512   5.608  1.6670 -1.0065 -0.6339
 2687SOL     OW 8959   4.437   1.428   5.940  0.2719 -0.1529  0.1480
 2687SOL    HW1 8960   4.504   1.400   5.871  2.1968 -0.4717  2.0395
 2687SOL    HW2 8961   4.455   1.380   6.026 -2.5451 -0.3706  0.7261
 2688SOL     OW 8962   0.579   6.623   5.706 -0.1397 -0.2854  0.0340
 2688SOL    HW1 8963   0.631   6.663   5.782 -0.3130 -0.0955  0.0544
 2688SOL    HW2 8964   0.565   6.693   5.635  0.5714 -0.6395 -0.4601
 2689SOL     OW 8965   4.543   4.821   6.309  0.0424 -0.2588 -0.1136
 2689SOL    HW1 8966   4.443   4.823   6.305 -0.0640  1.3185  1.7780
 2689SOL    HW2 8967   4.572   4.780   6.396  0.9744  0.6648  0.0388
 2690SOL     OW 8968   0.698   2.956   4.291 -0.3651 -0.1743  0.3778
 2690SOL    HW1 8969   0.796   2.972   4.277 -0.6888  0.6845 -1.0429
 2690SOL    HW2 8970   0.663   3.022   4.357 -0.5801  1.6000 -1.4166
 2691SOL     OW 8971   3.140   1.561   5.988  0.5411 -0.6462  0.0435
 2691SOL    HW1 8972   3.128   1.582   6.085 -1.0061 -2.7262  0.3705
 2691SOL    HW2 8973   3.110   1.639   5.933 -3.2047 -1.1075  1.1913
 2692SOL     OW 8974   2.925   2.751   0.738  0.5728 -0.0425  0.0125
 2692SOL    HW1 8975   2.856   2.790   0.799  1.7450  3.6776 -0.8205
 2692SOL    HW2 8976   3.002   2.716   0.791  0.2439  0.3418  0.7492
 2693SOL     OW 8977   5.042   6.197   3.142 -0.0837 -0.1076 -0.3618
 2693SOL    HW1 8978   5.124   6.175   3.089 -1.3621 -4.2055 -0.9132
 2693SOL    HW2 8979   4.970   6.228   3.080 -0.5711 -1.7757 -0.6724
 2694SOL     OW 8980   5.035   6.349   2.564  0.0919  0.1403 -0.1932
 2694SOL    HW1 8981   5.132   6.326   2.578  0.4382  0.6507 -1.6261
 2694SOL    HW2 8982   5.021   6.381   2.470 -1.3777  0.5813  0.1468
 2695SOL     OW 8983   0.647   6.697   6.980  0.0047 -0.8429 -0.0409
 2695SOL    HW1 8984   0.665   6.704   6.882 -1.0403 -0.6149 -0.2346
 2695SOL    HW2 8985   0.549   6.684   6.995  0.0781 -0.3606  0.9993
 2696SOL     OW 8986   6.195   0.143   1.557 -0.2051  0.0934 -0.4544
 2696SOL    HW1 8987   6.260   0.167   1.629  0.5074 -1.3308 -0.5834
 2696SOL    HW2 8988   6.245   0.107   1.477 -0.9962  1.3266 -1.5519
 2697SOL     OW 8989   4.226   5.481   0.226  0.0186  0.3486 -0.1788
 2697SOL    HW1 8990   4.147   5.420   0.233 -0.3374  0.9605  1.5762
 2697SOL    HW2 8991   4.196   5.573   0.200  0.1047  0.6077  0.5908
 2698SOL     OW 8992   6.269   3.417   5.678  0.3643  0.2350  0.8793
 2698SOL    HW1 8993   6.231   3.409   5.770 -0.2251  1.0280  0.7162
 2698SOL    HW2 8994   6.195   3.420   5.611  0.7168  1.2664  0.5119
 2699SOL     OW 8995   1.449   4.650   4.159  0.3349 -0.4712  0.3641
 2699SOL    HW1 8996   1.449   4.737   4.209 -1.1257  0.3753 -1.0125
 2699SOL    HW2 8997   1.515   4.587   4.201  0.5035  0.8359  2.1741
 2700SOL     OW 8998   1.683   2.897   0.705 -0.4126 -0.0536  0.4625
 2700SOL    HW1 8999   1.708   2.867   0.613  0.5292  0.8299  0.4024
 2700SOL    HW2 9000   1.730   2.840   0.773 -1.6945 -1.1853  0.4220
 2701SOL     OW 9001   2.275   5.725   4.985 -0.2787  0.2045 -0.0710
 2701SOL    HW1 9002   2.301   5.779   5.065  0.8535 -0.8360  0.2939
 2701SOL    HW2 9003   2.303   5.630   4.998  0.5020  0.1278 -1.9451
 2702SOL     OW 9004   6.194   1.870   2.725 -0.1492  0.6762  0.3445
 2702SOL    HW1 9005   6.239   1.930   2.792  1.5075 -0.5496  0.3897
 2702SOL    HW2 9006   6.192   1.777   2.760 -2.2697  0.5645  0.0645
 2703SOL     OW 9007   3.247   3.364   6.352  0.4495  0.6022  0.0658
 2703SOL    HW1 9008   3.166   3.311   6.327 -2.2704  3.4068  2.0037
 2703SOL    HW2 9009   3.294   3.320   6.428 -0.3594 -0.1753  0.1281
 2704SOL     OW 9010   0.784   4.002   0.403 -0.1183  0.4079 -0.4925
 2704SOL    HW1 9011   0.835   3.967   0.324  0.0007 -0.6987  0.0576
 2704SOL    HW2 9012   0.728   4.080   0.375  1.7827  1.6075 -1.1405
 2705SOL     OW 9013   0.968   0.124   0.054 -0.4185  0.2234 -0.1254
 2705SOL    HW1 9014   0.898   0.194   0.044  0.2774  1.0496  0.5996
 2705SOL    HW2 9015   1.059   0.167   0.049  0.0449 -0.7718 -0.7101
 2706SOL     OW 9016   5.743   1.368   2.988 -0.4240  0.6675  0.2138
 2706SOL    HW1 9017   5.718   1.464   2.978 -0.3421  0.5986 -0.7966
 2706SOL    HW2 9018   5.803   1.357   3.067  1.4261  1.8264 -0.9620
 2707SOL     OW 9019   0.401   4.262   6.947 -0.0206  0.0291 -0.1724
 2707SOL    HW1 9020   0.344   4.195   6.898  0.5180  0.9483 -2.1626
 2707SOL    HW2 9021   0.492   4.264   6.907  0.8003  0.0748  1.6230
 2708SOL     OW 9022   6.161   5.514   4.344  0.5947  0.6513  0.7364
 2708SOL    HW1 9023   6.178   5.581   4.272  0.6679 -0.0147  0.1183
 2708SOL    HW2 9024   6.082   5.458   4.319  0.5195  0.5211  1.2539
 2709SOL     OW 9025   0.147   1.186   6.198 -0.3827 -0.0483  0.0879
 2709SOL    HW1 9026   0.169   1.089   6.188 -2.4848 -0.5896  0.3671
 2709SOL    HW2 9027   0.154   1.212   6.295  1.8882  0.5821 -0.1713
 2710SOL     OW 9028   3.892   6.861   1.487 -0.0203  0.0063 -0.6503
 2710SOL    HW1 9029   3.896   6.943   1.543 -0.6139 -0.2913 -0.1522
 2710SOL    HW2 9030   3.914   6.781   1.544 -2.2232 -0.4889 -0.3939
 2711SOL     OW 9031   1.392   2.254   0.172  0.1009  0.6276 -0.4242
 2711SOL    HW1 9032   1.410   2.164   0.212 -0.0433  0.0966 -1.5077
 2711SOL    HW2 9033   1.304   2.288   0.204  0.7383  0.9929  1.0149
 2712SOL     OW 9034   6.918   5.949   1.360 -0.0753  0.1343 -0.2528
 2712SOL    HW1 9035   6.852   6.023   1.372 -0.7107 -0.0884 -2.1044
 2712SOL    HW2 9036   6.921   5.922   1.264  0.6636 -1.7748  0.2661
 2713SOL     OW 9037   2.169   3.025   3.259  0.0565 -0.0322 -0.1170
 2713SOL    HW1 9038   2.076   3.057   3.275  0.0909  0.7405 -1.3076
 2713SOL    HW2 9039   2.200   2.971   3.337 -0.9136  0.7945  0.8743
 2714SOL     OW 9040   4.829   1.230   5.545  0.2632 -0.2226 -0.4070
 2714SOL    HW1 9041   4.838   1.141   5.589  0.9596 -0.5601 -1.2051
 2714SOL    HW2 9042   4.867   1.226   5.453  1.9672  1.3423  0.1513
 2715SOL     OW 9043   1.344   3.199   2.370 -0.1820 -0.4005 -0.0145
 2715SOL    HW1 9044   1.321   3.175   2.464 -0.7294 -1.8810 -0.4953
 2715SOL    HW2 9045   1.384   3.120   2.324  1.9517  0.8769 -0.4677
 2716SOL     OW 9046   6.489   1.848   1.332 -0.8359 -0.8572 -0.2398
 2716SOL    HW1 9047   6.443   1.759   1.326 -3.0616 -0.0479  2.3357
 2716SOL    HW2 9048   6.430   1.912   1.381  1.7615  1.3218  0.2810
 2717SOL     OW 9049   1.776   1.146   3.523  0.2630 -0.3159  0.1694
 2717SOL    HW1 9050   1.707   1.096   3.470  1.0124 -2.5639  1.2259
 2717SOL    HW2 9051   1.854   1.168   3.464  0.3929 -1.3683 -0.0604
 2718SOL     OW 9052   2.783   1.173   3.965  0.1277  0.0941 -0.4861
 2718SOL    HW1 9053   2.882   1.163   3.971 -0.0274 -2.1197 -0.8586
 2718SOL    HW2 9054   2.760   1.233   3.888  1.1621  0.2158 -0.7029
 2719SOL     OW 9055   0.446   2.173   3.125  0.3322 -0.3588  0.0091
 2719SOL    HW1 9056   0.373   2.240   3.111 -0.0378 -0.7894 -0.1424
 2719SOL    HW2 9057   0.506   2.172   3.046  0.8854  0.4574  0.4047
 2720SOL     OW 9058   4.626   0.515   5.624 -0.1591  0.2365 -0.3649
 2720SOL    HW1 9059   4.659   0.609   5.630 -1.3692  0.6709 -0.3632
 2720SOL    HW2 9060   4.546   0.511   5.565 -1.2321 -0.4782  1.0894
 2721SOL     OW 9061   3.179   6.121   2.779  0.1508  0.3940  0.1826
 2721SOL    HW1 9062   3.094   6.127   2.726  0.8495 -0.9170 -1.1518
 2721SOL    HW2 9063   3.181   6.036   2.831  1.2114 -0.2727 -0.8878
 2722SOL     OW 9064   2.302   5.687   0.826 -0.1243  0.3848 -0.0814
 2722SOL    HW1 9065   2.334   5.770   0.781  0.9696 -1.4436 -2.9789
 2722SOL    HW2 9066   2.311   5.696   0.925  1.0151  3.2378 -0.3729
 2723SOL     OW 9067   4.910   4.172   2.958 -0.2329  0.2458  0.0732
 2723SOL    HW1 9068   4.887   4.144   3.051  0.9641 -2.2293 -0.2989
 2723SOL    HW2 9069   4.984   4.239   2.961 -0.5314  0.5536  0.9017
 2724SOL     OW 9070   0.311   5.884   5.945 -0.2541  0.1947  0.1390
 2724SOL    HW1 9071   0.228   5.840   5.911 -1.1163  1.0803  1.0158
 2724SOL    HW2 9072   0.315   5.875   6.044 -0.5502  2.1615  0.3752
 2725SOL     OW 9073   6.838   4.903   3.038 -0.0511 -0.0543 -0.4143
 2725SOL    HW1 9074   6.895   4.931   2.961 -0.9365  0.1399 -1.0126
 2725SOL    HW2 9075   6.760   4.849   3.005 -0.9936  0.8640  0.2144
 2726SOL     OW 9076   4.964   4.591   2.106  0.2577 -0.3636 -0.5154
 2726SOL    HW1 9077   4.979   4.493   2.094  1.0748 -0.3149  0.0456
 2726SOL    HW2 9078   4.976   4.615   2.203 -0.5885  0.1865 -0.5325
 2727SOL     OW 9079   1.918   4.021   5.446 -0.2017 -0.2108 -0.3186
 2727SOL    HW1 9080   1.903   3.922   5.444  0.2989 -0.3252  0.8895
 2727SOL    HW2 9081   2.007   4.042   5.406  0.4299 -0.4254  0.9309
 2728SOL     OW 9082   1.283   6.278   2.328 -0.3206  0.4516  0.3020
 2728SOL    HW1 9083   1.359   6.216   2.346 -0.7334 -0.6030 -1.3379
 2728SOL    HW2 9084   1.197   6.227   2.327 -0.8486  1.3046  0.3296
 2729SOL     OW 9085   2.756   1.032   6.556  0.5972  0.0870 -0.0532
 2729SOL    HW1 9086   2.845   1.015   6.512  0.3176 -1.6669 -0.0009
 2729SOL    HW2 9087   2.771   1.054   6.652  1.0028  0.4370 -0.1905
 2730SOL     OW 9088   6.139   3.860   2.314  0.2672  0.0320  0.8637
 2730SOL    HW1 9089   6.211   3.925   2.290  0.6889 -0.6755  0.1150
 2730SOL    HW2 9090   6.052   3.889   2.273 -0.3354  1.8447  3.2378
 2731SOL     OW 9091   6.770   6.178   2.000  0.1251 -0.1552  0.0450
 2731SOL    HW1 9092   6.700   6.111   2.024  2.8670 -2.5162  2.3389
 2731SOL    HW2 9093   6.825   6.143   1.923  0.3995  0.4107 -0.0270
 2732SOL     OW 9094   4.977   6.665   5.408  0.7379 -0.2585 -0.1929
 2732SOL    HW1 9095   5.060   6.699   5.364  0.0279  0.2103 -1.2097
 2732SOL    HW2 9096   4.914   6.630   5.338 -1.2806  2.3711  0.1424
 2733SOL     OW 9097   1.742   5.057   5.447  0.1700 -0.7239 -0.2710
 2733SOL    HW1 9098   1.786   5.059   5.537 -2.7131  1.1906  1.2524
 2733SOL    HW2 9099   1.677   4.981   5.443 -0.2856 -0.3271 -0.4373
 2734SOL     OW 9100   4.683   1.145   4.001  0.1208  0.8132  0.2085
 2734SOL    HW1 9101   4.683   1.046   3.993 -0.7341  0.8992 -1.2800
 2734SOL    HW2 9102   4.608   1.175   4.060  1.0897  0.5593  1.6357
 2735SOL     OW 9103   4.762   6.933   5.211 -0.1306  0.0594 -0.3780
 2735SOL    HW1 9104   4.704   6.863   5.254  2.1803 -0.8933  1.3763
 2735SOL    HW2 9105   4.784   6.905   5.118  1.1925 -1.9076  0.4680
 2736SOL     OW 9106   4.365   5.734   0.472  0.2401  0.0212  0.0452
 2736SOL    HW1 9107   4.410   5.730   0.561  0.8519  0.8533 -0.2154
 2736SOL    HW2 9108   4.279   5.683   0.476 -0.3169  1.0091  1.4426
 2737SOL     OW 9109   2.853   2.089   0.701 -0.0070 -0.0722 -0.5351
 2737SOL    HW1 9110   2.872   2.145   0.781  2.2579  0.2183 -1.2148
 2737SOL    HW2 9111   2.844   1.993   0.729 -1.2707  0.2523  0.2780
 2738SOL     OW 9112   5.006   1.145   1.054  0.2736  0.0307  0.6994
 2738SOL    HW1 9113   5.021   1.143   1.153  3.5318  0.2676  0.3129
 2738SOL    HW2 9114   5.067   1.211   1.011  2.5968 -3.4008 -1.8940
 2739SOL     OW 9115   3.150   1.611   3.765 -0.3455 -0.3591 -0.3871
 2739SOL    HW1 9116   3.172   1.706   3.785 -0.0601 -0.4862 -0.0908
 2739SOL    HW2 9117   3.199   1.551   3.829 -0.1510 -0.7272 -0.8754
 2740SOL     OW 9118   5.553   6.666   4.124  0.2743  0.6490 -0.0281
 2740SOL    HW1 9119   5.609   6.716   4.058  1.4147 -0.1848  0.2696
 2740SOL    HW2 9120   5.472   6.629   4.077  0.3820  1.1909 -0.6578
 2741SOL     OW 9121   5.051   4.679   5.140 -0.1645  0.3128  0.6318
 2741SOL    HW1 9122   4.965   4.629   5.149  0.4382 -0.4643  2.9281
 2741SOL    HW2 9123   5.043   4.768   5.185 -0.1088  0.7446 -0.1931
 2742SOL     OW 9124   5.299   1.113   2.206 -0.3833  0.5109  1.1386
 2742SOL    HW1 9125   5.335   1.032   2.252 -1.1128  0.2503  1.2643
 2742SOL    HW2 9126   5.327   1.112   2.110 -2.1575 -1.0327  0.5821
 2743SOL     OW 9127   5.999   4.510   4.610 -0.3212  0.2418 -0.4500
 2743SOL    HW1 9128   6.092   4.539   4.585  0.3734 -1.0098  0.5265
 2743SOL    HW2 9129   5.952   4.477   4.528 -0.2930  1.8330 -1.1406
 2744SOL     OW 9130   2.474   4.784   1.357  0.5443  0.2032  0.3616
 2744SOL    HW1 9131   2.551   4.847   1.368  0.7083  0.3119 -1.2121
 2744SOL    HW2 9132   2.392   4.835   1.333  0.5177 -0.1188 -0.2354
 2745SOL     OW 9133   1.979   1.663   4.205 -0.2492  0.1745  0.2339
 2745SOL    HW1 9134   2.074   1.662   4.174 -0.3838 -0.4305 -0.1843
 2745SOL    HW2 9135   1.953   1.756   4.230 -0.0547  0.6626 -1.2723
 2746SOL     OW 9136   0.391   0.386   5.781  0.0576 -0.1192  0.4085
 2746SOL    HW1 9137   0.416   0.417   5.689 -1.6302 -0.1792 -0.1053
 2746SOL    HW2 9138   0.394   0.464   5.844  0.5363  0.0694  0.1586
 2747SOL     OW 9139   4.949   5.930   2.083  0.3470  0.0156 -0.2822
 2747SOL    HW1 9140   4.928   5.984   2.165 -1.6420 -0.3609 -0.4846
 2747SOL    HW2 9141   4.913   5.837   2.094 -2.3246  0.6506 -2.5261
 2748SOL     OW 9142   6.053   4.883   1.660  0.2185 -0.2744 -0.8744
 2748SOL    HW1 9143   5.983   4.872   1.731 -0.9399 -1.6438 -2.1681
 2748SOL    HW2 9144   6.130   4.822   1.681  0.8897  0.9276  0.3269
 2749SOL     OW 9145   5.167   1.840   1.847  0.0043 -0.0223 -0.3089
 2749SOL    HW1 9146   5.096   1.770   1.838 -0.8944  0.7020  0.8810
 2749SOL    HW2 9147   5.200   1.842   1.941  1.0702  0.1725 -0.6750
 2750SOL     OW 9148   3.489   2.079   3.783 -0.4434  0.0338  0.6338
 2750SOL    HW1 9149   3.404   2.095   3.733 -0.2965  1.4629  0.7814
 2750SOL    HW2 9150   3.564   2.071   3.718 -0.3268  1.3998  0.5605
 2751SOL     OW 9151   4.032   6.912   5.114  0.4835  0.2174 -0.2127
 2751SOL    HW1 9152   4.062   6.867   5.198  0.0471  0.1412 -0.0920
 2751SOL    HW2 9153   3.932   6.915   5.112  0.4813 -0.1265 -0.9078
 2752SOL     OW 9154   6.409   4.883   5.867 -0.1089 -0.4018 -0.3351
 2752SOL    HW1 9155   6.416   4.883   5.767 -1.4744 -0.7085 -0.4631
 2752SOL    HW2 9156   6.345   4.811   5.895  0.2537 -0.3050  0.7612
 2753SOL     OW 9157   2.099   3.475   4.797  0.0489 -0.7771  0.2421
 2753SOL    HW1 9158   2.196   3.460   4.817  1.0658  2.4977 -1.4543
 2753SOL    HW2 9159   2.086   3.479   4.697 -1.7795 -0.8825  0.4495
 2754SOL     OW 9160   0.999   3.735   4.590  0.1057  0.9268  0.8317
 2754SOL    HW1 9161   1.096   3.735   4.566  0.0314  1.7874  0.5055
 2754SOL    HW2 9162   0.970   3.827   4.615 -1.0378  1.0655 -0.8417
 2755SOL     OW 9163   0.410   4.072   1.383 -0.1340 -0.2108  0.0491
 2755SOL    HW1 9164   0.317   4.045   1.360 -0.6177  0.9945  0.5389
 2755SOL    HW2 9165   0.432   4.040   1.475 -1.6900  3.2049  1.7775
 2756SOL     OW 9166   1.724   6.241   1.668  0.4022  0.3859  0.2443
 2756SOL    HW1 9167   1.740   6.271   1.762 -1.6781  1.5052  0.3110
 2756SOL    HW2 9168   1.771   6.301   1.604 -1.8324  2.5447  0.4753
 2757SOL     OW 9169   4.010   3.363   2.308 -0.3410 -0.0584  0.4459
 2757SOL    HW1 9170   3.981   3.287   2.366 -0.5538 -0.0497  0.3548
 2757SOL    HW2 9171   4.000   3.449   2.359 -1.4209  0.0405  0.0888
 2758SOL     OW 9172   4.042   0.367   2.790 -0.6180 -0.4392  0.0233
 2758SOL    HW1 9173   4.024   0.417   2.874 -0.1614 -0.4395  0.1276
 2758SOL    HW2 9174   4.082   0.278   2.811  0.8089  0.1070 -0.2045
 2759SOL     OW 9175   1.074   3.127   2.158  0.4215  0.3857 -0.0526
 2759SOL    HW1 9176   1.096   3.115   2.061  1.3515  2.0744 -0.0868
 2759SOL    HW2 9177   1.130   3.065   2.213  0.1562 -0.3139 -0.5486
 2760SOL     OW 9178   1.377   6.474   6.764  0.2680  0.4484 -1.0858
 2760SOL    HW1 9179   1.306   6.407   6.746  0.4616  0.0278 -0.2972
 2760SOL    HW2 9180   1.370   6.507   6.858  2.5899 -1.4178 -0.1658
 2761SOL     OW 9181   0.765   3.942   3.233 -0.0267  0.3962 -0.0809
 2761SOL    HW1 9182   0.830   3.945   3.158  0.1175 -0.9977 -0.0561
 2761SOL    HW2 9183   0.671   3.941   3.197  0.0255  0.4601 -0.2168
 2762SOL     OW 9184   4.783   4.617   5.086  0.5888  0.4154 -0.0534
 2762SOL    HW1 9185   4.698   4.576   5.119 -0.4177  2.2655 -0.2589
 2762SOL    HW2 9186   4.796   4.593   4.990  1.1178 -1.1139  0.3685
 2763SOL     OW 9187   2.840   3.603   6.899  0.1502 -0.2153  0.2867
 2763SOL    HW1 9188   2.933   3.583   6.869  0.2068 -0.9668  0.9303
 2763SOL    HW2 9189   2.776   3.578   6.826  0.3866 -0.6148  0.2120
 2764SOL     OW 9190   1.471   1.454   6.053  1.0937 -0.5647  0.1196
 2764SOL    HW1 9191   1.479   1.357   6.031  1.3718 -0.7757  1.1207
 2764SOL    HW2 9192   1.444   1.505   5.970  1.0780 -1.4649 -0.4402
 2765SOL     OW 9193   5.332   2.840   5.865 -0.0211 -0.0452  0.4739
 2765SOL    HW1 9194   5.423   2.842   5.824 -0.2808  2.1423 -0.0744
 2765SOL    HW2 9195   5.267   2.884   5.804 -1.2069 -0.3942  1.4525
 2766SOL     OW 9196   4.130   3.632   5.682  0.5236 -0.3889  0.3892
 2766SOL    HW1 9197   4.148   3.615   5.585 -0.0042 -0.6115  0.3269
 2766SOL    HW2 9198   4.117   3.730   5.697  0.0964 -0.4091  0.1474
 2767SOL     OW 9199   6.401   1.822   5.357  0.2997 -0.3672 -0.1058
 2767SOL    HW1 9200   6.349   1.807   5.441  0.2646  1.3028  0.2070
 2767SOL    HW2 9201   6.374   1.910   5.317  3.6267  1.1844  0.7149
 2768SOL     OW 9202   4.370   5.486   4.365 -0.2662 -0.0183  0.1763
 2768SOL    HW1 9203   4.451   5.535   4.398  2.1009 -1.5682 -2.8453
 2768SOL    HW2 9204   4.306   5.551   4.325  0.8582  1.0282 -0.0014
 2769SOL     OW 9205   1.727   6.482   6.968 -0.1425 -0.2187  0.2241
 2769SOL    HW1 9206   1.653   6.547   6.982  0.4206  0.3106  0.7874
 2769SOL    HW2 9207   1.784   6.512   6.891 -0.1531 -0.2974  0.1850
 2770SOL     OW 9208   2.855   5.094   5.704 -0.6582 -0.4992  0.6847
 2770SOL    HW1 9209   2.846   5.008   5.753  0.9940  0.2908  2.4802
 2770SOL    HW2 9210   2.944   5.097   5.657 -1.2483 -0.2749 -0.4733
 2771SOL     OW 9211   4.696   1.242   0.396  0.2234  1.0041  0.2832
 2771SOL    HW1 9212   4.714   1.316   0.461 -0.7245  0.9593  0.6127
 2771SOL    HW2 9213   4.770   1.238   0.328  1.3248  0.9317  1.4595
 2772SOL     OW 9214   1.527   0.685   6.632 -0.2877 -0.0473  0.2123
 2772SOL    HW1 9215   1.462   0.677   6.707 -2.1400 -2.1208 -1.4526
 2772SOL    HW2 9216   1.612   0.637   6.656 -0.8312 -0.6299  1.0199
 2773SOL     OW 9217   1.877   3.156   4.747 -0.3500  0.1888 -0.1906
 2773SOL    HW1 9218   1.927   3.208   4.678 -0.2567  0.1768 -0.1324
 2773SOL    HW2 9219   1.939   3.092   4.792  0.0034  1.3288  1.0348
 2774SOL     OW 9220   2.689   6.904   6.280  0.1456  0.2368 -0.4017
 2774SOL    HW1 9221   2.743   6.969   6.334  0.2766  0.6853 -1.0625
 2774SOL    HW2 9222   2.629   6.954   6.217 -0.8869 -0.2581  0.1583
 2775SOL     OW 9223   1.186   4.432   3.547  0.8015  0.0244  0.3167
 2775SOL    HW1 9224   1.174   4.484   3.463 -0.3799  1.1360  1.1307
 2775SOL    HW2 9225   1.274   4.456   3.588  0.1598  1.6553  0.8213
 2776SOL     OW 9226   2.346   4.805   2.413 -0.0925 -0.7925  0.8467
 2776SOL    HW1 9227   2.362   4.719   2.462 -0.6521 -0.1986  2.1013
 2776SOL    HW2 9228   2.382   4.881   2.467  1.6578 -0.3163 -0.8827
 2777SOL     OW 9229   2.906   2.622   1.667 -0.3462 -0.5772 -0.1632
 2777SOL    HW1 9230   2.958   2.705   1.688  1.0087 -1.3034 -0.4816
 2777SOL    HW2 9231   2.901   2.565   1.749 -0.4916 -0.5829 -0.1765
 2778SOL     OW 9232   6.534   6.108   3.078 -0.6443  0.0395 -0.2682
 2778SOL    HW1 9233   6.483   6.106   2.991 -0.6721  0.0122 -0.2512
 2778SOL    HW2 9234   6.507   6.030   3.134 -0.9146  0.2690 -0.0736
 2779SOL     OW 9235   1.224   3.173   2.629  0.2130 -0.1934  0.0963
 2779SOL    HW1 9236   1.245   3.270   2.636  1.1762 -0.4264  0.5832
 2779SOL    HW2 9237   1.125   3.161   2.624 -0.0313  0.7116  1.8216
 2780SOL     OW 9238   3.374   0.927   2.142 -0.2734  0.5798  0.3413
 2780SOL    HW1 9239   3.292   0.871   2.145 -0.4829  0.8874  0.4401
 2780SOL    HW2 9240   3.350   1.023   2.156 -0.0201  0.8009 -0.6273
 2781SOL     OW 9241   0.593   3.521   2.477 -0.0786 -0.2704 -0.0137
 2781SOL    HW1 9242   0.646   3.559   2.552 -0.5778 -1.1136  0.7771
 2781SOL    HW2 9243   0.513   3.473   2.513 -0.0285 -1.1723 -1.0442
 2782SOL     OW 9244   4.788   5.251   1.178 -0.2646  0.4542  0.7051
 2782SOL    HW1 9245   4.790   5.336   1.230 -3.2073  0.0608  1.6273
 2782SOL    HW2 9246   4.731   5.184   1.225  0.7760 -1.5637 -0.7339
 2783SOL     OW 9247   0.066   3.645   4.790 -0.6541  0.3568  0.6947
 2783SOL    HW1 9248   0.081   3.707   4.868  0.1583  1.7848 -0.5317
 2783SOL    HW2 9249  -0.004   3.685   4.730 -0.3446 -0.0825  0.0417
 2784SOL     OW 9250   1.641   5.628   6.951  0.4232 -0.4731 -0.0299
 2784SOL    HW1 9251   1.551   5.668   6.965  0.1448 -0.7139 -1.0331
 2784SOL    HW2 9252   1.670   5.580   7.034 -1.4048 -2.4024 -0.4250
 2785SOL     OW 9253   6.663   6.541   2.099  0.3298 -0.0655  0.2951
 2785SOL    HW1 9254   6.752   6.517   2.060  1.0297  2.6207  0.0361
 2785SOL    HW2 9255   6.612   6.597   2.034 -0.7337  0.0289  1.1921
 2786SOL     OW 9256   1.757   5.721   1.706 -0.2400  0.6305  0.1119
 2786SOL    HW1 9257   1.682   5.706   1.642 -0.2456 -0.4614  0.3589
 2786SOL    HW2 9258   1.726   5.782   1.780 -0.2455  1.8589 -0.8669
 2787SOL     OW 9259   4.730   5.080   6.170  0.4187  0.4899 -0.2759
 2787SOL    HW1 9260   4.718   5.059   6.073 -1.1485  0.3448 -0.0855
 2787SOL    HW2 9261   4.799   5.152   6.181  1.5710 -0.4033 -1.3739
 2788SOL     OW 9262   2.572   6.073   3.837 -0.1271 -0.3528 -0.0325
 2788SOL    HW1 9263   2.495   6.085   3.901  0.8506  0.1613  1.0751
 2788SOL    HW2 9264   2.653   6.119   3.873  0.6735 -0.7495 -1.2686
 2789SOL     OW 9265   1.161   3.516   1.826  0.0947  0.5396  0.6087
 2789SOL    HW1 9266   1.069   3.515   1.786  0.5867 -1.0769 -0.6024
 2789SOL    HW2 9267   1.157   3.482   1.920 -0.3352 -1.5918 -0.1193
 2790SOL     OW 9268   4.663   2.625   3.726 -0.2076 -0.0645  0.2116
 2790SOL    HW1 9269   4.667   2.528   3.750  0.5799  0.1285  0.8761
 2790SOL    HW2 9270   4.693   2.680   3.803 -1.5002  0.7700  0.1461
 2791SOL     OW 9271   3.475   1.580   2.668  0.2225 -0.3508  0.2315
 2791SOL    HW1 9272   3.558   1.632   2.648  0.0053  0.8013  2.1181
 2791SOL    HW2 9273   3.498   1.498   2.720  0.2502 -0.4088  0.1277
 2792SOL     OW 9274   1.162   1.101   4.650 -0.1132 -0.2113  0.6212
 2792SOL    HW1 9275   1.248   1.150   4.657  0.6876 -1.7120  2.3896
 2792SOL    HW2 9276   1.150   1.043   4.731 -2.6459 -0.2929  0.2879
 2793SOL     OW 9277   3.004   1.082   5.466  0.1339 -0.9472  1.0367
 2793SOL    HW1 9278   3.066   1.159   5.478 -0.9515 -0.1993  2.0627
 2793SOL    HW2 9279   3.042   1.018   5.398  1.2980  0.2123  0.5657
 2794SOL     OW 9280   2.522   4.570   6.724 -1.0290 -0.1096 -0.0001
 2794SOL    HW1 9281   2.610   4.558   6.678 -1.0250  2.3260 -0.7529
 2794SOL    HW2 9282   2.536   4.566   6.823  0.2162  1.6035 -0.0658
 2795SOL     OW 9283   6.402   5.186   1.177 -0.2202 -0.2250  0.1824
 2795SOL    HW1 9284   6.487   5.149   1.140  0.3829 -0.5366  1.7847
 2795SOL    HW2 9285   6.406   5.183   1.277 -1.5192  1.1354  0.3000
 2796SOL     OW 9286   3.220   1.888   3.870 -0.3739 -0.7115  0.6761
 2796SOL    HW1 9287   3.227   1.987   3.857  0.1433 -0.8343 -0.0390
 2796SOL    HW2 9288   3.274   1.861   3.949  1.5294 -0.7184 -0.5669
 2797SOL     OW 9289   6.711   1.004   4.465  0.5193  0.1726 -0.1882
 2797SOL    HW1 9290   6.659   0.948   4.531 -0.6940  0.3052 -1.0034
 2797SOL    HW2 9291   6.679   1.098   4.469 -0.7343 -0.1274 -2.0881
 2798SOL     OW 9292   1.371   1.271   4.618  0.3758  0.5351  0.2367
 2798SOL    HW1 9293   1.445   1.231   4.564  0.4048  0.3761  0.3913
 2798SOL    HW2 9294   1.403   1.290   4.710  0.0808 -0.0353  0.4677
 2799SOL     OW 9295   0.342   0.997   2.635 -0.5567 -0.9376  0.2758
 2799SOL    HW1 9296   0.334   1.035   2.727 -1.1425 -2.3083  0.8194
 2799SOL    HW2 9297   0.286   1.051   2.572 -0.5744 -0.3044  0.8251
 2800SOL     OW 9298   0.500   2.304   3.757 -0.3935  0.3199 -0.0593
 2800SOL    HW1 9299   0.457   2.390   3.782 -1.8230  0.1758 -1.7912
 2800SOL    HW2 9300   0.540   2.312   3.666 -0.5337 -0.8310 -0.2361
 2801SOL     OW 9301   2.979   0.197   5.334 -0.1200  0.0992  0.0969
 2801SOL    HW1 9302   3.007   0.248   5.416 -0.6892 -0.1089  0.4203
 2801SOL    HW2 9303   3.001   0.251   5.253  0.3392  0.3588  0.3884
 2802SOL     OW 9304   2.089   2.440   1.808 -0.1837  0.1284 -0.4036
 2802SOL    HW1 9305   2.163   2.503   1.833  0.6948 -1.2571  0.6212
 2802SOL    HW2 9306   2.115   2.388   1.727 -0.7463  0.7771 -1.0168
 2803SOL     OW 9307   5.153   5.782   3.598  0.0287  0.3317 -0.0672
 2803SOL    HW1 9308   5.118   5.692   3.572  2.6169 -0.4728 -1.2060
 2803SOL    HW2 9309   5.178   5.833   3.515 -0.1128  1.5547  0.6158
 2804SOL     OW 9310   1.905   3.261   2.920 -0.2289  0.5159 -0.0187
 2804SOL    HW1 9311   1.975   3.227   2.982  1.1660 -0.5227 -2.0629
 2804SOL    HW2 9312   1.822   3.281   2.971  0.4254 -1.5056  1.9782
 2805SOL     OW 9313   5.399   1.147   6.468 -0.0249 -1.1049 -0.1583
 2805SOL    HW1 9314   5.449   1.190   6.542 -0.5172 -1.1990  0.2344
 2805SOL    HW2 9315   5.463   1.100   6.407  0.6841  1.1969 -1.3050
 2806SOL     OW 9316   3.319   0.471   1.585  0.0473  0.1870  0.0523
 2806SOL    HW1 9317   3.249   0.497   1.519 -1.1461 -1.0879  0.7339
 2806SOL    HW2 9318   3.303   0.519   1.672  0.5417  0.5263 -0.0382
 2807SOL     OW 9319   5.352   0.064   6.382 -0.0347  0.0550  0.2129
 2807SOL    HW1 9320   5.296   0.113   6.315  0.6570 -0.1724 -0.5505
 2807SOL    HW2 9321   5.383   0.127   6.453  0.3064  0.5879 -0.4019
 2808SOL     OW 9322   4.943   4.156   6.600 -0.4699  0.1213  0.3258
 2808SOL    HW1 9323   4.854   4.140   6.644 -0.2413 -0.3955  0.6104
 2808SOL    HW2 9324   5.003   4.204   6.664 -0.4790  0.2964  0.2027
 2809SOL     OW 9325   1.842   4.552   4.860 -0.7491  0.4771  0.5487
 2809SOL    HW1 9326   1.775   4.481   4.880  1.1820 -0.5451  4.2525
 2809SOL    HW2 9327   1.812   4.638   4.902 -1.6109  1.1478 -1.3303
 2810SOL     OW 9328   3.867   1.493   6.839 -0.5537  0.1005 -0.2124
 2810SOL    HW1 9329   3.782   1.546   6.837 -1.2844 -1.0378  0.0793
 2810SOL    HW2 9330   3.905   1.494   6.931 -0.7978 -0.2414 -0.1082
 2811SOL     OW 9331   5.974   4.423   3.367 -0.2241  0.1915  0.3569
 2811SOL    HW1 9332   6.009   4.516   3.371  1.6648 -0.3893 -1.2785
 2811SOL    HW2 9333   5.968   4.385   3.460  0.1550  1.4925  0.9336
 2812SOL     OW 9334   4.773   0.849   4.885 -0.0264 -0.1292  0.2919
 2812SOL    HW1 9335   4.769   0.940   4.927 -1.4167  0.7524 -1.5966
 2812SOL    HW2 9336   4.728   0.783   4.944 -1.2683  0.9165  0.5701
 2813SOL     OW 9337   5.994   2.825   1.797  0.0848  0.5674  0.2979
 2813SOL    HW1 9338   6.054   2.842   1.875  0.3482 -0.2236  0.2725
 2813SOL    HW2 9339   5.980   2.727   1.785 -1.1492  0.7223  0.2472
 2814SOL     OW 9340   0.418   2.926   4.943 -0.2301  0.3047 -0.8575
 2814SOL    HW1 9341   0.458   2.989   5.009  0.0252  0.6936 -1.3759
 2814SOL    HW2 9342   0.486   2.903   4.873 -0.8004  0.7093 -1.5620
 2815SOL     OW 9343   2.200   1.147   0.884 -0.0310  0.0555 -0.4456
 2815SOL    HW1 9344   2.207   1.066   0.943  1.1277 -0.3460 -1.0966
 2815SOL    HW2 9345   2.174   1.119   0.792  1.0329  0.3348 -0.8403
 2816SOL     OW 9346   3.424   0.883   6.562  0.4872  0.2245 -0.3116
 2816SOL    HW1 9347   3.519   0.904   6.536  0.9903 -0.5612  0.7751
 2816SOL    HW2 9348   3.416   0.886   6.662 -0.5058 -0.2140 -0.3673
 2817SOL     OW 9349   2.008   1.207   6.284  0.4438  0.6225  0.1824
 2817SOL    HW1 9350   1.996   1.205   6.383 -1.0710 -2.2353  0.0443
 2817SOL    HW2 9351   2.079   1.142   6.258 -1.1057 -0.7510 -0.7555
 2818SOL     OW 9352   6.355   1.873   4.114  0.3342  0.1544 -0.1387
 2818SOL    HW1 9353   6.419   1.931   4.063  0.4722  2.1222  2.1023
 2818SOL    HW2 9354   6.405   1.826   4.187  0.0953 -2.4046 -1.5254
 2819SOL     OW 9355   2.717   6.134   6.667  0.1667 -0.1470 -0.1987
 2819SOL    HW1 9356   2.752   6.188   6.743 -0.5600  0.0176  0.0292
 2819SOL    HW2 9357   2.758   6.165   6.582  0.4037  0.1871  0.0344
 2820SOL     OW 9358   6.575   0.063   6.359 -0.1680 -0.2307  0.3977
 2820SOL    HW1 9359   6.624  -0.024   6.350  1.7779  0.8948 -0.4484
 2820SOL    HW2 9360   6.571   0.088   6.456 -0.0944 -0.8981  0.5815
 2821SOL     OW 9361   6.885   3.130   1.594 -0.1739 -0.2044 -0.3122
 2821SOL    HW1 9362   6.798   3.151   1.550  0.8770 -1.6420 -3.3069
 2821SOL    HW2 9363   6.891   3.032   1.613  0.0270  0.1667  1.7775
 2822SOL     OW 9364   0.247   4.534   0.539  0.6262 -0.3417 -0.5712
 2822SOL    HW1 9365   0.159   4.540   0.588  0.9955 -2.5893  0.4929
 2822SOL    HW2 9366   0.232   4.556   0.443 -1.3990 -1.9256 -0.6905
 2823SOL     OW 9367   0.064   5.945   2.465 -0.9098 -0.0383  0.3549
 2823SOL    HW1 9368  -0.030   5.949   2.432 -0.1229 -0.3572 -2.0813
 2823SOL    HW2 9369   0.087   6.031   2.511 -1.7961  0.8116 -0.7537
 2824SOL     OW 9370   3.322   6.174   4.668 -0.1583 -1.0663  0.5085
 2824SOL    HW1 9371   3.413   6.134   4.678 -0.5802 -1.9714  0.8816
 2824SOL    HW2 9372   3.255   6.116   4.715 -1.3657 -1.9950 -2.1563
 2825SOL     OW 9373   6.043   6.763   3.950 -0.4376 -0.4303  0.2301
 2825SOL    HW1 9374   6.053   6.697   4.025 -0.5755  0.9903  1.5605
 2825SOL    HW2 9375   6.133   6.785   3.913 -0.3039 -0.6695  0.4108
 2826SOL     OW 9376   2.114   1.290   4.949  0.4632  0.3190 -0.1777
 2826SOL    HW1 9377   2.148   1.375   4.989 -0.6643  0.4401  0.5719
 2826SOL    HW2 9378   2.021   1.272   4.982  0.5598 -1.0454 -0.5691
 2827SOL     OW 9379   0.260   4.294   5.966 -0.3315 -0.2845  0.0734
 2827SOL    HW1 9380   0.344   4.328   5.925 -1.1199  1.8401  0.1063
 2827SOL    HW2 9381   0.263   4.309   6.065 -1.2293  1.0063 -0.0672
 2828SOL     OW 9382   4.900   6.553   0.474  0.0770  0.4687 -0.5091
 2828SOL    HW1 9383   4.957   6.634   0.463  1.3256 -0.3715 -0.4007
 2828SOL    HW2 9384   4.938   6.478   0.419  1.1326 -1.1237  2.2292
 2829SOL     OW 9385   1.165   5.969   0.441  0.0716 -0.0023  0.2561
 2829SOL    HW1 9386   1.139   5.966   0.538  0.3091 -2.3538  0.3084
 2829SOL    HW2 9387   1.138   5.883   0.397 -0.7043  1.3090 -1.9795
 2830SOL     OW 9388   6.609   3.890   5.464 -0.1940  0.0207  0.0436
 2830SOL    HW1 9389   6.635   3.808   5.516  0.0992  0.1920  0.1690
 2830SOL    HW2 9390   6.591   3.865   5.369  0.6378 -0.0736 -0.0973
 2831SOL     OW 9391   4.635   3.811   5.334  0.1103  0.5245  0.4323
 2831SOL    HW1 9392   4.574   3.795   5.411 -0.1869  1.6948  0.4640
 2831SOL    HW2 9393   4.648   3.726   5.283 -0.0822 -0.1470  1.4789
 2832SOL     OW 9394   2.484   0.003   2.768 -0.6960  0.1677  0.0776
 2832SOL    HW1 9395   2.433  -0.043   2.841 -0.5650 -0.6550 -0.3499
 2832SOL    HW2 9396   2.421   0.029   2.695 -0.7229  0.4393  0.1926
 2833SOL     OW 9397   1.262   5.590   3.663  0.5709  0.0332 -0.4119
 2833SOL    HW1 9398   1.197   5.555   3.731 -0.0919 -1.4746 -1.7270
 2833SOL    HW2 9399   1.211   5.635   3.589  1.2791  1.6977  0.0727
 2834SOL     OW 9400   3.708   1.205   1.900  0.0513 -0.0025  0.0785
 2834SOL    HW1 9401   3.766   1.253   1.835 -1.5911  0.3602 -1.2027
 2834SOL    HW2 9402   3.612   1.226   1.880 -0.5029  0.7700  3.1382
 2835SOL     OW 9403   2.449   0.626   4.974  0.0638  0.5090  0.0102
 2835SOL    HW1 9404   2.475   0.720   4.953 -0.8378  0.6569 -0.5214
 2835SOL    HW2 9405   2.457   0.570   4.891 -1.0612  0.5200 -0.1215
 2836SOL     OW 9406   2.235   6.140   6.036  0.4131  0.3414 -0.3626
 2836SOL    HW1 9407   2.219   6.167   6.130 -0.9273 -0.9756 -0.1670
 2836SOL    HW2 9408   2.320   6.088   6.030 -0.0168 -0.4572  0.3295
 2837SOL     OW 9409   4.223   5.622   1.907 -0.5177  0.0783  0.0988
 2837SOL    HW1 9410   4.286   5.640   1.982 -0.6800 -0.5944  0.4000
 2837SOL    HW2 9411   4.131   5.651   1.932 -0.5579 -0.0778  0.1335
 2838SOL     OW 9412   5.793   5.884   3.372  0.3039  0.1271  0.8357
 2838SOL    HW1 9413   5.701   5.862   3.340 -0.3454  1.2311  1.8359
 2838SOL    HW2 9414   5.855   5.890   3.294  0.0363 -2.6895  0.3053
 2839SOL     OW 9415   3.322   6.717   4.208  0.1518  0.5095 -0.0166
 2839SOL    HW1 9416   3.240   6.753   4.251  1.0281  2.7560 -0.0804
 2839SOL    HW2 9417   3.393   6.704   4.278 -0.2769 -1.5875  0.0680
 2840SOL     OW 9418   0.905   4.761   3.979 -0.1446 -0.2688 -0.1295
 2840SOL    HW1 9419   0.970   4.738   4.052 -0.7183 -0.3183  0.3786
 2840SOL    HW2 9420   0.912   4.858   3.958 -0.3130 -0.1507  0.3403
 2841SOL     OW 9421   2.812   0.239   6.020 -0.5236  0.0706 -0.3579
 2841SOL    HW1 9422   2.878   0.207   6.088 -0.4017  1.8376  0.3876
 2841SOL    HW2 9423   2.854   0.238   5.929  0.7325  1.6729  0.1711
 2842SOL     OW 9424   5.853   2.365   6.990  0.1058  0.9776 -0.1393
 2842SOL    HW1 9425   5.919   2.437   7.012  1.3952  0.6683 -2.5970
 2842SOL    HW2 9426   5.786   2.401   6.924  0.7234  0.0157 -1.3323
 2843SOL     OW 9427   1.990   4.639   2.740  0.0603 -0.2496 -0.2497
 2843SOL    HW1 9428   1.933   4.663   2.819 -1.4783 -0.7836 -1.1658
 2843SOL    HW2 9429   1.949   4.562   2.691  2.3802 -1.6770 -0.0971
 2844SOL     OW 9430   4.864   4.638   1.014  0.2848 -0.0517 -0.1334
 2844SOL    HW1 9431   4.842   4.719   1.068  0.3039 -0.7030  0.8984
 2844SOL    HW2 9432   4.800   4.565   1.037  0.3398 -0.3658 -0.9603
 2845SOL     OW 9433   5.813   0.810   2.065 -0.1896  0.7220  0.3576
 2845SOL    HW1 9434   5.827   0.810   2.164  0.7383  2.0035  0.2557
 2845SOL    HW2 9435   5.898   0.784   2.019 -0.2828  1.2203 -0.1144
 2846SOL     OW 9436   1.752   3.313   3.909 -0.8299 -0.1377  0.5536
 2846SOL    HW1 9437   1.788   3.245   3.973 -0.4316  0.2799  0.7867
 2846SOL    HW2 9438   1.775   3.287   3.816  0.5375  0.3583  0.7221
 2847SOL     OW 9439   1.648   2.761   2.845  0.1263  0.1374  0.2613
 2847SOL    HW1 9440   1.621   2.856   2.826 -0.4935  0.2374  1.5052
 2847SOL    HW2 9441   1.575   2.699   2.816  0.5340  0.0282 -0.5567
 2848SOL     OW 9442   6.734   2.011   2.859 -0.7949 -0.1299 -0.0788
 2848SOL    HW1 9443   6.658   2.059   2.816 -2.0130 -2.8495 -1.2342
 2848SOL    HW2 9444   6.698   1.933   2.912  1.0907 -0.4003  0.9037
 2849SOL     OW 9445   0.186   6.058   1.250  0.2073 -0.3405 -0.2205
 2849SOL    HW1 9446   0.184   5.988   1.321  1.6807 -2.1072 -1.8347
 2849SOL    HW2 9447   0.264   6.119   1.264 -0.0255 -0.1254  0.1574
 2850SOL     OW 9448   2.040   2.854   5.912  1.1309  0.5937 -0.4899
 2850SOL    HW1 9449   2.106   2.806   5.970  0.4359  0.5613  0.2847
 2850SOL    HW2 9450   2.013   2.794   5.836  0.2503 -0.2810  0.4794
 2851SOL     OW 9451   4.955   6.767   0.128 -0.4269  1.0327 -0.5044
 2851SOL    HW1 9452   5.035   6.719   0.164 -1.1847 -0.6409 -0.9323
 2851SOL    HW2 9453   4.872   6.727   0.168 -1.1592  0.8769 -2.1082
 2852SOL     OW 9454   3.258   4.457   5.925 -0.1328 -0.3092 -0.1889
 2852SOL    HW1 9455   3.314   4.375   5.920 -0.0106 -0.2305 -0.1230
 2852SOL    HW2 9456   3.184   4.443   5.991 -1.0596 -0.9317 -1.3267
 2853SOL     OW 9457   0.484   2.222   2.639 -0.0728 -0.0197  0.1177
 2853SOL    HW1 9458   0.417   2.286   2.678 -1.4328 -1.6645  0.6134
 2853SOL    HW2 9459   0.442   2.173   2.563 -0.4573 -3.0419  2.1329
 2854SOL     OW 9460   3.305   6.001   6.162 -0.1619 -0.7765 -0.5526
 2854SOL    HW1 9461   3.344   5.989   6.071  0.4851  0.2208 -0.4114
 2854SOL    HW2 9462   3.353   6.074   6.210 -1.7836  0.0561 -0.1360
 2855SOL     OW 9463   5.527   1.995   3.853  0.6792 -0.2659  0.0532
 2855SOL    HW1 9464   5.551   2.088   3.878  0.5448 -0.6337  1.6303
 2855SOL    HW2 9465   5.608   1.946   3.820  0.5332  0.7110 -1.9169
 2856SOL     OW 9466   5.303   4.939   5.582 -0.0080 -0.2410 -0.7461
 2856SOL    HW1 9467   5.365   4.982   5.648  0.2053 -0.1750 -0.9856
 2856SOL    HW2 9468   5.352   4.925   5.495 -0.8923  1.5973 -1.5797
 2857SOL     OW 9469   6.150   3.994   1.623  0.4473 -0.6322 -0.0662
 2857SOL    HW1 9470   6.074   4.044   1.665  0.5287  0.0394 -0.7042
 2857SOL    HW2 9471   6.231   4.000   1.680  0.3097 -0.4709  0.1110
 2858SOL     OW 9472   1.193   0.173   3.637 -0.4954  0.6713 -0.3996
 2858SOL    HW1 9473   1.128   0.119   3.691  0.4258  0.8235  0.9125
 2858SOL    HW2 9474   1.281   0.175   3.684  1.3137 -1.6970 -3.3581
 2859SOL     OW 9475   0.159   6.722   1.233 -0.3217 -0.2533 -0.3364
 2859SOL    HW1 9476   0.072   6.743   1.189 -0.2476 -2.3721 -1.6480
 2859SOL    HW2 9477   0.230   6.782   1.196 -0.8112 -0.0516 -0.9691
 2860SOL     OW 9478   2.657   6.818   6.558  0.5826  0.2409 -0.3801
 2860SOL    HW1 9479   2.674   6.817   6.460  1.9239 -0.2472 -0.1703
 2860SOL    HW2 9480   2.654   6.724   6.592 -0.4977  0.3848 -0.0402
 2861SOL     OW 9481   5.760   0.251   2.733 -0.3539  0.4979 -0.2835
 2861SOL    HW1 9482   5.722   0.159   2.723 -0.7247  0.7757 -1.7131
 2861SOL    HW2 9483   5.859   0.248   2.722 -0.2615  0.1490  0.6148
 2862SOL     OW 9484   3.988   1.526   0.043 -0.0221 -0.4453 -0.2181
 2862SOL    HW1 9485   4.070   1.562  -0.001  0.6230 -0.2530  1.0768
 2862SOL    HW2 9486   3.984   1.559   0.138 -1.6178 -0.4191 -0.2573
 2863SOL     OW 9487   0.549   6.310   1.403 -0.0337  0.3955 -0.1029
 2863SOL    HW1 9488   0.475   6.284   1.341  0.0087 -1.1552  0.4609
 2863SOL    HW2 9489   0.637   6.285   1.362  0.6671  5.2973 -2.4137
 2864SOL     OW 9490   6.090   3.485   4.366 -0.4133  1.0366 -0.0416
 2864SOL    HW1 9491   6.165   3.439   4.320 -0.6557 -0.3408  0.8712
 2864SOL    HW2 9492   6.123   3.527   4.450 -0.6819  0.2015  0.4990
 2865SOL     OW 9493   1.710   0.055   2.834 -0.5532 -0.1096  0.1246
 2865SOL    HW1 9494   1.713  -0.002   2.752  1.5807 -1.2429  0.9105
 2865SOL    HW2 9495   1.721  -0.003   2.915 -1.2730  1.1312  1.1440
 2866SOL     OW 9496   2.268   0.282   2.502 -0.2784 -0.0794  0.0939
 2866SOL    HW1 9497   2.284   0.329   2.589 -0.5061  1.1965 -0.5347
 2866SOL    HW2 9498   2.277   0.183   2.515  0.2076  0.1302  1.4486
 2867SOL     OW 9499   6.892   0.033   3.137  0.0890  0.0264 -0.5048
 2867SOL    HW1 9500   6.954   0.094   3.088 -0.1048 -0.2859 -1.1564
 2867SOL    HW2 9501   6.881  -0.052   3.085 -1.4997  0.3863 -0.8232
 2868SOL     OW 9502   0.014   1.445   6.992  0.8315 -0.1715 -0.2756
 2868SOL    HW1 9503  -0.046   1.516   6.954  0.4596 -1.1928 -1.6983
 2868SOL    HW2 9504  -0.031   1.403   7.070  0.6431  0.5242 -0.0036
 2869SOL     OW 9505   6.371   5.612   2.167  0.1651 -0.3412  0.5205
 2869SOL    HW1 9506   6.385   5.612   2.266 -2.1154 -0.0237  0.8930
 2869SOL    HW2 9507   6.289   5.665   2.144  0.4892 -0.6324 -1.5188
 2870SOL     OW 9508   6.501   5.932   1.864 -0.0256  0.1434  0.8997
 2870SOL    HW1 9509   6.503   6.015   1.808 -0.2963  0.4692  1.3673
 2870SOL    HW2 9510   6.443   5.947   1.945  0.7957 -0.1383  1.5512
 2871SOL     OW 9511   5.544   5.075   3.853 -0.1495 -0.4742  0.1715
 2871SOL    HW1 9512   5.626   5.096   3.799  0.2840 -0.1237  0.9438
 2871SOL    HW2 9513   5.567   5.012   3.927 -0.6489 -0.6266  0.2049
 2872SOL     OW 9514   6.527   6.386   4.819 -0.4735  0.1383 -0.3601
 2872SOL    HW1 9515   6.506   6.288   4.822  0.0814  0.0161  2.3635
 2872SOL    HW2 9516   6.526   6.423   4.912  1.2624  2.3128 -1.1192
 2873SOL     OW 9517   3.623   1.829   4.978 -0.4816  0.3208  0.0256
 2873SOL    HW1 9518   3.530   1.795   4.991  0.0801 -0.6433  1.8089
 2873SOL    HW2 9519   3.645   1.831   4.880 -2.0530 -0.2540 -0.3631
 2874SOL     OW 9520   4.357   0.109   3.123  0.5858  0.1404 -0.4735
 2874SOL    HW1 9521   4.299   0.039   3.165 -0.0159 -0.1061 -1.6464
 2874SOL    HW2 9522   4.453   0.081   3.130  0.5313  0.2753  0.9872
 2875SOL     OW 9523   4.037   0.931   0.976  0.4229  0.2292 -0.5569
 2875SOL    HW1 9524   4.052   0.833   0.968 -1.2928 -0.1758  0.7106
 2875SOL    HW2 9525   4.025   0.956   1.072  3.8614  2.2206 -0.4683
 2876SOL     OW 9526   1.825   6.780   5.749 -0.1390  0.9345  0.0340
 2876SOL    HW1 9527   1.798   6.684   5.743  2.7690  0.0893 -1.6244
 2876SOL    HW2 9528   1.804   6.826   5.662 -2.0565  2.0098  1.0245
 2877SOL     OW 9529   0.205   0.644   3.775 -0.1572 -0.3911  0.1240
 2877SOL    HW1 9530   0.211   0.614   3.871  0.7038  0.3895  0.3247
 2877SOL    HW2 9531   0.297   0.654   3.737 -0.4621  0.3700 -0.4477
 2878SOL     OW 9532   5.883   4.709   2.631 -0.0543  0.1613 -0.2149
 2878SOL    HW1 9533   5.894   4.645   2.554 -0.7039  1.6000 -1.5737
 2878SOL    HW2 9534   5.826   4.667   2.701  0.4438 -1.1510 -0.5621
 2879SOL     OW 9535   1.410   0.024   2.796  0.1142 -0.3163  0.8340
 2879SOL    HW1 9536   1.392  -0.038   2.720 -0.1538  0.9292 -0.1479
 2879SOL    HW2 9537   1.509   0.033   2.809  0.2474  1.2269 -0.9027
 2880SOL     OW 9538   5.721   3.292   4.221  0.2807 -0.2095  0.3036
 2880SOL    HW1 9539   5.642   3.239   4.190 -0.7670  1.1665  0.5138
 2880SOL    HW2 9540   5.782   3.233   4.274  0.7252 -1.9336 -1.9831
 2881SOL     OW 9541   2.455   2.594   4.067 -0.3955  0.6420 -0.1007
 2881SOL    HW1 9542   2.395   2.523   4.105 -1.6628  1.1058 -1.1577
 2881SOL    HW2 9543   2.484   2.655   4.141  1.4126 -1.3788  0.9920
 2882SOL     OW 9544   0.340   6.692   7.017 -0.6750  0.3684 -0.6374
 2882SOL    HW1 9545   0.302   6.626   7.082 -0.7007  0.0754 -0.9521
 2882SOL    HW2 9546   0.368   6.775   7.067 -2.1540  0.7844 -0.4587
 2883SOL     OW 9547   2.975   4.368   0.987  0.9241 -0.1957  0.1194
 2883SOL    HW1 9548   2.917   4.353   0.907  1.8748 -1.2697 -0.3917
 2883SOL    HW2 9549   2.931   4.328   1.067  0.8099 -0.7357 -0.2052
 2884SOL     OW 9550   1.493   1.449   1.990  0.3617  0.1267 -0.4480
 2884SOL    HW1 9551   1.450   1.460   2.079  0.2567 -0.1855 -0.4585
 2884SOL    HW2 9552   1.544   1.363   1.988  1.3531  0.6881 -0.2895
 2885SOL     OW 9553   0.838   5.923   2.349 -0.3691 -0.3545 -0.0290
 2885SOL    HW1 9554   0.756   5.969   2.383 -0.3429 -1.1367  1.1459
 2885SOL    HW2 9555   0.835   5.826   2.374  0.4629 -0.5939 -0.8165
 2886SOL     OW 9556   1.270   3.195   4.156  0.3772  0.4051 -0.5445
 2886SOL    HW1 9557   1.229   3.216   4.067  0.1284  1.3035 -0.2291
 2886SOL    HW2 9558   1.225   3.250   4.226  1.5149  0.7354 -0.0613
 2887SOL     OW 9559   6.219   3.428   3.259  0.5771  0.0171 -0.4964
 2887SOL    HW1 9560   6.284   3.484   3.311  0.1815  1.4050 -1.4504
 2887SOL    HW2 9561   6.127   3.447   3.291  0.4194  0.0961 -0.9926
 2888SOL     OW 9562   1.614   1.008   4.043  0.5071  0.0748 -0.0337
 2888SOL    HW1 9563   1.607   1.106   4.061  0.6670  0.5529 -2.2069
 2888SOL    HW2 9564   1.544   0.959   4.095 -0.5728  1.5226 -0.0598
 2889SOL     OW 9565   1.834   6.012   6.998 -0.3607  0.1202  0.0017
 2889SOL    HW1 9566   1.756   5.954   7.021 -0.6098  0.5841  0.3427
 2889SOL    HW2 9567   1.919   5.959   7.007 -0.6076 -0.2704  0.0290
 2890SOL     OW 9568   2.352   5.542   4.359 -0.3876  0.1985  0.0018
 2890SOL    HW1 9569   2.272   5.532   4.300 -0.0972  1.1715 -0.5721
 2890SOL    HW2 9570   2.435   5.525   4.305 -0.1860 -0.7259  0.5741
 2891SOL     OW 9571   1.550   5.949   0.024 -0.3922 -0.7031 -0.1573
 2891SOL    HW1 9572   1.580   6.042   0.003 -2.7638  0.6775  1.9650
 2891SOL    HW2 9573   1.488   5.917  -0.047 -0.2260 -0.3194 -0.4777
 2892SOL     OW 9574   4.905   5.993   1.801 -0.1704 -0.5014 -0.0785
 2892SOL    HW1 9575   4.848   6.074   1.791 -1.8839 -1.8337 -1.5335
 2892SOL    HW2 9576   4.899   5.960   1.895 -1.7383 -0.5627 -0.1852
 2893SOL     OW 9577   6.138   4.642   2.232 -0.1044  0.5902  0.1609
 2893SOL    HW1 9578   6.159   4.561   2.177  1.4396 -0.3795  2.0546
 2893SOL    HW2 9579   6.214   4.706   2.229  0.3396  0.1855  1.6774
 2894SOL     OW 9580   4.993   1.033   0.680  0.2117  0.4141 -0.6589
 2894SOL    HW1 9581   5.035   1.123   0.666 -2.2102  1.4526 -1.9983
 2894SOL    HW2 9582   4.919   1.041   0.747  1.1952 -1.0428  0.6478
 2895SOL     OW 9583   6.251   6.709   0.827  0.3203 -0.0588 -0.2283
 2895SOL    HW1 9584   6.295   6.754   0.905 -0.8266 -1.8496  1.5328
 2895SOL    HW2 9585   6.300   6.624   0.806 -0.3708 -0.4376 -0.3406
 2896SOL     OW 9586   2.357   3.216   6.712  0.2155 -0.8858 -0.2925
 2896SOL    HW1 9587   2.275   3.206   6.769  0.4713  2.4324  0.8587
 2896SOL    HW2 9588   2.395   3.125   6.693 -1.5634 -2.3236  2.3064
 2897SOL     OW 9589   2.815   5.025   4.051  0.3514 -0.1929  0.7062
 2897SOL    HW1 9590   2.746   5.022   3.979  0.7922  1.0430  0.2186
 2897SOL    HW2 9591   2.775   5.063   4.135  0.5328  0.9211  0.2992
 2898SOL     OW 9592   1.239   5.005   4.397 -0.2967  0.5892  0.0422
 2898SOL    HW1 9593   1.221   5.093   4.353 -1.6439 -0.2034 -1.0925
 2898SOL    HW2 9594   1.334   4.978   4.379 -0.1793  1.3238 -0.5016
 2899SOL     OW 9595   4.627   2.233   0.513  0.3080 -0.1603 -0.0340
 2899SOL    HW1 9596   4.596   2.138   0.510 -0.2769 -0.0322  1.2274
 2899SOL    HW2 9597   4.554   2.293   0.480 -0.0418 -0.0167  0.9723
 2900SOL     OW 9598   4.064   4.444   0.878 -0.0914  0.0816 -0.0250
 2900SOL    HW1 9599   3.992   4.505   0.843 -1.1638 -0.8406  0.5024
 2900SOL    HW2 9600   4.046   4.424   0.974 -0.8140 -2.4743 -0.6130
 2901SOL     OW 9601   6.779   1.198   1.236  0.0954 -0.0953  0.9254
 2901SOL    HW1 9602   6.859   1.240   1.279 -0.4048  0.4521  1.3180
 2901SOL    HW2 9603   6.707   1.266   1.224  0.2048 -0.2368 -0.7531
 2902SOL     OW 9604   4.986   1.786   0.368  0.1985 -0.0883  0.0972
 2902SOL    HW1 9605   4.955   1.763   0.461 -0.7721  1.4446  0.1896
 2902SOL    HW2 9606   4.961   1.881   0.348 -0.1111 -0.5743 -1.9624
 2903SOL     OW 9607   2.165   5.444   6.236 -0.1097 -0.0835  0.1260
 2903SOL    HW1 9608   2.155   5.422   6.333 -1.1876  1.0060  0.2888
 2903SOL    HW2 9609   2.082   5.417   6.187  0.4409 -0.6522 -0.5141
 2904SOL     OW 9610   5.188   2.748   0.439  0.7724 -0.5104  0.8948
 2904SOL    HW1 9611   5.190   2.746   0.539 -2.1084 -0.0597  1.0575
 2904SOL    HW2 9612   5.132   2.825   0.408  0.6953 -1.2743 -1.0122
 2905SOL     OW 9613   3.917   0.853   2.900  0.1157 -0.5973 -0.1571
 2905SOL    HW1 9614   3.842   0.896   2.850  1.5418  2.1590 -0.1160
 2905SOL    HW2 9615   3.999   0.909   2.891  1.9513 -3.0478  0.5481
 2906SOL     OW 9616   0.762   2.054   1.225  0.3347  0.3721 -0.1778
 2906SOL    HW1 9617   0.685   2.118   1.227  0.2149  0.2779 -1.4294
 2906SOL    HW2 9618   0.844   2.100   1.259  0.0720  0.9327 -0.2925
 2907SOL     OW 9619   1.122   1.706   0.895  0.9155  0.2813  0.0344
 2907SOL    HW1 9620   1.022   1.703   0.896  0.8490  0.3740  3.6722
 2907SOL    HW2 9621   1.151   1.771   0.824 -1.5698  0.6544 -0.7713
 2908SOL     OW 9622   4.709   5.357   6.676  0.2605  0.2112  0.0396
 2908SOL    HW1 9623   4.752   5.446   6.662 -1.1839  1.0267  0.5645
 2908SOL    HW2 9624   4.743   5.293   6.607  0.7981  1.3523 -0.7994
 2909SOL     OW 9625   3.108   3.493   5.359 -0.1929 -0.2062 -0.3067
 2909SOL    HW1 9626   3.127   3.578   5.407  0.5449  0.9467 -2.5033
 2909SOL    HW2 9627   3.015   3.463   5.378 -1.3606  2.4636 -1.4289
 2910SOL     OW 9628   5.321   0.554   1.270 -0.3965 -0.2411 -0.0549
 2910SOL    HW1 9629   5.292   0.550   1.365  1.0125  1.1659  0.4895
 2910SOL    HW2 9630   5.402   0.496   1.257  0.5749  1.0147  0.1179
 2911SOL     OW 9631   1.123   2.355   0.244 -0.5209 -0.5076  0.3869
 2911SOL    HW1 9632   1.107   2.283   0.176  0.3042 -1.2328  0.9331
 2911SOL    HW2 9633   1.037   2.398   0.267 -0.7726  0.0669 -1.4405
 2912SOL     OW 9634   4.227   1.983   4.819  0.3136  0.1987 -0.1981
 2912SOL    HW1 9635   4.161   1.908   4.830  0.5310  0.1694  1.0078
 2912SOL    HW2 9636   4.254   1.989   4.723  0.5745 -1.5232 -0.2717
 2913SOL     OW 9637   4.194   6.420   6.714 -0.0535  0.0511 -0.0648
 2913SOL    HW1 9638   4.238   6.420   6.803  0.3485  3.2154 -0.1426
 2913SOL    HW2 9639   4.117   6.356   6.715  1.3087 -1.6791  1.7499
 2914SOL     OW 9640   0.839   6.974   3.489  0.2541  0.2858  0.1206
 2914SOL    HW1 9641   0.809   6.907   3.558 -1.0014  0.1153 -0.5567
 2914SOL    HW2 9642   0.767   7.043   3.476  0.8041  0.7582 -0.4498
 2915SOL     OW 9643   0.377   1.472   1.571  0.0059 -0.5794  0.4832
 2915SOL    HW1 9644   0.474   1.474   1.547  0.6823  1.4364  2.9837
 2915SOL    HW2 9645   0.364   1.423   1.657 -1.7689 -3.8538 -1.4421
 2916SOL     OW 9646   6.937   5.182   3.209 -0.3703 -0.1847  0.3085
 2916SOL    HW1 9647   6.868   5.112   3.188  0.5766 -0.9725 -0.2619
 2916SOL    HW2 9648   7.011   5.177   3.142  0.5929  0.1654  1.3179
 2917SOL     OW 9649   5.878   1.874   6.139  0.1845 -0.0090  0.6685
 2917SOL    HW1 9650   5.808   1.851   6.072 -0.8145 -0.5010  1.8429
 2917SOL    HW2 9651   5.842   1.859   6.231  1.7358  0.0172  1.3091
 2918SOL     OW 9652   0.883   1.874   6.302 -0.6908 -0.0431  0.4580
 2918SOL    HW1 9653   0.934   1.876   6.216 -2.4468  1.4617 -0.6211
 2918SOL    HW2 9654   0.874   1.967   6.338 -0.9224 -0.5271  1.6977
 2919SOL     OW 9655   5.778   6.100   6.031  0.3382  0.4855 -0.4545
 2919SOL    HW1 9656   5.818   6.023   6.080  1.0577  1.0172 -0.1863
 2919SOL    HW2 9657   5.768   6.077   5.934 -0.2578 -0.2496 -0.2267
 2920SOL     OW 9658   4.975   3.996   2.735  0.0172 -0.3468  0.0598
 2920SOL    HW1 9659   4.953   4.056   2.812 -0.8732  0.8880 -1.1009
 2920SOL    HW2 9660   5.063   3.951   2.751  0.6868  1.2265  1.0291
 2921SOL     OW 9661   6.538   5.606   5.688  0.0660  0.7385  0.4024
 2921SOL    HW1 9662   6.491   5.518   5.690 -2.2979  1.9191  0.0469
 2921SOL    HW2 9663   6.575   5.627   5.778 -1.9083  0.6692  1.2566
 2922SOL     OW 9664   5.026   1.600   3.583 -0.0179  0.0687 -0.0525
 2922SOL    HW1 9665   5.111   1.589   3.531 -0.5694  1.2524 -1.2741
 2922SOL    HW2 9666   4.994   1.694   3.575 -1.6617 -0.4440  0.0368
 2923SOL     OW 9667   2.658   4.597   3.954  1.1659  0.3206 -0.2066
 2923SOL    HW1 9668   2.596   4.520   3.971  0.3116  0.7891 -1.1178
 2923SOL    HW2 9669   2.684   4.638   4.042 -1.0045  1.0251  0.1833
 2924SOL     OW 9670   1.941   1.349   5.915  0.4105 -0.3022 -0.3422
 2924SOL    HW1 9671   2.027   1.332   5.962 -0.0660 -1.2127  0.2368
 2924SOL    HW2 9672   1.875   1.389   5.979  0.3321  0.1687 -0.7167
 2925SOL     OW 9673   3.216   4.232   6.377 -0.2027 -0.2715  0.5000
 2925SOL    HW1 9674   3.121   4.215   6.348 -0.4298  1.2388  0.2826
 2925SOL    HW2 9675   3.257   4.300   6.317  0.9668 -0.7750  0.7164
 2926SOL     OW 9676   6.864   0.043   2.496  0.1334  0.7144  0.2460
 2926SOL    HW1 9677   6.873   0.110   2.422 -0.3119 -0.1281 -0.5900
 2926SOL    HW2 9678   6.845  -0.047   2.457  1.1476  0.0134  1.3338
 2927SOL     OW 9679   1.345   6.534   0.007 -0.4679  0.4091 -0.9908
 2927SOL    HW1 9680   1.318   6.489   0.092  1.9332 -1.6273 -1.1980
 2927SOL    HW2 9681   1.418   6.600   0.025 -1.3972  1.5352 -1.2255
 2928SOL     OW 9682   4.350   0.301   3.301  0.1718 -0.0316 -0.5514
 2928SOL    HW1 9683   4.255   0.334   3.296  0.6688  1.2989 -2.0672
 2928SOL    HW2 9684   4.365   0.235   3.228 -0.0566 -1.6468  0.8142
 2929SOL     OW 9685   3.097   3.320   2.717  0.3146 -0.0752 -0.7052
 2929SOL    HW1 9686   3.039   3.384   2.666  0.3256 -0.0017 -0.6269
 2929SOL    HW2 9687   3.164   3.280   2.656 -1.4380 -2.1237 -1.4021
 2930SOL     OW 9688   3.779   4.034   5.663  0.9843  0.1835  0.0290
 2930SOL    HW1 9689   3.774   4.033   5.763 -0.0672 -0.2500 -0.0199
 2930SOL    HW2 9690   3.701   4.083   5.626  0.2573 -1.3962 -0.6251
 2931SOL     OW 9691   5.036   2.726   4.207  0.0682  0.3552 -0.0852
 2931SOL    HW1 9692   4.944   2.722   4.246  0.0240  0.9940 -0.1050
 2931SOL    HW2 9693   5.099   2.672   4.263 -0.1277  0.7242  0.4971
 2932SOL     OW 9694   2.309   5.548   3.041  0.2832 -0.0880  0.4985
 2932SOL    HW1 9695   2.240   5.476   3.052  1.7324 -1.3618  1.5546
 2932SOL    HW2 9696   2.335   5.583   3.131  1.3120  0.0971  0.1355
 2933SOL     OW 9697   3.226   0.377   4.780  0.0969  0.3612 -0.5978
 2933SOL    HW1 9698   3.160   0.360   4.707  1.1866 -1.5602 -1.2217
 2933SOL    HW2 9699   3.195   0.331   4.864  0.1007  0.3660 -0.5939
 2934SOL     OW 9700   4.552   2.111   1.538  0.4291 -0.1876  0.5517
 2934SOL    HW1 9701   4.637   2.136   1.491 -0.5604 -2.0426 -2.5816
 2934SOL    HW2 9702   4.489   2.189   1.537  0.5465 -0.0845 -1.0605
 2935SOL     OW 9703   5.754   3.272   0.933 -0.3367 -0.0676  0.5662
 2935SOL    HW1 9704   5.719   3.249   1.024  0.1067 -0.7684  0.5702
 2935SOL    HW2 9705   5.853   3.286   0.938 -0.4445  0.8836  0.3661
 2936SOL     OW 9706   5.076   4.833   2.675 -0.3097  0.1434  0.2923
 2936SOL    HW1 9707   5.124   4.755   2.715 -1.6031 -1.3802 -1.0038
 2936SOL    HW2 9708   5.025   4.804   2.594 -1.4773  2.1869  0.2079
 2937SOL     OW 9709   3.079   0.184   4.914 -0.2437  0.4587  0.4610
 2937SOL    HW1 9710   3.016   0.242   4.862 -0.8663 -1.5342 -1.1526
 2937SOL    HW2 9711   3.034   0.097   4.936  1.4970 -0.5038  0.4273
 2938SOL     OW 9712   1.723   2.119   2.870  0.3631 -0.1752 -0.5868
 2938SOL    HW1 9713   1.736   2.193   2.936  0.8050 -1.1804  0.4761
 2938SOL    HW2 9714   1.635   2.132   2.823 -0.9826 -0.5221  1.6777
 2939SOL     OW 9715   1.411   5.295   6.500 -0.9839  0.7614  0.1463
 2939SOL    HW1 9716   1.442   5.389   6.504  1.1975  0.1111 -0.2361
 2939SOL    HW2 9717   1.392   5.270   6.405 -0.4538  0.4987  0.1049
 2940SOL     OW 9718   4.392   6.268   6.633  0.9237  1.1101 -0.1446
 2940SOL    HW1 9719   4.470   6.306   6.682  1.2558  0.4849 -0.1686
 2940SOL    HW2 9720   4.315   6.330   6.639  2.0144  2.7219 -1.8392
 2941SOL     OW 9721   3.491   2.150   6.300  0.2124  0.0332  0.3406
 2941SOL    HW1 9722   3.478   2.192   6.210  0.3290  1.0722  0.7991
 2941SOL    HW2 9723   3.570   2.088   6.296  1.0230  1.0487  0.0412
 2942SOL     OW 9724   0.855   0.442   0.163  0.7137  0.6680 -0.4197
 2942SOL    HW1 9725   0.776   0.503   0.164 -0.0368 -0.2761  0.6141
 2942SOL    HW2 9726   0.908   0.455   0.246  0.4299 -0.2263 -0.0945
 2943SOL     OW 9727   0.654   2.418   6.209  0.1772 -0.5047  0.0993
 2943SOL    HW1 9728   0.571   2.402   6.263 -0.5610  0.1451 -0.8192
 2943SOL    HW2 9729   0.696   2.330   6.187 -0.7040 -0.8941 -0.0936
 2944SOL     OW 9730   6.555   4.578   5.984 -0.7340 -0.2825 -0.4162
 2944SOL    HW1 9731   6.584   4.553   6.076 -3.1430  0.3098  0.5821
 2944SOL    HW2 9732   6.633   4.615   5.934  0.1887  1.5970  2.1754
 2945SOL     OW 9733   0.944   2.223   2.779 -0.3852 -0.1323  0.4551
 2945SOL    HW1 9734   0.899   2.139   2.809  1.8112 -1.8862 -0.8709
 2945SOL    HW2 9735   1.027   2.200   2.728  1.3145  2.9179  1.6335
 2946SOL     OW 9736   1.673   3.425   6.041  0.5717 -0.3447  0.6527
 2946SOL    HW1 9737   1.592   3.444   5.985  1.2898 -0.9878 -0.6499
 2946SOL    HW2 9738   1.652   3.444   6.137 -1.0232 -0.2222  0.3099
 2947SOL     OW 9739   0.822   1.807   2.296  0.2433  0.1472 -0.1032
 2947SOL    HW1 9740   0.894   1.873   2.317  2.3227 -2.0608  0.1340
 2947SOL    HW2 9741   0.840   1.766   2.206  0.1728 -1.5149  0.6066
 2948SOL     OW 9742   0.711   0.616   5.674 -0.3135 -0.2735 -0.2406
 2948SOL    HW1 9743   0.657   0.668   5.608  1.0617 -1.0358 -2.0489
 2948SOL    HW2 9744   0.732   0.674   5.753  0.8132  1.8476 -1.9694
 2949SOL     OW 9745   2.466   3.418   0.964  0.8325 -0.3820 -0.1599
 2949SOL    HW1 9746   2.417   3.502   0.941 -0.6412 -1.1748 -0.0266
 2949SOL    HW2 9747   2.481   3.365   0.880  2.3423  0.2962 -0.3387
 2950SOL     OW 9748   4.817   5.866   2.650  0.2511 -0.0779  0.3594
 2950SOL    HW1 9749   4.870   5.786   2.621 -0.7475 -0.4252 -0.6064
 2950SOL    HW2 9750   4.878   5.944   2.663  1.0890 -0.6761  0.0896
 2951SOL     OW 9751   5.641   0.533   1.897 -0.3560 -0.3575  0.3427
 2951SOL    HW1 9752   5.569   0.468   1.872 -0.3423 -0.3487  0.2808
 2951SOL    HW2 9753   5.730   0.495   1.872 -0.2893 -0.6252  0.9522
 2952SOL     OW 9754   5.654   4.270   0.033  0.0003  0.6621 -0.2060
 2952SOL    HW1 9755   5.752   4.272   0.012  0.7480  2.4628  2.7970
 2952SOL    HW2 9756   5.629   4.353   0.083 -2.6535 -0.6157  0.7702
 2953SOL     OW 9757   6.795   4.656   4.039 -0.5189  0.2595  0.3646
 2953SOL    HW1 9758   6.818   4.563   4.068  0.2666  0.2295 -0.3094
 2953SOL    HW2 9759   6.879   4.710   4.035 -0.7728  0.5890 -0.6551
 2954SOL     OW 9760   6.313   4.594   3.563  0.4778  0.0852 -0.6253
 2954SOL    HW1 9761   6.282   4.665   3.500 -1.6819 -0.3447 -0.1070
 2954SOL    HW2 9762   6.404   4.563   3.535  1.8282  3.4685 -0.4745
 2955SOL     OW 9763   1.245   6.157   3.816 -0.3286  0.1174 -0.0720
 2955SOL    HW1 9764   1.336   6.191   3.842 -0.5563  1.0596 -0.4532
 2955SOL    HW2 9765   1.193   6.134   3.899  0.2424 -0.4023  0.1459
 2956SOL     OW 9766   2.513   5.470   6.869  0.8023  0.6431  0.0131
 2956SOL    HW1 9767   2.454   5.550   6.879  0.5966  0.2642  2.8120
 2956SOL    HW2 9768   2.590   5.492   6.810 -0.7296  1.9745 -1.5666
 2957SOL     OW 9769   2.188   6.672   0.449 -0.1480  0.1740 -0.5332
 2957SOL    HW1 9770   2.185   6.743   0.520  1.9069 -1.2963  1.1609
 2957SOL    HW2 9771   2.245   6.704   0.373  0.5115  0.4842  0.0744
 2958SOL     OW 9772   6.197   1.886   4.617  0.8057  0.1356 -0.2739
 2958SOL    HW1 9773   6.103   1.912   4.596  0.7599 -0.5851 -1.0123
 2958SOL    HW2 9774   6.260   1.934   4.556  0.8637  0.0933 -0.2477
 2959SOL     OW 9775   6.544   4.083   1.978 -0.2421  0.1786  0.5650
 2959SOL    HW1 9776   6.644   4.080   1.979 -0.2189  0.4818 -0.3514
 2959SOL    HW2 9777   6.508   4.013   2.041  0.5330 -0.1092  0.7019
 2960SOL     OW 9778   1.411   5.578   4.670  0.3378  0.1899 -0.5785
 2960SOL    HW1 9779   1.327   5.631   4.666  1.3324  1.9136  0.0735
 2960SOL    HW2 9780   1.488   5.635   4.639  1.5758 -0.5733  0.9537
 2961SOL     OW 9781   3.740   5.547   4.482 -0.0903  0.1510  0.2784
 2961SOL    HW1 9782   3.833   5.516   4.461 -0.4452 -1.3320  0.7896
 2961SOL    HW2 9783   3.682   5.536   4.402 -0.3877 -1.2534  0.6680
 2962SOL     OW 9784   6.240   5.202   4.981  0.1142  0.2935 -0.1743
 2962SOL    HW1 9785   6.285   5.113   4.985  0.3174  0.4135  0.2951
 2962SOL    HW2 9786   6.156   5.199   5.037 -0.1137  0.2665 -0.5135
 2963SOL     OW 9787   6.559   0.275   4.869 -0.0389 -0.1420 -0.1624
 2963SOL    HW1 9788   6.625   0.345   4.894 -0.0484 -0.1983  0.0209
 2963SOL    HW2 9789   6.473   0.291   4.917  0.6957 -1.6386  1.7852
 2964SOL     OW 9790   4.404   2.206   5.098  0.3436  0.2396  0.0834
 2964SOL    HW1 9791   4.349   2.270   5.044  0.4259  0.5161  0.3239
 2964SOL    HW2 9792   4.403   2.234   5.194 -0.5550 -0.7672  0.3859
 2965SOL     OW 9793   3.863   5.089   5.894  0.2524  0.7763 -0.1660
 2965SOL    HW1 9794   3.830   5.006   5.848  1.7061  1.0930 -1.8713
 2965SOL    HW2 9795   3.792   5.160   5.888 -1.1725 -0.3899  1.6637
 2966SOL     OW 9796   0.475   1.124   6.592  0.0114  0.5730 -0.3593
 2966SOL    HW1 9797   0.449   1.145   6.498 -0.5598  0.6118 -0.1963
 2966SOL    HW2 9798   0.398   1.082   6.640  0.7548 -0.8108 -0.3292
 2967SOL     OW 9799   3.240   5.194   1.444  0.4830  0.6829 -0.2826
 2967SOL    HW1 9800   3.298   5.220   1.521  1.0932 -0.6568 -0.2658
 2967SOL    HW2 9801   3.296   5.167   1.366 -0.0981 -0.2187 -0.4099
 2968SOL     OW 9802   5.140   4.023   6.890  0.3713  0.3870  0.2049
 2968SOL    HW1 9803   5.174   3.971   6.811  1.5324  1.2830  0.0843
 2968SOL    HW2 9804   5.153   4.121   6.873  0.4436  0.5983  1.4286
 2969SOL     OW 9805   1.721   6.352   4.387  0.1047 -0.3464  0.0521
 2969SOL    HW1 9806   1.727   6.396   4.477  2.0164 -1.3289  0.4368
 2969SOL    HW2 9807   1.639   6.386   4.340 -1.5019 -0.5025  2.5116
 2970SOL     OW 9808   4.917   0.969   4.512  0.4446 -0.0654 -0.3726
 2970SOL    HW1 9809   4.905   1.064   4.538  0.4106 -0.2219  0.1930
 2970SOL    HW2 9810   4.832   0.919   4.530 -0.0150  0.0848 -1.9693
 2971SOL     OW 9811   5.979   5.483   2.741  0.1661 -0.2332 -0.2900
 2971SOL    HW1 9812   6.039   5.562   2.731  1.6368 -1.1272  0.9273
 2971SOL    HW2 9813   5.903   5.506   2.802 -0.2760  0.6656 -1.1627
 2972SOL     OW 9814   2.077   0.325   5.499 -0.5621  0.2985 -0.2280
 2972SOL    HW1 9815   2.048   0.231   5.518  0.9740  0.1225  1.5635
 2972SOL    HW2 9816   2.076   0.342   5.401  1.1801 -2.3015 -0.7866
 2973SOL     OW 9817   2.642   0.762   3.059  0.0867 -0.5080  0.5580
 2973SOL    HW1 9818   2.640   0.673   3.105  2.2231 -0.5451  0.6440
 2973SOL    HW2 9819   2.714   0.762   2.990  0.5880  1.3931  1.0373
 2974SOL     OW 9820   1.430   1.909   1.832  0.5478  0.0457  0.0275
 2974SOL    HW1 9821   1.340   1.952   1.820  0.5531 -0.1357 -0.6927
 2974SOL    HW2 9822   1.498   1.980   1.848 -0.0216  0.0971  2.7699
 2975SOL     OW 9823   5.883   5.288   6.212  0.8468  0.4923 -0.2096
 2975SOL    HW1 9824   5.925   5.260   6.298  0.3854  0.3316 -0.0302
 2975SOL    HW2 9825   5.837   5.209   6.170  2.5419  0.1330 -1.4915
 2976SOL     OW 9826   1.337   5.228   3.632  0.3076  0.1518  0.1824
 2976SOL    HW1 9827   1.347   5.129   3.642  2.1627  0.3032  0.0363
 2976SOL    HW2 9828   1.244   5.248   3.599  0.2797 -1.6233 -0.9645
 2977SOL     OW 9829   0.128   4.250   0.304 -0.1474  0.0459  0.4445
 2977SOL    HW1 9830   0.137   4.348   0.293  0.3091 -0.1039 -0.6144
 2977SOL    HW2 9831   0.132   4.226   0.401  0.8220  0.9621  0.6420
 2978SOL     OW 9832   6.825   2.664   0.743  0.6239  0.0965 -0.0277
 2978SOL    HW1 9833   6.807   2.588   0.807 -0.7489  0.2622 -0.2042
 2978SOL    HW2 9834   6.873   2.737   0.792 -0.6850  0.3502  0.9101
 2979SOL     OW 9835   5.433   1.382   1.593  0.0712  0.0536  0.0852
 2979SOL    HW1 9836   5.381   1.462   1.563 -0.5000  0.4295  1.9417
 2979SOL    HW2 9837   5.440   1.382   1.693 -1.2681 -3.0432  0.2847
 2980SOL     OW 9838   3.761   3.473   5.195  0.1598  0.2437  0.1147
 2980SOL    HW1 9839   3.783   3.491   5.099 -1.0225  0.3379 -0.1505
 2980SOL    HW2 9840   3.677   3.420   5.200  0.4732 -0.1801  1.0962
 2981SOL     OW 9841   6.050   4.274   5.739  0.5665 -0.3470  0.4162
 2981SOL    HW1 9842   5.990   4.218   5.682  0.5953  1.4350 -1.5259
 2981SOL    HW2 9843   6.129   4.220   5.769 -1.4563 -2.4801  2.2672
 2982SOL     OW 9844   4.565   3.573   0.336 -0.4385  0.0314  0.2333
 2982SOL    HW1 9845   4.562   3.473   0.334 -1.6070  0.0237  1.2797
 2982SOL    HW2 9846   4.477   3.610   0.306 -0.4407  0.7114  1.0562
 2983SOL     OW 9847   3.828   6.036   0.012  0.6108 -0.3227  0.7489
 2983SOL    HW1 9848   3.927   6.048   0.023  0.7707 -0.7284 -0.1854
 2983SOL    HW2 9849   3.784   6.126   0.009  1.0059 -0.1310  0.6329
 2984SOL     OW 9850   6.233   2.953   2.497 -0.4415  0.0762  0.1596
 2984SOL    HW1 9851   6.273   2.952   2.406 -0.0541  1.4653  0.2964
 2984SOL    HW2 9852   6.293   2.906   2.561 -0.4043 -0.3218 -0.1600
 2985SOL     OW 9853   3.996   1.497   1.021  0.0527  0.3430  0.3308
 2985SOL    HW1 9854   4.066   1.484   1.092  1.6809 -1.8003 -1.5230
 2985SOL    HW2 9855   3.976   1.594   1.011  1.8897  0.9202  1.7368
 2986SOL     OW 9856   5.287   2.516   5.200 -0.4060  0.1760 -0.4000
 2986SOL    HW1 9857   5.218   2.468   5.146 -1.1130  0.8462 -0.1061
 2986SOL    HW2 9858   5.254   2.527   5.294  0.3615 -0.0287 -0.0888
 2987SOL     OW 9859   1.841   0.993   4.228  0.5209 -0.1439  0.5796
 2987SOL    HW1 9860   1.925   0.942   4.213  0.7728  0.3945  0.1421
 2987SOL    HW2 9861   1.799   1.014   4.140 -0.7456 -1.5099  0.8158
 2988SOL     OW 9862   3.776   0.751   4.354  0.0059  0.3591 -0.6899
 2988SOL    HW1 9863   3.854   0.757   4.291  0.2583 -1.1714 -0.5570
 2988SOL    HW2 9864   3.806   0.709   4.440 -0.7298  0.8036 -0.2004
 2989SOL     OW 9865   3.427   1.448   6.082  0.3471 -0.2260 -0.0218
 2989SOL    HW1 9866   3.387   1.537   6.065  0.0104 -0.3987 -0.1372
 2989SOL    HW2 9867   3.507   1.434   6.023  0.4980  0.0628  0.1146
 2990SOL     OW 9868   1.630   1.347   4.358 -0.2004 -0.2180  0.2596
 2990SOL    HW1 9869   1.651   1.441   4.332 -0.7630 -0.1593 -0.0160
 2990SOL    HW2 9870   1.713   1.299   4.384  1.0468 -1.1641 -4.4477
 2991SOL     OW 9871   2.108   4.814   6.876 -0.2554 -0.0475 -0.2877
 2991SOL    HW1 9872   2.142   4.878   6.944 -0.1290  0.2513 -0.6302
 2991SOL    HW2 9873   2.065   4.864   6.801 -0.9631 -0.4006 -0.1251
 2992SOL     OW 9874   3.603   1.686   5.378  0.5668 -0.3034 -0.3186
 2992SOL    HW1 9875   3.556   1.743   5.310  1.3605 -0.2137 -0.7947
 2992SOL    HW2 9876   3.609   1.592   5.344  0.0453 -0.4871  0.0836
 2993SOL     OW 9877   1.285   4.777   1.951 -0.4112 -0.6596 -0.1253
 2993SOL    HW1 9878   1.299   4.766   2.049  0.0936  0.4303 -0.0661
 2993SOL    HW2 9879   1.361   4.734   1.902  0.4143  0.5735  0.0366
 2994SOL     OW 9880   5.105   0.810   1.626  0.1471 -0.2327 -0.5005
 2994SOL    HW1 9881   5.169   0.885   1.613  0.7337 -0.5610  0.3664
 2994SOL    HW2 9882   5.040   0.834   1.699  1.6096 -1.3181  1.2512
 2995SOL     OW 9883   6.868   6.341   4.768  0.0784 -0.4527  0.4761
 2995SOL    HW1 9884   6.820   6.333   4.680  0.3508  1.0067  0.1794
 2995SOL    HW2 9885   6.962   6.308   4.758  0.3178  0.3377  0.0260
 2996SOL     OW 9886   1.520   3.915   0.607 -1.2207  0.1035  0.2721
 2996SOL    HW1 9887   1.567   3.990   0.561 -0.1198 -1.0854 -0.6236
 2996SOL    HW2 9888   1.534   3.830   0.556 -0.6885 -1.1195  2.2963
 2997SOL     OW 9889   5.711   6.438   5.239 -0.5382 -0.1803  1.0526
 2997SOL    HW1 9890   5.738   6.418   5.333  0.8582 -0.2823  0.6538
 2997SOL    HW2 9891   5.723   6.536   5.221  3.1385 -0.7139 -0.1466
 2998SOL     OW 9892   5.718   3.543   1.636 -0.4470 -0.6735 -0.9482
 2998SOL    HW1 9893   5.718   3.641   1.659  0.1279 -1.4518  3.2694
 2998SOL    HW2 9894   5.812   3.510   1.633 -0.6357 -1.1386 -2.4921
 2999SOL     OW 9895   1.997   5.708   4.302  0.3127 -0.8040  0.0134
 2999SOL    HW1 9896   1.933   5.779   4.333  1.7984  0.3649  0.5206
 2999SOL    HW2 9897   1.946   5.625   4.280 -1.3131 -0.1007  0.9276
 3000SOL     OW 9898   6.612   5.914   4.947 -0.1116  0.2960  0.3021
 3000SOL    HW1 9899   6.599   5.815   4.951  1.2910  0.1242  1.8741
 3000SOL    HW2 9900   6.612   5.952   5.040 -2.2046  2.0482 -0.3146
 3001SOL     OW 9901   3.239   6.101   0.984 -0.2782 -0.4854 -0.0361
 3001SOL    HW1 9902   3.293   6.184   1.002 -0.0549 -0.6591  0.1117
 3001SOL    HW2 9903   3.196   6.108   0.894 -0.0188 -0.3352 -0.1508
 3002SOL     OW 9904   2.526   4.689   4.748  0.1748 -0.2742  0.5076
 3002SOL    HW1 9905   2.565   4.776   4.719 -1.0702  0.1486  0.0410
 3002SOL    HW2 9906   2.539   4.678   4.846 -0.4250  0.8501  0.7254
 3003SOL     OW 9907   6.542   0.975   0.150  0.4957  0.0531 -0.3074
 3003SOL    HW1 9908   6.587   0.945   0.066  1.7475 -2.3662  1.1047
 3003SOL    HW2 9909   6.543   0.900   0.217  0.5400  2.2084  2.2784
 3004SOL     OW 9910   0.074   1.459   3.692  0.3289  0.0328  0.2998
 3004SOL    HW1 9911   0.155   1.518   3.691  0.4837 -0.1897 -0.6135
 3004SOL    HW2 9912   0.086   1.384   3.627  0.0993 -0.9670  1.3663
 3005SOL     OW 9913   0.557   4.536   5.148  0.2364  0.2331  0.0453
 3005SOL    HW1 9914   0.626   4.535   5.076  0.4645  0.9319  0.2423
 3005SOL    HW2 9915   0.515   4.627   5.153  0.4327  0.2819  0.9787
 3006SOL     OW 9916   2.256   6.304   3.914 -0.2624  0.3886 -0.6657
 3006SOL    HW1 9917   2.257   6.289   3.815 -2.2014 -1.2919 -0.5080
 3006SOL    HW2 9918   2.169   6.344   3.941 -0.6783 -1.1948  0.5399
 3007SOL     OW 9919   4.570   2.381   5.677  0.1940 -0.2937  0.2476
 3007SOL    HW1 9920   4.502   2.420   5.615  0.1527 -0.5830  0.1079
 3007SOL    HW2 9921   4.532   2.375   5.769  0.9303  2.0009  0.7576
 3008SOL     OW 9922   6.546   0.412   2.723 -0.1932  0.0277 -0.5624
 3008SOL    HW1 9923   6.551   0.451   2.630 -1.0610  1.3472 -0.0955
 3008SOL    HW2 9924   6.462   0.444   2.767 -0.5460 -1.7887  0.1721
 3009SOL     OW 9925   1.209   5.892   1.541 -0.4075  0.2138  0.3729
 3009SOL    HW1 9926   1.243   5.915   1.450 -0.5468 -1.9032 -0.2707
 3009SOL    HW2 9927   1.153   5.967   1.575  1.2570  1.8801 -0.4216
 3010SOL     OW 9928   1.777   1.453   1.039  0.1619 -0.1290  0.6843
 3010SOL    HW1 9929   1.839   1.383   1.003 -1.7385 -0.9920 -1.0872
 3010SOL    HW2 9930   1.707   1.410   1.095 -1.2771  0.2174 -0.7705
 3011SOL     OW 9931   5.819   1.595   2.227 -0.2874  0.4341 -0.0091
 3011SOL    HW1 9932   5.806   1.613   2.324 -0.2659 -0.1413  0.1078
 3011SOL    HW2 9933   5.830   1.681   2.177 -3.9025  0.9916 -0.0652
 3012SOL     OW 9934   2.306   0.627   5.619 -0.6883 -0.0433  0.5724
 3012SOL    HW1 9935   2.254   0.542   5.631 -1.8569  0.2878 -1.5613
 3012SOL    HW2 9936   2.251   0.704   5.652 -0.1929  0.0279  1.2531
 3013SOL     OW 9937   5.974   4.528   2.448  0.2797  0.3179  0.0665
 3013SOL    HW1 9938   5.989   4.437   2.488  1.5850  1.0650  1.3664
 3013SOL    HW2 9939   6.050   4.551   2.388  0.1068  0.6754 -0.0152
 3014SOL     OW 9940   2.635   0.686   1.731  0.0095  0.2377 -0.6689
 3014SOL    HW1 9941   2.658   0.781   1.749  0.2481  0.6220 -2.7908
 3014SOL    HW2 9942   2.716   0.637   1.700 -0.0433 -0.7678  0.6691
 3015SOL     OW 9943   3.356   6.120   5.550 -0.0771  0.1725 -0.1077
 3015SOL    HW1 9944   3.395   6.059   5.620 -0.8888 -0.9630 -0.6262
 3015SOL    HW2 9945   3.430   6.165   5.501  0.5348 -0.2853  0.3717
 3016SOL     OW 9946   3.602   0.104   5.394 -0.0290 -0.0675  0.3120
 3016SOL    HW1 9947   3.645   0.083   5.306  0.4663 -1.2010  0.8073
 3016SOL    HW2 9948   3.504   0.091   5.387  0.0140 -0.2117 -0.0501
 3017SOL     OW 9949   2.184   2.611   2.196 -0.2397  0.1947 -0.3715
 3017SOL    HW1 9950   2.232   2.635   2.280  0.0032 -0.1232 -0.4145
 3017SOL    HW2 9951   2.085   2.613   2.211 -0.1975  0.2165 -0.1023
 3018SOL     OW 9952   0.080   5.324   0.642 -0.2368 -0.2017 -0.2996
 3018SOL    HW1 9953   0.145   5.372   0.584  0.5596 -0.6704  0.1877
 3018SOL    HW2 9954   0.073   5.370   0.731  1.1642 -1.4052  0.4791
 3019SOL     OW 9955   0.051   3.396   3.738 -0.0759 -0.2911  0.0027
 3019SOL    HW1 9956   0.097   3.315   3.702  0.2984 -0.5065  0.9468
 3019SOL    HW2 9957  -0.041   3.372   3.768  0.2563 -0.5026  0.8562
 3020SOL     OW 9958   6.199   6.378   0.563 -0.3307 -0.9320  0.0891
 3020SOL    HW1 9959   6.211   6.358   0.466 -1.9646 -0.2006 -0.2968
 3020SOL    HW2 9960   6.153   6.301   0.607 -0.4908 -0.8505  0.0646
 3021SOL     OW 9961   3.040   5.847   4.000 -0.7053  0.4266  0.9517
 3021SOL    HW1 9962   2.986   5.858   4.084 -1.3516  1.2797  0.4379
 3021SOL    HW2 9963   3.084   5.757   4.001  0.0193  0.7514  2.6126
 3022SOL     OW 9964   5.362   6.422   3.393 -0.3948  0.7157 -0.2062
 3022SOL    HW1 9965   5.388   6.358   3.465 -1.1099  0.7118  0.0527
 3022SOL    HW2 9966   5.444   6.454   3.346  0.0133  0.0903  0.0717
 3023SOL     OW 9967   2.191   2.065   0.111  0.1439  0.0413  0.3321
 3023SOL    HW1 9968   2.143   1.980   0.092 -0.9159  0.6198  0.3906
 3023SOL    HW2 9969   2.253   2.052   0.189 -2.4999  0.1822  2.5973
 3024SOL     OW 9970   5.694   1.764   7.015 -0.2027 -0.1921  0.6014
 3024SOL    HW1 9971   5.650   1.791   7.100 -0.5754 -1.3735  0.8082
 3024SOL    HW2 9972   5.741   1.676   7.028  1.5662  0.6448  0.1680
 3025SOL     OW 9973   3.741   6.513   6.488  0.7186 -0.4066  0.4189
 3025SOL    HW1 9974   3.829   6.518   6.442  1.1610  1.1131  1.3572
 3025SOL    HW2 9975   3.754   6.527   6.586 -0.7669  2.4348  0.3060
 3026SOL     OW 9976   1.896   0.796   2.323  0.0736  0.0454 -0.2293
 3026SOL    HW1 9977   1.796   0.807   2.324 -0.0542 -0.1784 -2.7035
 3026SOL    HW2 9978   1.936   0.865   2.263  1.0498 -1.7246 -1.7453
 3027SOL     OW 9979   5.318   2.911   5.071  0.5642 -0.4847 -0.0176
 3027SOL    HW1 9980   5.220   2.926   5.058  0.1826 -1.4541  1.4336
 3027SOL    HW2 9981   5.344   2.822   5.035  0.7798 -0.4871  0.1382
 3028SOL     OW 9982   1.624   0.763   1.341 -0.4758 -0.1416 -0.0993
 3028SOL    HW1 9983   1.570   0.753   1.257  0.7655  0.9067 -1.0635
 3028SOL    HW2 9984   1.624   0.676   1.390 -2.0944 -0.4803 -0.6282
 3029SOL     OW 9985   1.306   6.824   0.892  0.4949 -0.8014 -0.2953
 3029SOL    HW1 9986   1.266   6.737   0.862  1.4652 -0.1774 -3.9296
 3029SOL    HW2 9987   1.237   6.896   0.885  1.1835 -0.2903 -3.4844
 3030SOL     OW 9988   5.358   3.999   5.646 -0.4787  0.1715  0.1621
 3030SOL    HW1 9989   5.361   4.095   5.620 -1.4043  0.6712  1.7727
 3030SOL    HW2 9990   5.383   3.989   5.743  2.5548 -1.5666 -0.6555
 3031SOL     OW 9991   0.333   6.617   1.966 -0.1294 -0.1480  0.2245
 3031SOL    HW1 9992   0.422   6.584   1.935 -0.2439  0.1774 -0.4758
 3031SOL    HW2 9993   0.285   6.659   1.889 -1.3676 -1.3553  0.2926
 3032SOL     OW 9994   4.477   4.888   1.149  0.1688 -0.0456 -0.1740
 3032SOL    HW1 9995   4.480   4.929   1.058 -2.9643 -0.5149 -0.6006
 3032SOL    HW2 9996   4.400   4.925   1.201  1.2745 -0.5312  1.9460
 3033SOL     OW 9997   5.395   5.285   3.009 -0.4912  0.0358  0.4179
 3033SOL    HW1 9998   5.408   5.254   2.915  0.7248  1.3937  0.0931
 3033SOL    HW2 9999   5.304   5.327   3.018 -0.3542  0.5177 -0.3481
 3034SOL     OW10000   1.535   3.546   7.006 -0.4911  0.0071  0.5135
 3034SOL    HW110001   1.533   3.615   7.078  0.9628  0.2119  0.3939
 3034SOL    HW210002   1.612   3.484   7.022 -1.5465 -1.3756  0.4124
 3035SOL     OW10003   5.553   1.576   5.689  0.0229 -0.2567  0.2442
 3035SOL    HW110004   5.476   1.623   5.647  1.1427  1.4415 -0.0152
 3035SOL    HW210005   5.637   1.628   5.673  0.9452 -1.0402  2.1439
 3036SOL     OW10006   1.599   2.108   1.983 -0.1158  0.1605  0.4715
 3036SOL    HW110007   1.558   2.092   2.073 -0.7252 -1.1379 -0.0063
 3036SOL    HW210008   1.699   2.109   1.992 -0.1767  1.8179  1.4098
 3037SOL     OW10009   0.241   0.526   6.152 -0.0856  0.8800 -0.1322
 3037SOL    HW110010   0.218   0.497   6.059 -1.4293  0.2985  0.3621
 3037SOL    HW210011   0.262   0.624   6.152  0.2862  0.8169 -1.0950
 3038SOL     OW10012   6.825   1.800   3.389  0.1147 -0.0686 -0.4656
 3038SOL    HW110013   6.867   1.878   3.341  0.5029 -0.0137 -0.0433
 3038SOL    HW210014   6.872   1.716   3.362  3.4575  0.3775  3.1183
 3039SOL     OW10015   2.020   3.273   6.615 -0.2258  0.2138 -0.2465
 3039SOL    HW110016   2.058   3.314   6.532  0.7250 -0.9578 -0.4063
 3039SOL    HW210017   1.926   3.242   6.597  0.0945 -0.3545 -0.9943
 3040SOL     OW10018   5.738   1.545   4.384  0.1139 -0.7389  0.3199
 3040SOL    HW110019   5.747   1.623   4.446 -0.2077 -0.0830 -0.4310
 3040SOL    HW210020   5.686   1.472   4.428 -1.4448  0.3113  0.2880
 3041SOL     OW10021   6.453   2.867   2.622  0.4020 -0.4647  0.3257
 3041SOL    HW110022   6.524   2.928   2.585 -0.7620  1.1087  0.5714
 3041SOL    HW210023   6.473   2.849   2.719  0.9118 -0.7152  0.1784
 3042SOL     OW10024   3.944   2.904   5.674 -0.0491 -0.3917  0.0674
 3042SOL    HW110025   3.943   2.994   5.716 -0.1893  0.7151 -2.1733
 3042SOL    HW210026   3.984   2.838   5.738 -2.8150  0.5354  3.0425
 3043SOL     OW10027   7.020   4.144   3.198 -0.6399 -0.4189 -0.8611
 3043SOL    HW110028   7.102   4.200   3.182 -1.1419  1.0485  1.2533
 3043SOL    HW210029   7.000   4.091   3.116  2.5728 -1.0554 -1.3896
 3044SOL     OW10030   6.459   4.654   0.250  0.0649 -0.2236  0.4631
 3044SOL    HW110031   6.516   4.665   0.169  0.8311  1.1342  1.1417
 3044SOL    HW210032   6.395   4.730   0.257 -0.2516 -0.5271  0.9282
 3045SOL     OW10033   3.466   2.871   5.899  0.1656  0.5669  0.3807
 3045SOL    HW110034   3.529   2.919   5.839 -2.0191 -0.1606 -2.7785
 3045SOL    HW210035   3.467   2.773   5.877 -2.3773  0.6055 -0.2514
 3046SOL     OW10036   0.588   4.941   6.293 -0.1756  0.0363 -0.2721
 3046SOL    HW110037   0.644   4.867   6.330 -1.1275 -0.4348  0.2434
 3046SOL    HW210038   0.531   4.980   6.365  0.1974  1.1855 -0.5657
 3047SOL     OW10039   0.857   4.064   3.742 -0.1948 -0.4426 -0.4316
 3047SOL    HW110040   0.930   4.133   3.735  0.9069 -1.4766  0.4698
 3047SOL    HW210041   0.861   4.003   3.663 -2.2255  1.4338 -2.1136
 3048SOL     OW10042   3.706   1.587   5.594 -0.0615  0.3017  0.0992
 3048SOL    HW110043   3.677   1.648   5.520  1.2665 -0.4024 -1.0667
 3048SOL    HW210044   3.683   1.492   5.570  1.5033 -0.0733 -0.0570
 3049SOL     OW10045   2.665   2.367   2.528 -0.3624  0.2158  0.3753
 3049SOL    HW110046   2.751   2.320   2.547 -1.1059 -0.5942  2.0057
 3049SOL    HW210047   2.668   2.406   2.436  1.3160 -0.7266 -0.0250
 3050SOL     OW10048   3.149   4.000   3.918  0.1014 -0.3421 -0.1672
 3050SOL    HW110049   3.064   3.999   3.970  0.6001  0.4318  0.6973
 3050SOL    HW210050   3.154   3.919   3.860 -1.5309 -0.0577 -0.7604
 3051SOL     OW10051   6.681   6.000   0.272  0.3517  0.3846 -0.5170
 3051SOL    HW110052   6.658   6.057   0.193  1.2454 -0.8848 -1.7129
 3051SOL    HW210053   6.712   6.059   0.347  1.0511  1.4920 -1.6463
 3052SOL     OW10054   3.162   1.333   3.385 -0.0945 -0.7541 -0.1158
 3052SOL    HW110055   3.150   1.298   3.292  0.5820 -0.0380 -0.4843
 3052SOL    HW210056   3.078   1.319   3.437 -1.2837  0.8563 -1.5020
 3053SOL     OW10057   0.795   4.435   3.841 -0.1056  1.0228  0.0165
 3053SOL    HW110058   0.870   4.468   3.900  0.1354  3.5754 -1.5522
 3053SOL    HW210059   0.743   4.366   3.890 -0.0442  3.0853  3.3451
 3054SOL     OW10060   6.640   2.189   4.889  0.5483  0.0823  0.2593
 3054SOL    HW110061   6.736   2.174   4.914  1.0619  2.4041 -0.1148
 3054SOL    HW210062   6.605   2.269   4.938  0.1056  1.8056 -2.6275
 3055SOL     OW10063   5.661   3.606   3.049  0.0916 -0.7025 -0.2196
 3055SOL    HW110064   5.628   3.614   2.955 -0.5940  0.5921  0.1007
 3055SOL    HW210065   5.756   3.636   3.053  0.2515 -1.1559 -0.5678
 3056SOL     OW10066   6.658   1.461   6.960  0.9476 -0.0776  0.3779
 3056SOL    HW110067   6.601   1.509   6.894  1.0563 -0.5010 -0.0279
 3056SOL    HW210068   6.601   1.426   7.034  0.9460  1.2375  1.0333
 3057SOL     OW10069   5.456   3.753   5.165  0.4099  0.5325  0.2689
 3057SOL    HW110070   5.469   3.681   5.097 -1.3017  0.6480 -0.2308
 3057SOL    HW210071   5.456   3.842   5.119 -3.4244  0.4781 -0.1114
 3058SOL     OW10072   5.035   0.706   4.842 -0.4052  0.0134 -0.0042
 3058SOL    HW110073   4.979   0.761   4.780 -1.1656  0.8542  1.3792
 3058SOL    HW210074   4.994   0.615   4.852 -0.5468  0.0376 -0.3553
 3059SOL     OW10075   1.397   3.497   4.336  0.2830  0.4440 -0.0765
 3059SOL    HW110076   1.482   3.540   4.308  0.6619 -0.9641 -1.2369
 3059SOL    HW210077   1.416   3.404   4.368 -0.6866  0.5199  0.7746
 3060SOL     OW10078   3.893   6.804   6.711 -0.1644  0.2914  0.0351
 3060SOL    HW110079   3.901   6.820   6.612 -0.1494  1.4077  0.2036
 3060SOL    HW210080   3.847   6.717   6.727 -0.9438  0.4956 -0.9689
 3061SOL     OW10081   3.310   5.600   1.350 -0.4318  0.4224  0.5667
 3061SOL    HW110082   3.273   5.550   1.428  0.2460  0.1392  0.7108
 3061SOL    HW210083   3.392   5.554   1.316 -0.0920  1.1470  0.3773
 3062SOL     OW10084   5.027   2.505   0.563 -0.2041  0.0099  0.1804
 3062SOL    HW110085   4.952   2.523   0.626 -1.4834 -2.4406 -0.4784
 3062SOL    HW210086   5.029   2.575   0.492 -1.9068  0.1436  0.2167
 3063SOL     OW10087   4.488   1.116   0.286 -0.2478 -0.2661 -0.3077
 3063SOL    HW110088   4.548   1.170   0.344 -0.0835  1.5895 -2.1020
 3063SOL    HW210089   4.520   1.021   0.284  0.5724 -0.0633  1.4298
 3064SOL     OW10090   5.765   3.940   6.923  0.0765 -0.0820 -0.0871
 3064SOL    HW110091   5.755   4.003   6.846  1.7832  1.7924  1.1120
 3064SOL    HW210092   5.849   3.887   6.913 -0.2475 -0.6160 -0.0272
 3065SOL     OW10093   2.259   2.869   4.247  0.1971 -0.6610  0.1603
 3065SOL    HW110094   2.263   2.871   4.147  2.0605 -2.3103  0.1315
 3065SOL    HW210095   2.320   2.796   4.281  0.2807  0.4322  2.5259
 3066SOL     OW10096   4.683   0.338   2.128  0.0855 -0.0347 -0.8240
 3066SOL    HW110097   4.598   0.364   2.172  0.2294 -0.6119 -0.1828
 3066SOL    HW210098   4.724   0.261   2.178  0.9927  0.2558 -1.1049
 3067SOL     OW10099   4.483   3.539   5.316  0.0600 -0.1491 -0.1384
 3067SOL    HW110100   4.491   3.443   5.342 -2.4139 -0.4346 -0.1717
 3067SOL    HW210101   4.548   3.559   5.243 -0.5435 -2.3102 -1.3842
 3068SOL     OW10102   2.365   3.615   1.527 -0.0534 -0.2702 -0.1392
 3068SOL    HW110103   2.387   3.695   1.583  1.1009 -0.4763 -0.2631
 3068SOL    HW210104   2.419   3.537   1.558  0.4275 -0.4492 -1.3722
 3069SOL     OW10105   3.397   3.439   0.155 -0.0714 -0.4495  0.2986
 3069SOL    HW110106   3.358   3.522   0.194 -0.2490 -0.5689  0.3758
 3069SOL    HW210107   3.339   3.361   0.178  0.4467 -0.6974  0.7958
 3070SOL     OW10108   5.299   5.816   5.278 -0.0240  0.0811  0.1582
 3070SOL    HW110109   5.336   5.909   5.283 -0.1843  0.0949  1.2057
 3070SOL    HW210110   5.205   5.819   5.244 -0.5202  0.4478  1.5106
 3071SOL     OW10111   5.217   4.341   3.859 -0.0987 -0.3324 -0.1416
 3071SOL    HW110112   5.271   4.279   3.802 -0.1149 -1.1760  0.7368
 3071SOL    HW210113   5.123   4.344   3.824  0.1022 -0.1524 -0.6829
 3072SOL     OW10114   4.603   2.553   0.337  0.3433 -0.9526 -0.6203
 3072SOL    HW110115   4.673   2.504   0.285  2.1396 -0.5860  1.3165
 3072SOL    HW210116   4.647   2.619   0.398 -1.5743 -1.9302  1.9752
 3073SOL     OW10117   5.672   6.798   6.229 -0.4214 -0.4336 -0.3629
 3073SOL    HW110118   5.610   6.785   6.151  0.8710 -1.2883 -1.2995
 3073SOL    HW210119   5.657   6.725   6.296  0.1453 -1.1538 -1.0027
 3074SOL     OW10120   2.901   3.552   4.424  0.1251 -0.0341 -0.1789
 3074SOL    HW110121   2.934   3.480   4.485  1.9081  0.6420 -0.2817
 3074SOL    HW210122   2.915   3.524   4.329  0.4022  0.2497 -0.2237
 3075SOL     OW10123   0.293   1.663   2.848  0.4601 -0.5909 -0.2569
 3075SOL    HW110124   0.234   1.742   2.866 -0.2517 -1.2420  0.3875
 3075SOL    HW210125   0.259   1.614   2.768  0.5863 -0.5323 -0.3454
 3076SOL     OW10126   5.063   1.795   6.499  0.2050 -0.0867 -0.1597
 3076SOL    HW110127   5.099   1.716   6.549  0.4164 -0.0032 -0.1782
 3076SOL    HW210128   5.138   1.842   6.452  0.1889  0.5012  0.3837
 3077SOL     OW10129   2.591   1.611   3.610  0.5464  0.0049  0.5266
 3077SOL    HW110130   2.652   1.665   3.552 -1.6457  0.1343 -1.8294
 3077SOL    HW210131   2.638   1.527   3.639  1.6942 -0.1445 -1.5931
 3078SOL     OW10132   6.981   4.234   4.596  0.0490  0.5756  0.1850
 3078SOL    HW110133   7.008   4.301   4.528 -0.5692  0.5732 -0.0658
 3078SOL    HW210134   6.974   4.143   4.554  2.6130 -0.0451  0.8614
 3079SOL     OW10135   0.731   5.360   3.448  0.6325 -0.2359 -0.0081
 3079SOL    HW110136   0.723   5.364   3.548  0.9257  0.9345 -0.0215
 3079SOL    HW210137   0.691   5.274   3.415  0.0753 -0.4047  1.0658
 3080SOL     OW10138   5.491   0.202   5.493  0.8010 -0.4244  0.1048
 3080SOL    HW110139   5.586   0.227   5.476  0.4609  0.6720 -0.2533
 3080SOL    HW210140   5.453   0.156   5.413  0.9496 -0.6443  0.1583
 3081SOL     OW10141   0.346   2.486   3.568 -0.0808 -0.2170  0.4511
 3081SOL    HW110142   0.357   2.585   3.578  0.3586 -0.2593  0.3966
 3081SOL    HW210143   0.275   2.454   3.631 -1.4241  0.3819 -0.6865
 3082SOL     OW10144   6.911   4.622   0.228  0.1652  0.0077  0.3168
 3082SOL    HW110145   6.898   4.613   0.327  2.1817 -1.6607  0.4985
 3082SOL    HW210146   6.887   4.536   0.183  2.4876 -0.4453 -0.1942
 3083SOL     OW10147   3.431   6.838   0.722  0.1066 -0.3276 -0.4757
 3083SOL    HW110148   3.496   6.911   0.744  0.0889 -0.8891  1.6699
 3083SOL    HW210149   3.466   6.784   0.645  0.8190  1.0236 -1.1359
 3084SOL     OW10150   3.966   6.581   4.039 -0.0891 -0.2506 -0.4878
 3084SOL    HW110151   3.933   6.665   3.996 -0.3814 -1.1522 -2.1128
 3084SOL    HW210152   3.937   6.503   3.985  0.8347 -1.3688  0.5765
 3085SOL     OW10153   6.638   2.374   2.525  0.3025 -0.3729 -0.3384
 3085SOL    HW110154   6.667   2.407   2.615 -1.4395  2.4437 -0.7000
 3085SOL    HW210155   6.670   2.437   2.455  0.4117 -1.7729 -1.5938
 3086SOL     OW10156   5.481   5.247   1.181  0.1037  0.0219  0.2084
 3086SOL    HW110157   5.477   5.251   1.281 -0.6355  0.5180  0.1658
 3086SOL    HW210158   5.471   5.152   1.151  1.1440 -0.2338  0.6274
 3087SOL     OW10159   2.748   0.522   4.803  0.6126  0.2062 -0.3921
 3087SOL    HW110160   2.746   0.612   4.846 -0.3385 -0.6163  1.3860
 3087SOL    HW210161   2.659   0.502   4.762  0.8341  0.0716 -0.8191
 3088SOL     OW10162   3.792   3.620   3.096  0.0298 -0.3658  0.1138
 3088SOL    HW110163   3.778   3.558   3.173 -0.3725 -2.0650 -1.2427
 3088SOL    HW210164   3.890   3.637   3.084  0.1139 -0.3483  0.8011
 3089SOL     OW10165   5.138   4.371   1.741  0.1890  0.0982  0.1605
 3089SOL    HW110166   5.213   4.360   1.806 -0.5532  2.5176  1.5455
 3089SOL    HW210167   5.156   4.316   1.660  2.3260 -1.1459  1.3969
 3090SOL     OW10168   6.379   1.703   6.529 -0.3958  0.6650 -0.4908
 3090SOL    HW110169   6.442   1.731   6.457  0.5327 -2.7507 -1.1822
 3090SOL    HW210170   6.356   1.606   6.517 -0.1215 -0.1261  3.8303
 3091SOL     OW10171   2.781   3.707   0.683 -0.0852  0.5950 -0.1918
 3091SOL    HW110172   2.768   3.767   0.604 -2.6288  1.8101  1.0425
 3091SOL    HW210173   2.843   3.750   0.748  0.9539  0.1887 -0.8807
 3092SOL     OW10174   2.116   1.675   0.837  0.3084 -0.2831  0.6952
 3092SOL    HW110175   2.077   1.643   0.751  0.1272 -0.0120  0.6761
 3092SOL    HW210176   2.062   1.640   0.913 -0.2942  0.5233  0.6502
 3093SOL     OW10177   3.922   5.136   6.170  0.3636  0.1833 -0.1538
 3093SOL    HW110178   3.937   5.111   6.074  1.7784 -1.9484  0.5375
 3093SOL    HW210179   3.948   5.231   6.184  0.0317  0.5695 -1.8867
 3094SOL     OW10180   6.589   5.734   0.300 -0.0914  0.0498  0.0180
 3094SOL    HW110181   6.612   5.831   0.307 -1.0233  0.1864  1.4018
 3094SOL    HW210182   6.669   5.679   0.323 -0.0992  0.5101  1.2081
 3095SOL     OW10183   0.406   4.327   2.434  0.3483 -0.0247  0.3607
 3095SOL    HW110184   0.332   4.393   2.422  0.7199  0.3959  0.3490
 3095SOL    HW210185   0.384   4.243   2.385  0.0020  0.1977  0.1306
 3096SOL     OW10186   2.157   5.664   1.540 -0.4832 -0.0673  0.1913
 3096SOL    HW110187   2.171   5.616   1.627 -0.5010  0.8400  0.7055
 3096SOL    HW210188   2.069   5.711   1.541 -1.1196 -1.1810 -0.8691
 3097SOL     OW10189   1.149   1.740   4.383  0.6131 -0.0768  0.3079
 3097SOL    HW110190   1.143   1.717   4.480 -2.3419 -0.7287  0.0671
 3097SOL    HW210191   1.158   1.656   4.329 -0.1626  0.0620 -0.0624
 3098SOL     OW10192   4.835   1.961   1.211 -0.1380  0.0781  0.3440
 3098SOL    HW110193   4.778   2.031   1.255  1.9949  1.3694  1.1729
 3098SOL    HW210194   4.898   2.005   1.147  1.0681 -1.1170  0.6890
 3099SOL     OW10195   5.221   0.023   1.030 -0.2285  0.3393 -0.1477
 3099SOL    HW110196   5.314   0.018   0.994 -0.5572  0.9716 -1.1080
 3099SOL    HW210197   5.187  -0.070   1.045  0.4004  0.0953 -0.1766
 3100SOL     OW10198   2.659   6.484   6.923  0.0572  0.5702  0.1110
 3100SOL    HW110199   2.591   6.449   6.859  1.6979  0.0902 -1.4619
 3100SOL    HW210200   2.671   6.582   6.909 -0.1966  0.6268  0.2861
 3101SOL     OW10201   5.636   0.549   4.212  0.8107  0.2990  0.3994
 3101SOL    HW110202   5.546   0.544   4.254  0.7609  0.4810  0.3151
 3101SOL    HW210203   5.631   0.509   4.120  0.7423  0.5980  0.2725
 3102SOL     OW10204   1.810   3.593   6.919 -0.3399  0.2881  0.7958
 3102SOL    HW110205   1.800   3.502   6.878 -0.3103  0.3336  0.6862
 3102SOL    HW210206   1.784   3.590   7.015  0.3788 -0.0019  0.9869
 3103SOL     OW10207   2.905   2.605   5.633 -0.7941 -0.1234  0.0815
 3103SOL    HW110208   2.885   2.678   5.698 -0.5300 -0.0593  0.0929
 3103SOL    HW210209   2.994   2.564   5.655 -0.6192  0.0229 -0.3505
 3104SOL     OW10210   6.148   5.281   4.628  0.2958 -0.2336  0.0425
 3104SOL    HW110211   6.104   5.362   4.589 -0.9239 -0.4231  0.9773
 3104SOL    HW210212   6.095   5.248   4.706  2.0715 -0.5185  1.1848
 3105SOL     OW10213   6.393   5.354   4.394 -0.3286  0.2108 -0.5428
 3105SOL    HW110214   6.320   5.411   4.356 -0.4426  1.6646  1.6564
 3105SOL    HW210215   6.358   5.303   4.473  1.1009  1.3542  0.9035
 3106SOL     OW10216   1.111   0.155   0.387  0.2313 -0.0129  0.2403
 3106SOL    HW110217   1.021   0.158   0.343  0.0540  2.4624  0.6028
 3106SOL    HW210218   1.168   0.229   0.350  1.5380 -0.4873  1.2316
 3107SOL     OW10219   0.510   4.704   2.355  0.1446  0.5437  0.5406
 3107SOL    HW110220   0.430   4.657   2.395  0.6070 -0.7611 -0.0000
 3107SOL    HW210221   0.505   4.698   2.255  1.6528 -0.8877  0.5098
 3108SOL     OW10222   5.958   5.561   6.176 -0.5366 -0.0711  0.4927
 3108SOL    HW110223   5.867   5.593   6.150  0.9332  2.9794 -1.4256
 3108SOL    HW210224   5.958   5.461   6.181 -3.1916 -0.4136 -2.8044
 3109SOL     OW10225   0.301   1.121   2.895  0.3117  0.2710 -0.2094
 3109SOL    HW110226   0.315   1.028   2.928 -0.6849 -0.2079 -1.0559
 3109SOL    HW210227   0.203   1.142   2.895  0.3497  0.5944 -1.8680
 3110SOL     OW10228   3.287   2.148   3.614 -0.3181  0.5966 -0.9534
 3110SOL    HW110229   3.237   2.234   3.613 -0.7887  0.3366 -0.4855
 3110SOL    HW210230   3.239   2.080   3.559 -0.8201  0.1704 -0.0153
 3111SOL     OW10231   2.978   6.953   4.969  0.4788  0.0526  0.3614
 3111SOL    HW110232   3.042   6.902   4.912  1.0596  1.7477 -0.5601
 3111SOL    HW210233   2.887   6.950   4.928  0.7379  0.6369 -0.2646
 3112SOL     OW10234   5.354   0.399   3.959 -0.0016  0.4813 -0.3167
 3112SOL    HW110235   5.449   0.426   3.943  0.0252 -0.8426 -3.0749
 3112SOL    HW210236   5.349   0.300   3.974 -0.9293  0.5304 -0.2236
 3113SOL     OW10237   4.024   4.823   3.271  0.3958 -0.3540 -0.1619
 3113SOL    HW110238   4.062   4.802   3.361  1.0833 -1.4713 -0.6899
 3113SOL    HW210239   4.094   4.810   3.201 -0.8292 -2.1198 -1.1281
 3114SOL     OW10240   2.951   1.636   2.508  0.0582  0.7427  0.6701
 3114SOL    HW110241   2.919   1.590   2.591  0.1863  1.6121  1.2219
 3114SOL    HW210242   2.973   1.568   2.438  0.4829 -0.0389  1.5409
 3115SOL     OW10243   2.946   2.450   6.198 -0.1277  1.3686 -0.5960
 3115SOL    HW110244   2.968   2.464   6.294 -1.7526  0.8837 -0.1135
 3115SOL    HW210245   3.021   2.402   6.153  0.2820  0.8171  0.6379
 3116SOL     OW10246   3.060   3.377   1.981 -0.2830 -0.5031  0.2267
 3116SOL    HW110247   3.144   3.359   2.032  0.1566 -2.4023 -1.0753
 3116SOL    HW210248   2.981   3.350   2.035 -0.0071  0.0394  0.9257
 3117SOL     OW10249   6.999   2.956   2.458 -0.4611 -0.4952 -0.1247
 3117SOL    HW110250   7.055   2.892   2.405  0.5143  0.1352  0.1117
 3117SOL    HW210251   7.057   3.028   2.495 -1.7067  1.2317 -1.3915
 3118SOL     OW10252   4.894   0.120   5.545  0.0415 -0.4510 -0.6075
 3118SOL    HW110253   4.832   0.178   5.492  0.5990  2.0384  1.2731
 3118SOL    HW210254   4.948   0.064   5.483 -0.0549  1.5530 -2.6504
 3119SOL     OW10255   2.049   3.337   2.427 -0.2547 -0.0469 -0.0293
 3119SOL    HW110256   2.043   3.294   2.517 -0.0207  0.3096  0.1592
 3119SOL    HW210257   2.101   3.422   2.435  2.9810 -1.7545 -1.1469
 3120SOL     OW10258   3.322   0.065   5.352 -0.0766 -0.3737  0.4875
 3120SOL    HW110259   3.290   0.110   5.268  0.2280  0.2280  0.6866
 3120SOL    HW210260   3.246   0.017   5.395  0.0527 -1.8039 -0.8234
 3121SOL     OW10261   0.327   2.142   4.263 -0.4628  0.3921  0.3783
 3121SOL    HW110262   0.306   2.076   4.336  0.2104  1.1924  1.3156
 3121SOL    HW210263   0.421   2.173   4.271 -0.5442  0.9164 -0.5101
 3122SOL     OW10264   4.528   5.055   4.250  0.8607 -0.4577 -0.9424
 3122SOL    HW110265   4.557   5.014   4.163  1.3923 -0.3781 -0.8024
 3122SOL    HW210266   4.584   5.020   4.324  0.6801 -0.2080 -0.6860
 3123SOL     OW10267   5.264   4.980   1.320 -0.1709 -0.0190  0.1650
 3123SOL    HW110268   5.249   4.943   1.412 -1.4332 -0.9460 -0.3776
 3123SOL    HW210269   5.332   4.924   1.273  0.1391  0.1793  0.3738
 3124SOL     OW10270   4.789   2.212   3.656 -0.8561  0.2247  0.3182
 3124SOL    HW110271   4.888   2.198   3.662 -1.0464 -1.8655 -0.6177
 3124SOL    HW210272   4.763   2.222   3.560 -1.6998 -0.5553  0.4545
 3125SOL     OW10273   1.491   4.366   3.766 -0.6261 -0.1192  0.4935
 3125SOL    HW110274   1.550   4.309   3.708 -0.6256 -2.3242  2.4916
 3125SOL    HW210275   1.453   4.440   3.712  0.5394 -1.1675 -1.9320
 3126SOL     OW10276   2.896   5.943   2.780 -0.3218 -0.5863  0.7377
 3126SOL    HW110277   2.901   5.997   2.864  0.1822 -0.2590  0.5014
 3126SOL    HW210278   2.869   6.002   2.704 -1.6986 -1.0680  0.8336
 3127SOL     OW10279   6.618   2.325   0.954 -0.4808 -0.6070 -0.0606
 3127SOL    HW110280   6.609   2.295   0.859  1.2005  0.9325 -0.7619
 3127SOL    HW210281   6.548   2.394   0.974 -0.8565 -0.9548 -0.1782
 3128SOL     OW10282   2.654   0.450   5.134 -0.7349 -0.2702  0.1808
 3128SOL    HW110283   2.588   0.491   5.071 -1.7988 -0.8313  0.8914
 3128SOL    HW210284   2.605   0.409   5.211  0.3617 -1.9374  0.0271
 3129SOL     OW10285   2.094   0.705   6.121 -0.1469 -0.5388 -0.4965
 3129SOL    HW110286   2.069   0.693   6.025  0.7317 -2.3824 -0.5489
 3129SOL    HW210287   2.185   0.746   6.126 -1.4263  2.5122 -0.3541
 3130SOL     OW10288   0.638   5.580   1.263  0.0843  0.1597 -0.1123
 3130SOL    HW110289   0.587   5.659   1.227 -0.2629  0.1728  0.4016
 3130SOL    HW210290   0.704   5.612   1.330  3.0883  0.5771 -3.0071
 3131SOL     OW10291   5.690   2.230   6.142  0.0346 -0.4196  0.2782
 3131SOL    HW110292   5.708   2.259   6.236  1.0017  1.0063 -0.3140
 3131SOL    HW210293   5.653   2.307   6.091 -0.2823 -1.1276 -0.5777
 3132SOL     OW10294   1.294   5.819   3.459 -0.5229  0.1882  0.0483
 3132SOL    HW110295   1.285   5.771   3.372 -2.8188  1.9778 -0.8325
 3132SOL    HW210296   1.369   5.780   3.512 -1.0964 -3.0673 -1.3233
 3133SOL     OW10297   5.633   1.327   3.718 -0.5265  0.0303  0.1854
 3133SOL    HW110298   5.603   1.344   3.812 -0.7417 -0.6907  0.2515
 3133SOL    HW210299   5.732   1.336   3.712 -0.6001  1.0343  0.2687
 3134SOL     OW10300   0.166   1.937   0.769  0.1621  0.1308 -0.6472
 3134SOL    HW110301   0.250   1.946   0.823 -0.2368  1.8948 -0.2689
 3134SOL    HW210302   0.135   1.842   0.771  0.2181  0.0905  2.1418
 3135SOL     OW10303   5.950   5.829   2.500  0.1371  0.5777  0.0633
 3135SOL    HW110304   5.926   5.890   2.575  2.7569  0.2084  1.3375
 3135SOL    HW210305   6.003   5.751   2.535 -1.6151 -1.5835 -1.7339
 3136SOL     OW10306   5.575   0.048   2.689 -0.4249  0.1373  0.0549
 3136SOL    HW110307   5.602   0.027   2.595 -1.0323  0.7425 -0.2628
 3136SOL    HW210308   5.480   0.079   2.690 -0.5553 -0.2719  0.9269
 3137SOL     OW10309   2.939   4.242   0.233 -0.1228 -0.2808  0.4158
 3137SOL    HW110310   3.011   4.180   0.264 -0.7429 -0.4157  1.6339
 3137SOL    HW210311   2.947   4.330   0.281 -0.8596 -0.3504  0.6777
 3138SOL     OW10312   3.987   0.394   3.082 -0.0049 -0.0789 -0.0736
 3138SOL    HW110313   4.019   0.411   3.175 -1.3256 -2.9478  1.0099
 3138SOL    HW210314   3.928   0.469   3.053 -1.3293 -0.1168  2.2919
 3139SOL     OW10315   1.998   4.977   6.258  0.0650  0.7157 -0.2728
 3139SOL    HW110316   1.965   5.058   6.307 -1.0506 -0.9446  1.9133
 3139SOL    HW210317   2.055   4.922   6.320 -3.0377 -2.5177  0.0520
 3140SOL     OW10318   0.311   3.782   6.483 -0.2005  0.9957 -0.4423
 3140SOL    HW110319   0.299   3.875   6.519  0.9042  0.7338  0.6824
 3140SOL    HW210320   0.379   3.733   6.539 -1.9237 -1.0334  0.0013
 3141SOL     OW10321   2.945   3.753   4.605 -0.2900  0.8778  0.3106
 3141SOL    HW110322   2.885   3.708   4.671 -0.2389  0.2709 -0.0492
 3141SOL    HW210323   2.926   3.718   4.513  1.4618 -0.2973  0.3321
 3142SOL     OW10324   6.981   6.778   3.606  0.6773 -0.2120 -0.4316
 3142SOL    HW110325   7.020   6.800   3.696 -4.5511 -0.5286  2.2824
 3142SOL    HW210326   6.929   6.857   3.572 -0.1543 -1.2006 -1.5251
 3143SOL     OW10327   3.479   2.114   0.990 -0.0203  0.4314  0.4819
 3143SOL    HW110328   3.514   2.088   0.900  1.2274 -1.5925  1.4723
 3143SOL    HW210329   3.555   2.138   1.049 -0.8466  1.9273  0.9866
 3144SOL     OW10330   6.041   6.674   6.140  0.8179  0.1300 -0.4643
 3144SOL    HW110331   6.058   6.583   6.176 -1.0078 -1.0050 -2.2356
 3144SOL    HW210332   6.124   6.709   6.096  0.9157 -1.8354 -1.9990
 3145SOL     OW10333   0.533   1.348   5.256 -0.2694 -0.4248  0.3541
 3145SOL    HW110334   0.511   1.356   5.354 -0.5647 -1.3807  0.3814
 3145SOL    HW210335   0.457   1.304   5.209 -0.6335  1.0963 -0.5438
 3146SOL     OW10336   6.660   5.630   2.564 -0.0736  0.2999  0.0768
 3146SOL    HW110337   6.688   5.606   2.657 -0.0690 -0.7307 -0.1810
 3146SOL    HW210338   6.598   5.559   2.528  0.6101  0.2361 -1.0214
 3147SOL     OW10339   6.255   2.062   5.689 -0.3215  0.2163 -0.2947
 3147SOL    HW110340   6.181   2.039   5.753 -1.8928  1.7122 -1.4768
 3147SOL    HW210341   6.343   2.040   5.731 -1.3898 -1.2141  1.3511
 3148SOL     OW10342   6.302   5.933   5.229 -0.4479  0.1239 -0.5630
 3148SOL    HW110343   6.395   5.962   5.205  0.0198 -1.0111 -0.1902
 3148SOL    HW210344   6.296   5.833   5.224 -0.2318 -0.3461  4.1104
 3149SOL     OW10345   0.301   0.736   4.665 -0.6203  0.1755  0.1413
 3149SOL    HW110346   0.333   0.830   4.676 -0.1504  0.0687 -0.2429
 3149SOL    HW210347   0.202   0.735   4.651 -0.3472  0.8286 -2.2405
 3150SOL     OW10348   5.151   5.491   4.577  0.4534  0.2418 -0.1176
 3150SOL    HW110349   5.076   5.481   4.641 -0.7396  1.9696 -1.1336
 3150SOL    HW210350   5.224   5.544   4.619  0.9847 -1.1448  0.7570
 3151SOL     OW10351   5.963   3.267   0.339  0.2419  0.5283 -0.1761
 3151SOL    HW110352   5.990   3.315   0.255  1.3201  2.0890  1.0022
 3151SOL    HW210353   5.892   3.319   0.387  0.3262  0.1583  0.3635
 3152SOL     OW10354   4.813   1.784   5.830 -0.2714 -0.3200 -0.8511
 3152SOL    HW110355   4.801   1.707   5.894 -1.1205 -0.2437 -0.9034
 3152SOL    HW210356   4.910   1.807   5.823 -0.1670 -0.3055  0.4379
 3153SOL     OW10357   6.510   4.433   2.350  0.0044  0.1315  0.0369
 3153SOL    HW110358   6.567   4.379   2.412  0.0001  1.1129  0.9339
 3153SOL    HW210359   6.418   4.443   2.388 -0.0152  0.7070 -0.1435
 3154SOL     OW10360   6.874   0.064   2.228  0.4556 -0.0493  0.0458
 3154SOL    HW110361   6.906   0.084   2.136 -1.5250  1.4216 -0.3983
 3154SOL    HW210362   6.868  -0.035   2.241  2.3407 -0.3133 -0.7822
 3155SOL     OW10363   5.936   4.498   6.657  0.3984  0.2201 -0.4839
 3155SOL    HW110364   5.972   4.472   6.746  0.6100 -1.1260 -0.9314
 3155SOL    HW210365   5.936   4.418   6.596  1.3175  1.3451 -2.0468
 3156SOL     OW10366   4.571   5.199   2.606 -0.4994 -0.2689 -0.1535
 3156SOL    HW110367   4.647   5.197   2.541 -0.4169  1.0130 -0.1212
 3156SOL    HW210368   4.591   5.138   2.683  0.0692 -0.6618 -0.6088
 3157SOL     OW10369   1.137   1.205   1.144 -0.4000  0.2811  0.2109
 3157SOL    HW110370   1.192   1.184   1.063  2.9729 -1.5656  2.7126
 3157SOL    HW210371   1.109   1.301   1.142 -2.2392 -0.1358 -3.9655
 3158SOL     OW10372   6.454   0.343   3.423 -0.1636  0.6593 -0.5607
 3158SOL    HW110373   6.527   0.361   3.357 -0.2861  0.1477 -0.8412
 3158SOL    HW210374   6.407   0.429   3.445  1.8235  1.3729  1.2131
 3159SOL     OW10375   1.471   3.613   1.345  0.1942  0.5485  0.0999
 3159SOL    HW110376   1.559   3.639   1.304  1.7273 -2.6310  1.0468
 3159SOL    HW210377   1.456   3.665   1.429  2.1523 -0.1834  0.9430
 3160SOL     OW10378   4.905   3.404   4.530  0.2699 -0.2178  0.0138
 3160SOL    HW110379   4.844   3.472   4.489  0.0892  0.5442  1.4719
 3160SOL    HW210380   4.982   3.451   4.575  0.9503 -1.0675 -0.2266
 3161SOL     OW10381   5.764   2.086   3.519 -0.1217 -0.1764  0.3030
 3161SOL    HW110382   5.812   2.056   3.601  2.8631  3.8350  0.3460
 3161SOL    HW210383   5.715   2.172   3.539 -1.3455 -0.3645 -1.5973
 3162SOL     OW10384   5.941   4.854   5.315 -0.2868  0.4399  0.0589
 3162SOL    HW110385   5.970   4.884   5.406 -1.8434  1.6992  0.1926
 3162SOL    HW210386   6.001   4.781   5.283  0.5966  0.3093  1.8794
 3163SOL     OW10387   3.689   5.317   3.235  0.0615  0.4151 -0.1930
 3163SOL    HW110388   3.781   5.295   3.204 -0.1735 -0.8602 -0.0328
 3163SOL    HW210389   3.688   5.322   3.335 -0.0680  0.2735 -0.1864
 3164SOL     OW10390   4.881   3.594   3.594  0.3560  0.2491 -0.8161
 3164SOL    HW110391   4.865   3.651   3.513  0.1482  1.2963 -0.0576
 3164SOL    HW210392   4.893   3.652   3.674  0.5018 -0.7734 -0.0744
 3165SOL     OW10393   0.565   2.846   1.980  0.4865 -0.2220  0.8578
 3165SOL    HW110394   0.561   2.935   2.027  1.1331  0.6287 -0.6336
 3165SOL    HW210395   0.658   2.830   1.947  0.1077 -0.9205  0.0981
 3166SOL     OW10396   6.882   5.179   1.897 -0.1301 -0.2120 -0.2793
 3166SOL    HW110397   6.964   5.194   1.843  0.2208  0.1692  0.3381
 3166SOL    HW210398   6.816   5.252   1.880  0.6237  0.8082  0.9641
 3167SOL     OW10399   0.857   3.194   3.892 -0.0575 -0.1065  0.4562
 3167SOL    HW110400   0.796   3.172   3.816 -1.3830 -0.5954  1.6266
 3167SOL    HW210401   0.845   3.290   3.917  1.2267  0.3784 -0.6604
 3168SOL     OW10402   6.769   1.261   5.130 -0.2962 -0.4228 -0.5375
 3168SOL    HW110403   6.840   1.211   5.081  0.7478  1.5603 -1.1628
 3168SOL    HW210404   6.811   1.320   5.199 -0.9961  2.6050 -2.5252
 3169SOL     OW10405   0.943   4.376   4.660 -0.1331 -0.3681  0.1250
 3169SOL    HW110406   0.858   4.359   4.710 -1.2962 -0.0600 -1.6100
 3169SOL    HW210407   0.955   4.475   4.649 -0.5162 -0.4385 -1.1125
 3170SOL     OW10408   4.506   2.364   2.494 -0.7440 -0.4027  0.3556
 3170SOL    HW110409   4.543   2.443   2.543  0.1403 -1.4057  1.3532
 3170SOL    HW210410   4.470   2.394   2.406 -1.2322  1.2404  1.0779
 3171SOL     OW10411   0.368   5.944   6.617 -0.0176  0.5013 -0.1420
 3171SOL    HW110412   0.387   6.022   6.677  0.3329  0.9486 -0.8199
 3171SOL    HW210413   0.301   5.884   6.660  1.0631  0.2120  1.1926
 3172SOL     OW10414   0.018   0.256   3.047  0.5130  0.4007  0.5886
 3172SOL    HW110415  -0.032   0.259   2.960  1.0798  0.9717  0.2710
 3172SOL    HW210416   0.116   0.248   3.028  0.5674 -0.5479  1.2002
 3173SOL     OW10417   6.751   1.279   0.598 -0.2108  0.1345 -0.3003
 3173SOL    HW110418   6.769   1.182   0.584  1.1288  0.5974 -2.2708
 3173SOL    HW210419   6.817   1.316   0.664  1.1317  0.2140 -1.6226
 3174SOL     OW10420   6.238   0.197   6.661 -0.6428  0.4072 -0.9045
 3174SOL    HW110421   6.180   0.115   6.665 -0.9155  0.6176 -0.4113
 3174SOL    HW210422   6.188   0.275   6.700  1.1825 -0.1063  2.8397
 3175SOL     OW10423   5.030   6.736   3.354 -0.5040  0.2204  0.1840
 3175SOL    HW110424   4.981   6.763   3.271 -0.8398 -1.6763 -0.2921
 3175SOL    HW210425   5.056   6.640   3.347  0.9386  0.4710  1.5942
 3176SOL     OW10426   6.220   4.258   3.043  0.2210  0.6014 -1.0573
 3176SOL    HW110427   6.320   4.252   3.048  0.3216  1.1197 -2.1561
 3176SOL    HW210428   6.194   4.310   2.962 -0.9348  1.1577 -0.3499
 3177SOL     OW10429   4.020   6.683   5.595 -0.7072 -0.2092 -0.0983
 3177SOL    HW110430   4.079   6.647   5.668  1.7080  1.0594 -1.2950
 3177SOL    HW210431   3.937   6.722   5.635 -0.0523 -0.6740  1.8332
 3178SOL     OW10432   2.016   6.513   6.254 -0.3402 -0.4876  0.5819
 3178SOL    HW110433   2.060   6.477   6.172 -2.1328  0.6637 -0.9572
 3178SOL    HW210434   1.917   6.516   6.240 -0.6211  0.4424  2.5133
 3179SOL     OW10435   2.850   4.407   6.627  0.8189 -0.3412 -0.2092
 3179SOL    HW110436   2.854   4.308   6.613 -1.6214 -0.6615  0.9472
 3179SOL    HW210437   2.787   4.448   6.562  0.4857  0.1973  0.4352
 3180SOL     OW10438   0.537   5.662   1.668  0.4217 -0.1832 -0.5652
 3180SOL    HW110439   0.623   5.702   1.638  1.1318  0.0625  1.5791
 3180SOL    HW210440   0.549   5.563   1.682  0.2604 -0.2028 -0.5592
 3181SOL     OW10441   1.051   1.241   4.972 -0.5636  0.1964 -0.0454
 3181SOL    HW110442   0.991   1.168   4.938 -3.1423  0.8660  2.7024
 3181SOL    HW210443   1.134   1.201   5.012 -1.6685 -1.2071  0.9049
 3182SOL     OW10444   4.423   1.396   1.827 -0.2900  0.1921 -0.1442
 3182SOL    HW110445   4.480   1.462   1.778  1.1651 -0.4318  0.6460
 3182SOL    HW210446   4.351   1.362   1.767  0.2896  0.8545 -1.2338
 3183SOL     OW10447   5.640   1.726   3.455  0.5797 -0.0520 -0.9943
 3183SOL    HW110448   5.610   1.807   3.404 -1.0562  2.0628  2.8863
 3183SOL    HW210449   5.564   1.662   3.462  0.8083 -0.3495 -1.2231
 3184SOL     OW10450   6.608   6.626   4.700 -0.6246 -0.0313  0.2622
 3184SOL    HW110451   6.674   6.606   4.628 -0.0109 -0.2038  0.8558
 3184SOL    HW210452   6.568   6.541   4.734 -0.2511 -0.0324  0.7221
 3185SOL     OW10453   2.211   0.777   1.996 -0.9790  0.1172  0.0791
 3185SOL    HW110454   2.298   0.762   1.949 -1.6055 -1.7162 -0.5757
 3185SOL    HW210455   2.208   0.721   2.079 -1.4453  0.3595  0.2313
 3186SOL     OW10456   0.961   2.115   3.456  0.1957 -0.0838  0.3031
 3186SOL    HW110457   0.892   2.043   3.463 -1.7661  1.4634 -1.6132
 3186SOL    HW210458   1.017   2.099   3.374  0.1855  0.1851  0.2409
 3187SOL     OW10459   5.095   5.734   4.015 -0.1862 -0.3665  0.0937
 3187SOL    HW110460   5.174   5.673   4.016 -0.5692 -0.8857  2.4066
 3187SOL    HW210461   5.020   5.693   4.066 -0.8898  1.4922  0.6217
 3188SOL     OW10462   2.234   5.713   2.573  0.2806 -0.4914  0.1757
 3188SOL    HW110463   2.209   5.726   2.669  0.2682  0.0465  0.1043
 3188SOL    HW210464   2.329   5.682   2.568  0.3485 -0.3218  0.3585
 3189SOL     OW10465   3.531   3.833   3.618  0.9586 -0.3772  0.0162
 3189SOL    HW110466   3.571   3.924   3.613 -0.7056  0.4168  0.7227
 3189SOL    HW210467   3.528   3.802   3.713  0.7108 -0.8088 -0.1259
 3190SOL     OW10468   1.417   6.754   3.837 -0.2861 -0.1437  0.3304
 3190SOL    HW110469   1.347   6.696   3.797 -1.4825  2.2760 -1.3433
 3190SOL    HW210470   1.506   6.708   3.831 -1.0275 -1.4264 -1.7496
 3191SOL     OW10471   5.491   5.670   0.626  0.4917  0.0390 -0.2910
 3191SOL    HW110472   5.465   5.621   0.543 -0.8701 -0.1809  0.2572
 3191SOL    HW210473   5.450   5.761   0.625 -0.6496 -0.4484  0.7593
 3192SOL     OW10474   0.888   3.461   5.894 -0.2412 -0.1535  0.2028
 3192SOL    HW110475   0.810   3.403   5.917 -0.3474 -0.7000 -1.4033
 3192SOL    HW210476   0.858   3.556   5.885 -1.4918 -0.7458 -3.5022
 3193SOL     OW10477   4.638   1.128   0.653 -0.1260 -0.1923  0.1295
 3193SOL    HW110478   4.679   1.131   0.562 -0.2821 -3.1470 -0.1493
 3193SOL    HW210479   4.709   1.118   0.722  0.0119  2.3328  0.4246
 3194SOL     OW10480   2.597   5.541   5.066  0.6656  0.0732 -0.1150
 3194SOL    HW110481   2.608   5.638   5.088  0.2169  0.2830 -0.7973
 3194SOL    HW210482   2.688   5.500   5.053  0.8866  0.2398  0.8078
 3195SOL     OW10483   2.739   6.435   3.040  0.0615 -0.2692  0.4712
 3195SOL    HW110484   2.671   6.505   3.062 -0.4595 -0.1173 -1.4482
 3195SOL    HW210485   2.738   6.365   3.111  0.2338  1.3696  2.1747
 3196SOL     OW10486   1.028   3.853   1.178 -0.3653 -0.3865 -0.1711
 3196SOL    HW110487   0.977   3.913   1.116 -0.7136 -0.0245  0.4569
 3196SOL    HW210488   1.112   3.899   1.208 -0.9061  0.0304  0.7491
 3197SOL     OW10489   2.133   0.435   6.208 -0.5703  0.3113  0.3542
 3197SOL    HW110490   2.089   0.379   6.138 -1.5923 -1.9369  2.6235
 3197SOL    HW210491   2.112   0.532   6.192 -3.2669 -0.3753 -0.7490
 3198SOL     OW10492   6.907   3.082   6.044 -0.3695 -0.3115 -0.1556
 3198SOL    HW110493   6.872   3.172   6.072 -0.1103  0.5491 -2.3521
 3198SOL    HW210494   6.845   3.042   5.976  0.3421 -1.0460 -0.3945
 3199SOL     OW10495   2.143   5.289   2.961 -0.2549  0.0760  0.2897
 3199SOL    HW110496   2.081   5.348   2.910  0.3574  1.2780  0.9094
 3199SOL    HW210497   2.170   5.212   2.903  0.7498  1.6100 -1.3823
 3200SOL     OW10498   4.908   0.726   3.687  0.2827  0.0271 -0.0081
 3200SOL    HW110499   4.886   0.679   3.601 -0.6892 -1.2862  0.9082
 3200SOL    HW210500   4.908   0.825   3.672 -1.8326 -0.0697 -1.1381
 3201SOL     OW10501   3.928   0.095   0.557  0.3170  0.0831  0.1142
 3201SOL    HW110502   3.971   0.173   0.510 -0.3891  0.3138 -0.1637
 3201SOL    HW210503   3.887   0.126   0.642 -2.9436  0.7774 -1.5761
 3202SOL     OW10504   0.567   0.247   1.273 -0.1839 -0.2780  0.1995
 3202SOL    HW110505   0.577   0.343   1.247  0.1192 -0.0644  1.0570
 3202SOL    HW210506   0.481   0.212   1.238  0.4849 -0.2042 -1.6051
 3203SOL     OW10507   1.052   4.043   1.564 -0.0407  0.1502  0.5162
 3203SOL    HW110508   1.059   4.091   1.652  1.0167  0.5462  0.2363
 3203SOL    HW210509   0.975   4.079   1.512  1.3094  2.3558 -0.1310
 3204SOL     OW10510   5.941   1.405   6.113 -0.4761  0.4197  0.2580
 3204SOL    HW110511   6.002   1.392   6.035  1.2366  1.8016  1.2926
 3204SOL    HW210512   5.938   1.321   6.168  1.7570  0.7607  1.0016
 3205SOL     OW10513   2.059   4.458   0.405 -0.7023 -0.0192 -0.2154
 3205SOL    HW110514   2.015   4.436   0.318  0.2457  0.5526 -0.8628
 3205SOL    HW210515   2.106   4.377   0.440 -1.4751 -0.3790  0.0118
 3206SOL     OW10516   6.496   4.247   6.009  0.1375 -0.6602  0.1543
 3206SOL    HW110517   6.508   4.303   6.091  0.1462  0.8213 -0.8319
 3206SOL    HW210518   6.511   4.303   5.927 -3.7149 -1.0636 -1.0018
 3207SOL     OW10519   5.007   5.245   4.458 -0.7275 -0.4914 -0.1599
 3207SOL    HW110520   5.046   5.207   4.375 -0.9509  0.9413 -0.9580
 3207SOL    HW210521   5.073   5.306   4.502 -1.4186  0.6201 -0.6033
 3208SOL     OW10522   2.791   3.647   5.363 -0.0064 -0.0451 -0.6276
 3208SOL    HW110523   2.807   3.549   5.375  1.8303  0.3103  0.1233
 3208SOL    HW210524   2.725   3.679   5.430  1.7316 -0.2243  1.2775
 3209SOL     OW10525   4.773   4.225   6.123 -0.0936 -0.0205  0.4681
 3209SOL    HW110526   4.731   4.270   6.202  0.0884  0.6773  0.1770
 3209SOL    HW210527   4.736   4.265   6.039  1.6405  1.1371  0.1903
 3210SOL     OW10528   4.886   2.902   0.785 -0.4579 -0.0308 -0.1860
 3210SOL    HW110529   4.873   2.915   0.687  1.6295  2.2044 -0.2632
 3210SOL    HW210530   4.797   2.898   0.830 -1.5007  2.4265 -1.8096
 3211SOL     OW10531   0.617   6.982   0.337  0.5646  0.7321  0.5435
 3211SOL    HW110532   0.580   6.907   0.393 -1.4648  0.5275 -0.9510
 3211SOL    HW210533   0.698   6.949   0.288 -0.4665 -0.6263 -0.3213
 3212SOL     OW10534   6.399   1.615   0.195 -0.1217 -0.6205 -0.7597
 3212SOL    HW110535   6.306   1.585   0.216  0.0758 -1.5255 -1.1264
 3212SOL    HW210536   6.451   1.538   0.158  0.4703  0.1395 -1.5507
 3213SOL     OW10537   3.336   0.874   0.752  0.0886 -0.4319  0.3779
 3213SOL    HW110538   3.324   0.915   0.842 -0.9220  0.6850 -0.2319
 3213SOL    HW210539   3.368   0.945   0.688  0.0253 -1.0174 -0.3125
 3214SOL     OW10540   0.805   2.692   4.937 -1.0398 -0.4671  0.0841
 3214SOL    HW110541   0.815   2.781   4.894 -0.4286  0.3094  1.7181
 3214SOL    HW210542   0.736   2.638   4.889  0.2351 -0.0308 -2.3558
 3215SOL     OW10543   2.475   5.493   1.088  0.2673 -0.1720 -0.2624
 3215SOL    HW110544   2.505   5.408   1.131  1.8979  0.1518 -0.6969
 3215SOL    HW210545   2.474   5.481   0.988 -0.9528 -0.1218 -0.2728
 3216SOL     OW10546   1.173   2.165   6.030  0.0304 -0.1853 -0.1235
 3216SOL    HW110547   1.084   2.211   6.029 -0.7162 -1.6069 -0.6459
 3216SOL    HW210548   1.214   2.175   6.121 -1.4946 -1.0410  0.7046
 3217SOL     OW10549   3.453   0.349   1.090  0.0724 -0.0783  0.0314
 3217SOL    HW110550   3.421   0.309   1.004 -0.1868 -0.9804  0.5380
 3217SOL    HW210551   3.444   0.282   1.164  0.5160  0.6039  0.7222
 3218SOL     OW10552   5.431   5.868   3.620  0.0355 -0.9707  0.0678
 3218SOL    HW110553   5.399   5.776   3.598  3.0493 -1.2557 -4.2789
 3218SOL    HW210554   5.398   5.932   3.552  1.3544  0.3630  0.6236
 3219SOL     OW10555   6.857   3.630   4.045 -0.2584 -0.2181 -0.2186
 3219SOL    HW110556   6.824   3.595   4.132  2.4940 -3.2701 -0.2096
 3219SOL    HW210557   6.926   3.701   4.061  0.8957 -1.3916  0.2164
 3220SOL     OW10558   3.884   6.278   2.832  0.2021  0.0316  0.0236
 3220SOL    HW110559   3.814   6.336   2.873  0.2084 -0.0683  0.1751
 3220SOL    HW210560   3.912   6.317   2.744 -1.6524 -1.0879 -1.1384
 3221SOL     OW10561   1.891   0.176   3.744 -0.1871  0.0562  0.1501
 3221SOL    HW110562   1.869   0.082   3.718 -0.2703 -0.2931  1.3845
 3221SOL    HW210563   1.930   0.176   3.837  1.8008  1.0094 -0.6292
 3222SOL     OW10564   0.726   5.816   4.594  0.2183  0.7534  0.0338
 3222SOL    HW110565   0.707   5.908   4.627  0.0830  1.0827 -0.9440
 3222SOL    HW210566   0.706   5.810   4.496  0.0451 -0.3687  0.1208
 3223SOL     OW10567   5.669   2.333   3.618  0.3370  0.0121  0.1559
 3223SOL    HW110568   5.697   2.429   3.613  3.6177 -0.8218 -0.2013
 3223SOL    HW210569   5.637   2.312   3.711 -0.2783  1.4003  0.2714
 3224SOL     OW10570   2.676   3.544   6.322 -0.4303 -0.6083 -0.1356
 3224SOL    HW110571   2.604   3.583   6.265 -1.3020  0.9589  1.8757
 3224SOL    HW210572   2.634   3.492   6.397  0.6613 -2.3261 -0.6649
 3225SOL     OW10573   1.486   2.638   2.438 -0.0587 -0.1621 -0.3760
 3225SOL    HW110574   1.557   2.600   2.499 -1.8162 -1.7547  0.8031
 3225SOL    HW210575   1.485   2.586   2.352 -1.7320 -2.2851  0.8100
 3226SOL     OW10576   2.813   1.953   0.133 -0.4373 -0.2639 -0.3555
 3226SOL    HW110577   2.823   1.967   0.232  0.4837  0.0738 -0.4895
 3226SOL    HW210578   2.789   2.039   0.089 -0.3611 -0.3134 -0.4928
 3227SOL     OW10579   5.770   1.786   2.755  0.3863 -0.7088 -0.5037
 3227SOL    HW110580   5.832   1.843   2.702  1.0689 -0.3953  0.5954
 3227SOL    HW210581   5.700   1.843   2.799  0.2125 -0.8892 -0.5416
 3228SOL     OW10582   0.840   0.916   5.605  0.1998  0.2761 -0.4444
 3228SOL    HW110583   0.869   0.903   5.510  2.9046  0.9418  0.2019
 3228SOL    HW210584   0.886   0.849   5.663 -0.7193  0.4625  0.5298
 3229SOL     OW10585   6.022   1.353   2.361  0.6967 -0.2251 -0.1720
 3229SOL    HW110586   6.049   1.441   2.321  0.7369 -0.3113 -0.3334
 3229SOL    HW210587   5.990   1.292   2.290 -0.4643  0.0637  0.0838
 3230SOL     OW10588   4.126   5.167   2.532  0.7300  0.5938  0.0320
 3230SOL    HW110589   4.146   5.069   2.533 -1.6545  0.0196 -0.9704
 3230SOL    HW210590   4.163   5.209   2.615  0.2466 -1.5046  1.4064
 3231SOL     OW10591   6.312   3.573   0.957  0.7811  0.0259 -0.3658
 3231SOL    HW110592   6.407   3.555   0.983  0.7860  0.6131  0.0249
 3231SOL    HW210593   6.290   3.669   0.973  0.2220 -0.0260 -0.7848
 3232SOL     OW10594   6.912   4.105   2.627 -0.0585 -0.8726 -0.6590
 3232SOL    HW110595   6.960   4.133   2.710  0.9325 -2.6519 -0.5862
 3232SOL    HW210596   6.908   4.005   2.622  0.7565 -0.8583 -3.1968
 3233SOL     OW10597   2.500   2.967   6.213 -0.2049  0.1039 -0.4999
 3233SOL    HW110598   2.527   3.022   6.291  0.4914 -1.0279  0.0830
 3233SOL    HW210599   2.531   3.010   6.128  1.4082 -0.0062  0.0169
 3234SOL     OW10600   5.117   5.559   0.608  0.0103  0.1235  0.1186
 3234SOL    HW110601   5.167   5.519   0.532  1.6350 -0.3332  1.3506
 3234SOL    HW210602   5.112   5.659   0.596  1.5718  0.2283  0.1141
 3235SOL     OW10603   2.797   3.363   6.561  0.3373  0.4722  0.0941
 3235SOL    HW110604   2.842   3.324   6.642  0.7551  2.4834  0.8856
 3235SOL    HW210605   2.744   3.444   6.588  0.5358  1.2254 -1.6672
 3236SOL     OW10606   4.141   6.087   3.588 -0.3345 -0.1481 -0.1314
 3236SOL    HW110607   4.053   6.114   3.626 -0.7400 -1.0174 -0.4156
 3236SOL    HW210608   4.212   6.151   3.618 -1.0209  0.4349  0.2751
 3237SOL     OW10609   3.281   5.064   2.484 -0.1130 -0.0184 -0.4145
 3237SOL    HW110610   3.196   5.105   2.516 -0.5041 -0.9723 -0.2022
 3237SOL    HW210611   3.355   5.130   2.491 -0.6520  0.5168  0.2919
 3238SOL     OW10612   0.873   0.412   6.421  0.4532 -0.3997  0.6506
 3238SOL    HW110613   0.952   0.468   6.446 -0.2258  0.4021  1.0216
 3238SOL    HW210614   0.793   0.440   6.474 -0.5122 -0.0531 -0.9340
 3239SOL     OW10615   4.446   1.211   4.726  0.0859  0.4257  0.2142
 3239SOL    HW110616   4.417   1.126   4.769 -3.3876 -0.2326 -2.8895
 3239SOL    HW210617   4.436   1.287   4.790 -0.7215 -0.9647  1.7954
 3240SOL     OW10618   5.320   4.316   5.613  0.2971 -0.5783 -0.2195
 3240SOL    HW110619   5.333   4.394   5.674 -0.7030 -0.8774  0.3852
 3240SOL    HW210620   5.397   4.311   5.549  0.5445  0.6970 -0.0473
 3241SOL     OW10621   3.500   2.342   1.496 -0.0737 -0.0874  0.2443
 3241SOL    HW110622   3.455   2.253   1.500 -0.7299  0.2482  0.4857
 3241SOL    HW210623   3.555   2.348   1.412 -0.8544 -0.3292 -0.2939
 3242SOL     OW10624   5.562   4.235   0.489  0.2091 -0.2420 -0.2881
 3242SOL    HW110625   5.505   4.200   0.564 -2.9006  2.8892 -0.9505
 3242SOL    HW210626   5.527   4.200   0.402  2.0452 -1.5982 -0.5370
 3243SOL     OW10627   4.659   3.201   6.138 -0.4230  0.7985  0.2427
 3243SOL    HW110628   4.598   3.132   6.100 -2.6953  2.2593  1.0339
 3243SOL    HW210629   4.652   3.285   6.085  0.7639  1.0748  0.4921
 3244SOL     OW10630   3.082   3.082   1.877 -0.2471  0.0778  0.1077
 3244SOL    HW110631   3.127   3.023   1.944  1.6742  0.8356 -0.4536
 3244SOL    HW210632   3.095   3.178   1.902 -3.1325  0.3523  0.8758
 3245SOL     OW10633   3.958   6.949   4.227 -0.4044  0.3053 -0.0388
 3245SOL    HW110634   4.052   6.925   4.251 -0.4129  0.7315  0.4441
 3245SOL    HW210635   3.947   6.948   4.128 -0.1279 -0.6331 -0.0676
 3246SOL     OW10636   4.752   6.666   3.440 -0.1318  0.0692  0.0437
 3246SOL    HW110637   4.789   6.709   3.522 -0.3307  0.2391  0.0450
 3246SOL    HW210638   4.778   6.720   3.360 -1.7270  1.0935  0.1861
 3247SOL     OW10639   6.142   1.543   5.724  0.3455  0.5075  0.2106
 3247SOL    HW110640   6.174   1.534   5.630 -0.6362  1.7852 -0.2838
 3247SOL    HW210641   6.149   1.638   5.753 -2.5090  0.8129  0.1949
 3248SOL     OW10642   6.094   3.390   3.015  0.3882 -0.2550  0.1075
 3248SOL    HW110643   6.148   3.345   3.086 -0.9464 -1.5749  0.3421
 3248SOL    HW210644   6.045   3.468   3.056  1.6223  0.6067  0.0122
 3249SOL     OW10645   2.083   2.618   5.215  0.0896 -0.9286  0.4284
 3249SOL    HW110646   2.141   2.541   5.188  2.2446  0.8202 -0.1927
 3249SOL    HW210647   2.039   2.656   5.134  0.5354 -0.3500  0.4558
 3250SOL     OW10648   0.285   4.597   2.506  0.4846  0.3084  0.5085
 3250SOL    HW110649   0.198   4.634   2.536  0.2059  0.1078 -0.0426
 3250SOL    HW210650   0.332   4.555   2.584 -0.4483 -0.6462  0.5800
 3251SOL     OW10651   4.294   4.221   1.421 -0.4006 -0.5606 -0.2075
 3251SOL    HW110652   4.223   4.253   1.484  0.1726  0.3672 -0.0085
 3251SOL    HW210653   4.383   4.256   1.452 -0.2325  0.8966 -2.1562
 3252SOL     OW10654   1.899   6.758   1.321  0.0571  0.0594 -0.4163
 3252SOL    HW110655   1.986   6.744   1.368  0.5032  2.2096 -0.4629
 3252SOL    HW210656   1.898   6.706   1.236  0.9458 -0.6421 -0.0144
 3253SOL     OW10657   5.575   2.799   6.268  0.1617 -0.3658 -0.4654
 3253SOL    HW110658   5.630   2.834   6.192 -0.8426 -3.0247 -2.6374
 3253SOL    HW210659   5.619   2.718   6.306 -0.8136 -0.8335 -0.2919
 3254SOL     OW10660   3.765   2.960   2.602  0.1243  0.4607  0.3640
 3254SOL    HW110661   3.839   2.960   2.669  0.8283 -0.8473 -0.3675
 3254SOL    HW210662   3.680   2.989   2.646  0.6817  0.1422  1.6884
 3255SOL     OW10663   3.475   3.725   4.372  0.2741  0.1582 -0.0485
 3255SOL    HW110664   3.430   3.638   4.353  0.0465  0.3160 -0.2302
 3255SOL    HW210665   3.460   3.751   4.468  1.8807 -0.9098  0.5378
 3256SOL     OW10666   2.952   2.500   0.320 -0.4113  0.7926 -0.0741
 3256SOL    HW110667   2.872   2.549   0.285 -0.5952  1.2685  0.9736
 3256SOL    HW210668   2.925   2.440   0.395  0.1826  0.8213  0.1683
 3257SOL     OW10669   1.000   5.421   2.545 -0.2251 -0.2779 -0.5685
 3257SOL    HW110670   1.045   5.465   2.623  0.9874 -0.9899 -0.8284
 3257SOL    HW210671   1.050   5.337   2.521 -1.4812 -0.8818 -1.1452
 3258SOL     OW10672   1.304   5.333   3.907 -0.1605 -0.6603  1.3832
 3258SOL    HW110673   1.273   5.253   3.958  0.5841 -1.8313  0.0810
 3258SOL    HW210674   1.335   5.304   3.816 -2.7281  1.5041 -0.3272
 3259SOL     OW10675   5.700   4.386   1.914 -0.1559  0.3483 -0.0543
 3259SOL    HW110676   5.671   4.397   2.009 -2.9428  0.9239 -0.8717
 3259SOL    HW210677   5.736   4.294   1.900 -0.6657 -0.0781  1.3360
 3260SOL     OW10678   0.503   3.969   3.148 -0.1462  0.1933  0.4756
 3260SOL    HW110679   0.474   3.874   3.154  0.7981 -0.2122 -0.9281
 3260SOL    HW210680   0.472   4.007   3.060  0.0636  0.9832  0.7381
 3261SOL     OW10681   0.815   5.574   6.162 -0.6395 -0.4902  0.8869
 3261SOL    HW110682   0.869   5.657   6.148 -0.0781 -0.9009  0.5434
 3261SOL    HW210683   0.746   5.590   6.232 -1.6145  0.7562 -0.3067
 3262SOL     OW10684   3.032   6.693   6.262  0.2269 -0.1280 -0.1481
 3262SOL    HW110685   3.076   6.771   6.218 -1.9767  1.0967 -0.3262
 3262SOL    HW210686   2.933   6.704   6.258 -0.1319 -0.9348  3.4359
 3263SOL     OW10687   6.765   3.050   0.841 -0.3498 -0.4277  0.3164
 3263SOL    HW110688   6.802   3.141   0.821 -0.0165 -0.3034  1.4652
 3263SOL    HW210689   6.716   3.051   0.927  0.6755 -1.5995  0.9549
 3264SOL     OW10690   2.144   2.719   6.889  0.1577 -0.2821  0.0930
 3264SOL    HW110691   2.132   2.807   6.842  2.0646 -0.9986 -1.9072
 3264SOL    HW210692   2.063   2.662   6.873 -0.2134  0.3567 -0.3494
 3265SOL     OW10693   2.443   0.238   6.166 -0.1373  0.0278  0.0220
 3265SOL    HW110694   2.518   0.202   6.110 -0.1040  2.3525 -1.5757
 3265SOL    HW210695   2.479   0.262   6.257  0.7789 -0.0526 -0.3042
 3266SOL     OW10696   0.659   4.251   6.866 -0.1202  0.1245  0.2548
 3266SOL    HW110697   0.657   4.290   6.773  0.3244 -1.2015 -0.3325
 3266SOL    HW210698   0.686   4.155   6.861 -0.5665 -0.0945  1.7320
 3267SOL     OW10699   6.269   1.254   2.769  0.0726  0.1263  0.2112
 3267SOL    HW110700   6.187   1.263   2.712 -0.3644  0.0754  0.8278
 3267SOL    HW210701   6.308   1.162   2.758 -1.1218 -0.5731  1.4488
 3268SOL     OW10702   0.361   0.786   6.181  0.2196 -0.8832 -0.2271
 3268SOL    HW110703   0.411   0.785   6.267  2.4144  1.7649 -1.3053
 3268SOL    HW210704   0.275   0.836   6.192  0.4191 -0.6909  0.4596
 3269SOL     OW10705   3.035   3.299   5.693 -0.6720 -0.0740 -0.1138
 3269SOL    HW110706   2.949   3.260   5.661 -1.7969  1.5539  0.7769
 3269SOL    HW210707   3.050   3.388   5.650  2.2162 -1.6026 -2.7013
 3270SOL     OW10708   5.237   5.536   1.554  0.4231 -0.5962  0.1046
 3270SOL    HW110709   5.311   5.529   1.487  0.2493 -3.0309  0.0910
 3270SOL    HW210710   5.185   5.620   1.537  0.2828 -1.1893 -2.9575
 3271SOL     OW10711   2.570   2.562   0.642  0.6350  0.4008  0.1452
 3271SOL    HW110712   2.660   2.531   0.672  0.1697 -0.0770  1.1019
 3271SOL    HW210713   2.518   2.593   0.722 -0.2823  0.0671 -0.3187
 3272SOL     OW10714   5.892   4.765   3.054 -0.2982 -0.5269  0.8131
 3272SOL    HW110715   5.795   4.780   3.034 -0.1029 -1.5960 -1.1802
 3272SOL    HW210716   5.900   4.698   3.128 -1.0659  0.0318  1.4232
 3273SOL     OW10717   5.546   6.480   0.090  0.0377 -0.5978  0.4530
 3273SOL    HW110718   5.599   6.416   0.146  0.2358 -0.4007  0.4908
 3273SOL    HW210719   5.548   6.571   0.132  0.8925 -0.2547 -0.3202
 3274SOL     OW10720   1.652   1.110   4.755 -0.2533  0.9575 -0.2042
 3274SOL    HW110721   1.686   1.129   4.663  0.9496  0.7859  0.1850
 3274SOL    HW210722   1.618   1.016   4.759  0.2538  0.7659 -0.3237
 3275SOL     OW10723   1.496   0.501   2.289  0.1971  0.3683  0.0424
 3275SOL    HW110724   1.440   0.537   2.364 -1.0284 -0.3565 -0.4893
 3275SOL    HW210725   1.534   0.413   2.316 -0.1189  0.1790 -0.1253
 3276SOL     OW10726   6.122   5.138   0.018 -0.0212 -0.3282 -0.2441
 3276SOL    HW110727   6.091   5.110   0.109  1.1915 -1.0398 -0.0145
 3276SOL    HW210728   6.220   5.156   0.021  0.1905 -1.1141 -1.5682
 3277SOL     OW10729   0.284   6.344   5.071 -0.8022  0.3618 -0.6269
 3277SOL    HW110730   0.333   6.353   5.158  1.5643 -0.8759 -1.7592
 3277SOL    HW210731   0.262   6.436   5.036 -2.7800  0.8965  1.6965
 3278SOL     OW10732   4.779   2.992   3.698  0.2562 -0.3265  0.1318
 3278SOL    HW110733   4.838   2.947   3.765  1.1949 -0.5222 -0.7936
 3278SOL    HW210734   4.692   3.017   3.741  0.2900 -1.6843  1.0466
 3279SOL     OW10735   0.801   4.816   5.936 -0.5316  0.1478 -0.4352
 3279SOL    HW110736   0.778   4.902   5.890  0.0718  0.2028 -0.6413
 3279SOL    HW210737   0.844   4.835   6.024 -0.7744  0.0526 -0.2959
 3280SOL     OW10738   4.403   4.836   2.737 -0.0170  0.1603 -0.8444
 3280SOL    HW110739   4.336   4.778   2.690 -1.4845 -1.5419  2.9321
 3280SOL    HW210740   4.358   4.920   2.769  0.5128  0.5287 -1.0513
 3281SOL     OW10741   6.865   2.191   1.517 -0.2112  0.8430 -0.1695
 3281SOL    HW110742   6.952   2.229   1.488  0.1149 -0.0741 -0.4206
 3281SOL    HW210743   6.843   2.110   1.463 -0.5371  0.2443  0.8133
 3282SOL     OW10744   3.490   0.558   3.419  0.0617 -0.0027 -0.2103
 3282SOL    HW110745   3.452   0.518   3.336  0.8770  3.1074 -2.2533
 3282SOL    HW210746   3.582   0.522   3.434 -0.7119 -1.8655  0.4266
 3283SOL     OW10747   4.102   4.891   2.500 -0.5712 -0.0857 -0.0478
 3283SOL    HW110748   4.166   4.817   2.520 -1.8749 -1.2672 -0.1025
 3283SOL    HW210749   4.040   4.903   2.578 -0.8165  0.4815 -0.3249
 3284SOL     OW10750   4.744   3.783   6.415  0.1699 -0.5047  0.0731
 3284SOL    HW110751   4.747   3.871   6.366  0.7569 -0.7770 -0.3886
 3284SOL    HW210752   4.649   3.757   6.430 -0.1523  1.7614  3.0545
 3285SOL     OW10753   4.869   0.868   6.685 -0.0034 -0.2528 -0.0097
 3285SOL    HW110754   4.937   0.903   6.749  1.1331 -2.1712 -0.1041
 3285SOL    HW210755   4.808   0.804   6.733 -1.3477  0.9206 -0.0854
 3286SOL     OW10756   0.283   3.033   4.141  0.1594  0.4978  0.2921
 3286SOL    HW110757   0.256   3.087   4.221  0.1644 -1.7489  1.8922
 3286SOL    HW210758   0.208   3.034   4.074 -1.4187 -0.5753  1.9490
 3287SOL     OW10759   2.842   2.789   5.824 -0.6689  0.0950 -0.1873
 3287SOL    HW110760   2.861   2.710   5.882 -2.6957 -1.7385 -1.8490
 3287SOL    HW210761   2.784   2.854   5.874  0.0367 -0.0280  0.8072
 3288SOL     OW10762   5.529   5.897   2.947  0.2616 -0.1665 -0.3828
 3288SOL    HW110763   5.510   5.995   2.949  1.3900  0.0854 -1.3692
 3288SOL    HW210764   5.515   5.859   3.039  3.6823  1.6667  1.0890
 3289SOL     OW10765   0.055   0.642   4.915  0.4483  0.5018  0.0545
 3289SOL    HW110766   0.120   0.582   4.962 -0.3190 -0.9617 -0.7065
 3289SOL    HW210767   0.095   0.734   4.908  1.5339  0.1869  1.4798
 3290SOL     OW10768   2.771   5.596   4.725  0.4345  0.5247  0.1127
 3290SOL    HW110769   2.716   5.577   4.644  0.5982  1.9990 -0.3717
 3290SOL    HW210770   2.735   5.676   4.772 -0.0410 -0.6736  1.8876
 3291SOL     OW10771   2.294   2.816   0.078  0.5141 -0.1648 -0.2432
 3291SOL    HW110772   2.346   2.883   0.025  0.8022  0.3138  0.6193
 3291SOL    HW210773   2.223   2.775   0.021  1.6244 -0.5945 -1.3506
 3292SOL     OW10774   0.031   3.907   0.640 -0.4068  0.1761  0.3138
 3292SOL    HW110775  -0.032   3.918   0.717 -1.0146 -0.3112 -0.1026
 3292SOL    HW210776   0.025   3.987   0.580 -0.5755  0.1722  0.3230
 3293SOL     OW10777   1.581   3.659   5.133 -0.2342  0.0020  0.3996
 3293SOL    HW110778   1.523   3.736   5.161 -0.8036  0.0497 -0.8565
 3293SOL    HW210779   1.550   3.625   5.045  1.5236 -0.1132 -0.2065
 3294SOL     OW10780   0.769   2.334   5.656 -0.4753 -0.5289  0.2577
 3294SOL    HW110781   0.826   2.374   5.583  0.5645 -1.3969  0.5696
 3294SOL    HW210782   0.798   2.372   5.744  0.0628 -1.4226  0.4835
 3295SOL     OW10783   1.803   4.790   1.891  0.2010 -0.3053 -0.0677
 3295SOL    HW110784   1.770   4.696   1.899 -0.0442 -0.0532  3.2399
 3295SOL    HW210785   1.729   4.853   1.913  0.8297  0.5962 -0.4887
 3296SOL     OW10786   4.160   1.278   4.425 -0.0280 -0.1325  0.1152
 3296SOL    HW110787   4.126   1.267   4.332  0.4560 -1.9714  0.1229
 3296SOL    HW210788   4.258   1.293   4.423 -0.3424  2.4656  0.2433
 3297SOL     OW10789   1.912   5.042   3.109  0.4426 -0.3864 -0.2856
 3297SOL    HW110790   1.949   5.079   3.195 -1.2671 -0.5657  0.5668
 3297SOL    HW210791   1.900   5.117   3.043  1.4464 -0.1919 -0.2625
 3298SOL     OW10792   2.482   2.101   6.610  0.2325 -0.8778  0.2682
 3298SOL    HW110793   2.532   2.068   6.530  0.9091  0.1085  0.2739
 3298SOL    HW210794   2.385   2.078   6.600  0.1383  0.0556 -1.2875
 3299SOL     OW10795   2.599   5.430   3.188 -0.3822 -0.4121  0.1503
 3299SOL    HW110796   2.563   5.503   3.129 -1.5956 -0.8284  0.3528
 3299SOL    HW210797   2.614   5.348   3.133 -0.0088 -0.3316  0.1277
 3300SOL     OW10798   5.500   1.231   6.113  0.2369  0.2562 -0.2495
 3300SOL    HW110799   5.405   1.253   6.093 -0.1680 -1.9852 -1.0883
 3300SOL    HW210800   5.541   1.303   6.169 -2.0180  1.1317  0.3416
 3301SOL     OW10801   1.166   3.580   6.689 -0.4147  0.0901 -0.8072
 3301SOL    HW110802   1.067   3.574   6.675 -0.6116  0.2503  0.4289
 3301SOL    HW210803   1.202   3.657   6.636 -0.9820  0.1780 -1.0752
 3302SOL     OW10804   0.199   6.782   2.144 -0.0375  0.0097  0.3793
 3302SOL    HW110805   0.255   6.764   2.225  1.2163  2.5064  0.1867
 3302SOL    HW210806   0.229   6.723   2.069 -0.0612 -1.1251  1.2302
 3303SOL     OW10807   4.557   0.409   3.482  0.1644  0.0447  0.1721
 3303SOL    HW110808   4.611   0.325   3.490  0.1769  0.1711  1.7161
 3303SOL    HW210809   4.475   0.391   3.428 -0.0480 -1.0835  0.8398
 3304SOL     OW10810   5.984   0.031   0.456  0.4316  0.0838  0.1431
 3304SOL    HW110811   6.009   0.033   0.359 -0.0877  1.1817  0.0107
 3304SOL    HW210812   6.067   0.039   0.512  0.5552  2.2895 -0.2683
 3305SOL     OW10813   2.696   0.100   3.969  0.7071 -0.4603  0.0085
 3305SOL    HW110814   2.701   0.100   3.869  0.3629 -2.9281 -0.0614
 3305SOL    HW210815   2.777   0.145   4.006  0.6623  0.8417 -1.3446
 3306SOL     OW10816   5.868   4.394   1.079 -0.6495  0.8008  0.0938
 3306SOL    HW110817   5.957   4.429   1.107 -0.6143  1.2181 -0.5010
 3306SOL    HW210818   5.812   4.470   1.045 -0.3756  0.2416 -1.7560
 3307SOL     OW10819   6.379   5.839   2.467 -0.3691 -0.1137  0.1595
 3307SOL    HW110820   6.464   5.835   2.414  0.6030 -0.9109  1.7061
 3307SOL    HW210821   6.326   5.756   2.449  0.1374 -0.5652  0.6798
 3308SOL     OW10822   5.164   3.582   6.435 -0.0640 -0.3485 -0.0756
 3308SOL    HW110823   5.114   3.537   6.508  0.9163 -0.6708  0.4133
 3308SOL    HW210824   5.124   3.557   6.347 -1.5410  0.4026  0.3489
 3309SOL     OW10825   6.263   4.585   4.585 -0.4876  0.0881  0.2650
 3309SOL    HW110826   6.283   4.641   4.666 -2.4063 -0.1250  0.9262
 3309SOL    HW210827   6.328   4.509   4.581  0.2078  0.6159  1.0784
 3310SOL     OW10828   3.639   4.620   6.143  0.4489 -0.5452 -0.2086
 3310SOL    HW110829   3.678   4.705   6.177 -1.1495 -0.1563  0.7762
 3310SOL    HW210830   3.634   4.554   6.219 -3.2538  0.3587  0.5135
 3311SOL     OW10831   4.487   1.899   3.350 -0.0718  0.0182 -0.2701
 3311SOL    HW110832   4.421   1.843   3.401  1.3014  0.1390  1.7780
 3311SOL    HW210833   4.453   1.993   3.343 -0.1843  0.0634  0.7003
 3312SOL     OW10834   3.070   4.030   2.044  0.1493  0.0224 -0.1694
 3312SOL    HW110835   3.056   3.966   2.120  0.7664 -0.7189 -0.6679
 3312SOL    HW210836   2.990   4.089   2.035 -0.7546 -1.1864 -0.1866
 3313SOL     OW10837   6.113   6.597   2.114 -0.7289  0.3643 -0.2755
 3313SOL    HW110838   6.063   6.520   2.074  1.8253 -0.7472 -1.5507
 3313SOL    HW210839   6.177   6.563   2.183 -1.0924  1.6322  0.7165
 3314SOL     OW10840   4.966   5.182   3.294 -0.0488  0.3219  0.0410
 3314SOL    HW110841   4.933   5.092   3.320 -0.1801  0.4133  0.1907
 3314SOL    HW210842   4.938   5.249   3.362 -0.3077  0.5450 -0.2831
 3315SOL     OW10843   0.232   0.534   6.510 -0.6466 -0.4713 -0.2938
 3315SOL    HW110844   0.140   0.558   6.542 -0.7639 -1.3620  0.0924
 3315SOL    HW210845   0.241   0.434   6.511  0.3948 -0.3796 -0.1208
 3316SOL     OW10846   1.997   4.987   1.214  0.5825  0.1800  0.4815
 3316SOL    HW110847   1.981   4.997   1.116  3.5434  1.1289 -0.0212
 3316SOL    HW210848   1.943   5.055   1.264 -0.6737 -0.0629 -0.4912
 3317SOL     OW10849   1.458   6.361   2.637 -0.3174  0.4039  0.2757
 3317SOL    HW110850   1.434   6.300   2.712 -0.9268 -0.9786 -0.9825
 3317SOL    HW210851   1.549   6.337   2.603 -0.7650 -0.1806 -0.5505
 3318SOL     OW10852   3.127   1.318   3.117  0.0518  0.2386  0.2323
 3318SOL    HW110853   3.209   1.341   3.065 -0.6019  0.5331 -0.7050
 3318SOL    HW210854   3.054   1.384   3.095 -1.2070 -1.4439 -0.8753
 3319SOL     OW10855   3.383   2.057   5.563  0.5647 -0.0663  0.1834
 3319SOL    HW110856   3.478   2.039   5.590  0.7781  0.5779 -0.1175
 3319SOL    HW210857   3.377   2.065   5.464  0.2529  0.2047  0.2198
 3320SOL     OW10858   3.688   2.371   0.117 -0.3194 -0.3049  0.1931
 3320SOL    HW110859   3.615   2.388   0.183  1.3264  0.9974  1.7766
 3320SOL    HW210860   3.670   2.286   0.068 -4.8566  1.7461 -2.3222
 3321SOL     OW10861   4.033   3.898   1.730  0.0373  0.6148  0.1725
 3321SOL    HW110862   4.033   3.853   1.641 -2.9498 -0.4074  0.5524
 3321SOL    HW210863   4.122   3.889   1.773  1.5720  1.1553 -2.6544
 3322SOL     OW10864   0.326   0.034   0.406  0.4081 -0.3896 -0.1490
 3322SOL    HW110865   0.411   0.085   0.420 -0.7325  1.3612  0.7339
 3322SOL    HW210866   0.316  -0.034   0.478  0.7658 -0.1939  0.0922
 3323SOL     OW10867   4.340   0.985   4.365  0.3489 -0.2266  0.1537
 3323SOL    HW110868   4.341   0.926   4.284 -0.5808 -1.5466  1.0622
 3323SOL    HW210869   4.245   0.998   4.396  0.7229 -0.1757  1.3300
 3324SOL     OW10870   0.631   1.671   1.218  0.6668  0.5910 -0.0766
 3324SOL    HW110871   0.542   1.717   1.210  0.6778  1.1112  2.1753
 3324SOL    HW210872   0.704   1.737   1.198  0.5910  0.5345 -0.5500
 3325SOL     OW10873   1.442   5.790   6.099 -0.4585 -0.4894  0.2843
 3325SOL    HW110874   1.434   5.886   6.072 -0.6914 -0.9683 -1.5123
 3325SOL    HW210875   1.374   5.736   6.049  0.0986 -1.6728  0.7718
 3326SOL     OW10876   5.851   1.073   5.780 -0.0923 -0.5683  0.4168
 3326SOL    HW110877   5.931   1.017   5.758 -0.2173 -0.8237  0.6079
 3326SOL    HW210878   5.876   1.170   5.777 -0.0581 -0.5917 -0.6888
 3327SOL     OW10879   1.034   1.378   6.552 -0.7683  0.4023 -0.1059
 3327SOL    HW110880   0.976   1.454   6.521 -1.2674  0.3127  0.6026
 3327SOL    HW210881   0.977   1.300   6.577 -0.2072 -0.7968 -2.2776
 3328SOL     OW10882   3.732   4.062   3.528  0.1188 -0.2490  0.1827
 3328SOL    HW110883   3.758   4.063   3.625  0.6887 -0.8780  0.0390
 3328SOL    HW210884   3.648   4.115   3.516 -0.2476 -0.6069  1.1043
 3329SOL     OW10885   5.992   6.220   2.501 -0.0787  0.3136 -0.3826
 3329SOL    HW110886   6.063   6.178   2.443 -0.3489  2.1277 -2.1397
 3329SOL    HW210887   5.912   6.242   2.445 -1.1252  0.4243  1.0975
 3330SOL     OW10888   3.463   2.444   0.242 -0.2150 -0.1791 -1.0458
 3330SOL    HW110889   3.367   2.427   0.220  0.1087 -0.2818 -2.4941
 3330SOL    HW210890   3.470   2.485   0.333 -1.5609 -0.9030 -0.5930
 3331SOL     OW10891   2.897   5.562   0.761  0.7291 -0.4323  0.0390
 3331SOL    HW110892   2.888   5.503   0.681 -2.8848  1.3740 -1.1441
 3331SOL    HW210893   2.821   5.544   0.824  1.4511  0.6486  1.2513
 3332SOL     OW10894   3.098   4.925   6.444  0.2278 -0.2839  0.0524
 3332SOL    HW110895   3.122   4.982   6.366  0.5387 -0.7779 -0.2161
 3332SOL    HW210896   3.177   4.916   6.505  0.5625 -1.3751 -0.5026
 3333SOL     OW10897   5.400   2.622   4.152  0.2693  0.2406 -0.2499
 3333SOL    HW110898   5.393   2.682   4.072 -1.0246 -0.7508 -0.9053
 3333SOL    HW210899   5.331   2.648   4.219 -1.4123 -1.5019 -1.2395
 3334SOL     OW10900   3.525   3.339   5.272 -0.5302  0.6930  0.2092
 3334SOL    HW110901   3.512   3.246   5.238 -0.1709  0.8047 -0.2578
 3334SOL    HW210902   3.487   3.348   5.364 -0.8486  0.1738  0.1275
 3335SOL     OW10903   3.642   0.292   3.184 -0.3470 -0.6570 -0.1358
 3335SOL    HW110904   3.697   0.212   3.207 -0.0386 -0.5027 -0.3183
 3335SOL    HW210905   3.583   0.271   3.106 -0.4970 -0.8015  0.0161
 3336SOL     OW10906   5.675   3.461   6.483  0.5148 -0.1706  0.8504
 3336SOL    HW110907   5.768   3.492   6.505 -0.1591  0.3473  3.3325
 3336SOL    HW210908   5.672   3.361   6.484  1.0150 -0.1894  0.8721
 3337SOL     OW10909   5.332   7.021   3.410 -0.1469  0.4664  0.4454
 3337SOL    HW110910   5.374   7.078   3.339  1.1688 -1.0268 -0.0420
 3337SOL    HW210911   5.234   7.014   3.393 -0.2101  1.9121  0.0666
 3338SOL     OW10912   0.723   0.894   4.729 -0.6687 -0.1596  0.3632
 3338SOL    HW110913   0.731   0.819   4.795  0.7326 -0.4427 -0.1041
 3338SOL    HW210914   0.730   0.858   4.636  0.6160  0.5830  0.1434
 3339SOL     OW10915   1.525   0.802   3.388  0.1828  0.2968 -0.1027
 3339SOL    HW110916   1.511   0.826   3.484  0.5228  1.3342 -0.2947
 3339SOL    HW210917   1.458   0.733   3.361 -0.3261  0.4511  0.7083
 3340SOL     OW10918   0.320   0.126   1.163 -0.1496  0.1601 -0.0802
 3340SOL    HW110919   0.255   0.058   1.130 -0.8026  0.0661  1.3277
 3340SOL    HW210920   0.288   0.217   1.138  0.3543  0.0150 -1.3359
 3341SOL     OW10921   5.848   6.197   3.064  0.0595  0.1917  0.1347
 3341SOL    HW110922   5.749   6.185   3.053 -0.3979  2.3761  1.3502
 3341SOL    HW210923   5.875   6.162   3.153  0.3785 -0.3040 -0.1539
 3342SOL     OW10924   5.562   5.903   0.289  0.5451  0.4820 -0.1053
 3342SOL    HW110925   5.572   5.805   0.275 -0.5003  0.1780  1.0326
 3342SOL    HW210926   5.633   5.935   0.351 -1.2660 -0.3566  2.5998
 3343SOL     OW10927   0.582   3.790   0.229  0.2525  0.1007 -0.0885
 3343SOL    HW110928   0.609   3.733   0.306  1.3556  0.5921 -0.0903
 3343SOL    HW210929   0.657   3.794   0.163 -0.3551  0.3889 -0.7735
 3344SOL     OW10930   6.583   4.762   6.326  0.5327  0.0675  0.3995
 3344SOL    HW110931   6.506   4.809   6.284  0.1088 -1.5110 -0.6673
 3344SOL    HW210932   6.607   4.682   6.272  1.7398 -0.5106  1.7203
 3345SOL     OW10933   1.888   4.344   4.439  0.3819 -0.4450  0.1496
 3345SOL    HW110934   1.907   4.392   4.524 -1.3254  0.4037  0.0915
 3345SOL    HW210935   1.950   4.376   4.368  0.8301 -0.0748  0.7014
 3346SOL     OW10936   4.845   3.663   0.241  0.0157  0.3524 -0.5006
 3346SOL    HW110937   4.840   3.697   0.147  1.4966  0.7072 -0.4691
 3346SOL    HW210938   4.752   3.650   0.276 -0.5631  0.6368 -1.8500
 3347SOL     OW10939   5.675   4.171   0.773 -0.0546  0.1073  0.4222
 3347SOL    HW110940   5.725   4.244   0.727 -0.3276  0.7076  1.0552
 3347SOL    HW210941   5.578   4.195   0.779 -0.5155 -1.2204 -1.1474
 3348SOL     OW10942   6.856   7.016   6.095 -0.0588 -0.0185  0.2291
 3348SOL    HW110943   6.923   7.079   6.055  0.2057 -0.1491  0.4622
 3348SOL    HW210944   6.809   6.967   6.021  0.1009  0.0731  0.0630
 3349SOL     OW10945   1.995   3.580   2.988  0.3537  0.5878  0.1653
 3349SOL    HW110946   1.997   3.544   2.895 -1.1778 -3.8286  1.5441
 3349SOL    HW210947   1.942   3.664   2.990 -1.3961 -0.2977 -2.7111
 3350SOL     OW10948   5.431   6.612   6.360 -0.0606 -0.6804 -0.5380
 3350SOL    HW110949   5.494   6.537   6.381 -0.4293 -0.4680  1.4916
 3350SOL    HW210950   5.395   6.599   6.268  1.7449 -1.6456 -1.1739
 3351SOL     OW10951   6.668   5.640   5.936 -0.6012  0.0156 -0.0551
 3351SOL    HW110952   6.747   5.670   5.882 -1.3067 -0.1981 -1.2476
 3351SOL    HW210953   6.667   5.688   6.024 -0.0100  1.1963 -0.6662
 3352SOL     OW10954   3.572   6.930   4.861  0.4194  0.0192  0.4135
 3352SOL    HW110955   3.477   6.935   4.893  0.4527 -2.4768  1.0713
 3352SOL    HW210956   3.578   6.865   4.786  1.8789 -1.3063  1.6177
 3353SOL     OW10957   2.023   3.288   0.472  0.3939 -0.2440  0.1384
 3353SOL    HW110958   2.042   3.302   0.569 -0.5949  0.4319  0.2494
 3353SOL    HW210959   2.043   3.193   0.448 -0.8009 -0.8403  1.3719
 3354SOL     OW10960   1.952   0.764   6.359 -0.3082 -0.3143  0.3724
 3354SOL    HW110961   1.993   0.742   6.270 -0.2667 -0.1509  0.3494
 3354SOL    HW210962   1.919   0.859   6.357 -0.4613 -0.3651  0.4751
 3355SOL     OW10963   0.606   6.616   6.697  0.2244  0.7380  0.0567
 3355SOL    HW110964   0.581   6.578   6.609  0.5284  1.7691 -0.4936
 3355SOL    HW210965   0.534   6.678   6.728 -1.6945 -2.3290  2.3267
 3356SOL     OW10966   1.247   1.972   4.681  0.1731 -0.3830  0.0750
 3356SOL    HW110967   1.166   2.008   4.728  1.0509  1.1022  0.5217
 3356SOL    HW210968   1.229   1.964   4.583 -0.2488  0.7148  0.0566
 3357SOL     OW10969   0.380   0.442   5.233 -0.6691  0.3089  1.2588
 3357SOL    HW110970   0.406   0.492   5.316  2.3415  1.3154 -0.1487
 3357SOL    HW210971   0.456   0.383   5.205 -0.9835  1.1240 -1.5669
 3358SOL     OW10972   0.989   2.643   5.207  0.3096 -0.1044 -0.3091
 3358SOL    HW110973   0.965   2.664   5.112  0.1857 -0.4798 -0.3667
 3358SOL    HW210974   0.973   2.723   5.265 -2.1210 -0.6247 -0.1606
 3359SOL     OW10975   4.199   1.143   3.218  0.1053 -0.9288 -0.1208
 3359SOL    HW110976   4.109   1.103   3.236  1.0561 -2.0934  2.4693
 3359SOL    HW210977   4.203   1.172   3.122 -3.4093  0.3013 -0.0591
 3360SOL     OW10978   6.374   6.490   0.719 -0.4203 -0.5963  0.3707
 3360SOL    HW110979   6.303   6.456   0.657  1.6732 -2.8454 -0.9593
 3360SOL    HW210980   6.416   6.413   0.767  0.3939  0.7813  1.9536
 3361SOL     OW10981   5.491   4.974   3.215 -0.4895  0.5796  0.1656
 3361SOL    HW110982   5.490   4.894   3.275  1.2157 -0.4109 -1.0445
 3361SOL    HW210983   5.405   4.980   3.165 -0.3169 -1.0079 -0.3640
 3362SOL     OW10984   0.983   2.381   4.288  0.1660  0.1150 -0.0198
 3362SOL    HW110985   1.053   2.439   4.247  1.6522 -0.8993  0.9882
 3362SOL    HW210986   1.009   2.357   4.381 -1.1026 -1.0027  0.0896
 3363SOL     OW10987   5.358   4.446   5.961  0.4141  0.4659  0.2887
 3363SOL    HW110988   5.276   4.389   5.958 -0.4103  1.6468 -0.8862
 3363SOL    HW210989   5.347   4.523   5.898  3.0337 -0.1149 -0.9724
 3364SOL     OW10990   5.581   1.740   5.161  0.1076  0.1299  0.3768
 3364SOL    HW110991   5.626   1.828   5.151  0.1200 -0.0354 -1.4360
 3364SOL    HW210992   5.649   1.670   5.186  0.8515 -0.0227 -1.8380
 3365SOL     OW10993   6.521   1.391   4.737  0.1160  0.1654  0.0729
 3365SOL    HW110994   6.577   1.400   4.819  1.2607 -0.6641 -0.6006
 3365SOL    HW210995   6.424   1.390   4.763  0.4831 -1.0988  1.5270
 3366SOL     OW10996   2.020   3.929   3.816  0.4387 -0.0586 -0.3667
 3366SOL    HW110997   2.086   3.870   3.770  1.2188 -0.4071  1.1314
 3366SOL    HW210998   1.927   3.906   3.785  0.8026 -1.3995 -0.5409
 3367SOL     OW10999   3.185   0.683   0.292  0.2726  0.4071 -0.2899
 3367SOL    HW111000   3.240   0.692   0.374  2.4817  0.9031 -1.7508
 3367SOL    HW211001   3.111   0.617   0.308  0.7812  0.3308  1.9818
 3368SOL     OW11002   0.909   5.040   1.820  0.1695  0.0291  0.7216
 3368SOL    HW111003   0.908   4.940   1.813 -2.1216  0.1028 -0.7834
 3368SOL    HW211004   0.835   5.070   1.880  0.2600  0.8612  0.4266
 3369SOL     OW11005   5.426   0.005   0.682  0.0616 -0.2229 -0.1188
 3369SOL    HW111006   5.465   0.080   0.630  2.2513 -0.9966  0.3126
 3369SOL    HW211007   5.407   0.035   0.776  1.9483 -0.4422  0.3687
 3370SOL     OW11008   5.380   4.716   1.224  0.1601 -0.4348 -0.4607
 3370SOL    HW111009   5.358   4.659   1.145 -2.1154 -0.1641 -0.0801
 3370SOL    HW211010   5.351   4.671   1.308  0.4586  0.2783  0.0408
 3371SOL     OW11011   4.843   4.114   3.936 -0.0301  0.8924 -0.0305
 3371SOL    HW111012   4.893   4.179   3.993 -0.1346  0.8099  0.1554
 3371SOL    HW211013   4.823   4.031   3.989  1.4601  0.0604 -0.7215
 3372SOL     OW11014   5.169   2.282   5.457 -0.0288 -0.1314  0.5038
 3372SOL    HW111015   5.157   2.201   5.400  0.1328  0.0951  0.1469
 3372SOL    HW211016   5.203   2.255   5.547  2.1749 -0.2854 -0.3201
 3373SOL     OW11017   1.032   2.876   0.808 -0.1320 -0.1297 -0.2313
 3373SOL    HW111018   0.954   2.840   0.859 -1.3212  1.6955 -0.6539
 3373SOL    HW211019   1.109   2.890   0.870 -0.5855 -0.6941  0.4718
 3374SOL     OW11020   5.719   4.329   5.098  0.4080 -0.5328  0.1963
 3374SOL    HW111021   5.724   4.353   5.001  0.5851  0.7892  0.5151
 3374SOL    HW211022   5.640   4.270   5.113  0.8750 -1.4660 -0.8880
 3375SOL     OW11023   5.274   6.878   2.947 -0.0399  0.4879 -0.0339
 3375SOL    HW111024   5.301   6.786   2.975  2.4858  0.7436 -1.2913
 3375SOL    HW211025   5.247   6.931   3.027  1.4150 -0.4771  1.1556
 3376SOL     OW11026   3.150   3.773   4.985  0.0846 -0.4250 -0.4257
 3376SOL    HW111027   3.065   3.772   5.038 -0.7022 -0.1554 -1.6600
 3376SOL    HW211028   3.224   3.811   5.042 -0.1518 -2.3605  1.2859
 3377SOL     OW11029   6.003   5.244   3.936 -0.2876  0.2299  0.6574
 3377SOL    HW111030   5.950   5.272   4.015 -0.7335  2.1374 -0.2671
 3377SOL    HW211031   6.010   5.320   3.871  1.1523 -0.8696 -0.5562
 3378SOL     OW11032   5.245   3.339   0.537  0.3671 -0.0448  0.1443
 3378SOL    HW111033   5.147   3.353   0.547  0.2215 -0.2038 -0.9208
 3378SOL    HW211034   5.295   3.405   0.593 -0.3461  0.4488  0.2073
 3379SOL     OW11035   6.601   4.452   5.573 -0.2272  1.2118  1.1781
 3379SOL    HW111036   6.650   4.436   5.488 -2.3437  2.6224 -0.4192
 3379SOL    HW211037   6.660   4.501   5.638  0.7823  1.9774 -0.2697
 3380SOL     OW11038   3.719   4.367   0.710 -0.0135 -0.6016 -0.1494
 3380SOL    HW111039   3.713   4.289   0.771 -0.2423  1.1106  2.1517
 3380SOL    HW211040   3.638   4.370   0.652 -0.5487 -1.4347  0.5274
 3381SOL     OW11041   5.915   5.903   2.872 -0.3607 -0.2172  0.3522
 3381SOL    HW111042   5.844   5.832   2.873 -0.3220 -0.2780 -0.4466
 3381SOL    HW211043   5.998   5.866   2.829 -0.6763  0.6052 -1.0254
 3382SOL     OW11044   5.407   1.386   4.583 -0.1942  0.3390  0.2325
 3382SOL    HW111045   5.345   1.453   4.543  0.2334  0.3862 -0.3654
 3382SOL    HW211046   5.383   1.295   4.552 -0.6152  0.2347  0.8438
 3383SOL     OW11047   0.082   3.361   1.560 -0.3923 -0.9702 -0.1667
 3383SOL    HW111048   0.009   3.306   1.601  0.0303 -1.0089  0.5468
 3383SOL    HW211049   0.169   3.314   1.572 -0.1634 -0.6224 -0.4594
 3384SOL     OW11050   6.915   3.368   6.440  0.1333  0.0352 -0.2344
 3384SOL    HW111051   6.846   3.438   6.460  1.1985  1.4852 -1.4355
 3384SOL    HW211052   7.004   3.399   6.474  0.7299 -0.4789 -1.3002
 3385SOL     OW11053   1.691   1.601   4.224  0.7292  0.1693  0.8560
 3385SOL    HW111054   1.693   1.661   4.304  0.8410  1.6536 -0.2242
 3385SOL    HW211055   1.769   1.622   4.165 -0.4450  0.5078 -0.6274
 3386SOL     OW11056   6.516   0.453   6.144  0.0979  0.3074  0.3987
 3386SOL    HW111057   6.488   0.370   6.192 -0.1297  0.2789  0.2218
 3386SOL    HW211058   6.612   0.445   6.117 -0.2771 -0.4819 -0.8100
 3387SOL     OW11059   4.270   2.555   6.867  0.0611 -0.2919 -0.0148
 3387SOL    HW111060   4.274   2.654   6.877  0.5161 -0.4308  1.5071
 3387SOL    HW211061   4.363   2.519   6.856 -0.0569 -0.5833 -0.0602
 3388SOL     OW11062   6.299   0.476   2.846 -0.6722  0.4654  0.4047
 3388SOL    HW111063   6.227   0.460   2.778 -0.3020 -3.1341  0.6540
 3388SOL    HW211064   6.294   0.406   2.917  1.1221  2.0463  2.2003
 3389SOL     OW11065   4.956   5.936   6.936  0.0104 -0.1059 -0.1609
 3389SOL    HW111066   4.979   6.020   6.985  1.2545 -0.9820  0.8344
 3389SOL    HW211067   5.037   5.902   6.889 -0.5218 -0.6648 -0.6827
 3390SOL     OW11068   1.592   1.274   1.482 -0.2185  0.0900  0.0971
 3390SOL    HW111069   1.551   1.227   1.404 -0.8416  0.9007 -0.0731
 3390SOL    HW211070   1.622   1.206   1.550 -0.7718 -0.5629 -0.3037
 3391SOL     OW11071   2.270   0.939   0.160 -0.1317 -0.3684  0.5063
 3391SOL    HW111072   2.197   0.952   0.093  1.4058  0.8544 -1.0554
 3391SOL    HW211073   2.247   0.863   0.221 -1.4222 -1.8693 -1.7086
 3392SOL     OW11074   4.596   2.161   4.595 -0.2408  0.0301  0.1291
 3392SOL    HW111075   4.694   2.171   4.578 -0.4847 -0.3010 -1.6910
 3392SOL    HW211076   4.550   2.247   4.573 -0.3893  0.1391  0.8396
 3393SOL     OW11077   6.113   3.319   1.889  0.1674 -0.3385 -0.0221
 3393SOL    HW111078   6.048   3.256   1.847 -0.6025  0.6570 -0.3465
 3393SOL    HW211079   6.068   3.369   1.963  0.1924  1.2158 -1.0120
 3394SOL     OW11080   2.574   0.720   0.363 -0.0139  0.1176  0.8226
 3394SOL    HW111081   2.547   0.699   0.268 -0.1175  1.2518  0.5907
 3394SOL    HW211082   2.559   0.639   0.420  1.0095 -0.9075 -0.3171
 3395SOL     OW11083   4.990   1.356   3.016 -0.2672 -0.4259 -0.7363
 3395SOL    HW111084   4.957   1.385   3.106  1.9272 -0.1447  0.0281
 3395SOL    HW211085   4.938   1.404   2.945  0.5573  2.4375  0.4468
 3396SOL     OW11086   4.194   4.879   6.489 -0.2693 -0.3420 -0.8473
 3396SOL    HW111087   4.230   4.859   6.580 -1.1829  1.6728  0.0015
 3396SOL    HW211088   4.094   4.875   6.491 -0.2805 -1.0554 -1.9800
 3397SOL     OW11089   6.530   4.680   6.990 -0.1641  0.3604  0.3938
 3397SOL    HW111090   6.505   4.764   6.941  0.0183 -0.3783 -1.0107
 3397SOL    HW211091   6.629   4.669   6.988 -0.2850 -0.7008 -0.8523
 3398SOL     OW11092   5.319   4.627   5.759 -0.3102 -0.3966  1.1669
 3398SOL    HW111093   5.234   4.610   5.709 -0.5805 -1.4029  1.9335
 3398SOL    HW211094   5.386   4.670   5.698 -0.9460 -0.7250  0.2133
 3399SOL     OW11095   1.512   5.439   3.181 -0.8920 -0.5262  0.4105
 3399SOL    HW111096   1.575   5.513   3.204 -1.1326 -0.5013  1.0107
 3399SOL    HW211097   1.502   5.434   3.082 -1.2070  0.5247  0.3741
 3400SOL     OW11098   5.691   5.649   4.165  0.2876  0.2375 -0.2394
 3400SOL    HW111099   5.597   5.636   4.196  1.2030 -1.3957  2.1600
 3400SOL    HW211100   5.704   5.602   4.077 -0.4232 -2.2651  0.8947
 3401SOL     OW11101   1.963   6.621   3.153  0.5020 -0.4373 -0.0955
 3401SOL    HW111102   1.980   6.719   3.146  0.5706 -0.4236  0.2631
 3401SOL    HW211103   1.976   6.591   3.247 -1.1821 -0.4828  0.1562
 3402SOL     OW11104   1.786   2.079   3.902 -0.3649 -0.4685  0.3559
 3402SOL    HW111105   1.711   2.019   3.932 -1.0244  0.7917  1.2877
 3402SOL    HW211106   1.749   2.168   3.877  0.6946 -0.2338 -0.4301
 3403SOL     OW11107   2.063   5.981   0.890  0.1353  0.2932  0.2793
 3403SOL    HW111108   1.990   5.990   0.823  1.6437 -2.5380 -1.9698
 3403SOL    HW211109   2.147   6.022   0.854  0.7997 -0.6383  0.7217
 3404SOL     OW11110   3.800   5.434   2.132  0.4844 -0.4167 -0.3251
 3404SOL    HW111111   3.863   5.357   2.138 -0.3223 -1.1773 -1.2568
 3404SOL    HW211112   3.836   5.511   2.184 -0.0336 -2.3336  3.2032
 3405SOL     OW11113   0.124   5.180   1.358 -0.0846  0.1428 -0.0234
 3405SOL    HW111114   0.114   5.103   1.296  1.2360 -0.2472  0.2276
 3405SOL    HW211115   0.045   5.184   1.419  0.5446 -2.0003  1.0375
 3406SOL     OW11116   0.541   0.472   6.852  0.0178 -0.0331  0.5875
 3406SOL    HW111117   0.523   0.549   6.914 -2.1385  1.2803 -1.5107
 3406SOL    HW211118   0.471   0.402   6.864 -1.8392  1.2658 -1.7863
 3407SOL     OW11119   5.105   4.705   4.881 -0.1980  0.2483 -0.0517
 3407SOL    HW111120   5.102   4.687   4.980  0.4295 -1.4803 -0.2999
 3407SOL    HW211121   5.186   4.661   4.843 -2.3833 -2.4767 -1.9296
 3408SOL     OW11122   3.764   2.799   5.312 -0.1886  0.0626  0.0739
 3408SOL    HW111123   3.712   2.884   5.321 -1.8693 -0.8119 -0.9411
 3408SOL    HW211124   3.703   2.726   5.280  1.0620 -1.6882  1.5125
 3409SOL     OW11125   5.727   5.499   3.938 -0.3285  0.4825 -0.2000
 3409SOL    HW111126   5.706   5.552   3.857  2.1388 -1.2157 -2.1069
 3409SOL    HW211127   5.687   5.408   3.930  1.3041 -0.2566 -0.3668
 3410SOL     OW11128   6.797   4.105   4.115  0.2402  0.1962 -0.1450
 3410SOL    HW111129   6.895   4.113   4.095  0.0697 -0.4928 -1.3710
 3410SOL    HW211130   6.781   4.020   4.166  0.2996  0.4358  0.2806
 3411SOL     OW11131   2.120   3.853   0.897  0.5394 -0.1654  0.0318
 3411SOL    HW111132   2.035   3.890   0.934  0.2730  0.0133 -0.7331
 3411SOL    HW211133   2.170   3.926   0.849 -0.2225 -0.8620 -1.9096
 3412SOL     OW11134   5.850   2.906   2.126  0.5282 -0.0913 -0.2178
 3412SOL    HW111135   5.823   2.901   2.222  0.4717  2.7480  0.0041
 3412SOL    HW211136   5.924   2.841   2.109  0.8370 -0.3474  1.8573
 3413SOL     OW11137   2.286   4.517   4.711 -0.0704 -0.5213 -0.1786
 3413SOL    HW111138   2.353   4.587   4.735  0.6825 -0.7597 -1.5313
 3413SOL    HW211139   2.220   4.507   4.786  0.1511  1.2032  0.2774
 3414SOL     OW11140   5.730   5.457   2.892 -0.7718  0.2720  0.3904
 3414SOL    HW111141   5.716   5.388   2.963  0.5796 -0.0182  0.3980
 3414SOL    HW211142   5.659   5.448   2.822 -1.0759 -0.5979  0.7987
 3415SOL     OW11143   5.768   3.255   1.331  0.4821 -0.1050  0.1033
 3415SOL    HW111144   5.840   3.261   1.400 -0.2716 -0.7519  0.9912
 3415SOL    HW211145   5.690   3.311   1.359 -0.2678 -1.2321  0.3675
 3416SOL     OW11146   1.971   4.774   3.200 -0.0453  0.5234  0.6286
 3416SOL    HW111147   2.070   4.757   3.204 -0.0920  0.1035  0.0988
 3416SOL    HW211148   1.955   4.864   3.158  0.0898  0.2118 -0.1013
 3417SOL     OW11149   2.691   2.309   1.465 -0.3186 -0.4888  0.0654
 3417SOL    HW111150   2.684   2.305   1.565  2.3797  1.1184  0.4197
 3417SOL    HW211151   2.727   2.222   1.431  2.4927  0.1504  1.0439
 3418SOL     OW11152   6.629   3.146   3.872  0.2882 -0.0896  0.6083
 3418SOL    HW111153   6.531   3.131   3.882  0.2073 -0.6330 -0.8171
 3418SOL    HW211154   6.661   3.108   3.785  1.5211  1.2429  0.4241
 3419SOL     OW11155   5.951   0.986   4.395 -0.6183  0.1096 -0.8062
 3419SOL    HW111156   6.000   1.071   4.378  0.5922 -0.8849 -2.6785
 3419SOL    HW211157   5.853   0.999   4.377 -0.5948  1.3042 -0.1770
 3420SOL     OW11158   2.824   4.768   1.542 -0.3340  0.2031  0.7443
 3420SOL    HW111159   2.827   4.758   1.442 -0.2980 -0.2370  0.7882
 3420SOL    HW211160   2.915   4.791   1.576 -0.2329 -0.1682  0.7290
 3421SOL     OW11161   1.143   2.855   3.926 -0.0678  0.2414  0.0539
 3421SOL    HW111162   1.044   2.861   3.939  0.0392  2.7390  0.1880
 3421SOL    HW211163   1.166   2.879   3.832  0.5466  2.6378  0.7480
 3422SOL     OW11164   0.034   5.947   3.686  0.2997 -0.5926 -0.0760
 3422SOL    HW111165   0.073   5.861   3.653  1.6278 -0.2929  0.6296
 3422SOL    HW211166   0.033   6.013   3.611 -1.4334 -1.4090 -0.8323
 3423SOL     OW11167   2.094   0.529   2.197  0.4297 -0.2609 -0.4206
 3423SOL    HW111168   2.104   0.529   2.297 -0.5991  0.5201 -0.2911
 3423SOL    HW211169   1.997   0.538   2.174  0.5217 -1.7625 -1.5049
 3424SOL     OW11170   0.169   6.581   4.975  0.1633 -0.2657  0.2548
 3424SOL    HW111171   0.121   6.569   4.889  0.7667 -0.5003 -0.0607
 3424SOL    HW211172   0.120   6.646   5.033 -1.3433 -1.6291  0.5730
 3425SOL     OW11173   4.961   2.813   2.866 -0.5577 -0.4004  0.1215
 3425SOL    HW111174   4.909   2.862   2.796 -2.9093 -0.0328  1.9938
 3425SOL    HW211175   4.945   2.856   2.955  4.0304  0.5434  0.7700
 3426SOL     OW11176   4.188   2.952   1.481  0.9033  0.1771 -0.2279
 3426SOL    HW111177   4.133   3.008   1.544  0.4322  0.5750 -0.9679
 3426SOL    HW211178   4.236   3.012   1.418  3.0033 -0.1084  1.0038
 3427SOL     OW11179   6.938   2.361   3.296  0.1765  0.1229  0.1815
 3427SOL    HW111180   6.871   2.344   3.223  0.8163  0.8763 -0.6065
 3427SOL    HW211181   6.935   2.458   3.321  0.6276  0.0581  0.4903
 3428SOL     OW11182   2.159   3.760   4.233 -0.5121  0.0860 -0.7507
 3428SOL    HW111183   2.141   3.760   4.332 -0.5079 -0.7683 -0.7414
 3428SOL    HW211184   2.221   3.835   4.211 -0.8159  0.5177 -0.1621
 3429SOL     OW11185   5.792   0.658   0.791  0.0830  0.0439  0.2689
 3429SOL    HW111186   5.784   0.664   0.890  0.8534 -0.4113  0.3657
 3429SOL    HW211187   5.709   0.617   0.753  0.2838 -0.9032  0.8398
 3430SOL     OW11188   2.784   6.517   3.917  0.2082 -0.4107  0.3124
 3430SOL    HW111189   2.830   6.491   4.002  0.4650  0.6254  0.5005
 3430SOL    HW211190   2.685   6.505   3.927 -0.1607  3.0291  2.0542
 3431SOL     OW11191   2.759   2.260   0.101 -0.3945  0.2911  0.0472
 3431SOL    HW111192   2.833   2.326   0.107 -0.3487  0.1091  2.2560
 3431SOL    HW211193   2.755   2.222   0.008  0.9214  1.8096 -0.6662
 3432SOL     OW11194   5.702   1.818   3.113  0.7239  0.4362  0.1415
 3432SOL    HW111195   5.665   1.883   3.180 -0.8334  0.0465 -0.3031
 3432SOL    HW211196   5.645   1.736   3.111  2.8397 -1.1697  0.9634
 3433SOL     OW11197   4.692   5.546   2.300  0.1911 -0.1857 -0.1243
 3433SOL    HW111198   4.723   5.575   2.210 -0.0266  2.1951  0.4831
 3433SOL    HW211199   4.621   5.476   2.290 -0.8666  1.0482 -1.8896
 3434SOL     OW11200   0.198   3.496   3.513  0.3530 -0.3278 -0.2851
 3434SOL    HW111201   0.269   3.566   3.522 -0.7961  1.0203 -1.2545
 3434SOL    HW211202   0.166   3.468   3.604  1.7382 -0.5938  0.1477
 3435SOL     OW11203   3.632   5.281   5.346  0.3109 -0.5432 -0.6984
 3435SOL    HW111204   3.672   5.233   5.424 -1.4806 -0.8948  0.0579
 3435SOL    HW211205   3.614   5.216   5.272  1.4669 -0.3086 -1.2208
 3436SOL     OW11206   4.970   5.077   0.480  0.0037 -0.1960  0.0812
 3436SOL    HW111207   4.917   5.057   0.397 -0.4930 -2.1017  0.8225
 3436SOL    HW211208   4.908   5.101   0.554  0.1639 -2.1124  0.8684
 3437SOL     OW11209   6.703   6.076   5.440  0.1925 -0.4128 -0.1027
 3437SOL    HW111210   6.794   6.093   5.478 -0.3976  3.2024  0.0735
 3437SOL    HW211211   6.643   6.042   5.512  0.9394 -1.1051  0.2118
 3438SOL     OW11212   2.240   4.753   0.963  0.1316  0.2042 -0.0389
 3438SOL    HW111213   2.244   4.762   0.863 -0.2961  1.3684  0.0290
 3438SOL    HW211214   2.151   4.787   0.996  1.1162  2.0137  0.9142
 3439SOL     OW11215   0.327   0.025   6.529 -0.0716 -0.4455 -0.0649
 3439SOL    HW111216   0.280  -0.027   6.600 -1.5024 -0.8675 -1.2620
 3439SOL    HW211217   0.419   0.050   6.561 -0.6520 -0.6272  1.8950
 3440SOL     OW11218   1.023   0.043   0.651  0.0801  0.0506  0.2703
 3440SOL    HW111219   1.072   0.051   0.565 -0.4834  0.4491 -0.0179
 3440SOL    HW211220   1.038   0.124   0.707 -0.0950  0.0871  0.2647
 3441SOL     OW11221   1.498   5.564   2.322 -0.3071  0.5431 -0.3802
 3441SOL    HW111222   1.531   5.473   2.349  1.1025  0.7359 -1.2957
 3441SOL    HW211223   1.413   5.585   2.370 -1.1183 -1.6083 -0.7682
 3442SOL     OW11224   1.658   5.703   0.900  0.0594 -0.0844  0.6559
 3442SOL    HW111225   1.684   5.641   0.973  0.7702 -0.5919 -0.0105
 3442SOL    HW211226   1.652   5.796   0.936 -0.1178 -0.3959  1.4605
 3443SOL     OW11227   3.263   0.784   2.813 -0.4186  0.2234  0.2574
 3443SOL    HW111228   3.231   0.791   2.719 -0.1025 -1.3870  0.0130
 3443SOL    HW211229   3.350   0.832   2.822 -0.4677  0.4152 -0.2536
 3444SOL     OW11230   2.856   5.908   1.698  0.2196  0.2848 -0.4141
 3444SOL    HW111231   2.878   5.993   1.746 -1.7837 -0.0579  1.2179
 3444SOL    HW211232   2.880   5.917   1.601  0.7556  2.4066 -0.1213
 3445SOL     OW11233   2.745   0.872   3.736 -0.4549 -0.0900 -0.2156
 3445SOL    HW111234   2.700   0.869   3.825 -0.6215  0.2459 -0.2850
 3445SOL    HW211235   2.823   0.810   3.735 -0.6916 -0.3928  0.0316
 3446SOL     OW11236   5.026   6.940   2.256 -0.2166 -0.1562 -0.1502
 3446SOL    HW111237   5.022   6.910   2.352 -2.8304 -0.8935 -0.4419
 3446SOL    HW211238   4.954   6.896   2.203  0.2619  1.3341 -2.1762
 3447SOL     OW11239   0.077   1.211   6.832  0.2068  0.0290 -0.0843
 3447SOL    HW111240   0.096   1.164   6.919  0.0201 -0.0181 -0.0693
 3447SOL    HW211241   0.040   1.301   6.851  1.4920  0.5873 -0.1002
 3448SOL     OW11242   3.323   2.880   4.396  0.5552 -0.1347  0.2325
 3448SOL    HW111243   3.312   2.794   4.346 -1.0449  1.5531 -2.5366
 3448SOL    HW211244   3.419   2.909   4.392  0.8130 -1.0012 -0.1446
 3449SOL     OW11245   5.181   6.764   1.370  0.0877 -1.0685  0.6812
 3449SOL    HW111246   5.105   6.714   1.412  0.1415 -0.5514  1.4217
 3449SOL    HW211247   5.230   6.815   1.441 -0.3060  0.4892 -0.1410
 3450SOL     OW11248   2.040   3.529   4.537  0.0986  0.1020 -0.0050
 3450SOL    HW111249   2.022   3.626   4.520  1.4910  0.2578 -0.7388
 3450SOL    HW211250   2.102   3.494   4.466  1.6181 -0.6748  1.6460
 3451SOL     OW11251   1.949   1.985   2.770  0.1576 -0.7111 -0.4647
 3451SOL    HW111252   1.985   1.966   2.861  1.7096  0.1595 -0.8495
 3451SOL    HW211253   1.863   2.035   2.778  0.5967 -0.0834  0.5258
 3452SOL     OW11254   5.814   1.210   2.725 -0.0397  0.2267  0.0600
 3452SOL    HW111255   5.825   1.122   2.771 -1.8976  0.4677  1.0586
 3452SOL    HW211256   5.821   1.284   2.792 -3.7664  0.5448  0.3086
 3453SOL     OW11257   2.031   0.158   3.163  0.8138 -0.1148  0.3097
 3453SOL    HW111258   1.974   0.201   3.233  2.8021  0.6769  1.5306
 3453SOL    HW211259   2.044   0.061   3.186 -1.7763 -0.9003 -1.1920
 3454SOL     OW11260   5.294   6.442   2.151 -0.3711 -0.3247 -0.0701
 3454SOL    HW111261   5.207   6.485   2.128 -0.1836 -0.3972 -0.9738
 3454SOL    HW211262   5.290   6.345   2.125 -0.4400 -0.6236  1.0148
 3455SOL     OW11263   3.212   2.538   0.028 -0.2515  0.4035  0.0725
 3455SOL    HW111264   3.290   2.508  -0.027 -0.2875  0.2181  0.1218
 3455SOL    HW211265   3.195   2.472   0.102 -1.2451 -0.2437 -0.6962
 3456SOL     OW11266   1.904   0.240   6.549 -0.4294  0.0319 -0.4088
 3456SOL    HW111267   1.961   0.168   6.511 -0.3426 -1.0053  1.5648
 3456SOL    HW211268   1.897   0.315   6.483  0.6293 -1.1497 -1.9440
 3457SOL     OW11269   2.913   6.345   5.471  0.1943 -0.0910 -0.0169
 3457SOL    HW111270   2.975   6.288   5.525 -2.1206 -1.1367  1.7695
 3457SOL    HW211271   2.861   6.405   5.533 -1.3869 -0.1217 -1.2390
 3458SOL     OW11272   6.497   3.583   4.627 -0.2046 -0.2821  0.3189
 3458SOL    HW111273   6.464   3.647   4.698 -2.6374 -1.1367  0.0520
 3458SOL    HW211274   6.473   3.490   4.653 -0.5087 -0.6759 -1.2658
 3459SOL     OW11275   3.621   6.755   6.907  0.1621  0.3709  0.1844
 3459SOL    HW111276   3.560   6.812   6.853 -0.6031  0.2060  0.8443
 3459SOL    HW211277   3.567   6.685   6.956  1.0884 -1.0474 -0.7469
 3460SOL     OW11278   0.604   2.043   2.165 -0.3909 -0.1961 -0.0658
 3460SOL    HW111279   0.506   2.038   2.147 -0.5370  0.5383  0.4906
 3460SOL    HW211280   0.625   1.990   2.247 -0.4434  0.2428  0.2368
 3461SOL     OW11281   5.174   1.554   6.571  0.0311 -0.2694  0.5245
 3461SOL    HW111282   5.244   1.553   6.643  0.7952 -0.4089 -0.2078
 3461SOL    HW211283   5.116   1.473   6.580 -1.3294  0.8320  2.3550
 3462SOL     OW11284   6.776   2.227   1.766 -0.5789 -0.0115  0.0766
 3462SOL    HW111285   6.783   2.135   1.805 -0.8198  0.1175  0.4310
 3462SOL    HW211286   6.826   2.231   1.680  2.2653  0.4153  1.6474
 3463SOL     OW11287   1.217   5.983   0.031  0.4750  0.3873 -0.3460
 3463SOL    HW111288   1.273   5.985  -0.052 -0.2974  1.7974 -0.8556
 3463SOL    HW211289   1.263   6.033   0.104  0.7271 -0.0562 -0.1974
 3464SOL     OW11290   6.899   2.433   4.639 -0.3468 -0.0822 -0.3625
 3464SOL    HW111291   6.971   2.431   4.710  0.7891  0.1831 -1.4680
 3464SOL    HW211292   6.822   2.488   4.672 -0.6885 -1.5308  1.4077
 3465SOL     OW11293   2.441   0.965   3.118 -0.1508  0.2531 -0.5026
 3465SOL    HW111294   2.360   0.911   3.144  1.1898 -1.0737  1.1328
 3465SOL    HW211295   2.515   0.904   3.091  1.2326  1.2513  0.8254
 3466SOL     OW11296   1.299   3.698   2.305 -0.0642  0.8161 -0.0203
 3466SOL    HW111297   1.367   3.626   2.288 -0.7640  0.8650 -3.9616
 3466SOL    HW211298   1.228   3.662   2.365  1.4813 -0.4689  1.1598
 3467SOL     OW11299   2.002   3.954   4.713  0.0417 -0.0840 -0.3351
 3467SOL    HW111300   2.051   3.945   4.800 -2.1276  0.5948  1.0525
 3467SOL    HW211301   1.958   4.044   4.709 -0.2483 -0.2705 -1.9627
 3468SOL     OW11302   4.854   2.023   0.338  0.1158  0.1276 -0.4303
 3468SOL    HW111303   4.760   2.030   0.371 -0.2955  3.3041 -1.9423
 3468SOL    HW211304   4.861   2.063   0.247  2.7926 -0.8894 -0.7744
 3469SOL     OW11305   3.354   1.711   5.177 -0.6782  0.3929  0.1100
 3469SOL    HW111306   3.332   1.723   5.080 -1.2247  0.3722  0.2246
 3469SOL    HW211307   3.330   1.618   5.205 -1.9507  0.8506  0.6193
 3470SOL     OW11308   1.435   4.980   3.663 -0.0332  0.3883  0.7394
 3470SOL    HW111309   1.520   4.988   3.612  0.1723  1.4139  1.2199
 3470SOL    HW211310   1.455   4.967   3.760 -0.4227  0.2356  0.8026
 3471SOL     OW11311   0.642   2.452   2.512  0.0072 -0.3138 -0.7572
 3471SOL    HW111312   0.619   2.459   2.415  0.3805 -0.5387 -0.8649
 3471SOL    HW211313   0.702   2.373   2.527  2.0385  1.1385 -0.7491
 3472SOL     OW11314   2.000   1.394   4.363 -0.0478  0.0140  0.0930
 3472SOL    HW111315   2.078   1.408   4.423 -0.0507 -0.2896  0.1679
 3472SOL    HW211316   1.986   1.476   4.307  0.1380  0.1825  0.2918
 3473SOL     OW11317   3.751   1.052   4.320 -0.0149 -0.8521  0.4477
 3473SOL    HW111318   3.733   0.962   4.358 -0.8260 -0.8060  0.2036
 3473SOL    HW211319   3.665   1.091   4.284  0.4869 -0.3603 -0.2481
 3474SOL     OW11320   5.022   4.432   7.016 -0.2010  0.2890  0.6419
 3474SOL    HW111321   4.992   4.520   6.980  1.0776 -0.1871 -1.7631
 3474SOL    HW211322   5.063   4.445   7.106 -1.3650  1.9017  0.9671
 3475SOL     OW11323   2.540   1.294   0.274  0.4224  0.4111  0.2230
 3475SOL    HW111324   2.463   1.283   0.337  1.4824  1.1584  1.6790
 3475SOL    HW211325   2.565   1.205   0.237 -1.0095  0.1276 -0.1533
 3476SOL     OW11326   4.213   3.716   0.974  0.4724 -0.5639  0.5023
 3476SOL    HW111327   4.217   3.698   0.876 -0.7626  2.9164 -0.3229
 3476SOL    HW211328   4.293   3.769   1.002  0.1864 -0.4411  1.1136
 3477SOL     OW11329   0.746   2.641   2.739 -0.2702  0.1131 -0.0868
 3477SOL    HW111330   0.708   2.579   2.672 -2.1944  1.2918 -0.1767
 3477SOL    HW211331   0.679   2.713   2.760  1.2511  1.2531  1.1670
 3478SOL     OW11332   1.134   0.640   4.867  0.3213  0.1558  0.1662
 3478SOL    HW111333   1.225   0.613   4.835  0.4546  0.3999  0.3388
 3478SOL    HW211334   1.065   0.587   4.818  0.4330  1.7374 -1.8163
 3479SOL     OW11335   5.122   5.171   4.184  0.3992  0.1355 -0.0896
 3479SOL    HW111336   5.192   5.240   4.199  1.3377 -0.3054 -2.1457
 3479SOL    HW211337   5.141   5.122   4.099 -1.6386 -0.9456  0.0199
 3480SOL     OW11338   5.941   5.877   3.146  0.0946  0.1301 -0.3001
 3480SOL    HW111339   5.916   5.926   3.063 -0.2790 -1.2732 -1.0546
 3480SOL    HW211340   6.034   5.840   3.136  0.3511  0.6159  0.2351
 3481SOL     OW11341   1.323   5.467   6.769 -0.3309  0.7806 -0.5278
 3481SOL    HW111342   1.336   5.428   6.861  0.3841 -0.5883 -1.1769
 3481SOL    HW211343   1.240   5.522   6.768 -0.5747  0.4863  0.8356
 3482SOL     OW11344   2.722   1.071   0.497 -0.1704  0.0394 -0.2324
 3482SOL    HW111345   2.629   1.073   0.533  0.0621 -1.2755  0.5317
 3482SOL    HW211346   2.767   1.159   0.514 -0.3711 -0.2286  1.9420
 3483SOL     OW11347   5.617   4.800   6.165  0.9121 -0.0224 -0.7322
 3483SOL    HW111348   5.577   4.724   6.216 -1.9001  0.8630 -1.4724
 3483SOL    HW211349   5.585   4.797   6.070 -0.0756  2.5892 -0.5452
 3484SOL     OW11350   2.710   4.658   2.198 -0.2359 -0.2686 -0.2519
 3484SOL    HW111351   2.776   4.641   2.124 -0.2552  0.2579 -0.3986
 3484SOL    HW211352   2.655   4.577   2.212 -0.9216 -0.0547 -1.5302
 3485SOL     OW11353   1.137   2.693   1.607  0.0119  0.6057 -0.4452
 3485SOL    HW111354   1.044   2.728   1.598 -0.7323 -1.0435  0.4109
 3485SOL    HW211355   1.140   2.622   1.677  1.9735  0.7609 -0.3060
 3486SOL     OW11356   3.880   6.388   6.953 -0.6909 -0.4003 -0.0952
 3486SOL    HW111357   3.814   6.347   7.015  0.9176 -0.8151  1.4447
 3486SOL    HW211358   3.933   6.458   7.002 -0.1056  0.0579 -1.3277
 3487SOL     OW11359   3.471   1.873   3.362 -0.7254  0.0236 -0.2397
 3487SOL    HW111360   3.451   1.798   3.300  0.7104 -0.1091 -0.5775
 3487SOL    HW211361   3.452   1.844   3.456  2.0746 -1.6989 -0.0817
 3488SOL     OW11362   1.741   2.464   3.278 -0.6679  0.1081 -0.1174
 3488SOL    HW111363   1.794   2.442   3.360 -0.9103 -0.8203 -0.1911
 3488SOL    HW211364   1.760   2.558   3.250 -0.5043  0.4019  0.9333
 3489SOL     OW11365   5.957   0.746   6.001  0.6474 -0.4982 -0.2532
 3489SOL    HW111366   6.020   0.748   5.923 -0.9198 -1.4919 -1.6291
 3489SOL    HW211367   5.866   0.717   5.969 -0.5121  0.8375  1.6609
 3490SOL     OW11368   6.670   3.501   6.161  0.6147  0.8025  0.2021
 3490SOL    HW111369   6.673   3.533   6.256  1.7916 -1.2609  0.9429
 3490SOL    HW211370   6.575   3.497   6.130  0.2569  2.1161  1.0445
 3491SOL     OW11371   0.434   5.535   3.152 -0.0865 -0.0088  0.3996
 3491SOL    HW111372   0.448   5.588   3.069 -1.5539 -0.4152 -0.1316
 3491SOL    HW211373   0.471   5.443   3.139 -1.4988 -0.5068 -0.3371
 3492SOL     OW11374   2.934   6.019   5.461  0.0486  0.4196 -0.1526
 3492SOL    HW111375   2.904   5.924   5.467 -0.8368  0.6800 -0.4131
 3492SOL    HW211376   3.024   6.023   5.418 -0.3224 -0.2273 -1.0045
 3493SOL     OW11377   5.844   5.461   4.722  0.1161 -0.1222  0.4779
 3493SOL    HW111378   5.833   5.516   4.804  0.6029 -2.4097  2.1867
 3493SOL    HW211379   5.913   5.501   4.663  1.1238  0.6118  2.1013
 3494SOL     OW11380   2.521   4.984   3.245  0.4616  0.0476 -0.4281
 3494SOL    HW111381   2.513   5.080   3.274 -1.3631 -0.6143  1.5225
 3494SOL    HW211382   2.498   4.924   3.322  0.5109 -1.9653 -1.9052
 3495SOL     OW11383   3.201   4.091   0.237 -0.1156  0.1802  0.5042
 3495SOL    HW111384   3.182   3.993   0.245 -1.0649  0.3472  0.3019
 3495SOL    HW211385   3.187   4.120   0.142  0.9422  0.3611  0.3866
 3496SOL     OW11386   2.021   5.638   0.179 -0.0330  0.3337  0.3066
 3496SOL    HW111387   1.940   5.581   0.166 -0.4239  0.6430  1.2552
 3496SOL    HW211388   1.997   5.717   0.235  0.7334  0.8920 -0.1304
 3497SOL     OW11389   3.357   1.511   0.294  0.0543 -0.4950 -0.5614
 3497SOL    HW111390   3.286   1.450   0.329 -0.7080  1.5078  1.6944
 3497SOL    HW211391   3.348   1.519   0.195 -1.3525 -2.0884 -0.6132
 3498SOL     OW11392   2.710   6.955   0.442  0.2121 -0.3810 -0.0970
 3498SOL    HW111393   2.616   6.960   0.406  0.0112  0.6662  0.5389
 3498SOL    HW211394   2.754   7.044   0.431  0.8516 -0.6382  0.3795
 3499SOL     OW11395   4.509   1.295   6.173  0.6969  0.3373 -0.5043
 3499SOL    HW111396   4.461   1.359   6.234  0.7197  0.5729 -0.7292
 3499SOL    HW211397   4.589   1.258   6.220 -1.5186 -2.7149  1.1811
 3500SOL     OW11398   0.464   4.812   5.232  0.3215  0.3515  0.4095
 3500SOL    HW111399   0.386   4.855   5.277 -0.2758  3.1621 -2.9022
 3500SOL    HW211400   0.548   4.859   5.259  0.0358  1.6201 -0.7947
 3501SOL     OW11401   3.311   6.680   3.342  0.6678  0.0268  0.0332
 3501SOL    HW111402   3.266   6.770   3.343 -0.4051 -0.4952  0.4471
 3501SOL    HW211403   3.395   6.685   3.288  0.1288  1.0404 -0.7415
 3502SOL     OW11404   4.170   1.765   6.703  0.0574  0.0073 -0.2291
 3502SOL    HW111405   4.124   1.841   6.657  1.5382  1.2670  0.2644
 3502SOL    HW211406   4.269   1.776   6.693  0.3318 -3.1060 -2.0553
 3503SOL     OW11407   5.451   2.615   5.987  0.5290  0.4336 -0.0860
 3503SOL    HW111408   5.391   2.691   5.962 -0.2230 -0.7905 -2.2446
 3503SOL    HW211409   5.547   2.644   5.981  0.2426  1.6972  0.9711
 3504SOL     OW11410   3.150   0.280   5.853 -0.0554 -0.2916 -0.1814
 3504SOL    HW111411   3.176   0.374   5.835  0.7799 -1.0075 -3.2851
 3504SOL    HW211412   3.058   0.263   5.818 -0.7220 -0.3587  1.5118
 3505SOL     OW11413   4.574   5.873   6.815 -0.5561 -0.1329 -0.1675
 3505SOL    HW111414   4.627   5.856   6.732 -0.4806 -0.9529  0.0335
 3505SOL    HW211415   4.613   5.949   6.865  0.5231 -0.8129  0.0465
 3506SOL     OW11416   6.959   2.547   3.075  0.0287 -0.0686 -0.4362
 3506SOL    HW111417   6.924   2.467   3.025  0.4657  0.0207 -0.8851
 3506SOL    HW211418   7.059   2.544   3.077  0.0104 -0.1774  0.6155
 3507SOL     OW11419   0.908   3.194   1.862 -0.4147  0.4474  0.3058
 3507SOL    HW111420   0.893   3.261   1.789  0.7840  0.1472 -0.2313
 3507SOL    HW211421   0.876   3.232   1.949 -0.1333  1.5439 -0.0569
 3508SOL     OW11422   5.474   6.163   5.412  0.1550  0.3779 -0.1732
 3508SOL    HW111423   5.533   6.160   5.331  2.2985  1.6333  1.2562
 3508SOL    HW211424   5.481   6.076   5.461  1.4192  0.7660  0.3624
 3509SOL     OW11425   6.617   5.930   6.616  0.1426  0.7599 -0.2023
 3509SOL    HW111426   6.588   5.858   6.553 -0.3157  0.0385  0.8166
 3509SOL    HW211427   6.587   6.019   6.581  0.1179  0.4039 -1.1193
 3510SOL     OW11428   0.069   5.300   4.521  0.3619  0.9093  0.2718
 3510SOL    HW111429   0.137   5.281   4.592  1.2095  2.1312 -0.1804
 3510SOL    HW211430   0.031   5.214   4.487 -0.0373  0.2991  2.1625
 3511SOL     OW11431   6.820   6.570   1.275 -0.0742  0.2129 -0.9756
 3511SOL    HW111432   6.821   6.471   1.260 -1.0063  0.3008 -1.7125
 3511SOL    HW211433   6.860   6.590   1.365  2.3474 -0.6206 -1.7928
 3512SOL     OW11434   3.391   1.444   1.551  0.0596 -0.3889  0.1952
 3512SOL    HW111435   3.423   1.506   1.479 -0.7314 -0.8490 -0.5668
 3512SOL    HW211436   3.294   1.463   1.571  0.2789 -0.2355  1.1834
 3513SOL     OW11437   6.762   6.599   4.489 -0.1229 -0.2245 -0.0098
 3513SOL    HW111438   6.846   6.631   4.444  0.8736  1.0013  2.5389
 3513SOL    HW211439   6.684   6.617   4.429  1.2048  0.3768 -1.6521
 3514SOL     OW11440   3.068   3.551   6.707 -0.1035 -0.2823 -0.3582
 3514SOL    HW111441   3.084   3.452   6.702 -0.4769 -0.3758  0.1465
 3514SOL    HW211442   3.053   3.587   6.616  1.0492 -0.5112 -0.6555
 3515SOL     OW11443   2.488   1.669   4.038 -0.6649 -0.3060  0.5222
 3515SOL    HW111444   2.474   1.613   3.956 -0.7451  0.4535  0.0059
 3515SOL    HW211445   2.584   1.666   4.065 -0.9068 -1.8033  1.3305
 3516SOL     OW11446   2.090   4.325   1.291 -0.1517 -0.4812  0.5837
 3516SOL    HW111447   2.187   4.332   1.313  0.0898 -0.2607 -0.4787
 3516SOL    HW211448   2.042   4.406   1.325  0.3682  0.2802 -0.4552
 3517SOL     OW11449   3.240   0.557   5.877  0.0964  0.5278 -0.9687
 3517SOL    HW111450   3.161   0.617   5.889 -0.2072  0.3410 -1.8812
 3517SOL    HW211451   3.318   0.592   5.928 -0.7976  0.2583  0.6358
 3518SOL     OW11452   6.498   5.671   6.518 -0.3918 -0.0247  0.1370
 3518SOL    HW111453   6.469   5.644   6.426 -2.7080 -0.1359  0.8217
 3518SOL    HW211454   6.417   5.688   6.575  0.9560 -0.4138  2.3097
 3519SOL     OW11455   4.863   0.829   6.180  0.6300  0.8081  0.2600
 3519SOL    HW111456   4.953   0.815   6.222  0.0313 -0.8462  1.1091
 3519SOL    HW211457   4.809   0.745   6.190 -1.2881  2.0155  0.4417
 3520SOL     OW11458   4.397   5.770   0.131  0.2215 -0.2087  0.3316
 3520SOL    HW111459   4.402   5.755   0.033 -1.1948 -1.5918  0.4188
 3520SOL    HW211460   4.308   5.809   0.154 -0.0733 -1.3482  1.2020
 3521SOL     OW11461   2.008   5.912   3.439 -0.5652 -0.3083  0.8652
 3521SOL    HW111462   2.030   6.009   3.451 -1.3393 -0.0581  0.3332
 3521SOL    HW211463   1.919   5.892   3.480 -0.1632 -0.9282  1.4702
 3522SOL     OW11464   4.143   5.395   5.048  0.3955  0.7087 -0.0559
 3522SOL    HW111465   4.151   5.296   5.062  3.0417  0.8099 -0.3045
 3522SOL    HW211466   4.133   5.440   5.137  1.4611  0.3394  0.2703
 3523SOL     OW11467   5.767   6.923   0.100  0.4336  0.0021  0.0144
 3523SOL    HW111468   5.731   7.008   0.139  0.5342 -0.1094  0.3540
 3523SOL    HW211469   5.792   6.939   0.005 -0.4220  0.1079 -0.2070
 3524SOL     OW11470   2.103   5.877   0.037  0.2199 -0.6824  0.1267
 3524SOL    HW111471   2.083   5.791   0.084  0.9081 -1.2988 -0.6566
 3524SOL    HW211472   2.149   5.857  -0.049  0.3341  0.4800 -0.0974
 3525SOL     OW11473   2.978   4.175   6.533 -0.2242 -0.3489 -0.3766
 3525SOL    HW111474   2.969   4.076   6.546 -1.8613 -0.0599  0.9208
 3525SOL    HW211475   3.076   4.198   6.527  0.2893 -1.7973  1.4681
 3526SOL     OW11476   1.944   2.016   1.227  0.1240  0.5559 -0.0142
 3526SOL    HW111477   2.004   2.061   1.161  0.1508  0.8026  0.1749
 3526SOL    HW211478   1.985   1.930   1.256  0.0660  0.3986 -0.3903
 3527SOL     OW11479   3.822   5.004   0.995  0.1469  0.2704  0.1263
 3527SOL    HW111480   3.779   5.094   0.998  1.3811  0.8557  1.2443
 3527SOL    HW211481   3.921   5.016   0.983  0.1871 -0.9854 -0.9757
 3528SOL     OW11482   6.276   6.782   3.823 -0.1042  0.4786 -0.0423
 3528SOL    HW111483   6.268   6.876   3.791 -0.0095  0.1372 -1.1102
 3528SOL    HW211484   6.296   6.722   3.745  0.7571 -0.2999  0.7532
 3529SOL     OW11485   3.032   3.881   2.820  0.2171  0.0574 -0.0136
 3529SOL    HW111486   3.021   3.939   2.740 -2.1795 -0.4087 -0.0870
 3529SOL    HW211487   3.130   3.869   2.839  0.8510  0.6351 -2.5045
 3530SOL     OW11488   0.700   2.173   6.159 -0.0512 -0.3061 -0.7600
 3530SOL    HW111489   0.707   2.094   6.098 -1.9781 -0.3635 -0.9669
 3530SOL    HW211490   0.622   2.161   6.220 -1.5763  2.2122 -2.0424
 3531SOL     OW11491   0.331   3.979   6.029  0.7124 -0.2559 -0.7297
 3531SOL    HW111492   0.384   3.927   6.097  0.5130  0.0169 -0.3659
 3531SOL    HW211493   0.335   4.076   6.052  0.6386 -0.1655 -1.1070
 3532SOL     OW11494   0.231   6.337   2.937 -0.0322 -0.3567  0.5126
 3532SOL    HW111495   0.324   6.358   2.906 -0.8082 -0.1946 -1.8718
 3532SOL    HW211496   0.220   6.370   3.031  1.8322  0.9913  0.3275
 3533SOL     OW11497   1.751   6.102   5.577  0.7212  0.3688 -0.1006
 3533SOL    HW111498   1.688   6.179   5.567  0.9889  0.5137 -0.7433
 3533SOL    HW211499   1.748   6.045   5.495  1.3112  0.2950 -0.0776
 3534SOL     OW11500   6.393   0.835   3.156  0.1298 -0.5357  0.0188
 3534SOL    HW111501   6.352   0.925   3.171  0.9486 -0.3094  0.9599
 3534SOL    HW211502   6.387   0.782   3.241 -1.1188 -1.7074 -0.7574
 3535SOL     OW11503   4.231   4.656   5.972  0.6768 -0.6998  0.2232
 3535SOL    HW111504   4.324   4.638   6.004  0.2361 -2.0292  0.8367
 3535SOL    HW211505   4.176   4.573   5.984 -0.1624 -0.4625 -1.6794
 3536SOL     OW11506   0.122   2.082   2.780 -0.5730 -0.1376  0.5629
 3536SOL    HW111507   0.136   2.119   2.872  1.1952  0.0011  0.2665
 3536SOL    HW211508   0.162   2.144   2.713 -1.4341 -0.4680 -0.2760
 3537SOL     OW11509   5.152   1.144   0.322 -0.3134  0.0945 -0.3083
 3537SOL    HW111510   5.079   1.191   0.273 -0.0320 -0.7018 -1.5315
 3537SOL    HW211511   5.129   1.047   0.332  0.2590 -0.0243 -0.0913
 3538SOL     OW11512   0.096   2.371   0.792  0.3857  0.1715  0.5472
 3538SOL    HW111513   0.164   2.363   0.719  0.2201  0.6628  0.3350
 3538SOL    HW211514   0.063   2.466   0.797  0.2500  0.0969  1.1278
 3539SOL     OW11515   0.913   2.819   3.627 -1.1583 -0.0312 -0.6365
 3539SOL    HW111516   0.903   2.851   3.721 -0.2601  1.1477 -0.9234
 3539SOL    HW211517   0.942   2.723   3.627 -0.7675  0.0819  0.2794
 3540SOL     OW11518   5.042   0.147   4.911 -0.3787 -0.0631 -0.0776
 3540SOL    HW111519   5.057   0.245   4.912 -0.2370 -0.0772 -0.9053
 3540SOL    HW211520   5.120   0.100   4.952 -0.4306  0.1615  0.2810
 3541SOL     OW11521   3.400   0.561   3.688  0.0881  0.1668  0.0348
 3541SOL    HW111522   3.484   0.600   3.726  0.0213  0.7947 -0.4395
 3541SOL    HW211523   3.418   0.531   3.594 -0.5754  1.6387 -0.5872
 3542SOL     OW11524   5.096   1.725   4.034 -0.3085  0.3975  0.2655
 3542SOL    HW111525   5.020   1.693   3.978  1.0746 -2.3312 -0.2672
 3542SOL    HW211526   5.146   1.796   3.986 -1.5436  1.0505 -0.0887
 3543SOL     OW11527   2.997   1.600   3.424 -0.0514  0.4855 -0.4526
 3543SOL    HW111528   3.050   1.575   3.505  1.8498  1.6672 -1.2634
 3543SOL    HW211529   2.913   1.645   3.452 -0.0953 -0.3547  0.8696
 3544SOL     OW11530   1.001   1.342   2.236  0.1024  0.2066  0.0635
 3544SOL    HW111531   1.043   1.428   2.209  1.1749  0.0810  1.2255
 3544SOL    HW211532   0.955   1.354   2.324 -1.3343  0.0364 -0.6317
 3545SOL     OW11533   1.408   2.310   0.656 -0.2192  0.4651  0.6766
 3545SOL    HW111534   1.464   2.331   0.736  1.7581 -0.5854 -0.3555
 3545SOL    HW211535   1.428   2.375   0.583  2.1219 -1.6977 -0.7685
 3546SOL     OW11536   6.171   2.729   3.778  0.2430  0.1410 -0.1468
 3546SOL    HW111537   6.250   2.774   3.821  1.2642  1.7349 -3.3886
 3546SOL    HW211538   6.201   2.645   3.734 -0.3802 -0.4346  0.4991
 3547SOL     OW11539   6.608   1.688   1.612 -0.2823  0.3271 -0.1552
 3547SOL    HW111540   6.618   1.788   1.612  0.3607  0.2627  0.7591
 3547SOL    HW211541   6.512   1.665   1.627 -0.0350  0.7912  2.5133
 3548SOL     OW11542   2.805   1.030   3.543 -0.0238 -0.7216  0.2164
 3548SOL    HW111543   2.802   0.993   3.450  1.7390  0.0440 -0.1892
 3548SOL    HW211544   2.791   0.955   3.608  2.7092 -2.1149 -0.5923
 3549SOL     OW11545   2.219   4.185   5.551  0.1151 -1.0234 -0.3688
 3549SOL    HW111546   2.214   4.085   5.552  0.2252 -1.0485 -1.3310
 3549SOL    HW211547   2.306   4.214   5.591  0.1015 -1.3104 -0.1229
 3550SOL     OW11548   3.575   6.185   6.567 -0.2288 -0.3117 -0.2534
 3550SOL    HW111549   3.570   6.197   6.666 -3.9364 -2.2512 -0.0252
 3550SOL    HW211550   3.539   6.267   6.522  1.9551  0.7899 -0.1064
 3551SOL     OW11551   5.330   7.018   4.861  0.1166  0.0708 -0.4159
 3551SOL    HW111552   5.400   6.946   4.851  0.6288  0.2982  1.2639
 3551SOL    HW211553   5.313   7.034   4.958 -0.2305  2.0020 -0.7639
 3552SOL     OW11554   2.661   5.735   5.996 -0.1952 -0.2414 -0.3526
 3552SOL    HW111555   2.577   5.762   6.043  0.7817  1.9892  0.2189
 3552SOL    HW211556   2.659   5.636   5.979 -2.3561 -0.4473  0.7608
 3553SOL     OW11557   0.423   5.442   1.178 -0.0333 -0.0189 -0.0650
 3553SOL    HW111558   0.508   5.491   1.197  0.1911 -0.5439  0.3393
 3553SOL    HW211559   0.381   5.416   1.265 -1.1223  1.0908 -0.2409
 3554SOL     OW11560   1.494   0.257   6.605 -0.1218  0.4611  0.3579
 3554SOL    HW111561   1.467   0.330   6.543  1.4508  0.8725  0.1186
 3554SOL    HW211562   1.430   0.181   6.597 -0.3044  0.7631 -1.2808
 3555SOL     OW11563   5.228   4.678   5.418 -0.4494 -0.1901 -0.3739
 3555SOL    HW111564   5.307   4.677   5.479 -2.9040  0.7235  3.1888
 3555SOL    HW211565   5.199   4.773   5.403 -1.2235 -0.5278 -1.1059
 3556SOL     OW11566   6.513   6.287   0.483 -0.0197  0.1701  0.2789
 3556SOL    HW111567   6.452   6.214   0.513 -0.3000  0.7512  1.1576
 3556SOL    HW211568   6.462   6.350   0.423  0.2999 -0.4958 -0.7202
 3557SOL     OW11569   5.768   0.040   4.077  0.0849 -0.3142 -0.1867
 3557SOL    HW111570   5.686   0.096   4.086 -0.5905 -1.5834  2.9688
 3557SOL    HW211571   5.743  -0.049   4.039  0.3632 -0.0498 -1.0044
 3558SOL     OW11572   6.638   0.500   5.079  0.0896 -0.2535 -0.0262
 3558SOL    HW111573   6.652   0.430   5.149 -2.1495 -1.2751 -0.4842
 3558SOL    HW211574   6.549   0.544   5.094  0.3876  0.7943 -1.1792
 3559SOL     OW11575   5.544   0.829   4.508  0.5607  0.0985  0.0909
 3559SOL    HW111576   5.636   0.795   4.526  1.1301 -0.2321 -2.8485
 3559SOL    HW211577   5.483   0.803   4.583  2.7067 -0.1523  1.8531
 3560SOL     OW11578   0.399   2.886   1.767  0.3077  0.2190 -0.1195
 3560SOL    HW111579   0.320   2.889   1.828 -0.2409  0.1349 -0.8027
 3560SOL    HW211580   0.479   2.854   1.816  0.2999  1.7820  0.9977
 3561SOL     OW11581   2.261   4.162   3.937  0.1672 -0.0751  0.1632
 3561SOL    HW111582   2.333   4.113   3.888  0.3596 -0.1607  0.5336
 3561SOL    HW211583   2.187   4.185   3.873  0.1108 -0.7820 -0.0286
 3562SOL     OW11584   0.288   0.906   5.038  0.1578 -0.7601  0.4300
 3562SOL    HW111585   0.293   0.829   5.102  0.7085  1.4101  3.1823
 3562SOL    HW211586   0.379   0.947   5.028 -0.5853  1.1786  1.2306
 3563SOL     OW11587   1.897   2.352   5.195  0.2108  0.0896  0.4271
 3563SOL    HW111588   1.960   2.374   5.270 -1.3016  0.0743  1.7522
 3563SOL    HW211589   1.829   2.425   5.185  1.3029  0.8960 -2.0498
 3564SOL     OW11590   2.734   6.930   4.843 -0.5549  0.2202 -0.5657
 3564SOL    HW111591   2.653   6.983   4.868 -0.9060  0.0459 -1.2946
 3564SOL    HW211592   2.724   6.836   4.877  0.4318  0.7928  1.4409
 3565SOL     OW11593   5.285   6.205   4.082  0.2168 -0.0776  0.4083
 3565SOL    HW111594   5.188   6.217   4.061  0.3005  0.4341  0.3027
 3565SOL    HW211595   5.314   6.114   4.053 -0.0863 -0.0092 -0.1365
 3566SOL     OW11596   6.724   0.748   1.211 -0.4159  0.3125 -1.3216
 3566SOL    HW111597   6.669   0.665   1.220 -0.3441  0.4119  0.4811
 3566SOL    HW211598   6.697   0.813   1.282  1.4165  0.7126 -0.9387
 3567SOL     OW11599   4.668   4.457   1.118  0.3818  0.4867  0.2126
 3567SOL    HW111600   4.646   4.362   1.141 -0.3800  0.2447 -1.3541
 3567SOL    HW211601   4.610   4.518   1.172  1.6787  0.1467  2.0812
 3568SOL     OW11602   0.209   4.898   0.454  1.2492 -0.3505  0.0009
 3568SOL    HW111603   0.200   4.851   0.542 -0.8940 -2.2317 -1.1316
 3568SOL    HW211604   0.249   4.988   0.469  0.4348 -0.3721  2.9788
 3569SOL     OW11605   4.897   0.978   5.632  0.0751  0.2680 -0.1863
 3569SOL    HW111606   4.933   1.014   5.718  0.5430  1.4891 -0.8745
 3569SOL    HW211607   4.809   0.933   5.649 -1.2794  2.9988  0.5101
 3570SOL     OW11608   1.118   2.636   6.662 -0.4476  0.4717  0.1483
 3570SOL    HW111609   1.047   2.595   6.604 -0.3941 -0.0944  0.4782
 3570SOL    HW211610   1.127   2.733   6.639 -1.0921  0.4752 -0.1326
 3571SOL     OW11611   4.510   1.845   6.910 -0.2529  0.3317  0.1423
 3571SOL    HW111612   4.507   1.750   6.943  1.1488  0.4256  0.6127
 3571SOL    HW211613   4.453   1.902   6.968  1.3270  0.2990  1.8246
 3572SOL     OW11614   5.895   4.562   1.713  0.4154 -0.0274 -0.4156
 3572SOL    HW111615   5.797   4.584   1.720  0.0064 -1.3517 -1.5059
 3572SOL    HW211616   5.938   4.572   1.803 -0.5163  1.4257 -0.0992
 3573SOL     OW11617   5.031   5.144   3.029 -0.0639  0.0166 -0.3045
 3573SOL    HW111618   5.002   5.161   3.123  0.3075 -2.7179  0.3796
 3573SOL    HW211619   5.077   5.225   2.994  0.9589  0.6948  2.3439
 3574SOL     OW11620   1.683   1.116   0.875 -0.8422  0.2019 -0.2827
 3574SOL    HW111621   1.777   1.085   0.885 -0.6531  1.0442  0.7661
 3574SOL    HW211622   1.681   1.216   0.862 -1.6251  0.4341  1.3039
 3575SOL     OW11623   3.413   0.782   5.698  0.7043  0.4487 -0.0713
 3575SOL    HW111624   3.412   0.724   5.779  0.0083 -2.6205 -2.0890
 3575SOL    HW211625   3.340   0.849   5.703  0.8093  0.4594  1.8765
 3576SOL     OW11626   2.206   6.310   3.216 -0.2531 -0.1436 -0.1206
 3576SOL    HW111627   2.199   6.360   3.129 -0.4649 -0.9012 -0.5516
 3576SOL    HW211628   2.168   6.366   3.289 -0.1518  0.4745 -0.5332
 3577SOL     OW11629   3.455   6.218   5.135  0.5342  0.0977  0.0467
 3577SOL    HW111630   3.371   6.262   5.167  0.7122  0.0899  0.5448
 3577SOL    HW211631   3.476   6.248   5.042 -0.4414 -0.5126 -0.3767
 3578SOL     OW11632   6.525   0.092   2.190 -0.0167  0.0365  0.1855
 3578SOL    HW111633   6.550   0.142   2.273 -0.0693 -0.9160  0.7867
 3578SOL    HW211634   6.471   0.011   2.214 -3.2097  1.6342 -0.9894
 3579SOL     OW11635   4.914   0.345   0.175 -0.6369  0.2757 -0.2240
 3579SOL    HW111636   4.988   0.331   0.110 -0.4460 -0.8694  0.2213
 3579SOL    HW211637   4.841   0.280   0.156  0.3080 -1.5422  1.9748
 3580SOL     OW11638   6.872   4.637   0.486  0.2164  0.2877  0.0406
 3580SOL    HW111639   6.878   4.725   0.532 -1.4691  0.9143 -0.8461
 3580SOL    HW211640   6.841   4.568   0.551 -0.4943  0.8042  0.2601
 3581SOL     OW11641   2.022   3.222   6.177  0.2289  0.7039  0.2506
 3581SOL    HW111642   2.002   3.124   6.185 -1.0899  0.8887 -0.5471
 3581SOL    HW211643   1.951   3.266   6.122  2.0928  1.7022 -1.4749
 3582SOL     OW11644   2.591   3.905   6.384  0.0193  0.0221 -0.5091
 3582SOL    HW111645   2.619   3.994   6.420 -0.0676  0.0605 -0.5358
 3582SOL    HW211646   2.619   3.833   6.447  0.5175  0.0273 -0.7190
 3583SOL     OW11647   1.077   5.553   2.780  0.4612 -0.1057 -0.2443
 3583SOL    HW111648   0.979   5.569   2.796  0.4921  0.8292 -0.8792
 3583SOL    HW211649   1.126   5.556   2.867  0.1966  1.5743 -0.1186
 3584SOL     OW11650   2.064   4.260   5.308 -0.1091 -0.5564 -0.1305
 3584SOL    HW111651   2.059   4.348   5.355 -1.6954 -0.7514  0.1166
 3584SOL    HW211652   2.116   4.195   5.365 -0.9415 -0.4346  0.8008
 3585SOL     OW11653   5.924   2.621   3.850  0.1033  0.2014  0.2223
 3585SOL    HW111654   5.999   2.685   3.833 -0.0127  0.4424  0.6013
 3585SOL    HW211655   5.940   2.574   3.937  0.8414 -1.2325 -0.6522
 3586SOL     OW11656   5.608   0.817   3.225  0.2147  0.8230 -0.1921
 3586SOL    HW111657   5.644   0.820   3.318 -0.4117 -0.9393  0.1313
 3586SOL    HW211658   5.509   0.807   3.227  0.1952  0.7060 -1.0616
 3587SOL     OW11659   0.540   4.869   5.686 -0.5182  0.5739 -0.2879
 3587SOL    HW111660   0.533   4.955   5.737 -2.1716  1.5011 -1.9843
 3587SOL    HW211661   0.570   4.888   5.593  3.0440 -1.1501  0.3375
 3588SOL     OW11662   3.925   6.091   0.494 -0.4931 -0.2120 -0.2435
 3588SOL    HW111663   3.953   6.185   0.473 -0.4498 -0.6307 -2.3094
 3588SOL    HW211664   3.854   6.063   0.430 -1.8670 -0.9812  1.5623
 3589SOL     OW11665   5.979   1.692   1.748  0.1436 -0.7427 -0.0571
 3589SOL    HW111666   5.984   1.592   1.751 -0.3646 -0.7534  2.0892
 3589SOL    HW211667   5.887   1.721   1.773  0.8114  0.2851  1.3098
 3590SOL     OW11668   6.890   2.299   6.279  0.3683 -0.5909  0.4936
 3590SOL    HW111669   6.982   2.264   6.296  0.2972 -0.2311  1.7236
 3590SOL    HW211670   6.897   2.391   6.239  0.5346 -1.2246 -1.0054
 3591SOL     OW11671   5.193   4.949   2.236 -0.4114  0.7346 -0.2158
 3591SOL    HW111672   5.110   4.924   2.185 -1.7766  0.3041  2.0735
 3591SOL    HW211673   5.213   5.046   2.221 -0.8108  0.6319 -1.4983
 3592SOL     OW11674   5.107   0.017   5.752  0.0018  0.6221 -0.1032
 3592SOL    HW111675   5.068   0.106   5.729 -0.0627  0.4973 -0.4889
 3592SOL    HW211676   5.039  -0.038   5.801  0.5735  1.3765  1.5887
 3593SOL     OW11677   1.012   5.372   5.469  0.9923 -0.5802  0.0267
 3593SOL    HW111678   1.099   5.322   5.465  1.2707 -0.1638  0.7829
 3593SOL    HW211679   0.997   5.418   5.382  1.3242 -0.9831 -0.2518
 3594SOL     OW11680   1.130   4.703   1.730 -0.4457  0.7884 -0.1836
 3594SOL    HW111681   1.172   4.632   1.674 -0.5886  0.4604  0.1219
 3594SOL    HW211682   1.190   4.724   1.808  0.7280  2.6884 -1.5282
 3595SOL     OW11683   2.812   6.250   6.907 -0.2712  0.2058 -0.1660
 3595SOL    HW111684   2.854   6.247   6.997  0.7581 -0.4354 -0.6454
 3595SOL    HW211685   2.750   6.328   6.901 -0.4369  0.1812  1.1210
 3596SOL     OW11686   6.577   4.002   4.838 -0.3273  0.7495 -0.0034
 3596SOL    HW111687   6.605   4.088   4.794 -3.3032  2.1475  0.5960
 3596SOL    HW211688   6.571   4.015   4.937  1.1845 -0.8272  0.3484
 3597SOL     OW11689   1.262   4.858   2.844 -0.5365 -0.9773  0.0090
 3597SOL    HW111690   1.293   4.814   2.759  0.9378 -1.3200  0.6966
 3597SOL    HW211691   1.331   4.845   2.915  0.3957  3.0048  0.1067
 3598SOL     OW11692   5.016   2.565   1.142 -0.4485  0.1115 -0.3506
 3598SOL    HW111693   4.972   2.648   1.109  0.0540 -0.1574 -1.7819
 3598SOL    HW211694   4.957   2.486   1.124 -0.0341 -0.0746 -0.9664
 3599SOL     OW11695   0.760   1.648   5.107 -0.0707  0.0035 -0.1144
 3599SOL    HW111696   0.832   1.716   5.117 -1.0569  1.2135 -1.0931
 3599SOL    HW211697   0.801   1.557   5.099  1.5610  0.9199 -3.6185
 3600SOL     OW11698   6.421   4.251   0.114  0.1582  0.6041  0.1085
 3600SOL    HW111699   6.402   4.313   0.038  2.4873  0.1565 -0.9045
 3600SOL    HW211700   6.482   4.295   0.179  0.0406  0.1489  0.5373
 3601SOL     OW11701   3.135   1.112   0.475  0.1970  0.1794  0.6006
 3601SOL    HW111702   3.096   1.204   0.485 -2.1709 -0.5111 -1.2136
 3601SOL    HW211703   3.234   1.116   0.485  0.4238  3.3126 -1.4596
 3602SOL     OW11704   3.894   1.012   6.873  0.3695 -0.1868 -0.0237
 3602SOL    HW111705   3.878   0.950   6.795  1.5364 -0.0576 -0.3853
 3602SOL    HW211706   3.972   0.979   6.926  0.4085  0.4617  0.3316
 3603SOL     OW11707   2.661   4.820   1.066  0.2769 -0.3054 -0.4491
 3603SOL    HW111708   2.694   4.771   0.986 -0.8076  0.4642 -1.3893
 3603SOL    HW211709   2.610   4.901   1.038  1.7203  1.2231  1.0354
 3604SOL     OW11710   5.998   4.722   6.833  0.5159  0.1173 -0.6057
 3604SOL    HW111711   5.952   4.743   6.747 -0.7265 -3.3757 -0.9771
 3604SOL    HW211712   5.931   4.727   6.908  0.7108 -0.2567 -0.4017
 3605SOL     OW11713   1.164   3.397   6.903 -0.0151  0.3192 -0.1280
 3605SOL    HW111714   1.066   3.382   6.915  0.1903 -1.3851 -0.3144
 3605SOL    HW211715   1.179   3.470   6.836 -1.1491  0.1052 -0.6303
 3606SOL     OW11716   0.201   2.683   5.931  0.0245 -0.1722 -0.1308
 3606SOL    HW111717   0.266   2.607   5.921 -2.6526 -2.4322 -1.9075
 3606SOL    HW211718   0.201   2.738   5.848 -1.2956 -1.0717 -0.7534
 3607SOL     OW11719   6.105   3.856   3.035  0.0174 -0.8741  0.2545
 3607SOL    HW111720   6.182   3.881   3.095  0.4288 -0.5502 -0.3952
 3607SOL    HW211721   6.141   3.832   2.945 -0.8454  3.2228 -1.3956
 3608SOL     OW11722   0.991   5.185   1.300 -0.0754  0.0129 -0.1430
 3608SOL    HW111723   0.944   5.265   1.336  0.2053  0.6056 -1.0534
 3608SOL    HW211724   0.926   5.110   1.288 -0.4217  0.2378  0.3215
 3609SOL     OW11725   5.109   0.630   3.386 -0.1020 -0.1742  0.2181
 3609SOL    HW111726   5.014   0.633   3.357 -0.2146  0.7133  0.6667
 3609SOL    HW211727   5.141   0.722   3.409  1.6096 -0.0489 -2.2812
 3610SOL     OW11728   2.911   4.987   6.004 -1.1224 -0.1991 -0.4278
 3610SOL    HW111729   2.933   4.904   5.953 -1.5652 -0.4134 -0.2765
 3610SOL    HW211730   2.815   5.010   5.991 -1.0117  0.2644 -0.4309
 3611SOL     OW11731   5.372   1.398   5.260  0.0782 -0.7088  0.5199
 3611SOL    HW111732   5.432   1.382   5.338 -0.6184 -0.8355  1.0278
 3611SOL    HW211733   5.291   1.448   5.289 -0.3131 -0.9857 -0.0748
 3612SOL     OW11734   2.570   1.225   3.530  0.4921 -0.2116 -0.1923
 3612SOL    HW111735   2.489   1.281   3.511  0.5195 -0.2812 -0.5173
 3612SOL    HW211736   2.547   1.129   3.517  1.0005 -0.1497 -1.6427
 3613SOL     OW11737   2.775   1.795   1.084 -0.1683 -0.3757 -0.1852
 3613SOL    HW111738   2.720   1.740   1.021 -1.4001 -1.9916  2.1333
 3613SOL    HW211739   2.715   1.850   1.142  0.8579  0.3150  0.2645
 3614SOL     OW11740   1.702   0.554   5.621 -0.2095 -0.5430  0.0638
 3614SOL    HW111741   1.779   0.537   5.682 -0.5509  1.2812  1.0587
 3614SOL    HW211742   1.698   0.651   5.596 -2.6953 -0.3834  0.7936
 3615SOL     OW11743   0.479   5.015   1.811  0.0016 -0.4020 -0.0343
 3615SOL    HW111744   0.556   5.045   1.755  0.5013 -0.5999  0.5291
 3615SOL    HW211745   0.486   5.055   1.902 -0.6514 -0.3007 -0.0216
 3616SOL     OW11746   6.662   4.731   6.588  0.2920  0.5894 -0.3062
 3616SOL    HW111747   6.760   4.711   6.589  0.2078 -0.7594 -3.8995
 3616SOL    HW211748   6.628   4.729   6.494 -3.2941  0.6886  0.8119
 3617SOL     OW11749   0.680   6.787   5.891 -0.7647 -0.2603  0.3401
 3617SOL    HW111750   0.774   6.754   5.883 -0.7592  0.0825 -1.2977
 3617SOL    HW211751   0.657   6.798   5.988  1.1872  0.5224  0.7665
 3618SOL     OW11752   3.171   1.874   4.293  0.2837 -0.2387 -0.6315
 3618SOL    HW111753   3.221   1.866   4.207  0.8001  0.6688 -0.4196
 3618SOL    HW211754   3.205   1.952   4.345 -0.7187 -0.1674 -0.0571
 3619SOL     OW11755   4.596   4.746   0.744 -0.2353 -0.3546 -0.2968
 3619SOL    HW111756   4.637   4.733   0.653 -1.0981 -0.3270 -0.7007
 3619SOL    HW211757   4.659   4.713   0.814  0.8746  0.5433 -0.8311
 3620SOL     OW11758   0.860   6.161   6.984  0.0547  0.1196 -0.2001
 3620SOL    HW111759   0.947   6.190   7.023 -1.7170  2.0365  2.7095
 3620SOL    HW211760   0.843   6.210   6.899  1.8416 -0.4564 -0.9348
 3621SOL     OW11761   3.478   3.192   3.402  0.1567 -0.0889 -0.1123
 3621SOL    HW111762   3.464   3.161   3.308  0.1557  0.5684 -0.3356
 3621SOL    HW211763   3.576   3.200   3.421  0.2111 -1.8569  0.5018
 3622SOL     OW11764   6.321   4.634   5.046  0.0412 -0.0073 -0.5321
 3622SOL    HW111765   6.345   4.545   5.006  2.1950  0.9515 -1.4741
 3622SOL    HW211766   6.372   4.648   5.130  2.4811  1.7535 -2.1903
 3623SOL     OW11767   5.125   0.818   6.241 -0.5113  0.0196 -0.0073
 3623SOL    HW111768   5.113   0.773   6.329  0.0667  0.9106  0.5409
 3623SOL    HW211769   5.217   0.800   6.207 -0.3695  0.5763  0.0875
 3624SOL     OW11770   6.466   1.591   2.262  0.0593 -0.2556 -0.1453
 3624SOL    HW111771   6.410   1.609   2.181  0.8836 -0.2346 -0.7259
 3624SOL    HW211772   6.407   1.582   2.342 -0.9103 -1.8970 -1.0042
 3625SOL     OW11773   6.369   4.074   5.057 -0.1913  0.6165  0.3102
 3625SOL    HW111774   6.383   3.980   5.089 -0.2881  0.4658 -0.0822
 3625SOL    HW211775   6.336   4.072   4.962 -2.5425  0.9484  1.0515
 3626SOL     OW11776   3.910   2.003   0.137  0.4875  0.3554  0.0303
 3626SOL    HW111777   3.994   1.971   0.093  0.6507  0.2733  0.4016
 3626SOL    HW211778   3.831   1.976   0.082  0.6881  0.2303 -0.1980
 3627SOL     OW11779   0.263   4.549   3.692 -0.0077  0.1016  0.5947
 3627SOL    HW111780   0.307   4.460   3.706 -0.6503 -0.6598 -1.7441
 3627SOL    HW211781   0.334   4.620   3.686  0.6575 -0.5437  0.6123
 3628SOL     OW11782   2.412   2.730   6.287  0.1969 -0.6371 -0.5535
 3628SOL    HW111783   2.317   2.743   6.317  0.3099  0.4231 -0.6103
 3628SOL    HW211784   2.450   2.818   6.258  1.1724 -1.0653 -0.6154
 3629SOL     OW11785   0.412   3.163   1.275 -0.0953 -0.0776  1.0473
 3629SOL    HW111786   0.429   3.103   1.354  2.9516  0.7360  1.1273
 3629SOL    HW211787   0.499   3.187   1.233 -1.4047  2.4086 -0.4182
 3630SOL     OW11788   2.935   5.070   2.298  0.7749  0.3618  0.2221
 3630SOL    HW111789   2.980   5.013   2.230 -1.7802 -0.3484 -1.0194
 3630SOL    HW211790   2.845   5.032   2.320  0.3920  2.0598  1.9840
 3631SOL     OW11791   5.217   3.428   1.309 -0.1477  0.1003 -0.1088
 3631SOL    HW111792   5.280   3.504   1.319 -1.0491  0.8362  0.1926
 3631SOL    HW211793   5.267   3.342   1.305  0.8917  0.7133 -0.5357
 3632SOL     OW11794   2.896   0.957   4.243 -0.4324 -0.0430  0.2111
 3632SOL    HW111795   2.986   0.970   4.202 -0.4102  1.7279  0.7099
 3632SOL    HW211796   2.884   1.023   4.318 -2.0270 -0.4598  0.3659
 3633SOL     OW11797   0.337   3.118   3.007 -0.1874 -0.0259 -0.0366
 3633SOL    HW111798   0.250   3.086   3.042  0.3548 -1.2160  0.2862
 3633SOL    HW211799   0.377   3.048   2.947  0.5216  0.5131 -0.2162
 3634SOL     OW11800   0.324   4.213   0.797  0.5281  0.0828  0.2325
 3634SOL    HW111801   0.280   4.285   0.851  0.3751 -0.5983  1.0530
 3634SOL    HW211802   0.417   4.241   0.773 -0.2880  1.5281 -1.4873
 3635SOL     OW11803   1.208   6.695   1.820 -0.2667  0.2867 -0.1970
 3635SOL    HW111804   1.124   6.689   1.766  0.0293 -1.5865 -0.5236
 3635SOL    HW211805   1.191   6.752   1.901 -2.0297 -0.5205  0.0604
 3636SOL     OW11806   5.202   3.228   3.871 -0.0497  0.7167 -0.1707
 3636SOL    HW111807   5.247   3.294   3.932 -2.0112  0.7006  1.3869
 3636SOL    HW211808   5.228   3.247   3.777  1.0047  2.4479  0.4158
 3637SOL     OW11809   2.711   1.076   2.159  0.4812  0.4113  0.0517
 3637SOL    HW111810   2.709   1.111   2.065  1.1379 -0.0259 -0.1340
 3637SOL    HW211811   2.625   1.028   2.179 -0.0213  1.2702 -0.0194
 3638SOL     OW11812   1.779   3.260   3.589 -0.1472  0.2013  0.6346
 3638SOL    HW111813   1.828   3.247   3.502  0.5695  0.3000  1.0200
 3638SOL    HW211814   1.691   3.303   3.571  0.3838  1.0715  0.0425
 3639SOL     OW11815   3.491   3.480   4.012  0.6108  0.1119  0.3449
 3639SOL    HW111816   3.404   3.472   4.060  0.0552  0.8869 -0.5091
 3639SOL    HW211817   3.508   3.397   3.959  0.9041 -0.4666  1.3062
 3640SOL     OW11818   0.885   1.310   3.122  0.5014  0.1897  0.1445
 3640SOL    HW111819   0.936   1.276   3.043 -1.2678 -0.1757 -0.9083
 3640SOL    HW211820   0.820   1.240   3.152  1.8726 -0.1083  2.6737
 3641SOL     OW11821   0.627   6.320   3.845 -0.1017  0.0560 -0.3159
 3641SOL    HW111822   0.590   6.228   3.835  1.5529 -0.5965 -0.9417
 3641SOL    HW211823   0.594   6.361   3.929 -1.5906 -0.7441 -0.4798
 3642SOL     OW11824   1.964   4.470   0.147  0.1060 -0.1187 -0.2509
 3642SOL    HW111825   1.918   4.549   0.107  1.5451  0.7446 -0.2631
 3642SOL    HW211826   2.041   4.442   0.090  0.8784 -0.2202  0.8041
 3643SOL     OW11827   5.075   1.582   5.709 -0.1971  0.4021 -0.2734
 3643SOL    HW111828   5.008   1.512   5.733 -0.4456  0.7851  0.1570
 3643SOL    HW211829   5.069   1.658   5.773 -0.4101  1.1387 -1.1380
 3644SOL     OW11830   5.682   4.550   6.732  0.3269 -0.3168 -0.1933
 3644SOL    HW111831   5.772   4.593   6.721  0.4254 -0.4086  0.2413
 3644SOL    HW211832   5.614   4.600   6.678  0.3439  0.6970  0.6869
 3645SOL     OW11833   6.520   4.624   4.412  0.3425  0.2720  0.2686
 3645SOL    HW111834   6.518   4.651   4.508 -1.2050  0.7106  0.1444
 3645SOL    HW211835   6.540   4.704   4.355 -2.9322  1.0176 -0.0096
 3646SOL     OW11836   3.972   5.367   6.983  0.4169 -0.6861 -0.6745
 3646SOL    HW111837   4.071   5.379   6.973  0.2890  0.0905 -1.1479
 3646SOL    HW211838   3.936   5.318   6.903  0.4857 -1.3851 -0.2765
 3647SOL     OW11839   3.141   1.042   3.085  0.2621 -0.3414  0.3766
 3647SOL    HW111840   3.128   1.131   3.129 -1.1410 -1.2215  1.8569
 3647SOL    HW211841   3.056   0.990   3.088  1.2309 -2.0250  0.2073
 3648SOL     OW11842   0.152   3.168   6.251  0.2398  0.0466 -0.5905
 3648SOL    HW111843   0.174   3.266   6.256 -1.0408  0.3087  0.3174
 3648SOL    HW211844   0.057   3.156   6.225 -1.2389 -0.7060  4.1947
 3649SOL     OW11845   4.706   6.269   6.661 -0.0490  0.0626  0.3055
 3649SOL    HW111846   4.749   6.197   6.607 -1.6816 -1.1779  0.5974
 3649SOL    HW211847   4.677   6.344   6.601 -0.6912 -0.7243 -0.3855
 3650SOL     OW11848   0.365   6.007   2.712  0.3370 -0.3681 -0.3243
 3650SOL    HW111849   0.417   6.004   2.797 -1.8758  2.0464  1.2426
 3650SOL    HW211850   0.370   6.099   2.673 -1.2935 -0.5535 -1.0588
 3651SOL     OW11851   3.510   6.754   5.213 -0.3690 -0.2802  0.2015
 3651SOL    HW111852   3.558   6.692   5.152  0.8516 -0.0891  0.9276
 3651SOL    HW211853   3.533   6.732   5.308 -0.9511  0.4417  0.5227
 3652SOL     OW11854   3.424   0.226   4.591  0.5119  0.3971  0.5038
 3652SOL    HW111855   3.358   0.165   4.546 -0.4675  1.9395 -0.2293
 3652SOL    HW211856   3.382   0.268   4.671  0.1606  2.2326 -0.5822
 3653SOL     OW11857   4.921   3.451   2.592 -0.2491 -0.2030  0.4533
 3653SOL    HW111858   4.885   3.418   2.680 -0.2572 -1.5046 -0.0075
 3653SOL    HW211859   4.979   3.380   2.552  0.4892  0.7307 -0.1790
 3654SOL     OW11860   5.168   3.868   4.407  0.0712 -0.4103 -0.6528
 3654SOL    HW111861   5.192   3.788   4.353 -0.8978 -0.4330 -1.0621
 3654SOL    HW211862   5.073   3.862   4.436  0.8045 -0.8220  1.8377
 3655SOL     OW11863   4.742   0.319   3.035 -0.1560 -0.0772 -0.1371
 3655SOL    HW111864   4.767   0.268   2.953  0.6665 -1.8008  1.1148
 3655SOL    HW211865   4.819   0.320   3.099 -0.7688  1.2416  0.6350
 3656SOL     OW11866   6.945   3.700   0.254  0.0257  0.1528 -0.4132
 3656SOL    HW111867   6.854   3.697   0.295 -0.2656 -1.4642 -1.0939
 3656SOL    HW211868   7.014   3.708   0.326 -0.5741 -0.5466  0.2539
 3657SOL     OW11869   1.531   3.148   6.334 -0.2747  0.4761 -0.2000
 3657SOL    HW111870   1.593   3.217   6.372  2.1942 -1.0179 -1.2860
 3657SOL    HW211871   1.549   3.060   6.378 -1.2459 -0.1180 -0.9625
 3658SOL     OW11872   0.928   6.181   1.068 -0.4396 -0.4134 -0.1938
 3658SOL    HW111873   0.941   6.268   1.021 -0.5605 -0.1258  0.3055
 3658SOL    HW211874   1.016   6.136   1.080 -0.2639  0.0797  0.3902
 3659SOL     OW11875   6.532   5.598   3.549 -0.2074 -0.1249  0.3615
 3659SOL    HW111876   6.589   5.516   3.545 -2.1305 -1.5418  0.6909
 3659SOL    HW211877   6.436   5.572   3.560 -0.8448  2.1941  0.8882
 3660SOL     OW11878   6.193   3.594   4.597 -0.0771  0.4117 -0.2020
 3660SOL    HW111879   6.290   3.619   4.587  0.0430  0.7062  1.4711
 3660SOL    HW211880   6.177   3.557   4.689 -0.9987 -2.3247 -1.3625
 3661SOL     OW11881   5.892   4.603   4.937  0.2369 -0.4854  0.4613
 3661SOL    HW111882   5.912   4.689   4.891  0.9333 -0.2816  1.1300
 3661SOL    HW211883   5.972   4.544   4.934 -0.7979 -1.9076 -1.6615
 3662SOL     OW11884   5.846   3.941   3.095 -0.4372 -0.2181 -0.3777
 3662SOL    HW111885   5.801   3.868   3.147  0.3576  1.7645  3.4285
 3662SOL    HW211886   5.939   3.913   3.071  0.8903  0.2657  3.4679
 3663SOL     OW11887   0.283   4.047   6.561 -0.2703  0.2907 -0.9655
 3663SOL    HW111888   0.279   4.134   6.610  0.6887 -0.4283  0.4655
 3663SOL    HW211889   0.232   4.054   6.476 -0.1462  2.2767 -0.9190
 3664SOL     OW11890   6.337   0.811   0.000 -0.1914 -0.0302 -0.3586
 3664SOL    HW111891   6.359   0.789   0.095 -2.3271  4.1158  1.3779
 3664SOL    HW211892   6.412   0.861  -0.042 -0.1689  0.2414  0.0046
 3665SOL     OW11893   1.529   3.408   2.856  0.1422 -0.3134 -0.4414
 3665SOL    HW111894   1.618   3.437   2.821  0.5939 -1.1111  0.0086
 3665SOL    HW211895   1.456   3.458   2.809  0.7867 -0.3775 -1.5273
 3666SOL     OW11896   3.811   1.273   4.658 -0.6235  0.6179 -0.6002
 3666SOL    HW111897   3.894   1.320   4.686  0.2396 -0.3168 -1.4578
 3666SOL    HW211898   3.834   1.180   4.629 -2.1013  0.0396 -0.0346
 3667SOL     OW11899   4.449   0.810   3.365  0.4528 -0.0708  0.2439
 3667SOL    HW111900   4.424   0.721   3.326  2.1342 -0.1939 -0.6397
 3667SOL    HW211901   4.437   0.808   3.464  0.2686 -1.2034  0.2089
 3668SOL     OW11902   5.593   2.206   4.284  0.5519 -0.3869 -0.0896
 3668SOL    HW111903   5.661   2.153   4.233  1.4865 -1.1367  1.8393
 3668SOL    HW211904   5.517   2.230   4.223  1.0411 -2.2190 -1.5244
 3669SOL     OW11905   3.016   0.181   6.679  0.1602  0.1568  0.2639
 3669SOL    HW111906   3.043   0.275   6.658 -2.6557  0.8698 -0.6844
 3669SOL    HW211907   3.053   0.119   6.609  1.4889  0.6348  0.5252
 3670SOL     OW11908   1.827   1.953   5.682  0.6371 -0.2128  0.3306
 3670SOL    HW111909   1.852   1.860   5.708  0.0892  0.1023  2.0672
 3670SOL    HW211910   1.733   1.971   5.708  0.4375  0.5437 -0.8393
 3671SOL     OW11911   1.165   2.797   5.656  0.1331  0.4805 -0.1053
 3671SOL    HW111912   1.152   2.727   5.586 -4.1428  0.4064  0.5286
 3671SOL    HW211913   1.150   2.887   5.617  1.7699  0.8093 -0.0599
 3672SOL     OW11914   4.588   5.136   2.187  0.0601  0.0630 -0.0524
 3672SOL    HW111915   4.633   5.171   2.106 -0.0183 -0.6163 -0.3973
 3672SOL    HW211916   4.497   5.103   2.164  0.3956 -1.0269  0.1012
 3673SOL     OW11917   2.689   2.172   1.986 -0.1225 -0.0163  0.1865
 3673SOL    HW111918   2.732   2.261   2.002 -1.1988  0.8992 -1.6522
 3673SOL    HW211919   2.753   2.112   1.938 -0.0298  0.4450 -0.2779
 3674SOL     OW11920   3.931   1.738   1.913  0.3500 -0.1851 -0.5703
 3674SOL    HW111921   3.921   1.748   2.012  1.0964 -1.3845 -0.3481
 3674SOL    HW211922   3.978   1.652   1.893 -0.5262 -0.3535 -2.0160
 3675SOL     OW11923   6.126   2.622   0.125  0.1590  1.0633  0.6379
 3675SOL    HW111924   6.211   2.574   0.105 -0.2070 -0.2119  1.9402
 3675SOL    HW211925   6.097   2.601   0.218 -2.0460  0.7427 -0.0585
 3676SOL     OW11926   2.563   1.525   0.542  0.2241  0.0605  0.3821
 3676SOL    HW111927   2.620   1.592   0.494 -2.0451  1.0175 -1.1666
 3676SOL    HW211928   2.569   1.437   0.495 -0.5879  0.5283 -0.6603
 3677SOL     OW11929   6.658   0.187   3.740 -0.3539  0.9673 -0.2783
 3677SOL    HW111930   6.722   0.210   3.813 -1.2763  1.9348  0.2564
 3677SOL    HW211931   6.709   0.170   3.656  0.7294 -0.1585  0.5584
 3678SOL     OW11932   5.566   2.194   0.484 -0.3466  0.1825 -0.2080
 3678SOL    HW111933   5.586   2.267   0.549 -0.1291 -1.1469  1.2653
 3678SOL    HW211934   5.644   2.131   0.479 -0.9482 -0.5455 -0.6391
 3679SOL     OW11935   5.606   4.080   1.591 -0.2701 -0.3040  0.1692
 3679SOL    HW111936   5.568   4.134   1.516  1.2752  0.5899 -0.0098
 3679SOL    HW211937   5.568   4.112   1.677 -0.5867 -0.0187 -0.0740
 3680SOL     OW11938   4.583   1.398   3.001 -0.0140  0.2678  0.2636
 3680SOL    HW111939   4.635   1.314   3.016 -0.7720 -0.2140  0.2459
 3680SOL    HW211940   4.574   1.414   2.902 -1.0757 -0.4126  0.2323
 3681SOL     OW11941   2.782   0.770   4.908  0.5943 -0.6771  0.0207
 3681SOL    HW111942   2.821   0.774   5.000  1.2448 -1.5783 -0.1991
 3681SOL    HW211943   2.688   0.804   4.910  1.3598  1.5984  0.5603
 3682SOL     OW11944   3.503   6.603   3.564 -0.3760  0.1994 -0.1459
 3682SOL    HW111945   3.494   6.583   3.661  0.0642 -0.0122 -0.1471
 3682SOL    HW211946   3.449   6.685   3.542 -1.0220 -0.1389  0.1393
 3683SOL     OW11947   0.557   3.246   4.159  0.4066  0.5346  0.7380
 3683SOL    HW111948   0.517   3.164   4.201 -1.4520  0.2577 -1.3982
 3683SOL    HW211949   0.514   3.328   4.197  1.3152  0.5054  1.9014
 3684SOL     OW11950   2.959   1.254   1.988  0.6467 -0.6879 -0.1193
 3684SOL    HW111951   2.880   1.218   2.038  0.4994 -0.2290 -0.0195
 3684SOL    HW211952   2.968   1.352   2.006  0.8219 -0.5982 -0.6948
 3685SOL     OW11953   0.646   4.610   3.007  0.4640 -0.3586 -0.1893
 3685SOL    HW111954   0.628   4.652   3.096  0.1147 -0.5395 -0.1772
 3685SOL    HW211955   0.734   4.562   3.011  0.4176 -0.4242  0.0742
 3686SOL     OW11956   0.524   2.092   6.835  0.2151  0.0924  0.2900
 3686SOL    HW111957   0.563   2.135   6.917 -1.1886 -0.9974  1.5940
 3686SOL    HW211958   0.565   2.133   6.753  0.1677  2.7063  1.4590
 3687SOL     OW11959   1.894   0.363   1.233  0.3144  0.5201 -0.0995
 3687SOL    HW111960   1.900   0.449   1.284 -0.1131 -0.6096  1.9617
 3687SOL    HW211961   1.982   0.316   1.235 -0.0833 -0.2390  1.0005
 3688SOL     OW11962   3.563   0.586   2.728  0.2512 -0.2840  0.2445
 3688SOL    HW111963   3.500   0.538   2.790 -0.0610  0.8566  0.8373
 3688SOL    HW211964   3.642   0.528   2.710 -0.5494 -1.3872  0.1980
 3689SOL     OW11965   0.244   5.859   1.009  0.3670  0.1936  0.2098
 3689SOL    HW111966   0.180   5.876   1.084 -1.1731 -0.9071 -0.8057
 3689SOL    HW211967   0.282   5.947   0.978 -2.3861  1.1668 -0.6299
 3690SOL     OW11968   5.265   4.829   6.187 -0.0486  0.1273 -0.9020
 3690SOL    HW111969   5.352   4.808   6.142  1.1882  2.4964  0.2166
 3690SOL    HW211970   5.203   4.751   6.176  2.8051 -2.4485 -0.2110
 3691SOL     OW11971   4.350   1.771   2.954 -0.3286 -0.4069 -0.2524
 3691SOL    HW111972   4.289   1.850   2.947  0.7041  0.4252 -0.0325
 3691SOL    HW211973   4.425   1.781   2.890  0.1329 -0.9179  0.2025
 3692SOL     OW11974   6.808   0.233   1.485 -0.6133  0.0968  0.5255
 3692SOL    HW111975   6.881   0.237   1.553  1.2106 -1.7097 -1.2033
 3692SOL    HW211976   6.827   0.160   1.419 -4.7540 -1.5221  0.7947
 3693SOL     OW11977   3.423   4.199   6.853  0.0445  0.2128  0.1912
 3693SOL    HW111978   3.474   4.252   6.921 -1.5549  1.8732  0.1675
 3693SOL    HW211979   3.430   4.244   6.764 -0.4325 -0.2485 -0.0848
 3694SOL     OW11980   6.267   3.299   2.136  0.1582  0.2919  0.0362
 3694SOL    HW111981   6.222   3.291   2.047 -1.1076 -1.2069  0.7699
 3694SOL    HW211982   6.212   3.359   2.195  0.7310  0.8746 -0.0078
 3695SOL     OW11983   3.099   3.489   3.816 -0.0054 -0.2400  0.1557
 3695SOL    HW111984   3.066   3.395   3.819 -0.0655 -0.2112  0.5087
 3695SOL    HW211985   3.192   3.491   3.780 -0.9133 -0.1623 -2.3929
 3696SOL     OW11986   0.818   0.068   6.087 -0.5451 -0.6936  0.3129
 3696SOL    HW111987   0.828   0.033   5.994 -0.2875 -0.7152  0.3488
 3696SOL    HW211988   0.908   0.073   6.131 -0.4668  0.6618  0.0669
 3697SOL     OW11989   3.578   2.103   2.793  0.1543  0.0598  0.2904
 3697SOL    HW111990   3.529   2.079   2.877  0.2362 -2.4601 -0.3111
 3697SOL    HW211991   3.649   2.036   2.775  2.6342  2.5617  0.0827
 3698SOL     OW11992   2.192   0.640   7.009  0.5433 -0.1016 -0.5535
 3698SOL    HW111993   2.124   0.713   7.012  1.6290  0.9040  0.6145
 3698SOL    HW211994   2.149   0.555   6.978 -0.8928  0.8547 -1.2667
 3699SOL     OW11995   2.753   6.235   3.231  0.4157 -0.2232 -0.0955
 3699SOL    HW111996   2.655   6.229   3.245  0.3000  1.6122  0.1584
 3699SOL    HW211997   2.798   6.256   3.318  1.0428 -1.0279 -0.2104
 3700SOL     OW11998   5.780   5.604   0.504  0.0829 -0.3100 -0.1239
 3700SOL    HW111999   5.833   5.530   0.546 -2.3818 -2.0378  0.1445
 3700SOL    HW212000   5.707   5.632   0.566 -1.2270 -0.1755 -1.6721
 3701SOL     OW12001   6.738   2.351   3.831 -0.5208 -0.2024 -0.0548
 3701SOL    HW112002   6.765   2.276   3.892 -0.1728 -0.7175 -0.8327
 3701SOL    HW212003   6.682   2.315   3.757  1.4052 -0.0530 -1.6359
 3702SOL     OW12004   6.233   3.794   2.803 -0.2900  0.3657  0.3184
 3702SOL    HW112005   6.272   3.704   2.820 -0.4688  0.4163  1.0293
 3702SOL    HW212006   6.296   3.864   2.838 -0.7564  0.4659  0.9714
 3703SOL     OW12007   4.468   0.682   6.358  0.3564  0.0074 -0.3668
 3703SOL    HW112008   4.478   0.776   6.391  2.9980  0.1332 -1.2547
 3703SOL    HW212009   4.448   0.684   6.260 -1.3503 -0.3843 -0.0487
 3704SOL     OW12010   6.674   2.554   4.793  0.8695 -0.9721  0.3373
 3704SOL    HW112011   6.745   2.600   4.847 -1.7878  1.3723  2.1137
 3704SOL    HW212012   6.615   2.501   4.854 -2.1009  1.5924 -0.0356
 3705SOL     OW12013   1.282   1.495   0.866  0.4360  0.0159  0.0006
 3705SOL    HW112014   1.224   1.575   0.882  1.9793  1.3174 -0.6757
 3705SOL    HW212015   1.375   1.514   0.896  1.0065 -1.2622 -0.8702
 3706SOL     OW12016   5.223   2.078   1.229  0.3607  0.1671  0.0134
 3706SOL    HW112017   5.224   1.984   1.194 -0.0384 -0.0346  0.5139
 3706SOL    HW212018   5.234   2.142   1.154 -0.9834 -0.2326 -0.5580
 3707SOL     OW12019   3.103   6.333   5.253 -0.0185  0.1403 -0.3666
 3707SOL    HW112020   3.034   6.362   5.320  0.8111  1.1326  0.0886
 3707SOL    HW212021   3.176   6.401   5.249 -0.0545  0.1217 -2.3175
 3708SOL     OW12022   6.830   0.450   6.467  0.5152 -0.0685  0.1297
 3708SOL    HW112023   6.870   0.398   6.542  0.5069 -1.4317 -0.7755
 3708SOL    HW212024   6.864   0.415   6.380  0.3427  1.3274 -0.5315
 3709SOL     OW12025   3.957   3.642   0.645  0.8307  0.6171 -0.2406
 3709SOL    HW112026   3.949   3.577   0.569  1.6158  0.5974 -0.3229
 3709SOL    HW212027   3.869   3.685   0.662  0.4432 -0.0096 -0.6011
 3710SOL     OW12028   3.497   3.925   2.414 -0.2847 -0.6264 -0.1261
 3710SOL    HW112029   3.466   3.880   2.330  1.3753 -2.2222  0.0579
 3710SOL    HW212030   3.484   3.864   2.492 -0.5113  0.2951  0.5808
 3711SOL     OW12031   1.934   3.833   4.060 -0.1321  0.7734  0.0347
 3711SOL    HW112032   1.977   3.862   3.975 -0.5711  0.5290 -0.2720
 3711SOL    HW212033   2.005   3.817   4.129  0.2552  0.6215 -0.3931
 3712SOL     OW12034   1.785   5.477   6.413 -0.5727  0.0447 -0.1066
 3712SOL    HW112035   1.700   5.529   6.406 -0.4845 -0.0558 -3.1726
 3712SOL    HW212036   1.829   5.472   6.323  3.4449  1.2894  1.5310
 3713SOL     OW12037   4.956   5.097   2.754  0.3611  0.4293 -0.2518
 3713SOL    HW112038   5.025   5.025   2.743  1.0006  0.5235  2.5868
 3713SOL    HW212039   4.956   5.129   2.848 -1.2314  2.8620 -1.0037
 3714SOL     OW12040   4.358   6.420   2.940 -0.1102  0.0435  0.2396
 3714SOL    HW112041   4.400   6.366   3.012 -1.4854 -0.5716  0.6146
 3714SOL    HW212042   4.271   6.457   2.972 -0.4569  0.2760 -0.9052
 3715SOL     OW12043   4.769   4.732   1.564 -0.2632  0.0483 -0.1332
 3715SOL    HW112044   4.672   4.710   1.563 -0.7087  1.8149 -0.1250
 3715SOL    HW212045   4.795   4.771   1.475  0.3951 -0.2133 -0.0636
 3716SOL     OW12046   3.605   3.682   5.696  0.0476 -0.3171  0.2823
 3716SOL    HW112047   3.537   3.742   5.654  1.1272 -0.8415 -2.4961
 3716SOL    HW212048   3.694   3.699   5.652  0.8759 -2.2527  1.1387
 3717SOL     OW12049   1.338   4.751   2.629 -0.2481  0.2074 -0.6603
 3717SOL    HW112050   1.285   4.786   2.552 -2.6277 -1.8108 -0.0832
 3717SOL    HW212051   1.367   4.657   2.610  1.9011  0.7666 -0.3343
 3718SOL     OW12052   6.122   3.953   4.214  0.5837  0.4765 -0.6932
 3718SOL    HW112053   6.088   3.998   4.296 -1.1524 -2.2542  0.2217
 3718SOL    HW212054   6.062   3.973   4.137 -1.1857 -1.4564  0.0960
 3719SOL     OW12055   4.800   1.530   6.821  0.0800  0.1933 -0.0278
 3719SOL    HW112056   4.726   1.539   6.888  1.3767 -0.3017  1.5366
 3719SOL    HW212057   4.761   1.513   6.730 -1.8244  3.2730  0.0777
 3720SOL     OW12058   4.479   4.586   3.423 -0.2589 -0.2632  0.7968
 3720SOL    HW112059   4.434   4.616   3.507  0.2857  1.9323  0.3723
 3720SOL    HW212060   4.415   4.594   3.346 -0.2558 -0.6431  0.7564
 3721SOL     OW12061   4.771   5.159   5.126  0.4961 -0.1004  0.2896
 3721SOL    HW112062   4.678   5.191   5.111  0.2078 -0.6043  0.9589
 3721SOL    HW212063   4.771   5.060   5.139  1.4533 -0.5044 -2.3387
 3722SOL     OW12064   4.496   6.639   5.682 -0.5444 -0.2167  0.2405
 3722SOL    HW112065   4.580   6.618   5.732 -1.2757 -2.1420  0.7400
 3722SOL    HW212066   4.492   6.738   5.665  0.8857  0.1782  1.8592
 3723SOL     OW12067   3.634   5.905   2.308  0.1799 -0.1146 -0.1484
 3723SOL    HW112068   3.719   5.856   2.290  0.4662  0.2053  0.3046
 3723SOL    HW212069   3.630   5.987   2.252 -0.9353 -1.3295 -1.9385
 3724SOL     OW12070   1.016   6.247   0.757 -0.1248  0.1744  0.1463
 3724SOL    HW112071   0.983   6.313   0.824 -0.5995 -0.4371  0.5297
 3724SOL    HW212072   0.978   6.270   0.667 -0.8460  0.0343  0.4062
 3725SOL     OW12073   4.605   6.340   4.557 -0.5034 -0.5076  0.5378
 3725SOL    HW112074   4.553   6.425   4.563  0.2761  0.0632 -0.6066
 3725SOL    HW212075   4.563   6.280   4.489  0.8645  0.3881 -1.1853
 3726SOL     OW12076   2.755   0.267   1.401 -0.0720  0.1448 -0.0386
 3726SOL    HW112077   2.824   0.253   1.473 -1.7764 -1.3312  1.4182
 3726SOL    HW212078   2.744   0.182   1.349  0.8904  1.0989 -1.9013
 3727SOL     OW12079   6.774   6.027   5.904  0.2237  0.4077  0.2256
 3727SOL    HW112080   6.870   6.019   5.875  0.2952  1.9596 -0.0730
 3727SOL    HW212081   6.771   6.035   6.004  0.2608 -1.3130  0.3799
 3728SOL     OW12082   6.046   0.398   6.020  0.0744  0.2297 -0.7301
 3728SOL    HW112083   6.101   0.479   6.041  2.0322 -1.1463 -0.2086
 3728SOL    HW212084   5.976   0.387   6.091 -0.5453  1.7017 -1.0779
 3729SOL     OW12085   1.973   2.264   3.727  0.0179  0.6930  0.2889
 3729SOL    HW112086   2.063   2.305   3.740  0.1153  0.4832  0.2755
 3729SOL    HW212087   1.979   2.164   3.737 -0.1920  0.6681  0.1836
 3730SOL     OW12088   4.966   1.449   1.584  0.6279  0.7072 -0.2087
 3730SOL    HW112089   4.897   1.415   1.648  0.2529  2.1766  0.2078
 3730SOL    HW212090   4.941   1.423   1.491  1.4806 -1.9672  0.2131
 3731SOL     OW12091   5.927   2.785   6.703  0.0103  0.2680 -0.0279
 3731SOL    HW112092   5.835   2.769   6.667  0.0136 -3.2394  1.1592
 3731SOL    HW212093   5.928   2.768   6.801  1.9899 -0.0468 -0.0671
 3732SOL     OW12094   3.586   1.079   1.013  0.4691  0.0017  0.3133
 3732SOL    HW112095   3.492   1.046   1.015  1.0778 -1.9254 -0.1752
 3732SOL    HW212096   3.647   1.007   1.048  1.8692  0.7334 -0.5189
 3733SOL     OW12097   2.161   5.951   6.417 -0.4005 -0.0432  0.5570
 3733SOL    HW112098   2.102   5.898   6.356  2.0336 -0.8023 -1.3189
 3733SOL    HW212099   2.205   5.889   6.482 -1.0618  0.4039  1.4455
 3734SOL     OW12100   6.844   0.190   0.071 -0.4296 -0.2495  0.1734
 3734SOL    HW112101   6.790   0.126   0.125 -0.1256 -1.2324 -0.6486
 3734SOL    HW212102   6.913   0.140   0.018 -0.0119  0.7827 -0.2997
 3735SOL     OW12103   6.993   1.304   1.358  0.4376 -0.0502  0.3542
 3735SOL    HW112104   7.027   1.364   1.430 -0.4257 -0.0617  0.7828
 3735SOL    HW212105   7.069   1.277   1.298  0.7900  1.6585 -0.0016
 3736SOL     OW12106   6.783   4.017   6.122  0.4627 -0.3415  0.0624
 3736SOL    HW112107   6.745   4.088   6.062  1.3530  1.2224  1.2917
 3736SOL    HW212108   6.882   4.012   6.109  0.5219 -0.7475  0.6335
 3737SOL     OW12109   3.058   3.173   5.316 -0.5653 -0.0180  0.3003
 3737SOL    HW112110   3.012   3.229   5.247  0.5385  0.9821  0.3528
 3737SOL    HW212111   2.994   3.105   5.351 -1.9433  1.1807  0.2128
 3738SOL     OW12112   1.888   5.705   5.319  0.7002 -0.0254  0.4524
 3738SOL    HW112113   1.848   5.748   5.238  1.6205  1.3800  0.7055
 3738SOL    HW212114   1.926   5.775   5.379  1.0533 -1.1218  1.5643
 3739SOL     OW12115   0.795   1.511   5.979 -0.4959  0.1882  0.3509
 3739SOL    HW112116   0.795   1.422   6.026  2.4061 -1.0385 -1.6539
 3739SOL    HW212117   0.858   1.573   6.026  0.3254 -0.1273 -0.2987
 3740SOL     OW12118   3.766   0.335   6.934 -0.2738  0.6957 -0.0141
 3740SOL    HW112119   3.783   0.417   6.989 -1.1848  0.3572  0.8100
 3740SOL    HW212120   3.853   0.296   6.905  0.2103  1.2710  0.6162
 3741SOL     OW12121   3.753   5.577   1.728  0.5561  0.4476  0.3500
 3741SOL    HW112122   3.664   5.599   1.689  0.7924  0.0580 -0.4365
 3741SOL    HW212123   3.761   5.618   1.819 -0.7825 -0.2836  0.8209
 3742SOL     OW12124   4.151   1.662   5.534 -0.1505  0.4444  0.8927
 3742SOL    HW112125   4.091   1.583   5.545  0.0711  0.3971  1.9206
 3742SOL    HW212126   4.241   1.632   5.502 -0.8876  0.6091 -1.5570
 3743SOL     OW12127   0.409   0.360   0.243  0.5180  0.1074  0.3977
 3743SOL    HW112128   0.340   0.292   0.219  0.3655  0.2892  0.3197
 3743SOL    HW212129   0.392   0.444   0.192  0.6379  0.2434  0.5805
 3744SOL     OW12130   3.648   5.877   6.172  0.0296  0.3916  0.7678
 3744SOL    HW112131   3.592   5.865   6.254  2.0502 -1.6783  1.9848
 3744SOL    HW212132   3.705   5.958   6.182 -1.7623  1.8065  0.0531
 3745SOL     OW12133   7.004   3.098   3.173 -0.6912  0.0485 -0.6175
 3745SOL    HW112134   6.934   3.169   3.169 -0.9971 -0.0931  1.3133
 3745SOL    HW212135   6.960   3.008   3.167 -0.5070 -0.0237 -0.9417
 3746SOL     OW12136   2.516   2.456   0.028  0.2534  0.3242  0.1535
 3746SOL    HW112137   2.455   2.476  -0.049 -0.5735 -0.9703  0.4302
 3746SOL    HW212138   2.508   2.359   0.052 -0.4025  0.9130  2.6136
 3747SOL     OW12139   2.897   0.195   1.856  0.2859 -1.0381  0.4332
 3747SOL    HW112140   2.809   0.172   1.814  0.7237 -0.2389 -0.9673
 3747SOL    HW212141   2.881   0.250   1.938 -0.5004  1.7566 -1.4491
 3748SOL     OW12142   6.476   4.018   3.372 -0.2262  0.2670 -0.0924
 3748SOL    HW112143   6.530   3.974   3.444 -2.9958  0.8291  2.5546
 3748SOL    HW212144   6.500   4.115   3.367  0.4851  0.0769 -0.4744
 3749SOL     OW12145   2.193   6.742   6.348  0.0513 -0.1668 -0.3635
 3749SOL    HW112146   2.196   6.801   6.266  1.6700 -1.9848 -1.7094
 3749SOL    HW212147   2.142   6.659   6.327  0.1763 -0.4978  0.6139
 3750SOL     OW12148   0.371   3.496   3.135 -0.2302 -0.1162  0.1075
 3750SOL    HW112149   0.276   3.476   3.112 -1.0947  2.3709  1.2128
 3750SOL    HW212150   0.430   3.475   3.057 -2.0347  0.7896 -1.5697
 3751SOL     OW12151   0.685   1.353   5.647  0.1467  0.4763 -0.2798
 3751SOL    HW112152   0.738   1.271   5.669  0.0344  0.7861  1.2288
 3751SOL    HW212153   0.744   1.418   5.600  0.7906  0.3364  0.3105
 3752SOL     OW12154   3.801   3.665   6.602 -0.7956  0.0195 -0.4730
 3752SOL    HW112155   3.825   3.570   6.621 -0.6153 -0.1404 -1.4190
 3752SOL    HW212156   3.835   3.724   6.675 -0.2128 -0.5596 -0.2707
 3753SOL     OW12157   0.267   1.719   5.780  0.9921  0.2876  0.2588
 3753SOL    HW112158   0.307   1.806   5.750 -0.1518  1.1434  1.1377
 3753SOL    HW212159   0.250   1.661   5.700  2.5225  0.5183 -0.2690
 3754SOL     OW12160   4.785   4.231   1.875  0.1514 -0.4471  0.1251
 3754SOL    HW112161   4.775   4.214   1.777 -0.6882 -0.2560  0.1702
 3754SOL    HW212162   4.695   4.239   1.917  0.5024  0.9046  0.6693
 3755SOL     OW12163   5.965   3.625   1.232 -0.5696 -0.4148 -0.2682
 3755SOL    HW112164   5.925   3.657   1.318 -0.0043  0.9565 -0.4883
 3755SOL    HW212165   6.025   3.696   1.195  0.7312 -1.7475 -0.8066
 3756SOL     OW12166   4.832   6.834   5.585  0.0676 -0.2480  0.1765
 3756SOL    HW112167   4.775   6.889   5.525  0.1576  1.3731  1.4833
 3756SOL    HW212168   4.902   6.787   5.532 -0.3995  0.4270 -1.0611
 3757SOL     OW12169   5.821   2.167   4.002 -0.0460  0.2963 -0.2639
 3757SOL    HW112170   5.887   2.155   3.928 -1.0404 -2.9715 -0.8118
 3757SOL    HW212171   5.792   2.077   4.035 -1.8030  1.6365  2.1732
 3758SOL     OW12172   4.150   6.848   2.763  0.5689 -0.0646  0.0317
 3758SOL    HW112173   4.187   6.869   2.672  0.4747 -0.3243 -0.0660
 3758SOL    HW212174   4.186   6.760   2.794  0.6639  0.0622  0.2822
 3759SOL     OW12175   4.553   0.948   0.955 -0.5043  0.2417 -0.2134
 3759SOL    HW112176   4.477   1.010   0.938 -0.0859  0.2635 -2.2478
 3759SOL    HW212177   4.540   0.864   0.902  0.3959 -0.1611  0.1813
 3760SOL     OW12178   5.758   0.419   3.647 -0.0679  0.7124  0.4769
 3760SOL    HW112179   5.766   0.518   3.651  0.9636  0.6737 -0.1057
 3760SOL    HW212180   5.666   0.394   3.616 -0.4024  1.4763  0.8355
 3761SOL     OW12181   5.701   2.344   3.259  0.0808  0.3502  0.4498
 3761SOL    HW112182   5.614   2.305   3.290  1.3867 -0.7754  3.0758
 3761SOL    HW212183   5.770   2.272   3.258  1.5530  1.7111  0.9822
 3762SOL     OW12184   4.553   4.503   5.201 -0.0017  0.0965  0.3611
 3762SOL    HW112185   4.576   4.414   5.240  0.0668  0.6369  1.5918
 3762SOL    HW212186   4.465   4.497   5.153 -0.2209 -0.5121  0.8351
 3763SOL     OW12187   2.170   1.556   3.516 -0.1876 -0.0404  0.1698
 3763SOL    HW112188   2.194   1.627   3.582 -0.6743 -0.2708  0.5913
 3763SOL    HW212189   2.075   1.568   3.486 -0.4215 -0.7925  0.5956
 3764SOL     OW12190   2.634   5.874   2.648  0.3411 -0.0625  0.4419
 3764SOL    HW112191   2.586   5.892   2.734  0.1268  0.3707  0.2326
 3764SOL    HW212192   2.732   5.863   2.666  0.3320  0.2806  0.7107
 3765SOL     OW12193   3.966   0.358   3.542  0.1222 -0.0562 -0.5739
 3765SOL    HW112194   3.933   0.354   3.636  2.6550 -0.3541  0.3701
 3765SOL    HW212195   4.003   0.269   3.515  2.4198  0.8274 -0.6102
 3766SOL     OW12196   4.544   1.136   1.730 -0.4222  0.2972  0.0843
 3766SOL    HW112197   4.479   1.121   1.655 -1.2792 -1.3397  1.1047
 3766SOL    HW212198   4.515   1.215   1.784 -2.1229 -0.9281  1.0490
 3767SOL     OW12199   1.425   2.921   5.737 -0.3807 -0.3982  0.5101
 3767SOL    HW112200   1.334   2.898   5.702 -0.2318 -2.5255  1.3408
 3767SOL    HW212201   1.452   2.854   5.806  1.5399  0.5856  0.7889
 3768SOL     OW12202   2.673   4.807   0.096 -0.3337 -0.0054 -0.0715
 3768SOL    HW112203   2.665   4.905   0.077 -0.4515 -0.0781 -0.3920
 3768SOL    HW212204   2.597   4.758   0.054 -0.5331 -0.1817  0.4858
 3769SOL     OW12205   5.498   4.805   5.930  0.5211  0.2925 -0.2682
 3769SOL    HW112206   5.431   4.746   5.885 -0.4422  0.4476  0.9036
 3769SOL    HW212207   5.488   4.899   5.896  0.3726  0.2511 -0.3395
 3770SOL     OW12208   2.456   0.995   2.164  0.2425  1.0354 -0.3546
 3770SOL    HW112209   2.428   1.090   2.159  2.7696  1.8203 -0.9304
 3770SOL    HW212210   2.428   0.947   2.081 -0.4242  1.4319 -0.3654
 3771SOL     OW12211   0.207   5.088   0.069  0.2516  0.0636  0.0076
 3771SOL    HW112212   0.149   5.031   0.127  0.3303 -0.3979 -0.3642
 3771SOL    HW212213   0.155   5.168   0.038  0.3616  0.6015  1.1363
 3772SOL     OW12214   2.901   3.181   6.789  0.3438  0.3776  0.6767
 3772SOL    HW112215   2.822   3.120   6.787  2.3043 -2.3737 -0.3178
 3772SOL    HW212216   2.937   3.186   6.882  0.4373 -0.4415  0.6949
 3773SOL     OW12217   3.260   1.185   2.510  0.4219  0.1789 -0.3012
 3773SOL    HW112218   3.320   1.237   2.449 -0.5386 -0.2212 -1.6244
 3773SOL    HW212219   3.167   1.221   2.506  0.2007 -0.2838  0.4104
 3774SOL     OW12220   1.854   4.803   1.378 -0.2893 -0.5403 -0.3931
 3774SOL    HW112221   1.910   4.856   1.314 -0.4492 -1.3325 -1.2118
 3774SOL    HW212222   1.789   4.864   1.424  2.0758  0.6910  1.6170
 3775SOL     OW12223   5.268   2.449   3.425 -0.8433 -0.1349 -0.5567
 3775SOL    HW112224   5.198   2.491   3.484  0.6955  0.8810  0.6283
 3775SOL    HW212225   5.254   2.480   3.331 -3.0648 -1.4107 -0.7257
 3776SOL     OW12226   0.566   5.678   2.214  0.1074  0.3612 -0.2767
 3776SOL    HW112227   0.580   5.641   2.306 -1.3406 -0.2019 -0.2412
 3776SOL    HW212228   0.481   5.731   2.212  1.4416  2.5783 -0.6843
 3777SOL     OW12229   6.711   0.645   3.145 -0.5613 -0.2838  0.2126
 3777SOL    HW112230   6.772   0.724   3.137 -0.3546 -0.4225  0.3897
 3777SOL    HW212231   6.622   0.674   3.179  0.2035 -0.4107  2.4673
 3778SOL     OW12232   5.591   2.114   5.392  0.1006  0.4854  0.4863
 3778SOL    HW112233   5.545   2.097   5.479 -0.2582  0.6540  0.3323
 3778SOL    HW212234   5.524   2.147   5.325 -0.0300 -1.4281 -0.4022
 3779SOL     OW12235   5.084   2.490   1.703  0.5488 -0.2947  0.0325
 3779SOL    HW112236   5.134   2.558   1.651  3.0512 -1.6374  0.5392
 3779SOL    HW212237   4.986   2.509   1.697  1.0790  2.7815 -0.5389
 3780SOL     OW12238   4.149   3.258   6.969  0.4620 -0.1109  0.2963
 3780SOL    HW112239   4.197   3.219   7.048  3.0073 -0.9289 -1.5433
 3780SOL    HW212240   4.056   3.281   6.996  1.3355  0.0695  3.6472
 3781SOL     OW12241   4.425   6.015   1.871 -0.3191 -0.6771 -0.3311
 3781SOL    HW112242   4.479   6.073   1.810  1.0861 -1.1646  0.4128
 3781SOL    HW212243   4.436   5.919   1.843 -1.1376 -0.7601 -0.4065
 3782SOL     OW12244   5.469   2.096   5.642 -0.0589  0.3011  0.3434
 3782SOL    HW112245   5.444   2.051   5.728  1.1004  1.2435  1.1991
 3782SOL    HW212246   5.491   2.191   5.659  0.3055  0.4743 -0.9953
 3783SOL     OW12247   5.525   1.122   3.557  0.1158  0.3345 -0.0394
 3783SOL    HW112248   5.578   1.181   3.618 -0.1346  0.1033  0.4125
 3783SOL    HW212249   5.450   1.080   3.609  0.5069 -0.6659 -0.2603
 3784SOL     OW12250   3.123   4.814   0.938 -0.3706  0.3245  0.1987
 3784SOL    HW112251   3.115   4.881   1.013  0.3030  0.0512  0.5234
 3784SOL    HW212252   3.215   4.775   0.939 -0.5846 -0.1922 -0.3481
 3785SOL     OW12253   3.134   6.255   5.650  0.1661 -0.8592  0.4653
 3785SOL    HW112254   3.208   6.198   5.615  0.7916 -0.6243  1.3674
 3785SOL    HW212255   3.095   6.212   5.732  1.4367  0.5378  1.8712
 3786SOL     OW12256   1.453   2.402   4.149  0.4008 -0.8896  0.1204
 3786SOL    HW112257   1.441   2.501   4.159  0.9200 -0.7946 -0.1362
 3786SOL    HW212258   1.396   2.370   4.073  1.0961 -0.5809 -0.5599
 3787SOL     OW12259   1.426   1.844   4.939 -0.1580 -0.6799  0.6037
 3787SOL    HW112260   1.485   1.906   4.887 -2.1583  1.1794  0.3874
 3787SOL    HW212261   1.446   1.750   4.914  2.6321 -0.1607  0.5235
 3788SOL     OW12262   6.493   6.623   5.170 -0.3065  0.0250 -0.1569
 3788SOL    HW112263   6.432   6.544   5.165  0.6351 -0.8579  1.5796
 3788SOL    HW212264   6.502   6.653   5.265  1.4697  0.5221 -0.4454
 3789SOL     OW12265   2.814   6.529   5.640  0.1891  0.0641  0.6750
 3789SOL    HW112266   2.826   6.496   5.733 -1.4473 -0.1290  0.8382
 3789SOL    HW212267   2.881   6.601   5.621 -1.5145  2.4774  3.1360
 3790SOL     OW12268   2.317   4.828   3.708  0.1475  0.0277 -0.1081
 3790SOL    HW112269   2.303   4.742   3.757  1.3054 -0.0151  0.1560
 3790SOL    HW212270   2.280   4.904   3.762 -2.2792 -0.4182 -1.0129
 3791SOL     OW12271   3.645   1.789   2.579  0.1187  0.5459 -0.2564
 3791SOL    HW112272   3.665   1.838   2.664  1.7241 -1.0054  0.3186
 3791SOL    HW212273   3.679   1.843   2.502  1.9271  0.3622  0.3671
 3792SOL     OW12274   2.292   3.076   6.433 -0.1708  0.2186 -0.1804
 3792SOL    HW112275   2.255   3.153   6.484  2.1263  0.1554  1.7550
 3792SOL    HW212276   2.315   3.105   6.341  1.8648  2.2935  0.8938
 3793SOL     OW12277   6.574   1.927   3.144 -0.4014  0.1572  0.1892
 3793SOL    HW112278   6.543   1.890   3.231  1.0692 -0.2513  0.5613
 3793SOL    HW212279   6.501   1.916   3.076 -0.2307 -3.0607  0.3677
 3794SOL     OW12280   4.293   1.880   0.294 -0.2079 -0.1947  0.0066
 3794SOL    HW112281   4.195   1.895   0.311 -0.3148  1.0418 -1.4677
 3794SOL    HW212282   4.314   1.900   0.198  1.4724 -0.5731  0.2623
 3795SOL     OW12283   3.660   5.080   0.354 -0.1853  0.1073 -0.0907
 3795SOL    HW112284   3.582   5.116   0.405 -0.4062 -1.7375  0.9808
 3795SOL    HW212285   3.733   5.055   0.417  0.3877 -0.2652 -0.8817
 3796SOL     OW12286   6.112   0.745   3.531 -0.2008  0.3637 -0.1553
 3796SOL    HW112287   6.050   0.822   3.548 -1.2086 -0.7019  1.2094
 3796SOL    HW212288   6.165   0.726   3.614  0.9870  0.3754 -0.8790
 3797SOL     OW12289   6.979   0.987   5.403 -0.1881 -0.4898 -0.5967
 3797SOL    HW112290   6.940   1.016   5.490  0.7198 -1.4215  0.1421
 3797SOL    HW212291   7.038   1.060   5.367  1.0031 -0.8353  0.5668
 3798SOL     OW12292   3.084   5.038   5.407 -0.3574 -0.1430 -0.4393
 3798SOL    HW112293   3.181   5.059   5.415 -0.4484  0.0727  0.1279
 3798SOL    HW212294   3.055   4.983   5.485 -1.4464  2.6954  1.3324
 3799SOL     OW12295   2.147   0.692   0.300  0.5777  0.3079 -0.1722
 3799SOL    HW112296   2.079   0.681   0.228  1.1163 -0.4335 -0.5785
 3799SOL    HW212297   2.172   0.602   0.336  0.3622  0.6657  0.9035
 3800SOL     OW12298   3.477   4.934   2.835  0.0186 -0.1200  0.4271
 3800SOL    HW112299   3.471   4.888   2.747 -2.1355 -1.3100  1.0987
 3800SOL    HW212300   3.570   4.965   2.851  0.3314  0.8165 -2.5622
 3801SOL     OW12301   1.945   2.014   1.572 -0.0223  0.3338  0.2132
 3801SOL    HW112302   1.882   2.088   1.592  1.6678  1.5308  1.3331
 3801SOL    HW212303   1.899   1.926   1.586 -1.3455  1.1625  1.2787
 3802SOL     OW12304   2.414   5.550   1.712  0.1172 -0.1541  0.2523
 3802SOL    HW112305   2.485   5.536   1.644 -1.2447 -2.3088 -0.8364
 3802SOL    HW212306   2.448   5.609   1.785  1.8536  1.7102 -1.9216
 3803SOL     OW12307   0.907   5.619   5.008  0.7306 -0.1188 -0.0002
 3803SOL    HW112308   0.983   5.606   4.945  0.7456 -0.3065  0.0540
 3803SOL    HW212309   0.824   5.642   4.956  0.9568  0.6829 -0.0124
 3804SOL     OW12310   5.259   2.702   1.658 -0.0039  0.1138 -0.3359
 3804SOL    HW112311   5.347   2.748   1.641  0.1555 -0.3754 -0.8604
 3804SOL    HW212312   5.184   2.767   1.645  0.3073  0.8342  1.1756
 3805SOL     OW12313   1.414   0.800   3.659 -0.1178 -0.5552  0.3546
 3805SOL    HW112314   1.336   0.862   3.657  0.3514  0.0576  0.6384
 3805SOL    HW212315   1.466   0.815   3.744 -1.9244 -3.7411  2.2152
 3806SOL     OW12316   6.910   1.879   6.773  0.2410  0.3454 -0.3221
 3806SOL    HW112317   6.923   1.939   6.694  0.7063  1.8777  0.8598
 3806SOL    HW212318   7.000   1.851   6.809  0.0494  0.1529  0.0170
 3807SOL     OW12319   2.129   5.007   5.914 -0.2044 -0.3700 -0.7154
 3807SOL    HW112320   2.179   4.979   5.833  1.9503  1.0698  0.0270
 3807SOL    HW212321   2.176   4.973   5.996  0.2103  1.8202  0.0396
 3808SOL     OW12322   4.580   3.469   5.666 -0.1889 -0.1014 -0.3824
 3808SOL    HW112323   4.539   3.560   5.663 -0.8433 -0.4140 -1.3982
 3808SOL    HW212324   4.528   3.407   5.607 -1.0813 -1.6659  1.9010
 3809SOL     OW12325   0.426   6.186   5.607  0.2540 -0.3892  0.0874
 3809SOL    HW112326   0.412   6.158   5.512  0.2544  1.2290 -0.4094
 3809SOL    HW212327   0.491   6.262   5.610 -0.1153 -0.1038  1.3410
 3810SOL     OW12328   6.585   3.086   5.980  0.3506 -0.0540  0.4257
 3810SOL    HW112329   6.636   3.010   5.939  2.4694  1.6947 -0.4232
 3810SOL    HW212330   6.613   3.172   5.936 -1.2830  1.3323  1.9467
 3811SOL     OW12331   1.667   4.037   4.841  0.1917  0.2607 -0.1812
 3811SOL    HW112332   1.729   4.047   4.764 -3.3068  2.9031 -3.0125
 3811SOL    HW212333   1.660   4.123   4.891  1.7081 -1.1502  2.7858
 3812SOL     OW12334   2.462   0.640   0.121  0.2757  0.3487 -0.0409
 3812SOL    HW112335   2.439   0.543   0.131 -1.0066  0.7690  1.3540
 3812SOL    HW212336   2.382   0.690   0.087  0.8151  0.9917 -0.3863
 3813SOL     OW12337   4.846   2.274   4.600  0.5694 -0.5671 -0.1131
 3813SOL    HW112338   4.943   2.299   4.599  0.0495  1.7425 -0.8436
 3813SOL    HW212339   4.799   2.324   4.673 -0.0673 -1.7642  0.3265
 3814SOL     OW12340   0.787   3.407   1.219 -0.4719  0.0350  0.1693
 3814SOL    HW112341   0.803   3.433   1.124  1.2906  1.2489  0.7391
 3814SOL    HW212342   0.827   3.476   1.279 -1.1549 -0.9374  1.8013
 3815SOL     OW12343   0.234   1.443   6.629 -0.2778  0.2539  0.0593
 3815SOL    HW112344   0.269   1.421   6.537  1.0575  1.5222  0.2161
 3815SOL    HW212345   0.143   1.405   6.640 -0.1323 -0.6314 -1.5013
 3816SOL     OW12346   1.516   1.605   2.574  0.0791 -0.0316 -0.1086
 3816SOL    HW112347   1.455   1.528   2.558  0.7829 -0.5087 -0.5532
 3816SOL    HW212348   1.534   1.652   2.487  0.7313 -0.1934 -0.0686
 3817SOL     OW12349   2.347   2.575   1.225 -0.2436  0.1068  0.5704
 3817SOL    HW112350   2.336   2.673   1.204 -0.9275 -0.5179 -2.5150
 3817SOL    HW212351   2.390   2.565   1.314  1.3145  3.2604  0.3162
 3818SOL     OW12352   5.125   3.531   4.604  0.2585 -0.4467 -0.3750
 3818SOL    HW112353   5.082   3.587   4.674 -1.3365 -0.7373 -1.0785
 3818SOL    HW212354   5.223   3.549   4.602  0.1035  0.6658  0.8972
 3819SOL     OW12355   5.662   0.297   1.587  0.1584 -0.3566 -0.3732
 3819SOL    HW112356   5.599   0.301   1.664  1.2031 -2.0166  0.6389
 3819SOL    HW212357   5.670   0.387   1.545 -1.7717  0.1890  0.3395
 3820SOL     OW12358   5.050   6.534   2.068 -0.0522  0.8498 -0.4973
 3820SOL    HW112359   5.006   6.456   2.025  0.9095  0.7039 -1.2294
 3820SOL    HW212360   5.085   6.596   1.998 -0.0536  1.5100  0.0759
 3821SOL     OW12361   3.532   0.146   0.133  0.4106  0.0833  0.6305
 3821SOL    HW112362   3.439   0.114   0.121  1.1663 -1.8765 -0.5671
 3821SOL    HW212363   3.538   0.243   0.110 -1.0683 -0.1202 -0.7627
 3822SOL     OW12364   2.476   6.553   0.964 -0.1595  0.1222  0.8166
 3822SOL    HW112365   2.556   6.527   1.018  0.0790 -0.2960  0.2744
 3822SOL    HW212366   2.404   6.485   0.977 -0.6931  0.8595  1.8436
 3823SOL     OW12367   4.307   4.979   5.279 -0.0713 -0.3019 -0.2759
 3823SOL    HW112368   4.329   4.908   5.211 -0.4372  1.4213 -2.2777
 3823SOL    HW212369   4.391   5.007   5.325  0.2807 -1.0548 -0.4306
 3824SOL     OW12370   0.603   4.162   3.690 -0.2405 -0.1050  0.1593
 3824SOL    HW112371   0.688   4.125   3.729 -0.3155  1.4307  1.9858
 3824SOL    HW212372   0.609   4.163   3.591  2.0890  0.3288  0.2348
 3825SOL     OW12373   4.607   5.927   1.003 -0.5379  0.8620  0.6806
 3825SOL    HW112374   4.691   5.915   1.057 -1.1108 -2.3650  1.0836
 3825SOL    HW212375   4.531   5.882   1.051 -2.2363  2.5307 -0.3320
 3826SOL     OW12376   4.949   4.945   2.091  0.1501  0.3986  0.2394
 3826SOL    HW112377   4.920   4.908   2.003  0.4312  1.6994 -0.4408
 3826SOL    HW212378   4.882   4.922   2.161 -1.1912  1.0990 -0.7498
 3827SOL     OW12379   0.390   0.957   6.959  0.0925 -0.8332  0.2014
 3827SOL    HW112380   0.291   0.956   6.948  0.2546  0.1091 -2.2192
 3827SOL    HW212381   0.420   1.050   6.979  0.5712 -0.7134 -0.9496
 3828SOL     OW12382   3.731   4.205   0.238 -0.1778  0.0787  0.4480
 3828SOL    HW112383   3.658   4.172   0.298  1.0719 -0.9987  1.4227
 3828SOL    HW212384   3.804   4.137   0.234  0.2543  0.6093 -1.4650
 3829SOL     OW12385   4.727   6.876   1.941  0.5202 -0.1126 -0.0190
 3829SOL    HW112386   4.666   6.852   1.866  2.1700 -0.1460 -1.4052
 3829SOL    HW212387   4.796   6.941   1.909  1.4650 -0.3839  1.3764
 3830SOL     OW12388   5.113   2.385   3.922 -0.2085 -0.0035 -0.0053
 3830SOL    HW112389   5.015   2.395   3.907 -0.9264 -3.3671  1.3726
 3830SOL    HW212390   5.129   2.313   3.990  3.2258  1.1454  0.6095
 3831SOL     OW12391   6.763   2.608   2.663 -0.0846  0.2443 -0.8289
 3831SOL    HW112392   6.801   2.697   2.638 -1.5028  1.0459 -0.2211
 3831SOL    HW212393   6.702   2.618   2.741 -0.9833 -1.1129 -1.3211
 3832SOL     OW12394   3.216   4.920   2.987 -0.1871  0.2348  0.2916
 3832SOL    HW112395   3.181   4.893   2.897 -1.5157  0.0236  0.8526
 3832SOL    HW212396   3.314   4.941   2.980 -0.0021 -0.9243 -0.9550
 3833SOL     OW12397   6.004   1.790   5.489 -0.3248 -0.9271 -0.5637
 3833SOL    HW112398   6.007   1.859   5.417 -0.1448  0.4483  0.7100
 3833SOL    HW212399   6.096   1.770   5.520 -0.3886 -1.6489 -0.8276
 3834SOL     OW12400   6.013   1.589   3.818 -0.3626 -0.0072  0.0124
 3834SOL    HW112401   6.062   1.520   3.871  0.5337  0.0863 -0.6711
 3834SOL    HW212402   6.020   1.677   3.864 -0.8857 -0.2170  0.5088
 3835SOL     OW12403   4.199   4.992   0.410 -0.3661  0.9532  0.0866
 3835SOL    HW112404   4.179   4.895   0.399 -3.4164  1.6611 -2.0658
 3835SOL    HW212405   4.143   5.029   0.484 -0.1322  1.2798  0.1018
 3836SOL     OW12406   2.907   3.703   1.523  0.6726  0.2637  0.1491
 3836SOL    HW112407   2.917   3.608   1.553  2.7765 -0.3193 -2.1364
 3836SOL    HW212408   2.836   3.709   1.453  1.8794 -0.0011 -1.1138
 3837SOL     OW12409   3.675   5.426   5.678  0.2352 -0.4461 -0.2651
 3837SOL    HW112410   3.749   5.482   5.639  0.0629  0.5182  0.7363
 3837SOL    HW212411   3.639   5.471   5.760 -0.3220 -1.7515  0.2342
 3838SOL     OW12412   5.664   2.540   6.866 -0.2402  0.1594 -0.1074
 3838SOL    HW112413   5.723   2.590   6.928 -0.3919  0.7464 -0.4260
 3838SOL    HW212414   5.630   2.602   6.795 -0.9947 -0.2313 -0.1008
 3839SOL     OW12415   2.968   3.846   3.098 -0.0389  0.4921  0.4470
 3839SOL    HW112416   3.013   3.924   3.141 -1.9340  1.6280  0.5125
 3839SOL    HW212417   2.941   3.870   3.005 -1.8132  0.4445  0.9019
 3840SOL     OW12418   6.253   6.398   4.079 -0.5274  0.4939 -0.3103
 3840SOL    HW112419   6.183   6.468   4.084  0.6973  1.9053 -1.7651
 3840SOL    HW212420   6.210   6.308   4.071 -2.1206  1.0817  1.1627
 3841SOL     OW12421   4.610   3.288   1.574 -0.1791 -0.4037  0.3989
 3841SOL    HW112422   4.554   3.216   1.615 -0.0691 -0.0838  1.1399
 3841SOL    HW212423   4.696   3.297   1.625 -0.6092  0.8893  0.9535
 3842SOL     OW12424   0.606   1.367   6.167  0.1243  0.2447 -0.0054
 3842SOL    HW112425   0.604   1.343   6.070  0.8527 -0.5614  0.1656
 3842SOL    HW212426   0.563   1.456   6.180 -0.2811  0.2131 -1.0220
 3843SOL     OW12427   5.265   3.698   0.523  0.0844  0.5738 -0.0865
 3843SOL    HW112428   5.304   3.692   0.431 -0.4067 -0.4609 -0.2512
 3843SOL    HW212429   5.165   3.707   0.516  0.1513  1.8439  0.3436
 3844SOL     OW12430   3.668   5.472   2.800  0.7006 -0.1920  0.4785
 3844SOL    HW112431   3.758   5.478   2.759 -0.1622 -1.4125 -1.7360
 3844SOL    HW212432   3.607   5.540   2.758  0.6646  1.0131  2.3440
 3845SOL     OW12433   2.150   3.017   5.138 -0.6174 -0.8707  0.4413
 3845SOL    HW112434   2.156   2.985   5.233  1.4206  0.6475  0.9225
 3845SOL    HW212435   2.236   2.995   5.091 -1.8792 -2.2621 -1.3340
 3846SOL     OW12436   3.427   5.981   5.890  0.1114 -0.4550  0.4898
 3846SOL    HW112437   3.353   5.935   5.840  0.1611 -1.7803  1.5905
 3846SOL    HW212438   3.499   5.915   5.912  1.3569  0.6793 -0.0044
 3847SOL     OW12439   6.682   3.367   4.454  0.2875  0.6259  0.3455
 3847SOL    HW112440   6.633   3.358   4.540 -0.5177 -2.1384 -0.3108
 3847SOL    HW212441   6.686   3.279   4.408  0.6914  1.9895 -2.4711
 3848SOL     OW12442   2.774   6.873   3.002 -0.1426  0.8231 -0.3601
 3848SOL    HW112443   2.727   6.946   2.952 -0.5769 -0.7893 -2.4488
 3848SOL    HW212444   2.855   6.845   2.950  0.6352  0.5482  0.9715
 3849SOL     OW12445   0.588   6.388   2.138  0.3277  0.4862 -0.2823
 3849SOL    HW112446   0.559   6.346   2.052  1.0175 -0.1805 -0.2059
 3849SOL    HW212447   0.658   6.330   2.181 -0.2379  0.6371  0.8858
 3850SOL     OW12448   5.794   1.789   1.162  0.2750  0.6182  0.1437
 3850SOL    HW112449   5.774   1.859   1.094  0.6621  0.5118 -0.0838
 3850SOL    HW212450   5.881   1.810   1.208  0.9751 -0.2910 -0.7144
 3851SOL     OW12451   4.541   0.885   1.477  0.1490 -0.4516 -0.4751
 3851SOL    HW112452   4.609   0.947   1.516 -0.8290  0.5156 -0.2459
 3851SOL    HW212453   4.530   0.904   1.380  0.2811 -0.6803 -0.5353
 3852SOL     OW12454   4.408   3.002   6.238  0.0972  0.5624 -0.0330
 3852SOL    HW112455   4.399   3.044   6.148  1.2387  0.9729  0.0260
 3852SOL    HW212456   4.342   3.043   6.301  0.4930  1.5465 -0.2440
 3853SOL     OW12457   6.707   5.378   1.862 -0.1520  0.3378  0.4172
 3853SOL    HW112458   6.660   5.450   1.913  0.0348  1.9652 -1.5661
 3853SOL    HW212459   6.668   5.371   1.770  2.7481  1.1881 -1.0469
 3854SOL     OW12460   0.258   1.726   6.578  0.6085 -0.4336 -0.1609
 3854SOL    HW112461   0.261   1.626   6.586  0.4213 -0.3932  0.4688
 3854SOL    HW212462   0.341   1.765   6.619 -0.6145 -0.1921  2.2688
 3855SOL     OW12463   5.715   5.226   3.705  0.0468 -0.2016 -0.2016
 3855SOL    HW112464   5.698   5.302   3.643  0.5542  0.0069 -0.0875
 3855SOL    HW212465   5.814   5.210   3.712  0.0641  0.5028  1.4220
 3856SOL     OW12466   4.754   4.755   4.222  0.3694  0.1114  0.0992
 3856SOL    HW112467   4.749   4.797   4.313 -0.5463  1.7937 -0.6915
 3856SOL    HW212468   4.849   4.740   4.198  0.6363 -0.2121  1.2627
 3857SOL     OW12469   4.177   3.506   4.599  0.4176 -0.4947  0.3148
 3857SOL    HW112470   4.125   3.422   4.614  0.7455 -0.7839 -0.1208
 3857SOL    HW212471   4.160   3.539   4.506 -0.5470  0.5226  0.8355
 3858SOL     OW12472   4.513   6.777   2.215  0.1889  0.1337  0.1072
 3858SOL    HW112473   4.491   6.753   2.310 -1.5379 -0.3796 -0.3810
 3858SOL    HW212474   4.564   6.863   2.213 -1.0341  0.9254  1.4212
 3859SOL     OW12475   3.235   2.843   0.119 -0.2476 -0.2205  0.2243
 3859SOL    HW112476   3.152   2.787   0.120 -1.3550  1.2829 -0.9033
 3859SOL    HW212477   3.264   2.864   0.212 -1.3391 -0.5048  0.6347
 3860SOL     OW12478   1.960   0.903   3.352 -0.0715 -0.3560 -0.6268
 3860SOL    HW112479   1.905   0.836   3.403 -0.6052  0.5113 -0.0182
 3860SOL    HW212480   2.052   0.907   3.391 -0.6461  0.7354  0.7524
 3861SOL     OW12481   4.534   6.404   0.170 -0.5885  0.1342  0.1433
 3861SOL    HW112482   4.589   6.357   0.239 -0.0231 -0.3369 -0.6025
 3861SOL    HW212483   4.579   6.396   0.081 -2.0952 -0.6826 -0.5903
 3862SOL     OW12484   4.056   3.796   4.922  0.0947 -0.3054 -0.6267
 3862SOL    HW112485   4.018   3.795   4.829 -0.3393 -0.7782 -0.4501
 3862SOL    HW212486   4.069   3.890   4.952 -0.5920 -0.1410 -0.8326
 3863SOL     OW12487   6.574   2.320   5.997  0.4271  0.9165 -0.5559
 3863SOL    HW112488   6.631   2.249   6.038 -0.4458  0.6674  0.2604
 3863SOL    HW212489   6.572   2.308   5.898  1.1765  0.4736 -0.5185
 3864SOL     OW12490   1.091   3.466   0.230 -0.5516 -0.5369 -0.1717
 3864SOL    HW112491   1.043   3.500   0.311 -1.1853 -3.6753  0.9186
 3864SOL    HW212492   1.061   3.373   0.210  2.0477 -1.0952 -2.0226
 3865SOL     OW12493   6.910   4.803   1.939 -0.0799  0.2901 -0.0034
 3865SOL    HW112494   6.843   4.875   1.960 -0.6584  0.0660 -1.0087
 3865SOL    HW212495   7.002   4.838   1.957 -0.3823  1.1167  0.0043
 3866SOL     OW12496   3.803   6.094   2.024  0.4110 -0.0812 -0.3716
 3866SOL    HW112497   3.800   6.166   1.955  2.3741 -1.2626 -1.7989
 3866SOL    HW212498   3.716   6.090   2.072 -0.2131  2.3102 -1.1720
 3867SOL     OW12499   2.476   5.009   5.454 -0.5608 -1.0968  0.7334
 3867SOL    HW112500   2.436   5.041   5.368  0.8528 -2.1730 -0.3572
 3867SOL    HW212501   2.575   5.016   5.450 -0.4573 -1.3328  2.2259
 3868SOL     OW12502   2.425   2.009   5.893  0.0284 -0.6735 -0.3659
 3868SOL    HW112503   2.451   1.987   5.799  0.7955 -1.8970  0.1114
 3868SOL    HW212504   2.500   2.057   5.939 -0.6694  0.7174 -0.6095
 3869SOL     OW12505   1.428   2.239   6.523  0.1647  0.0078  0.3502
 3869SOL    HW112506   1.402   2.296   6.601 -0.6925 -0.2478  0.2668
 3869SOL    HW212507   1.425   2.142   6.550 -1.1461 -0.1381 -0.2667
 3870SOL     OW12508   3.728   6.037   0.321  0.4706  0.0748 -0.2439
 3870SOL    HW112509   3.637   6.049   0.283 -0.0114 -0.6682  0.6537
 3870SOL    HW212510   3.775   5.962   0.274  0.3809  0.0403 -0.2782
 3871SOL     OW12511   4.582   1.824   2.001  0.4739  0.9172  1.3248
 3871SOL    HW112512   4.536   1.855   2.084 -0.1376 -0.4830  1.5394
 3871SOL    HW212513   4.606   1.903   1.944 -0.4846  1.7888  2.0976
 3872SOL     OW12514   3.798   0.235   4.797 -0.1292  0.0228 -0.3689
 3872SOL    HW112515   3.790   0.289   4.713  0.9732  0.6694 -0.0890
 3872SOL    HW212516   3.864   0.161   4.782 -0.7531 -0.5373 -0.3929
 3873SOL     OW12517   2.034   7.001   0.844  0.3140 -0.2892  0.4621
 3873SOL    HW112518   1.959   6.976   0.906 -0.6848 -0.3968 -0.7620
 3873SOL    HW212519   2.046   7.100   0.846 -1.4278 -0.0039 -1.0405
 3874SOL     OW12520   5.330   3.171   1.312 -0.1828  0.2702 -0.2903
 3874SOL    HW112521   5.264   3.151   1.384  1.4611  0.1683  1.2912
 3874SOL    HW212522   5.317   3.108   1.236 -0.5877 -1.1459  0.8900
 3875SOL     OW12523   0.770   6.512   4.506 -0.1506 -0.4194  0.7537
 3875SOL    HW112524   0.847   6.544   4.451 -1.4134 -1.2345 -1.6673
 3875SOL    HW212525   0.721   6.591   4.544  1.0774  0.1444  1.2170
 3876SOL     OW12526   3.822   6.574   1.603 -0.0153  0.0928 -0.1945
 3876SOL    HW112527   3.902   6.525   1.638  1.4362  2.2106 -0.3249
 3876SOL    HW212528   3.780   6.626   1.677  0.2482  0.9172 -0.6065
 3877SOL     OW12529   2.752   4.702   4.164 -0.2325 -0.2453  0.9143
 3877SOL    HW112530   2.764   4.676   4.259 -0.3366  0.9152  1.2666
 3877SOL    HW212531   2.835   4.749   4.132 -0.3799 -0.2000  0.5900
 3878SOL     OW12532   3.998   2.253   1.815 -0.3704 -0.0996 -0.7425
 3878SOL    HW112533   3.917   2.307   1.838  0.9691  2.0007 -0.6768
 3878SOL    HW212534   3.999   2.170   1.871 -2.0025  0.2688 -0.0999
 3879SOL     OW12535   1.259   2.957   6.303  0.0063 -0.1736 -0.0802
 3879SOL    HW112536   1.299   3.048   6.293  0.2361 -0.3576 -0.8969
 3879SOL    HW212537   1.296   2.896   6.233  0.7918 -1.2440  1.2156
 3880SOL     OW12538   3.089   4.529   1.403  0.2074  0.2301  0.1075
 3880SOL    HW112539   3.108   4.432   1.419  2.5646  0.7384  0.7738
 3880SOL    HW212540   3.100   4.549   1.306  0.7837  0.0152  0.1216
 3881SOL     OW12541   5.572   6.280   1.873  0.0856 -0.3543 -0.5758
 3881SOL    HW112542   5.669   6.257   1.877  0.4345  0.8708 -1.2469
 3881SOL    HW212543   5.552   6.353   1.939  0.0905  0.8556 -1.8700
 3882SOL     OW12544   5.682   0.463   6.496  0.3807 -0.0066  0.0446
 3882SOL    HW112545   5.600   0.452   6.439  0.2879  1.5861 -0.1839
 3882SOL    HW212546   5.762   0.476   6.437  0.6892 -0.8596  0.2720
 3883SOL     OW12547   1.264   3.465   3.340 -0.2303 -0.4639 -0.0495
 3883SOL    HW112548   1.363   3.456   3.346 -0.3618 -1.6760  0.4822
 3883SOL    HW212549   1.225   3.382   3.300 -0.8925  0.7504 -2.1206
 3884SOL     OW12550   2.271   0.736   6.543 -0.3917  0.3337  0.3796
 3884SOL    HW112551   2.322   0.687   6.613  0.8642  1.7888  0.5392
 3884SOL    HW212552   2.203   0.675   6.502  1.6342 -1.7861 -0.0063
 3885SOL     OW12553   6.380   0.601   4.638 -0.9346 -0.3113  0.1667
 3885SOL    HW112554   6.340   0.661   4.708 -0.8183 -1.5409  1.3310
 3885SOL    HW212555   6.338   0.621   4.549 -0.3576  1.9961  0.3499
 3886SOL     OW12556   0.928   3.465   3.977  0.4989 -0.6312  0.1048
 3886SOL    HW112557   0.874   3.504   4.052 -0.3241  0.1041 -0.8305
 3886SOL    HW212558   0.948   3.536   3.910  1.8548 -1.1164 -0.0298
 3887SOL     OW12559   5.185   6.856   5.556  0.2525 -0.1289  0.2129
 3887SOL    HW112560   5.156   6.764   5.582 -2.0225  0.4702  0.0084
 3887SOL    HW212561   5.150   6.922   5.622  1.1105  0.6913 -0.1230
 3888SOL     OW12562   2.213   4.127   2.808  0.2938 -0.2838  0.1830
 3888SOL    HW112563   2.285   4.144   2.877 -0.6448  1.1186  0.8753
 3888SOL    HW212564   2.170   4.214   2.784 -0.2876 -0.9351 -1.2243
 3889SOL     OW12565   6.593   6.198   0.902 -0.3460  0.6779 -0.4266
 3889SOL    HW112566   6.498   6.195   0.935  0.6078 -1.2820  2.5475
 3889SOL    HW212567   6.639   6.279   0.939 -0.0323 -0.0795  0.9106
 3890SOL     OW12568   1.078   4.793   1.459  1.0374  0.3774 -0.3945
 3890SOL    HW112569   1.104   4.758   1.549  1.2937  1.1306 -0.1757
 3890SOL    HW212570   1.057   4.890   1.464  0.1448  0.2324 -0.9749
 3891SOL     OW12571   6.876   3.738   6.125 -0.0597 -0.4848 -0.0715
 3891SOL    HW112572   6.833   3.744   6.035  0.2697 -0.1496 -0.2076
 3891SOL    HW212573   6.811   3.765   6.195 -0.3839 -0.9488 -0.1898
 3892SOL     OW12574   5.043   1.525   6.322 -0.1710  0.3218  0.5205
 3892SOL    HW112575   5.116   1.546   6.387  0.4040  1.1402 -0.3458
 3892SOL    HW212576   5.052   1.430   6.291 -0.8728 -0.2935  2.1313
 3893SOL     OW12577   1.825   5.457   1.775 -0.5072  0.5373  0.0411
 3893SOL    HW112578   1.802   5.555   1.774 -0.9104  0.4411 -0.8932
 3893SOL    HW212579   1.852   5.429   1.683  2.4872  0.4318  0.8537
 3894SOL     OW12580   4.377   4.014   0.531 -0.1561 -0.2317  0.5090
 3894SOL    HW112581   4.278   4.012   0.540 -0.2422  0.0937 -0.2994
 3894SOL    HW212582   4.419   4.021   0.622 -0.9391  1.8199  0.7624
 3895SOL     OW12583   6.117   1.608   1.296 -0.4387  0.0292  0.2948
 3895SOL    HW112584   6.092   1.688   1.350 -0.9403  0.6060 -0.7715
 3895SOL    HW212585   6.076   1.526   1.337 -1.1544  0.5085  0.5477
 3896SOL     OW12586   1.941   4.041   5.142 -0.7016  0.4400 -0.0760
 3896SOL    HW112587   1.848   4.006   5.142 -0.6450  0.2341  1.2990
 3896SOL    HW212588   1.939   4.141   5.139 -1.0138  0.4786  1.0445
 3897SOL     OW12589   0.314   4.060   4.711  0.2916 -0.4916 -0.4142
 3897SOL    HW112590   0.315   3.960   4.706 -2.3999 -0.5691 -0.9978
 3897SOL    HW212591   0.284   4.088   4.803 -2.7740 -0.4093 -1.3261
 3898SOL     OW12592   4.375   2.792   1.263 -0.3399 -0.5475 -0.1388
 3898SOL    HW112593   4.278   2.782   1.244 -0.6144  0.9353  0.3046
 3898SOL    HW212594   4.388   2.824   1.357  0.4042  1.4305 -0.8482
 3899SOL     OW12595   1.237   5.896   2.065  0.0206  0.1559  1.0547
 3899SOL    HW112596   1.248   5.799   2.088 -3.0261 -0.4168  0.5183
 3899SOL    HW212597   1.251   5.909   1.967  0.2307  0.2238  1.0934
 3900SOL     OW12598   6.781   3.617   1.482  0.2331  0.1963  0.1401
 3900SOL    HW112599   6.691   3.661   1.490 -0.2004 -0.3847 -1.2810
 3900SOL    HW212600   6.805   3.576   1.570 -0.6475  0.7963  0.6860
 3901SOL     OW12601   5.778   1.515   1.304  0.2581  0.6631 -0.1167
 3901SOL    HW112602   5.769   1.548   1.210 -0.3272 -0.5425 -0.5054
 3901SOL    HW212603   5.738   1.582   1.367 -3.4851 -0.4383 -1.0914
 3902SOL     OW12604   5.791   6.310   2.279 -0.1753 -0.0934  0.3299
 3902SOL    HW112605   5.731   6.387   2.302  0.5175  0.9687 -1.1993
 3902SOL    HW212606   5.736   6.233   2.248 -0.8126  0.8399 -0.9809
 3903SOL     OW12607   3.464   3.531   6.914  0.4086  0.6952  0.0469
 3903SOL    HW112608   3.446   3.493   7.005 -0.1852  1.9109  0.4611
 3903SOL    HW212609   3.402   3.608   6.897  0.1907  0.2090 -1.5796
 3904SOL     OW12610   2.791   2.193   6.243  0.7906  0.0645  0.5396
 3904SOL    HW112611   2.885   2.169   6.266  0.4917  0.8305  2.8316
 3904SOL    HW212612   2.786   2.289   6.217  0.4530  0.4932  2.0701
 3905SOL     OW12613   1.750   2.294   6.840  0.2883 -0.1804  0.1124
 3905SOL    HW112614   1.819   2.253   6.901 -0.3093 -0.8731  0.3362
 3905SOL    HW212615   1.791   2.371   6.790  0.6782  0.6919  1.7051
 3906SOL     OW12616   2.707   3.443   0.707 -0.5138  0.1626 -0.7496
 3906SOL    HW112617   2.788   3.392   0.736 -0.2526 -0.5667 -2.6307
 3906SOL    HW212618   2.730   3.540   0.699  0.3448 -0.1076 -1.7652
 3907SOL     OW12619   5.600   3.516   5.757  0.5162 -0.2520  0.3148
 3907SOL    HW112620   5.618   3.442   5.821  0.5882 -0.4759  0.0402
 3907SOL    HW212621   5.534   3.485   5.688  1.2019 -0.3551 -0.3081
 3908SOL     OW12622   4.715   2.032   1.863 -0.4724 -0.0828  0.2089
 3908SOL    HW112623   4.780   2.019   1.938  0.4948 -1.7679 -0.8359
 3908SOL    HW212624   4.742   2.112   1.809  1.4215 -1.3173 -0.7887
 3909SOL     OW12625   6.078   0.803   0.288  0.0169 -0.0214 -0.2102
 3909SOL    HW112626   6.074   0.821   0.386  1.6280 -0.3151 -0.0621
 3909SOL    HW212627   6.010   0.734   0.263  0.5294 -0.9840  0.9567
 3910SOL     OW12628   5.864   6.478   1.636 -0.3139 -0.4623  0.6226
 3910SOL    HW112629   5.921   6.424   1.698 -0.4287  0.9666  2.0633
 3910SOL    HW212630   5.781   6.428   1.614  1.0714 -2.2586 -0.8871
 3911SOL     OW12631   1.633   4.101   2.661 -0.5372 -0.1544  0.5146
 3911SOL    HW112632   1.715   4.104   2.718 -0.3625  1.1568  0.2132
 3911SOL    HW212633   1.652   4.046   2.579 -0.3248 -0.7927  0.9837
 3912SOL     OW12634   2.837   5.992   4.152  0.2797  0.1591 -0.8669
 3912SOL    HW112635   2.788   5.931   4.091 -0.3047  1.0991 -1.3701
 3912SOL    HW212636   2.875   5.940   4.229  0.5307 -0.9399 -1.7219
 3913SOL     OW12637   3.773   5.628   1.018 -0.1261 -0.1196 -0.1250
 3913SOL    HW112638   3.681   5.666   1.021 -0.0362  0.2430 -1.2237
 3913SOL    HW212639   3.839   5.701   1.037 -0.0189 -0.0713 -0.6592
 3914SOL     OW12640   4.016   3.251   4.957 -0.6106 -0.2941 -0.5682
 3914SOL    HW112641   4.101   3.232   4.909 -0.7868  2.4103 -2.1836
 3914SOL    HW212642   4.036   3.290   5.047 -0.0226  1.6228 -1.4811
 3915SOL     OW12643   3.509   4.921   3.584 -0.2610 -0.3964 -0.5102
 3915SOL    HW112644   3.580   4.879   3.528 -0.6436  1.8470 -2.8491
 3915SOL    HW212645   3.541   4.928   3.679  1.4420 -2.0256 -0.9148
 3916SOL     OW12646   5.540   0.597   3.892 -0.2562  0.1732  0.1586
 3916SOL    HW112647   5.605   0.627   3.822 -0.7886  0.8816 -0.0477
 3916SOL    HW212648   5.516   0.676   3.949 -1.0555 -0.0469  0.1294
 3917SOL     OW12649   6.863   1.610   6.851 -0.1446  0.3372  0.5010
 3917SOL    HW112650   6.766   1.591   6.868 -0.3140  0.9712  0.2692
 3917SOL    HW212651   6.877   1.709   6.847 -0.0444  0.2775 -2.5780
 3918SOL     OW12652   6.818   6.279   1.187  0.3136 -0.3325 -0.0070
 3918SOL    HW112653   6.793   6.329   1.104  0.2341 -0.9224 -0.3420
 3918SOL    HW212654   6.817   6.181   1.168  2.4350 -0.4265  0.0719
 3919SOL     OW12655   0.141   0.009   2.311  0.1040  0.0562  0.5360
 3919SOL    HW112656   0.055   0.060   2.318 -1.4662 -1.9519 -1.9481
 3919SOL    HW212657   0.162  -0.007   2.214  2.2955 -1.1336  1.1423
 3920SOL     OW12658   5.930   5.926   5.522  0.1701  0.2110  0.1988
 3920SOL    HW112659   5.864   5.941   5.448 -0.0473 -1.9892 -0.1184
 3920SOL    HW212660   6.022   5.951   5.490 -0.0594  0.2401 -0.4603
 3921SOL     OW12661   3.945   2.553   1.271  0.0343 -0.5362  0.1483
 3921SOL    HW112662   3.881   2.585   1.341  1.8323 -0.1271  1.6989
 3921SOL    HW212663   3.940   2.453   1.265  0.0988 -0.6114  1.1425
 3922SOL     OW12664   1.002   5.477   5.933 -0.2835 -0.0168 -0.5935
 3922SOL    HW112665   0.941   5.482   6.012  0.3320 -0.7532 -0.0605
 3922SOL    HW212666   1.000   5.565   5.885 -1.8281 -0.0542 -0.6562
 3923SOL     OW12667   1.606   6.118   2.817  0.0890 -0.0810  0.6835
 3923SOL    HW112668   1.526   6.162   2.859  0.5697  0.3341  1.1838
 3923SOL    HW212669   1.689   6.147   2.865  0.8917  1.8449 -1.6084
 3924SOL     OW12670   3.925   4.261   5.465 -0.7690  0.2206  0.2331
 3924SOL    HW112671   3.928   4.250   5.565  0.2694 -0.4939  0.1345
 3924SOL    HW212672   3.897   4.355   5.443 -1.0836  0.3647  1.1916
 3925SOL     OW12673   5.934   5.535   0.759  0.1240  0.0922  0.4882
 3925SOL    HW112674   5.956   5.616   0.705 -0.3137 -0.0225  0.1422
 3925SOL    HW212675   5.867   5.559   0.829  0.4432  0.1633  0.7742
 3926SOL     OW12676   2.222   0.018   1.606 -0.0476  0.4394 -0.3550
 3926SOL    HW112677   2.265   0.102   1.640  0.7323  0.5893 -1.6743
 3926SOL    HW212678   2.200  -0.041   1.683  0.7759  1.1944  0.4818
 3927SOL     OW12679   3.092   3.180   4.926  0.4394  0.4921  0.2659
 3927SOL    HW112680   3.087   3.235   5.009  2.4085  0.2610  0.5885
 3927SOL    HW212681   3.112   3.085   4.951  0.0286  0.2118 -0.4378
 3928SOL     OW12682   1.611   5.926   5.359  0.0930  0.1400 -0.5494
 3928SOL    HW112683   1.571   5.839   5.331  0.8612 -0.4585  0.1408
 3928SOL    HW212684   1.618   5.987   5.280 -1.3076 -0.0610 -0.8550
 3929SOL     OW12685   2.712   6.558   6.447 -0.0463  0.1965 -0.1362
 3929SOL    HW112686   2.674   6.510   6.368 -1.1001  1.9882 -0.7867
 3929SOL    HW212687   2.789   6.507   6.484 -0.1224 -1.1449 -1.7435
 3930SOL     OW12688   4.622   5.943   4.649  0.7138 -0.4085  0.0380
 3930SOL    HW112689   4.651   5.898   4.733  1.3786  0.3639  0.2340
 3930SOL    HW212690   4.684   6.019   4.628 -0.9951  1.1725  0.3628
 3931SOL     OW12691   0.632   3.608   5.343 -0.0979  0.5021 -0.4739
 3931SOL    HW112692   0.555   3.576   5.287 -1.3722  1.7631  0.5101
 3931SOL    HW212693   0.652   3.541   5.414 -0.7044  0.4736 -0.3317
 3932SOL     OW12694   5.207   6.099   2.328  0.1432 -0.4036  0.0718
 3932SOL    HW112695   5.228   6.150   2.412 -1.7668 -0.7740  0.8207
 3932SOL    HW212696   5.269   6.128   2.255 -0.3764  2.4734  0.6596
 3933SOL     OW12697   0.566   1.811   6.908 -0.6067  0.1516 -0.1317
 3933SOL    HW112698   0.592   1.907   6.892  2.6621 -0.6984 -0.6072
 3933SOL    HW212699   0.505   1.781   6.834  0.6279  1.1029 -1.6071
 3934SOL     OW12700   2.249   6.855   2.229 -0.2269 -1.0738  0.3123
 3934SOL    HW112701   2.243   6.757   2.210  0.5378 -1.1649  0.4784
 3934SOL    HW212702   2.335   6.891   2.191 -0.9009 -0.2870 -0.4909
 3935SOL     OW12703   3.758   5.921   3.815 -0.1048 -0.3452 -0.1968
 3935SOL    HW112704   3.665   5.902   3.782  0.2710 -2.1307 -0.3128
 3935SOL    HW212705   3.822   5.855   3.776  0.9212 -0.3208  1.3403
 3936SOL     OW12706   0.706   0.685   6.049  0.0595 -0.2436 -0.0154
 3936SOL    HW112707   0.744   0.606   6.097 -1.3518 -1.6001 -1.0118
 3936SOL    HW212708   0.615   0.662   6.014  0.2247  1.3286 -1.6506
 3937SOL     OW12709   6.665   3.649   3.775 -0.1770  0.2011 -0.6342
 3937SOL    HW112710   6.741   3.621   3.716 -0.1618 -0.6001 -0.2519
 3937SOL    HW212711   6.701   3.688   3.860 -0.1763 -0.4365 -0.3320
 3938SOL     OW12712   2.175   1.432   3.782  0.5464  0.4158  0.0585
 3938SOL    HW112713   2.125   1.401   3.701 -0.8201  1.7043  0.3747
 3938SOL    HW212714   2.183   1.531   3.780  4.1736  0.2655 -0.5651
 3939SOL     OW12715   1.305   4.617   5.798  0.0481  0.6791 -0.1964
 3939SOL    HW112716   1.336   4.525   5.820  1.5856  0.6896 -2.0919
 3939SOL    HW212717   1.210   4.627   5.825 -0.0024 -1.2811  0.5234
 3940SOL     OW12718   5.483   6.376   4.484 -0.0188  0.3374 -0.4994
 3940SOL    HW112719   5.403   6.400   4.428 -0.2075  0.2420 -0.2734
 3940SOL    HW212720   5.511   6.282   4.464  0.2489  0.4818 -0.8254
 3941SOL     OW12721   1.860   5.403   2.505 -0.3058  0.2320  0.1784
 3941SOL    HW112722   1.923   5.327   2.492  2.0553  1.8496  1.3371
 3941SOL    HW212723   1.785   5.375   2.565  0.8750 -1.0112  1.1178
 3942SOL     OW12724   3.186   6.951   3.899  0.0106 -0.9032 -0.8341
 3942SOL    HW112725   3.117   6.929   3.967  1.0683  1.3573  1.1109
 3942SOL    HW212726   3.151   7.022   3.837  0.6095  0.5097  0.3771
 3943SOL     OW12727   4.791   0.358   2.444 -0.1236  0.4207 -0.1867
 3943SOL    HW112728   4.843   0.399   2.518  1.1567 -1.0051 -0.2534
 3943SOL    HW212729   4.725   0.425   2.409  0.7426  1.8353  0.7744
 3944SOL     OW12730   1.013   0.361   5.975  0.2064  0.0518 -0.1310
 3944SOL    HW112731   1.077   0.331   6.046  0.1622  0.0499 -0.0917
 3944SOL    HW212732   1.057   0.430   5.918  0.5083 -0.5114 -0.5866
 3945SOL     OW12733   6.213   5.409   0.847 -0.5967  0.1310  0.3155
 3945SOL    HW112734   6.199   5.310   0.849  0.4735 -0.0733 -0.8083
 3945SOL    HW212735   6.131   5.453   0.809 -0.4647 -0.4910 -0.7523
 3946SOL     OW12736   5.505   1.045   0.076 -1.3224 -0.1168  0.1626
 3946SOL    HW112737   5.424   0.999   0.042 -3.1928  0.9096  2.8653
 3946SOL    HW212738   5.500   1.052   0.176  3.0866 -1.7555  0.7143
 3947SOL     OW12739   5.338   1.588   0.998  0.3670 -0.0258 -0.1161
 3947SOL    HW112740   5.432   1.565   1.021 -0.0160 -0.6718  0.8382
 3947SOL    HW212741   5.337   1.643   0.915  1.5872  0.0329 -0.1082
 3948SOL     OW12742   4.702   1.648   0.183 -0.0843  0.2614  0.6106
 3948SOL    HW112743   4.771   1.673   0.252  1.6262 -0.8417 -0.6186
 3948SOL    HW212744   4.612   1.643   0.227  0.7603  0.6803  2.5222
 3949SOL     OW12745   3.934   4.640   6.612  0.0802  0.0027  0.1297
 3949SOL    HW112746   3.843   4.599   6.613  0.0368  0.0991  0.2120
 3949SOL    HW212747   4.003   4.568   6.609 -0.0114 -0.0587 -0.7179
 3950SOL     OW12748   4.537   3.026   6.528 -0.0518  0.0292 -0.6212
 3950SOL    HW112749   4.575   3.050   6.439  0.6041  1.6583  0.0582
 3950SOL    HW212750   4.437   3.033   6.525  0.0170  0.9751 -0.9984
 3951SOL     OW12751   3.399   3.253   6.571  0.6052 -0.3505  0.1400
 3951SOL    HW112752   3.463   3.182   6.599  0.3795 -0.0965  1.3551
 3951SOL    HW212753   3.433   3.342   6.601 -0.0807 -0.1678  0.3983
 3952SOL     OW12754   2.749   6.540   4.343 -0.4768  0.2146 -0.5345
 3952SOL    HW112755   2.813   6.490   4.285  0.7985  1.4434 -0.2377
 3952SOL    HW212756   2.776   6.530   4.439 -2.0261 -1.0307 -0.1749
 3953SOL     OW12757   4.080   3.557   4.341 -0.2319  0.1761  0.5817
 3953SOL    HW112758   4.062   3.653   4.316 -1.0918 -0.2821 -0.6563
 3953SOL    HW212759   4.077   3.500   4.258 -3.1637 -1.4228  1.6408
 3954SOL     OW12760   3.591   2.153   7.000  0.3371 -0.4422 -0.3835
 3954SOL    HW112761   3.548   2.207   6.928 -0.5286 -1.3282 -0.5463
 3954SOL    HW212762   3.520   2.119   7.062  1.0567  0.2096  0.8281
 3955SOL     OW12763   3.715   2.069   4.347  0.4214  0.8156 -0.5313
 3955SOL    HW112764   3.682   2.084   4.440  0.1717  1.9989 -0.7965
 3955SOL    HW212765   3.644   2.022   4.294 -0.8911  3.2547 -1.0743
 3956SOL     OW12766   3.741   3.321   3.705  0.0813  0.1001  0.4863
 3956SOL    HW112767   3.737   3.398   3.640 -1.3557  0.9080  1.4728
 3956SOL    HW212768   3.827   3.325   3.756 -0.0402  1.1643  0.6334
 3957SOL     OW12769   6.668   4.947   5.839 -0.2120 -0.7160  0.2881
 3957SOL    HW112770   6.671   5.047   5.845 -3.3977 -0.3508 -1.7166
 3957SOL    HW212771   6.577   4.915   5.864  1.1012 -3.3383  2.1646
 3958SOL     OW12772   6.017   3.166   3.306  0.6504 -0.1115  0.9795
 3958SOL    HW112773   5.930   3.204   3.277  0.8725  0.3287  0.8791
 3958SOL    HW212774   6.018   3.152   3.405  0.7322  0.5811  1.0807
 3959SOL     OW12775   4.167   1.427   4.892  0.3817  0.4044 -0.3472
 3959SOL    HW112776   4.255   1.428   4.940  0.0306  1.5938  0.3096
 3959SOL    HW212777   4.126   1.518   4.897 -1.3042 -0.3469  0.1060
 3960SOL     OW12778   0.197   0.009   2.035 -0.5694  0.3969  0.2828
 3960SOL    HW112779   0.173  -0.087   2.052 -0.2589  0.2405 -0.1523
 3960SOL    HW212780   0.290   0.014   2.000 -0.1911  0.9474  1.3230
 3961SOL     OW12781   2.913   6.396   4.163  0.0721  0.3181 -0.5725
 3961SOL    HW112782   2.903   6.310   4.212 -0.4852  0.8690  0.3226
 3961SOL    HW212783   3.010   6.417   4.151  0.2334 -1.0172 -1.8972
 3962SOL     OW12784   1.247   3.844   0.778  0.1686  0.4491  0.4363
 3962SOL    HW112785   1.329   3.801   0.741 -1.1783 -1.4227 -0.5018
 3962SOL    HW212786   1.201   3.896   0.707 -2.6747 -3.5310 -1.0088
 3963SOL     OW12787   3.668   0.253   2.594  0.3813  0.1488 -0.3868
 3963SOL    HW112788   3.730   0.329   2.613  0.8408  0.2330 -2.0816
 3963SOL    HW212789   3.720   0.175   2.560 -0.2032 -0.5587  0.3126
 3964SOL     OW12790   6.101   0.087   6.134  0.1205  0.1863  0.0438
 3964SOL    HW112791   6.165   0.150   6.090  0.1471  0.1731  0.0635
 3964SOL    HW212792   6.065   0.024   6.065 -0.7593  0.9291 -0.1942
 3965SOL     OW12793   4.269   4.631   0.897 -0.8869 -0.4055  0.0581
 3965SOL    HW112794   4.243   4.613   0.992  1.6929 -2.6052  0.4462
 3965SOL    HW212795   4.253   4.549   0.842  2.4147 -1.0048 -0.2102
 3966SOL     OW12796   2.895   3.659   3.897  0.0637  0.8143  0.4337
 3966SOL    HW112797   2.986   3.629   3.868 -0.3293 -0.0408  0.0469
 3966SOL    HW212798   2.881   3.754   3.869  0.4087  0.5951 -0.5435
 3967SOL     OW12799   0.153   0.788   1.274  0.2966 -0.1486  0.0865
 3967SOL    HW112800   0.149   0.701   1.324  2.4645 -0.2737  0.1680
 3967SOL    HW212801   0.175   0.862   1.338  0.2492  0.1502 -0.2408
 3968SOL     OW12802   6.046   2.828   4.134  0.9075 -0.1508  0.4043
 3968SOL    HW112803   5.954   2.831   4.096  0.8473 -0.5100  0.5136
 3968SOL    HW212804   6.061   2.908   4.193  0.7852  0.0788  0.1262
 3969SOL     OW12805   2.208   2.785   3.124 -0.2594  0.7779 -0.0800
 3969SOL    HW112806   2.218   2.871   3.174  0.2324  0.2880  0.6768
 3969SOL    HW212807   2.243   2.796   3.031 -0.2656  1.4108 -0.0108
 3970SOL     OW12808   0.217   6.328   4.543 -0.5921  0.0023  0.0996
 3970SOL    HW112809   0.177   6.419   4.551  1.0921  0.7423  0.5501
 3970SOL    HW212810   0.220   6.301   4.447  1.0547  1.4741 -0.3059
 3971SOL     OW12811   5.328   0.140   6.895  0.6178 -0.5810  0.3789
 3971SOL    HW112812   5.384   0.170   6.972 -0.3156  0.4567  0.6759
 3971SOL    HW212813   5.329   0.040   6.890  0.4864 -0.6785  1.8889
 3972SOL     OW12814   2.559   0.520   0.774  0.4888 -0.1230 -0.1748
 3972SOL    HW112815   2.588   0.559   0.861  1.7855  1.0805 -1.1112
 3972SOL    HW212816   2.484   0.455   0.790  0.2796  0.5336  1.7476
 3973SOL     OW12817   6.624   4.830   0.777  0.1625  0.6152  0.3011
 3973SOL    HW112818   6.529   4.859   0.764 -0.3157 -1.1805 -0.3995
 3973SOL    HW212819   6.682   4.911   0.787 -1.3316  1.7594  0.0490
 3974SOL     OW12820   0.682   4.707   0.808  0.0741 -0.7584  0.3394
 3974SOL    HW112821   0.622   4.638   0.769 -0.1109 -0.8304  0.7542
 3974SOL    HW212822   0.658   4.797   0.771  1.0769 -1.0559 -1.1128
 3975SOL     OW12823   3.137   1.931   3.505  0.0331 -0.2314 -0.0384
 3975SOL    HW112824   3.162   1.880   3.423 -0.7869 -0.7526  0.0267
 3975SOL    HW212825   3.038   1.947   3.506  0.1866  0.8256  0.2525
 3976SOL     OW12826   6.417   0.078   3.509 -0.1776 -0.0337 -1.1747
 3976SOL    HW112827   6.446   0.145   3.441 -0.4302  0.0487 -1.2025
 3976SOL    HW212828   6.335   0.111   3.556  0.2706  0.1284 -0.4941
 3977SOL     OW12829   4.835   1.407   3.250 -0.0442 -0.1220  0.7143
 3977SOL    HW112830   4.796   1.354   3.175 -1.7950  2.3818 -0.2892
 3977SOL    HW212831   4.760   1.440   3.309  0.9618  1.1567  1.3230
 3978SOL     OW12832   3.243   2.772   6.181  0.2387  0.1598  0.1175
 3978SOL    HW112833   3.240   2.860   6.228 -0.0207  0.6083 -0.7154
 3978SOL    HW212834   3.208   2.700   6.241  2.1839  0.2994  1.4868
 3979SOL     OW12835   5.794   4.548   4.142 -0.2117  0.1674 -0.4119
 3979SOL    HW112836   5.848   4.631   4.133  0.8587 -0.2712  1.3731
 3979SOL    HW212837   5.696   4.571   4.141  0.0707  1.6354  1.3473
 3980SOL     OW12838   6.859   6.827   2.990 -0.0133  0.1680 -0.5151
 3980SOL    HW112839   6.796   6.871   2.926  0.7868  2.1105 -0.0532
 3980SOL    HW212840   6.840   6.729   2.994 -1.1280  0.2566 -2.4811
 3981SOL     OW12841   6.485   4.263   5.323 -0.4039 -0.0709 -0.0048
 3981SOL    HW112842   6.424   4.229   5.394 -0.8791  0.1156 -0.3183
 3981SOL    HW212843   6.495   4.193   5.252 -0.8465  0.1730 -0.3162
 3982SOL     OW12844   4.409   0.428   2.224  0.6346 -0.0647 -0.2189
 3982SOL    HW112845   4.316   0.422   2.258  1.1558 -0.9640  1.1315
 3982SOL    HW212846   4.472   0.446   2.300  1.5660  0.6490 -1.1150
 3983SOL     OW12847   0.980   6.058   1.377  0.5500 -0.1035  0.2682
 3983SOL    HW112848   1.006   5.992   1.306 -0.6549 -0.4018  0.0816
 3983SOL    HW212849   0.919   6.126   1.338  1.5859  0.9966  0.5236
 3984SOL     OW12850   4.940   1.076   6.089 -0.0279  0.2657  0.1121
 3984SOL    HW112851   4.929   0.988   6.135  0.2205  0.4923  0.6099
 3984SOL    HW212852   5.007   1.067   6.016  0.7770  0.2817  0.8287
 3985SOL     OW12853   6.206   2.998   1.961  0.1253  0.1933 -0.1039
 3985SOL    HW112854   6.131   3.039   2.012 -0.5999  0.1746 -1.1264
 3985SOL    HW212855   6.292   3.046   1.983 -0.4617  1.3194 -0.1830
 3986SOL     OW12856   3.546   1.864   3.891  0.3271 -0.1747 -0.2391
 3986SOL    HW112857   3.468   1.802   3.888 -0.4959  0.7684  0.7797
 3986SOL    HW212858   3.523   1.949   3.844  0.3187  0.5352  0.9957
 3987SOL     OW12859   0.582   4.183   4.754 -0.0658  0.0491  0.1177
 3987SOL    HW112860   0.638   4.188   4.671  0.1333  1.7001  0.3177
 3987SOL    HW212861   0.495   4.139   4.733 -1.3703  3.1758 -1.8263
 3988SOL     OW12862   3.524   5.532   5.933 -0.0120  0.2682 -0.0613
 3988SOL    HW112863   3.535   5.615   5.987  0.8159  1.5414 -2.0703
 3988SOL    HW212864   3.433   5.532   5.890  0.3196  0.5858 -0.7693
 3989SOL     OW12865   6.833   0.316   3.892  0.2741  0.1859 -0.6374
 3989SOL    HW112866   6.807   0.392   3.951 -2.9913 -0.1952 -1.4007
 3989SOL    HW212867   6.881   0.246   3.945 -1.0095  0.6268  1.1783
 3990SOL     OW12868   1.570   0.335   1.644  0.3620  0.0157  0.0547
 3990SOL    HW112869   1.557   0.317   1.742  0.6563 -0.5583 -0.0078
 3990SOL    HW212870   1.627   0.417   1.632  0.1845  0.1860  0.3587
 3991SOL     OW12871   1.074   3.762   3.575  0.0849 -0.1722 -0.4551
 3991SOL    HW112872   1.131   3.831   3.620 -1.2855  0.0837  1.0008
 3991SOL    HW212873   1.118   3.672   3.583  0.2517 -0.0022  0.7637
 3992SOL     OW12874   7.001   5.365   6.012 -0.0731  0.4168  0.4497
 3992SOL    HW112875   6.991   5.269   6.040 -1.2064  0.6145  0.7717
 3992SOL    HW212876   7.053   5.369   5.927  0.6993 -0.4186  0.8516
 3993SOL     OW12877   2.857   5.178   3.755  0.3512  0.5242  0.4406
 3993SOL    HW112878   2.815   5.165   3.665 -0.7537 -2.8386  1.3115
 3993SOL    HW212879   2.951   5.143   3.753  0.0311 -0.3914  0.7672
 3994SOL     OW12880   5.525   5.938   6.449  0.1120 -0.1108  0.2926
 3994SOL    HW112881   5.589   5.907   6.519 -0.3893 -2.7243 -0.3168
 3994SOL    HW212882   5.482   5.859   6.405 -3.2781  1.4863  0.4138
 3995SOL     OW12883   1.685   4.393   6.621 -0.1879 -0.5281  0.1347
 3995SOL    HW112884   1.704   4.314   6.563  0.1661  0.0646 -0.5768
 3995SOL    HW212885   1.749   4.394   6.698 -1.4045 -1.9600  1.2212
 3996SOL     OW12886   4.531   1.238   3.500  0.6939 -0.6966 -0.0735
 3996SOL    HW112887   4.460   1.292   3.546  0.7271 -1.2192  0.6184
 3996SOL    HW212888   4.492   1.195   3.418  0.0796 -1.3160  0.5301
 3997SOL     OW12889   1.053   0.801   6.614 -0.3218 -0.6848 -0.1860
 3997SOL    HW112890   1.014   0.745   6.687 -0.1814  0.6239  0.9430
 3997SOL    HW212891   0.992   0.878   6.595  0.6211  0.1259  0.0028
 3998SOL     OW12892   1.179   3.016   2.888  0.0742 -1.0256  0.0869
 3998SOL    HW112893   1.148   2.921   2.886  0.6434 -1.2299  0.5756
 3998SOL    HW212894   1.204   3.045   2.796 -1.7112 -0.7982 -0.3494
 3999SOL     OW12895   5.136   5.446   0.129 -0.5799 -0.5022 -0.4309
 3999SOL    HW112896   5.091   5.531   0.101 -1.5687 -0.9127 -0.1421
 3999SOL    HW212897   5.069   5.385   0.170  0.3473 -0.9687  0.4265
 4000SOL     OW12898   3.804   2.945   4.074 -0.1142  0.0040  0.3179
 4000SOL    HW112899   3.736   2.887   4.030  0.8356  0.2433 -1.5826
 4000SOL    HW212900   3.815   2.918   4.169 -1.0365 -1.6861 -0.0209
 4001SOL     OW12901   5.977   6.580   6.536  0.6579  0.1388 -0.5528
 4001SOL    HW112902   5.892   6.632   6.521 -0.6594 -1.3159  1.3329
 4001SOL    HW212903   6.017   6.606   6.624  0.2968 -1.5465  0.1405
 4002SOL     OW12904   5.734   2.598   0.142 -0.2467 -0.5335  0.1510
 4002SOL    HW112905   5.750   2.542   0.223  2.0653  0.3861  0.3907
 4002SOL    HW212906   5.652   2.654   0.156  1.0531  0.8849  2.6109
 4003SOL     OW12907   3.498   4.777   0.857 -0.7452  0.5081  0.1791
 4003SOL    HW112908   3.508   4.849   0.788 -0.8376  1.6646  1.3275
 4003SOL    HW212909   3.587   4.760   0.901  0.0473 -2.3883 -2.2126
 4004SOL     OW12910   6.458   5.205   3.458  0.6371  0.2731 -0.2635
 4004SOL    HW112911   6.473   5.137   3.386 -1.8989 -0.6702 -0.0083
 4004SOL    HW212912   6.363   5.236   3.454  0.3228 -0.0340  2.8197
 4005SOL     OW12913   3.790   3.462   3.329  0.5962 -0.1568  0.1100
 4005SOL    HW112914   3.755   3.512   3.409 -0.0829 -1.0537  0.3896
 4005SOL    HW212915   3.879   3.422   3.352  0.6062 -0.0441  0.2732
 4006SOL     OW12916   0.912   5.032   0.191  0.9921 -0.0628 -0.5252
 4006SOL    HW112917   0.814   5.030   0.170  0.8128  1.8033 -0.0536
 4006SOL    HW212918   0.943   4.940   0.215 -1.2885 -0.2516  2.1099
 4007SOL     OW12919   4.841   2.831   1.176 -0.2454 -0.2713  0.0602
 4007SOL    HW112920   4.744   2.855   1.179  0.5648  3.4287  0.7626
 4007SOL    HW212921   4.862   2.771   1.253 -1.7123 -0.1156  0.6224
 4008SOL     OW12922   0.158   6.922   4.166  0.1186 -0.1492 -0.2580
 4008SOL    HW112923   0.196   6.927   4.259 -0.0602 -2.9135  0.0541
 4008SOL    HW212924   0.221   6.966   4.103  1.1419  0.2088  0.9548
 4009SOL     OW12925   5.784   3.847   4.993  0.1757  0.3180 -0.2756
 4009SOL    HW112926   5.829   3.927   4.955 -0.7859  0.0107 -2.1725
 4009SOL    HW212927   5.777   3.776   4.923 -2.9017  0.2155 -0.0079
 4010SOL     OW12928   4.650   0.220   6.502  0.5799  0.3084 -0.0168
 4010SOL    HW112929   4.633   0.174   6.414  1.0340  1.3754 -0.6765
 4010SOL    HW212930   4.675   0.151   6.571 -0.2673 -0.6004 -0.5840
 4011SOL     OW12931   1.525   5.569   6.581 -0.0450  0.8059 -0.2506
 4011SOL    HW112932   1.462   5.519   6.640 -0.0508  0.1396 -0.8007
 4011SOL    HW212933   1.580   5.631   6.636  0.3422 -0.2075  0.5394
 4012SOL     OW12934   4.003   3.276   6.372  0.7375 -0.5904 -0.5444
 4012SOL    HW112935   4.026   3.340   6.299 -0.1077  0.2345 -0.1029
 4012SOL    HW212936   3.908   3.290   6.400  1.0267 -0.9274  0.6807
 4013SOL     OW12937   2.859   5.197   2.059  0.7363  0.2355  0.1798
 4013SOL    HW112938   2.828   5.120   2.004 -0.1446  0.9285 -0.3348
 4013SOL    HW212939   2.865   5.169   2.155  0.9630 -0.6142 -0.0761
 4014SOL     OW12940   5.086   5.867   4.392  0.5409  0.4660  0.4824
 4014SOL    HW112941   5.185   5.871   4.405  0.3493  1.7295  1.8581
 4014SOL    HW212942   5.056   5.948   4.342  0.3007 -0.4405 -0.8806
 4015SOL     OW12943   0.945   5.358   4.566  0.0312  0.3173 -0.3537
 4015SOL    HW112944   0.879   5.382   4.638  0.4755  0.6108 -0.0351
 4015SOL    HW212945   1.036   5.349   4.607  0.0501 -0.9801 -0.6251
 4016SOL     OW12946   3.662   1.728   1.557 -0.0663 -0.1055 -0.2469
 4016SOL    HW112947   3.737   1.732   1.491 -0.6950 -2.1763 -1.1822
 4016SOL    HW212948   3.696   1.692   1.644  0.6338  2.0291  0.4143
 4017SOL     OW12949   6.397   4.446   6.943  0.6145  0.4941 -0.3672
 4017SOL    HW112950   6.405   4.536   6.986  0.1284  0.8841 -1.0693
 4017SOL    HW212951   6.439   4.449   6.852  0.3800  0.0833 -0.4911
 4018SOL     OW12952   2.429   2.575   3.395 -0.2422 -0.3216 -0.2837
 4018SOL    HW112953   2.358   2.645   3.393  1.5569  1.5913 -0.4553
 4018SOL    HW212954   2.487   2.589   3.475 -0.2121 -2.0753  0.0588
 4019SOL     OW12955   0.112   5.600   6.085 -0.1788  0.2359  0.2715
 4019SOL    HW112956   0.143   5.599   6.180 -0.0261  1.5124  0.2591
 4019SOL    HW212957   0.040   5.533   6.072  1.0073 -1.1975  0.8582
 4020SOL     OW12958   5.949   4.728   1.210  0.1642  0.0431  0.2268
 4020SOL    HW112959   6.006   4.666   1.155  0.3993 -0.5642  1.1300
 4020SOL    HW212960   5.977   4.723   1.306  1.8679  3.4212  0.0403
 4021SOL     OW12961   4.623   0.836   0.596 -0.2063 -0.7149  0.6630
 4021SOL    HW112962   4.626   0.936   0.597  0.1798 -0.7208  0.4559
 4021SOL    HW212963   4.579   0.802   0.680  0.9368 -0.4117  1.4049
 4022SOL     OW12964   3.426   6.889   3.509  0.3583  1.0533  0.5266
 4022SOL    HW112965   3.500   6.854   3.453  0.2903 -1.9259  2.0919
 4022SOL    HW212966   3.459   6.902   3.603 -0.4487  2.3122  0.6575
 4023SOL     OW12967   5.002   5.560   3.462 -0.3959  0.2556  0.6175
 4023SOL    HW112968   4.909   5.525   3.453  0.7073 -2.4209 -4.0041
 4023SOL    HW212969   5.066   5.483   3.461  1.9828  2.1279 -0.7180
 4024SOL     OW12970   6.864   1.987   0.261  0.2059 -0.3621 -0.5982
 4024SOL    HW112971   6.848   2.063   0.323  0.7612  1.3675 -2.4519
 4024SOL    HW212972   6.800   1.913   0.281 -0.5632  0.6986  1.0743
 4025SOL     OW12973   1.999   1.056   1.867  0.4459 -0.1875  0.0402
 4025SOL    HW112974   2.029   0.961   1.856  0.1685 -0.0868 -1.9266
 4025SOL    HW212975   1.902   1.058   1.888  0.1280 -0.3506 -1.2860
 4026SOL     OW12976   5.284   3.340   2.838 -0.2365 -0.2246 -0.2278
 4026SOL    HW112977   5.252   3.424   2.794  1.2627  1.6069  1.9293
 4026SOL    HW212978   5.378   3.322   2.812 -0.7621 -1.7234 -1.2349
 4027SOL     OW12979   4.665   0.247   4.869  0.0557  0.6483  0.4803
 4027SOL    HW112980   4.691   0.205   4.957 -0.1015  0.4572  0.4359
 4027SOL    HW212981   4.581   0.300   4.881 -0.8196 -0.6073  0.1193
 4028SOL     OW12982   5.465   0.130   1.971 -0.3204 -0.3386 -0.3358
 4028SOL    HW112983   5.456   0.122   2.071  0.4879  0.9175 -0.1361
 4028SOL    HW212984   5.390   0.081   1.927 -1.2127 -0.1623  0.9148
 4029SOL     OW12985   1.513   2.909   1.109 -0.5617  0.4286 -0.2965
 4029SOL    HW112986   1.609   2.898   1.082 -0.3604  0.1575  0.4990
 4029SOL    HW212987   1.508   2.957   1.196 -1.1846  1.0277 -0.6512
 4030SOL     OW12988   4.629   1.321   5.804 -0.3926  0.2587 -0.7723
 4030SOL    HW112989   4.615   1.224   5.823  0.1582 -0.2993 -2.9865
 4030SOL    HW212990   4.606   1.340   5.709  1.0286  1.9932 -0.8125
 4031SOL     OW12991   5.076   3.473   5.381  0.3602 -0.1641  0.2582
 4031SOL    HW112992   5.115   3.474   5.289 -0.5756  1.4108 -0.1635
 4031SOL    HW212993   5.143   3.510   5.446  1.8542 -3.2461  0.6623
 4032SOL     OW12994   4.887   4.899   6.319  0.1889  0.4158  0.1494
 4032SOL    HW112995   4.884   4.806   6.281  1.2366  0.4927 -0.1421
 4032SOL    HW212996   4.822   4.957   6.269 -1.3768 -0.4181  1.1254
 4033SOL     OW12997   6.003   6.315   1.390 -0.4043 -0.0905  0.2955
 4033SOL    HW112998   6.000   6.301   1.489  0.6226  0.0201  0.3487
 4033SOL    HW212999   5.912   6.338   1.357 -1.0130 -1.2963  1.0421
 4034SOL     OW13000   4.396   1.419   6.684 -0.5761 -0.3697 -0.2505
 4034SOL    HW113001   4.327   1.450   6.618 -0.1221  0.4068 -0.3654
 4034SOL    HW213002   4.360   1.428   6.776 -1.1537 -1.3045 -0.3755
 4035SOL     OW13003   5.691   2.447   1.366  0.7447  0.5691 -0.4779
 4035SOL    HW113004   5.717   2.388   1.289  3.4780  1.1396 -0.0801
 4035SOL    HW213005   5.706   2.398   1.452  1.4793  1.2603 -0.2015
 4036SOL     OW13006   0.970   3.329   5.641 -0.8606  0.5622 -0.4441
 4036SOL    HW113007   1.062   3.338   5.604 -0.5619 -0.4507  0.0149
 4036SOL    HW213008   0.972   3.336   5.740 -1.0866 -0.6602 -0.3308
 4037SOL     OW13009   6.046   0.027   5.070  0.3136  0.3275 -0.0555
 4037SOL    HW113010   6.065   0.084   4.990  1.6530  1.2948  0.9115
 4037SOL    HW213011   5.960   0.057   5.112 -0.4582 -0.2629 -1.1587
 4038SOL     OW13012   5.508   0.815   4.042  0.4974  0.1098  0.2654
 4038SOL    HW113013   5.568   0.812   4.122  1.1653 -0.3226 -0.2346
 4038SOL    HW213014   5.534   0.893   3.985  1.3600 -0.7312 -0.5251
 4039SOL     OW13015   5.192   4.618   0.964 -0.3600  0.0827 -0.0154
 4039SOL    HW113016   5.106   4.615   0.914 -0.4800  1.0117  0.1196
 4039SOL    HW213017   5.256   4.679   0.918 -0.7856  1.6939  1.4183
 4040SOL     OW13018   5.735   4.050   6.687 -0.7151 -0.5168  0.0417
 4040SOL    HW113019   5.703   4.143   6.701 -0.2292 -0.2497 -0.5613
 4040SOL    HW213020   5.782   4.044   6.598  0.3668 -1.0283  0.6235
 4041SOL     OW13021   3.333   4.887   3.235 -0.4559  0.0621  0.3987
 4041SOL    HW113022   3.280   4.882   3.150  0.8352 -1.3467 -0.3693
 4041SOL    HW213023   3.272   4.880   3.313 -1.6569  1.2059 -0.4006
 4042SOL     OW13024   5.395   1.943   0.785  0.1611 -0.6890  0.5267
 4042SOL    HW113025   5.429   1.989   0.703  0.9170 -1.0487  0.6344
 4042SOL    HW213026   5.344   1.861   0.759  1.6325 -1.6159  0.4503
 4043SOL     OW13027   5.013   6.782   6.312 -0.3225  0.1021  0.0488
 4043SOL    HW113028   5.084   6.766   6.244 -1.6279 -1.0242 -1.1032
 4043SOL    HW213029   4.923   6.764   6.272 -1.1743  0.0481  1.8777
 4044SOL     OW13030   6.044   0.056   0.184  0.4247 -0.2388  0.2489
 4044SOL    HW113031   6.073   0.133   0.128  0.6885  0.3130  1.1331
 4044SOL    HW213032   5.957   0.020   0.149  0.4678  0.2428 -0.3611
 4045SOL     OW13033   1.924   5.828   1.509  0.2557  0.0221  0.2029
 4045SOL    HW113034   1.863   5.826   1.588 -2.2957  1.2364 -1.5643
 4045SOL    HW213035   1.970   5.917   1.505  0.8974 -0.2840  0.6510
 4046SOL     OW13036   1.515   4.349   4.725 -0.3690 -0.0736 -0.1497
 4046SOL    HW113037   1.450   4.279   4.696 -0.7526 -0.1526  0.8507
 4046SOL    HW213038   1.571   4.313   4.800  0.6987  0.0655 -0.8656
 4047SOL     OW13039   1.294   1.421   6.492 -0.1530  0.0844  0.5990
 4047SOL    HW113040   1.287   1.416   6.392 -1.5401  0.7543  0.6456
 4047SOL    HW213041   1.204   1.410   6.532  0.4806 -0.9045  1.8398
 4048SOL     OW13042   1.852   0.094   0.600 -0.1283 -0.6359 -0.1245
 4048SOL    HW113043   1.801   0.044   0.530 -0.6562 -2.4873  1.4837
 4048SOL    HW213044   1.846   0.045   0.687  1.5705  0.8985  0.9379
 4049SOL     OW13045   3.402   0.590   4.276 -0.5779 -0.1324 -0.1310
 4049SOL    HW113046   3.452   0.505   4.290  0.1914  0.5762  1.7543
 4049SOL    HW213047   3.306   0.577   4.304 -0.1427 -0.0434  1.5124
 4050SOL     OW13048   4.476   4.007   1.689 -0.0381  0.2269  0.2000
 4050SOL    HW113049   4.567   3.970   1.704  0.1102  0.6107  0.2536
 4050SOL    HW213050   4.464   4.091   1.743 -1.0271 -0.7579  1.5916
 4051SOL     OW13051   1.572   5.957   1.645 -0.3487 -0.3310 -0.1467
 4051SOL    HW113052   1.543   5.932   1.737 -0.0902 -0.4287 -0.0900
 4051SOL    HW213053   1.601   6.053   1.644 -0.0295 -0.4259 -0.0481
 4052SOL     OW13054   4.332   4.680   4.280  0.1756 -0.0620  0.0546
 4052SOL    HW113055   4.388   4.610   4.237 -0.9537 -2.0613  1.6927
 4052SOL    HW213056   4.379   4.716   4.361 -0.0813 -0.3424  0.3286
 4053SOL     OW13057   0.880   6.876   6.477  0.1154 -0.2344  1.4242
 4053SOL    HW113058   0.787   6.843   6.460  0.4794 -0.6990  0.1999
 4053SOL    HW213059   0.884   6.974   6.461 -0.0833 -0.2844  1.0475
 4054SOL     OW13060   3.838   3.692   0.221 -0.0979  0.2610 -0.4645
 4054SOL    HW113061   3.836   3.596   0.192 -2.4394  0.4017 -0.9738
 4054SOL    HW213062   3.744   3.725   0.233  0.6877  2.0175  1.3800
 4055SOL     OW13063   4.033   3.766   4.654  0.1224  0.0224 -0.2347
 4055SOL    HW113064   3.956   3.778   4.591 -3.0556 -3.4062  2.5122
 4055SOL    HW213065   4.087   3.687   4.626 -0.7479 -0.9495  0.7706
 4056SOL     OW13066   5.814   2.220   0.198  0.2425 -0.4850  0.5275
 4056SOL    HW113067   5.801   2.255   0.105 -0.1850 -1.2165  0.2961
 4056SOL    HW213068   5.784   2.288   0.264 -0.5195 -0.3905  0.0956
 4057SOL     OW13069   1.916   4.442   4.019 -0.2365  0.0893  0.7958
 4057SOL    HW113070   1.842   4.506   4.042  0.3053  1.0105  0.0535
 4057SOL    HW213071   1.992   4.456   4.082  0.2112  0.7780  0.1196
 4058SOL     OW13072   5.876   0.190   4.301 -0.6358 -0.2200  0.3111
 4058SOL    HW113073   5.971   0.174   4.328 -0.3897  1.7170  0.7024
 4058SOL    HW213074   5.841   0.109   4.253  0.7886 -1.4515  1.2538
 4059SOL     OW13075   6.668   3.904   3.947  0.4312  0.5693  0.0238
 4059SOL    HW113076   6.570   3.888   3.953  0.0761  1.6837 -2.0964
 4059SOL    HW213077   6.689   3.997   3.975  0.6265  0.9256 -1.2609
 4060SOL     OW13078   4.387   0.985   6.438 -0.0589 -0.3765  0.4242
 4060SOL    HW113079   4.306   0.982   6.496 -0.5409  0.9319 -0.1408
 4060SOL    HW213080   4.375   1.055   6.367  1.9559  0.5723  0.9298
 4061SOL     OW13081   6.400   4.623   0.902  0.5563  0.2722  1.1578
 4061SOL    HW113082   6.359   4.685   0.968 -0.1577 -1.2089  2.1547
 4061SOL    HW213083   6.490   4.595   0.934 -0.4918 -1.8221  2.4735
 4062SOL     OW13084   4.771   4.985   5.920  0.3749 -0.1252 -0.3450
 4062SOL    HW113085   4.842   5.055   5.926 -0.9833  1.4075 -1.1887
 4062SOL    HW213086   4.800   4.912   5.858  1.6378 -0.0934  0.1910
 4063SOL     OW13087   1.739   3.755   0.825  0.3911  0.2919  0.8788
 4063SOL    HW113088   1.809   3.684   0.817  0.3584  0.2033  1.3429
 4063SOL    HW213089   1.777   3.843   0.798 -0.5737 -0.4030 -3.6512
 4064SOL     OW13090   7.003   0.487   6.276  0.0364  0.1847  0.5397
 4064SOL    HW113091   6.981   0.554   6.346 -0.0499 -1.8910  2.5972
 4064SOL    HW213092   7.102   0.487   6.260 -0.1927  2.6646 -1.5662
 4065SOL     OW13093   6.337   6.064   0.149  0.5257 -0.6538 -0.4606
 4065SOL    HW113094   6.296   6.150   0.118 -1.2946 -1.6019 -0.8284
 4065SOL    HW213095   6.416   6.043   0.091  1.9771  1.4871  0.6028
 4066SOL     OW13096   5.443   2.264   0.121 -0.0527  0.1449 -0.5056
 4066SOL    HW113097   5.444   2.328   0.044  1.1031  1.0188  0.2056
 4066SOL    HW213098   5.443   2.314   0.207 -0.4948 -0.8245  0.0816
 4067SOL     OW13099   1.137   5.059   6.022  0.4017 -0.0045 -0.1720
 4067SOL    HW113100   1.200   4.983   6.004  0.8403 -0.0389  1.3983
 4067SOL    HW213101   1.059   5.025   6.074  1.0385  0.7721  1.3283
 4068SOL     OW13102   1.431   2.682   1.990  0.0736 -0.2592 -0.2812
 4068SOL    HW113103   1.467   2.767   1.952 -0.7149  0.5564  0.7439
 4068SOL    HW213104   1.442   2.609   1.923 -0.8959  1.0216 -1.9159
 4069SOL     OW13105   5.617   3.606   2.770 -0.1702 -0.3489 -0.5100
 4069SOL    HW113106   5.539   3.569   2.719 -0.3595 -0.2707 -0.2769
 4069SOL    HW213107   5.702   3.575   2.727 -0.3201  0.5007 -1.4579
 4070SOL     OW13108   2.515   0.486   0.475 -0.0809 -0.0102  0.2361
 4070SOL    HW113109   2.550   0.404   0.430 -1.1787 -0.2457 -0.2170
 4070SOL    HW213110   2.519   0.475   0.574  0.1927 -0.4265  0.1799
 4071SOL     OW13111   4.635   4.853   4.763  0.2096  0.3317 -0.3622
 4071SOL    HW113112   4.681   4.780   4.814  0.4589  1.2090  0.6944
 4071SOL    HW213113   4.702   4.922   4.736 -0.0651  0.3002 -1.1538
 4072SOL     OW13114   4.105   0.102   2.046 -0.1569 -0.0152 -0.6173
 4072SOL    HW113115   4.056   0.188   2.031  0.6294  1.3758  3.6547
 4072SOL    HW213116   4.074   0.061   2.131  3.8315 -0.6827  0.6704
 4073SOL     OW13117   5.813   2.511   1.051  0.2991  0.0499 -0.1201
 4073SOL    HW113118   5.785   2.488   0.958  1.3919 -1.0229 -0.2004
 4073SOL    HW213119   5.819   2.611   1.059 -2.9127  0.3885 -0.2317
 4074SOL     OW13120   0.423   0.306   2.402 -0.0680  0.8456  0.0253
 4074SOL    HW113121   0.492   0.268   2.340 -0.1040 -1.7747  1.4474
 4074SOL    HW213122   0.443   0.403   2.418  2.2083  0.6193 -1.0292
 4075SOL     OW13123   1.462   2.572   2.804  0.4760 -0.3935  0.3928
 4075SOL    HW113124   1.397   2.554   2.730 -0.5418  2.3194  0.5198
 4075SOL    HW213125   1.461   2.496   2.869 -0.3654 -1.7406 -1.1208
 4076SOL     OW13126   4.636   6.219   3.388 -0.3257 -0.0733  0.2977
 4076SOL    HW113127   4.571   6.170   3.446  1.8209 -1.0244  2.0196
 4076SOL    HW213128   4.729   6.192   3.412  0.7669  1.5784 -1.7774
 4077SOL     OW13129   4.882   3.647   4.339  0.0509 -0.1191 -0.0767
 4077SOL    HW113130   4.844   3.668   4.249 -1.0416  1.2957  0.6615
 4077SOL    HW213131   4.871   3.727   4.398  1.9431 -0.5607  0.9379
 4078SOL     OW13132   1.525   1.979   3.968  0.6625 -0.4376  0.6312
 4078SOL    HW113133   1.503   1.885   3.993  0.8688 -2.2000 -4.5891
 4078SOL    HW213134   1.447   2.020   3.922  0.9194  1.7322  1.9597
 4079SOL     OW13135   2.339   1.152   1.454 -0.6464  0.0957  0.1440
 4079SOL    HW113136   2.374   1.058   1.443 -0.6192 -0.0733  1.4864
 4079SOL    HW213137   2.268   1.153   1.524 -0.3249  1.1517  0.4710
 4080SOL     OW13138   6.129   3.230   4.763 -0.2921 -0.4552  0.2925
 4080SOL    HW113139   6.210   3.288   4.771 -2.0075  2.0072  0.8061
 4080SOL    HW213140   6.147   3.143   4.810  1.3576  0.8147  2.2513
 4081SOL     OW13141   5.313   5.693   0.215  0.2764  0.2866  0.3279
 4081SOL    HW113142   5.240   5.627   0.199  0.9707 -0.2699 -0.7605
 4081SOL    HW213143   5.392   5.646   0.256  1.2727  0.0853 -1.6804
 4082SOL     OW13144   6.829   3.633   6.793 -0.5639  0.0164 -0.1121
 4082SOL    HW113145   6.923   3.623   6.823 -0.6516  1.7806  0.8710
 4082SOL    HW213146   6.827   3.650   6.694  0.2408  0.9020  0.0082
 4083SOL     OW13147   0.140   5.655   3.932 -0.0433  0.8629  0.2154
 4083SOL    HW113148   0.085   5.579   3.897  0.5745  0.2192  0.6095
 4083SOL    HW213149   0.191   5.696   3.856 -0.9562  1.3871 -0.1297
 4084SOL     OW13150   5.062   0.860   0.287  0.3337  0.0147  0.1136
 4084SOL    HW113151   5.091   0.796   0.359  3.2476  0.4938 -0.4976
 4084SOL    HW213152   4.973   0.831   0.251  0.3955 -2.2485  1.5289
 4085SOL     OW13153   6.795   0.508   6.790  0.1502 -0.1721  0.0053
 4085SOL    HW113154   6.786   0.575   6.716  1.1289  0.6722  0.6311
 4085SOL    HW213155   6.721   0.522   6.856 -0.0265 -0.1404 -0.1976
 4086SOL     OW13156   6.325   5.905   6.301  0.5185 -0.0964  0.3184
 4086SOL    HW113157   6.227   5.887   6.308  0.3915  1.0561  2.6348
 4086SOL    HW213158   6.362   5.859   6.221 -1.9913 -0.1701 -0.8935
 4087SOL     OW13159   5.117   1.270   6.651 -0.0284  0.1422  0.4276
 4087SOL    HW113160   5.201   1.219   6.673 -0.4062 -0.5318  0.3361
 4087SOL    HW213161   5.074   1.230   6.571 -0.3697  0.5782  0.3896
 4088SOL     OW13162   2.428   0.191   3.734  0.0868 -0.0123 -0.3054
 4088SOL    HW113163   2.426   0.212   3.832  2.2047  2.1002 -0.6284
 4088SOL    HW213164   2.522   0.199   3.701 -0.6994  0.0632 -2.6712
 4089SOL     OW13165   3.101   6.340   4.574 -0.5764  0.5783  0.2571
 4089SOL    HW113166   3.068   6.291   4.493 -0.4043  0.5218  0.2224
 4089SOL    HW213167   3.183   6.296   4.610 -2.1216 -1.0238  2.0461
 4090SOL     OW13168   5.744   5.172   2.559 -0.4664 -0.5672 -0.2915
 4090SOL    HW113169   5.828   5.129   2.593 -0.4624 -0.5721 -0.3082
 4090SOL    HW213170   5.694   5.108   2.502 -0.3414 -0.4704 -0.5114
 4091SOL     OW13171   1.746   2.128   5.154  0.1053 -0.0752  0.1017
 4091SOL    HW113172   1.812   2.200   5.176 -0.6442  0.4059  0.8270
 4091SOL    HW213173   1.723   2.077   5.236 -0.5701 -0.1132 -0.1057
 4092SOL     OW13174   2.578   0.536   5.784 -0.4079 -0.1739 -0.7702
 4092SOL    HW113175   2.479   0.539   5.775 -0.3095  1.3364 -1.8526
 4092SOL    HW213176   2.618   0.612   5.733  1.1683  0.8700  1.8015
 4093SOL     OW13177   0.876   2.287   2.265 -0.1614  0.1968  0.3686
 4093SOL    HW113178   0.883   2.204   2.321 -2.0028 -0.0404  0.2958
 4093SOL    HW213179   0.967   2.310   2.229  0.1530 -2.9544 -1.2583
 4094SOL     OW13180   4.717   5.333   6.940  0.1527  0.1956  0.4147
 4094SOL    HW113181   4.624   5.354   6.973  0.2118  1.4650 -0.1754
 4094SOL    HW213182   4.720   5.341   6.841  0.7716 -0.3914  0.3786
 4095SOL     OW13183   2.369   3.189   1.109  0.2591 -0.2968 -0.3176
 4095SOL    HW113184   2.269   3.184   1.111  0.3088 -1.4130 -0.4214
 4095SOL    HW213185   2.397   3.266   1.051 -0.5260 -0.7913 -1.3666
 4096SOL     OW13186   5.344   3.019   5.598  0.2697 -0.1670  0.0871
 4096SOL    HW113187   5.412   3.036   5.526 -0.7686  0.5039 -0.7632
 4096SOL    HW213188   5.287   2.942   5.572 -0.6844  0.6366 -0.2553
 4097SOL     OW13189   5.492   1.334   2.839  0.7467 -0.0690 -0.2799
 4097SOL    HW113190   5.559   1.298   2.904 -1.4199 -0.1788  2.0659
 4097SOL    HW213191   5.400   1.319   2.875 -0.5717  0.5629 -3.0976
 4098SOL     OW13192   4.171   1.333   5.225 -0.5324 -0.0526 -0.2039
 4098SOL    HW113193   4.230   1.401   5.183 -0.5753 -0.6590 -1.2790
 4098SOL    HW213194   4.093   1.314   5.165  0.1474 -1.9735 -0.5253
 4099SOL     OW13195   2.435   4.449   3.254  0.0802 -0.3039  0.0555
 4099SOL    HW113196   2.463   4.457   3.159 -0.7784  1.3070 -0.1111
 4099SOL    HW213197   2.485   4.516   3.309 -0.4953 -0.1940  0.4594
 4100SOL     OW13198   0.706   4.857   1.454 -0.4254  0.3480 -0.7442
 4100SOL    HW113199   0.623   4.800   1.462 -0.1549  0.0278 -0.1044
 4100SOL    HW213200   0.786   4.798   1.451 -0.2613  0.6197 -2.3661
 4101SOL     OW13201   4.514   0.521   4.642  0.4919 -0.1247 -0.1185
 4101SOL    HW113202   4.604   0.564   4.639  0.5386 -0.1307  0.9724
 4101SOL    HW213203   4.460   0.562   4.715  0.5514 -1.9110  0.9973
 4102SOL     OW13204   6.198   4.160   0.190 -0.1666  0.6751 -0.0861
 4102SOL    HW113205   6.290   4.190   0.166  0.4894 -1.0050  0.2175
 4102SOL    HW213206   6.131   4.221   0.147  1.0493  1.1294 -1.4139
 4103SOL     OW13207   6.716   6.428   0.982 -0.7314  0.2339  0.1751
 4103SOL    HW113208   6.760   6.463   0.900  2.6835  1.2086  2.2213
 4103SOL    HW213209   6.637   6.485   1.005 -0.7703  0.9162 -1.5392
 4104SOL     OW13210   5.036   1.130   2.603 -0.5929  0.3395  0.1958
 4104SOL    HW113211   5.114   1.088   2.649 -0.6849  0.9836  0.9735
 4104SOL    HW213212   4.960   1.139   2.668 -1.7144 -1.2560 -0.8157
 4105SOL     OW13213   4.565   0.385   0.099 -0.2736  0.3138 -0.0992
 4105SOL    HW113214   4.580   0.439   0.016  1.0204 -1.8245 -1.3748
 4105SOL    HW213215   4.638   0.317   0.107 -0.8589 -0.1106  2.3674
 4106SOL     OW13216   4.117   2.251   4.795  0.0206 -0.4301 -0.4245
 4106SOL    HW113217   4.174   2.169   4.809 -1.3911 -1.2615  0.7645
 4106SOL    HW213218   4.126   2.311   4.874 -0.7312 -0.5778 -0.2177
 4107SOL     OW13219   1.903   0.610   0.178 -0.3201  0.1036  0.2351
 4107SOL    HW113220   1.804   0.620   0.170 -0.1604  1.0156 -0.8640
 4107SOL    HW213221   1.925   0.518   0.211 -1.5288 -0.0434  0.6730
 4108SOL     OW13222   6.690   4.255   2.489  0.3630 -0.1260 -0.4361
 4108SOL    HW113223   6.705   4.196   2.410  0.1567 -0.7950  0.0111
 4108SOL    HW213224   6.766   4.245   2.553 -1.2029 -2.5823  1.2530
 4109SOL     OW13225   1.910   6.389   5.352  0.5119  0.4805  0.1052
 4109SOL    HW113226   1.814   6.366   5.337  0.6717  0.2521 -0.5982
 4109SOL    HW213227   1.948   6.330   5.423  0.6401 -0.7780 -0.9589
 4110SOL     OW13228   4.457   1.871   3.729 -0.5322  0.1924 -0.1746
 4110SOL    HW113229   4.441   1.882   3.828 -2.3124  1.0244 -0.5217
 4110SOL    HW213230   4.436   1.956   3.682  1.8615  0.3298 -1.1538
 4111SOL     OW13231   5.079   2.348   5.122  0.1036  0.1066  1.0754
 4111SOL    HW113232   5.072   2.296   5.207  1.9424 -0.1559  1.0909
 4111SOL    HW213233   5.064   2.287   5.045 -0.2530  0.0762  1.1662
 4112SOL     OW13234   6.330   2.192   3.911  0.4294 -0.0267 -0.4695
 4112SOL    HW113235   6.233   2.204   3.929  0.0141  1.3657 -3.1159
 4112SOL    HW213236   6.375   2.282   3.911  1.4983 -0.5453 -0.3603
 4113SOL     OW13237   4.734   3.715   7.004 -0.3945  0.1359  0.0727
 4113SOL    HW113238   4.652   3.658   7.004 -1.3274  1.3694  1.8852
 4113SOL    HW213239   4.710   3.808   6.976  0.9159 -0.0628 -1.8881
 4114SOL     OW13240   4.774   0.607   0.993  0.1785 -0.2991 -0.3618
 4114SOL    HW113241   4.831   0.681   1.028 -1.4187  0.2754  1.1747
 4114SOL    HW213242   4.823   0.520   1.003  1.2679  0.3004 -0.2941
 4115SOL     OW13243   3.997   2.737   5.882 -0.5263 -0.2152 -0.5290
 4115SOL    HW113244   3.910   2.743   5.930 -0.1781 -1.8277  0.3556
 4115SOL    HW213245   4.015   2.642   5.857  0.2573  0.3211 -2.0811
 4116SOL     OW13246   5.416   5.947   0.707  0.2485 -0.0704  0.2100
 4116SOL    HW113247   5.437   6.028   0.653 -2.5833  1.0573  0.5825
 4116SOL    HW213248   5.385   5.974   0.798  0.3316 -1.6612  0.7584
 4117SOL     OW13249   1.588   0.410   4.424 -0.1948 -0.6714  0.6271
 4117SOL    HW113250   1.587   0.406   4.325  1.1599 -1.9673  0.6281
 4117SOL    HW213251   1.664   0.467   4.455 -1.5595  1.0708  0.9491
 4118SOL     OW13252   1.262   4.033   5.578  0.4742  0.4949  0.3649
 4118SOL    HW113253   1.298   4.092   5.506  0.7455  1.8801  1.5883
 4118SOL    HW213254   1.328   4.028   5.653 -0.1743 -0.2065  0.9038
 4119SOL     OW13255   4.604   0.448   1.162 -0.2141  0.1266  0.5825
 4119SOL    HW113256   4.680   0.409   1.109  0.0780 -0.3055  1.3019
 4119SOL    HW213257   4.640   0.494   1.243 -0.7714 -0.8705  1.4150
 4120SOL     OW13258   6.225   6.987   1.928 -0.1136  0.2952  0.1785
 4120SOL    HW113259   6.289   7.041   1.873  1.1542 -0.9115  0.3927
 4120SOL    HW213260   6.214   7.029   2.018  0.1623  0.6695  0.0386
 4121SOL     OW13261   2.183   6.539   3.374  0.2811 -0.7171 -0.1164
 4121SOL    HW113262   2.282   6.549   3.383 -0.0152  1.1255  2.0122
 4121SOL    HW213263   2.138   6.623   3.405 -1.9462 -0.9036 -2.4599
 4122SOL     OW13264   4.367   1.164   3.784 -0.1111  0.7789  0.1095
 4122SOL    HW113265   4.308   1.179   3.864  0.8400  1.1449  0.7756
 4122SOL    HW213266   4.319   1.110   3.716 -0.4538 -0.8457  1.5682
 4123SOL     OW13267   3.377   1.180   5.439 -0.0895  0.4745  0.0706
 4123SOL    HW113268   3.473   1.207   5.449  0.0382  0.0679 -0.0346
 4123SOL    HW213269   3.318   1.258   5.461  0.2626  0.7044  0.2130
 4124SOL     OW13270   0.018   1.223   3.505  0.1022  0.2897  0.1766
 4124SOL    HW113271   0.035   1.131   3.540  0.6037 -0.0302 -0.8674
 4124SOL    HW213272   0.106   1.267   3.486 -0.1490  0.1872 -1.3163
 4125SOL     OW13273   1.776   1.483   0.756 -0.6181 -0.0625  0.0776
 4125SOL    HW113274   1.781   1.488   0.855 -2.0087  0.2741  0.1495
 4125SOL    HW213275   1.798   1.572   0.716 -1.4348  0.1784  0.1578
 4126SOL     OW13276   4.506   4.592   6.849 -0.3205 -0.5875  0.2330
 4126SOL    HW113277   4.579   4.656   6.873 -0.2803 -0.4402 -0.2679
 4126SOL    HW213278   4.545   4.502   6.832 -0.1313 -0.3141 -0.8783
 4127SOL     OW13279   3.580   3.796   2.661  0.0714 -0.0956 -0.6106
 4127SOL    HW113280   3.584   3.698   2.682  1.9745 -0.4408 -2.2429
 4127SOL    HW213281   3.632   3.847   2.729  0.6027 -0.4500 -0.7393
 4128SOL     OW13282   2.092   3.699   3.306 -0.2002  0.7575  0.3634
 4128SOL    HW113283   2.108   3.612   3.259 -1.9516  1.2790 -1.3521
 4128SOL    HW213284   2.155   3.768   3.271  0.6955  0.3878  1.1968
 4129SOL     OW13285   0.203   2.291   1.562 -0.4663 -0.3518  0.3964
 4129SOL    HW113286   0.212   2.389   1.582 -0.8943 -0.4874  1.2680
 4129SOL    HW213287   0.206   2.239   1.647 -1.8305 -0.9728  0.0887
 4130SOL     OW13288   3.706   2.559   5.702  0.1565 -0.5753  0.1860
 4130SOL    HW113289   3.707   2.463   5.675  2.7231 -0.1310 -1.6769
 4130SOL    HW213290   3.777   2.609   5.652  0.7819  1.7620  3.1027
 4131SOL     OW13291   1.203   4.198   6.938 -0.0309 -0.6190 -0.4966
 4131SOL    HW113292   1.277   4.244   6.889 -0.7950 -0.8431 -1.8969
 4131SOL    HW213293   1.205   4.100   6.919 -0.0317 -0.7953  0.3511
 4132SOL     OW13294   2.512   4.045   0.683  0.9071 -0.3088  0.0900
 4132SOL    HW113295   2.547   4.074   0.772 -0.1017 -0.0987  0.4286
 4132SOL    HW213296   2.500   4.125   0.625 -1.0651 -0.0735  0.7342
 4133SOL     OW13297   3.549   3.245   3.871  0.0049 -0.0275  0.0929
 4133SOL    HW113298   3.625   3.285   3.819 -0.5549 -0.0217 -0.7374
 4133SOL    HW213299   3.478   3.213   3.808 -1.3760  1.3397  0.8778
 4134SOL     OW13300   4.198   6.931   4.536  0.4775 -0.1372 -0.0567
 4134SOL    HW113301   4.129   6.863   4.508  0.5063  0.0170 -0.5058
 4134SOL    HW213302   4.189   6.948   4.634 -1.6354  1.5336 -0.4493
 4135SOL     OW13303   4.356   6.017   6.688 -0.0212 -0.4052 -0.2206
 4135SOL    HW113304   4.424   5.996   6.759 -1.4558  1.2273  1.7848
 4135SOL    HW213305   4.381   6.103   6.643 -1.1115  0.6782  1.1408
 4136SOL     OW13306   4.984   2.194   3.038 -0.1473 -0.0828 -0.5745
 4136SOL    HW113307   5.006   2.188   3.136 -0.7846  0.6985 -0.3732
 4136SOL    HW213308   4.939   2.110   3.009 -0.2615 -0.1865 -0.1110
 4137SOL     OW13309   5.471   0.071   4.608 -0.5868  0.7205  0.0239
 4137SOL    HW113310   5.398   0.068   4.677 -0.1062  1.6037  0.5937
 4137SOL    HW213311   5.506  -0.021   4.592  0.0741  0.6144  1.8253
 4138SOL     OW13312   6.797   4.383   6.898  0.1965 -0.1905  0.3061
 4138SOL    HW113313   6.771   4.286   6.901 -1.1575  0.1752  2.4852
 4138SOL    HW213314   6.718   4.439   6.876 -0.0401  0.6500  2.9475
 4139SOL     OW13315   1.282   0.124   1.839  0.4152  0.7260  0.1727
 4139SOL    HW113316   1.268   0.189   1.765  0.5504 -0.3024 -0.7777
 4139SOL    HW213317   1.358   0.063   1.816 -0.5071 -0.5686  0.4557
 4140SOL     OW13318   4.625   4.293   4.668 -0.1215 -0.3615  0.1587
 4140SOL    HW113319   4.553   4.362   4.675  0.0054 -0.0895 -1.0049
 4140SOL    HW213320   4.604   4.216   4.728 -1.0525 -0.0003  0.3097
 4141SOL     OW13321   3.076   0.759   5.039  0.1648 -0.3284 -0.2567
 4141SOL    HW113322   3.115   0.669   5.019  0.5926 -0.6047  1.6566
 4141SOL    HW213323   3.131   0.829   4.995  0.2368 -0.9578 -1.1950
 4142SOL     OW13324   1.383   6.030   6.814 -0.1065  0.5756  0.2557
 4142SOL    HW113325   1.398   6.105   6.878 -1.0221  0.8561  0.1637
 4142SOL    HW213326   1.394   6.063   6.720 -0.4229  0.5833  0.2184
 4143SOL     OW13327   2.538   5.934   6.620  0.3690 -0.3514 -0.1508
 4143SOL    HW113328   2.488   5.953   6.536  1.1733 -2.5696 -1.2080
 4143SOL    HW213329   2.611   6.002   6.631 -0.3227  0.5065 -0.7329
 4144SOL     OW13330   4.656   0.839   5.704  0.1299  0.6602  0.3013
 4144SOL    HW113331   4.678   0.879   5.793 -1.2358  0.7802  0.6080
 4144SOL    HW213332   4.562   0.864   5.679 -0.0362 -0.6646 -0.4585
 4145SOL     OW13333   3.643   0.109   0.454 -0.0815 -0.4086  0.3688
 4145SOL    HW113334   3.586   0.189   0.473  0.4062 -0.4257  2.0338
 4145SOL    HW213335   3.730   0.139   0.414 -0.7948 -0.3044 -1.1618
 4146SOL     OW13336   2.269   1.298   0.310  0.3004 -0.4407  0.0703
 4146SOL    HW113337   2.250   1.374   0.248  0.2514 -0.7466 -0.2929
 4146SOL    HW213338   2.218   1.217   0.280  0.4687 -0.6585  0.3655
 4147SOL     OW13339   1.342   0.679   2.078  0.3616 -0.1236 -0.0132
 4147SOL    HW113340   1.377   0.622   2.152  2.0371  0.3550 -0.3998
 4147SOL    HW213341   1.302   0.621   2.007  0.4884 -0.6928  0.3719
 4148SOL     OW13342   2.075   5.263   4.758 -0.1164  0.0197 -0.1991
 4148SOL    HW113343   2.070   5.235   4.663  1.5592  1.4505 -0.7734
 4148SOL    HW213344   2.128   5.348   4.765  1.3677 -0.9942  2.1884
 4149SOL     OW13345   3.683   6.437   0.423  0.0829  0.1204  0.4975
 4149SOL    HW113346   3.722   6.356   0.468  1.0270  1.2367  1.7792
 4149SOL    HW213347   3.638   6.495   0.492 -2.7740 -0.4445 -0.7265
 4150SOL     OW13348   6.565   4.150   3.711  0.5848  0.0236  0.4226
 4150SOL    HW113349   6.629   4.193   3.648  0.3804  1.2282  1.0147
 4150SOL    HW213350   6.583   4.181   3.805 -0.3498 -0.2349  0.7047
 4151SOL     OW13351   2.516   4.525   1.268  0.1631 -0.4688 -0.2137
 4151SOL    HW113352   2.497   4.611   1.315 -2.4152 -0.6662 -0.7524
 4151SOL    HW213353   2.552   4.544   1.177  1.3000 -0.0277  0.3066
 4152SOL     OW13354   4.896   1.757   1.660  0.1885 -0.1084 -0.0906
 4152SOL    HW113355   4.884   1.659   1.646  2.7795 -0.6643  1.0478
 4152SOL    HW213356   4.842   1.786   1.739 -0.8171 -0.5214 -0.6032
 4153SOL     OW13357   1.900   5.361   2.018 -0.2737 -0.0358 -0.2001
 4153SOL    HW113358   1.845   5.403   2.090  1.4644 -0.1368  1.2440
 4153SOL    HW213359   1.857   5.379   1.929 -1.1752  2.2327  0.6189
 4154SOL     OW13360   0.249   4.422   6.416  0.5599 -0.7666 -0.4445
 4154SOL    HW113361   0.345   4.407   6.441  0.0363 -2.8707  0.5130
 4154SOL    HW213362   0.237   4.516   6.386  2.7003 -0.1361  0.4890
 4155SOL     OW13363   1.056   1.227   1.977  0.6612  0.3201 -0.5879
 4155SOL    HW113364   1.138   1.265   1.936 -0.2214  1.0557 -1.7330
 4155SOL    HW213365   1.051   1.253   2.073  2.4051 -0.8365 -0.1400
 4156SOL     OW13366   2.970   6.941   2.188 -0.0188  1.0367 -0.4801
 4156SOL    HW113367   2.881   6.894   2.185  0.5453 -0.0625 -0.4557
 4156SOL    HW213368   2.985   6.988   2.102 -0.4177  0.8247 -0.6721
 4157SOL     OW13369   2.735   5.406   0.372  0.1765  0.0469 -0.4522
 4157SOL    HW113370   2.660   5.439   0.316  1.7777 -0.9565 -3.4344
 4157SOL    HW213371   2.728   5.307   0.382  1.8552 -0.3314 -2.2496
 4158SOL     OW13372   3.842   6.400   4.751  0.1892 -0.0308  0.5622
 4158SOL    HW113373   3.772   6.333   4.777  0.9275 -0.7636  0.6965
 4158SOL    HW213374   3.933   6.358   4.758  0.9155  1.7625  3.2806
 4159SOL     OW13375   3.973   3.405   3.819 -0.6339 -0.7551 -0.0699
 4159SOL    HW113376   4.029   3.488   3.821  0.2444 -1.3169 -0.3992
 4159SOL    HW213377   3.914   3.403   3.900  0.4207 -0.5279  0.7400
 4160SOL     OW13378   0.948   6.599   4.061 -0.1382 -0.3662 -0.0020
 4160SOL    HW113379   0.954   6.513   4.010  0.5723 -0.1880 -0.2341
 4160SOL    HW213380   0.891   6.664   4.010  0.4140 -0.2525 -0.4807
 4161SOL     OW13381   0.993   5.847   4.730 -0.0326 -0.7871 -0.0483
 4161SOL    HW113382   0.990   5.940   4.765  0.3395 -0.4425 -0.8945
 4161SOL    HW213383   0.903   5.822   4.693 -0.4106 -1.1361  1.0842
 4162SOL     OW13384   6.190   4.989   3.751 -1.0639 -0.0614 -0.0255
 4162SOL    HW113385   6.241   5.028   3.828  3.2215 -1.8703 -1.6477
 4162SOL    HW213386   6.122   4.924   3.786 -0.6864  0.6845  2.2649
 4163SOL     OW13387   3.915   3.068   6.203  0.0611 -0.2501  0.1333
 4163SOL    HW113388   3.904   2.988   6.263  2.4727 -0.0993  0.8701
 4163SOL    HW213389   3.949   3.145   6.256  2.0233 -0.0307 -1.3329
 4164SOL     OW13390   4.207   2.508   0.561  0.0042  0.1165 -0.3649
 4164SOL    HW113391   4.239   2.561   0.482  1.6494  2.8440  1.9523
 4164SOL    HW213392   4.123   2.549   0.596 -1.7944 -2.2181 -1.6652
 4165SOL     OW13393   0.939   3.986   4.011  0.3124  0.7559 -0.1527
 4165SOL    HW113394   0.936   3.888   4.031  3.4859  0.2386 -1.5661
 4165SOL    HW213395   0.901   4.002   3.920 -0.7421  0.9871  0.3054
 4166SOL     OW13396   0.135   3.084   1.234  0.7343 -0.1748 -0.9473
 4166SOL    HW113397   0.059   3.147   1.249 -0.1158 -1.7688  2.4852
 4166SOL    HW213398   0.221   3.126   1.263  0.4014 -0.0325 -0.1503
 4167SOL     OW13399   6.937   1.102   4.389  0.2740 -0.4736 -0.4312
 4167SOL    HW113400   6.943   1.116   4.291  0.1616  0.4543 -0.3174
 4167SOL    HW213401   6.849   1.059   4.412  0.5527 -1.2521 -0.7801
 4168SOL     OW13402   2.317   1.121   0.534 -0.2461 -0.4283  0.4686
 4168SOL    HW113403   2.280   1.190   0.472  1.7308  0.5781  0.3466
 4168SOL    HW213404   2.300   1.030   0.496 -1.3704  0.0390 -0.2169
 4169SOL     OW13405   1.946   5.893   2.915 -0.0354  0.0272  0.5354
 4169SOL    HW113406   2.038   5.924   2.889  0.7981 -2.0685  0.7568
 4169SOL    HW213407   1.912   5.830   2.845 -0.3861 -0.8605  1.4903
 4170SOL     OW13408   2.291   1.556   0.615 -0.4833  0.5812  0.1663
 4170SOL    HW113409   2.380   1.512   0.608 -1.2587 -0.9642 -0.5298
 4170SOL    HW213410   2.301   1.647   0.654  1.3087  0.1636  0.7536
 4171SOL     OW13411   5.446   1.631   2.789  0.7862  0.2742 -0.0969
 4171SOL    HW113412   5.438   1.532   2.799 -1.5492  0.1083 -2.4732
 4171SOL    HW213413   5.485   1.653   2.699  2.3875  1.5527  0.8584
 4172SOL     OW13414   1.841   2.344   1.876  0.9762 -0.3488 -0.0906
 4172SOL    HW113415   1.777   2.356   1.800 -0.6655  0.6730  1.3801
 4172SOL    HW213416   1.925   2.395   1.857 -0.3415  1.9283 -0.2469
 4173SOL     OW13417   6.053   3.749   2.582  0.4538  0.6006  0.6768
 4173SOL    HW113418   6.102   3.784   2.503  1.5076  2.2476  1.9926
 4173SOL    HW213419   6.113   3.751   2.662 -0.3759 -1.5980  1.4437
 4174SOL     OW13420   0.029   4.799   3.229 -0.4457  0.3578  0.0985
 4174SOL    HW113421  -0.011   4.858   3.159  0.1039  0.0148 -0.5192
 4174SOL    HW213422  -0.044   4.754   3.281 -0.8903  2.1944  1.1356
 4175SOL     OW13423   5.523   1.187   2.625  0.1741 -0.3346  0.3960
 4175SOL    HW113424   5.505   1.233   2.712  0.2268 -1.1457  0.8493
 4175SOL    HW213425   5.619   1.198   2.600 -0.2819  1.6958 -0.6496
 4176SOL     OW13426   1.845   5.618   2.321  0.9746 -0.2204 -0.3062
 4176SOL    HW113427   1.775   5.677   2.362  0.4305  0.3976 -2.0308
 4176SOL    HW213428   1.857   5.536   2.378 -1.1042 -0.3124  0.0759
 4177SOL     OW13429   6.073   5.875   5.809  0.1560 -0.1700  0.4914
 4177SOL    HW113430   6.034   5.967   5.807  0.6240  0.0210 -1.0811
 4177SOL    HW213431   6.021   5.815   5.749  1.7246 -0.1099 -1.0040
 4178SOL     OW13432   1.283   2.096   2.678 -0.3408 -0.3279 -0.4288
 4178SOL    HW113433   1.301   2.040   2.597 -2.2535  0.0501 -1.1789
 4178SOL    HW213434   1.255   2.037   2.754 -1.5714 -0.5073 -0.9846
 4179SOL     OW13435   6.003   5.684   5.600 -0.0180 -0.1744  0.0558
 4179SOL    HW113436   5.983   5.781   5.582  1.3862  0.1369  0.0363
 4179SOL    HW213437   5.960   5.627   5.530  0.5227  0.5728 -0.9057
 4180SOL     OW13438   5.345   5.626   3.993 -0.0239  0.3376  0.5086
 4180SOL    HW113439   5.307   5.563   3.924 -1.1399  1.0890  0.4102
 4180SOL    HW213440   5.420   5.678   3.952  1.4705 -1.4435  0.8160
 4181SOL     OW13441   0.806   1.165   4.181  0.3319 -0.0425 -0.1302
 4181SOL    HW113442   0.832   1.239   4.242  3.5524 -1.9462  1.0951
 4181SOL    HW213443   0.881   1.146   4.117 -0.3605 -2.2085 -0.3897
 4182SOL     OW13444   5.048   1.352   1.281  1.0225  0.2718  0.0327
 4182SOL    HW113445   4.951   1.330   1.286  0.7399  0.5661 -2.7742
 4182SOL    HW213446   5.059   1.447   1.253  2.1507  0.2420  0.3293
 4183SOL     OW13447   6.647   1.933   1.685  0.1992 -0.0412 -0.5068
 4183SOL    HW113448   6.721   2.000   1.673 -1.0953  2.0075  2.0684
 4183SOL    HW213449   6.596   1.953   1.768 -0.3435 -4.2717  0.4371
 4184SOL     OW13450   0.288   1.833   1.951 -0.3553  0.1127  0.7144
 4184SOL    HW113451   0.349   1.838   1.872 -1.2626  1.5197  0.0556
 4184SOL    HW213452   0.194   1.845   1.921 -1.0840 -2.5977  1.6430
 4185SOL     OW13453   3.181   2.369   0.248  0.1934 -0.2139 -0.3488
 4185SOL    HW113454   3.091   2.411   0.258  0.0498 -0.7784  0.9299
 4185SOL    HW213455   3.170   2.270   0.242  0.8637 -0.7689  4.1819
 4186SOL     OW13456   2.006   4.397   3.021  0.0743 -0.4183 -0.6385
 4186SOL    HW113457   2.076   4.396   2.950  1.5123 -1.2540  0.7252
 4186SOL    HW213458   2.021   4.476   3.081  0.2302 -0.9093 -0.0125
 4187SOL     OW13459   0.549   6.099   0.312 -0.1445 -0.0874 -0.2432
 4187SOL    HW113460   0.577   6.170   0.377 -3.3848  0.6573  0.5263
 4187SOL    HW213461   0.607   6.018   0.324  1.0737  0.9973  1.6890
 4188SOL     OW13462   6.245   2.748   4.923 -0.7395 -0.2297 -0.6685
 4188SOL    HW113463   6.197   2.711   4.844  0.2358  0.7661 -1.7628
 4188SOL    HW213464   6.342   2.759   4.902 -0.6709  1.2452  0.2104
 4189SOL     OW13465   0.204   5.623   3.276 -0.2886 -0.5308  0.3936
 4189SOL    HW113466   0.277   5.579   3.223 -0.8958  1.3072 -2.1474
 4189SOL    HW213467   0.218   5.722   3.277 -0.6415 -0.4403  3.2959
 4190SOL     OW13468   0.563   3.073   5.732  0.4842 -0.4666  0.2306
 4190SOL    HW113469   0.635   3.053   5.666  0.3086 -0.8873  0.1653
 4190SOL    HW213470   0.575   3.013   5.812  0.2216 -0.5202  0.2279
 4191SOL     OW13471   3.578   1.682   4.343 -0.1537 -1.0897 -0.1462
 4191SOL    HW113472   3.604   1.698   4.247  2.3787 -0.1905  0.6078
 4191SOL    HW213473   3.635   1.610   4.381 -1.0595 -1.3522  0.7400
 4192SOL     OW13474   4.745   2.015   4.916 -0.3254 -0.5525 -0.5502
 4192SOL    HW113475   4.696   2.096   4.946  0.2449 -0.4834  0.2371
 4192SOL    HW213476   4.732   1.941   4.983  1.9095 -0.0369  0.5614
 4193SOL     OW13477   1.672   5.573   3.413  0.3028 -0.4827 -0.8698
 4193SOL    HW113478   1.584   5.547   3.452 -0.3406  0.1958 -1.8110
 4193SOL    HW213479   1.726   5.492   3.392  0.5266 -0.8665  1.0774
 4194SOL     OW13480   3.916   1.512   1.505  0.0320 -0.1517 -0.6135
 4194SOL    HW113481   3.854   1.526   1.429 -1.6893  1.2968  0.9550
 4194SOL    HW213482   3.979   1.590   1.511  0.8334 -0.7518 -1.1367
 4195SOL     OW13483   1.095   5.629   6.756  0.2660 -0.2337 -0.1331
 4195SOL    HW113484   1.099   5.621   6.656 -0.2448  0.3229 -0.2043
 4195SOL    HW213485   1.034   5.704   6.781  0.5713 -0.2177  0.5957
 4196SOL     OW13486   5.332   1.505   4.248 -0.0511 -0.0108  0.5474
 4196SOL    HW113487   5.316   1.603   4.242 -0.1055 -0.0965 -0.9891
 4196SOL    HW213488   5.430   1.487   4.241 -0.1004 -0.1132  0.1287
 4197SOL     OW13489   0.434   0.555   4.869 -0.7386 -0.2399 -0.3351
 4197SOL    HW113490   0.368   0.557   4.945  0.6126  2.5407  0.9555
 4197SOL    HW213491   0.400   0.613   4.795 -0.7777 -0.6664 -0.6498
 4198SOL     OW13492   6.994   1.547   2.351 -0.4027 -0.9650  0.1437
 4198SOL    HW113493   6.977   1.603   2.270 -2.9033  0.3761  1.4628
 4198SOL    HW213494   7.044   1.465   2.324  0.9299  0.5149 -2.3259
 4199SOL     OW13495   6.645   3.300   5.515 -0.0803 -0.0636 -0.2918
 4199SOL    HW113496   6.611   3.337   5.428  1.4242  2.9036  0.2558
 4199SOL    HW213497   6.728   3.247   5.497 -0.6997 -0.9022 -0.7945
 4200SOL     OW13498   5.662   2.776   6.649 -0.2440 -0.4284 -0.0630
 4200SOL    HW113499   5.618   2.865   6.658  0.8781  0.0842  0.5194
 4200SOL    HW213500   5.597   2.710   6.612 -0.6711  0.9852 -1.9807
 4201SOL     OW13501   6.589   0.249   1.986 -0.4936 -0.4748  0.3762
 4201SOL    HW113502   6.652   0.206   1.921  0.4573  0.8513  0.3832
 4201SOL    HW213503   6.559   0.180   2.052  1.0783 -1.1374  0.4587
 4202SOL     OW13504   1.312   5.738   4.957  0.5208  0.3569 -0.3574
 4202SOL    HW113505   1.388   5.790   4.996 -0.4910  0.6157  1.3684
 4202SOL    HW213506   1.282   5.669   5.022 -1.0055  0.5386 -0.8244
 4203SOL     OW13507   1.847   1.970   3.128 -0.4326  0.0128 -0.2370
 4203SOL    HW113508   1.881   2.058   3.095 -0.6815 -0.3796 -1.6143
 4203SOL    HW213509   1.923   1.914   3.161 -0.0582  0.1421 -0.8589
 4204SOL     OW13510   0.082   5.736   4.429  0.1738 -0.1229  0.2834
 4204SOL    HW113511   0.050   5.740   4.335  0.6259  2.2448  0.1792
 4204SOL    HW213512   0.126   5.822   4.454  1.1002 -1.0992  2.3138
 4205SOL     OW13513   0.049   6.010   4.121  0.0414  0.1435 -0.5312
 4205SOL    HW113514  -0.027   6.017   4.184 -0.1568 -1.6836 -0.5175
 4205SOL    HW213515   0.066   5.914   4.098  1.4913  0.5941 -1.5705
 4206SOL     OW13516   1.522   1.347   5.758 -0.2501  0.0461  0.6663
 4206SOL    HW113517   1.528   1.443   5.786 -1.2270 -0.1052  1.4345
 4206SOL    HW213518   1.605   1.299   5.785  1.6420  1.2848 -2.3418
 4207SOL     OW13519   2.272   2.138   2.217  0.0434  0.0804  0.0239
 4207SOL    HW113520   2.278   2.236   2.199  1.4514  0.0298  0.1359
 4207SOL    HW213521   2.360   2.095   2.199 -0.7844 -1.3233 -0.8291
 4208SOL     OW13522   0.546   5.323   0.609  0.2994  0.2716  0.1059
 4208SOL    HW113523   0.554   5.324   0.708  0.7427  0.2389  0.0732
 4208SOL    HW213524   0.612   5.258   0.571 -1.5337 -1.6043 -0.0759
 4209SOL     OW13525   0.841   6.637   4.855  0.3281 -0.5024 -0.4365
 4209SOL    HW113526   0.898   6.622   4.774  1.6305  1.9495 -0.0704
 4209SOL    HW213527   0.760   6.691   4.830  0.9427  0.6149 -0.0686
 4210SOL     OW13528   6.448   4.228   5.631  0.0831  0.2068  0.1869
 4210SOL    HW113529   6.480   4.322   5.621  1.2702 -0.3353 -1.6560
 4210SOL    HW213530   6.365   4.215   5.576 -1.0183  0.5537  1.7127
 4211SOL     OW13531   6.434   4.862   1.524  0.2690  0.4936 -0.0580
 4211SOL    HW113532   6.418   4.816   1.437  1.3669 -0.4392  0.2098
 4211SOL    HW213533   6.447   4.793   1.596  1.7009  1.2026  0.3955
 4212SOL     OW13534   1.106   2.234   2.540  0.2150  0.2001  0.4555
 4212SOL    HW113535   1.103   2.334   2.539 -2.5999  0.1768 -0.0902
 4212SOL    HW213536   1.195   2.204   2.575  2.1931  2.8388 -1.7815
 4213SOL     OW13537   3.922   6.039   1.385  0.0725  0.2958 -0.3679
 4213SOL    HW113538   3.932   5.992   1.472 -0.8859  0.2314 -0.2821
 4213SOL    HW213539   3.990   6.113   1.379 -0.2676  0.7135  0.7090
 4214SOL     OW13540   5.795   0.139   5.195 -0.0859  0.6165  0.0388
 4214SOL    HW113541   5.769   0.219   5.140  0.1343  0.5989 -0.0930
 4214SOL    HW213542   5.791   0.163   5.292 -3.2152 -0.1205  0.2279
 4215SOL     OW13543   0.298   3.618   2.287 -0.1794  0.5126 -0.2940
 4215SOL    HW113544   0.395   3.639   2.277  1.0071 -3.6709  0.3469
 4215SOL    HW213545   0.260   3.668   2.365  2.1209  0.5166  0.9025
 4216SOL     OW13546   1.514   4.872   0.641 -0.3847 -0.1980  0.1128
 4216SOL    HW113547   1.557   4.787   0.670 -1.2798 -0.9573 -0.7104
 4216SOL    HW213548   1.470   4.916   0.720 -0.7572 -1.0090  0.3714
 4217SOL     OW13549   3.264   1.753   1.075 -0.0162  0.1710 -0.0589
 4217SOL    HW113550   3.260   1.698   1.159 -1.2463  1.9906  1.1427
 4217SOL    HW213551   3.355   1.791   1.064 -0.3043  1.4439  1.5391
 4218SOL     OW13552   5.239   6.866   6.196  0.6396 -0.5930 -0.0100
 4218SOL    HW113553   5.285   6.930   6.258  0.4169 -0.1056 -0.3393
 4218SOL    HW213554   5.305   6.828   6.132  0.8931 -1.1812  0.5847
 4219SOL     OW13555   0.558   6.994   4.992 -0.0059 -0.6091  0.1710
 4219SOL    HW113556   0.643   7.033   5.027  0.3895 -0.8880 -0.4472
 4219SOL    HW213557   0.481   7.048   5.024  0.2807 -1.1906  1.9274
 4220SOL     OW13558   2.858   1.596   1.265  0.8162  0.6311 -0.0620
 4220SOL    HW113559   2.954   1.621   1.274  0.9398  0.2475 -0.3018
 4220SOL    HW213560   2.812   1.661   1.204  1.0332  0.5370 -0.3290
 4221SOL     OW13561   5.490   3.230   5.050  0.0219 -0.4902 -0.2197
 4221SOL    HW113562   5.437   3.210   4.967 -0.4316  0.4757 -0.1719
 4221SOL    HW213563   5.505   3.328   5.057  2.0838 -0.7428 -0.3811
 4222SOL     OW13564   4.954   4.963   3.472 -0.0317 -0.0904  0.0503
 4222SOL    HW113565   4.948   4.977   3.570  0.8049 -3.7347  0.7585
 4222SOL    HW213566   4.917   4.872   3.448  2.5704 -0.6256 -2.5272
 4223SOL     OW13567   5.783   2.905   3.479 -0.2373 -0.0120  0.5888
 4223SOL    HW113568   5.869   2.903   3.530  1.0055  1.1200 -1.3143
 4223SOL    HW213569   5.798   2.867   3.388 -2.4188 -2.1347  1.0142
 4224SOL     OW13570   6.271   3.011   0.659  0.1020 -0.0400  0.3608
 4224SOL    HW113571   6.325   2.938   0.699  0.1082  0.6579  1.6696
 4224SOL    HW213572   6.327   3.093   0.650 -0.5272  0.4871  1.1033
 4225SOL     OW13573   0.637   5.425   1.764  0.0485 -0.8338 -0.3405
 4225SOL    HW113574   0.727   5.393   1.735  1.2261  2.3737 -0.6046
 4225SOL    HW213575   0.637   5.439   1.863  0.0881 -0.2278 -0.4203
 4226SOL     OW13576   0.374   6.680   3.033 -0.4369 -0.1649 -0.1737
 4226SOL    HW113577   0.283   6.679   3.072 -0.9807  2.6861 -1.1114
 4226SOL    HW213578   0.439   6.714   3.101 -0.4729 -0.1133 -0.1647
 4227SOL     OW13579   1.268   0.407   0.364  0.1479 -0.1368 -0.1250
 4227SOL    HW113580   1.316   0.476   0.419 -0.6986  0.1629  0.2477
 4227SOL    HW213581   1.326   0.380   0.287  0.9360  0.1805  0.3473
 4228SOL     OW13582   4.200   0.597   4.601  0.2095  0.4406  0.2360
 4228SOL    HW113583   4.172   0.518   4.654  1.8353 -0.4744 -0.1866
 4228SOL    HW213584   4.255   0.658   4.658  0.1512  0.5449  0.1819
 4229SOL     OW13585   1.216   4.156   3.028  0.0635 -0.4021 -0.3933
 4229SOL    HW113586   1.219   4.160   3.128 -0.6890  0.0353 -0.3804
 4229SOL    HW213587   1.280   4.087   2.995  1.0222  0.1145  0.3471
 4230SOL     OW13588   0.674   6.858   4.255  0.5356 -1.0650 -0.4182
 4230SOL    HW113589   0.764   6.821   4.276  0.6328 -0.2534  0.6883
 4230SOL    HW213590   0.604   6.792   4.283  0.6923 -0.3492  1.8679
 4231SOL     OW13591   6.904   4.057   6.389  0.4847 -0.5044 -0.2868
 4231SOL    HW113592   6.868   3.996   6.460 -0.5838  0.8394  0.3612
 4231SOL    HW213593   6.849   4.045   6.305  1.0188 -1.2558 -0.5405
 4232SOL     OW13594   4.209   0.360   0.874  0.0545  0.1695  0.3597
 4232SOL    HW113595   4.283   0.316   0.823  1.6064  0.6350  2.0741
 4232SOL    HW213596   4.158   0.291   0.926  0.0969 -0.0133  0.1598
 4233SOL     OW13597   2.789   3.849   0.468 -0.1690  0.0099  0.6468
 4233SOL    HW113598   2.754   3.830   0.376 -1.6535  0.2242  1.1497
 4233SOL    HW213599   2.800   3.948   0.479  1.7306 -0.0953  0.1214
 4234SOL     OW13600   1.778   3.287   5.655 -0.4761 -0.0555  0.2202
 4234SOL    HW113601   1.820   3.197   5.662  0.4340  0.2959 -0.4854
 4234SOL    HW213602   1.844   3.357   5.685  0.4648  0.7440 -3.2601
 4235SOL     OW13603   2.072   0.430   6.898 -0.2643 -0.1213  0.1085
 4235SOL    HW113604   2.100   0.378   6.817  0.9276  0.3511  0.2068
 4235SOL    HW213605   1.974   0.447   6.894 -0.4940 -1.4300 -0.4705
 4236SOL     OW13606   2.205   1.656   2.841 -0.0826 -0.5498  0.0829
 4236SOL    HW113607   2.180   1.753   2.842  0.5800 -0.3465 -0.8925
 4236SOL    HW213608   2.270   1.637   2.914  0.8417  0.0597 -0.5609
 4237SOL     OW13609   1.924   0.476   3.725 -0.2187  0.0812  0.0975
 4237SOL    HW113610   1.848   0.411   3.720 -1.8755  1.8081  1.3227
 4237SOL    HW213611   1.967   0.470   3.815  2.0044 -1.7030 -0.9509
 4238SOL     OW13612   0.953   5.339   3.286 -0.1930 -0.4003 -0.5294
 4238SOL    HW113613   0.884   5.369   3.352  0.0426  1.5040 -1.0883
 4238SOL    HW213614   0.923   5.253   3.245 -0.4719 -1.5222  1.8194
 4239SOL     OW13615   4.266   2.030   6.566  0.3703  0.1845  0.2140
 4239SOL    HW113616   4.300   2.122   6.546  1.7374  0.4025  3.0148
 4239SOL    HW213617   4.343   1.968   6.579 -0.3893 -0.4984  1.8346
 4240SOL     OW13618   4.625   6.736   1.374 -0.4630 -0.1850  0.1058
 4240SOL    HW113619   4.557   6.718   1.445  0.7319  3.0669  2.2750
 4240SOL    HW213620   4.589   6.803   1.310  0.5613  1.5329  1.2475
 4241SOL     OW13621   2.126   6.455   2.668  0.5866 -0.3278 -0.4095
 4241SOL    HW113622   2.093   6.547   2.648  1.8901 -0.3480 -3.0762
 4241SOL    HW213623   2.158   6.451   2.763  1.1305  2.1550 -0.4227
 4242SOL     OW13624   0.054   2.810   3.407  0.3523  0.0164 -0.0166
 4242SOL    HW113625   0.133   2.751   3.426  1.1605  1.0345 -0.1648
 4242SOL    HW213626   0.083   2.905   3.405 -0.6855  0.3323 -1.1548
 4243SOL     OW13627   2.499   2.939   0.939 -0.8310  0.4177  0.0720
 4243SOL    HW113628   2.498   2.988   0.852 -1.0667  1.2159  0.5153
 4243SOL    HW213629   2.554   2.990   1.006 -2.4417  0.9766  1.0285
 4244SOL     OW13630   1.069   6.714   6.317  0.0541 -0.0607 -0.1502
 4244SOL    HW113631   0.991   6.752   6.367  0.0726 -1.5745  1.1149
 4244SOL    HW213632   1.101   6.631   6.363  1.0531 -0.6836 -1.8680
 4245SOL     OW13633   0.776   6.243   1.600  0.0671 -0.4173 -0.4553
 4245SOL    HW113634   0.799   6.326   1.651 -1.1439 -0.9157  0.9750
 4245SOL    HW213635   0.706   6.264   1.532  2.1233  0.3814 -2.4457
 4246SOL     OW13636   6.998   0.793   2.535  0.6552 -0.6513 -0.3940
 4246SOL    HW113637   6.938   0.869   2.509 -1.2494 -1.2210  1.9923
 4246SOL    HW213638   6.957   0.707   2.507  0.9813 -0.9810  0.1362
 4247SOL     OW13639   0.394   5.488   4.644 -0.0394 -0.3289  0.2630
 4247SOL    HW113640   0.448   5.569   4.621 -0.1513 -0.8764 -2.1229
 4247SOL    HW213641   0.306   5.517   4.683  1.1040  0.5919  2.3104
 4248SOL     OW13642   2.430   5.831   0.370  0.3181  0.4741 -0.1087
 4248SOL    HW113643   2.462   5.740   0.395  0.2898  0.7096  0.8247
 4248SOL    HW213644   2.344   5.850   0.418  0.9145  1.4364  0.6067
 4249SOL     OW13645   6.366   0.775   0.273 -0.4556  0.5262 -0.0881
 4249SOL    HW113646   6.279   0.824   0.278  0.4301  2.2232 -0.5632
 4249SOL    HW213647   6.378   0.720   0.355 -0.8428  2.2790  1.2119
 4250SOL     OW13648   4.445   2.466   2.231  0.5728  0.1734  0.7303
 4250SOL    HW113649   4.537   2.483   2.196  0.1288  0.9817 -0.0626
 4250SOL    HW213650   4.395   2.553   2.239 -0.5447 -0.3729 -0.0298
 4251SOL     OW13651   6.018   5.663   1.649 -0.0925 -0.4192 -0.0941
 4251SOL    HW113652   6.019   5.687   1.552  0.1939 -1.5270 -0.3819
 4251SOL    HW213653   6.107   5.683   1.689 -0.0773 -0.3578 -0.1576
 4252SOL     OW13654   2.101   5.545   0.677 -0.2236 -0.0758  0.3230
 4252SOL    HW113655   2.021   5.601   0.702 -0.2989  0.5377 -1.1552
 4252SOL    HW213656   2.177   5.567   0.738 -0.1387  1.9798 -0.4386
 4253SOL     OW13657   3.670   5.005   6.885 -0.2625 -0.2542  0.0508
 4253SOL    HW113658   3.684   5.095   6.928 -0.4356  0.3098 -1.0305
 4253SOL    HW213659   3.757   4.956   6.881 -0.1729 -0.1523  0.6823
 4254SOL     OW13660   2.859   2.680   5.384 -0.4196 -0.2837 -0.3535
 4254SOL    HW113661   2.801   2.614   5.336 -1.0489  0.1586 -0.2084
 4254SOL    HW213662   2.870   2.651   5.479 -4.3275  1.9562  1.0313
 4255SOL     OW13663   0.558   5.946   1.273  0.1144 -0.4499  0.0340
 4255SOL    HW113664   0.551   5.931   1.372 -2.5946  0.8612  0.1131
 4255SOL    HW213665   0.520   5.867   1.225 -1.1551  0.0699  0.1426
 4256SOL     OW13666   1.268   4.399   2.867  0.1253 -0.1988 -0.5938
 4256SOL    HW113667   1.237   4.328   2.931  0.9859  0.2762  0.3814
 4256SOL    HW213668   1.250   4.489   2.908  0.1800  0.1239 -1.2785
 4257SOL     OW13669   1.995   6.391   2.064  0.1666 -0.7374  0.5439
 4257SOL    HW113670   2.065   6.337   2.017  0.6926 -0.6613  1.2344
 4257SOL    HW213671   1.999   6.373   2.162  0.2385  0.4300  0.7679
 4258SOL     OW13672   6.562   2.020   5.510  0.4331  0.0176  0.1027
 4258SOL    HW113673   6.614   1.994   5.591  2.9962  0.9863 -1.1342
 4258SOL    HW213674   6.498   1.946   5.487  1.2226 -1.2291  1.7090
 4259SOL     OW13675   3.009   5.661   5.930 -0.0416 -0.4621 -0.2689
 4259SOL    HW113676   2.927   5.651   5.986  0.2557  0.9605  0.4964
 4259SOL    HW213677   3.075   5.718   5.980  1.0681 -0.8715 -1.2284
 4260SOL     OW13678   6.035   2.490   1.193  0.4919  0.1655  0.1443
 4260SOL    HW113679   5.951   2.474   1.141 -0.2343 -0.0991  1.3638
 4260SOL    HW213680   6.110   2.439   1.151 -0.8079 -3.0305  1.3172
 4261SOL     OW13681   2.772   0.461   6.478  0.3768 -0.0161 -0.2759
 4261SOL    HW113682   2.770   0.540   6.417  1.0593  0.9477  0.9145
 4261SOL    HW213683   2.866   0.434   6.495  0.4840  1.9806  3.0926
 4262SOL     OW13684   5.974   5.483   3.829  0.1678 -0.0817 -0.1033
 4262SOL    HW113685   6.009   5.573   3.854 -0.7332  0.4749 -0.7957
 4262SOL    HW213686   5.886   5.468   3.874 -0.8617  0.4078 -1.8776
 4263SOL     OW13687   1.477   2.202   3.284 -0.4366 -0.0011 -0.6641
 4263SOL    HW113688   1.432   2.211   3.373 -1.0250 -2.1938 -0.6624
 4263SOL    HW213689   1.539   2.124   3.286 -1.7779 -1.2370 -2.6153
 4264SOL     OW13690   0.848   3.682   5.669 -0.2503  0.2750  0.0810
 4264SOL    HW113691   0.767   3.624   5.660  1.5273 -2.5773  1.0745
 4264SOL    HW213692   0.897   3.685   5.583 -0.7209  0.9528 -0.1714
 4265SOL     OW13693   0.991   1.907   6.063  0.0050  0.7151  0.0378
 4265SOL    HW113694   0.907   1.933   6.015 -1.2510 -0.6570  1.3795
 4265SOL    HW213695   1.061   1.978   6.049 -1.9046  2.7465  0.2285
 4266SOL     OW13696   1.628   4.956   2.071 -0.4243 -0.1598  0.1087
 4266SOL    HW113697   1.575   4.900   2.136  0.4914 -1.9543 -0.6072
 4266SOL    HW213698   1.702   5.003   2.119  1.1010 -2.5450  0.2937
 4267SOL     OW13699   2.177   0.475   3.480  0.5186  0.7462  0.4296
 4267SOL    HW113700   2.113   0.413   3.526  0.5397  1.3383  1.2722
 4267SOL    HW213701   2.222   0.426   3.405  0.9044 -0.4238  1.3813
 4268SOL     OW13702   3.610   6.957   1.374  0.5651  0.1661  0.6118
 4268SOL    HW113703   3.573   7.014   1.301 -0.7922 -1.5364 -0.0906
 4268SOL    HW213704   3.709   6.947   1.362  0.3319 -0.2819 -1.1599
 4269SOL     OW13705   3.293   6.656   0.436  0.0407 -0.4293  0.1816
 4269SOL    HW113706   3.388   6.681   0.455 -0.5813  0.1003  2.9096
 4269SOL    HW213707   3.269   6.686   0.344  2.1620  0.4449 -0.1476
 4270SOL     OW13708   2.599   1.231   6.438 -0.0453  0.3025 -0.5747
 4270SOL    HW113709   2.661   1.179   6.496  2.1496  2.6102 -0.6382
 4270SOL    HW213710   2.517   1.256   6.489 -1.0101 -2.7780 -0.4650
 4271SOL     OW13711   2.071   4.110   6.687 -0.1221 -0.1179 -0.1922
 4271SOL    HW113712   2.043   4.204   6.707 -0.0002  0.3123 -1.8924
 4271SOL    HW213713   1.995   4.048   6.704 -0.2470  0.2977  0.8132
 4272SOL     OW13714   4.470   0.541   6.891 -0.3017 -0.2387 -0.3760
 4272SOL    HW113715   4.483   0.481   6.813  1.0739  0.7067 -0.9221
 4272SOL    HW213716   4.400   0.609   6.870  0.1535  0.0920 -0.8684
 4273SOL     OW13717   2.632   5.073   5.983 -0.0050  0.0616  0.5106
 4273SOL    HW113718   2.584   4.988   5.962  2.1569 -1.0609 -0.1909
 4273SOL    HW213719   2.566   5.146   5.998 -1.8945 -1.4036 -0.3153
 4274SOL     OW13720   3.519   1.100   0.217 -0.2465  0.9625 -0.7731
 4274SOL    HW113721   3.430   1.132   0.185 -0.5435 -2.2444 -3.7157
 4274SOL    HW213722   3.583   1.100   0.141  1.4634  0.4701  0.6146
 4275SOL     OW13723   1.973   0.917   0.327 -0.4551  0.3111 -0.5687
 4275SOL    HW113724   2.011   0.826   0.344 -1.9801 -1.0115 -3.5624
 4275SOL    HW213725   1.875   0.917   0.347 -0.1244  2.0199  1.4744
 4276SOL     OW13726   2.566   6.496   0.690  0.1934 -0.3159  0.6628
 4276SOL    HW113727   2.521   6.524   0.775 -1.4891  0.7615 -0.5250
 4276SOL    HW213728   2.594   6.577   0.638 -0.6568 -0.8951 -0.7527
 4277SOL     OW13729   6.122   1.978   2.489 -0.1630  0.9765  0.2423
 4277SOL    HW113730   6.153   1.931   2.571  0.7827 -1.1604 -1.2283
 4277SOL    HW213731   6.201   1.998   2.431 -0.9410  1.0185 -0.8363
 4278SOL     OW13732   5.108   1.657   2.794 -0.5170 -0.1868  0.2851
 4278SOL    HW113733   5.160   1.601   2.729 -0.2063  1.1603 -0.6739
 4278SOL    HW213734   5.158   1.743   2.811 -2.0269  0.7870 -0.0208
 4279SOL     OW13735   1.471   5.766   3.999 -0.5674  0.0866 -0.4528
 4279SOL    HW113736   1.516   5.684   3.962 -2.2267 -1.0491 -0.0837
 4279SOL    HW213737   1.498   5.779   4.094 -0.0555  0.1510 -0.6056
 4280SOL     OW13738   5.682   6.161   3.325 -0.4818 -0.5663 -0.4526
 4280SOL    HW113739   5.688   6.061   3.333  0.0392 -0.5611 -0.7371
 4280SOL    HW213740   5.773   6.198   3.310 -0.1688  0.2535  2.7127
 4281SOL     OW13741   4.009   6.746   4.437 -0.6385 -0.4689 -0.1252
 4281SOL    HW113742   3.958   6.771   4.354 -2.0688  0.5657  1.0269
 4281SOL    HW213743   3.952   6.686   4.494  0.2863 -1.0682  0.1951
 4282SOL     OW13744   2.752   0.674   5.479 -0.0120 -0.6486 -0.0280
 4282SOL    HW113745   2.772   0.684   5.382  0.9095 -0.3253  0.1828
 4282SOL    HW213746   2.800   0.595   5.516 -1.5437 -1.6640 -0.1360
 4283SOL     OW13747   0.487   2.864   3.366  0.2754  0.5086 -0.1952
 4283SOL    HW113748   0.567   2.806   3.379  1.4372  1.8233 -1.1676
 4283SOL    HW213749   0.433   2.830   3.289  1.3677  1.1064 -1.2614
 4284SOL     OW13750   6.377   3.671   5.777 -0.0912  0.3237  0.2408
 4284SOL    HW113751   6.461   3.617   5.780 -0.1789  0.1811  0.1466
 4284SOL    HW213752   6.305   3.619   5.730 -0.1998  0.4889  0.2224
 4285SOL     OW13753   0.061   3.894   3.922  0.4489  0.0993 -0.6468
 4285SOL    HW113754   0.123   3.822   3.890 -0.7817 -1.6487  0.7020
 4285SOL    HW213755   0.104   3.943   3.998  0.8989  0.1222 -0.9110
 4286SOL     OW13756   6.176   4.176   5.502 -0.0888  0.3014  0.7642
 4286SOL    HW113757   6.080   4.177   5.533  0.4943 -0.3335  2.7839
 4286SOL    HW213758   6.194   4.093   5.450 -0.6314  0.4417  0.3406
 4287SOL     OW13759   5.179   1.918   2.770  0.2374 -0.1858 -0.1502
 4287SOL    HW113760   5.087   1.956   2.778  0.4650  0.0722  1.5814
 4287SOL    HW213761   5.242   1.972   2.826  1.3341 -0.7450 -0.8153
 4288SOL     OW13762   2.124   5.522   0.384  0.1454  0.6770 -0.6319
 4288SOL    HW113763   2.073   5.565   0.309 -0.8003  1.1167  0.2449
 4288SOL    HW213764   2.060   5.486   0.452  0.9173  3.2209  1.6171
 4289SOL     OW13765   3.661   1.406   5.935  0.0533  0.0572  0.1746
 4289SOL    HW113766   3.634   1.341   5.864 -1.1195  0.5767  0.1188
 4289SOL    HW213767   3.754   1.386   5.965 -0.0507 -1.2343 -0.2993
 4290SOL     OW13768   6.912   6.237   6.709  0.1071  0.4092 -0.4016
 4290SOL    HW113769   6.865   6.304   6.767  1.7845  0.3889  1.0437
 4290SOL    HW213770   6.856   6.154   6.704 -0.1303  0.4324  1.1639
 4291SOL     OW13771   0.443   0.988   3.253  0.1197 -0.8893 -0.2369
 4291SOL    HW113772   0.365   1.047   3.228 -0.4023 -2.0393 -1.4526
 4291SOL    HW213773   0.420   0.936   3.335 -0.8270 -1.9525 -1.1443
 4292SOL     OW13774   2.889   1.850   2.216 -0.1019  0.0209  0.3317
 4292SOL    HW113775   2.909   1.929   2.275  0.3381  1.6614 -1.8997
 4292SOL    HW213776   2.962   1.782   2.224  0.7519  0.9403  0.4823
 4293SOL     OW13777   6.780   3.256   5.847  0.4779  0.1356 -0.5789
 4293SOL    HW113778   6.745   3.312   5.772  0.5262  0.2156 -0.5426
 4293SOL    HW213779   6.851   3.308   5.896 -0.2427  0.4716  0.1314
 4294SOL     OW13780   6.422   3.316   4.725 -0.3233 -0.4040  0.6554
 4294SOL    HW113781   6.509   3.268   4.734  1.1272  1.6956 -1.0546
 4294SOL    HW213782   6.376   3.286   4.641  1.2871  2.0159 -1.2211
 4295SOL     OW13783   4.060   3.705   2.158  0.2946 -0.0240 -0.0230
 4295SOL    HW113784   4.124   3.756   2.215  1.1778 -0.0861 -0.9304
 4295SOL    HW213785   4.088   3.711   2.063 -0.0653 -1.4982 -0.2515
 4296SOL     OW13786   4.682   2.651   6.393 -0.2360 -0.1698 -0.0792
 4296SOL    HW113787   4.613   2.711   6.352 -0.8292 -0.1194  0.9674
 4296SOL    HW213788   4.680   2.661   6.493  0.7208 -0.7882  0.0125
 4297SOL     OW13789   1.029   1.003   2.266 -0.0021  0.4349 -0.2152
 4297SOL    HW113790   1.108   0.953   2.231  0.8999  1.3311  0.4744
 4297SOL    HW213791   1.037   1.099   2.241 -0.9910  0.4940 -0.3203
 4298SOL     OW13792   1.273   5.642   2.428 -0.4276  0.0129  0.2443
 4298SOL    HW113793   1.294   5.733   2.392 -0.1301  0.7794  2.2138
 4298SOL    HW213794   1.191   5.607   2.383 -1.1128  1.6864  0.0840
 4299SOL     OW13795   2.276   1.524   1.090  0.4451 -0.4751 -0.4878
 4299SOL    HW113796   2.223   1.475   1.159 -0.3063  1.3493  0.2856
 4299SOL    HW213797   2.222   1.530   1.005  0.6828 -1.2503 -0.7045
 4300SOL     OW13798   2.412   0.014   0.780  0.5124  0.3853  0.2658
 4300SOL    HW113799   2.410  -0.085   0.795 -0.5252  0.0988 -1.5076
 4300SOL    HW213800   2.459   0.035   0.695  3.7110  1.7310  2.1801
 4301SOL     OW13801   2.496   3.781   0.753 -0.2581 -0.4648 -0.0653
 4301SOL    HW113802   2.480   3.866   0.703  0.0419  0.9769  2.1643
 4301SOL    HW213803   2.590   3.750   0.737 -0.1216  0.0524 -0.2596
 4302SOL     OW13804   3.118   5.324   2.234 -0.2962  0.6969 -0.1251
 4302SOL    HW113805   3.064   5.245   2.261  0.7502  0.3043  0.8981
 4302SOL    HW213806   3.200   5.330   2.291 -0.8598  3.1173  0.5321
 4303SOL     OW13807   6.718   0.040   4.782 -0.0018  0.1770 -0.5188
 4303SOL    HW113808   6.734  -0.038   4.842 -1.5391 -0.3879 -0.7842
 4303SOL    HW213809   6.657   0.105   4.828 -1.7307 -0.5730 -1.6528
 4304SOL     OW13810   5.702   0.790   6.862  0.2617 -0.4486 -0.3540
 4304SOL    HW113811   5.669   0.709   6.911  0.1075 -0.3490 -0.2960
 4304SOL    HW213812   5.766   0.761   6.791 -1.5495 -0.8451 -1.8939
 4305SOL     OW13813   5.715   6.688   5.912 -0.2561 -0.5610  0.5565
 4305SOL    HW113814   5.784   6.683   5.985 -0.5002 -1.4862  0.7495
 4305SOL    HW213815   5.746   6.635   5.833 -1.7964 -3.2903  1.6041
 4306SOL     OW13816   3.622   6.969   4.175  0.4717  0.1047  0.4412
 4306SOL    HW113817   3.620   6.970   4.275 -1.6364 -1.2018  0.4895
 4306SOL    HW213818   3.639   6.876   4.143 -0.6947  0.1447 -0.3657
 4307SOL     OW13819   2.447   2.056   0.875  0.5619  0.0570 -0.5672
 4307SOL    HW113820   2.397   2.103   0.802 -1.0977 -0.4669  0.1799
 4307SOL    HW213821   2.526   2.111   0.902 -1.1792  2.3870  0.1303
 4308SOL     OW13822   5.303   0.639   6.484 -0.2748  0.3860  0.0021
 4308SOL    HW113823   5.393   0.676   6.460 -1.2100  1.9711 -1.3102
 4308SOL    HW213824   5.258   0.699   6.550 -1.3018  0.9796 -1.1834
 4309SOL     OW13825   2.741   5.067   5.443  0.2212 -0.2174  0.5182
 4309SOL    HW113826   2.772   5.098   5.533  0.9294 -1.6335  0.7989
 4309SOL    HW213827   2.821   5.039   5.388 -0.2729 -0.1636 -0.2432
 4310SOL     OW13828   2.641   2.692   1.643  0.0843  0.7627 -0.6366
 4310SOL    HW113829   2.643   2.791   1.659  0.4531  0.6406  0.1033
 4310SOL    HW213830   2.734   2.658   1.630 -0.1002  0.6378 -1.7818
 4311SOL     OW13831   0.223   4.843   4.163  0.2696  0.4696 -0.2918
 4311SOL    HW113832   0.295   4.775   4.168 -1.2884 -1.1897  1.6736
 4311SOL    HW213833   0.253   4.927   4.209  1.6084  0.5502 -1.2608
 4312SOL     OW13834   5.552   4.673   2.302 -0.1905  0.0413  0.5123
 4312SOL    HW113835   5.503   4.656   2.216  1.7056  2.6725 -1.2422
 4312SOL    HW213836   5.486   4.698   2.373 -1.6254  0.7279 -0.9765
 4313SOL     OW13837   2.513   6.443   5.605  0.2985  0.5114  0.3646
 4313SOL    HW113838   2.608   6.448   5.637 -0.1087  0.8511  1.5840
 4313SOL    HW213839   2.455   6.410   5.679 -0.8577  2.3920  0.3444
 4314SOL     OW13840   1.777   3.260   1.914 -0.4701 -0.3075 -0.2106
 4314SOL    HW113841   1.830   3.345   1.922 -1.5272  0.2241  1.5582
 4314SOL    HW213842   1.835   3.189   1.874  0.8048  0.9143 -0.6140
 4315SOL     OW13843   1.663   4.550   2.242  0.5297  0.0232  0.1365
 4315SOL    HW113844   1.627   4.643   2.253 -0.0691 -0.5192  4.7911
 4315SOL    HW213845   1.755   4.545   2.279  0.1680 -1.4052  0.9299
 4316SOL     OW13846   1.664   1.536   1.524  0.6571 -0.0153 -0.6702
 4316SOL    HW113847   1.600   1.576   1.589  0.6178  1.0108 -1.3285
 4316SOL    HW213848   1.627   1.448   1.491 -0.8023  0.9068 -1.6074
 4317SOL     OW13849   1.295   1.359   4.881 -0.2995 -0.2827  0.2690
 4317SOL    HW113850   1.330   1.286   4.939 -0.0278 -0.5339 -0.2040
 4317SOL    HW213851   1.215   1.327   4.831  0.3248 -0.5453 -0.5842
 4318SOL     OW13852   5.557   0.895   1.005 -0.2733  0.1698  0.4386
 4318SOL    HW113853   5.477   0.853   0.963  0.1470  0.2462 -0.4757
 4318SOL    HW213854   5.638   0.838   0.988  0.3567  1.4249 -1.0655
 4319SOL     OW13855   2.629   6.609   0.146  0.3588  0.2394  0.4981
 4319SOL    HW113856   2.533   6.605   0.172  0.1982 -0.7858 -0.1886
 4319SOL    HW213857   2.644   6.551   0.066  1.8337 -0.8411  1.5077
 4320SOL     OW13858   0.196   5.782   6.801 -0.0316 -0.0081 -0.5532
 4320SOL    HW113859   0.110   5.815   6.839  0.0889 -0.6566  0.3143
 4320SOL    HW213860   0.241   5.721   6.866  0.6389 -0.4200 -1.3671
 4321SOL     OW13861   3.051   6.623   3.892 -0.0826 -0.0236  0.2887
 4321SOL    HW113862   3.071   6.654   3.799  2.6015 -1.5697  0.2328
 4321SOL    HW213863   2.953   6.607   3.902 -0.2947 -1.5690 -2.8998
 4322SOL     OW13864   2.582   6.722   5.193  0.0015  0.5318  0.4747
 4322SOL    HW113865   2.635   6.678   5.121 -0.4252  1.4653 -0.4348
 4322SOL    HW213866   2.485   6.699   5.182 -0.2014  1.5258  0.0971
 4323SOL     OW13867   4.538   0.163   5.538  0.6809  0.3112  0.0769
 4323SOL    HW113868   4.478   0.109   5.479 -0.3041  0.0746  1.2421
 4323SOL    HW213869   4.608   0.208   5.483  0.9306 -1.3570 -1.0379
 4324SOL     OW13870   2.878   6.126   0.141  0.0920  0.2402 -0.6119
 4324SOL    HW113871   2.965   6.132   0.190 -0.0930  0.2074 -0.2768
 4324SOL    HW213872   2.805   6.160   0.199 -0.2873 -0.7858 -0.4550
 4325SOL     OW13873   1.521   0.962   2.765 -0.2049  0.0345  0.4393
 4325SOL    HW113874   1.552   0.965   2.670  1.7661 -0.4149  1.0192
 4325SOL    HW213875   1.584   0.906   2.818 -1.0982  0.5362  2.0797
 4326SOL     OW13876   3.550   4.941   1.574  0.0006 -0.0809  0.7311
 4326SOL    HW113877   3.451   4.939   1.591 -0.6924 -0.7684 -2.7183
 4326SOL    HW213878   3.584   4.849   1.560 -0.1302  0.3650 -3.6741
 4327SOL     OW13879   6.726   6.902   3.851 -0.1270  0.1788  0.6396
 4327SOL    HW113880   6.794   6.962   3.807 -0.1482 -0.1399  0.1737
 4327SOL    HW213881   6.724   6.922   3.949 -0.1099  0.9236  0.4972
 4328SOL     OW13882   5.507   1.475   3.474  0.2673 -0.9565 -0.0464
 4328SOL    HW113883   5.548   1.439   3.558  0.0045 -1.6959 -0.2238
 4328SOL    HW213884   5.533   1.416   3.397  3.6792  1.7512 -1.2137
 4329SOL     OW13885   4.163   5.715   5.093  0.4762 -0.2499  0.5965
 4329SOL    HW113886   4.094   5.654   5.055  1.8882 -0.3998 -1.9243
 4329SOL    HW213887   4.246   5.710   5.038  3.2128 -1.3384  4.3709
 4330SOL     OW13888   3.557   2.815   0.992 -0.2245 -0.2399  0.1944
 4330SOL    HW113889   3.649   2.812   1.031 -0.7694  0.4803  1.5942
 4330SOL    HW213890   3.501   2.742   1.031 -0.3943 -0.3944 -0.3163
 4331SOL     OW13891   0.652   6.326   0.112 -0.0703 -0.1590 -0.1048
 4331SOL    HW113892   0.719   6.252   0.100  0.5023  0.2174  0.6956
 4331SOL    HW213893   0.568   6.289   0.152  0.2897 -0.3480  0.4869
 4332SOL     OW13894   6.700   4.386   1.365  0.0682  0.2817 -0.0072
 4332SOL    HW113895   6.696   4.398   1.464  1.5645  0.9076  0.0117
 4332SOL    HW213896   6.698   4.289   1.342 -0.0071  0.1284  0.6539
 4333SOL     OW13897   5.823   0.482   5.423 -0.1541  0.3856 -0.0738
 4333SOL    HW113898   5.893   0.461   5.354 -0.0672  1.2657 -0.2768
 4333SOL    HW213899   5.826   0.580   5.442 -0.3845  0.1928  0.9658
 4334SOL     OW13900   0.048   0.669   5.723 -0.1145  0.1944  0.6259
 4334SOL    HW113901  -0.043   0.681   5.762  0.1279 -0.3882  1.4015
 4334SOL    HW213902   0.047   0.694   5.626 -1.4347 -1.1443  0.2599
 4335SOL     OW13903   6.905   0.829   2.109  0.2866  0.6183 -0.0081
 4335SOL    HW113904   6.902   0.918   2.154  2.4944  0.2499  0.9915
 4335SOL    HW213905   6.821   0.816   2.055 -0.4887  2.8850  0.5402
 4336SOL     OW13906   3.231   1.711   5.463 -0.2763 -0.3067 -0.4425
 4336SOL    HW113907   3.285   1.733   5.381  0.9026  0.3593  0.4741
 4336SOL    HW213908   3.283   1.737   5.544 -1.3401 -1.1412  0.5347
 4337SOL     OW13909   4.407   5.536   6.027 -0.3803 -0.4801  0.7796
 4337SOL    HW113910   4.367   5.603   5.965  1.6988 -0.4392 -0.6337
 4337SOL    HW213911   4.355   5.451   6.022 -0.2697 -0.4883 -1.1187
 4338SOL     OW13912   1.570   5.362   0.782 -0.4186  0.2255  0.4559
 4338SOL    HW113913   1.482   5.345   0.827 -1.3863 -0.2142 -1.5108
 4338SOL    HW213914   1.640   5.382   0.851 -2.1021  0.8098  2.0541
 4339SOL     OW13915   1.069   6.638   2.307 -0.2865 -0.1707  0.0811
 4339SOL    HW113916   1.109   6.725   2.335 -0.9355  0.0987  0.1691
 4339SOL    HW213917   0.970   6.642   2.316 -0.3897 -0.6049 -0.7820
 4340SOL     OW13918   3.060   3.019   6.553  0.7128  0.0365 -0.3293
 4340SOL    HW113919   3.090   2.955   6.624 -2.1442 -0.8511  0.2153
 4340SOL    HW213920   3.012   2.969   6.481  1.8906  1.1579 -1.9439
 4341SOL     OW13921   6.225   1.365   3.695  0.2134  0.3796 -0.1084
 4341SOL    HW113922   6.183   1.310   3.768 -0.9131  1.3692  0.0179
 4341SOL    HW213923   6.154   1.403   3.636  1.1254 -3.0543 -3.8456
 4342SOL     OW13924   0.793   3.090   4.944  0.5282  0.2915 -0.4221
 4342SOL    HW113925   0.790   3.064   5.040 -1.0444  1.0582 -0.2213
 4342SOL    HW213926   0.811   3.188   4.937  1.4860  0.0878 -0.9545
 4343SOL     OW13927   1.604   6.846   0.863  0.1799  0.0742  0.5420
 4343SOL    HW113928   1.663   6.769   0.842  0.7432  0.4782  0.6165
 4343SOL    HW213929   1.570   6.837   0.957  0.9094  0.3328  0.8388
 4344SOL     OW13930   2.646   1.760   1.808 -0.4248 -0.2671  0.3943
 4344SOL    HW113931   2.578   1.769   1.880  0.4463 -0.1475  1.2178
 4344SOL    HW213932   2.735   1.792   1.841  0.2170 -1.1702 -0.3873
 4345SOL     OW13933   0.423   6.097   4.940  0.3106 -0.4304 -0.0246
 4345SOL    HW113934   0.396   6.175   4.997 -0.6164 -0.8621  0.1401
 4345SOL    HW213935   0.452   6.129   4.850 -2.4854 -0.0228 -0.8757
 4346SOL     OW13936   6.863   3.569   1.225 -0.3348  0.5532 -0.2355
 4346SOL    HW113937   6.842   3.478   1.191  0.5477  0.9964 -2.1000
 4346SOL    HW213938   6.840   3.575   1.322  0.2318 -1.8621  0.1049
 4347SOL     OW13939   0.257   4.242   6.226  0.0585 -0.1984  0.5649
 4347SOL    HW113940   0.267   4.311   6.298  1.3040 -1.3994  1.6130
 4347SOL    HW213941   0.202   4.166   6.261 -0.4082 -0.2174 -0.2038
 4348SOL     OW13942   5.621   5.308   1.667  0.4798  0.1437  0.9625
 4348SOL    HW113943   5.547   5.271   1.723  0.4974 -0.5387  0.5472
 4348SOL    HW213944   5.618   5.267   1.576  0.7863  0.8302  0.6332
 4349SOL     OW13945   1.687   1.750   1.953  0.3023 -0.2762 -0.0684
 4349SOL    HW113946   1.627   1.803   1.894 -0.8012 -1.0093  0.3601
 4349SOL    HW213947   1.782   1.766   1.927 -0.0997  0.4464 -1.1559
 4350SOL     OW13948   6.013   2.348   3.590 -0.6978 -0.3992  0.6039
 4350SOL    HW113949   5.969   2.259   3.579 -3.1185  0.6680  1.0121
 4350SOL    HW213950   5.945   2.421   3.580  0.0821  1.2777  5.0171
 4351SOL     OW13951   5.898   3.347   6.116  0.0634 -0.2551  0.1240
 4351SOL    HW113952   5.857   3.385   6.034  1.7627  0.5049 -0.4264
 4351SOL    HW213953   5.834   3.284   6.160 -2.6280  2.5988  0.6773
 4352SOL     OW13954   1.787   5.020   2.751  0.0833 -0.0791  0.1098
 4352SOL    HW113955   1.865   4.961   2.731 -0.6556 -0.6830 -1.1644
 4352SOL    HW213956   1.735   4.983   2.828  0.5592 -0.1466  0.4017
 4353SOL     OW13957   4.556   0.706   0.838 -0.1470 -0.2132 -0.1772
 4353SOL    HW113958   4.653   0.722   0.857 -0.1283  1.1299 -1.2609
 4353SOL    HW213959   4.522   0.633   0.898  1.2170  0.1242  1.0685
 4354SOL     OW13960   1.633   5.747   5.884  0.4113  0.2941 -0.2725
 4354SOL    HW113961   1.598   5.715   5.796  0.9259 -1.0173 -0.0322
 4354SOL    HW213962   1.557   5.751   5.950  0.0999  0.8716 -0.6600
 4355SOL     OW13963   1.905   2.998   0.342 -0.6905 -0.6072 -0.4316
 4355SOL    HW113964   1.807   3.016   0.343 -0.5950  0.1055  1.7561
 4355SOL    HW213965   1.939   2.997   0.436  1.4549 -0.5460 -1.1621
 4356SOL     OW13966   3.818   5.220   3.552 -0.1646 -0.1671 -0.4284
 4356SOL    HW113967   3.718   5.226   3.550 -0.3336 -2.1900 -2.1024
 4356SOL    HW213968   3.850   5.223   3.646 -2.1001 -2.6056  0.4071
 4357SOL     OW13969   6.824   1.671   5.181  0.2480  0.7774 -0.3061
 4357SOL    HW113970   6.900   1.715   5.133  1.2849  0.1336  0.7076
 4357SOL    HW213971   6.740   1.723   5.164  0.8743  1.4471 -1.5285
 4358SOL     OW13972   0.887   5.754   6.929  0.3012 -0.3957  0.2237
 4358SOL    HW113973   0.927   5.663   6.928  2.5602  0.5248 -0.1213
 4358SOL    HW213974   0.922   5.805   7.007  0.2349  0.6463 -0.4067
 4359SOL     OW13975   2.526   3.516   6.994  0.1066  0.7554  0.6722
 4359SOL    HW113976   2.531   3.517   6.895 -0.1365  1.1544  0.6645
 4359SOL    HW213977   2.470   3.438   7.024  1.5780 -0.4017  0.5694
 4360SOL     OW13978   0.838   5.142   3.132  0.2229  0.2005 -0.2924
 4360SOL    HW113979   0.841   5.043   3.144  1.4882  0.2957  0.3016
 4360SOL    HW213980   0.747   5.176   3.155  0.0019 -0.7277  0.2348
 4361SOL     OW13981   1.850   5.043   2.179  0.0855  0.2207 -0.4209
 4361SOL    HW113982   1.915   4.999   2.117 -0.2257 -1.2285  0.2223
 4361SOL    HW213983   1.895   5.061   2.266  0.0781  0.7306 -0.5244
 4362SOL     OW13984   4.674   5.236   0.909 -0.3464  0.2308  0.4174
 4362SOL    HW113985   4.716   5.208   0.995  0.6585  1.1984  0.2572
 4362SOL    HW213986   4.603   5.303   0.926  0.1781  0.7804  0.4664
 4363SOL     OW13987   5.405   0.964   5.486 -0.0323 -0.2371 -0.4087
 4363SOL    HW113988   5.460   1.038   5.526  1.1490 -0.8644 -0.8240
 4363SOL    HW213989   5.310   0.995   5.476 -0.1169  0.3347  1.7552
 4364SOL     OW13990   2.773   6.186   0.419 -0.2223 -0.1073 -0.0546
 4364SOL    HW113991   2.835   6.108   0.409  1.0226  0.6230  1.5542
 4364SOL    HW213992   2.798   6.239   0.499 -2.0790  1.0444 -0.1617
 4365SOL     OW13993   0.755   6.569   6.085  0.5347 -0.3696 -0.4463
 4365SOL    HW113994   0.767   6.656   6.132  0.2907 -0.6257  0.1089
 4365SOL    HW213995   0.839   6.516   6.091  0.2802 -0.6991  0.3442
 4366SOL     OW13996   6.579   6.798   6.604  0.1957 -0.0121  0.0512
 4366SOL    HW113997   6.503   6.858   6.623 -0.7099 -0.6609 -1.3302
 4366SOL    HW213998   6.640   6.841   6.537  1.7087  0.9881  1.9910
 4367SOL     OW13999   0.890   3.295   2.292  0.3794  0.1713 -0.3861
 4367SOL    HW114000   0.940   3.222   2.245 -0.1235  0.5556 -1.5698
 4367SOL    HW214001   0.833   3.343   2.226  1.3501  2.1958  0.1760
 4368SOL     OW14002   3.923   1.806   4.078 -0.2473 -0.5374 -0.7309
 4368SOL    HW114003   3.915   1.871   4.003 -1.9850 -1.2310 -1.1824
 4368SOL    HW214004   3.903   1.853   4.165  0.7355  0.0120 -0.7747
 4369SOL     OW14005   2.941   2.435   6.998 -0.3301 -0.6881  0.1726
 4369SOL    HW114006   2.878   2.491   7.053 -1.2733 -0.8501 -0.7156
 4369SOL    HW214007   3.031   2.479   6.997 -0.7234  0.1679  0.5097
 4370SOL     OW14008   6.365   3.103   5.447 -0.3352  0.5247 -0.4597
 4370SOL    HW114009   6.318   3.119   5.534  1.0736  0.7946  0.2917
 4370SOL    HW214010   6.320   3.029   5.398 -0.2144 -0.7587  1.2601
 4371SOL     OW14011   5.816   2.004   1.881 -0.1052  1.0597 -0.3355
 4371SOL    HW114012   5.896   2.058   1.906 -0.9586  2.1205  0.2306
 4371SOL    HW214013   5.734   2.050   1.915 -0.8048 -1.2456  1.3090
 4372SOL     OW14014   0.776   6.668   2.302  0.0499 -0.1966  0.3172
 4372SOL    HW114015   0.787   6.608   2.381 -0.0462  0.2113  0.6384
 4372SOL    HW214016   0.687   6.652   2.259 -0.6769  0.8731  1.3784
 4373SOL     OW14017   0.787   5.374   4.180 -0.1765 -0.4772 -0.8939
 4373SOL    HW114018   0.802   5.276   4.166 -0.6436 -0.7082  0.1340
 4373SOL    HW214019   0.710   5.388   4.242  2.0654  0.4246  1.9035
 4374SOL     OW14020   5.194   0.196   6.199  0.4255  0.2485  0.2090
 4374SOL    HW114021   5.167   0.290   6.219 -2.9382  0.0314 -2.3813
 4374SOL    HW214022   5.193   0.181   6.100  0.6090 -2.5772  0.5466
 4375SOL     OW14023   5.566   5.395   6.141  0.9540 -0.3414 -0.1867
 4375SOL    HW114024   5.650   5.369   6.188  1.6095 -0.9459 -1.6300
 4375SOL    HW214025   5.557   5.342   6.056  0.5662  1.6984 -1.4983
 4376SOL     OW14026   1.768   6.893   3.476  0.5048 -0.6866  0.1382
 4376SOL    HW114027   1.746   6.975   3.423  0.5261 -0.7568  0.0219
 4376SOL    HW214028   1.702   6.821   3.455 -1.6199  0.3391  2.7069
 4377SOL     OW14029   4.143   3.605   6.318  0.5909  0.3863  0.4459
 4377SOL    HW114030   4.171   3.689   6.271  2.0381  0.0018  0.5725
 4377SOL    HW214031   4.153   3.527   6.255 -0.3455  0.2340  0.4635
 4378SOL     OW14032   2.236   5.260   0.975 -0.2052  0.0628  0.8793
 4378SOL    HW114033   2.274   5.184   0.924 -0.4776  0.7545 -0.3864
 4378SOL    HW214034   2.307   5.301   1.033 -0.0553 -1.1176  1.5523
 4379SOL     OW14035   6.427   0.522   5.422 -0.9044  0.0575 -0.0682
 4379SOL    HW114036   6.485   0.474   5.487  0.5673  0.8214 -0.7747
 4379SOL    HW214037   6.472   0.607   5.393 -2.3000  0.5889 -0.7771
 4380SOL     OW14038   5.935   2.235   4.232 -0.7341 -0.2290  0.0080
 4380SOL    HW114039   5.879   2.307   4.272 -0.2737  0.8487 -1.1999
 4380SOL    HW214040   5.901   2.214   4.140  0.9527  0.6672 -0.8835
 4381SOL     OW14041   3.727   1.285   2.442  0.2253  1.0528 -0.0711
 4381SOL    HW114042   3.743   1.253   2.348 -0.8573  3.7516 -1.2582
 4381SOL    HW214043   3.814   1.298   2.488  0.8078  0.5701 -1.0049
 4382SOL     OW14044   5.492   6.811   3.488  0.1431  0.7479  0.4994
 4382SOL    HW114045   5.422   6.880   3.474  1.3757  1.8401 -0.5602
 4382SOL    HW214046   5.480   6.736   3.423 -2.1711 -0.9483  2.6951
 4383SOL     OW14047   0.647   0.851   5.080  0.4689 -0.3118  0.1459
 4383SOL    HW114048   0.635   0.859   4.981 -0.8132 -1.1196  0.2175
 4383SOL    HW214049   0.637   0.755   5.107  1.3501 -0.1800  1.0027
 4384SOL     OW14050   5.725   3.278   4.527 -0.1856 -0.1209  0.1590
 4384SOL    HW114051   5.662   3.201   4.515 -0.4977 -0.0019  0.9691
 4384SOL    HW214052   5.672   3.363   4.536  0.0626 -0.0413  1.0017
 4385SOL     OW14053   3.615   3.672   4.968  0.1624 -0.3325 -0.3721
 4385SOL    HW114054   3.705   3.629   4.958  0.7452  0.5465  0.8731
 4385SOL    HW214055   3.544   3.602   4.970  0.7436 -1.0154 -1.9121
 4386SOL     OW14056   3.475   5.636   1.625  0.1442 -0.1569  0.1894
 4386SOL    HW114057   3.443   5.704   1.558  1.1699  0.1260 -0.0287
 4386SOL    HW214058   3.422   5.552   1.615  0.1893 -0.0699 -0.8906
 4387SOL     OW14059   6.551   3.420   1.599 -0.1150 -0.8113 -0.2759
 4387SOL    HW114060   6.585   3.448   1.689  1.5384 -0.6920 -0.9128
 4387SOL    HW214061   6.516   3.501   1.551 -0.8165 -0.8426  0.1583
 4388SOL     OW14062   0.192   2.948   2.724 -0.3037  0.5106 -0.1645
 4388SOL    HW114063   0.197   3.028   2.664 -1.1333  0.1814 -0.6946
 4388SOL    HW214064   0.267   2.952   2.791 -0.1673  1.5838 -0.3505
 4389SOL     OW14065   5.544   6.844   4.505  0.1201  0.7316  0.1512
 4389SOL    HW114066   5.618   6.841   4.438  0.7221 -2.6916  0.7660
 4389SOL    HW214067   5.460   6.809   4.464  0.6589 -2.0593  1.2087
 4390SOL     OW14068   1.630   6.811   1.370  0.2836 -0.2872  0.1972
 4390SOL    HW114069   1.728   6.831   1.365  0.6636 -2.3072 -1.9201
 4390SOL    HW214070   1.589   6.820   1.279 -1.1579 -1.0382  0.7375
 4391SOL     OW14071   2.789   3.022   0.601  0.0969 -0.2202 -0.2160
 4391SOL    HW114072   2.828   2.936   0.566  0.8301 -0.2031  0.5492
 4391SOL    HW214073   2.702   3.039   0.555  0.4863 -0.7896 -1.2048
 4392SOL     OW14074   3.172   5.303   3.549  0.1145 -0.0160  0.1699
 4392SOL    HW114075   3.106   5.378   3.543  0.4311  0.4051  1.5553
 4392SOL    HW214076   3.190   5.266   3.457 -2.3267 -0.4136 -0.2268
 4393SOL     OW14077   3.655   1.671   6.824 -0.2834 -0.4972 -0.0418
 4393SOL    HW114078   3.700   1.757   6.849  0.7724 -0.6587 -1.2951
 4393SOL    HW214079   3.560   1.672   6.856 -0.0503  0.7988  0.6508
 4394SOL     OW14080   4.119   2.971   5.998  0.2095 -0.0840 -0.1422
 4394SOL    HW114081   4.080   3.021   6.076 -0.9848  0.7012 -1.1783
 4394SOL    HW214082   4.058   2.895   5.974  0.2291  0.0673 -0.6835
 4395SOL     OW14083   1.894   4.107   6.064 -0.6895  0.1867  0.1660
 4395SOL    HW114084   1.972   4.091   6.124  0.3276  1.3393 -0.7836
 4395SOL    HW214085   1.927   4.139   5.975 -2.2735  1.4781  0.0074
 4396SOL     OW14086   6.268   5.565   3.456  0.2896 -0.1566  0.9587
 4396SOL    HW114087   6.227   5.595   3.543  1.6653  1.1263  1.2071
 4396SOL    HW214088   6.225   5.479   3.427 -1.9642  0.6768  1.5931
 4397SOL     OW14089   5.418   4.938   0.407 -0.2619  0.0581  0.3166
 4397SOL    HW114090   5.498   4.941   0.347  0.1284  0.2722  0.8303
 4397SOL    HW214091   5.345   4.996   0.370  0.3221  0.9485  0.5187
 4398SOL     OW14092   2.015   0.143   1.498  0.4130  0.0865 -0.4277
 4398SOL    HW114093   2.096   0.092   1.527  0.1163 -0.9292 -1.3208
 4398SOL    HW214094   1.937   0.117   1.555  0.3888 -0.0431 -0.5191
 4399SOL     OW14095   1.703   0.322   2.803 -0.4930 -0.8921  1.1011
 4399SOL    HW114096   1.766   0.368   2.865 -1.2585  0.1425  1.1310
 4399SOL    HW214097   1.701   0.224   2.825 -0.0432 -0.6966  2.0903
 4400SOL     OW14098   4.881   3.168   5.151 -0.3564  0.4322  0.4100
 4400SOL    HW114099   4.793   3.172   5.198  0.4522 -0.1812  2.0739
 4400SOL    HW214100   4.909   3.260   5.125  0.0490  1.0950  2.9492
 4401SOL     OW14101   3.404   1.455   5.742  0.1508  0.4975  0.0752
 4401SOL    HW114102   3.375   1.389   5.811 -1.0258 -0.3500 -1.1723
 4401SOL    HW214103   3.406   1.546   5.782  0.3996 -0.0787  1.4555
 4402SOL     OW14104   1.602   4.504   6.328 -0.1803 -0.4228 -0.1282
 4402SOL    HW114105   1.626   4.599   6.308 -1.4435  0.0253  0.3967
 4402SOL    HW214106   1.658   4.470   6.403  0.2394 -0.0818 -0.2846
 4403SOL     OW14107   6.872   3.869   5.159  0.1146 -0.0291  0.3333
 4403SOL    HW114108   6.959   3.887   5.205  0.9082 -1.7657 -0.3816
 4403SOL    HW214109   6.884   3.880   5.060  0.2109 -2.5208  0.0111
 4404SOL     OW14110   6.870   2.607   3.438 -0.3525 -0.2615  0.5634
 4404SOL    HW114111   6.897   2.534   3.500  1.7832 -0.2572 -0.2739
 4404SOL    HW214112   6.943   2.676   3.434 -0.5598 -0.0850 -1.6511
 4405SOL     OW14113   1.459   3.360   1.627 -0.0775  0.1320  0.2930
 4405SOL    HW114114   1.360   3.350   1.621 -0.1874  1.4979 -0.5299
 4405SOL    HW214115   1.501   3.312   1.550  0.0007 -1.3299  1.2042
 4406SOL     OW14116   6.311   3.159   3.351 -0.5472 -0.2155 -0.7002
 4406SOL    HW114117   6.283   3.091   3.418 -0.9684  1.1577  0.5712
 4406SOL    HW214118   6.231   3.209   3.319 -0.1423  0.3305 -0.8810
 4407SOL     OW14119   1.599   0.754   2.317  0.4233  0.4521  0.1234
 4407SOL    HW114120   1.549   0.667   2.321  1.9718 -0.5110 -0.5661
 4407SOL    HW214121   1.591   0.794   2.226  0.4426  0.5722  0.1742
 4408SOL     OW14122   1.613   1.754   0.577  0.2846 -0.1364 -0.0462
 4408SOL    HW114123   1.582   1.849   0.571 -1.5014 -0.6950 -0.2858
 4408SOL    HW214124   1.549   1.703   0.635 -0.3986 -1.8004 -2.1738
 4409SOL     OW14125   3.011   5.322   5.371  0.3113 -0.0774  0.1469
 4409SOL    HW114126   2.989   5.225   5.358  1.8431 -0.7120  1.8225
 4409SOL    HW214127   3.102   5.341   5.333  0.4391  0.4515  0.7009
 4410SOL     OW14128   4.249   2.342   3.150 -0.2146 -0.1883 -0.6347
 4410SOL    HW114129   4.320   2.343   3.220  0.3108  0.7488 -1.1503
 4410SOL    HW214130   4.270   2.412   3.081 -1.3934 -0.2216 -1.0459
 4411SOL     OW14131   3.923   1.117   0.452  0.1485 -0.0917 -0.0602
 4411SOL    HW114132   4.020   1.120   0.427  0.1459 -3.2646 -0.8894
 4411SOL    HW214133   3.915   1.094   0.549  0.1589  1.8669  0.4462
 4412SOL     OW14134   5.162   2.466   2.339  0.2318  0.0725 -0.0313
 4412SOL    HW114135   5.197   2.393   2.397  0.3856 -0.9572 -1.3699
 4412SOL    HW214136   5.143   2.546   2.394 -1.4517 -1.4731  1.7823
 4413SOL     OW14137   3.073   3.829   3.720  0.2657  0.0227  0.0349
 4413SOL    HW114138   3.003   3.811   3.651  0.1079  0.5240  0.0604
 4413SOL    HW214139   3.163   3.833   3.676  0.0314  1.6746 -0.3746
 4414SOL     OW14140   5.470   5.314   4.617  0.5165  0.2674 -0.2311
 4414SOL    HW114141   5.526   5.312   4.534 -1.5881 -0.0943 -1.7214
 4414SOL    HW214142   5.429   5.405   4.627 -1.4120 -0.4325 -1.1950
 4415SOL     OW14143   1.446   1.186   6.471  0.3798 -0.0248 -0.0577
 4415SOL    HW114144   1.413   1.267   6.518  0.5333  1.0966 -1.7832
 4415SOL    HW214145   1.410   1.104   6.515 -1.3229  1.0334  0.5920
 4416SOL     OW14146   5.715   4.921   5.738 -0.6977  0.1119  0.4053
 4416SOL    HW114147   5.801   4.964   5.712  0.3228 -1.7509  0.5641
 4416SOL    HW214148   5.658   4.909   5.656 -0.3254  0.3262  0.1104
 4417SOL     OW14149   0.138   6.395   6.321  0.4508 -0.1053 -0.1362
 4417SOL    HW114150   0.076   6.413   6.246  1.2826 -0.5262 -0.9440
 4417SOL    HW214151   0.092   6.414   6.408 -0.1524  1.4656 -0.7707
 4418SOL     OW14152   5.454   6.776   5.280  0.1313  0.5483 -0.2044
 4418SOL    HW114153   5.528   6.786   5.214 -0.1792  0.9712 -0.4971
 4418SOL    HW214154   5.481   6.814   5.368  0.0588  1.2214 -0.4701
 4419SOL     OW14155   6.303   4.065   2.354  0.4603  0.1547 -0.6632
 4419SOL    HW114156   6.388   4.034   2.311 -0.7177 -4.2052 -0.3362
 4419SOL    HW214157   6.313   4.063   2.453  0.4585  1.4129 -0.6209
 4420SOL     OW14158   5.855   6.328   4.246  0.0006  0.0557  0.6527
 4420SOL    HW114159   5.787   6.393   4.278  0.4065  1.2493 -0.8019
 4420SOL    HW214160   5.821   6.280   4.165  0.9382  0.8306 -0.2295
 4421SOL     OW14161   2.386   2.381   0.379 -0.0726 -0.3241  0.0617
 4421SOL    HW114162   2.482   2.352   0.369 -0.6968 -2.4671 -0.0849
 4421SOL    HW214163   2.360   2.378   0.475 -0.1188 -0.1048  0.0579
 4422SOL     OW14164   4.434   0.169   5.138 -0.2947  0.0500  0.3415
 4422SOL    HW114165   4.499   0.239   5.167  0.2936 -0.4818  0.3232
 4422SOL    HW214166   4.341   0.204   5.148 -0.2454 -0.4050  3.8993
 4423SOL     OW14167   6.072   1.962   0.064 -0.4842  0.1782 -0.2096
 4423SOL    HW114168   6.052   1.864   0.063  2.3607 -0.4841 -0.8050
 4423SOL    HW214169   6.013   2.008  -0.003 -0.4045 -1.4906 -1.5047
 4424SOL     OW14170   1.306   3.762   6.534 -0.1544  0.1988  0.7856
 4424SOL    HW114171   1.402   3.736   6.542 -0.5982 -2.1988 -0.6736
 4424SOL    HW214172   1.267   3.720   6.452 -1.9930  2.6651  0.2836
 4425SOL     OW14173   0.255   4.705   3.430 -1.1570  0.0130  0.1326
 4425SOL    HW114174   0.257   4.804   3.414 -0.2186 -0.2248 -1.4431
 4425SOL    HW214175   0.332   4.680   3.489  0.7664 -0.1388 -2.2590
 4426SOL     OW14176   1.972   4.191   0.801  0.1251 -0.1331 -0.5433
 4426SOL    HW114177   2.062   4.148   0.812 -0.6986 -1.4827  1.4336
 4426SOL    HW214178   1.969   4.276   0.853  0.7810  0.8630 -2.0521
 4427SOL     OW14179   4.007   5.527   3.862  0.2482  0.1704  0.0790
 4427SOL    HW114180   3.951   5.596   3.816  1.1422  0.3025 -0.8552
 4427SOL    HW214181   3.964   5.501   3.948 -3.0302 -2.0866 -1.9896
 4428SOL     OW14182   0.502   2.569   4.087  0.0839  0.1769  0.1446
 4428SOL    HW114183   0.570   2.587   4.016  0.3410 -0.3467  0.2550
 4428SOL    HW214184   0.536   2.602   4.175  0.1823 -0.0544  0.1940
 4429SOL     OW14185   6.115   0.246   6.979  0.3099  1.2169  0.2233
 4429SOL    HW114186   6.119   0.321   6.914  0.3037  2.5440  1.7089
 4429SOL    HW214187   6.186   0.179   6.957  1.1818  2.2947 -0.3553
 4430SOL     OW14188   4.152   6.154   5.151 -0.1010 -0.5350 -0.0845
 4430SOL    HW114189   4.217   6.164   5.075 -0.0164  2.4299  0.2617
 4430SOL    HW214190   4.199   6.171   5.237 -0.7916 -1.1217  0.4223
 4431SOL     OW14191   5.014   6.407   4.047 -0.2037 -0.4481 -0.4427
 4431SOL    HW114192   4.951   6.330   4.046 -0.1701 -0.4671 -1.2324
 4431SOL    HW214193   5.005   6.459   3.962 -2.2132  2.0575  1.1552
 4432SOL     OW14194   4.220   1.937   0.997 -0.4402 -0.3751 -0.2615
 4432SOL    HW114195   4.192   1.857   0.945 -2.1787  0.7805 -1.1814
 4432SOL    HW214196   4.190   2.020   0.950 -1.4063  0.7459  2.1548
 4433SOL     OW14197   3.606   2.892   3.865  0.1053 -0.3771  0.8633
 4433SOL    HW114198   3.638   2.986   3.871 -0.1354 -0.3144  1.1965
 4433SOL    HW214199   3.603   2.863   3.769 -0.0231  0.0270  0.7455
 4434SOL     OW14200   6.683   6.870   2.006  0.1271 -0.0309  0.0758
 4434SOL    HW114201   6.589   6.902   1.995 -0.2122  0.2839  3.0896
 4434SOL    HW214202   6.706   6.866   2.103  2.6725 -1.8238 -0.4889
 4435SOL     OW14203   0.086   3.880   2.739  0.4202 -0.0996  0.1471
 4435SOL    HW114204   0.125   3.965   2.703  0.8358 -0.3956 -0.1175
 4435SOL    HW214205   0.027   3.840   2.669  0.5143 -0.2151  0.1344
 4436SOL     OW14206   5.518   3.133   5.777 -0.2496 -0.1618 -0.1066
 4436SOL    HW114207   5.432   3.099   5.739 -0.9857  1.1708  0.3044
 4436SOL    HW214208   5.500   3.179   5.864  1.0471 -0.8406  0.5460
 4437SOL     OW14209   0.838   3.188   3.373 -0.5398 -0.1858  0.0492
 4437SOL    HW114210   0.745   3.167   3.404  0.1224 -1.0581  1.5721
 4437SOL    HW214211   0.904   3.152   3.439  0.9387 -0.6620 -1.6080
 4438SOL     OW14212   2.309   1.046   2.787  0.1150  0.0678 -0.2744
 4438SOL    HW114213   2.387   1.104   2.811 -0.0331  0.7762 -1.4248
 4438SOL    HW214214   2.242   1.049   2.861  0.4885  0.6923  0.0509
 4439SOL     OW14215   1.754   6.517   5.728 -0.4303  0.0281  0.7232
 4439SOL    HW114216   1.733   6.451   5.655  3.5912  0.7291 -1.3727
 4439SOL    HW214217   1.801   6.469   5.802 -0.9403 -0.0294  1.0162
 4440SOL     OW14218   3.778   0.629   0.871  0.1943  0.1594 -0.1931
 4440SOL    HW114219   3.747   0.671   0.786 -0.0164  0.7748  0.1759
 4440SOL    HW214220   3.748   0.686   0.948 -0.9889 -1.2009  0.3927
 4441SOL     OW14221   5.077   2.582   0.105  0.4625 -0.3638  0.2174
 4441SOL    HW114222   5.016   2.657   0.130  1.7413  1.4526 -1.8637
 4441SOL    HW214223   5.161   2.587   0.159  0.9381  0.2695 -0.5780
 4442SOL     OW14224   5.825   2.741   4.404  0.0673 -0.5750  0.7919
 4442SOL    HW114225   5.766   2.729   4.324 -0.2851  0.7577  0.8399
 4442SOL    HW214226   5.773   2.784   4.478  1.1723  0.9754  0.7034
 4443SOL     OW14227   7.008   0.350   6.816 -0.2761 -0.0166  0.2157
 4443SOL    HW114228   6.927   0.408   6.818 -0.0907  0.2638 -0.2888
 4443SOL    HW214229   7.003   0.288   6.738 -1.1309 -1.6591  1.5019
 4444SOL     OW14230   5.390   5.936   5.799  0.0923  0.9460 -0.0803
 4444SOL    HW114231   5.423   5.869   5.867  1.4108  1.3636 -0.2754
 4444SOL    HW214232   5.388   6.027   5.840  3.1798  1.6411 -1.1352
 4445SOL     OW14233   4.226   2.644   5.601  0.1202  0.3680  0.2717
 4445SOL    HW114234   4.192   2.554   5.631  1.5836  0.6578  3.1375
 4445SOL    HW214235   4.322   2.637   5.576  0.4095  1.2385  1.1098
 4446SOL     OW14236   1.149   6.321   3.631 -0.0961  0.3076 -0.1223
 4446SOL    HW114237   1.182   6.296   3.540 -0.3896  0.6071 -0.3114
 4446SOL    HW214238   1.188   6.258   3.699  0.8837  0.6665 -0.3340
 4447SOL     OW14239   4.290   6.021   0.861 -0.1273 -0.0145  0.4306
 4447SOL    HW114240   4.197   6.001   0.831  0.4843 -1.7931 -0.4395
 4447SOL    HW214241   4.305   6.120   0.861 -1.6598  0.2524 -0.4851
 4448SOL     OW14242   3.696   6.206   1.333 -0.0391  0.2357  0.2406
 4448SOL    HW114243   3.784   6.164   1.355  1.3904  1.2423 -2.9399
 4448SOL    HW214244   3.650   6.153   1.262 -1.0034  0.9044  0.3380
 4449SOL     OW14245   6.938   6.400   2.016  0.1941  0.5088  0.4946
 4449SOL    HW114246   7.029   6.376   2.050  0.1391  1.2188  1.1875
 4449SOL    HW214247   6.878   6.320   2.021  1.0106 -0.2206 -0.8428
 4450SOL     OW14248   2.994   6.707   2.880 -0.1985  0.1217  0.4780
 4450SOL    HW114249   2.990   6.612   2.908  1.5371 -0.5610 -1.3236
 4450SOL    HW214250   3.070   6.753   2.925 -0.3459  0.3416  0.5054
 4451SOL     OW14251   5.564   1.087   1.745  0.3606 -0.6780  0.0481
 4451SOL    HW114252   5.555   0.988   1.760  0.9544 -0.8861 -0.8889
 4451SOL    HW214253   5.601   1.103   1.654  0.7679  0.3950  0.3927
 4452SOL     OW14254   6.879   0.837   6.999  0.0143  0.3632 -0.0755
 4452SOL    HW114255   6.921   0.867   7.085  1.5039  1.0183 -0.9895
 4452SOL    HW214256   6.828   0.752   7.014  0.0688  0.5852  1.4892
 4453SOL     OW14257   1.910   1.928   4.440 -0.1778 -0.6124  0.1942
 4453SOL    HW114258   1.882   1.948   4.534  0.9032 -0.4691  0.5038
 4453SOL    HW214259   1.926   2.013   4.391  1.9502 -0.6470  0.7429
 4454SOL     OW14260   6.668   5.327   0.726 -0.1929 -0.8498 -0.0243
 4454SOL    HW114261   6.662   5.363   0.819  2.2573 -1.5182  0.4546
 4454SOL    HW214262   6.579   5.338   0.681 -0.9031  1.2857  1.6935
 4455SOL     OW14263   5.677   3.156   5.273 -0.5707 -0.1963 -0.3046
 4455SOL    HW114264   5.686   3.160   5.173 -0.8621 -1.3793 -0.3931
 4455SOL    HW214265   5.603   3.217   5.301 -0.3408  0.3182 -0.7855
 4456SOL     OW14266   6.240   1.117   6.345  0.0147 -0.1119  0.9242
 4456SOL    HW114267   6.315   1.153   6.290  1.8876  0.1791  3.4623
 4456SOL    HW214268   6.190   1.047   6.294  0.6302  1.1950 -1.6159
 4457SOL     OW14269   5.877   1.163   6.600 -0.2985  0.3730  0.0269
 4457SOL    HW114270   5.801   1.124   6.652  0.6099  1.0958  1.9970
 4457SOL    HW214271   5.883   1.261   6.620  0.1959  0.6370 -1.3448
 4458SOL     OW14272   0.351   1.616   4.854  0.0229  0.5447 -0.3122
 4458SOL    HW114273   0.305   1.611   4.765  0.7295 -1.4594 -0.6109
 4458SOL    HW214274   0.429   1.678   4.847  0.3067  0.1036 -1.2109
 4459SOL     OW14275   2.554   2.342   6.458  0.0509 -0.2434 -0.4071
 4459SOL    HW114276   2.571   2.437   6.484  0.5193  0.1130 -1.9381
 4459SOL    HW214277   2.520   2.292   6.537  1.0247  0.8813  0.7747
 4460SOL     OW14278   6.848   1.948   2.088  0.5493 -0.7772 -0.1209
 4460SOL    HW114279   6.895   1.962   2.175  0.1930  0.2820 -0.0726
 4460SOL    HW214280   6.756   1.989   2.093  1.1009  0.7511 -1.4948
 4461SOL     OW14281   6.724   0.007   4.117 -0.6640 -0.1800 -0.9016
 4461SOL    HW114282   6.676  -0.017   4.202 -0.4816  0.6983 -0.5445
 4461SOL    HW214283   6.764   0.098   4.125  0.3528 -0.5549 -1.5141
 4462SOL     OW14284   6.654   0.150   5.795 -0.2393 -0.3400  0.2114
 4462SOL    HW114285   6.649   0.052   5.816 -1.0253 -0.0264  1.6088
 4462SOL    HW214286   6.750   0.178   5.789 -0.0051 -1.0780  0.4057
 4463SOL     OW14287   2.612   6.462   6.212 -0.0105 -0.1542 -0.2300
 4463SOL    HW114288   2.654   6.545   6.174 -0.3369  1.5748  2.8704
 4463SOL    HW214289   2.521   6.483   6.247 -0.5716 -2.1467 -0.3388
 4464SOL     OW14290   4.648   4.923   2.378  0.3673 -0.2103  0.1109
 4464SOL    HW114291   4.648   5.010   2.330 -1.1883  0.3778  1.1251
 4464SOL    HW214292   4.599   4.855   2.323  1.8043 -0.5783 -0.8020
 4465SOL     OW14293   4.979   4.072   2.275  0.0438 -0.1440 -0.3674
 4465SOL    HW114294   4.919   4.110   2.346 -2.3019 -0.4213 -2.0887
 4465SOL    HW214295   4.980   3.972   2.284  0.6056 -0.1210 -0.1102
 4466SOL     OW14296   0.577   2.361   3.493  0.8113 -0.1103  0.2100
 4466SOL    HW114297   0.492   2.412   3.511  2.4762  2.8107  0.5117
 4466SOL    HW214298   0.555   2.273   3.452 -2.3312  0.7693 -0.2847
 4467SOL     OW14299   4.243   5.021   1.700  0.6507 -0.4609  0.9006
 4467SOL    HW114300   4.160   5.072   1.678  1.4271 -0.1139 -1.5313
 4467SOL    HW214301   4.223   4.923   1.701  0.1583 -0.3675  0.6319
 4468SOL     OW14302   0.598   3.171   4.450 -0.3779 -0.2085 -0.3312
 4468SOL    HW114303   0.671   3.225   4.492  0.9848 -0.3368 -2.4281
 4468SOL    HW214304   0.514   3.182   4.504  0.9118  0.6601  1.6349
 4469SOL     OW14305   3.690   0.133   1.760 -0.4690  0.2665  0.4285
 4469SOL    HW114306   3.634   0.052   1.744  2.1791 -1.4731 -0.8806
 4469SOL    HW214307   3.667   0.203   1.692 -0.5943 -0.6797 -0.5298
 4470SOL     OW14308   2.848   0.402   4.431 -0.0391  0.7302 -0.1100
 4470SOL    HW114309   2.869   0.411   4.529 -1.1704  0.2192  0.1943
 4470SOL    HW214310   2.850   0.493   4.389  0.8447  0.9113  0.2976
 4471SOL     OW14311   5.419   0.653   1.697  0.0057 -0.0119 -0.3712
 4471SOL    HW114312   5.330   0.631   1.656 -0.7430  0.8838  0.6979
 4471SOL    HW214313   5.405   0.706   1.781  1.4261 -2.9446  1.8825
 4472SOL     OW14314   1.860   5.482   5.931  0.1260  0.5676 -0.1502
 4472SOL    HW114315   1.806   5.431   5.865  0.0121  1.2062 -0.5560
 4472SOL    HW214316   1.947   5.510   5.889 -0.8698  2.9125 -0.8192
 4473SOL     OW14317   6.658   1.569   2.784 -0.5138  0.6641  0.2317
 4473SOL    HW114318   6.611   1.487   2.751  0.1575 -0.0009  0.8961
 4473SOL    HW214319   6.658   1.639   2.712  0.3440 -0.5171 -0.9584
 4474SOL     OW14320   0.126   0.025   2.708  0.1215 -0.0732  0.1124
 4474SOL    HW114321   0.181   0.092   2.658 -0.0790 -1.4453 -2.0767
 4474SOL    HW214322   0.035   0.020   2.667  0.2952 -2.0105 -0.0958
 4475SOL     OW14323   6.646   1.765   2.539  0.0234 -0.0935  0.4145
 4475SOL    HW114324   6.664   1.789   2.444 -0.3377 -0.7954  0.1664
 4475SOL    HW214325   6.550   1.784   2.561  0.2288  0.5327  0.7820
 4476SOL     OW14326   0.314   5.004   1.148 -0.2935 -0.1661  0.0673
 4476SOL    HW114327   0.268   5.092   1.131  0.0327 -0.1672 -0.8397
 4476SOL    HW214328   0.402   5.021   1.192 -0.3031 -0.0490  0.0414
 4477SOL     OW14329   5.228   2.033   4.292 -0.8104 -0.3548  0.9611
 4477SOL    HW114330   5.204   1.936   4.297 -1.4220 -0.2164  0.8120
 4477SOL    HW214331   5.197   2.080   4.375  0.1312 -0.4185  1.3610
 4478SOL     OW14332   1.821   3.703   0.452  0.4930  0.0434  0.7061
 4478SOL    HW114333   1.820   3.797   0.418 -0.1850 -0.3577 -0.4475
 4478SOL    HW214334   1.727   3.670   0.460  0.7434 -0.6787  0.6966
 4479SOL     OW14335   4.029   0.589   0.929  0.6196 -0.0199  0.0910
 4479SOL    HW114336   3.932   0.590   0.903  0.6367  2.2352 -0.1122
 4479SOL    HW214337   4.065   0.496   0.921 -1.0943 -0.6067 -1.4184
 4480SOL     OW14338   0.301   2.268   4.534 -0.7610 -1.1638  0.0476
 4480SOL    HW114339   0.299   2.309   4.625 -0.7196 -1.9270  0.3973
 4480SOL    HW214340   0.275   2.337   4.466 -1.4212 -0.7629  0.6974
 4481SOL     OW14341   4.949   4.151   3.277  0.6455 -0.4223 -0.0377
 4481SOL    HW114342   4.893   4.091   3.334 -0.0239 -0.7649 -1.0246
 4481SOL    HW214343   5.026   4.099   3.240 -0.3970 -0.9495 -1.5723
 4482SOL     OW14344   1.393   0.495   6.496  0.6785  0.4607  0.3334
 4482SOL    HW114345   1.431   0.572   6.546  0.6556 -0.2819  1.5203
 4482SOL    HW214346   1.294   0.508   6.486  0.4165 -0.1256  1.8919
 4483SOL     OW14347   5.306   3.810   6.416  0.0702  0.5975  0.5217
 4483SOL    HW114348   5.276   3.714   6.420 -0.6683  0.7689 -0.6445
 4483SOL    HW214349   5.232   3.869   6.446 -0.1553  0.9157 -0.6282
 4484SOL     OW14350   5.182   0.354   1.716  0.2155  0.3382 -0.2303
 4484SOL    HW114351   5.169   0.431   1.778  3.9299 -0.5893  2.0450
 4484SOL    HW214352   5.120   0.280   1.741  0.4367  0.6340  1.2741
 4485SOL     OW14353   4.972   3.258   0.394 -0.1492 -0.2092 -0.4996
 4485SOL    HW114354   5.026   3.303   0.323  0.0847 -1.3779 -1.0882
 4485SOL    HW214355   4.965   3.318   0.473 -1.2087  1.5360 -1.8229
 4486SOL     OW14356   6.522   4.286   3.345 -0.4561  0.5999 -0.2029
 4486SOL    HW114357   6.618   4.266   3.323 -0.1529 -1.2035  2.2496
 4486SOL    HW214358   6.518   4.358   3.414 -0.5519 -1.1959  1.8073
 4487SOL     OW14359   4.186   6.285   0.239 -0.4945 -0.5261  1.1419
 4487SOL    HW114360   4.145   6.314   0.325 -2.1951 -0.2941  0.2789
 4487SOL    HW214361   4.138   6.205   0.204 -0.9264  0.3940 -0.4305
 4488SOL     OW14362   4.390   1.632   5.401 -0.6606  0.9980 -0.2511
 4488SOL    HW114363   4.360   1.645   5.306 -1.3734  2.0320  0.0998
 4488SOL    HW214364   4.464   1.695   5.421 -1.4449  1.7769  0.2771
 4489SOL     OW14365   6.171   4.043   5.803  0.6473 -0.0605  0.4061
 4489SOL    HW114366   6.158   3.999   5.714 -1.4843  0.5842  0.3483
 4489SOL    HW214367   6.246   3.998   5.851  0.7943 -1.4815 -1.0463
 4490SOL     OW14368   3.725   6.915   5.107 -0.4465 -0.1595  0.0029
 4490SOL    HW114369   3.668   6.876   5.179  0.4085 -1.4652  0.0052
 4490SOL    HW214370   3.670   6.926   5.024 -1.8804  2.8416  1.1963
 4491SOL     OW14371   6.970   4.279   5.187 -0.0435  0.2574 -0.4018
 4491SOL    HW114372   7.007   4.362   5.145 -0.0507  0.0141 -0.8907
 4491SOL    HW214373   6.891   4.247   5.135 -2.4752  2.0920  1.9300
 4492SOL     OW14374   6.191   3.744   0.590  0.0570  0.0744  0.2234
 4492SOL    HW114375   6.270   3.741   0.652 -0.5574 -2.4444  0.9924
 4492SOL    HW214376   6.130   3.668   0.610 -1.1534  0.2890 -2.2671
 4493SOL     OW14377   1.476   2.543   5.501  0.3819 -0.3635 -0.1609
 4493SOL    HW114378   1.494   2.570   5.596 -0.1129  0.7644 -0.3715
 4493SOL    HW214379   1.563   2.529   5.454  0.6368 -0.5909  0.3651
 4494SOL     OW14380   1.075   5.062   2.884 -0.5304  0.4266 -0.4393
 4494SOL    HW114381   1.130   5.145   2.895 -1.1874  0.6599  1.2946
 4494SOL    HW214382   1.136   4.983   2.872  0.1337  0.9512 -0.5554
 4495SOL     OW14383   0.363   0.967   3.595 -0.3094 -0.5447 -0.3827
 4495SOL    HW114384   0.396   1.057   3.624 -0.9330 -0.4080 -0.0727
 4495SOL    HW214385   0.263   0.969   3.591 -0.2872 -0.1238 -3.8966
 4496SOL     OW14386   4.589   0.867   0.227  0.2540 -0.0388  0.2384
 4496SOL    HW114387   4.566   0.777   0.263  1.3542 -0.8346 -0.9467
 4496SOL    HW214388   4.678   0.863   0.181 -0.2483  1.3347 -0.9475
 4497SOL     OW14389   3.528   6.605   2.415 -0.0467 -0.0896  0.5193
 4497SOL    HW114390   3.610   6.609   2.471  0.9837 -1.6998 -0.7773
 4497SOL    HW214391   3.476   6.523   2.438 -0.0512 -0.3175 -0.2669
 4498SOL     OW14392   1.015   5.838   2.640  0.4287 -0.8958 -0.1041
 4498SOL    HW114393   1.081   5.911   2.624  0.6078 -0.7532  1.1518
 4498SOL    HW214394   1.063   5.754   2.667  0.1215 -0.8566  0.5843
 4499SOL     OW14395   3.087   1.556   0.936  0.4443 -0.7194 -0.2908
 4499SOL    HW114396   3.153   1.592   1.002  0.0277 -0.2787 -0.1106
 4499SOL    HW214397   3.064   1.627   0.870 -1.2083 -0.2752  0.7098
 4500SOL     OW14398   5.382   5.001   1.929 -0.0347 -0.0931 -0.3003
 4500SOL    HW114399   5.289   5.034   1.914  0.2815  1.0434  0.1654
 4500SOL    HW214400   5.438   5.075   1.966  1.2113 -0.5818 -1.1442
 4501SOL     OW14401   3.340   5.421   4.278  0.0001  0.4697  0.3212
 4501SOL    HW114402   3.241   5.424   4.271  0.0928  0.8060 -1.3318
 4501SOL    HW214403   3.367   5.401   4.372 -1.6614 -2.7330  0.2506
 4502SOL     OW14404   6.673   4.150   5.775  0.1270  0.5431  0.6189
 4502SOL    HW114405   6.593   4.204   5.753  0.4273  0.6252 -0.3054
 4502SOL    HW214406   6.649   4.053   5.776 -0.6551  0.6990  3.3170
 4503SOL     OW14407   2.534   6.391   2.700 -0.7473 -0.2483  0.3080
 4503SOL    HW114408   2.559   6.480   2.738  0.6518 -0.5732  0.2139
 4503SOL    HW214409   2.478   6.342   2.766 -1.6028  0.7277  0.3272
 4504SOL     OW14410   4.234   5.328   0.611 -0.0652 -0.6172  0.3137
 4504SOL    HW114411   4.199   5.256   0.671 -0.7686 -1.3734 -0.9541
 4504SOL    HW214412   4.298   5.385   0.661  1.2792 -2.7195  1.1145
 4505SOL     OW14413   5.416   3.680   5.871 -0.4653  0.7967  0.3662
 4505SOL    HW114414   5.476   3.618   5.820 -0.1147  1.3585  0.0861
 4505SOL    HW214415   5.415   3.653   5.968 -2.0813 -1.0173 -0.0978
 4506SOL     OW14416   6.895   3.227   1.254  0.1487 -0.5263  0.5906
 4506SOL    HW114417   6.841   3.228   1.338  0.2770 -0.1655  0.6721
 4506SOL    HW214418   6.971   3.293   1.262  0.6273 -1.0538  0.4967
 4507SOL     OW14419   3.393   2.118   3.315 -0.3464  0.5291  0.0571
 4507SOL    HW114420   3.411   2.161   3.404  0.5274 -0.0129  0.1601
 4507SOL    HW214421   3.415   2.021   3.321 -0.3813  0.4702 -0.7342
 4508SOL     OW14422   4.402   1.213   0.672  0.7020  0.1849  0.8442
 4508SOL    HW114423   4.492   1.176   0.653 -0.9033 -2.4195 -2.6959
 4508SOL    HW214424   4.363   1.168   0.753  1.3481 -1.0715  0.4725
 4509SOL     OW14425   4.827   5.761   6.332  0.4600 -0.2659  0.3174
 4509SOL    HW114426   4.795   5.669   6.310  0.5128  0.0325 -1.1218
 4509SOL    HW214427   4.922   5.756   6.365  0.0145 -0.8412  1.5639
 4510SOL     OW14428   5.248   0.322   5.063 -0.6584 -0.0915  0.6437
 4510SOL    HW114429   5.260   0.381   5.143 -0.8798  0.8410  0.0107
 4510SOL    HW214430   5.314   0.247   5.066 -0.4323  0.1368  1.5145
 4511SOL     OW14431   5.316   3.745   3.795  0.6909  0.3473 -0.6776
 4511SOL    HW114432   5.369   3.703   3.722  0.3260  0.1555 -0.8318
 4511SOL    HW214433   5.350   3.713   3.883 -1.3679 -2.5004 -0.8115
 4512SOL     OW14434   5.755   3.661   4.806 -0.0753  0.2818 -0.3929
 4512SOL    HW114435   5.760   3.635   4.709 -2.7806 -2.9857  0.1744
 4512SOL    HW214436   5.825   3.612   4.858  1.4738  2.1458 -0.5907
 4513SOL     OW14437   0.778   6.939   2.379  0.8079 -0.0704  0.2367
 4513SOL    HW114438   0.766   6.844   2.349 -0.8150  0.1953 -0.0695
 4513SOL    HW214439   0.699   6.994   2.349  1.2493  1.1658  1.2280
 4514SOL     OW14440   4.646   6.519   6.591 -0.7972  0.4558  0.2520
 4514SOL    HW114441   4.661   6.616   6.609  0.5894  0.3203 -0.0107
 4514SOL    HW214442   4.599   6.507   6.504 -2.2485  0.9231  0.9517
 4515SOL     OW14443   5.648   4.818   2.000  0.0260 -0.4489 -0.1563
 4515SOL    HW114444   5.582   4.765   1.947 -0.7490 -1.4457  1.6744
 4515SOL    HW214445   5.611   4.908   2.020 -0.5220 -0.7691  0.3078
 4516SOL     OW14446   6.502   6.105   5.929  0.0249 -0.3720  0.5036
 4516SOL    HW114447   6.501   6.204   5.913 -0.8988 -0.6895 -1.9125
 4516SOL    HW214448   6.592   6.069   5.906 -0.6934 -0.5186 -2.5428
 4517SOL     OW14449   4.585   0.472   4.300  0.3550  0.2995 -0.1598
 4517SOL    HW114450   4.568   0.393   4.360 -0.6535 -0.2006 -1.0663
 4517SOL    HW214451   4.683   0.488   4.294  0.5314 -0.3102  0.7672
 4518SOL     OW14452   5.893   6.469   4.639 -0.1007 -0.0314  0.3431
 4518SOL    HW114453   5.933   6.481   4.730 -0.7293 -1.4782  0.8356
 4518SOL    HW214454   5.846   6.553   4.611  1.7281  1.0898  0.5039
 4519SOL     OW14455   1.350   4.450   6.399 -0.5767  0.2071 -0.0862
 4519SOL    HW114456   1.444   4.439   6.367 -0.7971 -0.8703 -0.4099
 4519SOL    HW214457   1.308   4.530   6.356  0.5277  1.3551  0.8987
 4520SOL     OW14458   6.343   6.020   1.110 -0.2212  0.5411 -0.0057
 4520SOL    HW114459   6.373   5.925   1.106 -0.9095  0.3046  0.2110
 4520SOL    HW214460   6.363   6.057   1.201 -0.4627  0.4230  0.0973
 4521SOL     OW14461   6.734   5.262   3.790  0.0814  0.2938 -0.0558
 4521SOL    HW114462   6.636   5.261   3.773  0.4883  0.8753 -2.8321
 4521SOL    HW214463   6.768   5.168   3.796 -0.3753  0.0468 -1.1215
 4522SOL     OW14464   2.727   2.571   0.128 -0.0601 -0.1517 -0.2106
 4522SOL    HW114465   2.708   2.668   0.147 -2.0215 -0.3201 -1.0077
 4522SOL    HW214466   2.640   2.524   0.110  1.0860 -1.2343 -3.5956
 4523SOL     OW14467   6.897   2.862   1.329  0.7088 -0.0177 -0.1320
 4523SOL    HW114468   6.920   2.766   1.341  1.0764  0.1901  0.9664
 4523SOL    HW214469   6.980   2.914   1.307  0.9501  0.3814  1.5681
 4524SOL     OW14470   3.162   1.638   6.458 -0.4051 -0.2098 -0.4341
 4524SOL    HW114471   3.143   1.736   6.449 -0.1557 -0.3036 -2.3482
 4524SOL    HW214472   3.128   1.590   6.378  2.5038 -1.2059 -1.1897
 4525SOL     OW14473   4.251   4.673   2.574 -0.2181  0.2136 -0.6582
 4525SOL    HW114474   4.185   4.598   2.575 -0.4198  0.3805  0.7703
 4525SOL    HW214475   4.339   4.639   2.542 -0.7972 -0.1664 -1.9222
 4526SOL     OW14476   2.008   3.795   4.493  0.0609  0.6832  0.0276
 4526SOL    HW114477   1.929   3.841   4.453 -0.1979  0.7082  0.5591
 4526SOL    HW214478   2.032   3.840   4.579  0.8524  0.8776 -0.2829
 4527SOL     OW14479   4.927   1.500   0.111  0.8872  0.2612 -0.5398
 4527SOL    HW114480   4.930   1.480   0.013 -1.5990 -1.7280 -0.3195
 4527SOL    HW214481   4.851   1.562   0.130  0.3785 -0.5732  0.2576
 4528SOL     OW14482   0.761   5.825   1.676  0.1863  0.1335 -0.2542
 4528SOL    HW114483   0.843   5.837   1.732  1.6221  0.6218 -2.3298
 4528SOL    HW214484   0.714   5.913   1.667  0.7409  0.3700 -0.9273
 4529SOL     OW14485   4.875   4.911   3.067  0.1406 -0.3668 -0.0778
 4529SOL    HW114486   4.798   4.879   3.011 -2.1974  0.7277  2.2634
 4529SOL    HW214487   4.907   4.999   3.032 -0.8802  0.0103 -0.1289
 4530SOL     OW14488   5.215   4.377   0.713  0.5321 -0.3811  0.3062
 4530SOL    HW114489   5.207   4.475   0.731  0.9796 -0.1766 -0.5445
 4530SOL    HW214490   5.146   4.327   0.765 -1.0860  0.5805 -0.8301
 4531SOL     OW14491   5.828   4.530   6.033 -0.3503  0.0967 -0.5560
 4531SOL    HW114492   5.754   4.490   5.980  0.3392 -0.3812 -1.1625
 4531SOL    HW214493   5.835   4.628   6.013  0.5226 -0.2612 -2.0898
 4532SOL     OW14494   5.052   4.395   5.048 -0.3243 -0.0578  0.7582
 4532SOL    HW114495   5.102   4.466   5.098  0.8801 -0.6121  0.3678
 4532SOL    HW214496   5.052   4.417   4.950 -2.1076  0.6816  0.8933
 4533SOL     OW14497   3.136   5.583   1.137  0.5427  0.2412 -0.2427
 4533SOL    HW114498   3.184   5.581   1.049  0.7920 -0.6049 -0.0992
 4533SOL    HW214499   3.203   5.583   1.211  0.3282 -0.1545 -0.0455
 4534SOL     OW14500   6.211   4.411   6.437 -0.2926 -0.3175 -0.6115
 4534SOL    HW114501   6.190   4.364   6.522 -0.0368  0.1122 -0.3089
 4534SOL    HW214502   6.266   4.492   6.456  0.9834 -0.9887 -1.3127
 4535SOL     OW14503   0.774   5.611   0.690  0.1342  0.5882 -0.2444
 4535SOL    HW114504   0.748   5.677   0.761 -2.2367 -0.5745  0.0717
 4535SOL    HW214505   0.697   5.598   0.628  1.4840  0.0487 -1.8604
 4536SOL     OW14506   0.747   0.284   4.934  0.9762 -0.8531  0.7873
 4536SOL    HW114507   0.768   0.188   4.953  0.7746 -0.6625  2.0486
 4536SOL    HW214508   0.661   0.291   4.885 -0.9450 -1.1999  3.8197
 4537SOL     OW14509   1.269   4.288   3.943  0.0789  0.0777  0.7571
 4537SOL    HW114510   1.250   4.360   4.011  1.0109  2.3718 -1.2646
 4537SOL    HW214511   1.347   4.315   3.887 -0.2758 -2.0071 -0.8545
 4538SOL     OW14512   3.400   5.725   0.278 -0.1090  0.7531  0.1789
 4538SOL    HW114513   3.368   5.630   0.273 -2.5865  1.5509 -0.4831
 4538SOL    HW214514   3.499   5.727   0.263  0.3913 -1.8857  2.3367
 4539SOL     OW14515   5.442   3.660   1.641  0.5057  1.1737  0.5001
 4539SOL    HW114516   5.429   3.612   1.728  1.1857  1.0509  0.5337
 4539SOL    HW214517   5.356   3.704   1.615 -0.3266 -0.6345  0.1009
 4540SOL     OW14518   6.538   2.445   3.585  0.4536  0.2123  0.3912
 4540SOL    HW114519   6.615   2.503   3.613  0.7339  0.4184 -0.7679
 4540SOL    HW214520   6.471   2.501   3.536 -0.9938  0.2697  2.2941
 4541SOL     OW14521   2.312   5.999   4.371 -0.2464 -0.1549 -0.0357
 4541SOL    HW114522   2.403   5.996   4.329 -0.7744  0.1766 -1.2556
 4541SOL    HW214523   2.249   5.942   4.319 -1.2247  1.2837 -0.4880
 4542SOL     OW14524   2.820   6.013   4.969 -0.1673  0.0092  0.4367
 4542SOL    HW114525   2.757   6.078   5.011 -1.0934 -0.2145 -0.5692
 4542SOL    HW214526   2.914   6.043   4.985 -0.5549  1.0334  0.8753
 4543SOL     OW14527   5.696   2.318   2.888  0.1670 -0.0223  0.2597
 4543SOL    HW114528   5.646   2.364   2.815 -0.7177 -0.2874  0.6869
 4543SOL    HW214529   5.708   2.381   2.965  0.0017 -0.1317  0.3754
 4544SOL     OW14530   0.757   0.349   5.208 -0.0426  0.1703  0.5370
 4544SOL    HW114531   0.751   0.260   5.254  1.1932  0.1665  0.7251
 4544SOL    HW214532   0.785   0.336   5.113 -0.2915  0.3382  0.4384
 4545SOL     OW14533   1.612   3.609   3.312 -1.0068 -0.0670  0.2179
 4545SOL    HW114534   1.550   3.635   3.387 -1.2307 -0.6113  0.2217
 4545SOL    HW214535   1.673   3.686   3.293 -1.3223  0.2842  0.5773
 4546SOL     OW14536   0.889   0.767   5.873  0.3375 -0.4275 -0.5657
 4546SOL    HW114537   0.832   0.742   5.951 -0.1156 -0.4821 -0.9100
 4546SOL    HW214538   0.970   0.708   5.870  0.8427  0.1926  0.3993
 4547SOL     OW14539   4.114   1.146   5.452  0.2098  0.0384 -0.0154
 4547SOL    HW114540   4.169   1.063   5.444  1.1141  0.6962 -0.8648
 4547SOL    HW214541   4.134   1.207   5.375 -1.8695  0.2262 -0.4661
 4548SOL     OW14542   4.892   3.126   2.888 -0.1423 -0.5189  0.4279
 4548SOL    HW114543   4.951   3.084   2.819  0.1222  0.7913 -0.1801
 4548SOL    HW214544   4.855   3.212   2.852 -1.1150 -0.5076  1.4153
 4549SOL     OW14545   3.270   5.601   6.257 -0.1481  0.0448 -0.1158
 4549SOL    HW114546   3.364   5.572   6.238 -0.1372 -0.5110  0.6829
 4549SOL    HW214547   3.206   5.531   6.224 -0.2422  0.1091 -0.0702
 4550SOL     OW14548   3.864   3.543   4.936  0.9629  0.9535  0.2850
 4550SOL    HW114549   3.856   3.488   4.853  1.0500 -0.7769  1.3699
 4550SOL    HW214550   3.954   3.587   4.939  1.4441  0.0069  0.0528
 4551SOL     OW14551   6.365   3.473   6.170  0.3271 -0.0299 -0.3166
 4551SOL    HW114552   6.327   3.427   6.090 -1.2776  1.2323 -0.3314
 4551SOL    HW214553   6.362   3.572   6.157  0.2838  0.1958  1.1755
 4552SOL     OW14554   0.075   1.834   4.389 -0.7208 -0.1483  0.2963
 4552SOL    HW114555   0.146   1.888   4.435  0.1522  1.2342 -2.4608
 4552SOL    HW214556   0.014   1.894   4.338 -2.4851 -1.5091  0.7149
 4553SOL     OW14557   6.221   5.525   6.638 -0.1941  0.0661  0.0812
 4553SOL    HW114558   6.277   5.442   6.645  1.0930  1.0000  1.5813
 4553SOL    HW214559   6.195   5.539   6.542 -0.8170 -2.2620 -0.1614
 4554SOL     OW14560   1.564   2.062   5.728  0.5196  0.1322  0.2301
 4554SOL    HW114561   1.549   2.112   5.643  0.9280  0.0942  0.1342
 4554SOL    HW214562   1.478   2.057   5.779  0.6633  1.8121  0.7225
 4555SOL     OW14563   3.791   3.447   4.011 -0.3783 -0.7303  0.3064
 4555SOL    HW114564   3.819   3.523   4.070 -0.6178  0.0658 -0.5752
 4555SOL    HW214565   3.720   3.394   4.056  0.4373 -0.9898  1.3163
 4556SOL     OW14566   3.846   1.058   3.590  0.7024  0.6418 -0.1520
 4556SOL    HW114567   3.770   1.121   3.610  1.5559  1.8085 -0.4659
 4556SOL    HW214568   3.830   1.014   3.501  1.2647  2.2965 -1.1142
 4557SOL     OW14569   1.892   0.508   2.972  0.2977  0.0865 -0.1077
 4557SOL    HW114570   1.905   0.535   2.877  2.3357 -0.3191  0.0094
 4557SOL    HW214571   1.867   0.587   3.027 -1.8141  0.1586 -1.0993
 4558SOL     OW14572   1.923   2.250   4.877  0.3513 -0.1532  0.6266
 4558SOL    HW114573   1.845   2.306   4.848  2.4439  3.0433  0.7490
 4558SOL    HW214574   1.933   2.258   4.976  2.0649  1.3080  0.3780
 4559SOL     OW14575   5.919   2.250   0.735  0.6443 -0.1184 -0.2606
 4559SOL    HW114576   6.015   2.272   0.718  0.9249 -0.3730  0.8797
 4559SOL    HW214577   5.906   2.231   0.833 -0.7636  0.9241 -0.2125
 4560SOL     OW14578   6.725   2.992   3.667 -0.0123  0.2772  0.4484
 4560SOL    HW114579   6.805   2.935   3.688  0.1844 -0.2366 -1.4830
 4560SOL    HW214580   6.743   3.044   3.583 -1.3266  0.9113  0.5455
 4561SOL     OW14581   0.832   1.814   3.619  0.0517  0.3585 -0.3382
 4561SOL    HW114582   0.823   1.880   3.694 -1.0141 -0.3187  0.1546
 4561SOL    HW214583   0.798   1.856   3.534  0.1901  0.7406 -0.2074
 4562SOL     OW14584   4.853   5.609   2.566  0.4121 -0.2673 -0.3710
 4562SOL    HW114585   4.785   5.561   2.622  0.7975 -0.2006  0.1619
 4562SOL    HW214586   4.829   5.600   2.470  0.2925 -1.2512 -0.2612
 4563SOL     OW14587   3.030   0.142   6.149  0.0846  0.1983 -0.8671
 4563SOL    HW114588   3.087   0.224   6.150  1.0771 -0.4661 -0.1777
 4563SOL    HW214589   3.089   0.061   6.151 -0.8827 -0.5105  0.3602
 4564SOL     OW14590   3.779   3.247   5.535  0.1709  0.7548  0.3035
 4564SOL    HW114591   3.833   3.203   5.607 -1.3377 -2.6259 -0.4170
 4564SOL    HW214592   3.704   3.299   5.576  0.3919  0.3695  1.2180
 4565SOL     OW14593   2.148   2.719   6.398  0.6213 -0.1232 -0.2484
 4565SOL    HW114594   2.105   2.783   6.462  2.4330 -0.2904  1.2210
 4565SOL    HW214595   2.093   2.713   6.316 -0.9206  1.4044  0.5988
 4566SOL     OW14596   2.246   5.034   2.098  0.6208 -0.1470  0.4201
 4566SOL    HW114597   2.162   4.981   2.085  0.5189  0.3487 -1.2234
 4566SOL    HW214598   2.225   5.132   2.087  1.6302 -0.1026 -1.5890
 4567SOL     OW14599   0.660   3.101   3.716  0.5654 -0.1957  0.2482
 4567SOL    HW114600   0.672   3.005   3.741  1.2783 -0.4012 -0.8439
 4567SOL    HW214601   0.588   3.109   3.647 -1.0459  0.3193  1.9055
 4568SOL     OW14602   5.712   1.382   2.465  0.4433 -0.5452  0.1704
 4568SOL    HW114603   5.716   1.479   2.492 -2.0893  0.0411 -1.2141
 4568SOL    HW214604   5.800   1.355   2.425  1.0115  1.3792  0.0120
 4569SOL     OW14605   5.095   1.251   6.223  0.3056 -0.5714 -0.3429
 4569SOL    HW114606   5.135   1.181   6.283  0.1111 -0.5869 -0.2303
 4569SOL    HW214607   5.025   1.208   6.166 -0.6265 -0.2477  0.5321
 4570SOL     OW14608   2.267   6.939   2.937 -0.0284 -0.0119  0.0926
 4570SOL    HW114609   2.286   6.842   2.920 -1.1236 -0.1398 -0.4671
 4570SOL    HW214610   2.169   6.955   2.934  0.0761  0.9388  1.2138
 4571SOL     OW14611   6.801   3.266   2.811  0.7330  0.1253 -0.8078
 4571SOL    HW114612   6.749   3.352   2.815  0.9154  0.2433 -0.9781
 4571SOL    HW214613   6.737   3.189   2.806  0.5446  0.3436 -2.9452
 4572SOL     OW14614   1.064   3.194   4.778  0.1324  0.1208 -0.0161
 4572SOL    HW114615   1.056   3.108   4.829 -1.2351  0.8073  0.9957
 4572SOL    HW214616   1.155   3.232   4.790 -0.0830  0.1384  1.7519
 4573SOL     OW14617   1.821   3.779   1.889 -0.0691  0.0333  1.0051
 4573SOL    HW114618   1.759   3.830   1.948 -0.6410  1.1697 -0.5204
 4573SOL    HW214619   1.890   3.840   1.850 -0.5662 -0.3622 -0.5944
 4574SOL     OW14620   1.902   6.261   2.668 -0.3530  0.0213  0.4276
 4574SOL    HW114621   1.925   6.224   2.758 -2.3569  0.4581  1.1552
 4574SOL    HW214622   1.967   6.333   2.644  0.6590 -0.6195  1.1551
 4575SOL     OW14623   5.169   5.726   5.695  0.0217 -0.4896 -0.3737
 4575SOL    HW114624   5.214   5.814   5.712  3.1352 -2.1035  0.6441
 4575SOL    HW214625   5.123   5.729   5.607 -0.7236  2.3792  0.0005
 4576SOL     OW14626   4.881   1.750   2.638 -0.5819  1.0409  0.1463
 4576SOL    HW114627   4.876   1.843   2.604 -0.4381  0.9909 -0.0127
 4576SOL    HW214628   4.967   1.737   2.688 -1.2877  1.4420  1.5107
 4577SOL     OW14629   1.908   2.485   5.462  0.1063 -0.4712  0.1721
 4577SOL    HW114630   1.854   2.560   5.424  1.0120 -0.5138 -1.2859
 4577SOL    HW214631   1.849   2.425   5.516 -1.2879 -0.4243 -1.2255
 4578SOL     OW14632   2.138   4.945   4.139 -0.0472 -0.0293  0.4547
 4578SOL    HW114633   2.134   4.946   4.239 -0.4531  1.1612  0.4417
 4578SOL    HW214634   2.050   4.915   4.102  0.5028 -1.7319  0.4464
 4579SOL     OW14635   0.151   5.178   2.675 -0.6663 -0.1113 -0.5524
 4579SOL    HW114636   0.246   5.147   2.666 -0.4736 -0.8616  2.8554
 4579SOL    HW214637   0.149   5.273   2.704 -1.0787  0.4348 -2.2254
 4580SOL     OW14638   6.839   3.910   3.417  0.1956 -0.0688  0.3152
 4580SOL    HW114639   6.925   3.958   3.431 -0.8622  2.0606 -0.0715
 4580SOL    HW214640   6.791   3.901   3.504 -0.0698  0.5165  0.2307
 4581SOL     OW14641   2.575   1.232   5.428  0.3785 -0.3525 -0.1564
 4581SOL    HW114642   2.625   1.265   5.508  0.4171  1.0411 -0.7208
 4581SOL    HW214643   2.640   1.213   5.354  0.1811  0.6537 -0.6134
 4582SOL     OW14644   2.481   2.123   4.594 -0.1383  0.6297 -0.4106
 4582SOL    HW114645   2.465   2.033   4.553  1.3001  0.2455 -0.1810
 4582SOL    HW214646   2.436   2.193   4.539 -0.7390 -0.1651 -0.9551
 4583SOL     OW14647   3.982   5.895   1.595 -0.4441 -0.5429  0.3413
 4583SOL    HW114648   3.938   5.923   1.680  0.4164 -1.9068  1.2717
 4583SOL    HW214649   4.081   5.896   1.607 -0.3422 -2.7637  0.0558
 4584SOL     OW14650   1.935   2.326   5.945  0.0217 -0.5967 -0.3999
 4584SOL    HW114651   1.999   2.342   5.870  1.2070 -2.6828  0.1023
 4584SOL    HW214652   1.879   2.246   5.925 -0.7252 -0.2669  0.2933
 4585SOL     OW14653   0.034   6.026   4.801  0.2979 -0.1643  0.5291
 4585SOL    HW114654   0.090   5.971   4.863  0.9762  0.3434  0.3795
 4585SOL    HW214655   0.054   6.123   4.815  0.2078 -0.0273 -0.2345
 4586SOL     OW14656   0.297   4.274   2.009  0.2065  0.5832 -0.4568
 4586SOL    HW114657   0.197   4.284   2.006  0.2097  0.8640  0.1003
 4586SOL    HW214658   0.329   4.232   1.925 -0.2525  1.6561 -1.1902
 4587SOL     OW14659   6.108   6.755   1.881  0.3288 -0.4887 -0.0476
 4587SOL    HW114660   6.154   6.840   1.906  1.3932 -0.4469 -2.0069
 4587SOL    HW214661   6.122   6.687   1.953 -1.3440  1.2123  2.0251
 4588SOL     OW14662   4.068   3.374   5.208  0.4441  0.3357  0.1656
 4588SOL    HW114663   4.079   3.463   5.165  1.1781 -0.1054 -0.6007
 4588SOL    HW214664   4.008   3.382   5.287  2.2774  1.9242  1.4705
 4589SOL     OW14665   1.871   1.034   5.119  0.1925  0.3143  0.7550
 4589SOL    HW114666   1.776   1.003   5.129  0.5488 -0.4626  1.8102
 4589SOL    HW214667   1.932   0.955   5.114  0.8735  0.8203  0.9335
 4590SOL     OW14668   4.995   5.989   0.247  0.1605 -0.4406  0.2374
 4590SOL    HW114669   5.004   6.034   0.336  0.2569  0.6596 -0.3064
 4590SOL    HW214670   4.990   6.059   0.175  0.9164 -1.3127 -0.6985
 4591SOL     OW14671   4.551   0.065   0.340  0.4574  0.3087 -0.6055
 4591SOL    HW114672   4.595  -0.016   0.379  1.0400  0.8259 -0.1816
 4591SOL    HW214673   4.559   0.142   0.404 -1.5851  0.2653 -0.2418
 4592SOL     OW14674   2.692   1.291   5.013 -0.0229  0.4970 -0.4848
 4592SOL    HW114675   2.758   1.225   4.979  1.1855  1.9483 -1.0798
 4592SOL    HW214676   2.676   1.275   5.111  1.0269 -0.0479 -0.3914
 4593SOL     OW14677   4.443   5.424   3.528  0.2126 -0.4749  0.6205
 4593SOL    HW114678   4.416   5.344   3.474  0.4483  0.5223 -1.0498
 4593SOL    HW214679   4.363   5.481   3.546  0.3061 -0.2614  0.3722
 4594SOL     OW14680   0.887   2.936   3.932 -0.1423 -0.6073 -0.1133
 4594SOL    HW114681   0.882   3.035   3.928 -1.1681 -0.6390 -0.0846
 4594SOL    HW214682   0.794   2.899   3.945  0.2284 -1.5608 -0.0970
 4595SOL     OW14683   5.750   3.501   0.758  1.0815 -0.1774  0.7509
 4595SOL    HW114684   5.789   3.579   0.808 -1.4692  0.0934  2.5053
 4595SOL    HW214685   5.763   3.417   0.811 -1.1449  0.0174  1.6810
 4596SOL     OW14686   0.307   2.033   2.155  0.1010  0.2382 -0.2128
 4596SOL    HW114687   0.280   1.967   2.225  0.1975  0.2151 -0.1969
 4596SOL    HW214688   0.306   1.990   2.065 -1.4815  0.6594 -0.4265
 4597SOL     OW14689   1.112   4.295   4.445  0.2943  0.9231  0.0590
 4597SOL    HW114690   1.048   4.257   4.377  0.3333  1.9174 -0.5563
 4597SOL    HW214691   1.062   4.324   4.526  0.1920  0.1125  0.2934
 4598SOL     OW14692   6.892   4.808   6.068 -1.0412 -0.7085 -0.4499
 4598SOL    HW114693   6.817   4.859   6.027  0.9024  1.5797 -1.4007
 4598SOL    HW214694   6.959   4.785   5.998  0.1388 -0.8202  0.6737
 4599SOL     OW14695   1.879   0.302   4.277  0.2794  0.4110 -0.1015
 4599SOL    HW114696   1.976   0.308   4.255 -0.0318  0.7686 -1.4162
 4599SOL    HW214697   1.866   0.328   4.373  1.3412  1.4390 -0.2154
 4600SOL     OW14698   0.019   6.977   6.560  0.2767  0.2996  0.3469
 4600SOL    HW114699  -0.026   7.030   6.487 -1.1808 -1.6909 -0.2865
 4600SOL    HW214700   0.001   6.880   6.547  2.9512 -0.4375  1.4100
 4601SOL     OW14701   6.034   3.211   6.541 -0.8665 -0.1209  0.3200
 4601SOL    HW114702   5.992   3.301   6.549 -1.7928 -0.4722 -0.4472
 4601SOL    HW214703   5.992   3.149   6.607 -0.0323  0.0677  1.0449
 4602SOL     OW14704   4.670   4.371   3.399  0.1348 -0.0811 -0.4903
 4602SOL    HW114705   4.604   4.446   3.394  0.7810  0.4562 -1.1308
 4602SOL    HW214706   4.760   4.404   3.372  0.2118 -1.3496 -1.9208
 4603SOL     OW14707   5.462   0.708   0.713  0.4738 -0.1293  0.0638
 4603SOL    HW114708   5.391   0.778   0.699  1.8338  1.4751  0.7977
 4603SOL    HW214709   5.442   0.657   0.797 -0.6427 -0.7965 -0.5829
 4604SOL     OW14710   6.431   1.007   4.310  0.0784 -0.3235 -0.1749
 4604SOL    HW114711   6.393   1.081   4.367  2.3355 -1.6968  3.4757
 4604SOL    HW214712   6.489   1.047   4.239  0.0624  1.4800  0.7437
 4605SOL     OW14713   6.573   0.740   6.336  0.2903 -0.0944  0.0700
 4605SOL    HW114714   6.482   0.776   6.320  0.6129 -0.2665 -2.5982
 4605SOL    HW214715   6.568   0.641   6.353 -0.0698  0.0841  1.0798
 4606SOL     OW14716   4.751   5.860   2.922 -0.0675 -0.2705  0.3028
 4606SOL    HW114717   4.680   5.927   2.943 -0.4569 -0.1166 -1.3885
 4606SOL    HW214718   4.775   5.865   2.825  0.7017 -1.8119  0.3774
 4607SOL     OW14719   0.214   5.620   6.562 -0.8479 -0.5221  0.0389
 4607SOL    HW114720   0.236   5.529   6.595 -0.3575 -0.2263  0.5462
 4607SOL    HW214721   0.181   5.677   6.638  2.0801  0.7283  0.5221
 4608SOL     OW14722   4.503   5.948   3.832  0.3535 -0.8128  0.2128
 4608SOL    HW114723   4.428   5.898   3.789 -0.1487  1.0193 -1.1707
 4608SOL    HW214724   4.473   5.985   3.920 -0.3880 -0.0837 -0.3365
 4609SOL     OW14725   0.580   1.261   5.904 -0.0694  0.5282 -0.3346
 4609SOL    HW114726   0.550   1.171   5.874  2.8243 -0.4004 -0.8102
 4609SOL    HW214727   0.564   1.328   5.832 -0.6320  0.0366 -0.6728
 4610SOL     OW14728   3.495   4.378   0.555 -0.2917 -0.1190  0.0967
 4610SOL    HW114729   3.498   4.369   0.456  1.7309  0.7258  0.0279
 4610SOL    HW214730   3.430   4.450   0.580  2.6558  3.2347 -1.0468
 4611SOL     OW14731   2.218   0.756   3.420  0.2087 -0.4284  0.7861
 4611SOL    HW114732   2.145   0.753   3.488 -3.2831 -2.8330 -2.6210
 4611SOL    HW214733   2.279   0.677   3.433 -0.8396 -1.2620  0.7702
 4612SOL     OW14734   2.342   6.308   4.679  0.8404 -0.4560 -0.4525
 4612SOL    HW114735   2.337   6.208   4.669 -0.2843 -0.5157  0.4768
 4612SOL    HW214736   2.389   6.330   4.764  0.2967 -0.2232 -0.2082
 4613SOL     OW14737   0.027   4.625   2.882  0.6440 -0.0380 -0.1106
 4613SOL    HW114738  -0.022   4.712   2.879 -0.3948 -0.6190 -0.6200
 4613SOL    HW214739  -0.032   4.555   2.923  0.7092 -0.9531 -1.4996
 4614SOL     OW14740   0.947   3.190   2.580 -0.0988 -0.3171  0.2621
 4614SOL    HW114741   0.919   3.098   2.606  2.3365 -1.5189 -1.0709
 4614SOL    HW214742   0.903   3.215   2.494 -0.5863 -0.3032  0.5112
 4615SOL     OW14743   2.466   2.188   0.006  0.2343  0.2532  0.0568
 4615SOL    HW114744   2.467   2.118   0.078 -2.3587 -0.8426 -0.8442
 4615SOL    HW214745   2.538   2.167  -0.061  1.1412 -0.0540  1.0850
 4616SOL     OW14746   0.129   6.145   2.073  0.0996 -0.2237 -0.3413
 4616SOL    HW114747   0.181   6.107   1.996 -3.4039  0.9892 -3.6200
 4616SOL    HW214748   0.162   6.238   2.091  1.1466 -0.6224 -0.0911
 4617SOL     OW14749   5.227   1.839   3.121  0.2051  0.2289  0.2856
 4617SOL    HW114750   5.297   1.849   3.050 -0.1306 -2.2419 -0.4688
 4617SOL    HW214751   5.144   1.888   3.093  0.6113  0.6307 -0.2425
 4618SOL     OW14752   5.097   6.452   3.313 -0.0127  0.6230  0.1427
 4618SOL    HW114753   5.066   6.383   3.247  0.4512  0.8112 -0.2766
 4618SOL    HW214754   5.182   6.421   3.357  0.9121  1.4862 -0.9897
 4619SOL     OW14755   1.956   2.423   3.485 -0.3100 -0.0327 -0.5743
 4619SOL    HW114756   2.021   2.356   3.447  0.8934 -0.5519  2.1332
 4619SOL    HW214757   1.926   2.392   3.575 -0.6154  2.5305  0.2828
 4620SOL     OW14758   6.952   5.463   2.333 -0.0198  0.3069  0.2560
 4620SOL    HW114759   6.982   5.395   2.400 -2.6535 -0.4887  0.7220
 4620SOL    HW214760   6.936   5.550   2.379 -0.8051  0.0455  0.4958
 4621SOL     OW14761   6.799   3.614   6.509 -0.4682  0.1633 -0.3531
 4621SOL    HW114762   6.846   3.662   6.434 -0.0723 -0.1500 -0.3091
 4621SOL    HW214763   6.722   3.563   6.472 -1.7677  1.9308 -0.2257
 4622SOL     OW14764   2.092   3.438   1.430  0.2037 -0.4973 -0.4636
 4622SOL    HW114765   2.064   3.351   1.389  0.5282 -1.0307  0.4027
 4622SOL    HW214766   2.094   3.428   1.530  3.3014 -0.4775 -0.4246
 4623SOL     OW14767   5.569   5.979   1.270  0.4769  0.0629 -0.6495
 4623SOL    HW114768   5.491   6.039   1.288  1.0472  0.5326  0.3342
 4623SOL    HW214769   5.629   5.978   1.349  1.0569 -0.9464 -1.0822
 4624SOL     OW14770   1.435   3.194   3.454 -0.3730  0.1689  0.3300
 4624SOL    HW114771   1.349   3.182   3.503  0.4164 -0.4034  1.6223
 4624SOL    HW214772   1.472   3.285   3.471 -1.5001  1.0429 -1.5632
 4625SOL     OW14773   6.230   6.353   6.743  0.2366 -0.2650  0.1679
 4625SOL    HW114774   6.174   6.279   6.780  0.4601 -0.3909  0.2614
 4625SOL    HW214775   6.303   6.313   6.687  0.7971 -0.1566  0.8067
 4626SOL     OW14776   1.911   6.268   1.062 -0.0041 -0.3371 -0.6149
 4626SOL    HW114777   1.977   6.332   1.102  0.5031 -1.5399  0.5325
 4626SOL    HW214778   1.924   6.178   1.102 -1.0090 -1.0694 -1.8836
 4627SOL     OW14779   2.922   5.743   1.158 -0.8638 -0.8121  0.1251
 4627SOL    HW114780   3.001   5.683   1.143 -0.4371 -0.4844  0.9735
 4627SOL    HW214781   2.952   5.838   1.160 -0.9943 -0.7787  2.1261
 4628SOL     OW14782   5.767   2.971   7.012 -0.1448 -1.1772 -0.1271
 4628SOL    HW114783   5.702   3.021   6.954  0.8278 -0.7143 -0.8550
 4628SOL    HW214784   5.735   2.973   7.107 -0.4661  0.2784 -0.2411
 4629SOL     OW14785   0.012   4.515   5.094 -0.2532  0.1347 -0.0659
 4629SOL    HW114786   0.043   4.609   5.111  0.1109 -0.2277  1.4827
 4629SOL    HW214787  -0.036   4.511   5.007 -2.7128  2.3602  1.0412
 4630SOL     OW14788   5.637   3.123   3.058  0.4903 -0.3883  0.2021
 4630SOL    HW114789   5.645   3.024   3.045  0.1262 -0.5431  1.1255
 4630SOL    HW214790   5.549   3.144   3.102 -0.1066  0.4775 -1.3310
 4631SOL     OW14791   3.956   5.616   4.955 -0.0657  0.0390 -0.1350
 4631SOL    HW114792   3.915   5.570   5.033 -0.3728  0.2612 -0.1613
 4631SOL    HW214793   3.958   5.554   4.876 -2.2411  0.6498 -0.7310
 4632SOL     OW14794   2.243   0.160   0.511 -0.4418  0.3890 -0.4588
 4632SOL    HW114795   2.323   0.131   0.458 -0.7065  0.3878 -0.8626
 4632SOL    HW214796   2.164   0.103   0.487 -0.6528  0.6238 -0.3272
 4633SOL     OW14797   5.122   0.422   6.534  0.6224  0.1159 -0.4251
 4633SOL    HW114798   5.206   0.427   6.588 -1.2737 -1.1014  2.9171
 4633SOL    HW214799   5.075   0.510   6.537  1.4084  0.6104 -1.7746
 4634SOL     OW14800   6.929   6.630   5.819 -0.2597 -0.0664 -0.0230
 4634SOL    HW114801   6.970   6.547   5.857  0.5455 -0.3904 -1.5063
 4634SOL    HW214802   6.940   6.629   5.720 -0.6131  1.6286 -0.0994
 4635SOL     OW14803   0.546   5.048   1.267  0.3548  0.0604  0.0509
 4635SOL    HW114804   0.580   4.988   1.339 -1.1128 -0.6276  0.2145
 4635SOL    HW214805   0.623   5.093   1.221  1.3356  0.1129  1.6878
 4636SOL     OW14806   4.704   5.236   0.472  0.3235 -0.0126 -0.2649
 4636SOL    HW114807   4.727   5.165   0.538  0.8532  0.1960 -0.2174
 4636SOL    HW214808   4.605   5.243   0.463  0.2143  0.4473  1.0547
 4637SOL     OW14809   4.978   6.713   6.888  0.2488 -0.2437  0.0625
 4637SOL    HW114810   5.021   6.739   6.974  0.4333 -0.0750 -0.0785
 4637SOL    HW214811   4.885   6.680   6.905  0.2359 -0.0803  0.3102
 4638SOL     OW14812   3.231   3.144   6.916 -0.1156  0.3195  0.1111
 4638SOL    HW114813   3.166   3.098   6.977  0.5520  2.2503  2.4309
 4638SOL    HW214814   3.181   3.203   6.852 -0.7357  0.2061  0.4825
 4639SOL     OW14815   5.373   0.750   6.169  0.1351 -0.3601  0.1543
 4639SOL    HW114816   5.421   0.756   6.257 -0.1111  0.2238  0.2535
 4639SOL    HW214817   5.439   0.729   6.097  0.6074  0.7764  0.2373
 4640SOL     OW14818   5.275   3.664   3.336 -0.3902 -0.4117 -0.0364
 4640SOL    HW114819   5.364   3.624   3.357  0.1612 -0.1346 -1.7102
 4640SOL    HW214820   5.231   3.694   3.421  0.1902 -2.3938  1.0205
 4641SOL     OW14821   0.499   6.658   4.242 -0.7304  0.3681 -0.2172
 4641SOL    HW114822   0.548   6.572   4.233 -0.6524  0.3585  0.2700
 4641SOL    HW214823   0.401   6.640   4.249 -0.6211  0.2131  1.2447
 4642SOL     OW14824   4.920   3.155   2.174  0.0140 -0.2630  0.3667
 4642SOL    HW114825   4.843   3.120   2.121 -0.5325  0.3314  0.7603
 4642SOL    HW214826   4.982   3.080   2.195 -0.4371 -0.7421  0.0167
 4643SOL     OW14827   6.225   5.124   0.924 -0.6618  0.9350 -0.4072
 4643SOL    HW114828   6.301   5.081   0.973 -1.3668  0.7898  0.5956
 4643SOL    HW214829   6.150   5.058   0.915 -1.2924  1.5640  0.0807
 4644SOL     OW14830   0.903   6.788   3.789 -0.6087  0.3277 -0.3344
 4644SOL    HW114831   0.840   6.808   3.864 -0.2057  1.4413 -0.2840
 4644SOL    HW214832   0.870   6.709   3.738 -0.8076 -0.5606  1.1103
 4645SOL     OW14833   4.971   0.490   5.613 -0.6314  0.1860 -0.8659
 4645SOL    HW114834   5.028   0.549   5.557  0.7225  0.9657  1.2078
 4645SOL    HW214835   4.950   0.536   5.700 -0.9163 -1.6994  0.1263
 4646SOL     OW14836   6.997   6.412   3.510 -0.8842 -0.1312 -0.4493
 4646SOL    HW114837   7.038   6.429   3.420 -0.5251  1.6720  0.0310
 4646SOL    HW214838   6.905   6.450   3.513 -1.4299 -1.4078 -0.4853
 4647SOL     OW14839   0.553   1.573   2.329 -0.7732 -0.0866  0.0459
 4647SOL    HW114840   0.537   1.603   2.423  0.1711  3.1508 -0.6690
 4647SOL    HW214841   0.470   1.587   2.274 -1.2318 -1.6938  0.2735
 4648SOL     OW14842   3.436   2.544   0.508 -0.7448  0.3675  0.2035
 4648SOL    HW114843   3.525   2.590   0.508 -0.4285 -0.2412 -0.1867
 4648SOL    HW214844   3.363   2.613   0.501 -0.2514  0.7559 -1.4561
 4649SOL     OW14845   4.431   2.060   2.486  0.5104  0.0736  0.1564
 4649SOL    HW114846   4.491   2.139   2.491 -0.7857  1.0217  3.0510
 4649SOL    HW214847   4.337   2.090   2.468  0.0143 -0.7804  1.1719
 4650SOL     OW14848   2.409   6.035   5.773 -0.3933 -0.0510 -0.0782
 4650SOL    HW114849   2.504   6.065   5.779 -0.4251 -0.0597  0.4891
 4650SOL    HW214850   2.405   5.945   5.730 -0.0561 -0.4670  0.7354
 4651SOL     OW14851   3.331   4.106   4.104 -0.0357 -0.7727  0.6679
 4651SOL    HW114852   3.256   4.068   4.050  0.1370 -0.1040 -0.0690
 4651SOL    HW214853   3.300   4.122   4.198 -0.6785 -0.9182  0.4852
 4652SOL     OW14854   2.088   4.835   2.384  0.1756  0.0529  0.2647
 4652SOL    HW114855   2.186   4.843   2.370  0.1818  0.4029  0.5021
 4652SOL    HW214856   2.040   4.852   2.298  0.3937 -1.9051 -0.3023
 4653SOL     OW14857   0.761   6.541   1.242 -0.3346 -0.0911  0.0489
 4653SOL    HW114858   0.849   6.554   1.196 -0.8315 -1.6480 -1.4518
 4653SOL    HW214859   0.694   6.606   1.205 -0.4995 -0.7405 -0.8279
 4654SOL     OW14860   0.805   6.611   1.517 -0.0184  0.5460 -0.3027
 4654SOL    HW114861   0.807   6.576   1.424  1.9844 -0.1248 -0.0461
 4654SOL    HW214862   0.711   6.607   1.552 -0.7116  0.3504 -2.0918
 4655SOL     OW14863   0.791   2.355   1.595 -0.0623  0.0878 -0.3974
 4655SOL    HW114864   0.883   2.366   1.557  0.1835 -1.4168 -0.2862
 4655SOL    HW214865   0.797   2.318   1.687 -0.7632  1.1691  0.1114
 4656SOL     OW14866   2.119   3.478   4.152 -0.3781 -0.6036  0.2968
 4656SOL    HW114867   2.125   3.577   4.169 -0.4146 -0.5101 -0.2186
 4656SOL    HW214868   2.094   3.462   4.056 -1.4801 -1.0923  0.6528
 4657SOL     OW14869   2.452   3.354   6.283 -0.0678 -0.3975 -0.8032
 4657SOL    HW114870   2.547   3.340   6.256  0.1474  1.2025 -0.9854
 4657SOL    HW214871   2.391   3.321   6.212  0.3820 -0.4925 -1.1464
 4658SOL     OW14872   3.497   0.441   1.883 -0.3548 -0.2148 -0.1609
 4658SOL    HW114873   3.453   0.523   1.846 -0.9493 -0.4103  0.1103
 4658SOL    HW214874   3.522   0.380   1.808 -1.1909 -0.4246 -0.2781
 4659SOL     OW14875   7.021   1.592   3.989  0.5060 -0.6115  0.0793
 4659SOL    HW114876   7.007   1.548   3.900 -0.7552 -0.3741  0.1391
 4659SOL    HW214877   7.060   1.527   4.053  3.2682 -0.2894 -1.1221
 4660SOL     OW14878   5.472   4.416   4.168  0.5985 -0.4583 -0.1676
 4660SOL    HW114879   5.442   4.424   4.264 -1.3999 -0.2851 -0.7535
 4660SOL    HW214880   5.539   4.343   4.161  2.3353  0.8458  1.6772
 4661SOL     OW14881   2.493   3.227   1.540 -0.5610  0.5724 -0.1709
 4661SOL    HW114882   2.473   3.283   1.460 -0.8823  0.8315  0.0890
 4661SOL    HW214883   2.537   3.284   1.610 -0.9342  0.5118  0.1129
 4662SOL     OW14884   3.339   6.576   5.483  0.6401  0.1130 -0.1522
 4662SOL    HW114885   3.436   6.600   5.496  0.7138 -0.1210 -0.2798
 4662SOL    HW214886   3.301   6.546   5.571  0.7115  0.0989 -0.1256
 4663SOL     OW14887   2.483   5.646   3.531 -0.2218 -0.3169 -0.3267
 4663SOL    HW114888   2.385   5.625   3.538  0.0157 -1.8227 -1.1580
 4663SOL    HW214889   2.534   5.584   3.590  0.2401  0.5360  0.1827
 4664SOL     OW14890   4.580   2.255   2.760  0.2822  0.0799  0.1318
 4664SOL    HW114891   4.561   2.264   2.662 -0.6890 -0.6476  0.2414
 4664SOL    HW214892   4.650   2.322   2.786 -1.0166  1.8083 -0.6138
 4665SOL     OW14893   4.656   0.378   0.804 -0.3050 -0.2763 -0.2212
 4665SOL    HW114894   4.724   0.396   0.875 -0.3960 -1.4183  0.1731
 4665SOL    HW214895   4.676   0.434   0.724 -0.8248  1.8793  1.0643
 4666SOL     OW14896   4.626   5.191   1.935  0.3132 -0.2418  0.2782
 4666SOL    HW114897   4.642   5.129   1.858 -1.1730 -0.4152  0.0676
 4666SOL    HW214898   4.648   5.285   1.907 -1.5082 -0.0962 -0.8799
 4667SOL     OW14899   3.123   1.657   1.371 -0.6235 -0.2008  0.2323
 4667SOL    HW114900   3.209   1.612   1.348 -1.1600 -0.1699 -2.0545
 4667SOL    HW214901   3.135   1.756   1.368 -0.1548 -0.1345  2.4658
 4668SOL     OW14902   3.861   3.701   5.575  0.4273  0.0917 -0.1250
 4668SOL    HW114903   3.871   3.619   5.519 -0.9091  0.4804 -0.9896
 4668SOL    HW214904   3.947   3.722   5.621  1.1323 -1.0702 -0.8893
 4669SOL     OW14905   3.308   0.617   0.832 -0.0058 -0.2119  0.7295
 4669SOL    HW114906   3.307   0.710   0.795  3.2822 -0.0786  0.6415
 4669SOL    HW214907   3.224   0.570   0.807 -1.8465  2.7343  0.8847
 4670SOL     OW14908   6.105   0.946   0.542 -0.1640  0.5422 -0.4952
 4670SOL    HW114909   6.197   0.963   0.577 -0.1374  0.4896 -0.5377
 4670SOL    HW214910   6.063   0.872   0.594 -1.0227  2.0124  0.9897
 4671SOL     OW14911   6.648   5.685   5.300 -0.5457  0.3022  0.1699
 4671SOL    HW114912   6.743   5.711   5.284  0.2291  0.0004  3.4820
 4671SOL    HW214913   6.643   5.587   5.323 -1.8920 -0.0226 -1.3172
 4672SOL     OW14914   4.170   5.097   1.978 -0.3300  0.0832  0.2566
 4672SOL    HW114915   4.210   5.097   1.887  0.8106 -2.2389  0.6697
 4672SOL    HW214916   4.083   5.047   1.976  0.9209 -2.2657  0.8117
 4673SOL     OW14917   4.826   2.599   0.762 -0.0182  0.0299 -0.2289
 4673SOL    HW114918   4.744   2.591   0.819  0.4588 -0.0247  0.4640
 4673SOL    HW214919   4.899   2.640   0.816  0.4957 -0.1911 -0.7565
 4674SOL     OW14920   0.650   5.577   5.926 -0.8803  0.1948 -0.1294
 4674SOL    HW114921   0.711   5.586   6.005  0.6449  1.5941 -1.4063
 4674SOL    HW214922   0.555   5.578   5.958 -0.3036 -0.8940  1.8091
 4675SOL     OW14923   3.835   1.861   2.371  0.0839 -0.1022 -0.0233
 4675SOL    HW114924   3.884   1.948   2.359 -1.1035  1.4781  4.4555
 4675SOL    HW214925   3.899   1.790   2.399  0.7599 -0.1516 -1.6028
 4676SOL     OW14926   6.947   0.087   6.360 -0.4401 -0.1456 -0.1172
 4676SOL    HW114927   6.902   0.068   6.273 -1.2999  1.0025  0.0559
 4676SOL    HW214928   7.012   0.163   6.349  0.4773 -0.8985 -0.0532
 4677SOL     OW14929   4.502   4.532   4.829  0.2550  0.9221 -0.0811
 4677SOL    HW114930   4.450   4.507   4.911 -0.0659  0.4481 -0.4220
 4677SOL    HW214931   4.446   4.588   4.769 -0.3822 -0.6952 -1.0801
 4678SOL     OW14932   0.236   0.233   3.993  0.2652 -0.4670  0.0341
 4678SOL    HW114933   0.299   0.173   4.042 -1.4923 -0.4366  2.5122
 4678SOL    HW214934   0.266   0.328   4.004  0.1285 -0.4961  0.6609
 4679SOL     OW14935   1.912   0.780   3.091  0.5361  0.0393  0.5856
 4679SOL    HW114936   1.894   0.810   3.185  0.8268  3.5363 -0.3499
 4679SOL    HW214937   2.010   0.769   3.077  0.5649  0.4891  0.4324
 4680SOL     OW14938   5.173   6.624   3.580  0.5888  0.0004 -0.1463
 4680SOL    HW114939   5.126   6.672   3.506 -0.6798 -0.1513  0.5373
 4680SOL    HW214940   5.228   6.549   3.542 -1.8116 -1.5305 -0.8089
 4681SOL     OW14941   6.358   1.412   3.089  0.1837 -0.3752 -0.1764
 4681SOL    HW114942   6.411   1.478   3.142 -1.3535  1.7462 -1.1292
 4681SOL    HW214943   6.419   1.361   3.028  1.5962 -0.8851  1.6006
 4682SOL     OW14944   5.025   6.876   3.937 -0.2112  0.1639  0.4306
 4682SOL    HW114945   5.014   6.952   4.000 -0.8048  2.0735 -1.8476
 4682SOL    HW214946   4.945   6.816   3.943 -2.4274  2.6934 -1.4311
 4683SOL     OW14947   5.318   4.778   0.781 -0.7476 -0.5569  0.2609
 4683SOL    HW114948   5.263   4.861   0.767  0.9850  0.5569 -0.2709
 4683SOL    HW214949   5.346   4.741   0.692  0.4354 -0.3216  0.5114
 4684SOL     OW14950   0.834   6.538   5.802  0.0832 -0.8540  0.5518
 4684SOL    HW114951   0.794   6.567   5.889  0.0857  0.1596  0.2303
 4684SOL    HW214952   0.840   6.438   5.799  1.7535 -0.8637  2.4687
 4685SOL     OW14953   5.883   6.621   3.739 -0.6374 -0.0806  0.0016
 4685SOL    HW114954   5.854   6.676   3.661 -0.5037 -2.0869 -1.5737
 4685SOL    HW214955   5.948   6.672   3.795  0.6496  0.8315 -2.2007
 4686SOL     OW14956   5.327   2.097   6.659 -0.0174 -0.6807 -0.0204
 4686SOL    HW114957   5.310   2.064   6.751  2.5910 -1.4230  0.2806
 4686SOL    HW214958   5.349   2.195   6.663 -0.2893 -0.6251  0.1039
 4687SOL     OW14959   2.718   0.711   6.389 -0.3000  0.6191  0.3129
 4687SOL    HW114960   2.628   0.687   6.355 -0.3773 -0.5361  1.2613
 4687SOL    HW214961   2.713   0.731   6.487  0.6495 -0.7552  0.6839
 4688SOL     OW14962   1.180   6.570   0.849  0.2290  0.2952  1.0128
 4688SOL    HW114963   1.192   6.591   0.752  2.4720  0.2030  1.2247
 4688SOL    HW214964   1.172   6.471   0.862 -0.1116  0.3107  0.9253
 4689SOL     OW14965   2.026   1.946   6.289  0.3155  0.1152  0.0340
 4689SOL    HW114966   1.980   1.928   6.202  1.5713 -1.0951 -0.4193
 4689SOL    HW214967   2.095   2.017   6.276 -0.7750  1.2826  0.5014
 4690SOL     OW14968   1.356   0.898   4.101 -0.4662  0.1258  0.1745
 4690SOL    HW114969   1.318   0.820   4.050 -0.8440 -0.1867  0.9119
 4690SOL    HW214970   1.327   0.983   4.057 -1.1121 -0.1299  0.0867
 4691SOL     OW14971   6.112   1.418   4.589  0.1179 -0.3051 -0.3911
 4691SOL    HW114972   6.031   1.394   4.642 -2.1422  3.2026 -1.8838
 4691SOL    HW214973   6.183   1.451   4.650 -0.2301 -1.7004  0.8220
 4692SOL     OW14974   2.910   2.258   6.774  0.2091 -0.4204 -0.1015
 4692SOL    HW114975   2.998   2.210   6.779  1.1729  1.4036  2.4489
 4692SOL    HW214976   2.908   2.331   6.842 -3.2683 -0.2878 -0.1685
 4693SOL     OW14977   5.713   1.967   4.159 -0.1024  0.5146 -0.3150
 4693SOL    HW114978   5.757   1.884   4.125  0.5686  1.5064 -1.9755
 4693SOL    HW214979   5.617   1.948   4.179  0.2754 -0.8883  0.2593
 4694SOL     OW14980   2.211   4.585   4.436  0.4588  0.0636 -0.3950
 4694SOL    HW114981   2.243   4.672   4.398 -0.0587  0.4657  0.0468
 4694SOL    HW214982   2.287   4.535   4.475  0.6452  0.7436  0.1468
 4695SOL     OW14983   3.628   6.216   3.300 -0.7007  0.0203  0.2338
 4695SOL    HW114984   3.697   6.207   3.372  0.1773  2.3264 -0.2160
 4695SOL    HW214985   3.537   6.224   3.342 -0.4630 -0.8599  0.9514
 4696SOL     OW14986   3.519   6.905   1.959 -0.4017  0.0648 -0.1863
 4696SOL    HW114987   3.497   6.896   1.862 -0.2513 -1.1957 -0.1210
 4696SOL    HW214988   3.435   6.918   2.012 -0.5266  0.2994 -0.4423
 4697SOL     OW14989   2.519   1.232   4.086 -0.1161 -0.2505  0.2786
 4697SOL    HW114990   2.616   1.256   4.079 -0.2345  0.1763  0.0447
 4697SOL    HW214991   2.508   1.153   4.146  0.1965  0.8207  1.7876
 4698SOL     OW14992   4.625   1.175   0.015 -0.6044 -0.7823  0.2544
 4698SOL    HW114993   4.581   1.179  -0.075  0.5002 -0.9691 -0.3060
 4698SOL    HW214994   4.559   1.140   0.082 -0.8401 -2.7283 -0.8900
 4699SOL     OW14995   5.563   4.512   1.493  0.4024 -0.3716 -0.3285
 4699SOL    HW114996   5.620   4.540   1.416  1.0547 -0.9752 -0.0812
 4699SOL    HW214997   5.599   4.550   1.578 -0.0472 -0.0817 -0.2636
 4700SOL     OW14998   4.872   4.260   4.862 -0.1798 -0.0841 -0.1793
 4700SOL    HW114999   4.841   4.167   4.884  0.4796 -0.1158  0.6482
 4700SOL    HW215000   4.910   4.303   4.944  1.8402 -0.0003 -1.1070
 4701SOL     OW15001   4.453   6.325   1.346 -0.1384  0.4896  0.5246
 4701SOL    HW115002   4.439   6.238   1.301  1.6787  0.1958  0.4498
 4701SOL    HW215003   4.443   6.400   1.280 -0.7373  0.2728  0.3724
 4702SOL     OW15004   6.159   6.143   2.766 -0.2253  0.0344  0.0224
 4702SOL    HW115005   6.109   6.065   2.804 -0.4150 -0.6704 -1.6144
 4702SOL    HW215006   6.165   6.134   2.667 -1.1061  2.5974 -0.3421
 4703SOL     OW15007   1.363   1.039   1.823 -0.5030 -0.3011 -0.0026
 4703SOL    HW115008   1.405   0.984   1.750  0.2077  0.0751  0.1075
 4703SOL    HW215009   1.279   0.996   1.854  0.0851 -1.3744  0.1349
 4704SOL     OW15010   5.084   4.761   3.143  0.1657  0.1106  0.3786
 4704SOL    HW115011   4.999   4.811   3.124  0.9733  1.1242 -0.7497
 4704SOL    HW215012   5.160   4.808   3.099  1.3902 -0.5361  1.7446
 4705SOL     OW15013   4.680   6.817   1.030  1.0346 -0.4784 -0.1498
 4705SOL    HW115014   4.708   6.870   0.951  0.9729 -0.6382 -0.2802
 4705SOL    HW215015   4.640   6.877   1.099 -0.9161 -0.5907 -1.1254
 4706SOL     OW15016   4.453   2.267   0.231 -0.5523  0.4355 -0.3593
 4706SOL    HW115017   4.420   2.242   0.323 -0.9616 -1.3456 -0.9357
 4706SOL    HW215018   4.391   2.335   0.192 -0.3058  1.3120  0.7141
 4707SOL     OW15019   1.450   6.695   1.694  0.3243 -0.6664  0.1138
 4707SOL    HW115020   1.360   6.695   1.738  0.6589  1.0372  0.8557
 4707SOL    HW215021   1.442   6.652   1.604 -0.8724 -2.0142  0.8128
 4708SOL     OW15022   6.433   2.912   3.675 -0.0908  0.0711  0.2802
 4708SOL    HW115023   6.528   2.944   3.675 -0.7187  2.1567  1.4830
 4708SOL    HW215024   6.419   2.849   3.599  2.0476  0.3207 -0.3914
 4709SOL     OW15025   1.420   4.580   3.623  0.2518  0.1905 -0.2696
 4709SOL    HW115026   1.442   4.607   3.717 -1.3079 -0.7733  0.4022
 4709SOL    HW215027   1.429   4.659   3.563 -1.8596  1.6768  1.2353
 4710SOL     OW15028   4.586   6.475   3.869 -0.1473  0.1303 -0.1483
 4710SOL    HW115029   4.620   6.422   3.791 -0.9680 -0.2822 -0.2302
 4710SOL    HW215030   4.516   6.539   3.837 -0.0060  0.4371  0.1475
 4711SOL     OW15031   6.313   6.792   4.364  0.2841 -0.0986  0.5563
 4711SOL    HW115032   6.322   6.845   4.280  1.5048 -2.4143 -0.8672
 4711SOL    HW215033   6.303   6.854   4.441 -1.7984  2.1249 -1.3248
 4712SOL     OW15034   6.185   2.703   3.059  0.0616  0.2544  0.2173
 4712SOL    HW115035   6.154   2.695   2.964 -2.4207 -2.1810  1.0960
 4712SOL    HW215036   6.122   2.760   3.110  0.4501  0.2036  0.7648
 4713SOL     OW15037   4.440   3.741   5.538 -0.4880 -0.0854 -0.0593
 4713SOL    HW115038   4.419   3.754   5.635 -0.4353  0.8244 -0.1623
 4713SOL    HW215039   4.364   3.693   5.494 -1.6960  1.7336 -0.0777
 4714SOL     OW15040   2.719   5.312   1.539  0.3531  0.4932  0.6083
 4714SOL    HW115041   2.693   5.353   1.452  1.5260 -0.1779 -0.0797
 4714SOL    HW215042   2.754   5.220   1.524  0.4801  0.3246  1.8037
 4715SOL     OW15043   4.100   0.250   1.742 -0.3592  0.2727  0.1953
 4715SOL    HW115044   4.075   0.291   1.654  0.5727 -1.6240 -0.9927
 4715SOL    HW215045   4.105   0.322   1.811  0.1961  2.0237 -1.5718
 4716SOL     OW15046   4.459   2.526   1.906 -0.1185 -0.2225 -0.6073
 4716SOL    HW115047   4.393   2.454   1.925  0.6097 -1.0360 -1.0909
 4716SOL    HW215048   4.529   2.527   1.977 -1.5954  1.8411  0.9278
 4717SOL     OW15049   6.945   3.905   5.677  0.5059  0.2251  0.3317
 4717SOL    HW115050   7.025   3.849   5.658 -0.2942 -0.4378 -1.1798
 4717SOL    HW215051   6.962   3.999   5.648  1.1257  0.3409  1.0441
 4718SOL     OW15052   6.760   4.305   5.004 -0.1206  0.0589 -0.2469
 4718SOL    HW115053   6.703   4.230   5.037 -1.6615  0.6393 -1.4857
 4718SOL    HW215054   6.755   4.381   5.068  0.4761 -0.4232  0.3943
 4719SOL     OW15055   4.179   1.001   4.596 -0.3215  0.7193 -0.0070
 4719SOL    HW115056   4.138   1.089   4.620 -1.1239  0.1807  0.6342
 4719SOL    HW215057   4.278   1.007   4.602 -0.4440  0.7511  3.0536
 4720SOL     OW15058   2.268   5.717   2.163 -0.1014  0.4555 -0.1570
 4720SOL    HW115059   2.241   5.797   2.217  0.1834 -0.5875  1.6073
 4720SOL    HW215060   2.201   5.644   2.176  0.4901 -0.1474 -0.4236
 4721SOL     OW15061   0.880   3.341   4.892  0.3223 -0.1273  0.5224
 4721SOL    HW115062   0.883   3.431   4.849 -0.7957 -0.4673 -0.3162
 4721SOL    HW215063   0.941   3.279   4.843  0.6544  0.0193  0.7447
 4722SOL     OW15064   1.479   2.487   0.442 -0.5248  0.0092  0.5936
 4722SOL    HW115065   1.382   2.508   0.428 -0.3423 -0.1588 -1.1912
 4722SOL    HW215066   1.522   2.561   0.495 -1.7351 -0.2327  1.9792
 4723SOL     OW15067   5.134   0.625   2.260  0.3183  0.3073 -0.5130
 4723SOL    HW115068   5.142   0.611   2.359  3.9745  2.1430 -0.3500
 4723SOL    HW215069   5.145   0.722   2.240  2.7596 -0.3187 -2.7964
 4724SOL     OW15070   5.259   0.601   4.931  1.0823  0.5331 -0.2735
 4724SOL    HW115071   5.232   0.509   4.960  0.9363  1.7537  4.3603
 4724SOL    HW215072   5.182   0.647   4.887  0.2898 -0.6682 -0.1859
 4725SOL     OW15073   0.855   1.163   5.242 -0.1837  0.1643 -0.1135
 4725SOL    HW115074   0.779   1.106   5.275 -0.3423 -0.1982 -1.0885
 4725SOL    HW215075   0.849   1.253   5.284 -0.2423 -0.3548  1.0350
 4726SOL     OW15076   2.273   0.389   2.744  0.1546 -0.2922  0.5564
 4726SOL    HW115077   2.270   0.487   2.725  1.4668  0.0448  1.9164
 4726SOL    HW215078   2.203   0.366   2.811  0.6819 -0.0306  1.2086
 4727SOL     OW15079   1.503   0.815   1.009 -0.0513  0.1860 -0.3359
 4727SOL    HW115080   1.460   0.874   0.940  0.1030  0.7306  0.0243
 4727SOL    HW215081   1.435   0.788   1.076  0.0247  0.5315 -0.1154
 4728SOL     OW15082   6.118   6.555   4.417  0.6362 -0.1388  0.1479
 4728SOL    HW115083   6.165   6.640   4.394 -0.1872 -0.2401 -2.1377
 4728SOL    HW215084   6.051   6.572   4.489 -0.3211  1.4383 -1.0470
 4729SOL     OW15085   5.554   1.023   3.859 -0.3576 -0.4722  0.2363
 4729SOL    HW115086   5.469   1.024   3.807  0.0783  0.6837 -0.4916
 4729SOL    HW215087   5.557   1.103   3.919  0.3939 -0.2632 -0.0657
 4730SOL     OW15088   0.364   6.903   4.422  0.0200 -0.0229  0.7705
 4730SOL    HW115089   0.373   7.001   4.443 -1.9993  0.7419 -1.5366
 4730SOL    HW215090   0.410   6.884   4.335 -1.2697 -0.6941  0.2206
 4731SOL     OW15091   5.624   6.713   0.222  0.1036  0.0007  0.7441
 4731SOL    HW115092   5.685   6.785   0.189  1.9843 -1.6423  0.3804
 4731SOL    HW215093   5.550   6.753   0.276  2.1766  2.0515  2.2451
 4732SOL     OW15094   6.146   4.052   0.466  0.2501 -0.0324 -0.1526
 4732SOL    HW115095   6.174   4.051   0.370 -0.4058  1.2370 -0.3768
 4732SOL    HW215096   6.056   4.009   0.474 -0.1491  0.7740 -0.2682
 4733SOL     OW15097   1.848   0.915   5.587 -0.8782 -0.5528  0.5549
 4733SOL    HW115098   1.877   0.933   5.681  1.0893 -1.0089  0.0855
 4733SOL    HW215099   1.872   0.992   5.529  1.1072 -1.6234 -0.1593
 4734SOL     OW15100   0.614   1.785   0.791 -0.6098 -0.4224  0.3131
 4734SOL    HW115101   0.665   1.824   0.714 -0.9501 -0.0690  0.2636
 4734SOL    HW215102   0.551   1.854   0.827 -1.2761 -0.9486  0.1705
 4735SOL     OW15103   0.918   0.089   4.169  0.2601 -0.1187 -0.1766
 4735SOL    HW115104   0.934   0.002   4.215  2.2358  1.3177  2.1031
 4735SOL    HW215105   1.001   0.116   4.120  0.2781  1.2700  0.5864
 4736SOL     OW15106   5.564   1.669   6.410 -0.3292  0.9904  1.0111
 4736SOL    HW115107   5.569   1.571   6.429  0.4177  0.7194 -0.4535
 4736SOL    HW215108   5.535   1.683   6.315  0.5422  2.1536  0.8900
 4737SOL     OW15109   4.379   5.296   5.241  0.2836  0.0962  0.1679
 4737SOL    HW115110   4.322   5.377   5.253  0.7520  0.5931 -0.8350
 4737SOL    HW215111   4.329   5.215   5.271 -1.6384  0.2942 -2.2793
 4738SOL     OW15112   2.867   2.988   5.391 -0.1564  0.1855  0.1270
 4738SOL    HW115113   2.871   2.888   5.391 -2.2149  0.0455  1.2503
 4738SOL    HW215114   2.774   3.018   5.370 -0.6877  1.6752  3.8396
 4739SOL     OW15115   0.503   3.881   2.709 -0.0326  0.0375 -0.4961
 4739SOL    HW115116   0.580   3.838   2.662  0.0215  0.4266 -0.7624
 4739SOL    HW215117   0.535   3.961   2.759 -0.1082 -0.3025  0.1153
 4740SOL     OW15118   1.640   5.277   4.493 -0.2690  0.0284 -0.1352
 4740SOL    HW115119   1.635   5.374   4.471  0.7481  0.2933  0.7624
 4740SOL    HW215120   1.620   5.264   4.590 -1.5764 -0.7971 -0.4901
 4741SOL     OW15121   2.269   4.600   2.731 -0.5352 -0.3325  0.3187
 4741SOL    HW115122   2.308   4.692   2.736  0.3785 -0.5056 -2.2866
 4741SOL    HW215123   2.169   4.607   2.729 -0.4605  0.7687 -1.6226
 4742SOL     OW15124   2.545   0.864   4.952  0.7435  0.3260  1.0793
 4742SOL    HW115125   2.492   0.931   4.900 -0.5752 -0.3955  1.4339
 4742SOL    HW215126   2.551   0.894   5.047  0.0402 -0.0903  1.2668
 4743SOL     OW15127   4.672   0.092   3.201  0.0090  0.2907 -0.4054
 4743SOL    HW115128   4.731   0.014   3.181 -0.2628  0.2634 -1.1227
 4743SOL    HW215129   4.702   0.171   3.147 -0.0993  0.5124 -0.1459
 4744SOL     OW15130   3.146   3.834   0.244  0.2329 -0.2648 -0.1091
 4744SOL    HW115131   3.085   3.773   0.193 -0.8917  0.0638  0.7900
 4744SOL    HW215132   3.230   3.786   0.267 -0.0712 -1.0433 -0.5797
 4745SOL     OW15133   3.049   4.122   1.583  0.4961 -0.6216 -0.1655
 4745SOL    HW115134   3.036   4.047   1.647  0.5941  1.4081  2.3956
 4745SOL    HW215135   3.144   4.154   1.587  0.1300  0.5273 -0.1499
 4746SOL     OW15136   4.732   5.657   3.442  1.1496 -0.4193  0.0864
 4746SOL    HW115137   4.703   5.676   3.535  1.6171 -0.4238  0.2327
 4746SOL    HW215138   4.821   5.699   3.425  0.4156  0.8595 -0.8246
 4747SOL     OW15139   1.518   4.082   6.700 -0.2303 -0.0219 -0.0584
 4747SOL    HW115140   1.617   4.096   6.702  0.0439 -1.7462  0.1948
 4747SOL    HW215141   1.472   4.168   6.718  1.1466  1.3771 -2.6366
 4748SOL     OW15142   6.618   4.740   3.877  0.0395  0.4895  0.6304
 4748SOL    HW115143   6.700   4.707   3.923 -0.4085  0.0706  1.1337
 4748SOL    HW215144   6.577   4.814   3.931 -0.9416 -0.5511  1.3432
 4749SOL     OW15145   3.219   4.837   3.599 -0.8134 -0.2663  0.0190
 4749SOL    HW115146   3.247   4.772   3.670  0.0223 -1.2475 -1.1597
 4749SOL    HW215147   3.300   4.867   3.548 -1.5178 -0.6557 -1.3847
 4750SOL     OW15148   6.292   0.793   4.425  0.6879 -1.3092  0.0901
 4750SOL    HW115149   6.248   0.807   4.514  0.0425  0.4963 -0.4676
 4750SOL    HW215150   6.342   0.875   4.399  1.2395 -1.9717 -1.0182
 4751SOL     OW15151   2.447   0.001   5.859  0.3583 -0.4542  0.6456
 4751SOL    HW115152   2.417  -0.094   5.846 -0.6908 -0.1006  0.3476
 4751SOL    HW215153   2.468   0.042   5.770 -3.0022  0.7552  0.2490
 4752SOL     OW15154   5.442   6.848   1.309 -0.0194  0.3235 -0.3014
 4752SOL    HW115155   5.347   6.824   1.290 -0.1902  2.2674 -2.4496
 4752SOL    HW215156   5.446   6.915   1.383 -0.4374  1.0526 -0.9328
 4753SOL     OW15157   4.023   3.996   0.852 -0.4333 -0.1987  0.5226
 4753SOL    HW115158   4.058   3.905   0.871 -2.3343 -0.9043  0.9014
 4753SOL    HW215159   3.923   3.994   0.855 -0.5318  2.4022  3.0728
 4754SOL     OW15160   1.710   0.015   1.943  0.3100 -0.4674 -0.6650
 4754SOL    HW115161   1.629   0.004   1.885 -0.5804 -0.2945  0.5104
 4754SOL    HW215162   1.741  -0.075   1.972 -0.7315 -0.4511  0.5618
 4755SOL     OW15163   4.030   6.053   0.734  0.3608 -0.1084  0.0424
 4755SOL    HW115164   3.984   6.043   0.646 -0.2486  4.2899 -0.3274
 4755SOL    HW215165   3.979   6.003   0.804 -0.3655 -1.8886 -1.6595
 4756SOL     OW15166   4.113   3.714   3.468  0.1059  0.2019 -0.2507
 4756SOL    HW115167   4.164   3.726   3.383  2.8131  0.3232  1.2999
 4756SOL    HW215168   4.036   3.778   3.470 -0.8410 -0.6790 -3.0895
 4757SOL     OW15169   2.650   6.756   6.911  0.0470  0.3379  0.0394
 4757SOL    HW115170   2.625   6.783   7.004 -1.3233  2.7399 -0.9153
 4757SOL    HW215171   2.573   6.776   6.849  1.1314 -0.6222 -1.7055
 4758SOL     OW15172   0.276   4.768   5.649 -0.1073 -0.0089 -0.7671
 4758SOL    HW115173   0.284   4.668   5.644  0.1076 -0.0438  0.1861
 4758SOL    HW215174   0.364   4.808   5.672 -0.4823  0.3009  0.1724
 4759SOL     OW15175   2.101   0.538   1.749 -0.1345  0.5713  0.0624
 4759SOL    HW115176   2.189   0.495   1.770 -0.6402 -0.5120  0.0462
 4759SOL    HW215177   2.027   0.474   1.771 -0.8483  0.8632 -1.4171
 4760SOL     OW15178   2.223   0.109   4.810  1.0272  0.1454 -0.4161
 4760SOL    HW115179   2.158   0.081   4.880  0.8504  1.5562  0.0096
 4760SOL    HW215180   2.217   0.047   4.732 -1.2568  0.5874 -0.6407
 4761SOL     OW15181   6.337   5.472   1.926  0.3079  0.5627  0.0967
 4761SOL    HW115182   6.401   5.399   1.900  1.1186  1.2908  0.0068
 4761SOL    HW215183   6.369   5.516   2.011 -0.8110  0.0479  0.8112
 4762SOL     OW15184   0.659   3.184   1.147  0.5898  0.1409 -0.1010
 4762SOL    HW115185   0.695   3.268   1.189 -1.4660  0.8093  0.4320
 4762SOL    HW215186   0.735   3.123   1.126  2.0434  1.5765  0.6944
 4763SOL     OW15187   3.586   0.418   2.140 -0.0050  0.5044  0.5564
 4763SOL    HW115188   3.602   0.511   2.173 -1.1934  1.5759 -1.6538
 4763SOL    HW215189   3.540   0.422   2.051 -0.5987 -2.2244  0.6659
 4764SOL     OW15190   4.355   6.209   4.947 -0.4217  0.1049  0.2546
 4764SOL    HW115191   4.406   6.125   4.966 -0.3869  0.2682  0.8859
 4764SOL    HW215192   4.410   6.288   4.971 -0.1546  0.3443 -1.0587
 4765SOL     OW15193   5.066   1.830   0.823  0.2273  0.1390  0.8079
 4765SOL    HW115194   5.037   1.915   0.779  1.7222 -0.3577 -1.3384
 4765SOL    HW215195   4.986   1.779   0.853 -0.8166  1.1347 -0.1902
 4766SOL     OW15196   3.231   0.170   0.088 -0.2729  0.1371 -0.4229
 4766SOL    HW115197   3.224   0.085   0.036 -2.0358  0.3443 -0.6129
 4766SOL    HW215198   3.169   0.238   0.048  0.0211  1.0281  0.5946
 4767SOL     OW15199   5.303   6.122   5.030  0.3808 -0.4557  0.2621
 4767SOL    HW115200   5.207   6.095   5.017 -0.5095  1.3858  2.2880
 4767SOL    HW215201   5.333   6.175   4.950 -1.1520  1.0189  0.5840
 4768SOL     OW15202   5.371   3.760   5.458  0.3542  0.1226  0.0463
 4768SOL    HW115203   5.397   3.847   5.501 -0.6072 -0.2492  1.4562
 4768SOL    HW215204   5.398   3.761   5.362  1.3450  1.5416  0.3080
 4769SOL     OW15205   0.857   6.051   2.720 -0.0610 -0.0777  0.3449
 4769SOL    HW115206   0.938   6.070   2.776  0.2247  1.0007 -0.4104
 4769SOL    HW215207   0.874   5.970   2.663  0.2516 -0.2127  0.6247
 4770SOL     OW15208   3.907   0.074   1.626  0.0025  0.4798  0.0248
 4770SOL    HW115209   3.995   0.112   1.654  1.2533 -1.1030 -1.5312
 4770SOL    HW215210   3.840   0.087   1.699  2.0223 -0.0147  2.0791
 4771SOL     OW15211   4.438   5.414   0.960  0.1142 -0.0267  0.9954
 4771SOL    HW115212   4.489   5.481   1.014  0.6647  0.0474  0.3931
 4771SOL    HW215213   4.345   5.405   0.996  0.4566  0.0673  1.9146
 4772SOL     OW15214   0.260   5.706   4.814 -0.0988 -0.0957  0.1051
 4772SOL    HW115215   0.326   5.760   4.762 -0.3651 -0.1387 -0.2750
 4772SOL    HW215216   0.172   5.706   4.768 -0.3286 -0.1665  0.5353
 4773SOL     OW15217   4.260   4.919   0.879 -0.1328  0.1759  0.5201
 4773SOL    HW115218   4.353   4.954   0.887 -0.3020  0.4097  1.5497
 4773SOL    HW215219   4.261   4.819   0.892 -0.0379  0.1863  0.5923
 4774SOL     OW15220   2.222   6.718   7.002 -0.1471  0.4034 -0.2530
 4774SOL    HW115221   2.274   6.689   6.922 -0.7472 -0.1880 -0.4399
 4774SOL    HW215222   2.161   6.644   7.030  0.4830  0.3601  1.1235
 4775SOL     OW15223   3.323   6.802   1.469 -0.2604  0.1336 -0.2537
 4775SOL    HW115224   3.414   6.770   1.497  0.2182  1.0439 -0.7160
 4775SOL    HW215225   3.317   6.802   1.369 -0.6106  0.5069 -0.2343
 4776SOL     OW15226   1.635   3.084   0.332 -0.0817 -0.1970 -0.6048
 4776SOL    HW115227   1.579   3.020   0.279  1.5755  0.1046 -2.8550
 4776SOL    HW215228   1.610   3.178   0.307 -1.2213  0.0554  1.3125
 4777SOL     OW15229   4.507   0.618   1.440 -0.2184 -0.4967  0.4183
 4777SOL    HW115230   4.582   0.579   1.494  0.5878 -0.7595 -0.8603
 4777SOL    HW215231   4.501   0.716   1.457  1.1867 -0.2646 -0.3541
 4778SOL     OW15232   4.475   4.854   3.217  0.1788  0.3669  0.2742
 4778SOL    HW115233   4.398   4.915   3.199 -0.9729 -0.5800  1.7637
 4778SOL    HW215234   4.447   4.759   3.207  1.4503  0.0089 -0.1822
 4779SOL     OW15235   4.892   0.434   4.802 -0.0665  0.1022 -0.5450
 4779SOL    HW115236   4.944   0.380   4.736  0.5713 -0.5075  0.4304
 4779SOL    HW215237   4.825   0.375   4.848 -0.0482  0.3626 -0.1785
 4780SOL     OW15238   1.938   0.747   6.770 -0.1370 -0.7761  0.0687
 4780SOL    HW115239   1.982   0.745   6.680  2.1696  0.4999  1.0637
 4780SOL    HW215240   1.850   0.795   6.763 -0.2182 -1.1191 -1.5751
 4781SOL     OW15241   3.134   6.576   4.404 -0.0013 -0.2991  0.9245
 4781SOL    HW115242   3.079   6.516   4.461 -1.2935  0.6848  0.7599
 4781SOL    HW215243   3.173   6.524   4.328 -0.5082 -1.0674  1.1881
 4782SOL     OW15244   2.415   2.324   5.520  0.2612 -0.2469 -0.1424
 4782SOL    HW115245   2.329   2.347   5.475 -0.1236 -0.7261  0.3383
 4782SOL    HW215246   2.471   2.407   5.528 -0.5246  0.2562  0.3320
 4783SOL     OW15247   0.010   3.512   0.821 -0.1978  0.0110 -0.1711
 4783SOL    HW115248   0.092   3.469   0.783 -0.4049  0.4526 -1.1508
 4783SOL    HW215249   0.037   3.580   0.889  0.2885  0.5122 -0.8525
 4784SOL     OW15250   1.082   2.255   5.000 -0.3938  0.8518  0.0249
 4784SOL    HW115251   1.065   2.175   4.942 -0.9668  0.4285  0.7487
 4784SOL    HW215252   1.021   2.329   4.973  0.4435  1.2088 -0.9373
 4785SOL     OW15253   1.879   5.835   5.066 -0.3248  0.2724 -0.0058
 4785SOL    HW115254   1.907   5.889   4.986 -2.0314  0.5205 -0.4887
 4785SOL    HW215255   1.805   5.773   5.040  1.4531 -2.2658  0.5750
 4786SOL     OW15256   0.434   0.561   4.510 -0.0382  0.3775 -0.0946
 4786SOL    HW115257   0.394   0.617   4.581  0.6320 -0.2882  0.8395
 4786SOL    HW215258   0.362   0.510   4.462 -0.7737  2.7554 -1.6695
 4787SOL     OW15259   3.449   3.234   0.742 -0.1928 -0.4207  0.3988
 4787SOL    HW115260   3.417   3.289   0.819 -0.0486 -0.4273  0.4637
 4787SOL    HW215261   3.549   3.238   0.737 -0.1460 -1.0426  0.6874
 4788SOL     OW15262   1.546   0.096   3.663  0.0741 -0.5664 -0.1455
 4788SOL    HW115263   1.460   0.047   3.646  0.0128 -0.3235 -0.5548
 4788SOL    HW215264   1.561   0.163   3.590  0.5507 -0.5214 -0.0099
 4789SOL     OW15265   0.552   6.752   3.478  0.2942 -0.4064  0.7299
 4789SOL    HW115266   0.580   6.826   3.539 -0.4647  0.1074  0.4786
 4789SOL    HW215267   0.579   6.774   3.384  0.1289 -0.4766  0.6653
 4790SOL     OW15268   4.472   2.555   4.389 -0.3879  0.9881 -0.1634
 4790SOL    HW115269   4.518   2.606   4.316  3.5625 -0.4924  1.0516
 4790SOL    HW215270   4.465   2.612   4.471  0.6457  0.7904  0.0738
 4791SOL     OW15271   5.696   6.223   6.857  0.2611 -0.0551  0.2513
 4791SOL    HW115272   5.659   6.187   6.942  1.3227 -0.1691  0.6793
 4791SOL    HW215273   5.661   6.315   6.842  0.6894  0.2763  1.2277
 4792SOL     OW15274   5.320   3.635   2.280  0.5702  0.3202 -0.2050
 4792SOL    HW115275   5.283   3.723   2.250  1.5289  0.5280 -0.8099
 4792SOL    HW215276   5.246   3.569   2.287 -0.3340  1.4376  1.2984
 4793SOL     OW15277   1.720   3.899   5.085 -0.0581 -0.8687 -0.5589
 4793SOL    HW115278   1.716   3.926   4.989 -0.6323 -2.5959 -1.0616
 4793SOL    HW215279   1.667   3.815   5.099 -2.3476  0.7960  1.8257
 4794SOL     OW15280   0.892   5.104   0.919 -0.1305 -0.2816 -0.4049
 4794SOL    HW115281   0.880   5.129   0.823 -1.2617 -0.0484 -0.2162
 4794SOL    HW215282   0.971   5.151   0.956 -0.4139  0.5992 -0.8960
 4795SOL     OW15283   6.726   3.389   0.353 -0.3900  0.2503  0.5114
 4795SOL    HW115284   6.663   3.426   0.285  0.8646 -0.5831 -1.1574
 4795SOL    HW215285   6.746   3.294   0.332  2.1317  0.7442  0.4403
 4796SOL     OW15286   2.125   3.148   4.024 -0.5198 -0.0474  0.2753
 4796SOL    HW115287   2.187   3.074   3.998  2.6316  2.1954  0.7946
 4796SOL    HW215288   2.138   3.226   3.962  0.1125  1.8813  2.6584
 4797SOL     OW15289   3.268   5.460   0.200 -0.7155 -0.1819 -0.2002
 4797SOL    HW115290   3.170   5.446   0.217 -0.2883 -1.6344  1.4304
 4797SOL    HW215291   3.304   5.384   0.146  0.1927 -1.8476  2.5068
 4798SOL     OW15292   6.282   0.362   4.920 -0.1643  0.1024 -0.6285
 4798SOL    HW115293   6.259   0.361   5.017 -0.2195 -0.3858 -0.6427
 4798SOL    HW215294   6.248   0.447   4.878  0.7021  0.7559 -0.0307
 4799SOL     OW15295   0.497   1.591   6.211  1.1878  0.2026  0.0731
 4799SOL    HW115296   0.459   1.636   6.129  0.5632  0.7925  0.6644
 4799SOL    HW215297   0.547   1.659   6.265  0.4698  0.1287  0.8406
 4800SOL     OW15298   4.755   3.014   6.306  0.3136  0.3135 -0.1005
 4800SOL    HW115299   4.803   3.084   6.358  1.1806  1.2964 -2.1040
 4800SOL    HW215300   4.711   3.057   6.226  1.5531 -1.5062 -1.8395
 4801SOL     OW15301   2.129   4.220   3.693 -0.1656 -0.0284 -0.8431
 4801SOL    HW115302   2.037   4.242   3.723  0.0644 -1.1875  0.8314
 4801SOL    HW215303   2.125   4.153   3.619 -0.6614 -0.1870 -0.6739
 4802SOL     OW15304   4.853   2.199   1.494 -0.3267  0.5607 -0.0183
 4802SOL    HW115305   4.824   2.203   1.398  0.2985  3.4966 -0.1669
 4802SOL    HW215306   4.949   2.226   1.502 -0.7264  1.6524  1.5466
 4803SOL     OW15307   6.550   5.121   3.071 -0.1112 -0.8521 -0.4079
 4803SOL    HW115308   6.561   5.066   3.154 -0.7123 -1.2211 -0.5634
 4803SOL    HW215309   6.605   5.081   2.997  0.1399 -0.7343 -0.2857
 4804SOL     OW15310   6.550   3.300   6.816  0.8831  0.0398 -0.6551
 4804SOL    HW115311   6.526   3.359   6.738 -0.6113  1.4760  0.7904
 4804SOL    HW215312   6.467   3.254   6.849  1.3497 -0.0168  0.4804
 4805SOL     OW15313   1.178   4.004   0.284 -0.3931 -0.1382 -0.1593
 4805SOL    HW115314   1.167   3.909   0.253 -0.5577  0.1656 -1.0516
 4805SOL    HW215315   1.115   4.063   0.234  0.4114  0.5908 -0.3379
 4806SOL     OW15316   3.872   6.595   4.928  0.3534  0.8700 -0.2802
 4806SOL    HW115317   3.931   6.663   4.884  1.8318  0.1599  0.5052
 4806SOL    HW215318   3.858   6.518   4.867 -0.1308  1.2323 -0.6317
 4807SOL     OW15319   3.758   2.322   5.981  0.1583 -0.5217 -0.2715
 4807SOL    HW115320   3.800   2.260   6.047  1.9483  1.6776  0.7840
 4807SOL    HW215321   3.820   2.335   5.904  0.4177  0.9012  0.1408
 4808SOL     OW15322   6.855   5.704   0.902  0.0224 -0.3822 -0.0930
 4808SOL    HW115323   6.901   5.619   0.874 -0.6385  0.0318 -2.7716
 4808SOL    HW215324   6.756   5.694   0.888 -0.3879 -0.0623  2.2318
 4809SOL     OW15325   6.245   6.104   4.361 -0.1621 -0.2015 -0.2574
 4809SOL    HW115326   6.186   6.168   4.411  0.0339 -0.1307 -0.1101
 4809SOL    HW215327   6.325   6.154   4.327  0.0907 -0.4057  0.0298
 4810SOL     OW15328   3.277   5.774   4.941  0.4834 -0.2048  0.2070
 4810SOL    HW115329   3.197   5.716   4.932 -1.6983  2.8290 -1.9176
 4810SOL    HW215330   3.334   5.742   5.017 -1.9324 -3.3365  0.8664
 4811SOL     OW15331   5.669   1.052   4.359  0.4079  0.2426  0.4943
 4811SOL    HW115332   5.669   0.968   4.305  0.8057  0.2677  0.4534
 4811SOL    HW215333   5.625   1.034   4.447  1.5952 -0.3487  0.9995
 4812SOL     OW15334   2.049   0.242   3.545  0.2949 -0.1718  0.1761
 4812SOL    HW115335   2.125   0.178   3.561 -0.0805 -0.4941  0.6786
 4812SOL    HW215336   1.987   0.241   3.623 -0.2346  0.0906 -0.2351
 4813SOL     OW15337   1.295   6.722   4.077  0.4384 -0.3690  0.7077
 4813SOL    HW115338   1.348   6.744   3.994  0.6916 -0.3997  0.8603
 4813SOL    HW215339   1.200   6.750   4.064  0.9144  1.6299  1.2204
 4814SOL     OW15340   0.226   1.238   1.259  0.2935  0.5011  0.4306
 4814SOL    HW115341   0.275   1.176   1.198  2.8546  1.9334  0.8887
 4814SOL    HW215342   0.235   1.332   1.227 -0.2346  1.0499  1.7919
 4815SOL     OW15343   2.163   6.815   0.699 -0.2879  0.1077 -0.3812
 4815SOL    HW115344   2.263   6.822   0.693  0.0136 -0.6452  2.3240
 4815SOL    HW215345   2.128   6.887   0.759 -0.9984 -1.2246  0.8672
 4816SOL     OW15346   0.729   5.195   1.139 -0.1145  0.3969 -0.1574
 4816SOL    HW115347   0.744   5.294   1.131  0.4708  0.3571  0.3689
 4816SOL    HW215348   0.775   5.148   1.063  2.8613  0.2539  1.5941
 4817SOL     OW15349   1.028   0.858   0.253 -0.6309 -0.2565 -0.3338
 4817SOL    HW115350   0.983   0.945   0.276  3.1555  1.4512  1.5189
 4817SOL    HW215351   1.042   0.853   0.154 -0.9773  1.2307 -0.4858
 4818SOL     OW15352   5.286   3.217   4.257 -0.0999  0.2872  0.8509
 4818SOL    HW115353   5.227   3.295   4.280 -0.8925 -0.4749  1.4879
 4818SOL    HW215354   5.305   3.165   4.340  1.1732  0.2988  0.5810
 4819SOL     OW15355   4.034   0.878   1.606 -0.0495  0.1282 -0.1788
 4819SOL    HW115356   4.079   0.845   1.523  1.3529  0.9046  0.2431
 4819SOL    HW215357   3.984   0.803   1.649  3.0767 -1.5744  0.7906
 4820SOL     OW15358   3.589   5.547   4.249  0.1826 -0.1995  0.3208
 4820SOL    HW115359   3.588   5.592   4.159  1.0861 -0.0905  0.3591
 4820SOL    HW215360   3.499   5.507   4.266  0.1898 -0.8171 -0.9359
 4821SOL     OW15361   4.299   0.286   1.278 -0.7834  0.0334  0.2368
 4821SOL    HW115362   4.337   0.363   1.228 -0.8097  1.4623  2.3042
 4821SOL    HW215363   4.370   0.246   1.337 -1.2551 -0.3167  0.5778
 4822SOL     OW15364   1.328   1.224   1.336 -0.2100  0.2319  0.0299
 4822SOL    HW115365   1.286   1.278   1.409 -0.5844  0.9710 -0.7164
 4822SOL    HW215366   1.265   1.216   1.259 -0.0592 -1.0806  0.0312
 4823SOL     OW15367   4.039   2.237   0.039  0.1404  0.0188  0.2894
 4823SOL    HW115368   4.036   2.196  -0.052  1.2036  0.8154 -0.1157
 4823SOL    HW215369   3.984   2.181   0.102  0.7670 -1.4911 -0.4524
 4824SOL     OW15370   5.214   1.530   2.563 -0.0123 -0.2259 -0.0183
 4824SOL    HW115371   5.251   1.437   2.561  2.7516  0.7782 -1.1369
 4824SOL    HW215372   5.151   1.543   2.487 -0.0493 -1.0173 -0.1338
 4825SOL     OW15373   6.121   1.818   0.585 -0.1435 -0.7103 -0.2056
 4825SOL    HW115374   6.140   1.805   0.682 -2.4228  0.3316  0.4370
 4825SOL    HW215375   6.050   1.755   0.555 -0.7042  0.1499 -0.7440
 4826SOL     OW15376   5.173   3.462   0.032  1.0015 -0.1386 -0.9208
 4826SOL    HW115377   5.168   3.414   0.119  1.0270 -1.3870 -1.5831
 4826SOL    HW215378   5.253   3.522   0.031  1.5162 -0.8056 -0.4255
 4827SOL     OW15379   0.489   1.980   6.147  0.3482  0.2627  0.8924
 4827SOL    HW115380   0.467   2.064   6.098  1.0482  0.0116  0.1351
 4827SOL    HW215381   0.411   1.918   6.144  1.2839 -0.9474 -2.4609
 4828SOL     OW15382   0.603   3.840   4.603 -0.0016 -0.2309 -0.1690
 4828SOL    HW115383   0.515   3.854   4.648 -0.0404  1.2710 -0.6768
 4828SOL    HW215384   0.673   3.893   4.649 -0.2069  2.0789 -2.3211
 4829SOL     OW15385   3.278   3.523   5.844  0.0547  0.5302 -0.4120
 4829SOL    HW115386   3.328   3.553   5.925 -0.1843  0.2080 -0.1349
 4829SOL    HW215387   3.183   3.504   5.870 -0.1282  0.8347 -0.8616
 4830SOL     OW15388   3.361   1.749   0.098 -0.2557  0.2567 -0.1488
 4830SOL    HW115389   3.279   1.748   0.154  1.1712  0.2867  2.0660
 4830SOL    HW215390   3.383   1.656   0.068  0.9411 -0.4393  2.5522
 4831SOL     OW15391   1.221   1.711   6.646 -0.0388  0.0451  0.2187
 4831SOL    HW115392   1.234   1.616   6.619  0.9364  0.3832 -0.5564
 4831SOL    HW215393   1.175   1.715   6.734 -0.3654 -1.1354  0.1115
 4832SOL     OW15394   1.618   3.781   6.305 -0.0085  0.1300  0.0303
 4832SOL    HW115395   1.545   3.763   6.239  0.6560 -2.9425 -0.0224
 4832SOL    HW215396   1.628   3.702   6.366  2.3114  1.0445  0.9352
 4833SOL     OW15397   6.853   2.632   4.985 -0.7208 -0.0099  0.5294
 4833SOL    HW115398   6.843   2.726   5.020 -0.8977  0.2693 -0.2514
 4833SOL    HW215399   6.935   2.626   4.929 -0.5006 -0.4237  0.8969
 4834SOL     OW15400   3.020   3.768   6.269  0.3285 -0.4886  0.2589
 4834SOL    HW115401   2.993   3.699   6.336  1.0578 -0.6398  0.4053
 4834SOL    HW215402   2.939   3.802   6.223  0.0524 -2.4494 -0.8142
 4835SOL     OW15403   3.844   6.877   2.960 -0.0028 -0.4243 -0.9065
 4835SOL    HW115404   3.762   6.854   3.011 -1.2491 -0.9969 -3.0352
 4835SOL    HW215405   3.851   6.977   2.950  1.3432 -0.1395  1.9407
 4836SOL     OW15406   4.704   4.424   3.672 -0.0570 -0.8334 -0.4312
 4836SOL    HW115407   4.714   4.523   3.666 -3.3514 -0.2983  0.5552
 4836SOL    HW215408   4.689   4.385   3.581  0.3023 -0.2797 -0.7261
 4837SOL     OW15409   6.809   0.640   3.937 -0.4686  0.1850 -0.3726
 4837SOL    HW115410   6.839   0.614   3.846 -1.0635  0.1358 -0.5591
 4837SOL    HW215411   6.861   0.721   3.967  0.5557 -0.4921 -0.2610
 4838SOL     OW15412   5.429   0.392   3.207 -0.0313  0.7376  0.6849
 4838SOL    HW115413   5.474   0.427   3.289  0.2220  0.8333  0.5058
 4838SOL    HW215414   5.498   0.376   3.135 -0.2464  0.6268  0.5024
 4839SOL     OW15415   0.150   0.822   0.109 -0.0099 -0.0536 -0.3924
 4839SOL    HW115416   0.167   0.758   0.034 -2.0369 -0.0413 -0.9243
 4839SOL    HW215417   0.127   0.772   0.192  1.9083 -0.0584  0.1715
 4840SOL     OW15418   5.183   4.103   0.909 -0.6985  0.1402 -0.0487
 4840SOL    HW115419   5.093   4.137   0.882 -1.7605 -0.9342  1.9270
 4840SOL    HW215420   5.198   4.012   0.870  0.1395  0.8419 -1.4523
 4841SOL     OW15421   1.105   3.379   4.299  0.4565  0.8252  0.1646
 4841SOL    HW115422   1.118   3.478   4.291  0.0046  0.7955 -1.1818
 4841SOL    HW215423   1.007   3.357   4.289  0.5539  0.2344  0.4355
 4842SOL     OW15424   4.946   3.705   2.798 -0.3397  0.3815  0.1603
 4842SOL    HW115425   4.872   3.763   2.765 -3.8583 -2.4606  2.3285
 4842SOL    HW215426   4.962   3.723   2.895  0.9435  0.0617  0.0254
 4843SOL     OW15427   3.924   2.574   0.854 -0.5758 -0.0467 -0.5064
 4843SOL    HW115428   4.008   2.556   0.907 -1.1260  2.6175  1.4609
 4843SOL    HW215429   3.947   2.581   0.757  1.6096  1.0701  0.0210
 4844SOL     OW15430   3.724   5.011   2.893  0.2366  0.0380 -0.3539
 4844SOL    HW115431   3.722   4.970   2.984 -2.1034  0.8656  0.0385
 4844SOL    HW215432   3.766   5.102   2.898  0.4530 -0.0695 -0.1846
 4845SOL     OW15433   4.638   4.928   4.012 -0.3856 -0.1774  0.3985
 4845SOL    HW115434   4.566   4.901   3.948  0.7171  0.6557 -1.2708
 4845SOL    HW215435   4.672   4.848   4.060  1.4595 -1.6101 -2.9703
 4846SOL     OW15436   2.408   6.904   6.859  0.2721  0.2933  0.3735
 4846SOL    HW115437   2.448   6.991   6.885 -1.4630  1.0242  0.7693
 4846SOL    HW215438   2.315   6.919   6.825 -0.1305 -1.4092  0.6231
 4847SOL     OW15439   3.285   6.502   1.904  0.7910 -0.4161  0.1797
 4847SOL    HW115440   3.212   6.550   1.954  0.5796 -0.8885  0.3295
 4847SOL    HW215441   3.316   6.424   1.958  2.5073  0.6606  0.8547
 4848SOL     OW15442   1.112   2.553   2.537  0.0315  0.4221 -0.5202
 4848SOL    HW115443   1.051   2.575   2.613  0.3539  1.5994 -0.5712
 4848SOL    HW215444   1.188   2.619   2.536  0.1987  0.2258 -1.6759
 4849SOL     OW15445   5.143   2.899   2.530 -0.0417 -0.6437  0.4497
 4849SOL    HW115446   5.233   2.916   2.490 -0.8280 -0.4556 -1.3364
 4849SOL    HW215447   5.133   2.953   2.614  1.3867 -0.4821  0.5491
 4850SOL     OW15448   6.883   5.018   2.453 -0.7243  0.3213 -0.1674
 4850SOL    HW115449   6.951   4.958   2.495 -1.2714  1.1184  1.9799
 4850SOL    HW215450   6.814   4.963   2.406  0.1743 -0.5946 -0.4282
 4851SOL     OW15451   1.495   2.311   6.932  0.1046 -0.4471 -0.7496
 4851SOL    HW115452   1.510   2.275   7.024 -0.1874 -0.5444 -0.7386
 4851SOL    HW215453   1.582   2.314   6.883  0.2961 -0.1978 -0.4020
 4852SOL     OW15454   0.752   0.117   5.402  0.0264 -0.0593  0.2434
 4852SOL    HW115455   0.837   0.071   5.374 -0.8382 -0.5575 -1.7506
 4852SOL    HW215456   0.768   0.168   5.486  1.9031 -1.3531  0.7421
 4853SOL     OW15457   2.578   5.533   4.187 -0.5217 -0.7718 -0.3342
 4853SOL    HW115458   2.554   5.439   4.162 -1.4935 -0.8285  0.7381
 4853SOL    HW215459   2.532   5.596   4.124 -0.4185 -0.9933 -0.6362
 4854SOL     OW15460   3.284   0.845   4.335  0.3957 -0.3753  0.9282
 4854SOL    HW115461   3.268   0.837   4.434  0.1892 -1.9800  0.8051
 4854SOL    HW215462   3.333   0.763   4.304  0.0930 -0.0793 -0.3651
 4855SOL     OW15463   4.329   6.617   3.444 -0.0671 -0.4875  0.0251
 4855SOL    HW115464   4.418   6.573   3.459 -0.2450 -0.6653  0.5760
 4855SOL    HW215465   4.257   6.557   3.476 -0.3469 -0.0361  0.2513
 4856SOL     OW15466   5.928   2.544   1.796 -0.2093 -0.2452  0.6292
 4856SOL    HW115467   5.828   2.547   1.802 -0.2612 -2.2367  1.4616
 4856SOL    HW215468   5.963   2.478   1.863  1.4630 -1.4316 -1.3198
 4857SOL     OW15469   2.758   1.942   3.800  0.4684 -0.2932 -0.2034
 4857SOL    HW115470   2.700   1.875   3.753  1.5696  0.3697 -2.6495
 4857SOL    HW215471   2.703   2.022   3.824 -0.0997 -0.5730 -0.5457
 4858SOL     OW15472   2.870   1.211   2.334  0.5600  0.2514 -0.3963
 4858SOL    HW115473   2.794   1.159   2.295  1.8141 -0.4352 -2.0363
 4858SOL    HW215474   2.920   1.154   2.399 -0.1978  0.6528  0.5657
 4859SOL     OW15475   0.137   6.958   0.114 -0.2615  0.1594  0.0713
 4859SOL    HW115476   0.220   6.952   0.058  0.8282 -0.5541  1.7033
 4859SOL    HW215477   0.129   7.050   0.152  0.7477 -0.2418  1.3024
 4860SOL     OW15478   3.248   6.211   1.277 -0.0871  0.3776 -0.1853
 4860SOL    HW115479   3.174   6.278   1.286 -1.1110 -0.8163  0.7287
 4860SOL    HW215480   3.208   6.121   1.259  1.2010 -0.1960 -0.2512
 4861SOL     OW15481   5.379   4.168   0.682 -0.2020  0.0676  0.1335
 4861SOL    HW115482   5.338   4.079   0.702 -0.1197  0.3253  1.6028
 4861SOL    HW215483   5.308   4.238   0.682 -0.1451  0.1239 -0.1078
 4862SOL     OW15484   4.598   6.949   4.443 -0.1515 -0.1102  0.2466
 4862SOL    HW115485   4.697   6.939   4.450 -0.0567  0.4201 -0.2940
 4862SOL    HW215486   4.575   7.014   4.370 -0.8619  0.9429  1.3690
 4863SOL     OW15487   0.465   5.178   4.114 -0.2987  0.3394 -0.2182
 4863SOL    HW115488   0.439   5.207   4.021  1.5511  1.6300 -0.3945
 4863SOL    HW215489   0.474   5.259   4.172 -1.4491 -0.4636  1.1140
 4864SOL     OW15490   2.654   5.163   5.020  0.1078 -0.1959 -0.1407
 4864SOL    HW115491   2.744   5.118   5.015 -0.8583 -2.2508  0.1131
 4864SOL    HW215492   2.632   5.183   5.115 -0.4177 -1.2478 -0.0323
 4865SOL     OW15493   4.586   0.901   4.189  0.0661  0.3815 -0.5081
 4865SOL    HW115494   4.498   0.890   4.142  0.3536  0.3595 -1.0505
 4865SOL    HW215495   4.574   0.962   4.268 -0.1290  1.6628 -1.4875
 4866SOL     OW15496   1.426   1.036   5.265  0.1746 -0.6140  0.8323
 4866SOL    HW115497   1.365   0.957   5.273  0.0617 -0.4894  1.2146
 4866SOL    HW215498   1.449   1.070   5.356 -0.9676  0.7048  0.6630
 4867SOL     OW15499   1.673   6.139   5.083  0.0006 -0.0254  0.5499
 4867SOL    HW115500   1.691   6.210   5.015 -0.3356  0.2681  0.7657
 4867SOL    HW215501   1.760   6.110   5.125  0.1639  0.0765  0.2800
 4868SOL     OW15502   4.500   0.040   4.126  0.7124 -0.2542 -0.4561
 4868SOL    HW115503   4.443   0.041   4.044 -0.4089 -0.8839  0.2888
 4868SOL    HW215504   4.443   0.020   4.206  1.3080  2.8300  0.8743
 4869SOL     OW15505   2.526   1.794   6.212 -0.1221  0.1064  0.0571
 4869SOL    HW115506   2.528   1.697   6.187 -1.6505 -0.6518  2.4723
 4869SOL    HW215507   2.432   1.822   6.230  0.1849  2.3259 -1.3716
 4870SOL     OW15508   4.663   6.546   2.462 -0.3637  0.3992 -0.4453
 4870SOL    HW115509   4.709   6.635   2.466  0.6957 -0.1556  0.2619
 4870SOL    HW215510   4.571   6.554   2.500 -0.2699  1.1893 -0.3749
 4871SOL     OW15511   2.484   1.260   0.911  0.0647  0.0636 -0.1739
 4871SOL    HW115512   2.385   1.266   0.899  0.4112  2.1867 -3.2806
 4871SOL    HW215513   2.525   1.223   0.827  2.0027  0.6840  0.4441
 4872SOL     OW15514   2.050   0.619   2.457  0.6847  0.2971  0.0482
 4872SOL    HW115515   1.975   0.682   2.434  1.2219  0.7444 -0.5111
 4872SOL    HW215516   2.084   0.641   2.549 -0.7702 -0.8135  0.9005
 4873SOL     OW15517   5.519   1.269   6.952  0.5245 -0.0810  0.4846
 4873SOL    HW115518   5.516   1.196   7.021  1.5700  0.0554  0.7050
 4873SOL    HW215519   5.542   1.355   6.996 -1.9899  0.6781  0.4137
 4874SOL     OW15520   5.925   3.481   4.941 -0.6465  0.3880 -0.1531
 4874SOL    HW115521   5.912   3.465   5.038  0.7624  1.4936  0.2478
 4874SOL    HW215522   5.890   3.403   4.889 -1.5990 -0.1195  1.2071
 4875SOL     OW15523   0.138   2.183   1.810  0.3069  0.3810  0.0002
 4875SOL    HW115524   0.082   2.263   1.833 -0.4809 -0.0830 -0.2813
 4875SOL    HW215525   0.093   2.100   1.844  0.5088 -0.0535 -0.7790
 4876SOL     OW15526   5.144   0.550   4.040  0.1011 -0.1719 -0.7476
 4876SOL    HW115527   5.205   0.606   4.096  0.1536 -1.9605  1.1123
 4876SOL    HW215528   5.195   0.472   4.003 -0.0929  0.6315 -2.8382
 4877SOL     OW15529   2.393   3.349   5.850  0.2747 -0.8643 -0.0542
 4877SOL    HW115530   2.348   3.267   5.886 -2.1907  0.0912 -0.7208
 4877SOL    HW215531   2.345   3.379   5.767  1.8472  0.5916 -0.4840
 4878SOL     OW15532   6.108   4.201   3.281 -0.2407  1.0862  0.7703
 4878SOL    HW115533   6.067   4.279   3.328 -0.9185  2.0097 -1.2401
 4878SOL    HW215534   6.142   4.230   3.192  0.3694 -0.7337  0.3649
 4879SOL     OW15535   4.339   5.882   3.122 -0.2642 -0.3213  0.9955
 4879SOL    HW115536   4.424   5.850   3.164  0.2607 -0.2729  0.0065
 4879SOL    HW215537   4.284   5.803   3.095  0.1687 -0.3830  0.2654
 4880SOL     OW15538   2.658   4.506   6.487 -0.2217 -0.4104 -0.0211
 4880SOL    HW115539   2.560   4.493   6.472 -0.6185  1.4820  0.6825
 4880SOL    HW215540   2.693   4.573   6.422  0.2804  0.0115  0.6736
 4881SOL     OW15541   1.088   3.310   1.255 -0.6954  0.2122 -0.2567
 4881SOL    HW115542   1.018   3.381   1.263 -1.0529 -0.2622  1.1265
 4881SOL    HW215543   1.146   3.310   1.337 -1.3137 -1.7099  0.2425
 4882SOL     OW15544   5.109   0.462   6.852 -0.7141 -0.6348 -0.2394
 4882SOL    HW115545   5.207   0.453   6.836 -0.1098  0.7924  2.1347
 4882SOL    HW215546   5.079   0.391   6.916 -0.1768  1.4815  2.5735
 4883SOL     OW15547   5.389   5.555   4.726 -0.0240 -0.4497 -0.2833
 4883SOL    HW115548   5.471   5.586   4.677  0.8560 -0.5486  1.0610
 4883SOL    HW215549   5.412   5.542   4.823 -1.6986 -0.2817  0.1571
 4884SOL     OW15550   6.220   1.578   4.164 -0.0401 -0.0676  0.8638
 4884SOL    HW115551   6.303   1.618   4.203  0.2425  0.0532  0.1474
 4884SOL    HW215552   6.164   1.540   4.238  2.1561 -3.0886  1.1452
 4885SOL     OW15553   6.300   0.683   3.756  0.3358 -0.0735 -0.3255
 4885SOL    HW115554   6.263   0.663   3.846 -0.0767 -0.1371 -0.5044
 4885SOL    HW215555   6.368   0.614   3.731  1.2016  0.5166  0.3577
 4886SOL     OW15556   4.815   3.302   7.020  0.0603  0.6068  0.2866
 4886SOL    HW115557   4.742   3.351   6.972 -0.9996 -1.6297 -0.5342
 4886SOL    HW215558   4.889   3.281   6.956 -0.7254 -1.1578 -0.1145
 4887SOL     OW15559   4.808   0.626   3.460  0.0968  0.2525 -0.4517
 4887SOL    HW115560   4.762   0.715   3.455 -0.7180 -0.0601  0.8751
 4887SOL    HW215561   4.746   0.554   3.429 -1.0141 -0.3660  2.8567
 4888SOL     OW15562   4.468   6.899   2.876  0.4210 -0.0338  0.2376
 4888SOL    HW115563   4.482   6.893   2.777 -0.6674 -0.1235  0.0779
 4888SOL    HW215564   4.552   6.871   2.923  0.4125 -1.6753 -0.6475
 4889SOL     OW15565   4.391   1.492   6.311 -0.3761 -0.3332 -0.0466
 4889SOL    HW115566   4.454   1.567   6.330 -1.5928  1.1880 -1.6508
 4889SOL    HW215567   4.299   1.518   6.341 -0.7085 -1.4693 -0.0306
 4890SOL     OW15568   0.707   0.046   3.216  0.2757  0.4425 -0.5686
 4890SOL    HW115569   0.654   0.071   3.297 -0.6754 -1.8645 -0.4082
 4890SOL    HW215570   0.645   0.038   3.137  1.4064  4.5488 -2.1361
 4891SOL     OW15571   1.392   1.951   2.466  0.4158  0.3915 -0.1546
 4891SOL    HW115572   1.421   1.864   2.426  1.0431  0.4451  0.1813
 4891SOL    HW215573   1.343   2.005   2.398  0.4570 -0.0172 -0.5067
 4892SOL     OW15574   1.749   6.443   6.162  0.2580 -0.2434  0.4264
 4892SOL    HW115575   1.706   6.399   6.242 -2.4989  0.6022 -0.4630
 4892SOL    HW215576   1.677   6.481   6.103  2.3032  0.7693 -1.5418
 4893SOL     OW15577   0.422   5.332   6.066 -0.4544 -0.0075  0.4508
 4893SOL    HW115578   0.410   5.430   6.053 -0.1372  0.6288  3.9323
 4893SOL    HW215579   0.512   5.314   6.105 -1.3562 -1.3376  2.0958
 4894SOL     OW15580   4.223   2.796   0.046  0.0687 -0.1792 -0.0339
 4894SOL    HW115581   4.147   2.826  -0.011 -0.1064  0.9660  0.7565
 4894SOL    HW215582   4.191   2.782   0.140  0.6914 -0.3849  0.1550
 4895SOL     OW15583   0.735   2.955   4.693 -0.1430  0.0062 -0.3237
 4895SOL    HW115584   0.816   2.948   4.636 -1.0465 -0.5298 -1.5850
 4895SOL    HW215585   0.750   3.023   4.765  0.8633  1.0356 -1.4683
 4896SOL     OW15586   0.161   4.862   6.147  0.0549 -0.7835 -0.2602
 4896SOL    HW115587   0.184   4.960   6.148  2.9594 -1.3647  0.2163
 4896SOL    HW215588   0.136   4.835   6.054 -1.2947  0.4844 -0.2990
 4897SOL     OW15589   4.299   4.568   5.358  0.4528 -0.5796 -0.1506
 4897SOL    HW115590   4.353   4.630   5.301 -0.1117 -0.8510 -1.0023
 4897SOL    HW215591   4.274   4.487   5.305  0.2163 -1.0078  0.5987
 4898SOL     OW15592   0.649   6.908   3.691 -0.6683  0.2972 -0.2827
 4898SOL    HW115593   0.671   6.842   3.763  1.4190 -1.2842 -2.2042
 4898SOL    HW215594   0.646   7.000   3.730 -0.3824 -0.5731  1.9429
 4899SOL     OW15595   5.840   2.585   2.193  0.2453 -0.1104 -0.3132
 4899SOL    HW115596   5.864   2.576   2.289  1.4834  0.3767 -0.5447
 4899SOL    HW215597   5.923   2.603   2.140 -0.7362  2.4984 -1.1056
 4900SOL     OW15598   5.964   4.095   2.544 -0.4261  0.2043  0.4668
 4900SOL    HW115599   6.004   4.157   2.476 -0.6427  0.9163  0.9759
 4900SOL    HW215600   6.018   4.099   2.628 -0.4246 -0.3315  0.4947
 4901SOL     OW15601   3.406   2.250   5.260 -0.3090  0.2715 -0.0591
 4901SOL    HW115602   3.366   2.160   5.283 -0.0171  0.3601  0.8450
 4901SOL    HW215603   3.332   2.316   5.249 -0.6481 -0.4268 -2.4818
 4902SOL     OW15604   4.818   4.562   5.424  0.3594 -0.6926  0.2987
 4902SOL    HW115605   4.753   4.537   5.495 -2.2648 -3.9415 -2.8332
 4902SOL    HW215606   4.869   4.481   5.396  2.9108  0.9584 -0.1123
 4903SOL     OW15607   2.169   0.934   1.264  1.0219 -0.1471 -0.6708
 4903SOL    HW115608   2.088   0.983   1.297  0.7477  0.2916 -1.9660
 4903SOL    HW215609   2.207   0.879   1.339 -1.4179 -1.6571 -0.4302
 4904SOL     OW15610   4.073   0.145   1.186  0.3184 -0.3604 -0.0383
 4904SOL    HW115611   4.164   0.171   1.219 -0.6397  1.9920  1.0561
 4904SOL    HW215612   4.067   0.161   1.088  0.4182  1.8402  0.2678
 4905SOL     OW15613   5.264   5.195   2.193 -0.0822  0.7562  0.1386
 4905SOL    HW115614   5.279   5.242   2.105  0.7695  0.5531  0.1615
 4905SOL    HW215615   5.277   5.260   2.268 -0.8769  0.9455  0.1238
 4906SOL     OW15616   3.291   6.233   0.433 -0.2434  0.1673 -0.2558
 4906SOL    HW115617   3.218   6.166   0.421  1.0585 -1.3888  0.0946
 4906SOL    HW215618   3.260   6.306   0.495 -1.4203 -0.5530  0.0386
 4907SOL     OW15619   6.695   5.000   0.036  0.0835  0.7447  0.1781
 4907SOL    HW115620   6.700   5.049  -0.051 -1.2593  0.9925  0.2158
 4907SOL    HW215621   6.686   4.902   0.018 -0.4138  0.8142  0.0207
 4908SOL     OW15622   3.662   1.903   6.256  0.7255  0.1907  0.4283
 4908SOL    HW115623   3.733   1.854   6.305 -0.6859 -1.0473  1.3334
 4908SOL    HW215624   3.589   1.840   6.231  1.9788  0.3696 -4.6975
 4909SOL     OW15625   2.508   4.645   5.776  0.3814  0.0085  0.4386
 4909SOL    HW115626   2.472   4.552   5.778  0.4552 -0.0267  0.1856
 4909SOL    HW215627   2.581   4.651   5.708  0.8862  0.0679  0.9737
 4910SOL     OW15628   6.665   0.212   5.217 -1.0190 -0.2267 -0.7755
 4910SOL    HW115629   6.659   0.164   5.305  1.3743 -0.4075 -0.6308
 4910SOL    HW215630   6.600   0.172   5.152 -0.2468 -2.6207 -0.1671
 4911SOL     OW15631   0.334   0.755   3.420 -0.1817  0.4205 -0.6456
 4911SOL    HW115632   0.359   0.661   3.444  1.0506  0.9511  0.2314
 4911SOL    HW215633   0.310   0.805   3.503 -2.7732  0.3827 -1.2867
 4912SOL     OW15634   5.131   0.296   5.707  0.2277  0.0052 -0.1398
 4912SOL    HW115635   5.048   0.350   5.692 -0.4265 -0.7429  0.6437
 4912SOL    HW215636   5.166   0.263   5.619 -1.2048 -0.9501 -0.3855
 4913SOL     OW15637   0.442   3.840   6.224  0.3541  0.5119 -0.7647
 4913SOL    HW115638   0.370   3.828   6.292 -0.4616  1.2313 -1.4698
 4913SOL    HW215639   0.532   3.831   6.267 -0.1029 -2.4966 -0.2218
 4914SOL     OW15640   2.130   1.813   1.277  0.0172 -0.1550  0.0636
 4914SOL    HW115641   2.149   1.842   1.370 -1.1468  0.3004  0.1709
 4914SOL    HW215642   2.216   1.804   1.226  0.8545 -2.3255  1.7126
 4915SOL     OW15643   3.562   6.113   2.146 -0.5017  0.6163 -0.4160
 4915SOL    HW115644   3.521   6.169   2.218 -0.5467 -0.2685  0.2575
 4915SOL    HW215645   3.492   6.056   2.103 -0.1446 -0.3538  0.2380
 4916SOL     OW15646   3.926   0.600   4.832 -0.3668 -0.2148 -0.0261
 4916SOL    HW115647   3.850   0.660   4.808 -2.2183 -2.5469 -0.4454
 4916SOL    HW215648   3.895   0.534   4.901  1.1507 -1.4866 -0.5022
 4917SOL     OW15649   2.602   6.108   1.031 -0.1304  0.1991  0.2120
 4917SOL    HW115650   2.525   6.167   1.007  0.0050  0.3645  0.1817
 4917SOL    HW215651   2.626   6.121   1.127 -1.4104 -1.3033  0.7800
 4918SOL     OW15652   2.690   5.405   5.456 -1.1176 -0.4092  0.3128
 4918SOL    HW115653   2.783   5.370   5.440 -0.6481  0.4854  1.0113
 4918SOL    HW215654   2.631   5.378   5.380  0.2436  0.8272 -1.2678
 4919SOL     OW15655   1.010   2.107   3.158  0.1970 -0.0085 -0.2316
 4919SOL    HW115656   1.096   2.151   3.132  1.3207 -1.1187  1.4218
 4919SOL    HW215657   1.026   2.009   3.173 -1.0804 -0.0224  1.2777
 4920SOL     OW15658   2.467   0.341   2.933  0.0054 -0.4882 -0.3123
 4920SOL    HW115659   2.455   0.427   2.982 -1.5906 -0.4052 -0.7898
 4920SOL    HW215660   2.397   0.333   2.861 -0.8389 -2.7977  0.6474
 4921SOL     OW15661   4.416   6.103   2.616 -0.8943 -0.3340  0.0305
 4921SOL    HW115662   4.330   6.130   2.574 -1.0660  0.6160  0.9577
 4921SOL    HW215663   4.417   6.130   2.712  0.3993 -0.4014  0.0605
 4922SOL     OW15664   6.829   2.022   3.195 -0.2196 -0.0275 -0.2573
 4922SOL    HW115665   6.840   2.077   3.278 -1.0131  0.0610 -0.1999
 4922SOL    HW215666   6.736   1.987   3.191 -0.2291  0.0806 -1.1839
 4923SOL     OW15667   2.009   6.659   2.008 -0.2633  0.3092  0.3587
 4923SOL    HW115668   2.071   6.699   2.075 -0.9832  0.4168  0.9760
 4923SOL    HW215669   1.993   6.563   2.031  1.2152 -0.2895 -0.9370
 4924SOL     OW15670   0.990   5.896   0.128  0.0706 -0.4530 -0.3132
 4924SOL    HW115671   0.928   5.970   0.156  0.3789 -0.2399 -0.1969
 4924SOL    HW215672   1.072   5.935   0.087 -0.0224 -0.7473 -0.7872
 4925SOL     OW15673   5.297   4.270   2.171 -0.0399 -0.3079  0.2251
 4925SOL    HW115674   5.280   4.183   2.217 -0.7833 -0.1192  0.3245
 4925SOL    HW215675   5.295   4.344   2.238 -1.1373 -0.0314 -0.0958
 4926SOL     OW15676   4.854   5.416   0.203  0.6420  0.0269 -0.3365
 4926SOL    HW115677   4.869   5.447   0.296  1.5946 -0.4917 -0.3003
 4926SOL    HW215678   4.822   5.321   0.204 -1.3926  0.6706 -0.4763
 4927SOL     OW15679   6.310   1.624   3.769  0.5186 -0.0962 -0.0267
 4927SOL    HW115680   6.237   1.660   3.827  1.1766  2.1425 -0.4712
 4927SOL    HW215681   6.279   1.540   3.725 -1.4203  0.2516  0.5697
 4928SOL     OW15682   7.010   3.003   2.897 -0.0615 -0.0774  0.0883
 4928SOL    HW115683   7.091   2.979   2.844  1.0861  1.5980  0.9946
 4928SOL    HW215684   7.032   3.076   2.961 -2.2835  0.3687  0.4412
 4929SOL     OW15685   1.416   4.069   4.260 -0.0239 -0.5048  0.1131
 4929SOL    HW115686   1.353   4.071   4.182  1.6387 -1.7734 -1.3409
 4929SOL    HW215687   1.508   4.051   4.228  0.6721 -1.4949  2.4503
 4930SOL     OW15688   0.502   2.527   1.057 -0.4041  0.1133 -0.0656
 4930SOL    HW115689   0.525   2.579   0.975  0.6204  3.2823  2.0278
 4930SOL    HW215690   0.584   2.518   1.114 -1.1421 -1.7767  0.7588
 4931SOL     OW15691   2.407   5.703   4.037  0.2428  0.2740  0.0276
 4931SOL    HW115692   2.342   5.767   4.078  0.3924 -1.0967  2.5605
 4931SOL    HW215693   2.361   5.647   3.969 -0.7455  0.6631  0.3650
 4932SOL     OW15694   1.474   4.448   5.139 -1.0231  0.1504  0.4341
 4932SOL    HW115695   1.493   4.523   5.077  0.2054 -1.0065 -0.6510
 4932SOL    HW215696   1.378   4.452   5.168 -1.5818  0.8564 -1.3692
 4933SOL     OW15697   6.324   2.403   0.807  0.1635  0.6405  0.3458
 4933SOL    HW115698   6.277   2.322   0.772 -2.3713  1.3039  1.9435
 4933SOL    HW215699   6.395   2.431   0.741 -0.7521 -1.2024 -1.5696
 4934SOL     OW15700   5.616   6.712   2.182  0.4059  0.4417  0.0412
 4934SOL    HW115701   5.544   6.777   2.206  1.0593  1.0255  0.4462
 4934SOL    HW215702   5.682   6.757   2.122  0.5466 -0.0314 -0.1609
 4935SOL     OW15703   2.999   4.922   3.479  0.2360 -0.6564 -0.0002
 4935SOL    HW115704   2.993   4.892   3.384  0.2987 -1.5369  0.2662
 4935SOL    HW215705   3.082   4.885   3.521  0.6260  0.3929  0.1743
 4936SOL     OW15706   0.441   4.282   5.169 -0.3855 -0.2185 -0.5530
 4936SOL    HW115707   0.497   4.250   5.245 -1.6916 -1.5035 -0.0623
 4936SOL    HW215708   0.472   4.372   5.139  0.5891  0.0219  1.0619
 4937SOL     OW15709   4.840   0.137   2.292  0.4055 -0.0510 -0.0219
 4937SOL    HW115710   4.930   0.093   2.292  1.0871  1.2912  0.2615
 4937SOL    HW215711   4.839   0.211   2.359 -0.8582  0.0734 -0.1569
 4938SOL     OW15712   1.492   2.451   6.343  0.0203 -0.2763 -0.2487
 4938SOL    HW115713   1.544   2.526   6.384 -1.2122  0.7933 -0.5831
 4938SOL    HW215714   1.470   2.383   6.413 -1.7559  1.3437  0.8396
 4939SOL     OW15715   4.737   6.370   1.414  0.3493 -0.3590  0.0150
 4939SOL    HW115716   4.643   6.353   1.386  0.5778  0.4226 -1.2918
 4939SOL    HW215717   4.799   6.346   1.339  1.1824 -0.6523  0.7802
 4940SOL     OW15718   3.523   1.474   3.287 -0.6120  0.1639  0.5602
 4940SOL    HW115719   3.449   1.532   3.322  0.9516  0.7157  3.2673
 4940SOL    HW215720   3.502   1.379   3.307 -2.2405 -0.1308 -2.0786
 4941SOL     OW15721   1.446   2.466   3.367  0.0401  0.4333  0.2818
 4941SOL    HW115722   1.491   2.551   3.339 -0.4150  0.3658 -0.6700
 4941SOL    HW215723   1.508   2.389   3.351 -0.6273  0.2542 -1.7229
 4942SOL     OW15724   5.018   6.070   6.293  0.0588 -0.2691 -0.1996
 4942SOL    HW115725   5.065   6.159   6.297  0.2098 -0.3859  0.8415
 4942SOL    HW215726   5.080   5.998   6.324 -0.5073 -0.5485  0.3107
 4943SOL     OW15727   6.447   6.143   6.901 -0.4326  0.5599  0.2927
 4943SOL    HW115728   6.467   6.240   6.891  0.6521  0.2474 -0.9752
 4943SOL    HW215729   6.377   6.117   6.834  0.1597  0.2483 -0.2186
 4944SOL     OW15730   0.288   3.089   5.731  0.4563  0.2402 -0.2416
 4944SOL    HW115731   0.259   2.994   5.725 -0.4859  0.4302  1.0484
 4944SOL    HW215732   0.379   3.093   5.772  1.0401 -0.1579 -1.4412
 4945SOL     OW15733   5.238   0.017   5.107 -0.5942 -0.4457  0.1134
 4945SOL    HW115734   5.199  -0.052   5.168  0.6572 -0.7594  0.5930
 4945SOL    HW215735   5.295   0.080   5.161 -0.7366  0.2236 -0.5081
 4946SOL     OW15736   1.836   4.254   1.521  0.3023  0.2919  0.4334
 4946SOL    HW115737   1.921   4.209   1.496 -1.2448 -1.1020 -3.0635
 4946SOL    HW215738   1.798   4.212   1.603  1.1240 -1.7703 -0.1862
 4947SOL     OW15739   3.622   6.020   0.567 -0.1028 -0.6412 -0.0396
 4947SOL    HW115740   3.613   6.120   0.575  1.0381 -0.4661 -0.8167
 4947SOL    HW215741   3.663   5.997   0.479 -1.4894 -1.8778 -0.4022
 4948SOL     OW15742   0.342   3.268   5.133  0.1036  0.1130  0.1366
 4948SOL    HW115743   0.348   3.367   5.152 -0.3681  0.1166  0.2680
 4948SOL    HW215744   0.255   3.233   5.166  0.1545 -0.2981 -0.1603
 4949SOL     OW15745   1.105   4.233   3.721 -0.3676  0.4304 -0.1891
 4949SOL    HW115746   1.158   4.254   3.803  2.0964  0.0263 -1.5879
 4949SOL    HW215747   1.108   4.311   3.658 -1.0571  0.2137 -0.5099
 4950SOL     OW15748   6.103   2.550   0.397 -0.2252  0.0059 -0.9227
 4950SOL    HW115749   6.196   2.580   0.418 -0.6175 -0.6693  2.2619
 4950SOL    HW215750   6.041   2.581   0.468 -1.6483 -3.2389 -0.5774
 4951SOL     OW15751   5.281   4.035   1.925 -0.1273  0.5484  0.8522
 4951SOL    HW115752   5.226   3.953   1.937 -0.7796  0.7388 -0.6977
 4951SOL    HW215753   5.267   4.096   2.003 -2.1991  0.6417  0.4494
 4952SOL     OW15754   5.899   0.533   6.360  0.5248  0.4705  0.6380
 4952SOL    HW115755   5.888   0.441   6.323 -0.1777  0.7937  0.0073
 4952SOL    HW215756   5.984   0.573   6.326  0.0370  0.6505 -0.4056
 4953SOL     OW15757   5.449   1.203   0.970  0.0832  0.2092  0.2444
 4953SOL    HW115758   5.545   1.195   0.995  0.4089 -0.6807 -1.1416
 4953SOL    HW215759   5.393   1.154   1.036  0.6521  0.1227  0.6677
 4954SOL     OW15760   5.394   6.112   0.305 -0.5919 -0.6526 -0.3093
 4954SOL    HW115761   5.346   6.144   0.223 -1.5776 -1.8395 -0.2121
 4954SOL    HW215762   5.456   6.037   0.281  1.4124  0.9487 -0.4615
 4955SOL     OW15763   3.137   5.601   3.949 -0.3714 -0.4246  0.8118
 4955SOL    HW115764   3.129   5.501   3.949 -1.9714 -0.3107  1.0628
 4955SOL    HW215765   3.233   5.626   3.964 -0.1663 -1.9059  2.2918
 4956SOL     OW15766   4.703   6.637   6.873  0.0667 -0.2417 -0.4049
 4956SOL    HW115767   4.679   6.669   6.781 -0.7843  0.1013 -0.0758
 4956SOL    HW215768   4.622   6.596   6.915  0.3987 -0.2063  0.2751
 4957SOL     OW15769   5.694   4.614   3.517 -0.8138 -0.4546  0.5174
 4957SOL    HW115770   5.695   4.526   3.565 -1.2699 -0.5121  0.4275
 4957SOL    HW215771   5.739   4.683   3.574  1.3828 -1.1660 -0.2703
 4958SOL     OW15772   2.675   5.263   2.424 -0.5333 -0.5781  0.0147
 4958SOL    HW115773   2.748   5.195   2.420 -1.1040 -1.1444 -2.1340
 4958SOL    HW215774   2.711   5.348   2.464  0.6854 -1.5142  1.0052
 4959SOL     OW15775   4.248   3.004   6.642 -0.0111  0.0123  0.1489
 4959SOL    HW115776   4.308   2.941   6.692  1.1369  0.4817 -0.6125
 4959SOL    HW215777   4.153   2.974   6.652  0.4474 -1.4419  0.3676
 4960SOL     OW15778   4.204   1.779   0.611  0.1368  1.0118 -0.0937
 4960SOL    HW115779   4.208   1.807   0.515  1.1672  0.2343 -0.2956
 4960SOL    HW215780   4.111   1.754   0.635  0.0280  0.3344 -1.1587
 4961SOL     OW15781   2.852   4.820   6.538 -0.2575 -0.2026 -0.1533
 4961SOL    HW115782   2.931   4.860   6.492 -0.7101  1.6779  0.6098
 4961SOL    HW215783   2.777   4.811   6.472 -0.3220  0.7640 -0.2274
 4962SOL     OW15784   6.298   2.661   2.290 -0.5704  0.2697  0.6911
 4962SOL    HW115785   6.331   2.638   2.382 -1.1850  0.6683  1.0167
 4962SOL    HW215786   6.347   2.741   2.256  0.3339 -0.4393  0.2699
 4963SOL     OW15787   0.049   2.312   3.862  0.4656 -0.4093 -0.1779
 4963SOL    HW115788   0.008   2.381   3.801 -0.5012 -0.3578  0.5079
 4963SOL    HW215789   0.095   2.242   3.807  3.3764  1.8588 -0.8791
 4964SOL     OW15790   3.013   5.401   0.525 -0.2452  0.3458 -0.5284
 4964SOL    HW115791   2.965   5.385   0.439 -1.0404  0.3155 -0.0913
 4964SOL    HW215792   3.100   5.447   0.507 -1.1675  1.8990 -1.2186
 4965SOL     OW15793   6.166   4.945   4.709 -0.6073 -0.2212 -0.0595
 4965SOL    HW115794   6.174   4.951   4.610 -0.3750  1.5318  0.0343
 4965SOL    HW215795   6.069   4.948   4.734 -0.6851 -1.0434 -0.2396
 4966SOL     OW15796   0.238   5.842   0.685  0.1334 -0.1419 -0.2771
 4966SOL    HW115797   0.141   5.865   0.694  0.0644 -1.0178  1.8738
 4966SOL    HW215798   0.293   5.917   0.722  0.1761 -0.4644  0.3290
 4967SOL     OW15799   2.038   0.769   3.605 -0.5625 -0.5232  0.0207
 4967SOL    HW115800   2.022   0.671   3.606 -1.7290 -0.3956 -1.6626
 4967SOL    HW215801   1.961   0.816   3.650 -0.7584 -0.3183 -0.5180
 4968SOL     OW15802   0.372   6.434   5.874 -0.3902  0.6517 -0.3674
 4968SOL    HW115803   0.463   6.467   5.897  0.2616  0.6787 -2.6977
 4968SOL    HW215804   0.329   6.496   5.809 -1.6900  0.1378 -0.0334
 4969SOL     OW15805   5.321   2.216   6.033 -0.0622 -0.3068 -0.2274
 4969SOL    HW115806   5.377   2.134   6.045  0.9509  0.5832  1.5294
 4969SOL    HW215807   5.295   2.252   6.122 -1.9430  0.3487 -0.9917
 4970SOL     OW15808   0.713   6.821   5.310  0.0702 -0.3651  0.3096
 4970SOL    HW115809   0.648   6.872   5.254  0.9084  0.8637  0.4062
 4970SOL    HW215810   0.670   6.794   5.396  0.0548  1.7062  1.0135
 4971SOL     OW15811   2.450   5.747   1.103 -0.1457  0.2171 -0.2748
 4971SOL    HW115812   2.426   5.796   1.187  1.2168  0.2405  0.1279
 4971SOL    HW215813   2.480   5.655   1.126  2.0719  0.8324 -0.5077
 4972SOL     OW15814   2.548   1.758   1.546 -0.5315 -0.0977  0.0852
 4972SOL    HW115815   2.625   1.749   1.483 -1.2812  1.9662 -1.2274
 4972SOL    HW215816   2.582   1.768   1.639  0.7782  0.0732 -0.3916
 4973SOL     OW15817   0.690   6.293   0.453  0.2943  0.0988  0.3725
 4973SOL    HW115818   0.696   6.358   0.529 -1.0999  0.8038 -0.0938
 4973SOL    HW215819   0.782   6.268   0.424  0.8553  1.1050  1.2126
 4974SOL     OW15820   5.578   0.854   2.322  0.1380  0.2738  0.4604
 4974SOL    HW115821   5.561   0.882   2.416 -0.0057  1.5948  0.0615
 4974SOL    HW215822   5.677   0.850   2.305  0.2074  2.3061  0.0705
 4975SOL     OW15823   0.554   3.219   6.734 -0.9751 -0.1056 -0.0758
 4975SOL    HW115824   0.587   3.137   6.689  0.6509  1.2104 -1.4363
 4975SOL    HW215825   0.609   3.237   6.815 -0.8326  0.0618 -0.2105
 4976SOL     OW15826   4.595   1.637   3.650  0.1387 -0.4911  0.2940
 4976SOL    HW115827   4.645   1.592   3.724 -0.1144 -0.1620  0.6722
 4976SOL    HW215828   4.593   1.736   3.667  0.0265 -0.4208 -0.1211
 4977SOL     OW15829   2.095   0.782   4.631 -0.0489  0.0907  0.6646
 4977SOL    HW115830   2.015   0.836   4.605 -0.8760 -1.8620 -1.2096
 4977SOL    HW215831   2.075   0.730   4.714 -0.3255  0.4259  0.8098
 4978SOL     OW15832   3.321   3.172   2.661 -0.2144 -0.3052 -0.8048
 4978SOL    HW115833   3.418   3.154   2.645 -0.1623 -0.9782  0.1753
 4978SOL    HW215834   3.272   3.085   2.670 -0.3605 -0.0527  1.7488
 4979SOL     OW15835   5.359   0.420   6.733 -0.0943  0.0001  0.4573
 4979SOL    HW115836   5.404   0.494   6.682  0.8205  0.0761  1.3623
 4979SOL    HW215837   5.424   0.345   6.747 -0.4664 -0.1918  1.1630
 4980SOL     OW15838   4.857   6.214   5.081 -0.7923 -0.4075  0.2143
 4980SOL    HW115839   4.918   6.136   5.073  2.2716  1.7444  0.5354
 4980SOL    HW215840   4.823   6.239   4.991  1.2487  0.0456 -0.4820
 4981SOL     OW15841   4.957   5.237   2.134  0.0066  0.5281  0.0840
 4981SOL    HW115842   4.959   5.138   2.124 -3.1656  0.2373  1.3164
 4981SOL    HW215843   4.964   5.280   2.044 -0.3098 -0.8832 -0.6365
 4982SOL     OW15844   6.312   2.190   1.259  0.7772  0.2607 -0.0479
 4982SOL    HW115845   6.272   2.245   1.333  1.2475 -0.0344  0.4305
 4982SOL    HW215846   6.401   2.154   1.288  0.1493 -1.3843 -0.0640
 4983SOL     OW15847   3.959   4.852   1.723  0.2592  0.3317 -0.9399
 4983SOL    HW115848   3.901   4.856   1.805  1.2491 -1.1449 -0.1246
 4983SOL    HW215849   3.911   4.895   1.647 -1.8672 -0.6897 -0.2721
 4984SOL     OW15850   6.896   4.477   5.452 -0.5012 -0.1748  0.1254
 4984SOL    HW115851   6.834   4.480   5.374 -0.9265  0.9923  0.4947
 4984SOL    HW215852   6.987   4.447   5.421 -0.7414 -0.0225 -0.7562
 4985SOL     OW15853   3.048   0.661   4.090  0.2435 -0.7164 -0.5352
 4985SOL    HW115854   2.978   0.730   4.108  1.2352  0.5808 -1.4280
 4985SOL    HW215855   3.015   0.597   4.020 -0.2980 -0.5194 -0.4643
 4986SOL     OW15856   1.661   4.266   4.955 -0.4114 -0.1706 -0.1498
 4986SOL    HW115857   1.610   4.301   5.034  0.1267  1.0466 -0.3253
 4986SOL    HW215858   1.759   4.280   4.969 -0.3021 -0.0516 -0.9833
 4987SOL     OW15859   1.302   2.169   6.272  0.2821 -0.3928 -0.5192
 4987SOL    HW115860   1.280   2.085   6.322 -1.2579 -0.7465 -1.7073
 4987SOL    HW215861   1.340   2.237   6.335 -2.1154 -0.6032  1.2811
 4988SOL     OW15862   1.941   3.964   1.465  0.1429 -0.0193  0.2034
 4988SOL    HW115863   1.846   3.958   1.434  0.8841  1.5239 -2.8312
 4988SOL    HW215864   1.978   3.872   1.479 -1.8509 -0.6404  1.8751
 4989SOL     OW15865   3.654   1.851   4.708 -0.1900 -0.0939  0.5546
 4989SOL    HW115866   3.645   1.950   4.697 -1.5633 -0.1433  1.0878
 4989SOL    HW215867   3.585   1.805   4.653 -0.7137 -0.6790  1.6676
 4990SOL     OW15868   1.613   0.864   3.805 -0.3373  0.0778  0.0681
 4990SOL    HW115869   1.618   0.920   3.888  1.7102 -0.2061  0.1908
 4990SOL    HW215870   1.703   0.861   3.762 -0.9357 -1.3286 -1.1561
 4991SOL     OW15871   1.311   3.968   1.525  0.0885 -0.2284 -0.1610
 4991SOL    HW115872   1.316   3.957   1.426 -1.2107 -1.7730 -0.0973
 4991SOL    HW215873   1.223   4.010   1.549  1.0834  1.7082  0.2616
 4992SOL     OW15874   1.754   3.384   0.342 -0.3667  1.5962 -0.0351
 4992SOL    HW115875   1.724   3.438   0.420 -0.6354  0.8511  0.3855
 4992SOL    HW215876   1.844   3.344   0.362 -0.9527  0.4472  0.3780
 4993SOL     OW15877   0.886   5.380   2.164 -0.0181  0.3153 -0.1423
 4993SOL    HW115878   0.952   5.305   2.153 -0.2381 -0.1975  1.7412
 4993SOL    HW215879   0.905   5.451   2.096  2.0426 -0.1312 -0.0965
 4994SOL     OW15880   2.887   1.912   2.563 -0.3067 -0.3272 -0.6733
 4994SOL    HW115881   2.916   1.821   2.531  2.1816  0.6196 -1.3293
 4994SOL    HW215882   2.816   1.901   2.634  1.6113 -2.8893  1.0423
 4995SOL     OW15883   4.127   5.178   4.084 -0.3592 -0.5144 -0.0094
 4995SOL    HW115884   4.169   5.170   4.174  0.8318  1.2404 -0.3613
 4995SOL    HW215885   4.028   5.164   4.093 -0.1714 -1.1971  1.4103
 4996SOL     OW15886   0.334   1.174   5.149 -0.4272 -0.1238  0.1763
 4996SOL    HW115887   0.343   1.164   5.050 -1.0326 -0.6599  0.1758
 4996SOL    HW215888   0.382   1.099   5.195 -2.1783 -1.2411  0.2337
 4997SOL     OW15889   5.454   4.071   6.348 -0.3214  0.0819 -0.4504
 4997SOL    HW115890   5.449   4.134   6.425 -0.5291 -1.0747  0.5052
 4997SOL    HW215891   5.508   4.113   6.275  1.2409  0.5701  0.9194
 4998SOL     OW15892   4.833   4.383   2.660  0.3727  0.2027 -0.1930
 4998SOL    HW115893   4.743   4.344   2.678  0.6340 -0.5010 -0.3753
 4998SOL    HW215894   4.826   4.483   2.654 -0.0610  0.3277  1.7717
 4999SOL     OW15895   0.280   0.101   4.687  0.0151  0.5038 -0.3795
 4999SOL    HW115896   0.206   0.125   4.623 -0.0008  0.2914 -0.4413
 4999SOL    HW215897   0.270   0.006   4.715  0.5444  0.3275 -0.7669
 5000SOL     OW15898   3.058   2.273   1.707 -0.2244 -0.9899  1.0020
 5000SOL    HW115899   3.135   2.333   1.685 -1.6953 -0.5598 -4.4499
 5000SOL    HW215900   3.005   2.313   1.781  1.0544  2.4431  0.2577
 5001SOL     OW15901   1.271   2.031   5.798  0.3616  0.0463 -0.2857
 5001SOL    HW115902   1.215   1.949   5.786  1.1262 -0.7936  1.4906
 5001SOL    HW215903   1.265   2.061   5.894 -0.6693  2.6607 -1.0937
 5002SOL     OW15904   2.534   0.732   4.433 -0.1231 -0.0583  0.5407
 5002SOL    HW115905   2.480   0.787   4.496 -0.9167 -2.9479  2.6247
 5002SOL    HW215906   2.626   0.719   4.471 -0.0767 -0.4671  0.2986
 5003SOL     OW15907   4.787   5.178   6.476 -0.2334 -0.4983 -0.0677
 5003SOL    HW115908   4.861   5.110   6.469 -0.0619 -0.6628  2.3825
 5003SOL    HW215909   4.728   5.170   6.396  1.5664 -1.3524 -1.4008
 5004SOL     OW15910   5.779   5.202   3.328 -0.7959 -0.9922 -0.0471
 5004SOL    HW115911   5.808   5.285   3.377 -0.8442 -0.1387 -1.3989
 5004SOL    HW215912   5.772   5.126   3.392 -0.5072 -0.0100  1.1932
 5005SOL     OW15913   1.957   5.989   4.856  0.1100 -0.3600 -0.0834
 5005SOL    HW115914   1.990   6.071   4.809 -3.5629  0.5710 -1.3549
 5005SOL    HW215915   1.982   5.908   4.802 -1.5397  0.4847 -2.2397
 5006SOL     OW15916   3.705   1.380   0.076  0.0702  0.1633  0.0945
 5006SOL    HW115917   3.778   1.380   0.144  0.7946 -0.4352 -0.6735
 5006SOL    HW215918   3.699   1.290   0.032 -0.4462  0.5068 -0.5645
 5007SOL     OW15919   4.412   6.385   2.006 -0.3196  0.8159  0.2056
 5007SOL    HW115920   4.348   6.311   1.984  0.3629  0.2489  0.0798
 5007SOL    HW215921   4.458   6.364   2.092 -0.0393  1.0451  0.1118
 5008SOL     OW15922   4.504   2.709   5.954  0.3606 -0.6917 -0.0193
 5008SOL    HW115923   4.592   2.703   5.906  0.1015  0.9916 -0.7573
 5008SOL    HW215924   4.432   2.731   5.889  0.0383  1.9365  1.1261
 5009SOL     OW15925   4.131   0.457   4.201  0.4584  0.2044 -0.3691
 5009SOL    HW115926   4.202   0.493   4.261  0.0111  0.2394  0.1456
 5009SOL    HW215927   4.101   0.528   4.138  0.2503  0.4556  0.0088
 5010SOL     OW15928   6.457   6.926   0.935 -0.0648 -0.0387  0.3813
 5010SOL    HW115929   6.512   6.859   0.984  1.6739  0.2228 -1.1093
 5010SOL    HW215930   6.514   7.005   0.911 -2.3551  2.8326  3.4560
 5011SOL     OW15931   6.233   1.541   3.286  0.1551 -0.0853  0.4543
 5011SOL    HW115932   6.244   1.495   3.198  0.6131  1.5363 -0.3852
 5011SOL    HW215933   6.279   1.488   3.357  0.8387 -0.8062 -0.4930
 5012SOL     OW15934   0.375   4.796   1.505 -0.3147  0.4324  0.1381
 5012SOL    HW115935   0.292   4.792   1.449 -0.1719 -1.1633 -0.0131
 5012SOL    HW215936   0.350   4.823   1.598 -1.4757 -2.5333  0.7995
 5013SOL     OW15937   0.432   6.179   1.200 -0.3545 -0.0325 -0.3627
 5013SOL    HW115938   0.490   6.099   1.210 -0.8507 -0.2576  0.8811
 5013SOL    HW215939   0.465   6.235   1.124  0.2694 -1.1725 -0.9528
 5014SOL     OW15940   2.199   4.595   1.307  0.6651 -0.3879  0.0522
 5014SOL    HW115941   2.227   4.691   1.312 -1.3161  0.2859 -0.9410
 5014SOL    HW215942   2.140   4.573   1.385 -0.5913 -0.1775 -0.8157
 5015SOL     OW15943   6.440   1.774   3.367  0.3513  0.1543 -0.6255
 5015SOL    HW115944   6.481   1.686   3.391  0.0468  0.0855 -0.3519
 5015SOL    HW215945   6.347   1.778   3.403  0.8048  1.0954  0.4693
 5016SOL     OW15946   0.695   0.658   4.873  0.1923  0.0213 -0.1813
 5016SOL    HW115947   0.769   0.591   4.865 -0.4813 -0.5377 -2.6713
 5016SOL    HW215948   0.607   0.610   4.871 -0.2762  0.8079  0.9348
 5017SOL     OW15949   5.709   5.917   4.154 -0.2291 -0.1191  0.1652
 5017SOL    HW115950   5.720   5.818   4.169  1.7105  0.1794  0.9511
 5017SOL    HW215951   5.793   5.964   4.180 -1.4342  1.8507  0.6922
 5018SOL     OW15952   4.240   4.517   6.855  0.1347 -0.1999 -0.2697
 5018SOL    HW115953   4.329   4.562   6.843  1.0552 -1.8437  0.1990
 5018SOL    HW215954   4.244   4.455   6.933 -2.3689  1.9476  1.7660
 5019SOL     OW15955   1.559   5.576   2.035  0.1744 -0.6130 -0.4875
 5019SOL    HW115956   1.653   5.606   2.018  0.7324 -2.3033 -0.5466
 5019SOL    HW215957   1.534   5.598   2.129  0.4102  0.3261 -0.6244
 5020SOL     OW15958   2.755   4.011   1.701  0.2237 -0.6930  0.0545
 5020SOL    HW115959   2.837   3.959   1.726  0.5973 -0.0743  0.1584
 5020SOL    HW215960   2.778   4.108   1.696 -0.5195 -0.5046  0.1336
 5021SOL     OW15961   2.688   4.384   1.437 -0.7223  0.0855  0.0250
 5021SOL    HW115962   2.681   4.427   1.528 -0.8015 -1.1599  0.6228
 5021SOL    HW215963   2.610   4.412   1.381 -0.5336  1.0826  0.2361
 5022SOL     OW15964   4.972   4.708   4.646 -0.3452  0.0448  0.2924
 5022SOL    HW115965   5.016   4.790   4.611  2.4225 -1.5142 -0.2083
 5022SOL    HW215966   4.998   4.694   4.741 -0.3034 -0.5319  0.2034
 5023SOL     OW15967   3.041   6.731   3.644 -0.0284  0.5459 -0.0009
 5023SOL    HW115968   3.088   6.815   3.617 -0.4559  0.2909 -1.6571
 5023SOL    HW215969   3.034   6.670   3.566 -0.6565 -0.6056  0.9151
 5024SOL     OW15970   7.005   5.623   2.577  0.5228 -0.1919  0.4513
 5024SOL    HW115971   7.099   5.633   2.610  0.9392  2.1738 -1.1557
 5024SOL    HW215972   6.941   5.639   2.651  1.4019  0.8511  1.0059
 5025SOL     OW15973   4.668   2.227   5.049 -0.2372 -0.3237  0.3427
 5025SOL    HW115974   4.569   2.222   5.058 -0.2071  0.1373  1.0187
 5025SOL    HW215975   4.695   2.322   5.035 -0.0353 -0.6676 -1.9124
 5026SOL     OW15976   3.188   6.770   4.930  0.8806  0.0171 -0.3695
 5026SOL    HW115977   3.236   6.694   4.888  0.5866  0.8232 -2.2324
 5026SOL    HW215978   3.255   6.834   4.970  1.2592  0.1086 -1.1447
 5027SOL     OW15979   5.861   2.919   4.881  0.6516  0.4805  0.0945
 5027SOL    HW115980   5.820   2.999   4.923  1.4534  0.1557  1.5719
 5027SOL    HW215981   5.813   2.837   4.911  0.1391  0.3444 -1.0290
 5028SOL     OW15982   6.524   5.618   2.858 -0.4507  0.1214 -0.2117
 5028SOL    HW115983   6.576   5.677   2.918 -1.3741  1.4372 -0.6676
 5028SOL    HW215984   6.542   5.522   2.882 -3.0075  0.4701  4.1917
 5029SOL     OW15985   3.460   5.777   4.697  0.0411  0.6390  0.1924
 5029SOL    HW115986   3.551   5.737   4.708  0.1813  1.0587  0.5957
 5029SOL    HW215987   3.409   5.768   4.783 -0.8991 -1.0357 -0.4947
 5030SOL     OW15988   1.901   6.387   4.161 -0.1289 -0.0837  0.0905
 5030SOL    HW115989   1.811   6.371   4.203 -0.7791 -0.7642 -1.4907
 5030SOL    HW215990   1.939   6.472   4.197 -1.3159  0.1283  0.9259
 5031SOL     OW15991   3.911   1.944   6.418  0.6899  0.3784 -0.1790
 5031SOL    HW115992   3.970   2.012   6.376 -1.0857  1.2647 -1.3404
 5031SOL    HW215993   3.886   1.974   6.510  1.8348  0.0890  0.2469
 5032SOL     OW15994   4.822   0.177   3.776 -0.2498  0.1421 -0.4310
 5032SOL    HW115995   4.803   0.257   3.832  0.8016  0.0487  0.0767
 5032SOL    HW215996   4.806   0.094   3.829  2.7259  0.0528  0.4940
 5033SOL     OW15997   6.710   1.649   4.148 -0.2260 -0.0408 -0.3380
 5033SOL    HW115998   6.806   1.633   4.127 -0.0763  1.1037 -0.5760
 5033SOL    HW215999   6.657   1.650   4.063 -0.5775 -1.3403 -0.1626
 5034SOL     OW16000   4.841   0.829   4.267  0.4867 -0.1649  0.1033
 5034SOL    HW116001   4.889   0.894   4.325  0.4468 -0.7363  0.7935
 5034SOL    HW216002   4.750   0.865   4.244  0.4126 -0.0327  0.5947
 5035SOL     OW16003   2.854   6.486   4.589 -0.1766  0.3581  0.2437
 5035SOL    HW116004   2.879   6.578   4.619  0.3809 -0.1480  1.3717
 5035SOL    HW216005   2.864   6.421   4.664  1.0800 -0.9186 -0.9459
 5036SOL     OW16006   5.945   6.023   4.924  0.1476 -0.6560 -0.7500
 5036SOL    HW116007   5.988   6.010   4.835  0.6271 -1.5876 -0.3994
 5036SOL    HW216008   6.011   6.002   4.996 -0.3564 -0.3091 -0.1744
 5037SOL     OW16009   3.982   1.516   3.075 -0.1621  0.3543 -0.4017
 5037SOL    HW116010   3.935   1.596   3.040 -0.1446  1.4109  1.8275
 5037SOL    HW216011   4.081   1.533   3.078 -0.1017  0.0300 -0.4733
 5038SOL     OW16012   5.835   0.436   0.181  0.1359  0.8190  0.0209
 5038SOL    HW116013   5.846   0.487   0.266 -1.5087 -1.3401  1.6454
 5038SOL    HW216014   5.923   0.429   0.134  1.2073  1.5745  1.8147
 5039SOL     OW16015   5.851   2.091   5.345  0.2356  0.3134 -0.2943
 5039SOL    HW116016   5.753   2.090   5.366 -0.2038 -2.1837 -2.0169
 5039SOL    HW216017   5.902   2.050   5.421 -0.2287  0.1570 -0.0639
 5040SOL     OW16018   2.308   1.170   5.286  0.1509  0.2908 -0.4424
 5040SOL    HW116019   2.266   1.259   5.305 -0.3235  0.0689 -0.4354
 5040SOL    HW216020   2.405   1.173   5.311  0.1584  0.8324 -0.5297
 5041SOL     OW16021   0.718   0.199   1.984 -0.2534  0.1201  0.2683
 5041SOL    HW116022   0.780   0.171   1.910  0.0690 -0.3173  0.7005
 5041SOL    HW216023   0.711   0.299   1.985 -1.1655  0.0957 -1.0843
 5042SOL     OW16024   6.686   6.786   4.887 -0.6156  0.3210  0.1552
 5042SOL    HW116025   6.664   6.743   4.800  0.6981 -1.5774  0.7108
 5042SOL    HW216026   6.693   6.717   4.958  1.9231  1.3677  1.0331
 5043SOL     OW16027   0.673   3.586   2.758 -0.5779  0.2046 -0.0019
 5043SOL    HW116028   0.766   3.567   2.727 -0.8717  0.3995 -1.0357
 5043SOL    HW216029   0.661   3.684   2.772 -0.8236  0.2562 -0.5453
 5044SOL     OW16030   3.932   6.571   0.464 -0.3575 -0.3852 -0.1762
 5044SOL    HW116031   3.900   6.636   0.533  1.2367 -1.1441  1.3335
 5044SOL    HW216032   3.856   6.513   0.435 -0.9990 -0.2088  1.0993
 5045SOL     OW16033   5.248   2.564   0.946  0.1141  0.8606  0.0079
 5045SOL    HW116034   5.247   2.509   0.863 -0.9605 -0.0758  0.6071
 5045SOL    HW216035   5.158   2.606   0.960  0.0453  0.4116  1.0569
 5046SOL     OW16036   5.726   0.673   1.070 -0.4037  0.1758  0.4201
 5046SOL    HW116037   5.744   0.750   1.132  0.5699 -0.4143  0.8829
 5046SOL    HW216038   5.763   0.589   1.109  2.0556  0.0740 -1.8221
 5047SOL     OW16039   6.627   6.156   6.241  0.0600  0.2446  0.0426
 5047SOL    HW116040   6.588   6.221   6.306 -0.0353  0.2901 -0.0595
 5047SOL    HW216041   6.553   6.116   6.187 -0.5897 -3.5957  3.3107
 5048SOL     OW16042   0.727   1.648   4.123  0.5262 -0.0463  0.3513
 5048SOL    HW116043   0.788   1.700   4.063 -0.4705  0.3366 -0.3542
 5048SOL    HW216044   0.698   1.706   4.199  1.1577 -0.2859  0.7908
 5049SOL     OW16045   4.868   3.913   0.626 -0.0342  0.2577 -0.2161
 5049SOL    HW116046   4.782   3.948   0.662  1.0184  1.0381  1.6579
 5049SOL    HW216047   4.908   3.980   0.563  0.3687  0.9927  0.8052
 5050SOL     OW16048   0.898   6.633   0.348 -0.3083 -0.3525  0.6615
 5050SOL    HW116049   0.807   6.615   0.311 -0.7137  1.2197  0.8366
 5050SOL    HW216050   0.891   6.696   0.425  0.6550 -2.5039  2.6243
 5051SOL     OW16051   6.575   5.474   1.565 -0.2459 -0.2568  0.1359
 5051SOL    HW116052   6.548   5.527   1.485 -1.4395  0.2987  0.8806
 5051SOL    HW216053   6.602   5.537   1.639 -4.5600 -0.3527  2.0911
 5052SOL     OW16054   0.421   6.230   2.559  0.0254 -0.1657 -0.7849
 5052SOL    HW116055   0.518   6.207   2.551 -0.2326 -2.8042  2.0722
 5052SOL    HW216056   0.408   6.294   2.635 -0.5567 -0.4484 -0.6435
 5053SOL     OW16057   2.711   6.887   5.850  0.6056 -0.5656 -0.3663
 5053SOL    HW116058   2.664   6.939   5.921  1.3942  2.2104 -1.7159
 5053SOL    HW216059   2.643   6.849   5.787 -0.0291  1.2303 -0.8510
 5054SOL     OW16060   3.989   1.954   1.643  0.0865  0.2053 -0.0834
 5054SOL    HW116061   3.909   2.012   1.657  0.0195  0.0067  0.3852
 5054SOL    HW216062   4.059   1.977   1.711  0.1910 -0.0330 -0.1101
 5055SOL     OW16063   6.512   5.883   2.709  0.0545  0.2601 -0.0561
 5055SOL    HW116064   6.537   5.800   2.759 -0.7924  0.7713  1.2656
 5055SOL    HW216065   6.468   5.858   2.622  0.3162 -0.6577  0.0655
 5056SOL     OW16066   5.229   3.908   2.786 -0.3798  0.0182  0.7412
 5056SOL    HW116067   5.296   3.950   2.848  1.3970 -0.6024 -0.6576
 5056SOL    HW216068   5.262   3.817   2.760 -1.7607 -0.2697 -0.0666
 5057SOL     OW16069   2.206   4.491   3.695 -0.3305 -0.1993  0.0713
 5057SOL    HW116070   2.188   4.394   3.709 -0.2824 -0.1668  0.3680
 5057SOL    HW216071   2.224   4.535   3.784  0.5611 -0.1070 -0.1441
 5058SOL     OW16072   3.274   5.124   2.118  0.2042  0.0647 -0.2407
 5058SOL    HW116073   3.319   5.085   2.199 -0.5615  0.4473  0.3795
 5058SOL    HW216074   3.215   5.200   2.146  0.7039  0.8617 -1.2868
 5059SOL     OW16075   5.818   5.133   2.180  0.0052 -0.4548  0.6706
 5059SOL    HW116076   5.721   5.140   2.157 -0.6661 -0.4533  3.2120
 5059SOL    HW216077   5.843   5.037   2.193 -1.1991 -0.3802  5.3734
 5060SOL     OW16078   3.262   6.355   6.605  0.0487 -0.5679  0.2202
 5060SOL    HW116079   3.297   6.350   6.698  1.5328 -2.2336 -0.3629
 5060SOL    HW216080   3.334   6.392   6.545 -0.1663 -1.4130 -0.5763
 5061SOL     OW16081   1.724   6.672   2.633 -0.3540  0.1114 -0.7602
 5061SOL    HW116082   1.704   6.770   2.630 -0.8183  0.0327 -0.3221
 5061SOL    HW216083   1.660   6.626   2.696  0.6569 -0.2825  0.0091
 5062SOL     OW16084   5.128   5.875   2.699  0.2448  0.2790  0.6805
 5062SOL    HW116085   5.076   5.960   2.709 -0.6188 -0.0102 -0.9307
 5062SOL    HW216086   5.164   5.869   2.605  0.1644 -1.1894  0.7188
 5063SOL     OW16087   1.234   5.892   5.392  0.3407 -0.2042 -0.2227
 5063SOL    HW116088   1.225   5.797   5.359 -0.6474 -0.0924 -0.3192
 5063SOL    HW216089   1.292   5.894   5.473  0.1529 -0.9386 -0.0608
 5064SOL     OW16090   5.000   6.636   4.222 -0.7298 -0.0347  0.0089
 5064SOL    HW116091   5.032   6.579   4.146 -0.3595  1.1002 -0.7229
 5064SOL    HW216092   4.928   6.589   4.271 -0.3194 -1.1936 -0.4693
 5065SOL     OW16093   3.108   5.969   1.176 -0.1891  0.5609 -0.0564
 5065SOL    HW116094   3.045   6.042   1.202 -0.2046  0.6141 -0.2432
 5065SOL    HW216095   3.177   6.005   1.113  1.3358  1.0300  1.7877
 5066SOL     OW16096   1.235   4.028   6.600 -0.1147 -0.4070  0.4522
 5066SOL    HW116097   1.250   4.032   6.699 -0.7539 -0.0573  0.5388
 5066SOL    HW216098   1.260   3.938   6.566 -0.1943 -0.6284  0.9828
 5067SOL     OW16099   2.847   6.182   2.365 -0.2144  0.3560  0.4441
 5067SOL    HW116100   2.794   6.107   2.324 -1.5648  0.0301  2.6217
 5067SOL    HW216101   2.784   6.243   2.413  1.3634 -0.6989  4.1863
 5068SOL     OW16102   1.315   6.454   0.296 -0.1026 -0.1024  0.3818
 5068SOL    HW116103   1.385   6.452   0.367  0.3812  0.8026 -0.0440
 5068SOL    HW216104   1.283   6.361   0.277 -0.7525 -0.3066  2.2609
 5069SOL     OW16105   2.884   1.979   0.391  0.0451  0.1176  0.2955
 5069SOL    HW116106   2.960   1.915   0.387 -0.4545 -0.5768  1.3768
 5069SOL    HW216107   2.871   2.010   0.486 -1.1371  0.0538  0.1755
 5070SOL     OW16108   3.428   5.628   3.299 -0.0085  0.6947 -0.0747
 5070SOL    HW116109   3.504   5.575   3.263  0.0149  0.0473  0.9051
 5070SOL    HW216110   3.453   5.667   3.387 -0.7291  0.6640  0.1516
 5071SOL     OW16111   3.111   5.978   5.057  0.1145  0.1449 -0.0361
 5071SOL    HW116112   3.149   5.887   5.036 -0.0469 -0.2139  1.1322
 5071SOL    HW216113   3.135   6.002   5.151  0.5677  1.5420 -0.4941
 5072SOL     OW16114   2.028   2.220   2.974  0.3141 -0.2487 -0.1255
 5072SOL    HW116115   2.026   2.285   3.050 -1.9536 -0.5483  0.1501
 5072SOL    HW216116   2.027   2.269   2.887  1.6950  0.0803  0.0195
 5073SOL     OW16117   0.218   0.736   2.617  0.1498 -0.0819  0.2402
 5073SOL    HW116118   0.266   0.823   2.629 -0.2360 -0.2175  3.5541
 5073SOL    HW216119   0.119   0.753   2.620 -0.0089 -0.4140 -1.6245
 5074SOL     OW16120   3.341   1.334   2.963 -0.3803 -0.1050 -0.5121
 5074SOL    HW116121   3.422   1.391   2.977 -0.7632  0.5014 -0.7276
 5074SOL    HW216122   3.358   1.269   2.888  0.3864 -0.9156  0.3457
 5075SOL     OW16123   0.496   4.400   5.835 -0.0557  0.2747  0.2450
 5075SOL    HW116124   0.504   4.499   5.836  1.2711  0.2823 -2.2243
 5075SOL    HW216125   0.577   4.359   5.877  0.0696  0.2451 -0.0241
 5076SOL     OW16126   0.510   6.591   1.486 -0.2909  0.0607  0.2871
 5076SOL    HW116127   0.412   6.595   1.503 -0.7631 -1.5704 -1.6993
 5076SOL    HW216128   0.540   6.496   1.484  1.2992  0.5263  0.6665
 5077SOL     OW16129   0.849   2.371   3.466  0.1059 -0.2822  0.3694
 5077SOL    HW116130   0.897   2.288   3.439  1.1845  0.0801  1.0971
 5077SOL    HW216131   0.751   2.358   3.455  0.3812 -0.6335 -2.3411
 5078SOL     OW16132   4.554   0.155   5.806  0.2765  0.1645 -0.1851
 5078SOL    HW116133   4.507   0.171   5.719  0.7201 -0.8745 -0.6466
 5078SOL    HW216134   4.618   0.230   5.824  1.0784 -0.1835 -1.3927
 5079SOL     OW16135   1.776   1.017   2.028  0.5830 -0.2228 -0.3246
 5079SOL    HW116136   1.847   0.978   2.087  0.8160 -1.3482 -1.3095
 5079SOL    HW216137   1.710   0.947   2.003  1.2803 -0.1632 -2.5437
 5080SOL     OW16138   2.641   0.277   5.679  0.2852 -0.1836  0.0475
 5080SOL    HW116139   2.582   0.198   5.666 -0.0769 -0.3763  2.5073
 5080SOL    HW216140   2.586   0.357   5.704  0.8745  0.2370  0.0345
 5081SOL     OW16141   2.919   3.733   5.147 -0.0532 -0.2231  0.0895
 5081SOL    HW116142   2.869   3.716   5.062 -0.3354 -0.3198  0.2741
 5081SOL    HW216143   2.878   3.680   5.221 -0.3234  0.5009  0.4612
 5082SOL     OW16144   2.943   6.980   4.464  0.1618  0.6390  0.2263
 5082SOL    HW116145   2.993   6.911   4.411  2.2514 -0.1416  2.9651
 5082SOL    HW216146   2.999   7.063   4.472 -1.0293  1.5467 -0.4746
 5083SOL     OW16147   0.903   6.582   6.936  0.6700  0.2345  0.3395
 5083SOL    HW116148   0.929   6.659   6.878  0.0657  0.6723  0.6333
 5083SOL    HW216149   0.822   6.606   6.989  0.6219 -0.5159  0.6277
 5084SOL     OW16150   2.837   1.412   0.953 -0.0813 -0.0349  0.1445
 5084SOL    HW116151   2.916   1.473   0.941 -0.8659  0.7154 -1.5564
 5084SOL    HW216152   2.815   1.406   1.050  3.0638 -1.6272  0.8989
 5085SOL     OW16153   0.104   6.823   5.931 -0.2404  0.0688  0.1622
 5085SOL    HW116154   0.008   6.805   5.907  0.0334 -1.7742  0.3316
 5085SOL    HW216155   0.156   6.840   5.847 -0.6934  1.1168  0.0710
 5086SOL     OW16156   2.409   2.348   3.542 -0.3275 -0.2201 -0.2091
 5086SOL    HW116157   2.402   2.403   3.458 -3.7646  0.8388  0.6113
 5086SOL    HW216158   2.367   2.259   3.527  0.1327 -0.4911  0.0837
 5087SOL     OW16159   5.740   1.785   4.544 -0.1927  0.7392  0.0851
 5087SOL    HW116160   5.824   1.833   4.519  0.3361  0.5079  1.3568
 5087SOL    HW216161   5.665   1.816   4.485 -0.2388  4.2576  1.7738
 5088SOL     OW16162   3.973   5.078   6.685  0.0899  0.5157  0.4075
 5088SOL    HW116163   3.925   5.163   6.664  0.0206  0.3194 -0.2520
 5088SOL    HW216164   3.946   5.008   6.619  0.5332  0.1257  0.6392
 5089SOL     OW16165   3.344   0.713   0.508  0.2227  0.1237 -0.3820
 5089SOL    HW116166   3.389   0.639   0.558 -1.3339 -0.3278  0.4060
 5089SOL    HW216167   3.368   0.801   0.549  0.0180 -0.1482  0.3352
 5090SOL     OW16168   3.447   1.458   7.012  0.1096  0.4618 -0.1287
 5090SOL    HW116169   3.533   1.429   7.053  0.3186  0.8055 -0.3191
 5090SOL    HW216170   3.458   1.469   6.913 -0.4625 -0.6286 -0.3340
 5091SOL     OW16171   5.634   5.673   5.664 -0.1011  0.1651 -0.3792
 5091SOL    HW116172   5.553   5.639   5.713 -1.1632  1.6306 -1.0375
 5091SOL    HW216173   5.608   5.702   5.572  1.0529  1.1857 -0.4106
 5092SOL     OW16174   1.671   3.707   4.061  0.2633 -0.1197 -0.6412
 5092SOL    HW116175   1.619   3.702   4.146 -0.4806 -0.9001 -1.1268
 5092SOL    HW216176   1.760   3.749   4.079  0.5296 -1.1805  0.7192
 5093SOL     OW16177   2.304   1.506   1.835  0.3379 -0.7865 -0.4185
 5093SOL    HW116178   2.371   1.454   1.781  0.9478 -0.7581  0.2883
 5093SOL    HW216179   2.250   1.443   1.891  0.4515 -0.7377 -0.2513
 5094SOL     OW16180   5.359   0.409   4.392  0.3002  0.1046  0.0270
 5094SOL    HW116181   5.335   0.454   4.479  2.4318  2.5338 -0.5360
 5094SOL    HW216182   5.418   0.331   4.410 -0.3890 -0.2525  0.8149
 5095SOL     OW16183   5.667   6.922   3.181 -0.2826  0.5902 -0.3846
 5095SOL    HW116184   5.635   6.924   3.086  0.5332  3.6962 -0.6813
 5095SOL    HW216185   5.766   6.932   3.184 -0.1033 -0.9996  0.8134
 5096SOL     OW16186   3.841   4.969   5.245  0.0823  0.5067  0.4013
 5096SOL    HW116187   3.861   4.871   5.247 -0.5784  0.3657  1.6330
 5096SOL    HW216188   3.926   5.021   5.237  0.3547 -0.1600 -1.7426
 5097SOL     OW16189   0.815   6.995   4.670  0.0720  0.0527  0.9724
 5097SOL    HW116190   0.756   7.017   4.592  1.0580 -1.3432 -0.2016
 5097SOL    HW216191   0.910   6.993   4.641  0.4869 -0.2526  2.2829
 5098SOL     OW16192   6.859   3.297   0.808 -0.1763 -0.0365 -0.2529
 5098SOL    HW116193   6.926   3.369   0.824 -0.8292  0.6378 -0.4615
 5098SOL    HW216194   6.768   3.330   0.834 -0.7020 -0.2644 -1.6967
 5099SOL     OW16195   4.915   6.660   1.361 -0.5300 -1.1411 -0.1050
 5099SOL    HW116196   4.923   6.623   1.268  0.5978  0.2094 -0.5714
 5099SOL    HW216197   4.818   6.661   1.388 -0.8294 -1.9435 -1.0819
 5100SOL     OW16198   1.239   1.200   0.888 -0.2168 -0.3080  0.2077
 5100SOL    HW116199   1.261   1.297   0.879 -3.8660  0.9356  2.6496
 5100SOL    HW216200   1.159   1.179   0.833 -0.3078 -1.6183  0.7989
 5101SOL     OW16201   4.710   0.870   3.347 -0.0802  0.8807 -0.2017
 5101SOL    HW116202   4.748   0.892   3.258 -0.6951 -1.0321 -0.9975
 5101SOL    HW216203   4.614   0.841   3.336  0.4646 -1.5384  0.7016
 5102SOL     OW16204   0.770   4.546   0.979 -0.2409 -0.0786  0.0653
 5102SOL    HW116205   0.816   4.604   1.046 -2.0891  1.0130  0.4820
 5102SOL    HW216206   0.729   4.603   0.908 -1.9007 -0.8562  0.3505
 5103SOL     OW16207   5.645   6.425   6.430 -0.0431  0.2089 -0.3808
 5103SOL    HW116208   5.691   6.480   6.499 -1.0527 -0.9544  1.2941
 5103SOL    HW216209   5.712   6.394   6.363  1.9702 -2.2250  2.4723
 5104SOL     OW16210   4.025   4.272   1.320 -0.2287 -0.0865 -0.2552
 5104SOL    HW116211   3.961   4.207   1.360 -0.2764 -0.6158 -1.1676
 5104SOL    HW216212   4.040   4.347   1.384 -0.2430 -0.9410  0.7835
 5105SOL     OW16213   6.148   5.183   5.691 -0.0584 -0.6029 -0.1532
 5105SOL    HW116214   6.219   5.176   5.761 -0.4768 -0.8866  0.2494
 5105SOL    HW216215   6.170   5.258   5.629 -0.2643  0.4041  0.9542
 5106SOL     OW16216   3.667   5.737   6.487  0.2510  0.2183 -0.3755
 5106SOL    HW116217   3.652   5.639   6.495 -0.0073  0.1722 -1.3387
 5106SOL    HW216218   3.759   5.760   6.518 -0.0443 -0.1772  0.8479
 5107SOL     OW16219   4.904   2.089   5.551  0.4849  0.3411  0.1849
 5107SOL    HW116220   4.864   1.998   5.546 -1.6710  1.0767  2.3199
 5107SOL    HW216221   4.843   2.155   5.507  1.2522  0.9931  0.0677
 5108SOL     OW16222   4.861   5.013   4.705  0.1301  0.0796  0.1698
 5108SOL    HW116223   4.841   5.110   4.690  1.9974  0.4366 -0.1883
 5108SOL    HW216224   4.905   5.000   4.794 -0.6234 -0.5480  0.4755
 5109SOL     OW16225   0.467   2.966   5.371 -0.1628 -0.7215  0.2829
 5109SOL    HW116226   0.370   2.967   5.345 -0.1829 -2.2263  0.2302
 5109SOL    HW216227   0.476   2.981   5.469 -0.3829  0.2840  0.1602
 5110SOL     OW16228   5.959   5.553   5.858  0.2112  0.3500  0.1309
 5110SOL    HW116229   5.951   5.629   5.794  0.6951 -0.3741 -0.8130
 5110SOL    HW216230   6.054   5.543   5.887  0.4346 -0.7628 -0.8824
 5111SOL     OW16231   2.205   6.643   1.194  0.1180  0.4987 -0.6390
 5111SOL    HW116232   2.141   6.633   1.270  0.8715 -0.1573 -0.0674
 5111SOL    HW216233   2.272   6.714   1.216 -0.6835  1.5253 -1.4401
 5112SOL     OW16234   6.685   1.526   1.425 -0.3373 -0.1454  0.1997
 5112SOL    HW116235   6.610   1.526   1.359 -0.0544 -1.5289 -0.1640
 5112SOL    HW216236   6.666   1.592   1.497 -1.2755  0.4604 -0.5788
 5113SOL     OW16237   0.763   1.375   5.056 -0.2703 -0.2137 -0.0382
 5113SOL    HW116238   0.676   1.408   5.093  0.7643  0.2013  2.2173
 5113SOL    HW216239   0.798   1.300   5.114  1.6524  0.7649  0.1585
 5114SOL     OW16240   4.982   4.675   2.367 -0.1407 -0.8268  0.7850
 5114SOL    HW116241   4.900   4.618   2.369  0.2323 -1.3960  0.1763
 5114SOL    HW216242   4.955   4.771   2.377 -0.9604 -0.9320 -0.2411
 5115SOL     OW16243   3.706   5.653   4.721  0.3611  0.2488  0.0463
 5115SOL    HW116244   3.781   5.719   4.719  0.6314 -0.0567  0.0316
 5115SOL    HW216245   3.709   5.596   4.639  1.1316 -0.8844  0.8320
 5116SOL     OW16246   2.011   2.668   5.698 -0.5417 -0.3603 -0.4671
 5116SOL    HW116247   1.978   2.618   5.619 -0.1573 -2.2935  0.5460
 5116SOL    HW216248   2.062   2.607   5.758 -0.1755  1.2207  0.9262
 5117SOL     OW16249   4.808   5.594   6.608  0.0982  0.0250  0.4407
 5117SOL    HW116250   4.807   5.691   6.632 -1.4310 -0.1057  1.0207
 5117SOL    HW216251   4.734   5.575   6.544 -0.4622 -0.9884  1.3609
 5118SOL     OW16252   6.766   6.870   6.339  0.4557  0.1725 -0.0492
 5118SOL    HW116253   6.811   6.920   6.265 -0.8725 -0.2191 -1.1497
 5118SOL    HW216254   6.832   6.810   6.383  1.2736  0.4363 -0.8894
 5119SOL     OW16255   0.351   2.615   5.228 -0.3573  0.0919  0.0523
 5119SOL    HW116256   0.395   2.564   5.303  0.6806 -0.3954 -0.8631
 5119SOL    HW216257   0.421   2.661   5.173 -1.1252  0.6396 -0.4853
 5120SOL     OW16258   2.181   5.344   4.231 -0.7994  0.2159 -0.2229
 5120SOL    HW116259   2.254   5.288   4.192 -1.5320 -1.3214  0.5317
 5120SOL    HW216260   2.110   5.359   4.163 -0.9362 -0.3875 -0.2142
 5121SOL     OW16261   6.922   2.984   7.002 -0.5389 -0.1783 -0.1220
 5121SOL    HW116262   6.849   2.949   6.943  0.5054 -0.5295 -1.2454
 5121SOL    HW216263   6.943   2.915   7.072 -0.9942 -0.2539 -0.0569
 5122SOL     OW16264   5.672   5.625   6.807 -0.2934  0.5931  0.1165
 5122SOL    HW116265   5.696   5.657   6.898 -0.9692 -2.5385  1.5196
 5122SOL    HW216266   5.753   5.588   6.762 -0.2891  0.6055  0.1145
 5123SOL     OW16267   5.029   4.105   6.091 -0.1858  0.1420  0.7752
 5123SOL    HW116268   5.084   4.095   6.174 -0.4719 -2.6393  0.6996
 5123SOL    HW216269   4.939   4.143   6.116 -0.6747 -1.6955  1.9580
 5124SOL     OW16270   1.902   5.356   6.154 -0.1484  0.1772  0.7989
 5124SOL    HW116271   1.907   5.422   6.079  0.1666 -0.4660  0.2380
 5124SOL    HW216272   1.894   5.264   6.117  2.0481 -0.3627  1.4798
 5125SOL     OW16273   0.600   6.094   4.250  0.2377  0.0391 -0.0174
 5125SOL    HW116274   0.694   6.072   4.224  0.7782  0.2443  1.6524
 5125SOL    HW216275   0.538   6.067   4.177  1.2925 -2.8983  0.0467
 5126SOL     OW16276   6.895   2.651   4.451  0.5236 -0.2217 -0.5918
 5126SOL    HW116277   6.933   2.655   4.359  2.2911  0.4236  0.1255
 5126SOL    HW216278   6.909   2.559   4.488  1.4584  0.0213 -0.3195
 5127SOL     OW16279   6.077   6.567   4.869 -0.6930  0.1682 -0.0861
 5127SOL    HW116280   6.082   6.610   4.960 -1.2615 -0.4045  0.2250
 5127SOL    HW216281   6.066   6.638   4.800  2.8774  0.8962 -0.0749
 5128SOL     OW16282   5.567   1.598   3.127  0.0331  0.6662  0.2596
 5128SOL    HW116283   5.579   1.510   3.174 -1.8562  0.8061  1.1162
 5128SOL    HW216284   5.478   1.599   3.082  1.0144  1.2808 -1.7628
 5129SOL     OW16285   2.040   5.643   1.913 -0.3723 -0.1750 -0.2720
 5129SOL    HW116286   2.118   5.611   1.966 -0.0973  0.5192 -0.2499
 5129SOL    HW216287   1.996   5.565   1.867 -0.8511 -0.8507  1.2684
 5130SOL     OW16288   0.432   2.926   6.924 -0.6422 -0.5735  0.2491
 5130SOL    HW116289   0.520   2.944   6.968 -1.1113 -3.1018  2.4586
 5130SOL    HW216290   0.363   2.911   6.994 -2.1734 -1.6479 -1.4079
 5131SOL     OW16291   6.039   5.029   3.368 -0.0930 -0.1942 -0.1859
 5131SOL    HW116292   6.044   5.027   3.268 -0.1123 -0.0058 -0.1909
 5131SOL    HW216293   5.946   5.006   3.397 -0.2571  0.3807 -0.2360
 5132SOL     OW16294   0.896   0.720   0.720 -0.8773  0.1051 -0.3022
 5132SOL    HW116295   0.892   0.624   0.749 -1.2484  0.2548  0.1613
 5132SOL    HW216296   0.855   0.729   0.629 -0.4205 -0.2481 -0.5454
 5133SOL     OW16297   2.847   5.672   4.213  0.0491  0.0417  0.1988
 5133SOL    HW116298   2.862   5.573   4.214 -1.2022 -0.2001 -1.1751
 5133SOL    HW216299   2.774   5.694   4.148  1.6004  2.0543 -0.9805
 5134SOL     OW16300   5.436   5.468   6.774  0.5415  0.1416 -0.3020
 5134SOL    HW116301   5.414   5.410   6.852 -0.1960  0.9899  0.1403
 5134SOL    HW216302   5.515   5.525   6.796 -0.6247  1.5419  0.4827
 5135SOL     OW16303   1.355   0.545   5.191  0.3939 -0.2034  0.1188
 5135SOL    HW116304   1.428   0.549   5.123 -0.2663  0.5560 -0.5500
 5135SOL    HW216305   1.384   0.485   5.266  0.4646 -2.4652 -1.5935
 5136SOL     OW16306   4.522   6.599   3.213 -0.6656  0.0786  0.2309
 5136SOL    HW116307   4.474   6.632   3.295  0.6960 -1.1084  1.5636
 5136SOL    HW216308   4.491   6.507   3.192  1.0938 -0.7855  1.2333
 5137SOL     OW16309   5.823   5.075   6.781  0.3725 -0.2244 -0.3767
 5137SOL    HW116310   5.728   5.108   6.783 -0.1598 -1.6564 -0.8742
 5137SOL    HW216311   5.823   4.975   6.785  1.8487 -0.2545 -0.8777
 5138SOL     OW16312   3.204   3.503   4.513  0.1319 -0.2818  0.6079
 5138SOL    HW116313   3.142   3.425   4.503  1.3592 -1.0656 -1.5932
 5138SOL    HW216314   3.223   3.519   4.610 -2.9475 -0.3875  1.3450
 5139SOL     OW16315   4.913   4.908   0.837  0.6037  0.1261  0.1908
 5139SOL    HW116316   4.859   4.904   0.921  0.0862  0.2962 -0.1294
 5139SOL    HW216317   5.008   4.931   0.860  0.4757  0.1385  0.7289
 5140SOL     OW16318   6.755   4.579   2.274  0.1632  0.0786  0.0380
 5140SOL    HW116319   6.664   4.554   2.308 -0.5428  3.3891  1.0276
 5140SOL    HW216320   6.757   4.574   2.175 -1.3314  0.4614 -0.0358
 5141SOL     OW16321   3.265   2.915   1.990  0.0952  0.7703  0.2914
 5141SOL    HW116322   3.323   2.835   1.974 -1.9800 -0.6869 -0.4150
 5141SOL    HW216323   3.261   2.935   2.088 -0.5662 -1.0020  0.6620
 5142SOL     OW16324   5.377   1.704   4.906 -0.1531  0.2023  0.0972
 5142SOL    HW116325   5.425   1.772   4.851 -1.8116  0.8257 -0.6485
 5142SOL    HW216326   5.357   1.743   4.996  1.1562 -0.2515  0.6102
 5143SOL     OW16327   6.832   3.793   1.856  0.2980 -0.5750  0.0859
 5143SOL    HW116328   6.907   3.745   1.810 -0.6088 -1.3149 -0.6706
 5143SOL    HW216329   6.814   3.748   1.944  1.2907  0.1449  0.6808
 5144SOL     OW16330   6.663   5.826   2.983 -0.6114  0.0596  0.6358
 5144SOL    HW116331   6.735   5.788   3.040 -0.5111 -0.6464  0.0523
 5144SOL    HW216332   6.682   5.922   2.964  0.2081 -0.1350  0.4445
 5145SOL     OW16333   3.175   6.061   5.328  0.1055  0.1645 -0.0893
 5145SOL    HW116334   3.250   6.066   5.395 -0.5288  1.4670  0.5675
 5145SOL    HW216335   3.158   6.153   5.292  0.0024 -0.4169 -1.5822
 5146SOL     OW16336   1.396   2.015   1.372  0.1294  0.2137 -0.4905
 5146SOL    HW116337   1.480   2.030   1.318 -0.5988 -1.2357 -2.1353
 5146SOL    HW216338   1.394   1.921   1.404 -0.2511  0.6228  0.7423
 5147SOL     OW16339   3.148   2.576   5.354  0.5730 -0.0076  0.2326
 5147SOL    HW116340   3.152   2.511   5.278 -1.0498  0.6979 -0.4895
 5147SOL    HW216341   3.112   2.663   5.322  0.2616  0.4426  1.7226
 5148SOL     OW16342   0.605   6.813   6.464 -0.2224  0.7108 -0.9043
 5148SOL    HW116343   0.531   6.817   6.397  0.4171  1.2688 -1.5930
 5148SOL    HW216344   0.577   6.755   6.541 -0.9620  0.0398 -1.6575
 5149SOL     OW16345   4.417   1.965   2.242 -0.3106  0.4705  0.2740
 5149SOL    HW116346   4.357   1.890   2.215  0.6100 -0.5622  0.9837
 5149SOL    HW216347   4.410   1.980   2.341  0.1434  0.7476  0.2678
 5150SOL     OW16348   2.598   4.608   4.484  0.0164 -0.1054 -0.0707
 5150SOL    HW116349   2.527   4.627   4.415 -0.9432 -1.2808  0.5485
 5150SOL    HW216350   2.556   4.608   4.575  0.8273 -0.7289  0.3140
 5151SOL     OW16351   0.808   5.684   5.743  0.0354  0.2351  0.5843
 5151SOL    HW116352   0.795   5.778   5.773 -1.7846  0.1120  0.2768
 5151SOL    HW216353   0.767   5.622   5.810  1.5484 -0.3843  0.9727
 5152SOL     OW16354   5.491   5.635   2.187  0.0971 -0.0137 -0.2088
 5152SOL    HW116355   5.585   5.603   2.176  0.1454 -0.2140  0.7004
 5152SOL    HW216356   5.490   5.716   2.246 -0.3340 -0.2212  0.0719
 5153SOL     OW16357   2.556   0.419   2.453  0.4058 -0.3229  0.0154
 5153SOL    HW116358   2.472   0.382   2.493  1.2191 -1.9386  0.3328
 5153SOL    HW216359   2.581   0.504   2.499 -0.9834  0.1116 -0.0073
 5154SOL     OW16360   0.620   3.435   3.536  0.3563 -0.4368 -0.5239
 5154SOL    HW116361   0.588   3.381   3.459 -0.8173 -0.0087 -0.3510
 5154SOL    HW216362   0.658   3.521   3.503  1.4713 -0.9924 -0.7370
 5155SOL     OW16363   5.235   0.632   3.688  0.5491  0.3847 -0.1083
 5155SOL    HW116364   5.327   0.599   3.711 -0.1100 -0.6231  1.2131
 5155SOL    HW216365   5.211   0.603   3.596  0.8615 -0.9557  0.2145
 5156SOL     OW16366   1.190   5.992   5.768  0.3657  0.4345 -0.3716
 5156SOL    HW116367   1.182   6.083   5.728  0.6440 -0.2365 -2.0324
 5156SOL    HW216368   1.252   5.936   5.713 -2.3737 -1.8199 -1.4706
 5157SOL     OW16369   1.130   2.908   6.584 -0.1063  0.3058 -0.2960
 5157SOL    HW116370   1.158   2.979   6.649 -1.5843  0.2648  0.4362
 5157SOL    HW216371   1.166   2.929   6.494 -1.3257  2.5709 -0.3236
 5158SOL     OW16372   4.090   0.476   3.335  0.4904  0.0232  0.4394
 5158SOL    HW116373   4.055   0.425   3.413  0.5025 -0.3615  0.2001
 5158SOL    HW216374   4.104   0.572   3.360 -0.2720  0.0769  0.6748
 5159SOL     OW16375   2.746   0.689   1.284  0.4368 -0.2164  0.2595
 5159SOL    HW116376   2.824   0.684   1.222 -1.4912 -2.9358 -2.1903
 5159SOL    HW216377   2.750   0.613   1.349  0.4754  0.3925  0.9802
 5160SOL     OW16378   2.749   4.061   6.763  0.0319 -0.5778 -0.0918
 5160SOL    HW116379   2.745   4.108   6.675  0.3485 -0.1858  0.1013
 5160SOL    HW216380   2.700   4.114   6.832 -0.6084 -1.1127 -0.1302
 5161SOL     OW16381   0.488   1.130   6.280 -0.1624  0.6866 -0.5309
 5161SOL    HW116382   0.488   1.049   6.221 -2.0515  0.0812  0.2483
 5161SOL    HW216383   0.558   1.194   6.247  1.3366 -1.1871 -1.2134
 5162SOL     OW16384   0.750   5.923   3.054 -0.0350  0.5320  0.6492
 5162SOL    HW116385   0.842   5.920   3.014 -0.5995 -0.5811 -0.6286
 5162SOL    HW216386   0.754   5.970   3.142  1.9418 -0.3397  1.0823
 5163SOL     OW16387   5.146   4.508   4.584 -0.2623  0.8253 -0.4412
 5163SOL    HW116388   5.143   4.450   4.503 -2.4450  1.1277 -0.6363
 5163SOL    HW216389   5.055   4.542   4.604 -0.0295 -0.0987  2.7623
 5164SOL     OW16390   3.627   0.138   6.193 -0.0009  0.0944  0.4187
 5164SOL    HW116391   3.677   0.144   6.106 -0.8120 -0.3581 -0.0933
 5164SOL    HW216392   3.589   0.227   6.216  1.9116  0.7153  1.3684
 5165SOL     OW16393   6.531   5.742   1.682 -0.3543 -0.0179  0.3613
 5165SOL    HW116394   6.623   5.754   1.644 -1.0261 -0.2991 -1.4574
 5165SOL    HW216395   6.514   5.812   1.752  0.8290  0.7483 -0.0883
 5166SOL     OW16396   1.849   4.102   5.732  0.0043 -0.2836  0.1711
 5166SOL    HW116397   1.848   4.111   5.633  1.6719 -0.3241  0.1302
 5166SOL    HW216398   1.934   4.058   5.761  0.1558  0.9546  1.7151
 5167SOL     OW16399   3.096   0.033   1.951 -0.1760 -0.2120  0.4520
 5167SOL    HW116400   3.031   0.067   1.883  2.4901 -0.1895 -2.2865
 5167SOL    HW216401   3.173   0.097   1.958  1.3655 -2.0176  0.7230
 5168SOL     OW16402   0.292   2.308   1.288  0.0534  0.5985 -0.3077
 5168SOL    HW116403   0.295   2.300   1.388 -2.1377 -1.4205 -0.3189
 5168SOL    HW216404   0.282   2.404   1.263  0.0307  1.0902  1.4444
 5169SOL     OW16405   4.097   4.789   4.200 -0.0295 -0.2301 -0.1473
 5169SOL    HW116406   4.032   4.756   4.269  1.1505 -0.1270  1.0375
 5169SOL    HW216407   4.189   4.758   4.223  0.4298 -0.0160 -1.5782
 5170SOL     OW16408   0.617   0.727   2.734 -0.1565 -0.0870  0.7112
 5170SOL    HW116409   0.529   0.690   2.705 -0.0350 -1.0560  1.5294
 5170SOL    HW216410   0.684   0.653   2.740  0.7763  0.6644 -0.0661
 5171SOL     OW16411   2.620   1.801   2.239  0.2212  0.0079  0.0306
 5171SOL    HW116412   2.719   1.811   2.231  0.3592 -1.9931 -1.1781
 5171SOL    HW216413   2.593   1.822   2.333  1.9587 -0.5538  0.7011
 5172SOL     OW16414   5.266   4.723   2.418  0.4436  0.0130  0.0147
 5172SOL    HW116415   5.274   4.821   2.402  0.3309  0.1967  1.0394
 5172SOL    HW216416   5.170   4.695   2.414  0.4745 -0.0647 -0.2678
 5173SOL     OW16417   3.930   5.639   6.463 -0.3335 -0.2546  0.2592
 5173SOL    HW116418   3.981   5.557   6.486 -0.2649 -0.3024 -0.0596
 5173SOL    HW216419   3.872   5.621   6.383  0.4326  0.2868 -0.4445
 5174SOL     OW16420   6.604   2.728   2.861 -0.0203 -0.3643  0.2250
 5174SOL    HW116421   6.670   2.754   2.931 -0.3397 -0.9407  0.7446
 5174SOL    HW216422   6.525   2.685   2.904 -0.7908  0.4078 -0.3770
 5175SOL     OW16423   2.036   1.417   0.633  0.0929 -0.2680  0.1140
 5175SOL    HW116424   1.996   1.424   0.542  1.7808 -1.3403 -0.7544
 5175SOL    HW216425   2.133   1.443   0.630  0.1002  0.0128  1.6767
 5176SOL     OW16426   5.713   3.990   5.646  0.7011  0.2233  0.0107
 5176SOL    HW116427   5.686   3.894   5.646  0.7849  0.1797 -1.4894
 5176SOL    HW216428   5.660   4.040   5.714 -1.6863 -0.2687 -1.3802
 5177SOL     OW16429   1.450   6.760   3.208 -0.6003  0.1179 -0.1930
 5177SOL    HW116430   1.364   6.792   3.245 -1.4128  0.0703 -1.9432
 5177SOL    HW216431   1.470   6.807   3.122  0.0919 -1.3107 -0.8581
 5178SOL     OW16432   4.460   3.287   5.480  0.3507  0.0397  0.4298
 5178SOL    HW116433   4.380   3.250   5.432  2.9606 -1.1156 -3.5366
 5178SOL    HW216434   4.509   3.212   5.525  1.7259 -0.2086 -1.3732
 5179SOL     OW16435   2.048   4.827   2.101  0.6272  0.8326  0.2096
 5179SOL    HW116436   1.970   4.771   2.073  0.5223  0.9740  0.2222
 5179SOL    HW216437   2.132   4.774   2.088  0.5924  0.9372 -0.4822
 5180SOL     OW16438   1.076   3.161   4.493  0.4753 -0.5711 -0.1626
 5180SOL    HW116439   1.105   3.231   4.428 -1.8994 -0.4826 -1.2336
 5180SOL    HW216440   1.082   3.197   4.586 -1.4337  1.4447 -0.7241
 5181SOL     OW16441   6.146   2.563   1.621  0.5394  0.2709  0.2331
 5181SOL    HW116442   6.059   2.559   1.669 -0.8287 -1.1640 -2.1966
 5181SOL    HW216443   6.164   2.658   1.593 -0.9182  0.3877 -0.3787
 5182SOL     OW16444   3.683   5.821   0.104  0.2172  0.1183 -0.0314
 5182SOL    HW116445   3.745   5.882   0.056  0.8637 -0.9918 -0.6497
 5182SOL    HW216446   3.596   5.815   0.055  0.5121 -0.2309 -0.5128
 5183SOL     OW16447   0.887   6.841   3.230 -0.2015 -0.2803  0.3530
 5183SOL    HW116448   0.926   6.882   3.147  0.3098 -1.7638 -0.1777
 5183SOL    HW216449   0.825   6.906   3.273 -1.1538  0.2328 -1.6630
 5184SOL     OW16450   3.630   6.786   6.495 -0.2509  0.0346 -0.5478
 5184SOL    HW116451   3.634   6.686   6.489 -0.7844 -0.1225  1.1433
 5184SOL    HW216452   3.553   6.813   6.554  0.1879  1.4271 -0.5757
 5185SOL     OW16453   4.616   4.493   5.626 -0.4234 -0.7426  0.8189
 5185SOL    HW116454   4.603   4.396   5.606 -3.2992  0.0746 -1.9731
 5185SOL    HW216455   4.528   4.540   5.627  0.8197  1.8467  2.6202
 5186SOL     OW16456   3.204   5.069   4.146 -0.2889  0.2654 -0.0472
 5186SOL    HW116457   3.131   5.123   4.103 -1.1403  0.1444  1.2049
 5186SOL    HW216458   3.174   5.036   4.235 -0.1993 -3.0989 -1.0947
 5187SOL     OW16459   0.986   6.349   2.847 -0.0346 -0.0040  0.1223
 5187SOL    HW116460   1.025   6.260   2.825  0.0531  0.0661 -0.0059
 5187SOL    HW216461   0.887   6.347   2.830  0.1170  0.2220 -0.8249
 5188SOL     OW16462   6.305   6.775   5.060 -0.6434  0.1973  0.0156
 5188SOL    HW116463   6.402   6.762   5.080 -0.3751 -0.9258 -1.7114
 5188SOL    HW216464   6.251   6.713   5.117 -0.3869  0.9938  1.1541
 5189SOL     OW16465   5.024   3.500   1.145  0.4725  0.2619 -1.0738
 5189SOL    HW116466   4.956   3.426   1.147 -0.4299  1.0684  0.1079
 5189SOL    HW216467   5.095   3.482   1.213 -1.1947  1.6889  1.2243
 5190SOL     OW16468   0.564   0.769   6.824  0.3545  0.4235 -0.0280
 5190SOL    HW116469   0.501   0.844   6.845 -0.8891 -0.4473 -0.5100
 5190SOL    HW216470   0.526   0.713   6.750  1.9716  0.1760 -0.7075
 5191SOL     OW16471   4.059   3.454   3.521  0.2091 -0.4672  0.2078
 5191SOL    HW116472   4.090   3.546   3.498 -1.1344  0.1114  0.5738
 5191SOL    HW216473   4.049   3.446   3.621  2.3558 -1.7269  0.3862
 5192SOL     OW16474   6.324   3.755   1.253  0.4819 -0.8310  0.3302
 5192SOL    HW116475   6.252   3.814   1.290 -0.1516 -1.8478  0.7764
 5192SOL    HW216476   6.352   3.789   1.164 -1.8286 -1.3880 -0.6906
 5193SOL     OW16477   1.407   5.195   5.216 -1.0878 -0.2091  0.5380
 5193SOL    HW116478   1.320   5.211   5.170  0.7721  1.6624 -2.7146
 5193SOL    HW216479   1.444   5.106   5.191 -1.7908 -0.7932  1.5258
 5194SOL     OW16480   1.284   6.439   1.842 -0.2144 -0.4016  0.6854
 5194SOL    HW116481   1.370   6.412   1.798  0.2970  0.4442  1.1457
 5194SOL    HW216482   1.263   6.534   1.820  0.6437  0.4271  3.0824
 5195SOL     OW16483   6.013   6.543   4.167 -0.0611 -0.5387 -0.0297
 5195SOL    HW116484   5.954   6.462   4.170 -1.3564  0.4028  0.4846
 5195SOL    HW216485   6.061   6.553   4.254 -0.4405 -0.3708  0.1633
 5196SOL     OW16486   1.730   1.109   1.660  0.5284  0.0209  0.1807
 5196SOL    HW116487   1.669   1.143   1.731  1.9707  0.4671  1.2566
 5196SOL    HW216488   1.755   1.015   1.680  1.2447  0.2726  0.4897
 5197SOL     OW16489   5.717   4.981   4.492  0.0931  0.2677  0.2190
 5197SOL    HW116490   5.730   5.058   4.555 -2.0791  0.4165  0.5359
 5197SOL    HW216491   5.646   4.920   4.528  0.1372 -0.6478 -1.1831
 5198SOL     OW16492   3.909   0.064   2.572 -0.3936 -0.1355 -0.2709
 5198SOL    HW116493   3.993   0.118   2.565 -0.6787  0.3436 -0.0701
 5198SOL    HW216494   3.871   0.074   2.664 -1.3717  0.7191 -0.7499
 5199SOL     OW16495   6.665   6.744   0.113  0.3668  0.2674  0.1044
 5199SOL    HW116496   6.729   6.699   0.176  0.1451 -2.4441 -1.4548
 5199SOL    HW216497   6.698   6.732   0.019 -1.2041  0.9433 -0.5515
 5200SOL     OW16498   6.526   5.660   1.393  0.3472  0.1118 -0.2094
 5200SOL    HW116499   6.567   5.695   1.308  0.4554 -0.7844 -0.5395
 5200SOL    HW216500   6.436   5.620   1.372 -0.2814  1.1974  0.3520
 5201SOL     OW16501   4.748   3.926   1.745 -0.0341  0.4525 -0.5890
 5201SOL    HW116502   4.792   3.928   1.835 -2.7031 -0.0453  0.8339
 5201SOL    HW216503   4.757   4.015   1.701 -1.0366  1.6009  1.4270
 5202SOL     OW16504   5.595   1.351   5.431 -0.3590  0.2979 -0.2702
 5202SOL    HW116505   5.533   1.312   5.499  1.5600  0.0253  1.4085
 5202SOL    HW216506   5.656   1.417   5.475  0.0933  1.0964 -2.0037
 5203SOL     OW16507   2.079   3.158   1.767  0.6826 -0.2780 -0.1077
 5203SOL    HW116508   1.983   3.146   1.740  1.2094 -1.2345 -1.6899
 5203SOL    HW216509   2.107   3.252   1.749  0.0165  0.0414  0.4831
 5204SOL     OW16510   2.873   0.058   6.376 -0.4340  0.4978 -0.2326
 5204SOL    HW116511   2.918   0.108   6.302  2.0272  1.2610  1.6547
 5204SOL    HW216512   2.941   0.015   6.435 -2.2894 -0.4076  1.3936
 5205SOL     OW16513   5.142   2.401   4.642  0.2737 -0.3769 -0.4383
 5205SOL    HW116514   5.136   2.305   4.613  1.0765  0.0248 -2.0303
 5205SOL    HW216515   5.072   2.454   4.595  0.8904  0.0997 -0.8234
 5206SOL     OW16516   0.458   2.879   4.644  0.1727  0.1047 -0.3675
 5206SOL    HW116517   0.481   2.786   4.616  0.6064  0.6540 -1.9171
 5206SOL    HW216518   0.542   2.933   4.656 -0.0938  0.4619 -0.0451
 5207SOL     OW16519   0.595   0.506   6.384 -0.1284 -0.1843  0.4751
 5207SOL    HW116520   0.553   0.597   6.384  1.4227  0.5604 -0.0307
 5207SOL    HW216521   0.530   0.440   6.347 -0.5999  1.0724 -1.0913
 5208SOL     OW16522   2.598   3.192   6.950 -0.5128  0.1347  0.2265
 5208SOL    HW116523   2.669   3.210   7.019 -2.5284 -0.4002  2.5762
 5208SOL    HW216524   2.583   3.275   6.896  1.9331  0.2239 -0.4533
 5209SOL     OW16525   3.170   3.799   6.022 -0.5530 -0.3533 -0.3005
 5209SOL    HW116526   3.238   3.865   6.054 -1.9028  0.6269  0.6750
 5209SOL    HW216527   3.145   3.738   6.097 -0.1328 -1.2747 -0.8960
 5210SOL     OW16528   2.615   6.954   5.348 -0.3760 -0.2853 -0.1967
 5210SOL    HW116529   2.614   6.872   5.290  0.0703 -0.1384 -0.4161
 5210SOL    HW216530   2.627   7.035   5.291 -2.2277  0.0777 -0.1381
 5211SOL     OW16531   5.040   4.935   6.688  0.1840  0.7208 -0.1019
 5211SOL    HW116532   4.972   4.868   6.660  1.1132  0.3656 -1.5868
 5211SOL    HW216533   5.109   4.890   6.745  0.3294  0.6256 -0.3566
 5212SOL     OW16534   2.940   2.335   5.289 -0.6774  0.1427  0.2959
 5212SOL    HW116535   3.036   2.357   5.268  0.4705 -2.3288  2.4378
 5212SOL    HW216536   2.922   2.351   5.386 -3.2400  2.7775 -0.4461
 5213SOL     OW16537   4.243   0.283   6.340 -0.0720  0.2364  0.2657
 5213SOL    HW116538   4.246   0.281   6.440  1.7109 -1.6821  0.2600
 5213SOL    HW216539   4.333   0.310   6.305 -0.5867  0.5898 -0.8196
 5214SOL     OW16540   3.098   0.517   0.662  0.0780  0.2309  0.2182
 5214SOL    HW116541   3.092   0.617   0.657  0.2377  0.2380  0.1471
 5214SOL    HW216542   3.008   0.477   0.646  0.5426  0.2266 -3.2461
 5215SOL     OW16543   6.237   1.835   2.188 -0.7793 -0.5805  0.7302
 5215SOL    HW116544   6.287   1.919   2.210  1.6590 -2.1279  1.5253
 5215SOL    HW216545   6.255   1.811   2.092  1.6303 -2.0586  1.4695
 5216SOL     OW16546   2.490   2.530   2.653 -0.3930 -0.8046 -0.2775
 5216SOL    HW116547   2.546   2.448   2.634 -0.8894 -1.1215 -0.3891
 5216SOL    HW216548   2.451   2.564   2.567  0.8407  0.3214 -0.4326
 5217SOL     OW16549   6.644   1.790   0.290 -1.0007  0.1930  0.1320
 5217SOL    HW116550   6.572   1.743   0.239  0.3195 -1.1864 -0.5563
 5217SOL    HW216551   6.657   1.745   0.378 -0.3549 -0.1833 -0.1445
 5218SOL     OW16552   6.646   2.733   6.111 -0.0827 -0.4969 -0.0712
 5218SOL    HW116553   6.582   2.745   6.035 -0.1227  0.2553  0.0760
 5218SOL    HW216554   6.725   2.793   6.098 -0.4850  0.2568  0.9044
 5219SOL     OW16555   4.430   0.982   2.808 -0.4128 -0.1427 -0.2311
 5219SOL    HW116556   4.446   1.027   2.721  2.4689  1.1942  0.8689
 5219SOL    HW216557   4.508   0.924   2.831 -0.8923 -0.1368  1.6151
 5220SOL     OW16558   1.678   5.274   2.649 -0.4077  0.2271 -0.6536
 5220SOL    HW116559   1.607   5.284   2.719 -0.8724 -0.1546 -1.0639
 5220SOL    HW216560   1.691   5.177   2.628  0.3180  0.2847 -0.5024
 5221SOL     OW16561   0.817   3.069   3.130  0.0212  0.1853 -0.1619
 5221SOL    HW116562   0.767   2.983   3.121 -1.7891  1.2328 -0.8084
 5221SOL    HW216563   0.830   3.090   3.227 -2.8634  0.9174  0.1595
 5222SOL     OW16564   0.849   1.401   3.895 -0.6101 -0.1205 -0.2516
 5222SOL    HW116565   0.813   1.476   3.840 -2.9514 -0.4605  0.7300
 5222SOL    HW216566   0.937   1.428   3.935 -1.1105  1.8402 -0.4087
 5223SOL     OW16567   5.614   2.039   2.934 -0.3110  0.0741  0.0858
 5223SOL    HW116568   5.663   1.981   2.999  1.1111 -0.6973 -1.5741
 5223SOL    HW216569   5.658   2.129   2.930 -0.0149 -0.0797 -0.2205
 5224SOL     OW16570   2.754   5.650   6.361 -0.1373 -0.3732 -0.3127
 5224SOL    HW116571   2.767   5.574   6.297  0.0841 -0.3144 -0.3379
 5224SOL    HW216572   2.810   5.728   6.332 -0.9627  0.0843 -0.7473
 5225SOL     OW16573   0.598   1.919   2.403 -0.2946  0.6206 -0.3495
 5225SOL    HW116574   0.553   1.888   2.487 -1.2146 -1.5357 -1.5357
 5225SOL    HW216575   0.674   1.858   2.381 -1.5199 -0.3231 -2.2467
 5226SOL     OW16576   2.744   6.706   6.081  0.3711  0.1279  0.2224
 5226SOL    HW116577   2.730   6.734   5.986 -1.3800  0.0546  0.4195
 5226SOL    HW216578   2.737   6.786   6.141 -1.5587 -0.2286  0.5213
 5227SOL     OW16579   2.436   5.201   4.859 -0.0749 -0.2219  0.0208
 5227SOL    HW116580   2.383   5.117   4.846 -1.5034  0.6780 -0.2213
 5227SOL    HW216581   2.516   5.181   4.915  1.0913 -2.2776 -2.1896
 5228SOL     OW16582   6.289   2.874   4.593  0.1176 -0.4519 -0.4612
 5228SOL    HW116583   6.289   2.843   4.498  0.5912  0.0195 -0.6204
 5228SOL    HW216584   6.194   2.882   4.625 -0.0449 -0.6724 -0.8709
 5229SOL     OW16585   0.922   2.098   5.250 -0.2053 -0.3600 -0.4431
 5229SOL    HW116586   0.927   2.177   5.190  0.4515  0.8983  1.1790
 5229SOL    HW216587   0.983   2.112   5.329 -1.0821 -1.8924  0.5650
 5230SOL     OW16588   0.846   5.461   3.732 -0.1236 -0.6972  0.2418
 5230SOL    HW116589   0.919   5.499   3.789 -1.0928  1.4434  0.1680
 5230SOL    HW216590   0.770   5.431   3.790  0.0894 -1.3014  0.2178
 5231SOL     OW16591   2.327   4.244   3.060  0.5679  0.0930  0.1038
 5231SOL    HW116592   2.313   4.234   3.158 -0.8787  0.3656 -0.0499
 5231SOL    HW216593   2.358   4.337   3.040  0.0280  0.3083  0.2394
 5232SOL     OW16594   0.378   3.311   3.351 -1.1111 -0.3382  0.7792
 5232SOL    HW116595   0.385   3.365   3.267 -3.2287 -1.1336  0.0287
 5232SOL    HW216596   0.323   3.361   3.418 -0.9862 -0.5029  1.0040
 5233SOL     OW16597   5.659   4.672   4.408  0.3248 -0.1677 -0.2980
 5233SOL    HW116598   5.733   4.728   4.370  0.6661 -0.0970  0.4680
 5233SOL    HW216599   5.580   4.675   4.346  0.4307  0.9516 -0.3896
 5234SOL     OW16600   4.876   1.580   2.183 -0.0543  0.2754 -0.1183
 5234SOL    HW116601   4.956   1.540   2.228 -1.2875  0.4193  2.3631
 5234SOL    HW216602   4.882   1.679   2.188 -2.0350  0.3888  3.5807
 5235SOL     OW16603   4.120   6.746   6.887 -0.0755  0.5011 -0.1616
 5235SOL    HW116604   4.117   6.701   6.797 -0.5216 -0.3578  0.2714
 5235SOL    HW216605   4.056   6.823   6.887 -0.0310  0.5446 -0.5997
 5236SOL     OW16606   3.429   2.845   2.896  0.6400  0.0956 -0.3267
 5236SOL    HW116607   3.489   2.769   2.918  1.0924  0.3638 -0.6129
 5236SOL    HW216608   3.369   2.864   2.974  0.8888 -0.2110 -0.0576
 5237SOL     OW16609   4.830   3.532   6.482  0.1912  0.0609 -0.2825
 5237SOL    HW116610   4.811   3.616   6.431  0.8666  0.8382  0.7217
 5237SOL    HW216611   4.743   3.488   6.506 -0.2635  1.5546  0.9476
 5238SOL     OW16612   0.838   0.901   0.911  0.8184  0.1377 -0.5517
 5238SOL    HW116613   0.849   0.834   0.837  1.9453 -0.0578 -0.2240
 5238SOL    HW216614   0.768   0.868   0.975  1.0249 -0.5009 -0.6478
 5239SOL     OW16615   1.886   6.030   1.859 -0.1108 -0.6578  0.1417
 5239SOL    HW116616   1.808   5.968   1.855 -1.8922  1.5458 -1.6004
 5239SOL    HW216617   1.857   6.123   1.837  2.5493  0.7756  2.0629
 5240SOL     OW16618   0.159   3.390   0.065  0.6293  1.1489 -0.0352
 5240SOL    HW116619   0.209   3.468   0.103  2.0456  0.6921 -0.8628
 5240SOL    HW216620   0.061   3.409   0.067  0.7970  2.0851  1.6558
 5241SOL     OW16621   5.470   2.996   2.652  0.1439  0.1577  0.4430
 5241SOL    HW116622   5.555   2.949   2.626 -0.3689 -0.8649  0.5851
 5241SOL    HW216623   5.413   3.008   2.571  0.3143  0.6450  0.3891
 5242SOL     OW16624   5.625   1.954   1.512 -0.1875  0.2600 -0.1919
 5242SOL    HW116625   5.559   1.956   1.588  0.9400 -0.3021  0.8414
 5242SOL    HW216626   5.577   1.964   1.426 -1.4990  1.2077  0.6051
 5243SOL     OW16627   5.236   2.174   2.920 -0.1148  0.5172  0.5286
 5243SOL    HW116628   5.255   2.265   2.883 -0.7284  0.6908  0.6178
 5243SOL    HW216629   5.153   2.178   2.975 -0.5565 -0.2445 -0.0556
 5244SOL     OW16630   5.732   6.447   3.114 -0.3097 -0.0650  0.0031
 5244SOL    HW116631   5.818   6.474   3.158 -0.0430  0.5001 -0.8277
 5244SOL    HW216632   5.742   6.356   3.074 -0.3583 -0.3293  0.5886
 5245SOL     OW16633   1.491   4.715   1.793  0.4094 -0.0498 -0.2440
 5245SOL    HW116634   1.522   4.806   1.767  1.7104 -0.0524  1.1233
 5245SOL    HW216635   1.565   4.649   1.779 -0.0214 -0.6370  0.1504
 5246SOL     OW16636   1.121   1.226   5.409 -0.4964  0.3608 -0.6377
 5246SOL    HW116637   1.116   1.295   5.337 -1.4743 -1.5047 -2.4870
 5246SOL    HW216638   1.074   1.143   5.378  1.6460 -1.5752  0.9819
 5247SOL     OW16639   1.679   0.870   4.570 -0.2478 -0.1943 -0.0731
 5247SOL    HW116640   1.658   0.853   4.474  0.6580  2.3406 -0.8065
 5247SOL    HW216641   1.605   0.834   4.627 -0.4574 -2.4303 -1.5943
 5248SOL     OW16642   2.918   0.673   1.068  0.1951 -0.0264 -0.7107
 5248SOL    HW116643   2.937   0.742   0.998 -0.3536  0.4014 -0.4534
 5248SOL    HW216644   2.999   0.618   1.085  1.4481  2.1838  0.8793
 5249SOL     OW16645   1.419   3.232   3.129  0.1298  0.2755 -1.0123
 5249SOL    HW116646   1.321   3.230   3.109  0.2684  0.7434 -1.7860
 5249SOL    HW216647   1.458   3.318   3.095  0.7313  0.2962 -0.3084
 5250SOL     OW16648   4.464   0.649   0.457  0.6440 -0.5057  0.1544
 5250SOL    HW116649   4.523   0.723   0.488  0.8135 -1.1107  1.3376
 5250SOL    HW216650   4.404   0.620   0.532  1.9242 -2.8487  0.3683
 5251SOL     OW16651   0.588   2.791   0.601 -0.8130  0.3310 -0.0771
 5251SOL    HW116652   0.526   2.824   0.530 -1.6013  0.4833  0.6696
 5251SOL    HW216653   0.607   2.864   0.666  0.5062  0.4158 -0.5229
 5252SOL     OW16654   6.823   4.603   0.769  0.0677 -0.5193 -0.0564
 5252SOL    HW116655   6.759   4.530   0.743 -0.0898 -0.1550 -0.7084
 5252SOL    HW216656   6.785   4.653   0.847  0.3727 -1.3898  0.6670
 5253SOL     OW16657   4.214   2.362   5.583 -0.0985  0.0619 -0.1814
 5253SOL    HW116658   4.198   2.274   5.628  2.5403 -1.0381 -1.1798
 5253SOL    HW216659   4.137   2.383   5.522 -0.9525 -1.3231  0.3684
 5254SOL     OW16660   2.144   5.326   1.421 -0.1940  0.2486  0.0901
 5254SOL    HW116661   2.226   5.268   1.414 -0.2673  0.1922 -0.3007
 5254SOL    HW216662   2.142   5.368   1.512  0.9583  1.2626 -0.3185
 5255SOL     OW16663   1.181   2.610   3.609  0.5499 -0.1440 -0.3343
 5255SOL    HW116664   1.236   2.690   3.584  0.8879 -0.3923 -0.3773
 5255SOL    HW216665   1.128   2.580   3.530  1.7404 -1.0280 -0.8205
 5256SOL     OW16666   3.751   2.436   6.457 -0.1615  0.2775  0.2735
 5256SOL    HW116667   3.716   2.510   6.514 -1.7907  0.0498 -0.3916
 5256SOL    HW216668   3.773   2.471   6.366 -1.6570 -0.1489 -0.2885
 5257SOL     OW16669   1.478   3.768   0.140 -0.0154  0.2697 -0.9188
 5257SOL    HW116670   1.476   3.755   0.239 -2.2139  1.0649 -0.7909
 5257SOL    HW216671   1.447   3.861   0.118  1.6894  0.5599 -2.3367
 5258SOL     OW16672   6.158   6.152   4.066 -0.5666 -0.2404  0.4522
 5258SOL    HW116673   6.069   6.109   4.082 -0.6709 -0.4756 -0.6608
 5258SOL    HW216674   6.230   6.083   4.068 -0.4333 -0.0948  1.0426
 5259SOL     OW16675   1.757   2.515   6.045 -0.4106 -0.2446  0.1201
 5259SOL    HW116676   1.822   2.451   6.004  0.0357 -0.9342  1.8212
 5259SOL    HW216677   1.665   2.476   6.041 -0.4857 -0.0165 -0.7535
 5260SOL     OW16678   0.837   2.683   6.978 -0.3575 -0.2149 -1.1728
 5260SOL    HW116679   0.771   2.724   6.915  0.4184  0.9708 -1.2394
 5260SOL    HW216680   0.798   2.681   7.070 -0.1895  1.3019 -1.0374
 5261SOL     OW16681   0.758   3.800   2.943 -0.2854 -0.0226 -0.2437
 5261SOL    HW116682   0.784   3.733   3.013 -0.4535  0.3610  0.1945
 5261SOL    HW216683   0.823   3.876   2.945  0.4179 -0.5623 -1.3237
 5262SOL     OW16684   2.782   0.911   6.167  0.2837 -0.0579  0.0879
 5262SOL    HW116685   2.823   1.002   6.158 -1.0988  0.5432 -0.2679
 5262SOL    HW216686   2.768   0.890   6.264 -0.5433  0.6367  0.1235
 5263SOL     OW16687   5.779   3.736   3.678 -0.2666  0.3445 -0.4778
 5263SOL    HW116688   5.696   3.754   3.730 -0.9336 -0.1333 -1.3466
 5263SOL    HW216689   5.774   3.784   3.590 -0.6835 -1.4729 -1.5091
 5264SOL     OW16690   5.648   5.380   2.317 -0.6882 -0.4422  0.3602
 5264SOL    HW116691   5.642   5.465   2.369  0.5864 -0.4630  0.5781
 5264SOL    HW216692   5.707   5.316   2.366 -1.8324 -1.5622  0.3305
 5265SOL     OW16693   4.692   2.692   2.877 -0.1167  0.1491 -0.6063
 5265SOL    HW116694   4.686   2.708   2.975  0.0459  0.1591 -0.5973
 5265SOL    HW216695   4.739   2.770   2.834  0.7023 -0.3099 -0.5624
 5266SOL     OW16696   6.763   1.554   3.036  0.8178 -0.4892  0.4592
 5266SOL    HW116697   6.710   1.555   2.951  0.7709 -0.9678  0.4798
 5266SOL    HW216698   6.803   1.644   3.051  0.1369 -0.1605  0.3620
 5267SOL     OW16699   4.497   2.167   3.731 -0.0913 -0.0235  0.4855
 5267SOL    HW116700   4.591   2.146   3.706 -0.5241  0.3923 -1.7278
 5267SOL    HW216701   4.488   2.264   3.753 -0.3249  0.4398 -1.4110
 5268SOL     OW16702   0.877   5.134   4.173  0.1403  0.3410 -0.1280
 5268SOL    HW116703   0.869   5.122   4.272 -0.9313  1.9111  0.0116
 5268SOL    HW216704   0.805   5.081   4.127  2.0543 -2.3126 -0.2921
 5269SOL     OW16705   5.383   4.023   1.309  0.4038 -0.3910  0.4692
 5269SOL    HW116706   5.313   3.967   1.354 -2.0742  1.0287 -1.3762
 5269SOL    HW216707   5.412   4.096   1.371 -0.9223 -0.0780  0.7456
 5270SOL     OW16708   5.177   5.870   6.415 -0.0015 -0.0357  0.7374
 5270SOL    HW116709   5.200   5.798   6.351 -1.3456 -0.2863  0.5120
 5270SOL    HW216710   5.257   5.892   6.471  0.5985 -1.2421  0.3738
 5271SOL     OW16711   6.003   5.966   0.167 -0.4615 -0.3037 -0.1017
 5271SOL    HW116712   6.064   5.922   0.102 -1.0698  0.7140 -1.4158
 5271SOL    HW216713   5.934   5.900   0.198  0.2673 -0.9912  0.0818
 5272SOL     OW16714   3.120   1.266   1.757  0.0414  0.2050 -0.4832
 5272SOL    HW116715   3.111   1.357   1.717  2.6182  0.7312 -0.0411
 5272SOL    HW216716   3.057   1.258   1.835  0.7166  2.1376  0.3319
 5273SOL     OW16717   2.894   0.892   2.245  0.6090  0.4213 -0.0818
 5273SOL    HW116718   2.877   0.853   2.336  0.7811 -2.1904 -1.0844
 5273SOL    HW216719   2.821   0.956   2.222 -2.4849 -2.8317 -0.1833
 5274SOL     OW16720   0.195   0.460   5.040  0.2880  0.2400 -0.1120
 5274SOL    HW116721   0.217   0.487   5.133  2.4793  0.2987 -0.5928
 5274SOL    HW216722   0.155   0.369   5.040 -0.0207  0.3649  0.8974
 5275SOL     OW16723   0.813   4.773   3.534  0.1944  1.1610 -0.3092
 5275SOL    HW116724   0.745   4.829   3.581 -1.1194 -0.1606 -0.5492
 5275SOL    HW216725   0.868   4.831   3.474 -1.7232  2.1000 -1.2634
 5276SOL     OW16726   6.635   2.989   5.411 -0.3624 -0.2648  0.3322
 5276SOL    HW116727   6.562   3.054   5.431 -0.4402  0.1711 -1.2129
 5276SOL    HW216728   6.597   2.910   5.363 -0.0100 -0.6654  0.7040
 5277SOL     OW16729   2.367   1.056   2.456  0.1759 -0.2664  0.7045
 5277SOL    HW116730   2.350   1.124   2.528  0.0811 -0.2226  0.6408
 5277SOL    HW216731   2.465   1.048   2.440  0.1629  0.2498  0.3345
 5278SOL     OW16732   0.829   4.205   5.276  0.5556 -0.0642 -0.3159
 5278SOL    HW116733   0.821   4.124   5.219 -0.2148  0.2953 -0.7333
 5278SOL    HW216734   0.739   4.232   5.309  0.9980 -0.3531  1.2224
 5279SOL     OW16735   0.469   2.503   5.439 -0.5611 -0.3669 -0.4051
 5279SOL    HW116736   0.568   2.500   5.428  0.0434  4.1652  1.3919
 5279SOL    HW216737   0.441   2.435   5.506  1.5928 -0.7139  0.2303
 5280SOL     OW16738   1.215   2.912   2.250  0.5488  0.0630  0.4581
 5280SOL    HW116739   1.191   2.815   2.241  0.1381  0.2796 -1.1510
 5280SOL    HW216740   1.313   2.924   2.234  0.3606  0.0495 -0.8693
 5281SOL     OW16741   1.496   2.203   1.762  0.0606 -0.3936 -0.0173
 5281SOL    HW116742   1.398   2.195   1.778 -0.0920 -1.1439 -1.1350
 5281SOL    HW216743   1.546   2.181   1.845 -0.7238  1.0947  0.8816
 5282SOL     OW16744   5.223   0.484   0.832  0.1006 -0.5442 -0.0376
 5282SOL    HW116745   5.311   0.437   0.835 -0.3828 -1.5779 -1.3459
 5282SOL    HW216746   5.186   0.490   0.925  0.7122 -1.7266  0.3054
 5283SOL     OW16747   0.500   1.646   0.272  0.6068 -0.1289 -0.8008
 5283SOL    HW116748   0.583   1.598   0.302  0.6916  0.3900 -0.1744
 5283SOL    HW216749   0.458   1.596   0.197  2.5637  0.6365 -2.4909
 5284SOL     OW16750   2.112   4.519   2.183 -0.6567 -0.7622  0.4142
 5284SOL    HW116751   2.176   4.595   2.183 -2.4902  0.9641  3.1214
 5284SOL    HW216752   2.162   4.432   2.187  1.4958  0.4622  1.8000
 5285SOL     OW16753   6.576   3.709   4.156  0.4450 -0.0290 -0.1850
 5285SOL    HW116754   6.537   3.800   4.172  2.0842  1.2635 -2.7372
 5285SOL    HW216755   6.584   3.694   4.057  1.3592 -2.4646  0.2031
 5286SOL     OW16756   6.326   4.871   5.336  0.7215 -0.1807  0.3986
 5286SOL    HW116757   6.366   4.779   5.339  1.7124  0.2739  1.5393
 5286SOL    HW216758   6.277   4.882   5.250  2.2589 -1.0847 -0.6388
 5287SOL     OW16759   3.876   6.351   3.899  0.3658 -0.3705  0.2964
 5287SOL    HW116760   3.798   6.344   3.838  0.1355 -0.1589  0.5608
 5287SOL    HW216761   3.869   6.281   3.970  0.3859 -0.3156  0.3529
 5288SOL     OW16762   4.376   2.764   1.564 -0.3806 -0.2990 -0.3586
 5288SOL    HW116763   4.431   2.771   1.647 -0.0925  0.2740 -0.5877
 5288SOL    HW216764   4.337   2.854   1.543 -1.7697 -0.7977  0.0439
 5289SOL     OW16765   3.835   5.889   1.155  0.6829 -0.4662  0.3415
 5289SOL    HW116766   3.888   5.946   1.217 -0.0817 -0.0468  0.6268
 5289SOL    HW216767   3.774   5.830   1.208 -1.1261  1.0098  0.0016
 5290SOL     OW16768   6.296   1.997   0.519 -0.7012 -0.1006 -0.3561
 5290SOL    HW116769   6.290   2.049   0.434 -0.0083  2.5258  1.0626
 5290SOL    HW216770   6.213   1.942   0.531 -2.4896  2.2695 -1.0591
 5291SOL     OW16771   3.149   6.023   4.797 -0.2268  0.0113  0.0453
 5291SOL    HW116772   3.140   6.007   4.895  2.0928  1.6513  0.6244
 5291SOL    HW216773   3.093   5.957   4.747  0.4464 -2.5440  2.3884
 5292SOL     OW16774   1.609   4.102   3.964  0.1661  0.2995  0.0238
 5292SOL    HW116775   1.684   4.062   3.912  2.1054  2.2726  1.1165
 5292SOL    HW216776   1.577   4.185   3.918  0.4872  0.9054  0.8479
 5293SOL     OW16777   2.623   5.713   5.420  0.3428  0.3956  0.5349
 5293SOL    HW116778   2.609   5.703   5.322 -1.4870 -1.7693  0.9384
 5293SOL    HW216779   2.546   5.762   5.460 -1.1045 -2.3416  1.3659
 5294SOL     OW16780   0.369   0.594   2.836 -0.5100  0.0703  0.3384
 5294SOL    HW116781   0.453   0.545   2.812  0.3242  1.3788  0.4962
 5294SOL    HW216782   0.327   0.630   2.752 -1.8058 -1.9221  0.0795
 5295SOL     OW16783   6.105   5.717   2.082  0.3646  0.1489 -0.2490
 5295SOL    HW116784   6.043   5.713   2.004  1.2443 -0.6538 -0.9255
 5295SOL    HW216785   6.150   5.806   2.085 -0.0474  0.3657 -0.3417
 5296SOL     OW16786   3.696   5.229   2.651  0.0876  0.3560  0.1561
 5296SOL    HW116787   3.762   5.257   2.581  0.6086 -3.5635 -1.1550
 5296SOL    HW216788   3.736   5.158   2.708 -1.8841  0.2764  1.5339
 5297SOL     OW16789   4.110   5.907   5.256 -0.2046 -0.2347 -0.5796
 5297SOL    HW116790   4.129   5.839   5.185  0.0422 -0.9710  0.1725
 5297SOL    HW216791   4.105   5.998   5.215  0.8779 -0.5293 -1.3986
 5298SOL     OW16792   5.605   0.905   2.587 -0.0110  0.0551  0.1875
 5298SOL    HW116793   5.582   0.819   2.632  1.5484 -0.1947  0.5819
 5298SOL    HW216794   5.564   0.981   2.637 -1.0961 -0.4186  0.0447
 5299SOL     OW16795   6.494   0.713   3.397  0.7234 -0.6844  0.2311
 5299SOL    HW116796   6.567   0.679   3.456  0.2271 -0.2122  1.1398
 5299SOL    HW216797   6.408   0.666   3.419  0.0344  1.0517  1.4688
 5300SOL     OW16798   1.406   6.145   1.016 -0.0090 -0.0433 -0.1608
 5300SOL    HW116799   1.500   6.172   1.033  0.3547 -1.5183  0.3940
 5300SOL    HW216800   1.392   6.130   0.918 -0.0543  1.4575 -0.3960
 5301SOL     OW16801   2.324   3.905   6.396  0.1323 -0.0493  0.2632
 5301SOL    HW116802   2.282   3.832   6.342  1.1827 -2.4417  2.5053
 5301SOL    HW216803   2.424   3.898   6.390  0.2489  0.8211  1.0072
 5302SOL     OW16804   5.117   3.043   4.347  0.0099 -0.1960 -0.3801
 5302SOL    HW116805   5.099   2.954   4.305 -3.1928  1.3468 -2.7489
 5302SOL    HW216806   5.186   3.091   4.294 -2.1512  0.7121 -2.5743
 5303SOL     OW16807   3.508   2.770   1.961 -0.3891  0.5068 -0.1351
 5303SOL    HW116808   3.581   2.832   1.986  1.9392 -1.0263 -2.5503
 5303SOL    HW216809   3.516   2.685   2.013  0.7415 -0.3548 -1.6445
 5304SOL     OW16810   3.010   2.134   1.998  0.5514  0.4735 -0.2021
 5304SOL    HW116811   2.963   2.218   2.025  1.0905  0.9500 -0.7171
 5304SOL    HW216812   3.077   2.110   2.068  2.8659  2.4175 -1.5824
 5305SOL     OW16813   2.186   5.050   2.807  0.3535 -0.1974  0.4400
 5305SOL    HW116814   2.128   5.000   2.743  2.1326 -0.0585 -1.3639
 5305SOL    HW216815   2.213   4.989   2.881 -0.2549 -0.8951  0.1040
 5306SOL     OW16816   2.147   6.802   6.606  0.0504  0.7327 -0.2757
 5306SOL    HW116817   2.162   6.783   6.509  0.5741  1.5322 -0.3596
 5306SOL    HW216818   2.049   6.803   6.624 -0.0463  0.3491 -0.7492
 5307SOL     OW16819   5.910   0.897   6.394  0.6100  0.4035 -0.4515
 5307SOL    HW116820   5.915   0.967   6.466 -2.7041 -0.7584  1.1173
 5307SOL    HW216821   5.980   0.828   6.409  1.2997  1.2594  0.3915
 5308SOL     OW16822   1.906   0.515   2.699  0.1218  0.1847 -0.1720
 5308SOL    HW116823   1.911   0.529   2.600 -0.9797  0.7594 -0.1674
 5308SOL    HW216824   1.854   0.432   2.719 -1.8654  1.3901 -0.0718
 5309SOL     OW16825   4.351   6.816   6.588 -0.8567 -0.0432 -0.1432
 5309SOL    HW116826   4.302   6.900   6.614 -1.6040 -0.4544 -0.2065
 5309SOL    HW216827   4.292   6.737   6.605  0.6804 -0.7795  2.1770
 5310SOL     OW16828   6.967   5.897   6.520 -0.6696 -0.2272  0.4597
 5310SOL    HW116829   6.962   5.827   6.591 -0.6421  0.5020  1.1923
 5310SOL    HW216830   6.882   5.895   6.467 -0.9025 -0.4490  0.8270
 5311SOL     OW16831   3.087   5.755   0.831  0.0013  0.5783  0.7003
 5311SOL    HW116832   3.043   5.845   0.833  0.5927  0.9610 -1.3470
 5311SOL    HW216833   3.021   5.686   0.801  0.1249  0.7221  0.0879
 5312SOL     OW16834   1.583   1.649   1.251  0.6407  0.3204  0.2960
 5312SOL    HW116835   1.653   1.601   1.303  2.0002  1.8934 -0.0024
 5312SOL    HW216836   1.509   1.676   1.312  0.9851 -0.0969  0.9083
 5313SOL     OW16837   2.916   5.513   1.611 -0.1930  0.2142 -0.9827
 5313SOL    HW116838   2.881   5.568   1.688 -0.3783  0.5854 -1.3289
 5313SOL    HW216839   2.847   5.447   1.583  0.6607 -1.4472  0.5850
 5314SOL     OW16840   4.589   4.330   0.190  0.1427 -0.1051 -0.1489
 5314SOL    HW116841   4.565   4.314   0.286 -1.1288 -2.3986 -0.7672
 5314SOL    HW216842   4.506   4.351   0.138  0.4799 -1.0022 -1.0913
 5315SOL     OW16843   3.536   5.830   3.487  0.3342  0.2318  0.1539
 5315SOL    HW116844   3.520   5.862   3.580 -0.6580 -0.3628  0.2049
 5315SOL    HW216845   3.495   5.894   3.422  1.5080  0.9389  0.0850
 5316SOL     OW16846   2.461   4.577   2.497 -0.1169 -0.5245  0.4989
 5316SOL    HW116847   2.400   4.556   2.574  1.0133  0.0533  1.5869
 5316SOL    HW216848   2.433   4.524   2.417 -2.3554  0.1236  0.8030
 5317SOL     OW16849   6.031   5.703   1.384  0.1007 -0.3585 -0.2628
 5317SOL    HW116850   5.999   5.717   1.290 -0.5754 -0.3168 -0.0359
 5317SOL    HW216851   6.108   5.640   1.384  3.5865  3.4688 -1.3887
 5318SOL     OW16852   0.232   6.546   4.203 -0.0865 -0.0496  0.1982
 5318SOL    HW116853   0.194   6.457   4.229 -0.8229  0.3579  0.5522
 5318SOL    HW216854   0.227   6.556   4.103 -1.3255  0.1640  0.2641
 5319SOL     OW16855   5.957   5.520   6.735 -0.1042 -0.3495  0.1427
 5319SOL    HW116856   6.053   5.535   6.713 -0.3637  0.1116 -0.7173
 5319SOL    HW216857   5.948   5.440   6.794  0.9538  0.5561  1.5973
 5320SOL     OW16858   0.227   4.302   6.684  0.0816 -0.0850  0.0105
 5320SOL    HW116859   0.143   4.283   6.734 -0.9104 -0.7484 -1.7994
 5320SOL    HW216860   0.218   4.389   6.636  0.1651 -0.4465 -0.6774
 5321SOL     OW16861   6.708   1.092   3.398  0.1733  0.0799 -0.9500
 5321SOL    HW116862   6.743   1.182   3.425  0.6531  0.4256 -2.6018
 5321SOL    HW216863   6.785   1.032   3.377 -0.1576  0.0530 -2.1682
 5322SOL     OW16864   5.971   1.884   3.003  0.2113  0.3271 -0.1585
 5322SOL    HW116865   6.044   1.836   3.050  0.6956  0.9628 -0.2458
 5322SOL    HW216866   5.882   1.847   3.031  0.5839 -0.8527 -0.5084
 5323SOL     OW16867   0.594   5.884   4.977  0.1468 -0.5672 -0.7462
 5323SOL    HW116868   0.543   5.967   4.955  0.3400 -0.7886 -2.1030
 5323SOL    HW216869   0.654   5.901   5.055 -0.9593  0.0984 -0.0202
 5324SOL     OW16870   0.065   2.065   4.835 -0.5551 -0.1684  0.6564
 5324SOL    HW116871  -0.008   2.061   4.767 -0.9184 -1.2764  1.0874
 5324SOL    HW216872   0.109   1.975   4.842 -0.8366 -0.2177  2.2045
 5325SOL     OW16873   1.087   5.072   1.572 -0.1700  0.1304 -0.1455
 5325SOL    HW116874   1.005   5.052   1.626 -1.1498 -1.6086 -2.1188
 5325SOL    HW216875   1.093   5.170   1.553 -1.9984  0.2373 -0.2629
 5326SOL     OW16876   2.272   4.500   1.054 -0.3805  0.7027 -0.2634
 5326SOL    HW116877   2.294   4.589   1.014  1.3202  0.3840 -0.1179
 5326SOL    HW216878   2.248   4.513   1.151 -1.0513  1.0917 -0.4755
 5327SOL     OW16879   2.944   1.154   1.390 -0.3879 -0.7167  0.3182
 5327SOL    HW116880   2.882   1.225   1.423 -0.0296 -0.9686  1.6074
 5327SOL    HW216881   2.913   1.065   1.422 -0.2129 -1.0253 -0.3471
 5328SOL     OW16882   4.205   6.569   4.702 -0.0949  0.2513  0.5356
 5328SOL    HW116883   4.196   6.547   4.605  0.0195  1.1678  0.3097
 5328SOL    HW216884   4.149   6.649   4.724  0.4878  0.5271  1.0538
 5329SOL     OW16885   1.568   2.150   4.196 -0.0467  0.6418  0.4380
 5329SOL    HW116886   1.542   2.238   4.156 -2.0016  0.2610  0.7633
 5329SOL    HW216887   1.542   2.076   4.134 -1.7476  0.1372  1.6549
 5330SOL     OW16888   5.747   5.414   5.621  0.6207  0.0801 -0.4338
 5330SOL    HW116889   5.731   5.337   5.683 -0.1229  1.3474  1.0412
 5330SOL    HW216890   5.753   5.499   5.675  2.2633  0.9754 -1.9073
 5331SOL     OW16891   6.518   6.815   3.134  0.0653  0.1710 -0.4847
 5331SOL    HW116892   6.540   6.781   3.226  1.0289  1.2446 -0.2969
 5331SOL    HW216893   6.595   6.797   3.073 -0.3604 -0.0646 -0.9569
 5332SOL     OW16894   1.586   4.458   3.297  0.0949 -0.1421  0.1455
 5332SOL    HW116895   1.653   4.531   3.286 -2.2047  2.2213  0.7459
 5332SOL    HW216896   1.514   4.469   3.228  1.1679 -3.7918 -1.8011
 5333SOL     OW16897   5.366   0.786   4.703  0.9586  0.1669 -0.6627
 5333SOL    HW116898   5.374   0.812   4.800  2.3941  0.2118 -0.7650
 5333SOL    HW216899   5.273   0.803   4.672  0.4392  0.0723  0.7319
 5334SOL     OW16900   5.875   5.865   6.115 -0.2018  0.2663  0.4663
 5334SOL    HW116901   5.801   5.810   6.155 -0.3905  1.0752  1.2549
 5334SOL    HW216902   5.893   5.834   6.022 -1.5287  0.0460  0.2667
 5335SOL     OW16903   2.330   5.081   5.244 -0.4576 -0.3348 -0.2263
 5335SOL    HW116904   2.332   5.003   5.182 -0.3706 -0.2087 -0.3852
 5335SOL    HW216905   2.242   5.129   5.234 -0.1866  0.0731 -0.7462
 5336SOL     OW16906   6.354   4.681   6.412  0.5948 -0.2392 -0.3681
 5336SOL    HW116907   6.333   4.727   6.498  1.2334  1.6733 -1.1827
 5336SOL    HW216908   6.453   4.675   6.400  0.5143 -0.1878 -1.1115
 5337SOL     OW16909   7.005   3.591   1.730 -0.5252  0.1299  0.0576
 5337SOL    HW116910   7.006   3.517   1.798  0.8363 -0.4260 -0.5200
 5337SOL    HW216911   7.031   3.555   1.641  0.1476  1.2903 -0.2446
 5338SOL     OW16912   4.892   0.081   6.194  0.5182 -0.2473 -0.8104
 5338SOL    HW116913   4.882  -0.018   6.205  0.4600 -0.0491  1.3586
 5338SOL    HW216914   4.981   0.110   6.228  1.2405  0.2946 -2.9868
 5339SOL     OW16915   6.142   0.071   4.353 -0.1485  0.4019 -0.2533
 5339SOL    HW116916   6.179   0.098   4.265 -0.8046 -0.5565 -0.8472
 5339SOL    HW216917   6.217   0.059   4.419  0.3317  1.2424 -0.6398
 5340SOL     OW16918   5.578   3.900   3.476 -0.2314  1.0325  0.3964
 5340SOL    HW116919   5.640   3.972   3.506 -0.6588  0.8672  1.7321
 5340SOL    HW216920   5.499   3.941   3.431  0.8339  1.2434 -1.4320
 5341SOL     OW16921   2.555   3.136   0.488  0.0519  0.2397 -0.1792
 5341SOL    HW116922   2.505   3.083   0.420  0.4651 -1.1050  0.5275
 5341SOL    HW216923   2.514   3.227   0.495 -2.8553 -1.0216  0.9319
 5342SOL     OW16924   5.287   0.898   6.870  0.1595  0.2704  0.2560
 5342SOL    HW116925   5.265   0.871   6.964  0.3193  0.6324  0.3990
 5342SOL    HW216926   5.303   0.996   6.867  0.3198  0.2329 -0.1215
 5343SOL     OW16927   4.882   1.139   2.827  0.5087 -0.1396 -0.0953
 5343SOL    HW116928   4.792   1.144   2.784  0.8265 -0.1294 -0.7712
 5343SOL    HW216929   4.875   1.090   2.915 -0.1006 -0.3858 -0.2785
 5344SOL     OW16930   6.629   4.851   4.296  0.4783 -0.1142  0.0783
 5344SOL    HW116931   6.719   4.811   4.313  1.1444  1.4905  0.5105
 5344SOL    HW216932   6.590   4.883   4.383  0.0860  0.4083 -0.2874
 5345SOL     OW16933   3.126   4.265   0.765 -0.1433 -0.6110 -0.1317
 5345SOL    HW116934   3.080   4.321   0.696  0.3475  0.1338  0.1279
 5345SOL    HW216935   3.113   4.307   0.855  1.3842 -0.1401 -0.1002
 5346SOL     OW16936   1.146   5.364   1.628  0.0816  0.0262 -0.1549
 5346SOL    HW116937   1.047   5.373   1.627  0.2288  1.9150 -0.7148
 5346SOL    HW216938   1.189   5.454   1.623  1.8601 -0.3492  4.0379
 5347SOL     OW16939   1.075   2.543   2.246  0.6754  0.2236 -0.0997
 5347SOL    HW116940   1.092   2.552   2.344  1.3401  0.7897 -0.2596
 5347SOL    HW216941   1.035   2.627   2.211 -0.9535 -0.4985 -0.0531
 5348SOL     OW16942   1.185   2.519   4.762  0.3665  0.1499 -0.0144
 5348SOL    HW116943   1.233   2.605   4.742  0.4375  0.2098  0.3945
 5348SOL    HW216944   1.249   2.455   4.806  0.1772  0.0789  0.1553
 5349SOL     OW16945   6.299   3.590   5.267  0.6868  0.3511 -0.1579
 5349SOL    HW116946   6.345   3.554   5.349 -0.4073 -0.3866  0.1448
 5349SOL    HW216947   6.305   3.523   5.193 -0.2648  0.0664  0.0173
 5350SOL     OW16948   0.818   1.268   1.505 -0.0443 -0.0598  0.2598
 5350SOL    HW116949   0.792   1.174   1.483 -2.5534  0.0422  2.3744
 5350SOL    HW216950   0.835   1.275   1.604 -1.8162  2.0581  0.4730
 5351SOL     OW16951   2.242   4.237   3.337 -0.5625 -0.2462  0.1776
 5351SOL    HW116952   2.286   4.324   3.316  0.2283 -0.7227 -0.1870
 5351SOL    HW216953   2.257   4.214   3.433  0.6582 -0.7603 -0.1124
 5352SOL     OW16954   0.633   0.609   0.119 -0.6310 -0.1436  0.1132
 5352SOL    HW116955   0.659   0.701   0.092  1.4041 -0.9017 -0.6819
 5352SOL    HW216956   0.537   0.609   0.148 -0.4111  2.3849  1.0939
 5353SOL     OW16957   0.911   6.813   0.566 -0.5339 -0.8699  0.0217
 5353SOL    HW116958   0.940   6.898   0.611 -1.4802 -0.0080 -0.9579
 5353SOL    HW216959   0.819   6.788   0.597 -1.0503 -0.4651 -1.1244
 5354SOL     OW16960   2.347   1.023   6.558 -0.2644  0.0947 -0.0893
 5354SOL    HW116961   2.314   0.930   6.570 -0.9774  0.5722  2.1253
 5354SOL    HW216962   2.280   1.088   6.595 -0.1340  1.5786 -2.2437
 5355SOL     OW16963   2.172   5.545   5.962  0.3726  0.4076 -0.0315
 5355SOL    HW116964   2.202   5.636   5.934 -1.0341  0.7845 -0.4041
 5355SOL    HW216965   2.178   5.536   6.061  0.1454  1.0665  0.0457
 5356SOL     OW16966   5.273   4.508   5.225 -0.2556  0.1141 -0.2275
 5356SOL    HW116967   5.253   4.588   5.282  1.1946  0.7497 -0.5701
 5356SOL    HW216968   5.308   4.434   5.282  2.4222  1.1794 -0.3638
 5357SOL     OW16969   4.554   2.746   1.781 -0.0034 -0.1309  0.0348
 5357SOL    HW116970   4.523   2.672   1.840  3.2157 -1.7536 -0.1061
 5357SOL    HW216971   4.538   2.834   1.828  1.0616 -1.2491  2.6943
 5358SOL     OW16972   4.321   6.595   4.180 -0.3122  0.4298  0.4107
 5358SOL    HW116973   4.406   6.644   4.198 -0.2602  0.2145  0.7529
 5358SOL    HW216974   4.303   6.530   4.254 -0.5665  0.1888  0.1414
 5359SOL     OW16975   6.445   5.581   6.239  0.4926 -0.0018 -0.2668
 5359SOL    HW116976   6.393   5.549   6.160 -1.4841  0.3840  0.7990
 5359SOL    HW216977   6.541   5.589   6.215 -0.2685  1.9451 -3.2395
 5360SOL     OW16978   4.847   2.481   3.464  0.9064  0.2505 -1.2276
 5360SOL    HW116979   4.763   2.529   3.439 -0.1902 -0.5340  0.6693
 5360SOL    HW216980   4.855   2.396   3.412  0.3034  0.1436 -1.1488
 5361SOL     OW16981   6.997   6.002   5.166  0.2871 -0.1166 -0.3730
 5361SOL    HW116982   7.083   5.971   5.125  0.0097 -1.8808  0.3224
 5361SOL    HW216983   6.992   6.102   5.159  1.5070 -0.1187 -2.1095
 5362SOL     OW16984   5.166   6.763   1.100 -0.0202  0.0265 -0.0119
 5362SOL    HW116985   5.174   6.749   1.198 -0.6633  0.7307  0.1519
 5362SOL    HW216986   5.069   6.759   1.074  0.1956 -0.8608 -0.7308
 5363SOL     OW16987   3.124   1.208   6.657 -0.3547 -0.0494 -0.0613
 5363SOL    HW116988   3.133   1.247   6.748 -1.0647  1.2929 -0.5291
 5363SOL    HW216989   3.066   1.268   6.601  0.7455 -0.4014 -1.6478
 5364SOL     OW16990   2.553   4.473   0.460 -0.1328 -0.0541 -0.2534
 5364SOL    HW116991   2.605   4.555   0.440  0.7857 -0.0637  1.7819
 5364SOL    HW216992   2.564   4.450   0.557 -1.8685 -1.5285 -0.3511
 5365SOL     OW16993   2.876   6.993   6.866  0.3849 -0.1507 -0.5331
 5365SOL    HW116994   2.808   6.954   6.805  0.8016 -0.0337 -1.0781
 5365SOL    HW216995   2.936   7.055   6.815  1.6225 -1.1220 -0.3126
 5366SOL     OW16996   6.096   5.004   1.433 -0.7786 -0.3643 -0.3363
 5366SOL    HW116997   6.020   5.043   1.381 -0.4499  1.1173  0.2197
 5366SOL    HW216998   6.065   4.983   1.526 -0.9044 -1.2939 -0.5795
 5367SOL     OW16999   1.847   6.578   1.111  0.1156  0.4893 -0.0819
 5367SOL    HW117000   1.772   6.592   1.046 -0.5809 -0.5273  0.4786
 5367SOL    HW217001   1.934   6.586   1.063 -0.3749  0.3894 -1.0114
 5368SOL     OW17002   3.975   1.267   5.050  0.1371 -0.4037 -0.0058
 5368SOL    HW117003   4.024   1.294   4.967 -0.4705  0.1361 -0.1972
 5368SOL    HW217004   3.970   1.168   5.055  1.3899 -0.4792  0.1039
 5369SOL     OW17005   5.455   0.167   5.194  0.1302  0.0022 -0.4226
 5369SOL    HW117006   5.517   0.245   5.192 -0.3511  0.3770 -1.0507
 5369SOL    HW217007   5.507   0.083   5.178  0.5015  0.2978 -0.7976
 5370SOL     OW17008   0.698   0.657   3.502  0.4389 -0.0123 -0.2388
 5370SOL    HW117009   0.761   0.706   3.563  0.4400 -1.0832  0.6474
 5370SOL    HW217010   0.720   0.680   3.407  1.6739  0.2253  0.0783
 5371SOL     OW17011   4.845   5.051   0.235  0.2563 -0.1317  0.3108
 5371SOL    HW117012   4.758   5.095   0.217  1.2229  0.7655 -2.7702
 5371SOL    HW217013   4.835   4.952   0.229 -0.3378  0.0075 -1.3384
 5372SOL     OW17014   4.709   4.399   2.184 -0.0927 -0.2243  0.0496
 5372SOL    HW117015   4.806   4.383   2.166 -0.4393  0.6518 -3.0535
 5372SOL    HW217016   4.654   4.336   2.130 -1.3072 -0.4041  1.4297
 5373SOL     OW17017   5.902   5.744   1.888 -0.2811 -0.8363 -0.8592
 5373SOL    HW117018   5.951   5.707   1.809 -0.9767  0.0827 -1.7468
 5373SOL    HW217019   5.829   5.804   1.857 -0.7273 -0.6437  0.4903
 5374SOL     OW17020   2.467   1.827   2.014 -0.7530  1.1786 -0.2988
 5374SOL    HW117021   2.373   1.813   2.047 -0.6453 -0.0098 -0.4430
 5374SOL    HW217022   2.531   1.821   2.091 -0.8580  3.0414 -0.0312
 5375SOL     OW17023   3.464   1.318   6.755  0.3643 -0.0307 -0.2120
 5375SOL    HW117024   3.390   1.306   6.689 -0.0699 -0.7270  0.3830
 5375SOL    HW217025   3.551   1.290   6.714  0.6178  2.3585 -1.4988
 5376SOL     OW17026   4.761   6.100   6.410 -0.1532  0.1607  0.3910
 5376SOL    HW117027   4.843   6.064   6.365 -1.1268  0.0148 -1.3620
 5376SOL    HW217028   4.685   6.037   6.396 -0.9324  1.0158  0.6655
 5377SOL     OW17029   1.556   2.076   4.793  0.3342 -0.4487  0.4243
 5377SOL    HW117030   1.580   2.172   4.782 -2.6068  0.4317  0.7703
 5377SOL    HW217031   1.537   2.036   4.704  0.7531 -0.4586  0.3411
 5378SOL     OW17032   2.143   1.225   2.322  0.1096  0.3832 -0.5133
 5378SOL    HW117033   2.181   1.315   2.300 -0.7203  0.5179 -1.5032
 5378SOL    HW217034   2.213   1.168   2.363  0.6061  1.5371  0.2850
 5379SOL     OW17035   1.413   3.266   0.414  0.5736  0.0109  0.6268
 5379SOL    HW117036   1.422   3.350   0.361  0.5116  0.5588  1.4670
 5379SOL    HW217037   1.409   3.288   0.512  1.8388 -1.0503  0.9491
 5380SOL     OW17038   3.695   3.080   3.585 -0.1893 -0.0910 -0.3063
 5380SOL    HW117039   3.771   3.049   3.528 -0.1350 -1.1879  0.3248
 5380SOL    HW217040   3.717   3.169   3.624  0.0700  0.3475 -1.4280
 5381SOL     OW17041   6.728   5.647   6.211 -0.3710  0.0394 -0.1717
 5381SOL    HW117042   6.697   5.697   6.292 -1.6495 -0.4441 -0.3465
 5381SOL    HW217043   6.790   5.574   6.240 -0.1192  0.4260  0.2848
 5382SOL     OW17044   0.458   1.280   2.261 -0.2869  0.9493 -0.0093
 5382SOL    HW117045   0.457   1.245   2.355  0.0548  0.0776 -0.3168
 5382SOL    HW217046   0.523   1.355   2.254  2.0905 -1.0083 -0.2141
 5383SOL     OW17047   2.264   6.316   2.003  0.3439  0.2291 -0.1449
 5383SOL    HW117048   2.349   6.297   2.053  0.7132 -3.4379 -1.8246
 5383SOL    HW217049   2.286   6.357   1.914  0.1539  1.2933  0.2905
 5384SOL     OW17050   2.085   4.841   0.676  0.5678 -0.0180 -0.1553
 5384SOL    HW117051   2.019   4.768   0.659  0.9603 -0.3022 -0.4730
 5384SOL    HW217052   2.147   4.848   0.598  0.4104  0.7910 -0.2183
 5385SOL     OW17053   5.446   2.794   0.853 -0.8042  0.3101  0.2719
 5385SOL    HW117054   5.432   2.737   0.934 -0.0345 -0.4079 -0.0809
 5385SOL    HW217055   5.500   2.875   0.879 -2.3735  1.2052  0.8849
 5386SOL     OW17056   1.271   5.163   6.259  0.1580  0.4081 -0.0935
 5386SOL    HW117057   1.340   5.175   6.188 -0.0024 -0.7638 -0.4720
 5386SOL    HW217058   1.180   5.164   6.218  0.0909 -0.9659 -0.0308
 5387SOL     OW17059   0.153   3.777   5.627 -0.2508 -0.4112  0.2591
 5387SOL    HW117060   0.184   3.686   5.656 -0.2920  0.0928  1.9361
 5387SOL    HW217061   0.208   3.847   5.670 -1.3618  0.4104  0.3771
 5388SOL     OW17062   2.167   0.952   6.859  0.0466 -0.2017  0.0019
 5388SOL    HW117063   2.242   0.904   6.813 -1.2224 -1.6174 -0.6972
 5388SOL    HW217064   2.088   0.891   6.865 -1.2580  1.4326  0.1800
 5389SOL     OW17065   1.158   6.681   5.479  0.1620  0.6147  0.2989
 5389SOL    HW117066   1.082   6.620   5.457  0.6752 -0.0130  0.2367
 5389SOL    HW217067   1.157   6.700   5.577  1.1089 -1.0597  0.6811
 5390SOL     OW17068   5.703   3.607   6.992 -0.4619  0.5579  0.3248
 5390SOL    HW117069   5.681   3.704   6.974 -1.0092  0.1784 -1.2997
 5390SOL    HW217070   5.620   3.560   7.021 -0.6747  0.1952 -0.8034
 5391SOL     OW17071   2.095   3.891   4.957 -0.2721  0.3748  0.1035
 5391SOL    HW117072   2.190   3.921   4.966 -0.2796  0.1231  1.2117
 5391SOL    HW217073   2.038   3.939   5.025 -0.4605 -1.3694  1.2358
 5392SOL     OW17074   0.146   4.696   6.375  0.1270  0.4869  0.1461
 5392SOL    HW117075   0.132   4.771   6.310  0.0007 -1.4863 -2.2373
 5392SOL    HW217076   0.196   4.730   6.454 -0.4967  3.2072 -0.5188
 5393SOL     OW17077   3.662   2.982   1.308 -0.4070 -0.3930  0.1608
 5393SOL    HW117078   3.610   3.028   1.235 -0.8220 -0.6097  0.3151
 5393SOL    HW217079   3.628   3.013   1.397  0.4486  0.2614  0.2700
 5394SOL     OW17080   0.132   6.986   1.030 -0.0840 -0.1478  0.4591
 5394SOL    HW117081   0.114   6.990   0.932  0.0480 -0.7231  0.4076
 5394SOL    HW217082   0.059   6.936   1.076  0.5093 -1.0175  0.4744
 5395SOL     OW17083   1.489   3.382   4.049  0.6308  0.0277  0.2453
 5395SOL    HW117084   1.573   3.353   4.003  1.5387  1.9268  0.5856
 5395SOL    HW217085   1.438   3.302   4.079  1.8192 -1.1942 -0.8409
 5396SOL     OW17086   0.016   2.739   6.558  0.7842  0.1479  0.1920
 5396SOL    HW117087   0.021   2.811   6.627 -2.0943 -0.2415  0.9058
 5396SOL    HW217088   0.047   2.653   6.598 -0.1745  0.0748  0.8129
 5397SOL     OW17089   2.207   3.772   0.494  0.5473  0.0237 -0.1047
 5397SOL    HW117090   2.146   3.692   0.500 -0.6494  0.9164 -0.0543
 5397SOL    HW217091   2.262   3.778   0.577 -0.0483 -0.2049  0.3150
 5398SOL     OW17092   0.966   6.408   6.404 -0.0132  0.1040 -0.7582
 5398SOL    HW117093   0.979   6.401   6.305  2.0411 -0.5659 -0.5037
 5398SOL    HW217094   0.870   6.426   6.425 -0.0426  3.0975 -2.9830
 5399SOL     OW17095   6.222   5.815   3.383  0.4986 -0.0407  0.3613
 5399SOL    HW117096   6.296   5.865   3.338  0.4225 -1.4060 -1.3467
 5399SOL    HW217097   6.253   5.723   3.406 -0.0625  0.0251  1.4751
 5400SOL     OW17098   0.578   3.176   6.224  0.6297  0.4554  0.4647
 5400SOL    HW117099   0.509   3.233   6.268 -1.2965 -1.2482 -0.1972
 5400SOL    HW217100   0.533   3.101   6.176  2.5268  1.8390 -4.0113
 5401SOL     OW17101   2.493   6.026   2.458 -1.0609 -0.2744  0.0855
 5401SOL    HW117102   2.537   5.975   2.532  2.5345 -0.3419 -1.8846
 5401SOL    HW217103   2.463   5.963   2.386 -0.9721  0.0434 -0.2344
 5402SOL     OW17104   5.752   2.815   1.648  0.2024 -0.3160 -0.0228
 5402SOL    HW117105   5.831   2.828   1.708  0.8159  1.0176 -1.0817
 5402SOL    HW217106   5.778   2.756   1.571  0.0864 -0.1265 -0.2081
 5403SOL     OW17107   4.047   1.882   3.147 -0.4737 -0.5154  0.0469
 5403SOL    HW117108   4.052   1.847   3.241 -0.6289  0.8796  0.5902
 5403SOL    HW217109   4.082   1.975   3.144 -1.4287 -0.1703 -1.1066
 5404SOL     OW17110   2.581   5.013   3.880  0.3132  0.1645  0.1439
 5404SOL    HW117111   2.489   4.980   3.903 -0.0764  1.5998  0.8529
 5404SOL    HW217112   2.574   5.088   3.814  0.8515  1.0572  1.0585
 5405SOL     OW17113   6.396   0.070   1.342  0.3631  0.3222 -0.0816
 5405SOL    HW117114   6.474   0.008   1.351  0.7799  0.9676  1.0048
 5405SOL    HW217115   6.329   0.030   1.280  0.8545 -0.9705  0.1771
 5406SOL     OW17116   6.376   0.965   3.720  0.7478  0.4258 -0.4059
 5406SOL    HW117117   6.420   0.980   3.631  2.2959 -2.3486 -0.2147
 5406SOL    HW217118   6.348   0.869   3.727 -2.7404  1.4157  0.7099
 5407SOL     OW17119   4.332   3.336   6.529 -0.1485  0.5712  0.0859
 5407SOL    HW117120   4.304   3.262   6.469 -0.5160  0.8526 -0.0955
 5407SOL    HW217121   4.313   3.312   6.624 -0.3457  0.4675  0.0203
 5408SOL     OW17122   3.417   2.997   6.120 -0.3074 -0.5643  0.4761
 5408SOL    HW117123   3.497   2.985   6.179  0.4345  0.9686 -0.1625
 5408SOL    HW217124   3.424   2.937   6.041 -0.2862 -1.1316  0.8996
 5409SOL     OW17125   6.300   6.261   0.935 -0.2130  0.2179 -0.1641
 5409SOL    HW117126   6.245   6.316   0.997 -0.1875  2.0739 -1.6977
 5409SOL    HW217127   6.256   6.172   0.922 -1.2837  0.5626  0.9137
 5410SOL     OW17128   2.320   3.658   0.920  0.0037  0.1874  0.4360
 5410SOL    HW117129   2.392   3.664   0.851  0.4595 -0.5928  0.8419
 5410SOL    HW217130   2.251   3.729   0.901 -0.0753 -0.2379 -1.0347
 5411SOL     OW17131   0.574   0.985   5.680  0.0145  0.4781 -0.7984
 5411SOL    HW117132   0.655   0.977   5.623  0.5739 -1.5948  0.1782
 5411SOL    HW217133   0.597   0.960   5.774 -1.2386  2.1959  0.0203
 5412SOL     OW17134   6.302   2.916   1.041  0.0298  0.3650  0.0712
 5412SOL    HW117135   6.259   2.863   1.114  1.3003  0.0940  0.6474
 5412SOL    HW217136   6.340   3.000   1.079 -0.2455  0.7517 -0.4889
 5413SOL     OW17137   3.477   1.060   3.502 -0.3370 -0.0148  0.0501
 5413SOL    HW117138   3.520   0.993   3.442 -2.3675 -0.7241 -0.7062
 5413SOL    HW217139   3.392   1.022   3.539 -1.3463  1.9806 -0.0564
 5414SOL     OW17140   1.155   3.753   0.158  0.8262  0.1110 -0.0763
 5414SOL    HW117141   1.062   3.726   0.135  1.1040 -0.0123 -1.0693
 5414SOL    HW217142   1.220   3.711   0.095  1.5326  0.5032  0.3621
 5415SOL     OW17143   0.941   0.280   6.798 -0.0645  0.2573  0.1059
 5415SOL    HW117144   1.029   0.300   6.842 -0.1121  0.1478  0.2519
 5415SOL    HW217145   0.871   0.342   6.835 -0.2232 -0.2116  0.5954
 5416SOL     OW17146   4.641   3.960   6.965  0.2981 -0.2880 -0.2265
 5416SOL    HW117147   4.729   3.998   6.994 -0.5614  0.6879  1.2295
 5416SOL    HW217148   4.623   3.984   6.870 -0.7353  4.1588  0.8829
 5417SOL     OW17149   3.105   0.134   3.735  0.1172  0.3062 -0.3290
 5417SOL    HW117150   3.029   0.184   3.778 -0.0455  0.2702 -0.5683
 5417SOL    HW217151   3.183   0.196   3.724 -0.7639  1.1407 -2.4939
 5418SOL     OW17152   4.947   5.896   1.561 -0.2610  0.1948 -0.2392
 5418SOL    HW117153   4.941   5.796   1.567  0.4647  0.2245  1.3728
 5418SOL    HW217154   4.910   5.937   1.644  0.1398  1.2392 -0.5565
 5419SOL     OW17155   4.681   4.375   3.928 -0.4539  0.5120 -0.2612
 5419SOL    HW117156   4.693   4.276   3.940 -0.6131  0.4455 -0.6274
 5419SOL    HW217157   4.682   4.396   3.830  0.5264  0.9926 -0.1631
 5420SOL     OW17158   1.494   1.607   4.806 -0.3031  0.3577  0.7298
 5420SOL    HW117159   1.520   1.549   4.729  0.8503 -0.7260  1.8816
 5420SOL    HW217160   1.473   1.549   4.885  0.1784  1.4796  1.7126
 5421SOL     OW17161   3.321   0.758   3.395  0.4125  0.0671 -0.2206
 5421SOL    HW117162   3.389   0.684   3.392 -0.8598 -1.5706  3.9586
 5421SOL    HW217163   3.324   0.801   3.485 -2.0362  2.0513 -0.9964
 5422SOL     OW17164   1.109   0.132   5.141  0.0668 -0.3337 -1.0056
 5422SOL    HW117165   1.068   0.113   5.052 -1.3354 -0.0997 -0.4362
 5422SOL    HW217166   1.122   0.231   5.151 -0.1864 -0.3205 -0.7883
 5423SOL     OW17167   5.804   1.533   3.370  0.5154 -0.5760  0.2258
 5423SOL    HW117168   5.800   1.554   3.273  0.9484  1.6600  0.6335
 5423SOL    HW217169   5.744   1.597   3.420  2.3300  0.1035  1.6360
 5424SOL     OW17170   4.664   4.285   0.895  0.0895 -0.6575  0.0492
 5424SOL    HW117171   4.644   4.351   0.968  0.0830 -2.4884  1.7743
 5424SOL    HW217172   4.641   4.193   0.926  0.4108 -1.5371 -2.1773
 5425SOL     OW17173   3.459   4.647   5.941  0.2143 -0.6910  0.3871
 5425SOL    HW117174   3.379   4.590   5.959  1.1080 -1.6039  1.6172
 5425SOL    HW217175   3.517   4.650   6.022  1.2436  0.2734 -0.3495
 5426SOL     OW17176   1.803   5.373   3.209  0.1993  0.3946 -0.2177
 5426SOL    HW117177   1.747   5.290   3.211  1.0908 -0.2101  0.2424
 5426SOL    HW217178   1.766   5.436   3.140  0.9761 -1.4120 -2.4133
 5427SOL     OW17179   3.247   5.410   5.276  1.1783  0.1886  0.2484
 5427SOL    HW117180   3.312   5.448   5.341  1.6850  0.6652 -0.5155
 5427SOL    HW217181   3.293   5.397   5.187  0.3323  0.1803 -0.1993
 5428SOL     OW17182   0.662   6.335   5.184 -0.1309 -0.2578  0.4259
 5428SOL    HW117183   0.612   6.320   5.099 -0.9343 -0.9608  1.0030
 5428SOL    HW217184   0.714   6.252   5.207 -0.9402 -0.5380  1.2754
 5429SOL     OW17185   5.982   0.306   1.302  0.1302 -0.1482  0.7677
 5429SOL    HW117186   6.077   0.275   1.301 -0.5591 -2.6221  2.0913
 5429SOL    HW217187   5.922   0.226   1.306 -1.9050  1.3778  3.0758
 5430SOL     OW17188   2.642   5.473   5.961 -0.0126  0.0500 -0.2425
 5430SOL    HW117189   2.627   5.462   5.863 -1.1013 -0.5807 -0.0192
 5430SOL    HW217190   2.579   5.415   6.012  1.4180 -0.6519  0.8226
 5431SOL     OW17191   6.547   1.862   2.233  0.3727  0.0769  0.3726
 5431SOL    HW117192   6.478   1.921   2.274  1.6573  0.0763  2.6735
 5431SOL    HW217193   6.512   1.768   2.228 -0.7265  0.5140 -0.9706
 5432SOL     OW17194   4.497   4.539   2.522 -0.7348 -0.1063 -0.5575
 5432SOL    HW117195   4.543   4.540   2.611  1.1188 -0.8206 -1.4514
 5432SOL    HW217196   4.498   4.447   2.485 -0.6864  0.3429 -1.7090
 5433SOL     OW17197   6.320   4.037   3.745 -0.1603 -0.6820 -0.2167
 5433SOL    HW117198   6.280   4.018   3.655  0.4016 -0.9596 -0.4139
 5433SOL    HW217199   6.415   4.067   3.733 -0.2376 -0.2401  0.2573
 5434SOL     OW17200   5.738   2.453   0.813  0.0111 -0.8646 -0.2420
 5434SOL    HW117201   5.794   2.378   0.777 -0.6136 -1.5424  0.1722
 5434SOL    HW217202   5.643   2.441   0.784 -0.0118  0.0682 -0.6183
 5435SOL     OW17203   1.170   2.187   0.791 -0.4107  0.3832 -0.5695
 5435SOL    HW117204   1.251   2.217   0.740  0.9925 -1.5648  0.3629
 5435SOL    HW217205   1.188   2.192   0.889 -0.7805 -1.6103 -0.3601
 5436SOL     OW17206   3.789   4.098   1.970 -0.3404 -0.5255  0.0909
 5436SOL    HW117207   3.797   4.179   2.027  1.7178  0.4508 -1.4481
 5436SOL    HW217208   3.826   4.117   1.879 -2.3436 -2.3816 -1.2344
 5437SOL     OW17209   5.378   3.628   0.066  0.2822 -0.0147 -0.1217
 5437SOL    HW117210   5.396   3.652   0.161 -1.7795  1.5779 -0.0587
 5437SOL    HW217211   5.425   3.692   0.005  1.1531 -0.6986 -0.1892
 5438SOL     OW17212   4.198   5.567   1.151 -0.0475 -0.4664 -0.3454
 5438SOL    HW117213   4.175   5.602   1.242 -0.0478 -0.5368 -0.3187
 5438SOL    HW217214   4.166   5.473   1.142 -2.4411  0.3636 -1.3469
 5439SOL     OW17215   6.992   2.170   5.991  0.1260 -0.0750  0.2652
 5439SOL    HW117216   7.054   2.174   6.069 -0.0553  0.0326  0.4042
 5439SOL    HW217217   6.897   2.161   6.023  0.2323 -2.6830  0.0416
 5440SOL     OW17218   2.814   0.346   2.090 -0.7030 -0.2917  0.4979
 5440SOL    HW117219   2.786   0.334   2.185 -0.0140  1.3519  0.9567
 5440SOL    HW217220   2.817   0.444   2.069  1.7599 -0.4905 -0.3890
 5441SOL     OW17221   6.261   1.537   0.699 -0.1239 -0.3027  0.1794
 5441SOL    HW117222   6.306   1.627   0.695 -1.4293  0.3566 -2.1664
 5441SOL    HW217223   6.305   1.475   0.634  1.0796 -1.5966  2.1335
 5442SOL     OW17224   6.538   2.343   1.859 -0.3719  0.1633 -0.1789
 5442SOL    HW117225   6.465   2.343   1.791 -1.2263 -1.6922  0.6380
 5442SOL    HW217226   6.616   2.291   1.824  1.0193  2.8860 -1.4073
 5443SOL     OW17227   4.133   6.043   6.966  0.1177  0.0003 -0.3414
 5443SOL    HW117228   4.088   6.106   6.903 -1.3696 -0.2401  0.4175
 5443SOL    HW217229   4.139   5.952   6.923  1.1944  0.3548 -0.9825
 5444SOL     OW17230   5.012   6.096   3.945 -0.5261  0.2392 -0.2329
 5444SOL    HW117231   5.053   6.079   3.855 -2.3483 -0.5516 -0.9596
 5444SOL    HW217232   4.914   6.075   3.942 -0.3856 -1.2943  2.3240
 5445SOL     OW17233   3.869   3.626   6.329 -0.4405  0.9215 -0.2903
 5445SOL    HW117234   3.966   3.607   6.348 -0.1264  0.4788 -2.1421
 5445SOL    HW217235   3.822   3.647   6.414  1.1946  0.7218  0.7047
 5446SOL     OW17236   0.845   0.153   6.367  0.1261  0.3462 -0.1655
 5446SOL    HW117237   0.850   0.252   6.378  0.1479  0.1833  1.5530
 5446SOL    HW217238   0.769   0.130   6.307 -0.6033  1.3527  0.3530
 5447SOL     OW17239   5.326   5.425   5.141  0.0090  0.4352 -0.3746
 5447SOL    HW117240   5.407   5.478   5.165  0.0055 -0.2153  1.2341
 5447SOL    HW217241   5.344   5.328   5.156 -1.2357  0.3312  0.6005
 5448SOL     OW17242   4.499   0.350   6.180 -0.1532 -0.0127  0.0409
 5448SOL    HW117243   4.586   0.391   6.151  0.2784 -0.8936  0.0640
 5448SOL    HW217244   4.515   0.258   6.214 -1.3727 -1.0402 -1.9830
 5449SOL     OW17245   2.086   5.741   4.787 -0.0961  0.3649  0.0539
 5449SOL    HW117246   2.127   5.738   4.695  0.1955  0.2554  0.1882
 5449SOL    HW217247   2.157   5.727   4.856 -0.3582  0.1884  0.2898
 5450SOL     OW17248   1.325   5.222   1.804  0.3639  0.4814 -0.1877
 5450SOL    HW117249   1.284   5.271   1.727  0.5922 -0.2657 -0.7891
 5450SOL    HW217250   1.277   5.135   1.818  0.3464  0.5923  0.4979
 5451SOL     OW17251   5.835   3.787   0.849 -0.3707 -0.4447 -0.7074
 5451SOL    HW117252   5.858   3.850   0.923 -0.2755 -1.4208  0.1022
 5451SOL    HW217253   5.743   3.809   0.814 -0.1867  0.3730 -0.6873
 5452SOL     OW17254   6.893   6.366   4.198 -0.0525 -0.3342  0.3852
 5452SOL    HW117255   6.889   6.367   4.298 -1.3971  0.8933  0.3498
 5452SOL    HW217256   6.807   6.333   4.161  0.6805 -1.4652 -0.4008
 5453SOL     OW17257   1.500   6.312   3.531  0.2833 -0.1426  0.4673
 5453SOL    HW117258   1.504   6.396   3.476  1.1372 -1.5660 -1.7902
 5453SOL    HW217259   1.454   6.331   3.617  0.3584  2.6142 -0.0079
 5454SOL     OW17260   5.327   4.104   4.529 -0.1097  0.8068 -0.5847
 5454SOL    HW117261   5.334   4.062   4.620 -0.9361  2.8954  0.5196
 5454SOL    HW217262   5.272   4.045   4.469  1.2650 -1.0861 -0.1015
 5455SOL     OW17263   6.555   0.968   1.420 -0.4156  0.4479  0.3631
 5455SOL    HW117264   6.457   0.956   1.401 -1.0767  3.6501  1.1305
 5455SOL    HW217265   6.594   1.031   1.352  0.8472  0.0603  0.7132
 5456SOL     OW17266   2.567   0.710   2.192 -0.0237  0.1852 -0.0769
 5456SOL    HW117267   2.502   0.673   2.259  0.8225  1.4679  1.5208
 5456SOL    HW217268   2.592   0.803   2.218  2.1689 -0.1348 -0.8415
 5457SOL     OW17269   2.017   6.619   4.240 -0.6943 -0.4420 -0.0815
 5457SOL    HW117270   2.050   6.670   4.320 -1.5188  0.6377 -0.4038
 5457SOL    HW217271   2.092   6.606   4.175 -0.0088 -1.3384  0.8407
 5458SOL     OW17272   6.362   0.382   0.949 -0.0081 -0.6804 -0.0072
 5458SOL    HW117273   6.398   0.458   1.003  0.1545  0.7542 -2.0413
 5458SOL    HW217274   6.262   0.385   0.950 -0.0466  1.1672 -2.1001
 5459SOL     OW17275   4.594   5.163   0.146  0.4744  0.6124 -0.2070
 5459SOL    HW117276   4.622   5.117   0.061 -0.2125  0.4168 -0.3288
 5459SOL    HW217277   4.502   5.133   0.171  0.6953  0.6376  0.6371
 5460SOL     OW17278   3.361   3.981   4.767  0.1189  0.2504 -0.0359
 5460SOL    HW117279   3.269   3.945   4.753  0.5561 -1.5358  1.2685
 5460SOL    HW217280   3.378   3.993   4.865  1.0877  1.1191 -0.2860
 5461SOL     OW17281   3.746   4.088   3.798  0.2104 -0.4298  0.3960
 5461SOL    HW117282   3.779   4.068   3.890  0.9561 -0.7123  0.0752
 5461SOL    HW217283   3.663   4.142   3.803  0.2018 -0.5165  1.2378
 5462SOL     OW17284   6.119   0.904   6.743 -0.3471  0.3388  0.0249
 5462SOL    HW117285   6.099   0.827   6.803 -1.1581  0.5834  0.0889
 5462SOL    HW217286   6.134   0.986   6.798  2.4426 -0.1096  0.0815
 5463SOL     OW17287   4.716   5.841   5.606  0.1394 -0.0494 -0.6550
 5463SOL    HW117288   4.721   5.868   5.702 -1.5068  0.2894 -0.6288
 5463SOL    HW217289   4.765   5.908   5.550  0.2910  0.2780 -0.1353
 5464SOL     OW17290   5.206   3.311   3.561  0.5891 -0.1011 -0.0772
 5464SOL    HW117291   5.234   3.340   3.469  2.1192  1.3589  0.7877
 5464SOL    HW217292   5.106   3.312   3.567  0.3205 -2.6806 -2.4321
 5465SOL     OW17293   1.220   5.886   6.645  0.1470  0.4510 -0.1526
 5465SOL    HW117294   1.250   5.944   6.721 -1.5093 -0.5135  1.3413
 5465SOL    HW217295   1.165   5.939   6.581  1.5065  1.2646 -0.6887
 5466SOL     OW17296   0.933   5.032   3.455  0.0539 -0.0961 -0.6982
 5466SOL    HW117297   1.012   5.071   3.408  0.6435 -1.6623 -1.1034
 5466SOL    HW217298   0.920   5.075   3.544  1.5648 -0.0258 -0.4992
 5467SOL     OW17299   2.506   0.186   1.126  0.3046  0.1696  0.2446
 5467SOL    HW117300   2.478   0.242   1.204 -1.1909  0.9273 -0.7933
 5467SOL    HW217301   2.431   0.181   1.060  0.8779 -2.0088 -0.2949
 5468SOL     OW17302   5.930   0.124   5.889  0.5639  0.3790  0.1539
 5468SOL    HW117303   5.923   0.038   5.939  2.0028 -0.1165 -0.4281
 5468SOL    HW217304   5.981   0.190   5.944  0.9349  0.2889 -0.0747
 5469SOL     OW17305   1.631   5.298   0.499  0.5332  0.0540  0.2079
 5469SOL    HW117306   1.687   5.215   0.493 -0.9123 -0.9487  0.1583
 5469SOL    HW217307   1.623   5.325   0.595 -0.4083 -0.8871  0.4110
 5470SOL     OW17308   5.258   1.165   6.939 -0.4048 -0.2156 -0.0528
 5470SOL    HW117309   5.186   1.221   6.980 -1.0131 -1.3481  0.4679
 5470SOL    HW217310   5.346   1.211   6.951 -1.0862  1.5599 -1.3788
 5471SOL     OW17311   6.501   4.949   3.672  0.0731  0.6155  0.3803
 5471SOL    HW117312   6.528   4.867   3.722  1.1522  0.4678 -0.4301
 5471SOL    HW217313   6.401   4.958   3.676 -0.1755 -1.3167 -0.4234
 5472SOL     OW17314   5.662   4.580   0.971 -0.1705 -0.1433  0.2481
 5472SOL    HW117315   5.572   4.536   0.977 -0.0888 -0.3017  0.3422
 5472SOL    HW217316   5.651   4.679   0.964 -0.3616 -0.1875 -0.0747
 5473SOL     OW17317   2.482   2.249   5.139 -0.1094  0.0001  0.6183
 5473SOL    HW117318   2.494   2.201   5.052 -0.0010  0.4181  0.3989
 5473SOL    HW217319   2.463   2.183   5.212 -1.1246 -0.2766  0.1127
 5474SOL     OW17320   4.013   5.236   0.841 -0.7160 -0.1797  0.0047
 5474SOL    HW117321   4.069   5.244   0.924 -0.9712 -0.4216  0.1999
 5474SOL    HW217322   3.982   5.327   0.813  1.1849  0.1935 -1.0832
 5475SOL     OW17323   5.708   3.114   4.970  0.1512 -0.1714 -0.4541
 5475SOL    HW117324   5.623   3.149   5.009  2.2835  1.7520  3.0022
 5475SOL    HW217325   5.740   3.178   4.900  0.3334  0.9804  0.6231
 5476SOL     OW17326   5.437   1.191   5.618 -0.1786 -0.2159 -0.0148
 5476SOL    HW117327   5.490   1.177   5.701  1.5294  1.7192 -0.6814
 5476SOL    HW217328   5.345   1.220   5.642  0.5814  1.3137  1.2771
 5477SOL     OW17329   0.453   6.421   2.751  0.3836  0.3619  0.0254
 5477SOL    HW117330   0.421   6.516   2.743 -1.3058 -0.2898 -2.4189
 5477SOL    HW217331   0.534   6.417   2.809  0.5200  3.2852  0.1713
 5478SOL     OW17332   4.672   5.046   1.305 -0.6884 -0.1494 -0.2435
 5478SOL    HW117333   4.618   4.962   1.307 -0.4593 -0.2904  0.7247
 5478SOL    HW217334   4.699   5.071   1.398  0.8888 -0.0618 -0.6906
 5479SOL     OW17335   2.120   3.081   0.207  0.4103 -0.4866  0.1823
 5479SOL    HW117336   2.045   3.050   0.264  1.5396 -0.0181  1.9863
 5479SOL    HW217337   2.087   3.152   0.144 -0.3735  0.7282  1.9066
 5480SOL     OW17338   2.955   5.860   6.290  0.2095 -0.1081 -0.1568
 5480SOL    HW117339   2.995   5.905   6.370 -0.2886  0.0065  0.0257
 5480SOL    HW217340   3.027   5.848   6.220  0.5165  0.3026  0.0789
 5481SOL     OW17341   3.014   2.552   6.688  0.6592  0.1722 -0.6435
 5481SOL    HW117342   2.934   2.554   6.748  0.4637 -0.3796 -0.8782
 5481SOL    HW217343   3.027   2.460   6.653  0.5050  0.5680 -1.7937
 5482SOL     OW17344   1.261   1.865   3.635 -0.0280 -0.0994 -0.3903
 5482SOL    HW117345   1.186   1.806   3.664 -0.0578  0.5443  0.9286
 5482SOL    HW217346   1.291   1.921   3.712  1.5580 -0.0666 -0.9905
 5483SOL     OW17347   1.175   3.356   1.542  0.6319 -0.1176 -0.3091
 5483SOL    HW117348   1.182   3.450   1.508 -0.5432 -0.7684 -2.5481
 5483SOL    HW217349   1.091   3.346   1.595  1.7744  0.5487  1.7338
 5484SOL     OW17350   6.760   2.969   2.321 -0.2689  1.0485 -0.1007
 5484SOL    HW117351   6.843   2.981   2.375  0.1383  3.4912 -1.1189
 5484SOL    HW217352   6.786   2.953   2.225 -0.9318  2.6856 -0.5771
 5485SOL     OW17353   4.984   0.708   6.496  0.1528 -0.0785  0.0431
 5485SOL    HW117354   5.032   0.723   6.582  0.8906 -1.7442 -0.0491
 5485SOL    HW217355   4.886   0.712   6.511  0.2749  1.3500  0.6154
 5486SOL     OW17356   4.046   5.832   5.951  0.8176  0.4434  0.7327
 5486SOL    HW117357   4.022   5.822   6.047 -1.0024 -0.0041  0.2775
 5486SOL    HW217358   4.021   5.924   5.920 -2.1402 -0.5269 -0.1477
 5487SOL     OW17359   0.474   4.757   2.874 -0.0918 -0.6597  0.0674
 5487SOL    HW117360   0.546   4.706   2.921  0.0719  1.1210  1.8588
 5487SOL    HW217361   0.507   4.787   2.785  0.6566 -1.5309  0.0385
 5488SOL     OW17362   1.794   3.690   4.806 -0.6331  0.8075 -0.3010
 5488SOL    HW117363   1.820   3.680   4.902  2.0978 -0.0332 -1.0437
 5488SOL    HW217364   1.847   3.763   4.764 -1.1879  0.6044 -1.3872
 5489SOL     OW17365   3.552   6.760   4.402 -0.0037 -0.5001  0.0843
 5489SOL    HW117366   3.526   6.679   4.455  0.0649  0.0918  1.0422
 5489SOL    HW217367   3.604   6.731   4.322 -0.1503 -1.4166  0.3020
 5490SOL     OW17368   0.634   4.468   2.497  0.0799 -0.1840  0.6558
 5490SOL    HW117369   0.602   4.543   2.439  0.8759 -0.1666  0.2286
 5490SOL    HW217370   0.559   4.402   2.511 -0.7033  0.7929  1.2412
 5491SOL     OW17371   3.132   3.935   4.268  0.1838 -0.2590  0.4190
 5491SOL    HW117372   3.219   3.896   4.238  0.4137  1.1145 -0.8106
 5491SOL    HW217373   3.057   3.892   4.217  0.5083  1.4495 -1.6419
 5492SOL     OW17374   6.764   5.913   6.317 -0.4271  0.0762 -0.2737
 5492SOL    HW117375   6.723   6.004   6.314  0.2634  0.4198  0.5465
 5492SOL    HW217376   6.840   5.908   6.253  0.1501  0.3870  0.3801
 5493SOL     OW17377   0.381   6.761   6.756 -0.5676 -0.1438  0.0228
 5493SOL    HW117378   0.354   6.709   6.837 -1.8881  1.0942  0.4049
 5493SOL    HW217379   0.326   6.844   6.749  0.2270  0.2902 -1.5931
 5494SOL     OW17380   6.564   4.130   0.437 -0.3220 -0.1436  0.0104
 5494SOL    HW117381   6.497   4.061   0.412 -1.1548  0.2413  1.1214
 5494SOL    HW217382   6.549   4.212   0.382  0.9122 -0.9256 -1.5895
 5495SOL     OW17383   1.562   2.912   6.473  0.2242  0.6888  0.9021
 5495SOL    HW117384   1.599   2.822   6.496  0.1020  1.0922  2.9379
 5495SOL    HW217385   1.476   2.926   6.522 -0.0472  1.7033  0.1740
 5496SOL     OW17386   0.271   5.685   0.458 -0.0137  0.6867  0.7149
 5496SOL    HW117387   0.304   5.592   0.477  2.1456  1.1953 -0.1755
 5496SOL    HW217388   0.286   5.743   0.538 -0.0040  0.5941  0.7798
 5497SOL     OW17389   5.657   0.732   2.875  0.1589 -0.0015 -0.1464
 5497SOL    HW117390   5.725   0.677   2.826 -0.6602 -0.7704 -0.4559
 5497SOL    HW217391   5.687   0.746   2.969  1.2879  0.6617 -0.5830
 5498SOL     OW17392   4.826   5.685   0.927 -0.1172 -0.6628 -0.5325
 5498SOL    HW117393   4.772   5.769   0.933 -2.8023 -2.2602 -0.5700
 5498SOL    HW217394   4.923   5.707   0.922 -0.7817  2.4292 -1.4078
 5499SOL     OW17395   0.989   0.639   5.106 -0.4536 -0.2669 -0.2132
 5499SOL    HW117396   0.982   0.545   5.139  0.4691 -0.3893 -0.3263
 5499SOL    HW217397   1.045   0.640   5.023 -1.8244  0.1728 -1.1668
 5500SOL     OW17398   3.671   1.282   3.573  0.1950  0.0614  0.1605
 5500SOL    HW117399   3.622   1.368   3.554 -0.1346 -0.6829 -2.9190
 5500SOL    HW217400   3.614   1.205   3.545  2.4561 -0.9122 -2.1566
 5501SOL     OW17401   1.579   0.202   3.908 -0.0389  0.1320 -0.1050
 5501SOL    HW117402   1.581   0.161   3.817 -0.6178  2.4213 -1.2362
 5501SOL    HW217403   1.664   0.181   3.956  0.2468 -1.1840 -1.1227
 5502SOL     OW17404   5.734   4.420   5.506 -0.1576 -0.0869 -0.0652
 5502SOL    HW117405   5.761   4.473   5.425  0.9753  0.5553  0.7004
 5502SOL    HW217406   5.745   4.477   5.587 -1.3061 -0.7169  0.5497
 5503SOL     OW17407   3.534   1.749   1.070 -0.8316 -0.5737 -0.0889
 5503SOL    HW117408   3.537   1.772   0.973 -0.0476  1.1767  0.3145
 5503SOL    HW217409   3.592   1.811   1.121  0.4156 -2.7592  1.3046
 5504SOL     OW17410   0.128   3.558   2.607 -0.2282 -0.2560  0.2564
 5504SOL    HW117411   0.186   3.490   2.561 -2.3988 -1.9068 -0.2472
 5504SOL    HW217412   0.147   3.557   2.705  1.1714 -0.1166  0.0067
 5505SOL     OW17413   1.680   0.302   4.932  0.1912 -0.6283  0.7457
 5505SOL    HW117414   1.743   0.347   4.868  1.1012 -1.7681  0.7937
 5505SOL    HW217415   1.732   0.240   4.991 -0.5894  0.5781  2.8021
 5506SOL     OW17416   5.499   2.626   3.528  0.1551  0.1482 -0.2175
 5506SOL    HW117417   5.450   2.545   3.495 -0.3185  0.9534 -1.5708
 5506SOL    HW217418   5.546   2.604   3.614 -0.7411 -1.2760 -0.0642
 5507SOL     OW17419   0.612   4.974   2.964  0.2329 -0.7316  0.5974
 5507SOL    HW117420   0.523   4.931   2.950 -0.1911 -0.0916  1.2465
 5507SOL    HW217421   0.682   4.922   2.917 -0.6770 -0.4233 -1.1864
 5508SOL     OW17422   6.511   4.788   1.835  0.2003  0.0513 -0.1495
 5508SOL    HW117423   6.522   4.695   1.871  1.0751  0.2190  0.0331
 5508SOL    HW217424   6.599   4.821   1.802 -0.3747  0.2924 -1.5159
 5509SOL     OW17425   1.740   2.704   0.907 -0.2046  0.2831 -0.9315
 5509SOL    HW117426   1.662   2.669   0.960  1.5654 -0.1265  1.5436
 5509SOL    HW217427   1.784   2.778   0.957  0.3894  1.2914 -2.8318
 5510SOL     OW17428   1.172   3.338   5.443 -1.2444 -0.6205 -0.2068
 5510SOL    HW117429   1.269   3.315   5.438 -0.4749  1.5731  1.9968
 5510SOL    HW217430   1.160   3.434   5.417 -2.4088 -0.1745  1.7763
 5511SOL     OW17431   4.825   3.906   4.113 -0.2526 -0.0786 -0.1445
 5511SOL    HW117432   4.783   3.935   4.198  0.6019  2.3566 -0.4934
 5511SOL    HW217433   4.918   3.873   4.131  0.1192  0.9363 -0.1901
 5512SOL     OW17434   3.152   3.274   6.689 -0.0588 -0.2285  0.4878
 5512SOL    HW117435   3.232   3.233   6.645 -0.3648 -2.0373  1.5284
 5512SOL    HW217436   3.069   3.238   6.647 -0.4533  2.6928 -1.5585
 5513SOL     OW17437   6.305   4.457   2.599 -0.2114 -0.3812 -0.7665
 5513SOL    HW117438   6.370   4.469   2.674 -1.4910 -1.7336  0.6348
 5513SOL    HW217439   6.286   4.545   2.556  2.0355  0.1351 -0.8420
 5514SOL     OW17440   6.424   6.772   1.936  0.0812 -0.2669  0.5011
 5514SOL    HW117441   6.436   6.688   1.883 -0.0327 -0.1146  0.2349
 5514SOL    HW217442   6.361   6.833   1.889 -1.3617 -0.8415  1.6269
 5515SOL     OW17443   2.880   6.246   3.707 -0.1389  0.2635 -0.9506
 5515SOL    HW117444   2.934   6.164   3.728  0.9023  0.7903 -1.5024
 5515SOL    HW217445   2.816   6.263   3.782  1.8180  0.7232  0.7096
 5516SOL     OW17446   1.304   3.301   6.252 -0.0059  0.2168  0.0314
 5516SOL    HW117447   1.386   3.303   6.310  0.3955  3.0121 -0.4703
 5516SOL    HW217448   1.320   3.240   6.174  0.2245 -1.9640  1.7005
 5517SOL     OW17449   1.653   3.156   5.468  0.1689 -0.1705  0.0788
 5517SOL    HW117450   1.714   3.131   5.393 -1.3448 -1.0600 -0.9249
 5517SOL    HW217451   1.691   3.233   5.518  2.3996 -1.0784 -0.0966
 5518SOL     OW17452   4.024   4.220   5.196  0.3115 -0.1441 -0.2005
 5518SOL    HW117453   4.001   4.222   5.294 -1.3870 -0.0187 -0.5643
 5518SOL    HW217454   4.083   4.298   5.174 -0.4163  0.6248  0.4790
 5519SOL     OW17455   3.589   3.153   5.845  0.7079  0.4135  0.5430
 5519SOL    HW117456   3.614   3.087   5.773  1.5883 -0.1712  1.3511
 5519SOL    HW217457   3.660   3.152   5.916 -1.5317 -1.2053  2.9208
 5520SOL     OW17458   6.911   5.381   7.018 -0.6339 -0.8800  0.6637
 5520SOL    HW117459   6.886   5.343   7.108 -2.1457  1.1975  1.1807
 5520SOL    HW217460   6.845   5.450   6.991 -0.2670 -1.5106 -2.1618
 5521SOL     OW17461   5.140   5.016   3.950 -1.0300 -0.4820 -0.3325
 5521SOL    HW117462   5.159   4.930   3.998 -1.3179 -0.5193 -0.2874
 5521SOL    HW217463   5.216   5.035   3.887 -1.0760 -0.8918 -0.5178
 5522SOL     OW17464   6.355   5.658   5.258  0.7270 -0.3516 -0.2715
 5522SOL    HW117465   6.336   5.654   5.357  1.0793  0.7465 -0.1432
 5522SOL    HW217466   6.453   5.673   5.244  0.5528  0.3662 -0.7624
 5523SOL     OW17467   3.133   5.934   1.915  0.5747  0.7572  0.2693
 5523SOL    HW117468   3.034   5.937   1.929  0.4422 -0.6446 -0.2425
 5523SOL    HW217469   3.155   5.978   1.828 -0.0731 -2.2414 -1.5554
 5524SOL     OW17470   2.290   5.763   6.561 -0.2704  0.1511 -0.0642
 5524SOL    HW117471   2.290   5.703   6.640  3.0342  0.2761  0.1538
 5524SOL    HW217472   2.368   5.742   6.503 -0.5837  2.4302 -1.4312
 5525SOL     OW17473   4.798   2.440   5.290  0.7912  0.3180 -0.2792
 5525SOL    HW117474   4.775   2.469   5.197 -0.0759  0.4198 -0.0349
 5525SOL    HW217475   4.791   2.518   5.352 -1.4359 -0.3119  0.3603
 5526SOL     OW17476   1.040   0.160   6.549 -0.6016  0.4626 -0.0626
 5526SOL    HW117477   0.973   0.152   6.476  0.0019 -0.3909 -0.5484
 5526SOL    HW217478   0.994   0.186   6.634 -2.3246 -3.8773  0.6411
 5527SOL     OW17479   1.598   6.242   1.298 -0.3757 -0.4385 -0.4550
 5527SOL    HW117480   1.633   6.244   1.204 -0.4145  0.4804 -0.4582
 5527SOL    HW217481   1.642   6.315   1.351 -2.0735  0.6039 -0.3978
 5528SOL     OW17482   6.282   1.797   3.117 -0.2036  0.0048  0.1498
 5528SOL    HW117483   6.269   1.747   3.202 -0.4997 -0.3218 -0.0855
 5528SOL    HW217484   6.343   1.746   3.057  2.0279  1.3635  1.1102
 5529SOL     OW17485   3.721   5.252   4.666 -0.0459 -0.2386  0.4061
 5529SOL    HW117486   3.745   5.168   4.714 -0.5962  0.0337  1.1798
 5529SOL    HW217487   3.681   5.230   4.577 -1.4736 -0.8557  1.1720
 5530SOL     OW17488   0.903   3.785   6.580  0.5575  0.2106  0.2425
 5530SOL    HW117489   0.876   3.698   6.622  2.1945  0.3432  1.6580
 5530SOL    HW217490   0.963   3.767   6.502  0.3379  0.0572  0.1079
 5531SOL     OW17491   6.640   1.936   0.863 -0.2084 -0.0196 -0.8442
 5531SOL    HW117492   6.639   2.035   0.847 -1.3280 -0.3167 -3.0162
 5531SOL    HW217493   6.652   1.919   0.960  1.5648  2.2072 -0.5788
 5532SOL     OW17494   1.120   0.328   2.112 -0.0203  0.3234 -0.5726
 5532SOL    HW117495   1.082   0.241   2.080 -0.7719  0.6702 -0.6269
 5532SOL    HW217496   1.181   0.310   2.190 -0.5213 -0.2076 -0.2906
 5533SOL     OW17497   2.568   5.998   3.535 -0.3191  0.0674  0.3272
 5533SOL    HW117498   2.600   5.904   3.530 -1.9326 -0.5824  1.6001
 5533SOL    HW217499   2.586   6.035   3.627  0.1084  0.9424 -0.0914
 5534SOL     OW17500   2.043   5.114   5.276 -0.2547 -0.6840  0.5947
 5534SOL    HW117501   2.020   5.156   5.188  0.9947 -0.8560  0.1554
 5534SOL    HW217502   2.009   5.020   5.278  1.1383 -1.2496 -0.4202
 5535SOL     OW17503   0.976   4.444   2.808  0.1860 -0.1486  0.6536
 5535SOL    HW117504   1.039   4.417   2.735 -1.9422 -0.3110 -1.2758
 5535SOL    HW217505   0.904   4.502   2.769 -1.3077 -0.6460  2.5463
 5536SOL     OW17506   1.503   1.672   6.767 -0.1244  0.9159  0.0082
 5536SOL    HW117507   1.418   1.711   6.730 -0.1208  2.1922  1.2681
 5536SOL    HW217508   1.510   1.694   6.864  1.6412  0.7858 -0.0579
 5537SOL     OW17509   3.173   1.285   5.965 -0.3848  0.3336 -0.0979
 5537SOL    HW117510   3.159   1.382   5.944 -1.7529  0.0278 -0.7836
 5537SOL    HW217511   3.084   1.238   5.965  0.1489 -0.7436  1.1813
 5538SOL     OW17512   0.140   2.698   3.810 -0.3301 -0.9191  0.2439
 5538SOL    HW117513   0.131   2.677   3.907  1.3780 -1.4556  0.3069
 5538SOL    HW217514   0.219   2.758   3.795 -0.2575 -1.2652 -0.8676
 5539SOL     OW17515   6.971   2.682   0.501 -0.0401 -0.4307  0.5922
 5539SOL    HW117516   6.984   2.584   0.488 -1.1649 -0.5521  0.3226
 5539SOL    HW217517   6.928   2.699   0.590 -0.3621 -0.2145  0.3943
 5540SOL     OW17518   1.487   4.960   5.932 -0.0656 -0.0930  0.2416
 5540SOL    HW117519   1.478   5.052   5.969 -4.5439 -0.1309 -0.2007
 5540SOL    HW217520   1.505   4.896   6.007  0.3479  0.8316  0.9490
 5541SOL     OW17521   0.899   2.515   6.534 -0.2321 -0.5323  0.6992
 5541SOL    HW117522   0.840   2.488   6.610 -0.8121 -1.8769 -0.1781
 5541SOL    HW217523   0.843   2.548   6.458  0.1025 -1.8318 -0.1527
 5542SOL     OW17524   5.177   4.620   3.352  0.0875 -0.1499  0.1918
 5542SOL    HW117525   5.210   4.671   3.431  0.5436  0.5731 -0.4533
 5542SOL    HW217526   5.172   4.681   3.272  0.5815 -1.0902 -0.5796
 5543SOL     OW17527   0.753   1.794   3.115  0.1159 -0.1303 -0.0457
 5543SOL    HW117528   0.789   1.710   3.155 -0.5893 -1.1208 -1.3911
 5543SOL    HW217529   0.655   1.783   3.096  0.5308 -0.0198 -2.6341
 5544SOL     OW17530   3.626   4.942   3.196 -0.3941 -0.0903  0.0155
 5544SOL    HW117531   3.665   4.933   3.288 -2.2600  0.8863  0.9468
 5544SOL    HW217532   3.538   4.895   3.192 -0.8617  0.8206 -0.9277
 5545SOL     OW17533   4.484   5.390   5.697 -0.1702 -0.8947  0.1648
 5545SOL    HW117534   4.433   5.415   5.779 -1.0631 -1.0207 -0.3381
 5545SOL    HW217535   4.510   5.473   5.647  0.3830 -0.8178  0.5655
 5546SOL     OW17536   0.531   5.282   0.880  0.0570 -0.1337 -0.5398
 5546SOL    HW117537   0.444   5.268   0.927 -0.9715  0.9613 -2.0383
 5546SOL    HW217538   0.601   5.310   0.946 -1.4170  1.7338  0.3131
 5547SOL     OW17539   2.616   1.400   1.545 -0.2057  0.0773 -0.3518
 5547SOL    HW117540   2.523   1.434   1.558 -0.4000 -0.0711 -1.2836
 5547SOL    HW217541   2.616   1.330   1.473  1.0734  2.2129 -2.5643
 5548SOL     OW17542   1.441   1.314   3.212 -0.0117 -0.6725 -0.7291
 5548SOL    HW117543   1.388   1.340   3.132 -0.2821 -1.3216 -0.7659
 5548SOL    HW217544   1.538   1.337   3.198 -0.2056  0.0770 -0.8528
 5549SOL     OW17545   1.685   3.988   3.432 -0.0052 -0.0084 -0.0789
 5549SOL    HW117546   1.658   4.046   3.356 -2.0501 -1.8364 -0.8786
 5549SOL    HW217547   1.740   3.911   3.397  3.4630  1.7202  1.0699
 5550SOL     OW17548   5.803   3.310   3.198 -0.3700  0.2581 -0.2239
 5550SOL    HW117549   5.787   3.385   3.133 -2.0087  0.4475  0.3694
 5550SOL    HW217550   5.742   3.234   3.176  0.4789 -0.4720 -0.1083
 5551SOL     OW17551   3.736   3.809   6.880 -0.0701 -0.0542  0.0190
 5551SOL    HW117552   3.761   3.713   6.891 -0.4959 -0.2379 -0.5544
 5551SOL    HW217553   3.641   3.823   6.910 -0.0992  0.1279 -0.1503
 5552SOL     OW17554   4.082   5.389   2.774  0.2332 -0.0165 -0.6007
 5552SOL    HW117555   4.081   5.476   2.823 -0.9401 -0.2631 -0.1574
 5552SOL    HW217556   4.171   5.344   2.788  1.3159  1.6282 -1.8457
 5553SOL     OW17557   1.922   3.062   3.745 -0.1668  0.0309  0.0001
 5553SOL    HW117558   1.853   3.115   3.695  0.5145  0.1233 -0.8654
 5553SOL    HW217559   1.876   2.994   3.803 -0.9796 -0.8475 -1.5968
 5554SOL     OW17560   6.319   6.036   5.730 -0.1725  0.0076 -0.0144
 5554SOL    HW117561   6.237   5.994   5.768  0.1147 -1.0581 -0.5263
 5554SOL    HW217562   6.385   6.055   5.803 -0.5612  0.1778  0.2982
 5555SOL     OW17563   0.013   5.038   0.741  0.4636  0.2675  0.2963
 5555SOL    HW117564   0.069   4.958   0.720 -0.7561  0.0255 -2.4919
 5555SOL    HW217565   0.070   5.120   0.740  1.0569 -0.1381 -0.9947
 5556SOL     OW17566   0.767   3.577   6.161  0.0186 -0.3064 -0.2826
 5556SOL    HW117567   0.725   3.556   6.073 -2.8167 -1.1926  1.1552
 5556SOL    HW217568   0.770   3.676   6.174 -2.8293 -0.1759 -0.0228
 5557SOL     OW17569   6.178   0.940   1.964 -0.2239 -0.5540 -0.4902
 5557SOL    HW117570   6.160   0.883   2.045 -2.0673  1.8406  0.9179
 5557SOL    HW217571   6.104   0.929   1.898  0.0769 -0.7393 -0.7996
 5558SOL     OW17572   0.942   4.153   3.305  0.2679 -0.3527 -0.4546
 5558SOL    HW117573   0.884   4.234   3.302 -1.0612 -1.2062  0.6856
 5558SOL    HW217574   0.888   4.072   3.283  1.0183 -1.1730  0.5901
 5559SOL     OW17575   5.524   0.776   6.450 -0.1325 -0.2242  0.4856
 5559SOL    HW117576   5.554   0.842   6.520  0.0032 -0.8533  1.0280
 5559SOL    HW217577   5.593   0.769   6.379 -0.5374  0.8751 -0.0453
 5560SOL     OW17578   5.275   0.738   4.219 -0.0713 -0.0922  0.4176
 5560SOL    HW117579   5.364   0.780   4.200 -0.1877  0.1030  0.3066
 5560SOL    HW217580   5.228   0.790   4.290  0.5834 -1.1190  1.6398
 5561SOL     OW17581   1.348   4.599   2.197  0.6770 -0.5729 -0.1126
 5561SOL    HW117582   1.435   4.553   2.216 -0.1050 -1.9127  0.3330
 5561SOL    HW217583   1.273   4.546   2.235 -0.2983  0.9665  0.1941
 5562SOL     OW17584   4.568   0.947   3.807  0.6632 -0.0336  0.1752
 5562SOL    HW117585   4.619   0.943   3.721 -2.1238  1.0347 -1.6897
 5562SOL    HW217586   4.504   1.024   3.803 -2.0797 -2.0786  1.7140
 5563SOL     OW17587   1.171   0.934   4.887  0.2212  0.4275  0.1859
 5563SOL    HW117588   1.094   0.979   4.933  1.0368  0.6589  1.3509
 5563SOL    HW217589   1.154   0.836   4.882  0.8757  0.1315  2.5895
 5564SOL     OW17590   2.628   2.964   1.663  0.5231  0.5688  0.4410
 5564SOL    HW117591   2.691   3.020   1.718 -1.2620  2.3302  0.8112
 5564SOL    HW217592   2.574   3.024   1.604 -1.4178 -0.7788  0.7660
 5565SOL     OW17593   4.170   1.737   3.806 -0.2587  0.7467  0.7785
 5565SOL    HW117594   4.163   1.638   3.809  0.0585  0.7338  1.0524
 5565SOL    HW217595   4.241   1.764   3.740  1.1607  0.7298  2.2450
 5566SOL     OW17596   1.824   5.139   1.396 -0.3134  0.6614  0.1942
 5566SOL    HW117597   1.817   5.234   1.426  0.9595  0.4344  1.3198
 5566SOL    HW217598   1.815   5.079   1.475  2.1846 -0.0060  0.0436
 5567SOL     OW17599   1.464   6.721   2.357  0.1520  0.2295 -0.6106
 5567SOL    HW117600   1.453   6.691   2.262  0.9420 -0.3620 -0.5345
 5567SOL    HW217601   1.411   6.662   2.418  0.7112 -0.2462 -0.5739
 5568SOL     OW17602   4.305   1.316   0.243  0.1875  0.0619  0.2231
 5568SOL    HW117603   4.287   1.351   0.335 -2.1990 -0.8540  0.1625
 5568SOL    HW217604   4.386   1.257   0.246  0.7304  0.8181  1.5107
 5569SOL     OW17605   6.259   2.923   5.286 -0.6409  0.1876  0.3244
 5569SOL    HW117606   6.247   2.825   5.268 -0.7243  0.4229 -0.9853
 5569SOL    HW217607   6.172   2.970   5.270 -1.1941  0.2363  2.9718
 5570SOL     OW17608   6.238   3.332   5.968  0.5385 -0.1357  0.0801
 5570SOL    HW117609   6.307   3.263   5.990  0.9495  0.5505  1.0222
 5570SOL    HW217610   6.151   3.287   5.951  0.2220 -0.8449  2.9460
 5571SOL     OW17611   0.454   3.866   5.314  0.1064 -0.3942  0.3304
 5571SOL    HW117612   0.394   3.788   5.328 -1.7324  0.9080  0.0786
 5571SOL    HW217613   0.434   3.937   5.382 -0.0437  0.8590 -0.9665
 5572SOL     OW17614   3.293   2.915   3.430  0.8625  0.5784  0.3482
 5572SOL    HW117615   3.245   2.945   3.512  1.5589 -0.2088  1.0592
 5572SOL    HW217616   3.238   2.938   3.349 -1.1807 -1.1324  1.1602
 5573SOL     OW17617   3.856   0.654   1.647  0.1086 -0.2388  0.4253
 5573SOL    HW117618   3.865   0.576   1.587  1.7051  1.3928 -1.6050
 5573SOL    HW217619   3.770   0.702   1.628  0.1347 -0.3024  0.1547
 5574SOL     OW17620   6.365   0.090   6.926 -0.2686 -0.0520  0.0015
 5574SOL    HW117621   6.453   0.136   6.931  0.0717 -0.6352 -0.4898
 5574SOL    HW217622   6.358   0.022   7.000  0.1260 -0.7416 -0.5921
 5575SOL     OW17623   4.195   1.290   3.449  0.3480 -0.3877  0.0224
 5575SOL    HW117624   4.262   1.356   3.483  0.6324 -0.3012 -0.6877
 5575SOL    HW217625   4.223   1.258   3.359 -0.8722  0.1050 -0.5533
 5576SOL     OW17626   2.567   5.658   2.980 -0.4430 -0.0069  0.1561
 5576SOL    HW117627   2.638   5.609   2.929 -0.7174 -1.1741  0.8528
 5576SOL    HW217628   2.478   5.615   2.963 -1.1074  1.7475 -1.1199
 5577SOL     OW17629   1.116   3.196   1.022  0.3483 -0.0538 -0.3731
 5577SOL    HW117630   1.107   3.244   1.110 -1.9361 -0.9380 -0.0594
 5577SOL    HW217631   1.063   3.245   0.953  2.6212  0.9767 -1.4815
 5578SOL     OW17632   6.921   3.491   0.099  0.3517 -0.1581  0.0722
 5578SOL    HW117633   6.827   3.496   0.066  0.5504 -0.6955 -0.6116
 5578SOL    HW217634   6.938   3.566   0.163 -0.8713 -0.7304  1.0897
 5579SOL     OW17635   2.877   3.342   6.041  0.0686 -0.3457 -0.8144
 5579SOL    HW117636   2.912   3.382   5.956  0.9934  0.2717 -0.1688
 5579SOL    HW217637   2.954   3.310   6.096 -0.3209  1.3143  0.7798
 5580SOL     OW17638   2.070   5.049   3.320 -0.0608  0.5524 -0.0436
 5580SOL    HW117639   2.100   4.954   3.320 -0.8714  0.2411  2.4494
 5580SOL    HW217640   2.140   5.106   3.276  1.2269 -0.9461 -0.0137
 5581SOL     OW17641   0.377   6.265   6.427  0.1583  0.6801 -0.1237
 5581SOL    HW117642   0.443   6.205   6.381  0.8455  0.6060  0.9299
 5581SOL    HW217643   0.284   6.234   6.406  0.4927 -0.5607  0.1182
 5582SOL     OW17644   1.452   1.780   3.444 -0.3721 -0.5192  0.4495
 5582SOL    HW117645   1.414   1.739   3.361  0.0650  1.6730 -0.9045
 5582SOL    HW217646   1.378   1.806   3.505 -0.8433 -0.1433 -0.2632
 5583SOL     OW17647   0.348   5.558   4.334 -0.8785  0.1751 -0.0924
 5583SOL    HW117648   0.373   5.654   4.324 -2.0546  0.3827 -1.2303
 5583SOL    HW217649   0.255   5.551   4.371 -0.1264 -0.5668  1.7942
 5584SOL     OW17650   4.311   6.872   1.182 -0.3990 -0.2245  0.0062
 5584SOL    HW117651   4.260   6.914   1.107  0.0958  0.2801 -0.0565
 5584SOL    HW217652   4.256   6.873   1.265 -1.3122 -1.6118 -0.5491
 5585SOL     OW17653   5.957   6.736   5.059  0.4795  0.2376  0.2090
 5585SOL    HW117654   6.017   6.683   5.118  0.3453 -0.5360 -0.3260
 5585SOL    HW217655   5.995   6.827   5.045  1.6990 -0.3295 -0.3546
 5586SOL     OW17656   6.702   4.228   4.647 -0.1710 -0.5086  0.2663
 5586SOL    HW117657   6.801   4.228   4.659 -0.1801 -3.7978  1.0734
 5586SOL    HW217658   6.679   4.271   4.560  2.1886 -2.0179 -1.1872
 5587SOL     OW17659   4.920   3.200   3.858 -0.4385 -0.0746 -0.4869
 5587SOL    HW117660   4.885   3.225   3.767  1.2842  0.6676 -0.9863
 5587SOL    HW217661   5.017   3.180   3.852 -0.7819 -2.5329  0.7797
 5588SOL     OW17662   5.445   3.786   3.129 -0.0511  0.1172  0.0461
 5588SOL    HW117663   5.376   3.732   3.175 -0.0693  1.4236  1.6315
 5588SOL    HW217664   5.531   3.735   3.126 -0.8874 -1.3129 -1.5004
 5589SOL     OW17665   5.019   3.763   0.450 -0.1773 -0.4595 -0.4313
 5589SOL    HW117666   4.959   3.708   0.393  1.1111 -4.1553  1.4696
 5589SOL    HW217667   4.964   3.813   0.517 -1.3193 -0.9077 -1.0076
 5590SOL     OW17668   3.007   1.442   2.322 -0.4872 -0.0348 -0.4173
 5590SOL    HW117669   2.963   1.357   2.352 -1.3748  0.0542 -1.4390
 5590SOL    HW217670   3.011   1.444   2.222  0.1660  0.8169 -0.3815
 5591SOL     OW17671   5.196   6.092   1.749  0.1613  0.0925 -0.5532
 5591SOL    HW117672   5.220   6.027   1.821  0.6304 -1.1207 -1.7708
 5591SOL    HW217673   5.097   6.089   1.733 -0.0565  0.9177  0.5305
 5592SOL     OW17674   5.648   3.937   0.149 -0.1479  0.3890 -0.5241
 5592SOL    HW117675   5.683   3.942   0.055 -1.6382  3.3089 -1.0442
 5592SOL    HW217676   5.661   4.025   0.194 -3.2438  0.4133  0.5397
 5593SOL     OW17677   3.633   4.059   4.456 -0.0013  0.2985  0.0438
 5593SOL    HW117678   3.591   4.058   4.365 -1.5099  1.5139  0.6713
 5593SOL    HW217679   3.565   4.090   4.523  0.1091 -3.2711  2.0947
 5594SOL     OW17680   2.223   4.315   2.509  0.3185  0.1600 -0.0217
 5594SOL    HW117681   2.132   4.310   2.467 -0.7824  0.3556  2.1865
 5594SOL    HW217682   2.239   4.232   2.562  0.5927  0.9599  1.1773
 5595SOL     OW17683   6.514   0.183   6.619 -0.1810  0.1409  0.2041
 5595SOL    HW117684   6.414   0.182   6.629 -0.3601 -0.7318 -1.3895
 5595SOL    HW217685   6.554   0.232   6.697 -1.9954  3.1188 -0.5531
 5596SOL     OW17686   2.882   0.736   4.415  0.2935  0.4272  0.1222
 5596SOL    HW117687   2.878   0.779   4.505 -1.8234  0.1835  0.1990
 5596SOL    HW217688   2.874   0.806   4.344  1.0149  0.5285  0.1351
 5597SOL     OW17689   6.725   5.397   6.068 -0.6230 -0.0157  0.2557
 5597SOL    HW117690   6.691   5.478   6.021  0.1110 -0.9975 -2.0815
 5597SOL    HW217691   6.820   5.380   6.042 -0.7799 -1.6476  0.6514
 5598SOL     OW17692   6.723   2.691   1.664  0.1689 -0.1178 -0.3471
 5598SOL    HW117693   6.737   2.618   1.597  0.4466 -0.5410  0.1639
 5598SOL    HW217694   6.737   2.655   1.756 -0.1075  0.4824 -0.0616
 5599SOL     OW17695   3.895   6.760   2.726 -0.3264  0.4092 -0.2019
 5599SOL    HW117696   3.984   6.804   2.732  0.5236 -1.3470  1.1712
 5599SOL    HW217697   3.837   6.791   2.801 -0.9331  1.5965 -1.1295
 5600SOL     OW17698   2.684   2.160   6.839 -0.2332  0.0949  0.0215
 5600SOL    HW117699   2.768   2.190   6.793  0.9019 -2.3892  0.2579
 5600SOL    HW217700   2.614   2.141   6.770  0.4747 -0.7762 -0.4925
 5601SOL     OW17701   0.174   1.157   4.487  0.1145 -0.0085 -0.0118
 5601SOL    HW117702   0.195   1.190   4.395 -1.2613  3.9427  0.8924
 5601SOL    HW217703   0.082   1.116   4.487  0.4040 -0.6909 -0.4693
 5602SOL     OW17704   3.105   0.700   2.401 -0.9595  0.1890 -0.2445
 5602SOL    HW117705   3.121   0.603   2.382 -1.8797 -0.0249  0.0092
 5602SOL    HW217706   3.115   0.753   2.317  1.7250  0.2006  0.0151
 5603SOL     OW17707   3.007   4.557   6.788 -0.2238 -0.4018 -0.3177
 5603SOL    HW117708   2.943   4.505   6.732 -1.6989  0.2534  0.6739
 5603SOL    HW217709   2.975   4.558   6.883  2.9921 -2.8009  0.9955
 5604SOL     OW17710   0.664   0.041   4.449  0.8671 -0.3687  0.5051
 5604SOL    HW117711   0.644  -0.032   4.384 -0.2140 -0.2189  0.6476
 5604SOL    HW217712   0.585   0.102   4.457  0.9394 -0.4182  1.9906
 5605SOL     OW17713   5.315   6.918   1.547 -0.1664  0.3135  0.0204
 5605SOL    HW117714   5.381   6.868   1.604  0.9523  0.8780 -0.7394
 5605SOL    HW217715   5.332   7.016   1.554 -1.2393  0.4996  0.1661
 5606SOL     OW17716   6.204   0.128   2.987  0.1575 -0.1763 -0.1629
 5606SOL    HW117717   6.156   0.084   3.064  0.5719 -0.3495 -0.0012
 5606SOL    HW217718   6.270   0.194   3.023  0.4426 -0.3499 -0.3633
 5607SOL     OW17719   1.842   5.161   6.393 -0.2992 -0.4954 -0.0130
 5607SOL    HW117720   1.774   5.229   6.365  0.4636  0.4885  0.4441
 5607SOL    HW217721   1.812   5.116   6.477 -0.2766  0.1419  0.3461
 5608SOL     OW17722   1.461   2.594   5.757 -0.7172 -0.3816  0.2502
 5608SOL    HW117723   1.535   2.618   5.819 -0.0265  1.0198 -1.0483
 5608SOL    HW217724   1.382   2.563   5.810  0.1310 -0.0735  1.7594
 5609SOL     OW17725   6.132   4.496   6.874  0.2753  0.5812 -0.5065
 5609SOL    HW117726   6.114   4.594   6.866 -2.1267  0.0506 -3.4808
 5609SOL    HW217727   6.228   4.482   6.899  0.8884  3.6468 -0.7388
 5610SOL     OW17728   1.278   1.565   5.082  0.0035  0.4446 -0.3983
 5610SOL    HW117729   1.361   1.593   5.130 -0.5613 -1.0292  1.6068
 5610SOL    HW217730   1.299   1.489   5.020  0.5264  1.5760 -1.6447
 5611SOL     OW17731   3.064   0.780   3.279  0.0749  0.7239 -0.1717
 5611SOL    HW117732   3.141   0.790   3.342 -0.6583  0.6548  0.7581
 5611SOL    HW217733   3.098   0.750   3.190  1.0439 -0.1799  0.4670
 5612SOL     OW17734   6.107   3.720   5.897 -0.3853  0.5382  0.1832
 5612SOL    HW117735   6.101   3.775   5.814 -1.1113 -0.7068 -0.6321
 5612SOL    HW217736   6.202   3.712   5.926 -0.3139  2.6684  0.6692
 5613SOL     OW17737   1.170   1.064   0.523 -0.3853 -0.9545  0.5252
 5613SOL    HW117738   1.252   1.008   0.519 -0.3147 -0.7593 -1.9095
 5613SOL    HW217739   1.190   1.147   0.576  0.7830 -1.1944  0.4932
 5614SOL     OW17740   2.154   5.123   5.645 -0.6051  0.3968 -0.3117
 5614SOL    HW117741   2.253   5.112   5.656 -0.5523  0.3823 -0.7832
 5614SOL    HW217742   2.136   5.204   5.589 -0.8282 -0.0625 -0.9128
 5615SOL     OW17743   2.135   6.965   3.373 -0.3575 -0.4845  0.1888
 5615SOL    HW117744   2.165   6.990   3.465 -0.4814  1.2884 -0.2176
 5615SOL    HW217745   2.206   6.991   3.307 -1.3969  0.7614 -0.4677
 5616SOL     OW17746   3.602   0.856   4.554 -0.5791 -0.2722  0.4794
 5616SOL    HW117747   3.639   0.812   4.473 -1.6587  0.2797 -0.3359
 5616SOL    HW217748   3.672   0.859   4.626  0.3907 -0.7463 -0.4315
 5617SOL     OW17749   3.314   4.848   6.580  0.2480  0.6054  0.0921
 5617SOL    HW117750   3.270   4.842   6.670 -1.3149  0.2042 -0.6747
 5617SOL    HW217751   3.409   4.876   6.592  0.4082 -0.5619  1.9495
 5618SOL     OW17752   4.883   2.904   5.435  0.0437  0.0483  0.5071
 5618SOL    HW117753   4.864   2.939   5.527 -2.1505  0.3784  0.0013
 5618SOL    HW217754   4.873   2.978   5.368 -1.4726 -0.7878 -0.2569
 5619SOL     OW17755   2.824   6.515   1.510 -0.3058 -0.2200 -0.1277
 5619SOL    HW117756   2.899   6.528   1.444 -0.1817  0.2347  0.0989
 5619SOL    HW217757   2.848   6.560   1.596 -0.9521  0.1471 -0.1392
 5620SOL     OW17758   2.039   3.443   3.869 -0.0368  0.0486  0.0573
 5620SOL    HW117759   1.951   3.491   3.865 -0.2798 -0.3578  0.4880
 5620SOL    HW217760   2.059   3.403   3.779 -1.7530 -2.4312  0.6794
 5621SOL     OW17761   5.052   3.922   6.488 -0.1251  0.0470 -0.7766
 5621SOL    HW117762   4.985   3.860   6.447 -1.9305  0.3937  1.4529
 5621SOL    HW217763   5.009   4.010   6.508  2.0804  1.7494 -2.7809
 5622SOL     OW17764   1.274   1.626   1.589 -0.0826 -0.7112  0.3690
 5622SOL    HW117765   1.314   1.683   1.517  0.7248  1.6330  2.5025
 5622SOL    HW217766   1.347   1.593   1.649 -0.7358 -2.5790  0.2085
 5623SOL     OW17767   3.054   6.327   4.954  0.3020 -0.0169 -0.0174
 5623SOL    HW117768   3.057   6.276   5.040  0.7057  1.9671  1.2012
 5623SOL    HW217769   3.000   6.410   4.966  0.2267  0.2240 -1.7399
 5624SOL     OW17770   0.033   3.772   3.147 -0.3657 -0.3571  0.2921
 5624SOL    HW117771   0.116   3.783   3.093 -1.3223 -0.2507 -1.1957
 5624SOL    HW217772   0.043   3.693   3.208  1.2558  0.3596  1.0075
 5625SOL     OW17773   2.940   0.917   0.447  0.2806 -0.3778  0.1045
 5625SOL    HW117774   3.007   0.987   0.471  0.6282 -1.4333  2.4885
 5625SOL    HW217775   2.849   0.959   0.442  0.8885  0.8320 -1.9517
 5626SOL     OW17776   6.045   0.561   4.867 -0.3227  0.1417  0.0170
 5626SOL    HW117777   5.961   0.519   4.900 -1.8082  0.7720 -2.6066
 5626SOL    HW217778   6.034   0.660   4.864  1.2079  0.3789  1.2884
 5627SOL     OW17779   5.103   6.704   6.634  0.1386  0.2289  0.4988
 5627SOL    HW117780   5.069   6.782   6.582  2.6437  0.4258 -0.9859
 5627SOL    HW217781   5.060   6.704   6.725 -1.6862  1.9305 -0.2847
 5628SOL     OW17782   2.625   3.461   5.943  0.2750 -0.4084  0.8672
 5628SOL    HW117783   2.674   3.392   5.997 -2.1519 -2.1012  1.0709
 5628SOL    HW217784   2.538   3.422   5.911 -0.2301  1.9227 -0.7952
 5629SOL     OW17785   3.520   0.540   4.635  0.1552 -0.7581 -0.1160
 5629SOL    HW117786   3.566   0.451   4.626  0.7442 -0.4332 -0.4120
 5629SOL    HW217787   3.452   0.549   4.562 -1.2694 -1.7413  1.0331
 5630SOL     OW17788   4.733   2.843   1.561 -0.0641  0.2979  0.5311
 5630SOL    HW117789   4.691   2.785   1.632 -2.3202 -0.0379 -0.9694
 5630SOL    HW217790   4.758   2.931   1.601 -2.5330  0.6341  1.5523
 5631SOL     OW17791   0.577   5.259   1.445  0.0575  0.1246 -0.3988
 5631SOL    HW117792   0.483   5.294   1.447 -0.2310 -0.6264  1.4541
 5631SOL    HW217793   0.583   5.186   1.377 -1.8262 -2.5605  2.0902
 5632SOL     OW17794   2.555   5.955   1.891  0.2460 -0.0896  0.0715
 5632SOL    HW117795   2.464   5.990   1.911  0.5952  0.2750  1.0692
 5632SOL    HW217796   2.623   6.011   1.937  1.1911  1.4358 -2.9305
 5633SOL     OW17797   3.312   5.547   1.853  0.1271  0.2451 -0.5021
 5633SOL    HW117798   3.383   5.609   1.820 -1.1769  1.1808 -1.6544
 5633SOL    HW217799   3.351   5.456   1.866  1.6660  0.8648 -0.5109
 5634SOL     OW17800   0.971   3.111   0.472  0.1315 -0.8622 -0.0650
 5634SOL    HW117801   0.986   3.116   0.373 -0.3796  0.2181 -0.0979
 5634SOL    HW217802   0.976   3.202   0.512  0.5993 -1.3212  0.9573
 5635SOL     OW17803   1.609   0.489   0.830  0.0874  0.2498 -0.0767
 5635SOL    HW117804   1.562   0.424   0.890  1.3516 -0.4124  0.2175
 5635SOL    HW217805   1.696   0.516   0.871  1.0446 -0.3138 -1.6641
 5636SOL     OW17806   3.218   2.257   6.676  0.2515  0.3553 -0.1284
 5636SOL    HW117807   3.233   2.280   6.580  1.4738 -1.5569 -0.4381
 5636SOL    HW217808   3.306   2.251   6.723  0.1168 -3.2596 -0.0506
 5637SOL     OW17809   1.803   5.780   4.092  0.0983 -0.4755  0.6267
 5637SOL    HW117810   1.739   5.832   4.035  2.2382  0.3711 -1.1423
 5637SOL    HW217811   1.814   5.825   4.180 -3.3472 -1.8519  1.9132
 5638SOL     OW17812   6.768   5.109   6.529 -0.4386  0.0239 -0.5395
 5638SOL    HW117813   6.694   5.098   6.462 -1.1515 -0.0038  0.2431
 5638SOL    HW217814   6.847   5.057   6.499 -1.4544 -1.7206 -0.3184
 5639SOL     OW17815   6.579   2.239   0.688  0.8881  0.3670 -0.0737
 5639SOL    HW117816   6.584   2.327   0.642  0.3206  0.5788  0.2690
 5639SOL    HW217817   6.581   2.166   0.620 -1.0144  0.6953 -0.5336
 5640SOL     OW17818   6.503   6.712   4.063 -0.1728  0.0641  0.5687
 5640SOL    HW117819   6.475   6.698   3.968 -2.2896 -2.3518  1.4553
 5640SOL    HW217820   6.595   6.676   4.077 -0.4162 -0.8897 -0.2449
 5641SOL     OW17821   3.100   1.775   0.803 -0.3671  0.0917 -0.3739
 5641SOL    HW117822   3.118   1.853   0.743 -0.4624 -0.5366 -1.2379
 5641SOL    HW217823   3.158   1.780   0.883 -2.3062  2.5593  1.0019
 5642SOL     OW17824   6.854   2.247   2.954 -0.1591 -0.0195 -0.2492
 5642SOL    HW117825   6.818   2.156   2.935 -0.1972 -0.1960  0.6442
 5642SOL    HW217826   6.954   2.245   2.946 -0.2715  0.3358 -2.1526
 5643SOL     OW17827   4.779   1.499   2.558  0.7420  0.2847 -0.1409
 5643SOL    HW117828   4.808   1.592   2.577 -1.1055  1.0889 -0.9817
 5643SOL    HW217829   4.810   1.472   2.467  2.5005 -0.4958  0.6460
 5644SOL     OW17830   2.157   2.228   4.273  0.4167 -0.0641  0.3141
 5644SOL    HW117831   2.062   2.197   4.265  0.6378 -1.0682  1.3747
 5644SOL    HW217832   2.218   2.150   4.269  0.9700  0.0732  3.3734
 5645SOL     OW17833   1.757   6.840   0.603 -0.1467 -0.4203 -0.6378
 5645SOL    HW117834   1.705   6.857   0.687 -0.5505 -1.1133 -0.7357
 5645SOL    HW217835   1.794   6.747   0.606 -0.1696 -0.4526 -1.2262
 5646SOL     OW17836   3.102   3.330   3.155  0.4673 -0.0055  0.2864
 5646SOL    HW117837   3.042   3.408   3.138  0.6820 -0.0456 -0.6845
 5646SOL    HW217838   3.141   3.338   3.247 -0.0411  0.6722  0.4542
 5647SOL     OW17839   3.435   1.344   4.766  0.1370 -0.4484  0.4648
 5647SOL    HW117840   3.514   1.397   4.797  0.9751  1.0479 -3.6573
 5647SOL    HW217841   3.466   1.259   4.724 -0.7337 -1.1741  1.2366
 5648SOL     OW17842   1.125   1.515   1.155 -0.3991  0.0878 -0.6716
 5648SOL    HW117843   1.057   1.536   1.225 -0.6954  0.1888 -0.9818
 5648SOL    HW217844   1.079   1.475   1.076  0.1979 -2.0792  0.0297
 5649SOL     OW17845   5.011   4.800   0.549  0.4246 -0.2812 -0.3385
 5649SOL    HW117846   5.014   4.900   0.537  0.2871 -0.2128  0.1721
 5649SOL    HW217847   4.923   4.765   0.515  1.6648 -0.6654 -3.5418
 5650SOL     OW17848   6.134   1.765   6.644 -0.0797  0.3526  0.4932
 5650SOL    HW117849   6.066   1.714   6.592 -0.4143 -2.2669  3.1977
 5650SOL    HW217850   6.224   1.752   6.604 -0.8228  2.3865 -2.0835
 5651SOL     OW17851   1.918   1.632   5.620 -0.1377  0.2605  0.6753
 5651SOL    HW117852   1.963   1.684   5.548  0.3603  1.1702  1.6174
 5651SOL    HW217853   1.819   1.634   5.605  0.0275 -0.9895 -0.9009
 5652SOL     OW17854   1.196   3.542   3.602 -0.1543  0.0628  0.2992
 5652SOL    HW117855   1.213   3.498   3.514 -1.2728  0.9536 -0.3847
 5652SOL    HW217856   1.204   3.474   3.675  0.1848 -0.8193 -0.5444
 5653SOL     OW17857   6.191   0.399   3.104 -0.3695 -0.1050 -0.5841
 5653SOL    HW117858   6.245   0.480   3.125 -1.2388  0.4968 -0.6169
 5653SOL    HW217859   6.198   0.334   3.180  2.4225 -1.1820 -1.6311
 5654SOL     OW17860   4.244   2.334   1.904  0.3481 -0.5368 -0.7041
 5654SOL    HW117861   4.149   2.353   1.880  0.2750 -0.2167 -0.1724
 5654SOL    HW217862   4.247   2.272   1.982  0.5583  0.5060  0.1318
 5655SOL     OW17863   6.335   2.509   4.177  0.6713 -0.2986  0.0228
 5655SOL    HW117864   6.373   2.509   4.085 -1.2186 -1.9248 -0.8409
 5655SOL    HW217865   6.298   2.600   4.197 -1.5763 -0.6343 -2.0937
 5656SOL     OW17866   2.296   4.916   3.025  0.4647 -0.0337 -0.6889
 5656SOL    HW117867   2.260   4.859   3.098  0.4316 -0.4547 -1.0324
 5656SOL    HW217868   2.392   4.893   3.008  0.1763 -0.6857 -1.4987
 5657SOL     OW17869   4.714   5.499   1.338  0.1454 -0.2826  0.2043
 5657SOL    HW117870   4.652   5.563   1.384  0.6328  0.1762  0.2330
 5657SOL    HW217871   4.751   5.434   1.405  0.3387 -0.0326  0.3435
 5658SOL     OW17872   6.641   4.582   5.053  0.0204 -0.1886  0.1339
 5658SOL    HW117873   6.647   4.548   4.959  0.2725 -1.0196  0.4468
 5658SOL    HW217874   6.676   4.676   5.057 -1.5170  0.4868 -0.9149
 5659SOL     OW17875   5.486   2.735   3.284  0.0654 -0.2865 -0.1216
 5659SOL    HW117876   5.579   2.759   3.257  0.0519 -0.4913 -0.3503
 5659SOL    HW217877   5.488   2.687   3.372  0.1765 -0.3156 -0.1406
 5660SOL     OW17878   2.054   2.550   0.138 -0.0206 -0.0462 -0.1052
 5660SOL    HW117879   2.051   2.581   0.233 -1.1854  0.9396 -0.4425
 5660SOL    HW217880   2.093   2.458   0.135 -0.2019 -0.2039  1.3472
 5661SOL     OW17881   2.017   4.316   4.807  0.6040  0.0436  0.6080
 5661SOL    HW117882   2.097   4.266   4.774 -1.0341 -1.9527 -0.5397
 5661SOL    HW217883   1.989   4.383   4.738  1.1409  0.6358  0.9453
 5662SOL     OW17884   3.263   3.336   5.139  0.2436 -0.0249  0.0876
 5662SOL    HW117885   3.211   3.306   5.219  1.8306  0.4749  1.3755
 5662SOL    HW217886   3.341   3.392   5.169 -0.2928  1.9739 -1.9560
 5663SOL     OW17887   2.851   4.780   2.424  0.5684 -0.1637  0.3707
 5663SOL    HW117888   2.949   4.795   2.441  0.4662 -0.0686  0.8935
 5663SOL    HW217889   2.840   4.723   2.342  1.0212  1.2467 -0.7343
 5664SOL     OW17890   5.437   0.347   2.439  0.5248  0.1853  0.1122
 5664SOL    HW117891   5.417   0.384   2.349  0.4212  0.5827  0.2940
 5664SOL    HW217892   5.358   0.359   2.499 -0.4385 -2.5316 -0.4851
 5665SOL     OW17893   6.064   4.919   4.134 -0.0852  0.4430  0.4359
 5665SOL    HW117894   6.052   4.863   4.052 -0.1927  2.2980 -0.8849
 5665SOL    HW217895   5.998   4.891   4.204 -2.4140  1.0353 -1.3886
 5666SOL     OW17896   5.668   4.587   0.682 -0.0690 -0.1212 -0.4433
 5666SOL    HW117897   5.684   4.570   0.779  0.9200  0.8311 -0.4185
 5666SOL    HW217898   5.703   4.677   0.658 -1.6841  0.2887 -1.3708
 5667SOL     OW17899   0.011   2.253   2.484  0.3452  0.3143 -0.0421
 5667SOL    HW117900  -0.027   2.295   2.566 -0.0005 -1.0212  0.4973
 5667SOL    HW217901  -0.029   2.296   2.403  0.5671  1.5280  0.4707
 5668SOL     OW17902   3.331   2.251   0.648  0.3183 -0.2628  0.2979
 5668SOL    HW117903   3.371   2.314   0.582  0.5840 -0.8456 -0.1123
 5668SOL    HW217904   3.254   2.203   0.605 -0.7584  0.7557  1.0378
 5669SOL     OW17905   5.447   4.861   4.572 -0.0322  0.3973  0.3455
 5669SOL    HW117906   5.419   4.944   4.619  0.7228  1.1405 -0.4738
 5669SOL    HW217907   5.381   4.840   4.500  0.6544  1.2846 -0.5795
 5670SOL     OW17908   5.270   0.913   0.657 -0.2638  0.0532 -0.1538
 5670SOL    HW117909   5.170   0.907   0.653 -0.4345  1.6431  0.7005
 5670SOL    HW217910   5.299   1.004   0.626  0.7409  0.3203  1.4170
 5671SOL     OW17911   1.436   3.553   5.863 -0.0871 -0.3440  0.1066
 5671SOL    HW117912   1.458   3.538   5.766 -1.2679  0.0240 -0.2394
 5671SOL    HW217913   1.341   3.524   5.880 -1.0238  2.5932  0.3731
 5672SOL     OW17914   4.037   3.424   2.016  0.3571 -0.3304  0.3085
 5672SOL    HW117915   4.037   3.430   2.116 -2.1883  0.5208  0.3303
 5672SOL    HW217916   4.070   3.510   1.977  0.2297 -0.2295  0.4233
 5673SOL     OW17917   5.294   4.783   3.591  0.2152  0.3458  0.0271
 5673SOL    HW117918   5.291   4.720   3.669 -0.3733  0.2201 -0.0882
 5673SOL    HW217919   5.308   4.876   3.624  0.1848  0.2682  0.2645
 5674SOL     OW17920   6.405   0.573   5.768  0.0045  0.5676 -0.5725
 5674SOL    HW117921   6.305   0.565   5.768  0.1299 -1.4043  0.8381
 5674SOL    HW217922   6.445   0.495   5.720  0.8964  1.1179 -0.7449
 5675SOL     OW17923   0.398   2.502   2.674  0.0999  0.3504  0.0909
 5675SOL    HW117924   0.384   2.601   2.667 -0.6968  0.1359 -2.6339
 5675SOL    HW217925   0.473   2.475   2.613  0.7366 -0.6721  1.2970
 5676SOL     OW17926   6.739   4.237   0.953 -0.1451  0.1160 -0.1113
 5676SOL    HW117927   6.773   4.218   1.045 -0.5420 -2.3298 -0.4213
 5676SOL    HW217928   6.648   4.198   0.942 -0.1422  0.4483 -1.5239
 5677SOL     OW17929   0.418   2.439   1.804  0.9173 -0.9554 -0.0757
 5677SOL    HW117930   0.464   2.490   1.876  2.1389 -1.2015 -0.6496
 5677SOL    HW217931   0.407   2.344   1.832  0.2995 -0.7921  0.2561
 5678SOL     OW17932   0.814   4.035   5.732 -0.2217  0.1279 -0.6851
 5678SOL    HW117933   0.882   4.042   5.659 -0.7960 -0.1679 -1.2618
 5678SOL    HW217934   0.840   3.962   5.795 -0.0007  0.0200 -0.9018
 5679SOL     OW17935   3.792   1.273   2.153  0.6157  0.0483 -0.4294
 5679SOL    HW117936   3.750   1.256   2.063 -1.4636  0.6091  0.3626
 5679SOL    HW217937   3.789   1.371   2.172  0.2958 -0.1470  0.5659
 5680SOL     OW17938   0.882   6.862   5.650 -0.0094 -0.0144  0.1103
 5680SOL    HW117939   0.827   6.926   5.596 -0.4544 -1.1119 -0.7746
 5680SOL    HW217940   0.888   6.774   5.602 -0.0567 -0.8931  1.6461
 5681SOL     OW17941   4.212   3.203   1.897 -0.2904  0.3741 -0.4263
 5681SOL    HW117942   4.272   3.176   1.972 -1.6989 -1.6095  0.0630
 5681SOL    HW217943   4.122   3.228   1.934 -1.0628 -0.8076 -1.4215
 5682SOL     OW17944   2.210   0.011   2.579 -0.4035 -0.7250 -0.6148
 5682SOL    HW117945   2.133   0.032   2.638 -1.0540 -0.5821 -1.5031
 5682SOL    HW217946   2.212  -0.087   2.560  0.6423 -1.0115  0.7664
 5683SOL     OW17947   4.599   0.989   6.716 -0.3268  0.2951 -0.0926
 5683SOL    HW117948   4.678   1.051   6.708 -0.6260  0.7226  0.2330
 5683SOL    HW217949   4.573   0.957   6.625  1.1682 -1.0675 -0.0941
 5684SOL     OW17950   3.831   1.106   1.520  0.5812  0.4671 -0.1175
 5684SOL    HW117951   3.796   1.013   1.510 -0.6195  0.8437  0.3942
 5684SOL    HW217952   3.760   1.164   1.560  1.0184  1.7831 -1.1627
 5685SOL     OW17953   1.254   0.151   3.357  0.3581  0.3022 -0.1397
 5685SOL    HW117954   1.227   0.146   3.453 -0.4737 -1.4134 -0.4155
 5685SOL    HW217955   1.173   0.155   3.299  0.7283 -1.6114 -0.8654
 5686SOL     OW17956   6.965   0.915   2.771 -0.0114  0.0039 -0.0723
 5686SOL    HW117957   6.920   1.004   2.763 -0.7305 -0.4408 -1.1740
 5686SOL    HW217958   7.004   0.890   2.682  1.0653 -0.3336  0.4824
 5687SOL     OW17959   4.914   0.162   3.512 -0.5014  0.9356  0.3542
 5687SOL    HW117960   4.824   0.155   3.469 -1.5204 -0.4124  2.5257
 5687SOL    HW217961   4.903   0.165   3.612  1.9047 -0.5695  0.7432
 5688SOL     OW17962   6.029   5.897   4.179 -0.6675  0.2390  0.1416
 5688SOL    HW117963   6.016   5.950   4.262 -0.6772  0.6337 -0.1091
 5688SOL    HW217964   6.087   5.818   4.198  0.3505  1.0030  0.2563
 5689SOL     OW17965   3.862   4.613   0.708 -0.5263 -0.6643  0.5077
 5689SOL    HW117966   3.831   4.519   0.723  0.4165 -0.6484  3.1736
 5689SOL    HW217967   3.827   4.671   0.781  0.2773  0.7055 -0.1683
 5690SOL     OW17968   0.244   4.187   4.974 -0.2018  0.1520  0.1346
 5690SOL    HW117969   0.145   4.192   4.990 -0.4348 -3.3348  0.5682
 5690SOL    HW217970   0.292   4.231   5.050 -1.4498 -0.4321  1.3002
 5691SOL     OW17971   5.040   6.154   0.035 -0.2589  0.3509 -0.0008
 5691SOL    HW117972   5.009   6.249   0.029  1.4198  0.9186 -0.2402
 5691SOL    HW217973   5.128   6.145  -0.010 -0.5345 -1.4156 -0.2590
 5692SOL     OW17974   6.757   1.622   4.491  0.5193 -0.6032  0.1171
 5692SOL    HW117975   6.795   1.564   4.563 -0.0402 -0.6665  0.3710
 5692SOL    HW217976   6.667   1.656   4.520 -0.2563 -1.6010 -1.0272
 5693SOL     OW17977   1.521   3.018   3.664 -0.2999 -0.6435 -0.1499
 5693SOL    HW117978   1.603   2.961   3.662  0.9218  1.0450 -0.1701
 5693SOL    HW217979   1.538   3.104   3.616 -1.4175  0.5815  1.4935
 5694SOL     OW17980   0.183   6.780   1.737  0.0330 -0.3259 -0.0807
 5694SOL    HW117981   0.212   6.867   1.695 -1.2651 -0.9841 -2.5023
 5694SOL    HW217982   0.110   6.798   1.802 -0.1741  0.4211 -0.5029
 5695SOL     OW17983   1.220   4.180   5.852 -0.4491  0.4048  0.0876
 5695SOL    HW117984   1.136   4.155   5.804  0.2449 -3.0848  0.4571
 5695SOL    HW217985   1.208   4.167   5.950  0.9616 -1.9925  0.0231
 5696SOL     OW17986   6.496   1.511   5.127 -0.2727  0.1884  0.3720
 5696SOL    HW117987   6.442   1.593   5.107  0.6964  1.0905  1.3584
 5696SOL    HW217988   6.561   1.495   5.053 -0.4962  0.2768  0.1536
 5697SOL     OW17989   4.774   2.223   3.376 -0.3598 -0.1426  0.1780
 5697SOL    HW117990   4.829   2.142   3.358 -0.6048 -0.0090 -1.2916
 5697SOL    HW217991   4.710   2.237   3.301 -1.4662  0.4788  1.2166
 5698SOL     OW17992   0.298   2.520   6.508  0.1513  0.0325  0.5479
 5698SOL    HW117993   0.287   2.547   6.413  1.6881  0.8841  0.5844
 5698SOL    HW217994   0.370   2.575   6.551 -0.0526 -0.7842  2.0191
 5699SOL     OW17995   0.144   2.328   7.011  0.5220 -0.0161 -0.2331
 5699SOL    HW117996   0.177   2.421   6.992 -0.4783  0.7257  1.4116
 5699SOL    HW217997   0.157   2.307   7.107 -0.2516 -1.1843 -0.3580
 5700SOL     OW17998   0.302   6.862   3.585 -0.3194 -0.1365  0.3640
 5700SOL    HW117999   0.394   6.840   3.554  0.8291  3.1757  0.9757
 5700SOL    HW218000   0.243   6.879   3.506  0.1616 -0.2556 -0.0243
 5701SOL     OW18001   6.787   6.802   2.272  0.0162  0.1427  0.7862
 5701SOL    HW118002   6.839   6.751   2.204 -2.2992 -0.4090 -0.6866
 5701SOL    HW218003   6.801   6.761   2.362 -0.1089 -1.8284 -0.0390
 5702SOL     OW18004   1.569   5.647   6.302  0.3055  0.1840  0.3614
 5702SOL    HW118005   1.509   5.700   6.242 -0.0604 -0.9140 -0.2543
 5702SOL    HW218006   1.521   5.625   6.387 -0.1141 -0.5484 -0.0605
 5703SOL     OW18007   5.366   3.005   2.403  0.8876  0.0618  0.1494
 5703SOL    HW118008   5.440   2.968   2.348  1.4170  1.5305 -0.1857
 5703SOL    HW218009   5.315   3.072   2.349 -1.4259 -1.7003 -0.0104
 5704SOL     OW18010   4.807   0.917   3.084  0.5564  0.4395  0.1182
 5704SOL    HW118011   4.760   0.867   3.011  0.9087 -2.4102  1.7138
 5704SOL    HW218012   4.905   0.917   3.066  0.4254  2.4023 -0.8717
 5705SOL     OW18013   6.635   0.014   4.375 -0.1034  0.1995  0.3857
 5705SOL    HW118014   6.593  -0.036   4.451 -0.9210 -0.1494 -0.2775
 5705SOL    HW218015   6.582   0.097   4.356 -0.2134  0.0102 -0.1446
 5706SOL     OW18016   0.796   1.783   0.036 -0.8416  0.2291  0.0731
 5706SOL    HW118017   0.697   1.797   0.030 -0.7866  0.2264 -1.0825
 5706SOL    HW218018   0.836   1.792  -0.055 -0.0221 -1.5672  0.2154
 5707SOL     OW18019   5.582   6.496   3.691  0.0103  0.3304 -0.5541
 5707SOL    HW118020   5.492   6.488   3.732  0.2420 -0.1977 -0.1366
 5707SOL    HW218021   5.624   6.583   3.717 -1.6269  2.1000 -3.3044
 5708SOL     OW18022   0.930   1.225   6.958  0.1079  0.5947 -0.3227
 5708SOL    HW118023   0.875   1.164   7.015 -0.8635  1.8746  0.1552
 5708SOL    HW218024   0.877   1.306   6.934  1.6098  1.6323 -0.3118
 5709SOL     OW18025   0.783   5.003   4.819  0.0773 -0.3546  0.8220
 5709SOL    HW118026   0.694   5.032   4.855 -1.3158 -1.5198 -1.4672
 5709SOL    HW218027   0.850   5.076   4.833 -1.7728  1.4650  0.7016
 5710SOL     OW18028   2.571   0.734   3.573  0.3131  0.6432  0.2710
 5710SOL    HW118029   2.613   0.787   3.647  0.7507 -0.5664  0.9024
 5710SOL    HW218030   2.516   0.660   3.611  0.7852 -0.1897 -0.6089
 5711SOL     OW18031   4.021   2.822   1.679  0.0202  0.3204  0.3102
 5711SOL    HW118032   4.092   2.822   1.608  0.4230  1.2416  0.6931
 5711SOL    HW218033   4.034   2.902   1.738 -0.1325 -0.5744  1.5930
 5712SOL     OW18034   0.720   5.166   3.778  0.4607 -0.1649  0.2943
 5712SOL    HW118035   0.780   5.110   3.834  1.5540  0.8343  0.1676
 5712SOL    HW218036   0.716   5.259   3.815 -0.6936 -0.1041  0.0614
 5713SOL     OW18037   3.071   2.878   1.658  0.1756 -0.4151  0.6566
 5713SOL    HW118038   3.116   2.930   1.586 -0.4644 -1.0533 -0.2273
 5713SOL    HW218039   3.075   2.929   1.744  1.9383 -0.1512  0.4398
 5714SOL     OW18040   6.796   6.006   3.715 -0.1264 -0.6522 -0.3819
 5714SOL    HW118041   6.783   6.040   3.622  0.1041 -0.5937 -0.3919
 5714SOL    HW218042   6.892   5.984   3.730  0.2404  1.3103  0.4904
 5715SOL     OW18043   0.971   0.929   2.965  0.0452 -0.1663 -0.0658
 5715SOL    HW118044   0.966   1.009   2.905 -1.3655 -0.6852 -0.6808
 5715SOL    HW218045   0.887   0.922   3.018  1.2155  0.2226  1.9549
 5716SOL     OW18046   2.608   1.033   0.254 -0.1396 -0.2247 -0.1760
 5716SOL    HW118047   2.637   1.064   0.344 -2.1020  2.7103 -0.4251
 5716SOL    HW218048   2.559   0.946   0.264  1.7606 -1.2187  1.1854
 5717SOL     OW18049   0.625   4.468   5.498  0.4733  0.4052 -0.1315
 5717SOL    HW118050   0.605   4.549   5.442 -1.8288 -0.0394 -0.0640
 5717SOL    HW218051   0.682   4.495   5.576  2.0221  1.4075 -1.5412
 5718SOL     OW18052   5.357   4.043   3.858 -0.1917  0.1921 -0.5112
 5718SOL    HW118053   5.332   4.090   3.942  1.9719 -0.0866  0.3747
 5718SOL    HW218054   5.298   3.963   3.846  0.1015 -0.3809  1.3668
 5719SOL     OW18055   2.411   0.993   1.730 -0.2973  0.7222 -0.0037
 5719SOL    HW118056   2.408   0.959   1.636  1.2559  1.7401 -0.4392
 5719SOL    HW218057   2.490   0.954   1.777  0.8696  2.8083 -0.1667
 5720SOL     OW18058   1.814   2.430   4.044 -0.0410 -0.4768 -0.0324
 5720SOL    HW118059   1.906   2.402   4.015 -0.1950  0.4430 -1.5236
 5720SOL    HW218060   1.748   2.402   3.975 -0.8306 -0.6815  0.7934
 5721SOL     OW18061   1.794   3.678   6.632  0.1948  0.6744  0.0432
 5721SOL    HW118062   1.709   3.731   6.629  0.5821  1.3802  1.0227
 5721SOL    HW218063   1.801   3.630   6.719 -0.4749 -1.6038 -1.1014
 5722SOL     OW18064   2.308   0.190   1.949  0.3146 -0.0905  0.2529
 5722SOL    HW118065   2.241   0.120   1.972  0.1913  0.5044  1.7665
 5722SOL    HW218066   2.356   0.219   2.031  2.3553 -0.3934 -0.7601
 5723SOL     OW18067   2.005   2.938   2.674 -0.0939  0.2564 -0.0057
 5723SOL    HW118068   2.001   3.027   2.628 -1.2465  0.6431  0.7908
 5723SOL    HW218069   1.962   2.869   2.616 -1.1238  0.6495  0.2653
 5724SOL     OW18070   0.832   1.827   1.123 -0.4431  0.0705 -0.4914
 5724SOL    HW118071   0.794   1.919   1.136  0.2526  0.3132 -0.1221
 5724SOL    HW218072   0.911   1.816   1.182  1.6039  0.4667 -2.9668
 5725SOL     OW18073   2.476   0.560   5.379 -0.3336  0.2409 -0.7242
 5725SOL    HW118074   2.516   0.631   5.437 -1.9637  0.8971 -0.3482
 5725SOL    HW218075   2.540   0.484   5.370 -0.0775  0.0097  2.1269
 5726SOL     OW18076   0.403   0.597   1.487 -0.7379  0.7597 -0.3555
 5726SOL    HW118077   0.374   0.679   1.537 -0.4224  0.8456 -0.3128
 5726SOL    HW218078   0.470   0.547   1.541 -3.1057 -1.1461  0.9935
 5727SOL     OW18079   6.444   0.692   6.746 -0.0572 -0.2251  0.4853
 5727SOL    HW118080   6.394   0.610   6.718 -0.1001  0.7927 -2.8465
 5727SOL    HW218081   6.382   0.770   6.749  0.4388  0.1532  1.2499
 5728SOL     OW18082   1.473   0.163   6.204 -0.1289 -0.0071  0.3342
 5728SOL    HW118083   1.388   0.214   6.192 -0.3424 -0.2410  0.8156
 5728SOL    HW218084   1.546   0.225   6.231 -0.4734  0.0093  1.2955
 5729SOL     OW18085   6.125   0.490   0.187  0.4827 -0.1697  0.4606
 5729SOL    HW118086   6.170   0.579   0.192  0.0138  0.1242 -0.4665
 5729SOL    HW218087   6.177   0.429   0.127  0.2146 -0.1682  0.2250
 5730SOL     OW18088   0.427   0.180   4.439  0.1673 -0.5813 -0.3892
 5730SOL    HW118089   0.382   0.160   4.526  0.8158 -0.5883 -0.0432
 5730SOL    HW218090   0.379   0.254   4.393 -0.3187 -0.7333 -0.1300
 5731SOL     OW18091   0.117   6.273   4.182  0.4938  0.7154 -1.0513
 5731SOL    HW118092   0.121   6.173   4.177  0.4394  0.7464 -1.9518
 5731SOL    HW218093   0.023   6.302   4.198  0.7900  0.5775  1.2206
 5732SOL     OW18094   3.832   3.480   0.493  0.3982  0.3164 -0.1389
 5732SOL    HW118095   3.762   3.453   0.426  0.1850  2.4651 -0.8364
 5732SOL    HW218096   3.794   3.476   0.585 -0.4446  0.8740 -0.4631
 5733SOL     OW18097   3.607   2.245   5.743  0.5769  0.3299 -0.5818
 5733SOL    HW118098   3.640   2.258   5.837 -1.2109  0.5278  0.0514
 5733SOL    HW218099   3.678   2.200   5.689  2.0117  1.0953  0.5903
 5734SOL     OW18100   1.213   3.885   4.923 -0.4758  0.1949 -0.3025
 5734SOL    HW118101   1.161   3.802   4.941 -0.7911  0.5953  0.6566
 5734SOL    HW218102   1.299   3.861   4.878  1.7120 -1.2147  4.1174
 5735SOL     OW18103   6.098   2.054   1.958  0.1152  0.2359  0.0958
 5735SOL    HW118104   6.131   1.966   1.925  1.2190  0.2804  1.0329
 5735SOL    HW218105   6.078   2.048   2.056  0.8574  1.1873  0.3267
 5736SOL     OW18106   1.968   5.445   2.811 -0.1608 -0.5134  0.0790
 5736SOL    HW118107   1.899   5.383   2.846  0.8366 -1.0092  1.2772
 5736SOL    HW218108   1.934   5.492   2.730 -1.0575 -2.3799 -0.6761
 5737SOL     OW18109   1.780   2.334   1.103  0.5835  0.4445 -0.5445
 5737SOL    HW118110   1.853   2.401   1.087  1.6603 -0.8053 -1.0113
 5737SOL    HW218111   1.775   2.272   1.025 -0.3622 -0.0659 -0.0875
 5738SOL     OW18112   2.537   1.131   0.667 -0.7733  0.0996  0.6797
 5738SOL    HW118113   2.565   1.043   0.707  0.8302 -0.6819 -1.9196
 5738SOL    HW218114   2.455   1.118   0.612 -1.7714  0.7325  1.9679
 5739SOL     OW18115   1.161   5.326   4.742 -0.6113 -0.0362 -0.2483
 5739SOL    HW118116   1.239   5.271   4.772 -1.3951 -0.5956  0.8429
 5739SOL    HW218117   1.160   5.412   4.792 -0.6876 -0.0298 -0.2603
 5740SOL     OW18118   2.407   0.226   1.598  0.0674  0.2303  0.2426
 5740SOL    HW118119   2.410   0.266   1.507 -1.1900  1.0411  0.5387
 5740SOL    HW218120   2.379   0.295   1.665  0.7057 -0.4155  1.2192
 5741SOL     OW18121   6.697   0.670   4.338 -0.2624  0.6064 -0.5543
 5741SOL    HW118122   6.622   0.731   4.313 -1.2240 -0.5381 -0.5771
 5741SOL    HW218123   6.685   0.639   4.432 -0.1338 -0.0085 -0.7348
 5742SOL     OW18124   2.803   0.148   4.619 -0.6502 -0.1185 -0.0434
 5742SOL    HW118125   2.711   0.117   4.643 -0.4927 -0.6490 -0.1136
 5742SOL    HW218126   2.832   0.106   4.533 -1.4461  2.2297 -1.5652
 5743SOL     OW18127   6.039   6.274   5.556 -0.6316  0.1723 -0.7662
 5743SOL    HW118128   6.066   6.180   5.537  1.7093  1.1466 -2.8623
 5743SOL    HW218129   6.091   6.308   5.634 -1.1538 -0.1011 -0.2888
 5744SOL     OW18130   1.464   5.468   3.564  0.4394 -0.0871 -0.2171
 5744SOL    HW118131   1.437   5.371   3.565 -1.0495  0.2412 -2.0414
 5744SOL    HW218132   1.393   5.522   3.609  0.0396  0.3610 -1.3409
 5745SOL     OW18133   4.562   0.193   1.375  0.2613  0.2860 -0.6249
 5745SOL    HW118134   4.625   0.258   1.333  0.7074 -0.1038 -0.5604
 5745SOL    HW218135   4.574   0.193   1.474 -0.6814  1.0883 -0.4899
 5746SOL     OW18136   2.444   1.588   6.493 -0.7714  0.0974 -0.1905
 5746SOL    HW118137   2.420   1.519   6.561  0.4406 -1.0975 -0.9176
 5746SOL    HW218138   2.361   1.627   6.454 -1.4800 -0.6519  0.5335
 5747SOL     OW18139   1.697   0.185   1.135 -0.1288 -0.3079  0.3266
 5747SOL    HW118140   1.659   0.215   1.048  1.0239 -0.7153 -0.3303
 5747SOL    HW218141   1.757   0.256   1.172 -1.5918  0.4111  1.4520
 5748SOL     OW18142   6.721   5.367   5.574  0.5880  0.1079  0.1777
 5748SOL    HW118143   6.742   5.465   5.571  0.8466  0.0946  1.2818
 5748SOL    HW218144   6.622   5.354   5.572  0.5469  0.2636 -2.6459
 5749SOL     OW18145   2.666   3.755   1.646  0.0601  0.0472 -0.2494
 5749SOL    HW118146   2.760   3.723   1.653  0.2538  0.8870  1.4900
 5749SOL    HW218147   2.661   3.850   1.677 -1.4204 -0.1095  0.0509
 5750SOL     OW18148   6.282   1.613   1.611 -0.5057  0.0318 -0.3026
 5750SOL    HW118149   6.239   1.536   1.658 -0.9956  0.1903 -0.4850
 5750SOL    HW218150   6.217   1.654   1.548 -0.3948  0.8770  0.1213
 5751SOL     OW18151   5.097   3.325   1.591 -0.2130 -0.5592  0.1290
 5751SOL    HW118152   5.113   3.395   1.521  0.4816  0.3042  1.1384
 5751SOL    HW218153   5.124   3.236   1.555  0.3084 -0.0978 -0.6367
 5752SOL     OW18154   6.858   4.283   0.706 -0.5855  0.4217 -0.2337
 5752SOL    HW118155   6.778   4.321   0.661 -1.4443 -0.5773  0.3785
 5752SOL    HW218156   6.834   4.255   0.799  1.0034  1.9774  0.7061
 5753SOL     OW18157   3.820   4.048   4.076 -0.0407 -0.6047  0.2769
 5753SOL    HW118158   3.750   4.040   4.148 -0.4750 -1.2440 -0.2083
 5753SOL    HW218159   3.882   4.123   4.099  1.0740 -2.0537  2.3894
 5754SOL     OW18160   6.235   4.489   0.303  0.0979 -0.5459  0.2112
 5754SOL    HW118161   6.323   4.528   0.277 -0.5845  1.4370  0.7230
 5754SOL    HW218162   6.249   4.415   0.369  1.4500 -1.5005 -1.0750
 5755SOL     OW18163   4.819   2.967   0.543  0.5221  0.4327  0.0556
 5755SOL    HW118164   4.891   3.005   0.485 -0.0006 -1.1001 -1.6792
 5755SOL    HW218165   4.738   3.025   0.539  1.4670  1.9732  1.7338
 5756SOL     OW18166   5.368   0.393   2.184  0.3374  0.2680  0.6892
 5756SOL    HW118167   5.378   0.491   2.164  0.7835 -0.2120 -1.6903
 5756SOL    HW218168   5.318   0.349   2.110  1.5746 -1.6090  0.9065
 5757SOL     OW18169   6.535   2.396   6.631 -0.6527 -0.1017  0.6757
 5757SOL    HW118170   6.441   2.429   6.620 -1.3880 -0.9227  3.6982
 5757SOL    HW218171   6.549   2.364   6.725  2.2444 -1.3712 -0.0723
 5758SOL     OW18172   5.887   2.981   1.312 -0.5872  0.2899  0.2745
 5758SOL    HW118173   5.830   3.055   1.346  0.7817  0.9822  1.1790
 5758SOL    HW218174   5.849   2.893   1.340 -0.5676  0.7828  1.9584
 5759SOL     OW18175   7.008   6.388   5.906  0.0955  0.7572 -0.3316
 5759SOL    HW118176   7.082   6.324   5.925  1.4171  1.8969 -1.4533
 5759SOL    HW218177   6.938   6.343   5.850  1.2191  0.3744 -1.4788
 5760SOL     OW18178   4.722   6.959   3.901 -0.4875  0.0615 -0.4767
 5760SOL    HW118179   4.642   6.899   3.891  0.1175 -0.9826  0.7343
 5760SOL    HW218180   4.743   6.970   3.998 -0.7965  2.5701 -0.6434
 5761SOL     OW18181   0.885   6.795   2.683  0.4692 -0.2341 -0.7804
 5761SOL    HW118182   0.888   6.851   2.766 -0.2053  0.2423 -1.0639
 5761SOL    HW218183   0.965   6.735   2.680  0.0194 -0.9380  0.6805
 5762SOL     OW18184   6.371   5.404   6.016 -0.0555  0.2123 -0.1210
 5762SOL    HW118185   6.289   5.459   6.026 -0.4320 -0.2928 -0.3771
 5762SOL    HW218186   6.354   5.329   5.952  0.5776  0.0509 -0.1150
 5763SOL     OW18187   5.055   4.251   3.535  0.1041 -0.3006 -0.2523
 5763SOL    HW118188   5.085   4.156   3.533 -1.0686 -0.7633  1.8102
 5763SOL    HW218189   4.962   4.258   3.500 -0.0705 -0.0285  0.2580
 5764SOL     OW18190   1.714   6.893   3.960 -0.0525 -0.7233  0.6773
 5764SOL    HW118191   1.740   6.971   4.016 -0.6719 -0.9651  1.3229
 5764SOL    HW218192   1.752   6.903   3.868 -0.2005  0.3801  0.7244
 5765SOL     OW18193   1.106   3.301   0.631  0.2681 -0.7109 -0.5350
 5765SOL    HW118194   1.206   3.306   0.626  0.2347  0.6245 -0.2948
 5765SOL    HW218195   1.077   3.319   0.725 -0.1960 -1.2609 -0.5710
 5766SOL     OW18196   6.318   1.633   2.472 -0.5263 -0.0983 -0.4438
 5766SOL    HW118197   6.230   1.678   2.456  1.1479  4.0286  0.6820
 5766SOL    HW218198   6.327   1.610   2.569  0.5806  2.1653  0.0723
 5767SOL     OW18199   0.320   3.309   6.617 -0.0336 -0.4601 -0.0995
 5767SOL    HW118200   0.400   3.268   6.660 -1.3187  0.2756  3.3556
 5767SOL    HW218201   0.259   3.238   6.582  0.2359 -1.2422  0.9964
 5768SOL     OW18202   1.161   6.490   4.840 -0.3182 -0.1821  0.3297
 5768SOL    HW118203   1.109   6.542   4.772 -2.8777 -0.8213  1.6838
 5768SOL    HW218204   1.166   6.543   4.925  1.6796  0.0265  0.1376
 5769SOL     OW18205   3.515   0.628   5.511 -0.0862 -0.5324  0.6474
 5769SOL    HW118206   3.467   0.666   5.432  0.6776 -1.2484 -0.1862
 5769SOL    HW218207   3.489   0.678   5.593 -0.6153  0.4722 -0.1100
 5770SOL     OW18208   0.270   4.892   2.996 -0.1373  0.2032  0.5705
 5770SOL    HW118209   0.346   4.838   2.959  0.1253  0.8065  0.2132
 5770SOL    HW218210   0.289   4.918   3.091  0.0795  0.3026  0.5000
 5771SOL     OW18211   6.151   1.224   4.970 -0.5457 -0.1138 -0.4103
 5771SOL    HW118212   6.120   1.198   5.062 -2.2397  2.0442 -0.2905
 5771SOL    HW218213   6.090   1.182   4.902 -0.1607 -0.5450 -0.4976
 5772SOL     OW18214   0.941   4.675   4.670 -0.0529 -0.3154  0.1677
 5772SOL    HW118215   0.961   4.711   4.761 -1.3551 -2.9287  1.6047
 5772SOL    HW218216   0.857   4.715   4.635 -0.1939 -0.1888  0.6542
 5773SOL     OW18217   1.836   5.951   6.101  0.0882 -0.2883 -0.5486
 5773SOL    HW118218   1.818   5.963   6.004 -0.0566 -0.1435 -0.5043
 5773SOL    HW218219   1.789   5.870   6.135 -0.5517  0.1364 -0.4144
 5774SOL     OW18220   6.646   1.138   4.159 -0.8470  0.1581 -0.1327
 5774SOL    HW118221   6.743   1.134   4.135 -0.1655 -0.2496  2.4422
 5774SOL    HW218222   6.619   1.234   4.171  0.0692  0.2044  1.9997
 5775SOL     OW18223   5.409   2.491   6.974 -0.4901  0.0700  0.0312
 5775SOL    HW118224   5.500   2.500   6.935 -0.5839 -0.8999 -0.4505
 5775SOL    HW218225   5.391   2.567   7.037  1.1752 -0.4455  1.1960
 5776SOL     OW18226   1.352   5.149   0.183 -0.0760  0.0965  0.0096
 5776SOL    HW118227   1.400   5.224   0.230 -0.8866  0.1648  0.7349
 5776SOL    HW218228   1.348   5.069   0.243 -2.9612  0.8458  0.9583
 5777SOL     OW18229   0.947   4.850   0.870  0.0319 -0.2470  0.1192
 5777SOL    HW118230   0.936   4.948   0.882  1.1425  0.1482 -1.6645
 5777SOL    HW218231   0.862   4.811   0.832 -0.6954 -0.1694  1.5751
 5778SOL     OW18232   5.883   6.575   6.903 -0.1567  0.0198 -0.3832
 5778SOL    HW118233   5.800   6.589   6.849  0.5417  0.6232 -1.3152
 5778SOL    HW218234   5.863   6.590   7.000 -1.2135 -0.2075 -0.5579
 5779SOL     OW18235   6.196   5.892   4.839  0.2899 -0.6885 -0.0341
 5779SOL    HW118236   6.258   5.830   4.791 -0.2793 -1.7486  0.5533
 5779SOL    HW218237   6.155   5.844   4.917  1.9592  1.2452  2.1792
 5780SOL     OW18238   0.360   4.538   1.946 -0.8542  0.0001  0.1434
 5780SOL    HW118239   0.372   4.502   1.854  2.4150 -0.1107  0.4746
 5780SOL    HW218240   0.349   4.463   2.011 -0.8140 -0.0530  0.0875
 5781SOL     OW18241   1.947   5.619   3.696  0.6525  0.2422  0.3889
 5781SOL    HW118242   1.928   5.600   3.792 -1.1328  2.1807  0.4989
 5781SOL    HW218243   1.871   5.672   3.657  1.3059 -0.5133 -2.1082
 5782SOL     OW18244   4.933   6.122   2.297 -0.1730 -0.2709 -1.0195
 5782SOL    HW118245   4.917   6.219   2.317 -0.9792 -0.6143  0.0654
 5782SOL    HW218246   5.029   6.100   2.314 -0.4620 -0.1556  0.8898
 5783SOL     OW18247   5.195   6.298   0.379 -0.2850 -0.0090 -0.0886
 5783SOL    HW118248   5.281   6.246   0.377  0.0917  0.5967 -0.1513
 5783SOL    HW218249   5.138   6.265   0.453 -1.0891 -2.1061 -1.5419
 5784SOL     OW18250   1.136   6.958   4.047  0.3688 -0.3085 -0.8610
 5784SOL    HW118251   1.085   6.993   3.968 -0.4658  1.0110  0.2190
 5784SOL    HW218252   1.215   7.017   4.064  0.4660 -0.5049 -0.6310
 5785SOL     OW18253   6.576   0.830   4.641 -0.6789  0.1960  0.2154
 5785SOL    HW118254   6.570   0.736   4.607  1.4335 -0.3606  1.2156
 5785SOL    HW218255   6.504   0.846   4.708 -1.1184 -0.6750 -0.0343
 5786SOL     OW18256   1.857   3.149   4.103 -0.3299  0.3058  0.4364
 5786SOL    HW118257   1.955   3.137   4.088 -0.1648 -0.1328  1.7369
 5786SOL    HW218258   1.810   3.062   4.090 -0.5279  0.4751 -0.0032
 5787SOL     OW18259   1.223   2.600   0.348 -0.1332  0.0694 -0.3017
 5787SOL    HW118260   1.203   2.512   0.303 -1.1221  0.5797 -0.8972
 5787SOL    HW218261   1.266   2.662   0.283  2.4456 -0.6100  0.6581
 5788SOL     OW18262   5.383   0.019   5.814 -0.2618 -0.1470 -0.3729
 5788SOL    HW118263   5.428  -0.069   5.797  1.8865  1.4916 -4.6695
 5788SOL    HW218264   5.285   0.011   5.791 -0.2180 -1.5254 -0.1651
 5789SOL     OW18265   2.667   4.161   6.515  0.1415 -0.3289  0.0720
 5789SOL    HW118266   2.661   4.200   6.423 -0.1625 -0.4429  0.0397
 5789SOL    HW218267   2.610   4.215   6.577  1.1094  0.3276  0.4017
 5790SOL     OW18268   4.099   2.477   5.905 -0.2381  0.0265 -0.1007
 5790SOL    HW118269   4.081   2.483   6.003 -0.8160 -1.4679 -0.0913
 5790SOL    HW218270   4.184   2.426   5.890  0.7958  1.7447 -0.3479
 5791SOL     OW18271   1.685   3.422   0.603  0.0611 -0.1527 -0.4008
 5791SOL    HW118272   1.647   3.330   0.593 -0.1440 -0.1021 -0.1306
 5791SOL    HW218273   1.655   3.460   0.691 -0.1843  0.3245 -0.6840
 5792SOL     OW18274   4.292   4.688   6.280 -0.2787 -0.0434  0.2723
 5792SOL    HW118275   4.263   4.601   6.321 -2.3205 -0.2479 -1.4675
 5792SOL    HW218276   4.255   4.764   6.333 -1.0608 -0.2829  0.0807
 5793SOL     OW18277   3.466   3.746   4.635  0.1917 -1.0356 -0.3353
 5793SOL    HW118278   3.430   3.828   4.678  1.0770 -0.2548 -1.0488
 5793SOL    HW218279   3.428   3.665   4.680 -0.5189 -0.2438  0.5156
 5794SOL     OW18280   6.479   3.953   6.515  0.3273  0.1577 -0.3082
 5794SOL    HW118281   6.410   3.884   6.538  0.9571 -0.2699  0.3227
 5794SOL    HW218282   6.437   4.024   6.459 -0.1519 -1.1516 -1.6875
 5795SOL     OW18283   3.557   5.211   3.492 -0.3915 -0.1175 -0.6870
 5795SOL    HW118284   3.499   5.134   3.517 -0.8550  0.5194  0.2337
 5795SOL    HW218285   3.514   5.261   3.416 -2.1894  1.5889  1.3447
 5796SOL     OW18286   6.802   3.886   3.126 -0.6016 -0.1094 -0.6041
 5796SOL    HW118287   6.896   3.852   3.116 -0.7073 -1.6325  2.3551
 5796SOL    HW218288   6.787   3.913   3.222 -2.8893  1.1381 -1.2417
 5797SOL     OW18289   4.798   1.470   6.212 -0.0848  0.4165  0.6170
 5797SOL    HW118290   4.871   1.503   6.273 -0.1758  1.4677  0.1805
 5797SOL    HW218291   4.790   1.371   6.220  0.8013  0.3900  1.3247
 5798SOL     OW18292   0.863   4.272   1.815 -0.5437  0.0464 -0.1124
 5798SOL    HW118293   0.793   4.334   1.849  0.6773  0.8931  0.9641
 5798SOL    HW218294   0.855   4.263   1.716 -1.0847  1.5246 -0.2219
 5799SOL     OW18295   4.585   0.544   2.398 -0.2650 -0.0013 -0.4960
 5799SOL    HW118296   4.564   0.602   2.320 -0.4516 -0.1184 -0.5346
 5799SOL    HW218297   4.632   0.598   2.468  4.8349 -0.9531 -2.7508
 5800SOL     OW18298   3.366   6.522   6.030 -0.2710 -0.6124  0.5228
 5800SOL    HW118299   3.387   6.427   6.007  1.3337 -0.7117  2.1353
 5800SOL    HW218300   3.271   6.542   6.006 -0.0002 -1.8991 -1.9779
 5801SOL     OW18301   6.643   5.722   4.633 -0.2143 -0.1393  0.3846
 5801SOL    HW118302   6.644   5.712   4.534  2.7606 -1.1060  0.4129
 5801SOL    HW218303   6.696   5.803   4.659 -0.1558 -0.4294  1.2154
 5802SOL     OW18304   0.587   4.651   1.158  0.0210 -0.6781  0.0529
 5802SOL    HW118305   0.654   4.586   1.123 -0.8782 -1.2515 -0.6643
 5802SOL    HW218306   0.597   4.739   1.110 -0.0194 -0.8988 -0.3657
 5803SOL     OW18307   3.549   0.724   2.143  0.0831 -0.1603 -0.1170
 5803SOL    HW118308   3.468   0.779   2.164  0.0129 -0.6616  0.9970
 5803SOL    HW218309   3.627   0.785   2.127  0.0147  0.3000  1.1258
 5804SOL     OW18310   5.125   4.600   6.351  0.0837  0.4555 -0.2131
 5804SOL    HW118311   5.173   4.522   6.311 -0.5992  0.1967 -0.5449
 5804SOL    HW218312   5.043   4.620   6.297 -1.4799 -0.5979  1.6327
 5805SOL     OW18313   1.212   3.619   1.453 -0.0647  0.8334 -0.0004
 5805SOL    HW118314   1.211   3.641   1.356 -0.6553  1.4599  0.1366
 5805SOL    HW218315   1.299   3.647   1.494 -0.4365  2.0745 -0.0261
 5806SOL     OW18316   2.938   2.576   1.051  0.1821  0.7677 -0.2275
 5806SOL    HW118317   2.885   2.529   1.122  0.4502  0.3007 -0.3298
 5806SOL    HW218318   3.015   2.518   1.024  2.1528  2.3442  1.5909
 5807SOL     OW18319   6.992   2.613   1.481 -0.5516  0.3003 -0.4691
 5807SOL    HW118320   7.053   2.608   1.561 -0.4915  0.0424 -0.5312
 5807SOL    HW218321   6.929   2.536   1.483  0.2900 -0.4243 -1.3620
 5808SOL     OW18322   0.079   3.784   3.602 -0.8724 -0.2216 -0.0511
 5808SOL    HW118323   0.018   3.863   3.611 -0.6838 -0.1291  0.4457
 5808SOL    HW218324   0.030   3.701   3.629 -0.3400  0.0417  1.8749
 5809SOL     OW18325   5.554   1.324   5.087  0.1812  0.7814 -0.1462
 5809SOL    HW118326   5.478   1.360   5.142  0.1785  0.0862  0.3277
 5809SOL    HW218327   5.530   1.328   4.990 -0.4240  0.6576 -0.0066
 5810SOL     OW18328   0.135   6.271   6.809  0.5622  0.4202 -0.3996
 5810SOL    HW118329   0.044   6.267   6.768  1.1606 -1.0044 -1.6989
 5810SOL    HW218330   0.176   6.361   6.792 -0.2982  0.8014 -0.4706
 5811SOL     OW18331   0.677   6.582   0.197 -0.3063  0.0394  0.3276
 5811SOL    HW118332   0.651   6.643   0.122  3.2181  0.2852 -0.8475
 5811SOL    HW218333   0.681   6.488   0.164  0.3585  0.0217  0.4498
 5812SOL     OW18334   5.785   2.021   0.507  0.3924 -0.3040 -0.1652
 5812SOL    HW118335   5.820   2.085   0.576 -0.3441 -1.2224  1.0967
 5812SOL    HW218336   5.853   2.011   0.434  2.3096 -1.1339  1.6135
 5813SOL     OW18337   3.869   0.812   5.641  0.5604 -0.0134 -0.0594
 5813SOL    HW118338   3.785   0.768   5.608 -0.7749 -0.4399  3.3956
 5813SOL    HW218339   3.939   0.742   5.657  0.2088 -0.2325  0.5957
 5814SOL     OW18340   6.875   5.370   6.598 -0.1898  0.4289 -0.0724
 5814SOL    HW118341   6.824   5.315   6.532 -1.7777  1.5795  0.1476
 5814SOL    HW218342   6.915   5.310   6.667 -0.5692 -0.5709 -0.6984
 5815SOL     OW18343   2.946   0.901   6.908  0.3714  0.3273 -0.4148
 5815SOL    HW118344   2.883   0.977   6.916 -0.0901  0.0221 -1.0786
 5815SOL    HW218345   3.009   0.917   6.832 -1.3228 -1.0603 -2.1840
 5816SOL     OW18346   2.889   5.007   5.026  0.1418 -0.1982  0.2795
 5816SOL    HW118347   2.881   4.913   4.992 -0.1625  0.6299 -2.1231
 5816SOL    HW218348   2.984   5.036   5.022 -0.0276  0.2298 -0.8662
 5817SOL     OW18349   1.762   4.646   4.378  0.5882 -0.1771  0.4147
 5817SOL    HW118350   1.720   4.586   4.310  1.0171  1.7221 -1.6405
 5817SOL    HW218351   1.704   4.649   4.459 -0.8277 -1.2443 -0.4953
 5818SOL     OW18352   6.835   6.955   0.466 -0.2198 -0.5263  0.5036
 5818SOL    HW118353   6.807   6.979   0.373 -1.5957  3.8229  1.7917
 5818SOL    HW218354   6.917   7.008   0.491 -0.8784 -0.2791  2.2986
 5819SOL     OW18355   4.429   1.792   6.639 -0.4622 -0.3490 -0.1901
 5819SOL    HW118356   4.496   1.748   6.579 -1.5828  0.0779 -1.8518
 5819SOL    HW218357   4.476   1.853   6.703  0.7446 -0.0468 -1.3085
 5820SOL     OW18358   4.067   3.392   4.124  0.6082  0.2683  0.3912
 5820SOL    HW118359   4.126   3.365   4.047  0.0575  1.8535 -0.6478
 5820SOL    HW218360   3.978   3.346   4.115  0.3840  0.8022 -0.2001
 5821SOL     OW18361   5.426   1.596   3.939  0.6311  0.3855  0.7872
 5821SOL    HW118362   5.408   1.660   4.014  0.7601  0.0684  1.0871
 5821SOL    HW218363   5.428   1.647   3.853 -0.3422  0.6359  0.8962
 5822SOL     OW18364   0.975   0.790   5.366 -0.5835 -0.4294 -0.2821
 5822SOL    HW118365   1.070   0.821   5.359  0.4658 -3.1355  0.5723
 5822SOL    HW218366   0.954   0.728   5.290 -0.8438 -1.7154  0.7926
 5823SOL     OW18367   0.985   4.439   4.041  0.4334  0.1546  0.3107
 5823SOL    HW118368   0.915   4.381   4.084  0.6270 -0.8039 -0.6268
 5823SOL    HW218369   1.072   4.426   4.089  0.3217  0.1936  0.5291
 5824SOL     OW18370   0.690   2.018   4.726  0.2372  0.1380  0.2479
 5824SOL    HW118371   0.611   2.031   4.787  0.6856  0.3161  0.8046
 5824SOL    HW218372   0.721   2.107   4.693  1.1458  0.2176  1.2612
 5825SOL     OW18373   5.742   5.587   2.066  0.1232  0.5944  0.0249
 5825SOL    HW118374   5.801   5.653   2.020 -0.8281  0.6684 -1.1590
 5825SOL    HW218375   5.792   5.501   2.080  1.2679  1.4388  1.2994
 5826SOL     OW18376   1.664   3.910   1.271  0.5881  0.9736  0.4125
 5826SOL    HW118377   1.707   3.983   1.217  3.3473  1.5261  3.0377
 5826SOL    HW218378   1.610   3.951   1.344  0.0583  0.3349  0.3761
 5827SOL     OW18379   1.123   3.057   5.587  0.0262  0.1695 -0.3492
 5827SOL    HW118380   1.164   3.131   5.639  2.1530  1.0099 -3.0518
 5827SOL    HW218381   1.071   3.094   5.510 -0.5984 -1.1275 -0.5907
 5828SOL     OW18382   5.985   1.586   0.600  0.1762 -0.0065 -0.6495
 5828SOL    HW118383   6.069   1.554   0.643  0.8544  1.2183 -1.0025
 5828SOL    HW218384   5.911   1.587   0.667  1.1903  1.7961  0.5107
 5829SOL     OW18385   5.007   5.046   1.169  0.1131 -0.4233  0.2569
 5829SOL    HW118386   4.981   5.135   1.206  2.2692  1.2809 -1.9853
 5829SOL    HW218387   5.094   5.018   1.209  0.2193 -0.7455 -0.2003
 5830SOL     OW18388   6.011   3.576   3.380 -0.0471  0.2267  0.7685
 5830SOL    HW118389   6.057   3.658   3.414  0.8723 -0.4930  1.3333
 5830SOL    HW218390   5.957   3.535   3.454  0.0054 -0.0133  0.6760
 5831SOL     OW18391   6.751   6.599   5.090  0.0033  0.5209 -0.3884
 5831SOL    HW118392   6.777   6.504   5.073  0.3044  0.9857 -2.7386
 5831SOL    HW218393   6.662   6.600   5.136 -0.5165 -0.8939 -1.2906
 5832SOL     OW18394   3.441   0.721   5.986  0.2433 -0.5502  0.6067
 5832SOL    HW118395   3.537   0.724   6.012  0.0374 -1.6312  1.5766
 5832SOL    HW218396   3.391   0.790   6.038  0.4530 -0.1403  0.2678
 5833SOL     OW18397   3.998   3.788   4.223 -0.0581  0.0967  0.3909
 5833SOL    HW118398   4.002   3.882   4.257  0.1052 -0.4762  2.0714
 5833SOL    HW218399   3.960   3.787   4.131 -0.3566  1.7758  0.4660
 5834SOL     OW18400   3.361   5.856   6.709 -0.0387 -0.4178 -0.1941
 5834SOL    HW118401   3.270   5.851   6.669  0.3982 -2.0904 -1.0704
 5834SOL    HW218402   3.426   5.887   6.640  0.3591 -1.1596 -0.1617
 5835SOL     OW18403   1.979   5.845   0.357 -0.1411 -0.0443  0.3543
 5835SOL    HW118404   1.903   5.902   0.385 -0.2232 -0.3011  0.6604
 5835SOL    HW218405   2.040   5.829   0.435  1.1821  1.6182 -0.2853
 5836SOL     OW18406   0.064   1.662   0.784  0.4819  0.5545 -0.1556
 5836SOL    HW118407   0.073   1.670   0.883 -0.3520  0.9067 -0.1007
 5836SOL    HW218408  -0.027   1.692   0.756  0.5678  0.0805 -0.9885
 5837SOL     OW18409   6.332   0.365   4.212 -0.4726  0.0560 -0.3474
 5837SOL    HW118410   6.236   0.344   4.225 -0.3497  0.0186  0.5354
 5837SOL    HW218411   6.346   0.464   4.220 -0.3083 -0.0251  0.3985
 5838SOL     OW18412   2.161   4.204   1.924  0.8245 -0.0291  0.1358
 5838SOL    HW118413   2.070   4.163   1.924  0.6199  0.3910 -0.9048
 5838SOL    HW218414   2.209   4.179   1.840  1.3292  0.4852  0.2642
 5839SOL     OW18415   3.561   1.454   0.699 -0.4519  0.1023 -0.7465
 5839SOL    HW118416   3.603   1.386   0.760 -0.1564  0.6992 -0.2681
 5839SOL    HW218417   3.536   1.411   0.613 -0.1660 -0.5874 -0.4922
 5840SOL     OW18418   3.158   5.167   5.950  0.0139 -0.0291  0.2330
 5840SOL    HW118419   3.081   5.104   5.962  0.3516 -0.5828 -0.4785
 5840SOL    HW218420   3.142   5.225   5.870 -0.2320  0.7109  0.8068
 5841SOL     OW18421   1.997   2.089   2.228 -0.0419 -0.2677 -0.6250
 5841SOL    HW118422   2.092   2.108   2.202 -0.9676  1.2724 -3.3675
 5841SOL    HW218423   1.967   2.155   2.297  0.9302 -0.9817  0.5188
 5842SOL     OW18424   5.520   0.046   0.299 -0.4213 -0.5378 -0.3094
 5842SOL    HW118425   5.446   0.093   0.250 -0.6070  0.0631  0.5319
 5842SOL    HW218426   5.482  -0.024   0.358 -0.2329 -0.9342 -0.6546
 5843SOL     OW18427   2.161   3.867   2.590  0.0030 -0.3448  0.2150
 5843SOL    HW118428   2.250   3.888   2.630  0.1130 -0.0416 -0.1879
 5843SOL    HW218429   2.089   3.899   2.651  0.1666 -0.8156  0.6604
 5844SOL     OW18430   3.571   1.456   6.307 -0.3509 -0.2703 -0.3109
 5844SOL    HW118431   3.567   1.532   6.372 -1.4303 -1.5488  1.1976
 5844SOL    HW218432   3.515   1.478   6.227 -1.9519 -0.0489  0.8090
 5845SOL     OW18433   5.558   4.123   5.224  0.0323  0.1601  0.1579
 5845SOL    HW118434   5.612   4.041   5.241 -0.3616 -0.7143 -2.4659
 5845SOL    HW218435   5.467   4.112   5.263 -0.6164 -1.4702 -1.6788
 5846SOL     OW18436   4.026   0.283   0.105 -0.5825  0.8254  0.0088
 5846SOL    HW118437   4.113   0.315   0.142  0.5955 -0.6405 -1.3311
 5846SOL    HW218438   4.034   0.275   0.006 -1.2847 -1.9540  0.0897
 5847SOL     OW18439   1.224   4.830   2.385 -0.0789  0.1934  0.5437
 5847SOL    HW118440   1.181   4.765   2.321 -0.1763 -1.3959  2.1462
 5847SOL    HW218441   1.197   4.923   2.361 -0.1223 -0.3341 -1.7018
 5848SOL     OW18442   0.011   4.780   4.023 -0.4526 -0.0421 -0.6386
 5848SOL    HW118443   0.011   4.803   3.925 -0.4123 -0.6251 -0.7743
 5848SOL    HW218444   0.090   4.824   4.066 -1.7999  2.2713 -0.3646
 5849SOL     OW18445   0.627   1.803   6.295  0.7197  0.2698 -0.3856
 5849SOL    HW118446   0.727   1.805   6.283  0.7356  1.7911 -0.1952
 5849SOL    HW218447   0.586   1.875   6.240 -0.4873 -1.4711 -1.8985
 5850SOL     OW18448   2.241   3.732   1.771  0.3615 -0.1920  0.1197
 5850SOL    HW118449   2.263   3.643   1.812  0.0936 -0.5216 -0.4454
 5850SOL    HW218450   2.240   3.802   1.843  1.4184 -0.4901  0.4415
 5851SOL     OW18451   6.493   4.270   3.069  0.1219 -0.0581  0.2647
 5851SOL    HW118452   6.482   4.272   3.169  2.5475  0.3409  0.5716
 5851SOL    HW218453   6.586   4.242   3.046 -0.2085  0.4466 -1.9010
 5852SOL     OW18454   7.020   3.540   4.285  0.2797 -0.1971 -0.0811
 5852SOL    HW118455   7.028   3.468   4.354 -0.3080 -0.9520 -0.7809
 5852SOL    HW218456   6.930   3.583   4.291  0.4592  0.1688  0.0279
 5853SOL     OW18457   5.902   0.853   2.648 -0.2769 -0.1412  0.0221
 5853SOL    HW118458   5.926   0.878   2.742  1.9209 -0.7564 -0.3164
 5853SOL    HW218459   5.810   0.886   2.627  0.0144  1.9219  1.6627
 5854SOL     OW18460   5.677   3.734   4.357 -0.6460  0.0916  0.0829
 5854SOL    HW118461   5.768   3.769   4.339 -0.2270 -0.4517  1.0267
 5854SOL    HW218462   5.616   3.810   4.381 -0.1754  0.3578  0.4594
 5855SOL     OW18463   1.733   2.152   5.924  0.2334 -0.2357  0.3217
 5855SOL    HW118464   1.675   2.111   5.854  0.4918 -1.4113  0.7780
 5855SOL    HW218465   1.676   2.181   6.002  0.0878 -0.0368  0.1406
 5856SOL     OW18466   4.449   1.555   2.092  0.1859 -0.6507 -0.0130
 5856SOL    HW118467   4.435   1.519   2.000  1.6593 -0.3192 -0.4031
 5856SOL    HW218468   4.508   1.636   2.087  0.1905 -0.5669  1.2072
 5857SOL     OW18469   5.161   0.213   1.996 -0.3157 -0.2703 -0.2270
 5857SOL    HW118470   5.135   0.151   1.923 -0.2514  0.1882 -0.6422
 5857SOL    HW218471   5.087   0.218   2.063 -0.3944 -0.6500 -0.2838
 5858SOL     OW18472   2.629   2.400   3.903  0.0136  0.3792  0.4026
 5858SOL    HW118473   2.565   2.452   3.960  0.3735  0.7552  0.4707
 5858SOL    HW218474   2.720   2.404   3.944  0.0190 -0.4201  0.4740
 5859SOL     OW18475   0.898   2.466   5.860 -0.9680  0.0305 -0.3178
 5859SOL    HW118476   0.891   2.401   5.935 -2.4552 -1.1346 -1.4052
 5859SOL    HW218477   0.966   2.536   5.882 -0.5196 -0.9536  1.5771
 5860SOL     OW18478   4.463   2.149   6.840 -0.3555  0.6248 -0.3915
 5860SOL    HW118479   4.454   2.241   6.803 -1.2114  0.1961 -1.2947
 5860SOL    HW218480   4.506   2.090   6.771  2.0031  0.7602  0.8679
 5861SOL     OW18481   2.771   2.940   6.681  0.6174  0.2446 -0.0543
 5861SOL    HW118482   2.675   2.950   6.655  0.6287 -0.6508 -0.4777
 5861SOL    HW218483   2.829   2.951   6.600  0.7166 -1.5075 -0.2666
 5862SOL     OW18484   6.395   4.911   1.034 -0.8021  0.2711 -0.0618
 5862SOL    HW118485   6.349   4.857   0.963 -0.7856 -0.7578  0.6875
 5862SOL    HW218486   6.347   4.899   1.121  0.3517 -0.1232  0.5461
 5863SOL     OW18487   5.507   1.480   4.804  0.3781  0.7552  0.0300
 5863SOL    HW118488   5.448   1.552   4.842  0.5972  0.8406  0.2054
 5863SOL    HW218489   5.470   1.452   4.715 -2.2710 -1.9995  1.7857
 5864SOL     OW18490   6.605   5.611   5.031  0.5887  0.5170  0.3500
 5864SOL    HW118491   6.543   5.565   4.968  2.9585 -1.3045 -0.8398
 5864SOL    HW218492   6.624   5.551   5.109  1.3439  0.7413  0.3495
 5865SOL     OW18493   4.359   1.595   4.067 -0.4432 -0.6335  0.0466
 5865SOL    HW118494   4.374   1.582   4.165 -1.4285  0.8270  0.4242
 5865SOL    HW218495   4.268   1.634   4.053  0.6697  1.6967 -1.2388
 5866SOL     OW18496   3.923   5.727   3.697  0.3924  0.2077 -0.4668
 5866SOL    HW118497   4.010   5.762   3.663 -0.3512  2.1266 -0.5557
 5866SOL    HW218498   3.871   5.688   3.620  1.7213 -2.3569 -0.1668
 5867SOL     OW18499   6.218   6.877   1.539 -0.5122 -0.2388  0.2769
 5867SOL    HW118500   6.167   6.795   1.566 -0.8781  0.8876  3.3885
 5867SOL    HW218501   6.179   6.957   1.584 -0.6389  1.8782 -3.2354
 5868SOL     OW18502   3.661   0.560   5.130 -0.2321  0.1495 -0.2778
 5868SOL    HW118503   3.596   0.513   5.189 -1.4333  0.9724 -0.9153
 5868SOL    HW218504   3.712   0.492   5.076 -0.4296 -0.5021  0.3405
 5869SOL     OW18505   0.139   3.456   4.609  0.2013 -0.5159  0.2708
 5869SOL    HW118506   0.203   3.503   4.549 -0.2884 -1.5979 -1.1560
 5869SOL    HW218507   0.112   3.517   4.684  0.4213  1.0604 -0.8939
 5870SOL     OW18508   3.645   2.936   3.285 -0.6354 -0.1896  0.0813
 5870SOL    HW118509   3.699   2.863   3.327 -1.2022 -1.2755 -1.0246
 5870SOL    HW218510   3.568   2.958   3.345 -0.8187 -0.9472  0.1359
 5871SOL     OW18511   4.040   6.297   3.234 -0.0674 -0.1347 -0.3340
 5871SOL    HW118512   4.102   6.220   3.251  0.6753  0.5733  0.2774
 5871SOL    HW218513   4.039   6.356   3.314  0.0366  0.9483 -1.1137
 5872SOL     OW18514   5.345   3.132   4.528  0.0100 -0.3242 -0.8711
 5872SOL    HW118515   5.314   3.068   4.598 -0.5255 -0.2818 -1.0632
 5872SOL    HW218516   5.361   3.222   4.569 -0.3344 -0.2908 -0.8089
 5873SOL     OW18517   5.049   4.613   1.300  0.0253 -0.8839  0.0867
 5873SOL    HW118518   5.116   4.589   1.370  0.7893  3.0180  0.9276
 5873SOL    HW218519   5.095   4.622   1.212  0.2394 -0.1065  0.2742
 5874SOL     OW18520   5.935   2.760   0.823 -0.2466  0.2184 -0.7404
 5874SOL    HW118521   5.892   2.748   0.913 -0.5559 -0.3995 -0.9699
 5874SOL    HW218522   5.959   2.857   0.811  2.0306 -0.0261  1.0248
 5875SOL     OW18523   1.043   0.290   5.454  0.3202  0.0203  0.2090
 5875SOL    HW118524   1.115   0.313   5.519  1.0935 -0.7084 -0.3766
 5875SOL    HW218525   0.957   0.276   5.504  0.7800  0.0048  1.0085
 5876SOL     OW18526   4.820   5.291   4.695 -0.0480 -0.6889  0.1197
 5876SOL    HW118527   4.733   5.303   4.742  0.4491  0.5299  0.7847
 5876SOL    HW218528   4.842   5.375   4.644  0.9719 -0.7768  0.3835
 5877SOL     OW18529   2.031   2.814   1.174 -0.3421 -0.6990  0.4845
 5877SOL    HW118530   2.031   2.719   1.145  0.9003 -0.5239 -0.1718
 5877SOL    HW218531   2.109   2.830   1.234 -0.2133  0.0278  0.1349
 5878SOL     OW18532   0.169   5.248   3.390 -0.1085 -0.0516 -0.0872
 5878SOL    HW118533   0.190   5.336   3.433  2.1301 -0.7088  0.2994
 5878SOL    HW218534   0.170   5.258   3.290  2.7188 -0.0593 -0.1472
 5879SOL     OW18535   2.346   1.341   3.438  0.5906 -0.3335 -0.0554
 5879SOL    HW118536   2.283   1.411   3.472  2.4203  0.5963  1.6400
 5879SOL    HW218537   2.313   1.305   3.350 -1.0723  1.7082 -0.3291
 5880SOL     OW18538   5.488   1.731   1.351  0.4232 -0.1097 -0.4868
 5880SOL    HW118539   5.535   1.804   1.302 -1.4482  0.3792 -1.6148
 5880SOL    HW218540   5.409   1.768   1.400  0.2155 -1.1636  0.0073
 5881SOL     OW18541   0.696   5.088   1.634  0.1606  0.5426 -0.3807
 5881SOL    HW118542   0.733   5.013   1.579  0.4011  1.0082 -0.8621
 5881SOL    HW218543   0.660   5.159   1.574 -1.3905  0.1868  0.0645
 5882SOL     OW18544   1.083   5.543   3.142 -0.2596  0.0418 -0.3410
 5882SOL    HW118545   1.042   5.480   3.208  0.5076 -2.1428 -1.8551
 5882SOL    HW218546   1.174   5.571   3.175 -0.3404 -0.1392  0.0417
 5883SOL     OW18547   5.709   3.586   1.991  0.0993 -0.2083 -0.0868
 5883SOL    HW118548   5.655   3.626   2.065 -1.1747  0.9049 -1.5431
 5883SOL    HW218549   5.664   3.503   1.958  0.3001 -0.3352 -0.0373
 5884SOL     OW18550   5.766   1.610   4.770  0.2448  0.0822  0.0188
 5884SOL    HW118551   5.678   1.573   4.801 -0.2795  2.7211  1.9528
 5884SOL    HW218552   5.750   1.679   4.699  0.8877 -0.3280 -0.5406
 5885SOL     OW18553   6.889   3.018   5.306  0.3587  0.0217  0.6652
 5885SOL    HW118554   6.793   3.000   5.328 -0.2238 -0.9538 -2.1257
 5885SOL    HW218555   6.948   2.959   5.361 -0.6527  0.4098  2.2056
 5886SOL     OW18556   1.988   0.826   0.023 -0.0722 -0.1666  0.1294
 5886SOL    HW118557   1.936   0.911   0.024 -1.7680 -1.1237 -1.1605
 5886SOL    HW218558   1.956   0.766   0.095 -0.2286 -0.4653 -0.1872
 5887SOL     OW18559   4.950   0.727   0.677  0.6323  0.2145 -0.0666
 5887SOL    HW118560   4.945   0.691   0.770 -2.3272  0.5655  0.0110
 5887SOL    HW218561   4.929   0.825   0.678  2.3392  0.6250 -0.9477
 5888SOL     OW18562   1.135   3.283   3.945 -0.4386  0.1378  0.7088
 5888SOL    HW118563   1.086   3.367   3.969 -1.3364 -0.3862  0.7676
 5888SOL    HW218564   1.068   3.212   3.920  0.2712 -0.7798  1.3653
 5889SOL     OW18565   4.804   0.394   1.376 -0.2937  0.4499  0.8811
 5889SOL    HW118566   4.879   0.333   1.402 -2.4253 -1.9984  1.7389
 5889SOL    HW218567   4.778   0.450   1.454 -0.1272  0.4614  0.9291
 5890SOL     OW18568   3.895   1.134   2.789  0.0510 -0.2649 -0.0183
 5890SOL    HW118569   3.897   1.227   2.824  1.4542 -0.7157  1.2375
 5890SOL    HW218570   3.813   1.087   2.822 -2.2553  1.2962 -3.0378
 5891SOL     OW18571   6.666   0.597   3.572  0.1342  0.6114 -0.0305
 5891SOL    HW118572   6.717   0.631   3.651  1.0644 -0.5480 -0.1232
 5891SOL    HW218573   6.644   0.501   3.585 -1.2012  0.8297 -0.4405
 5892SOL     OW18574   5.515   2.939   0.479 -0.3693  0.8028  0.4789
 5892SOL    HW118575   5.599   2.980   0.513 -1.1119  2.4017  0.4661
 5892SOL    HW218576   5.532   2.899   0.389  0.7837 -0.5011  1.2359
 5893SOL     OW18577   3.222   0.949   5.760 -0.4709  0.0017 -0.1768
 5893SOL    HW118578   3.205   1.009   5.837  0.4575  0.2399 -0.1388
 5893SOL    HW218579   3.135   0.918   5.721 -0.9646  1.3443 -0.1890
 5894SOL     OW18580   1.906   2.736   4.991 -0.3331  0.0776  0.7271
 5894SOL    HW118581   1.943   2.829   4.987 -2.1138  0.8591  1.2647
 5894SOL    HW218582   1.837   2.731   5.063  1.5158 -2.3812  2.4902
 5895SOL     OW18583   6.253   1.227   0.819  0.3579  0.3784  1.0569
 5895SOL    HW118584   6.315   1.235   0.741 -1.3947 -1.5076 -0.6535
 5895SOL    HW218585   6.279   1.292   0.890  0.9178  3.5786 -1.8592
 5896SOL     OW18586   5.670   0.930   5.622  0.4094 -0.9234 -0.2221
 5896SOL    HW118587   5.583   0.896   5.658  0.5684 -1.6066 -0.4624
 5896SOL    HW218588   5.723   0.970   5.696  0.0479 -0.8504 -0.0018
 5897SOL     OW18589   0.008   1.767   4.818  0.3854 -0.5437  0.0167
 5897SOL    HW118590  -0.074   1.783   4.762  1.2102  0.1818 -1.0261
 5897SOL    HW218591   0.081   1.732   4.760  0.4711 -2.3658  1.1768
 5898SOL     OW18592   1.105   1.877   4.136 -0.0103  0.6480 -0.1931
 5898SOL    HW118593   1.127   1.851   4.230 -1.1298  0.2442 -0.0254
 5898SOL    HW218594   1.135   1.971   4.119 -2.4525  1.8428  1.5523
 5899SOL     OW18595   1.688   3.565   4.341 -0.0107 -0.0414 -0.5433
 5899SOL    HW118596   1.744   3.647   4.337 -0.6278  0.3385 -2.7158
 5899SOL    HW218597   1.731   3.492   4.287  0.7684 -1.3793  1.7222
 5900SOL     OW18598   3.511   6.811   0.392  0.2220 -0.5378  0.0743
 5900SOL    HW118599   3.445   6.885   0.408 -1.0292 -1.7857  0.8567
 5900SOL    HW218600   3.579   6.842   0.325 -2.1604  0.2340 -2.1566
 5901SOL     OW18601   5.615   2.904   1.972 -0.1171 -0.0189  0.2660
 5901SOL    HW118602   5.696   2.927   2.026 -0.5244  1.4977  0.2826
 5901SOL    HW218603   5.608   2.805   1.962  2.3611 -0.1732 -0.6899
 5902SOL     OW18604   1.095   5.369   0.923 -0.2731  0.5094 -0.2510
 5902SOL    HW118605   1.084   5.402   0.829 -2.0686 -1.2544 -0.7337
 5902SOL    HW218606   1.026   5.412   0.981 -1.3880 -0.8586 -0.4961
 5903SOL     OW18607   6.367   5.665   4.713  0.1270 -0.7198 -0.5380
 5903SOL    HW118608   6.359   5.570   4.745  0.5001 -0.8273 -0.7497
 5903SOL    HW218609   6.462   5.682   4.686 -0.0076 -0.3749 -0.7893
 5904SOL     OW18610   2.793   6.219   6.410 -0.0832 -0.0294  0.6863
 5904SOL    HW118611   2.891   6.212   6.392 -0.1765 -0.8260  0.4559
 5904SOL    HW218612   2.742   6.182   6.332 -0.5221 -1.7829  1.7449
 5905SOL     OW18613   2.224   4.267   2.178  0.2812 -0.1510  0.1426
 5905SOL    HW118614   2.191   4.255   2.084  0.0577  0.2007  0.1755
 5905SOL    HW218615   2.189   4.193   2.235 -0.4445  0.2159  0.1740
 5906SOL     OW18616   3.265   4.517   6.750 -0.5833 -0.1483 -0.2554
 5906SOL    HW118617   3.295   4.432   6.707 -1.6869 -0.2529 -0.8614
 5906SOL    HW218618   3.165   4.514   6.762 -0.6911  1.2328 -0.6879
 5907SOL     OW18619   6.998   0.692   6.511  0.6414 -0.5811 -0.5632
 5907SOL    HW118620   6.991   0.789   6.489 -0.4262 -0.4092  0.4052
 5907SOL    HW218621   6.909   0.648   6.495  0.3110 -0.8091  1.5590
 5908SOL     OW18622   5.275   1.693   6.890 -0.5114  0.2525  0.1616
 5908SOL    HW118623   5.298   1.656   6.980 -0.6923  1.1374  0.5829
 5908SOL    HW218624   5.283   1.793   6.892 -2.3791  0.4386 -0.2455
 5909SOL     OW18625   5.021   0.658   4.450 -0.2765 -0.5166 -0.2429
 5909SOL    HW118626   4.988   0.738   4.400  3.3012 -0.0519 -2.2232
 5909SOL    HW218627   5.005   0.576   4.395 -1.7961 -0.8794  0.7023
 5910SOL     OW18628   1.127   1.978   6.512 -1.1084  0.7763 -0.0570
 5910SOL    HW118629   1.156   2.021   6.598  0.8598  0.2889 -0.4271
 5910SOL    HW218630   1.044   2.023   6.479 -0.4250  2.7368  0.7561
 5911SOL     OW18631   0.530   0.592   4.086 -0.5698 -0.0064  0.2553
 5911SOL    HW118632   0.553   0.565   3.992 -1.9049  0.3045 -0.1836
 5911SOL    HW218633   0.556   0.687   4.101 -0.4949 -0.0100  0.1490
 5912SOL     OW18634   6.827   2.895   5.066  0.5524  0.4285 -0.4201
 5912SOL    HW118635   6.825   2.930   5.160 -0.5730 -0.4518 -0.0958
 5912SOL    HW218636   6.892   2.949   5.013  2.8239 -0.3949  1.3586
 5913SOL     OW18637   6.931   2.413   3.610 -0.2021  0.3841 -0.1465
 5913SOL    HW118638   6.873   2.418   3.691 -0.7234 -0.7360 -0.4340
 5913SOL    HW218639   6.954   2.318   3.590  0.5772  0.7013 -0.8602
 5914SOL     OW18640   3.741   3.290   6.534 -0.1523  0.0427 -0.5437
 5914SOL    HW118641   3.673   3.333   6.594  0.9755  0.0485  0.7700
 5914SOL    HW218642   3.709   3.295   6.439 -1.3265  1.2918 -0.1175
 5915SOL     OW18643   1.291   2.750   2.579  0.2496 -0.3391 -0.0413
 5915SOL    HW118644   1.349   2.707   2.510 -0.1820 -0.9228 -0.0428
 5915SOL    HW218645   1.335   2.835   2.611 -0.2867  0.8173 -2.1841
 5916SOL     OW18646   4.219   5.259   5.639 -0.0710  0.0440 -0.3547
 5916SOL    HW118647   4.315   5.284   5.648  0.1030 -0.5496 -0.5288
 5916SOL    HW218648   4.197   5.188   5.706  0.0212 -0.9598 -1.3668
 5917SOL     OW18649   3.231   0.860   6.094 -0.1767  0.2876  0.2889
 5917SOL    HW118650   3.183   0.867   6.182  0.0197 -1.0153  0.5321
 5917SOL    HW218651   3.174   0.810   6.029  1.2292 -2.3786  0.9525
 5918SOL     OW18652   3.267   0.918   5.374  0.0966  0.5778 -0.0821
 5918SOL    HW118653   3.330   0.868   5.313 -1.0198 -0.6315 -0.2863
 5918SOL    HW218654   3.319   0.986   5.426  1.8313 -1.1970  0.6670
 5919SOL     OW18655   2.408   1.798   3.685 -0.4735  0.4805 -0.3003
 5919SOL    HW118656   2.465   1.726   3.646 -1.2476 -0.4137  0.1843
 5919SOL    HW218657   2.312   1.771   3.680 -0.6621  0.7229  1.4408
 5920SOL     OW18658   1.948   6.122   6.285 -0.7915  0.2267 -0.4020
 5920SOL    HW118659   1.912   6.062   6.214 -1.5659  0.4705 -0.2263
 5920SOL    HW218660   2.046   6.103   6.299 -0.5625  0.3569 -1.7048
 5921SOL     OW18661   1.290   0.064   6.597 -0.2296 -0.1941 -0.3791
 5921SOL    HW118662   1.204   0.111   6.579  1.2037  1.7616 -2.6702
 5921SOL    HW218663   1.289  -0.026   6.553 -1.6259 -0.9182  0.9987
 5922SOL     OW18664   2.906   0.243   1.139 -0.6286  0.1776  0.2508
 5922SOL    HW118665   2.841   0.246   1.063 -0.0722  0.5368 -0.2239
 5922SOL    HW218666   2.882   0.313   1.207 -0.5538  0.5236 -0.0766
 5923SOL     OW18667   0.998   6.234   5.100 -0.5701 -0.0595 -0.1904
 5923SOL    HW118668   1.086   6.224   5.147 -1.1545  1.6136  1.4111
 5923SOL    HW218669   0.994   6.323   5.055 -1.9439  0.5204  0.9921
 5924SOL     OW18670   1.548   1.649   0.025  0.6235 -0.2777 -0.1819
 5924SOL    HW118671   1.597   1.562   0.020  1.6797  0.3503 -1.4528
 5924SOL    HW218672   1.524   1.669   0.121  2.7357 -0.7002  0.4914
 5925SOL     OW18673   3.131   4.636   5.759  0.1692  0.8802  0.2837
 5925SOL    HW118674   3.056   4.678   5.810 -0.3056 -0.6428  0.8702
 5925SOL    HW218675   3.178   4.569   5.817  0.7016  0.3503 -0.7369
 5926SOL     OW18676   5.099   0.239   6.998 -0.4751  0.3798 -0.0483
 5926SOL    HW118677   5.176   0.210   6.942  1.2887  1.0837  1.8790
 5926SOL    HW218678   5.029   0.167   6.998 -0.3180  0.1541 -2.6404
 5927SOL     OW18679   4.790   1.322   2.272 -0.1283  0.1877  0.0212
 5927SOL    HW118680   4.821   1.411   2.240  0.9401 -0.0697  0.2903
 5927SOL    HW218681   4.691   1.323   2.283 -0.1244  1.3679  0.1039
 5928SOL     OW18682   0.177   0.268   6.500 -0.5192  0.3103 -0.1984
 5928SOL    HW118683   0.187   0.172   6.526 -3.0965 -0.0021 -0.0438
 5928SOL    HW218684   0.228   0.286   6.416  0.8449 -0.8998  0.3292
 5929SOL     OW18685   4.691   6.285   4.819 -0.4657 -0.0372 -0.2334
 5929SOL    HW118686   4.683   6.376   4.861 -0.5475 -0.7612  1.3771
 5929SOL    HW218687   4.659   6.290   4.724  1.4685  2.0632 -0.8880
 5930SOL     OW18688   0.751   5.095   2.344  0.1352  0.3253 -0.0207
 5930SOL    HW118689   0.740   5.193   2.326 -2.2754 -0.2546 -2.2865
 5930SOL    HW218690   0.697   5.042   2.278  0.7341 -2.5507  1.6154
 5931SOL     OW18691   5.099   1.314   3.345  0.0273 -0.0585 -0.2804
 5931SOL    HW118692   5.000   1.325   3.332  0.2172 -0.4638 -2.4582
 5931SOL    HW218693   5.148   1.364   3.274  1.2503 -2.8505 -1.5848
 5932SOL     OW18694   1.103   1.262   4.259 -0.4205  0.4547 -0.1145
 5932SOL    HW118695   1.059   1.192   4.315 -0.8866  0.3913 -0.5487
 5932SOL    HW218696   1.149   1.219   4.181  2.4982  0.2683  1.5783
 5933SOL     OW18697   5.249   4.166   4.091  0.9241 -0.2165 -0.1926
 5933SOL    HW118698   5.214   4.240   4.034 -0.7846  0.2782  1.3845
 5933SOL    HW218699   5.256   4.197   4.186 -1.3341 -2.4197  0.8137
 5934SOL     OW18700   4.354   4.498   0.207 -0.0339 -0.1483 -0.1324
 5934SOL    HW118701   4.336   4.480   0.304  0.5499  0.1711  0.0390
 5934SOL    HW218702   4.298   4.437   0.151 -2.0321  1.1134  0.3667
 5935SOL     OW18703   6.164   3.081   1.330 -0.1823  0.6183  0.0261
 5935SOL    HW118704   6.213   3.119   1.252  1.3867  1.1972  1.2418
 5935SOL    HW218705   6.075   3.046   1.300  0.9395 -0.4798 -2.2639
 5936SOL     OW18706   1.019   6.994   1.221  0.4686 -0.4465 -0.7050
 5936SOL    HW118707   0.952   7.034   1.282 -1.0896 -2.4911 -0.9849
 5936SOL    HW218708   1.072   6.924   1.270  0.8655 -0.4128 -1.0738
 5937SOL     OW18709   4.680   6.745   3.001 -0.0047 -0.3360 -0.3308
 5937SOL    HW118710   4.630   6.697   3.073  1.8231  0.2836  1.4352
 5937SOL    HW218711   4.734   6.679   2.949  1.3723 -0.4610  1.1645
 5938SOL     OW18712   5.640   1.838   5.869  0.1689 -0.5261 -0.2493
 5938SOL    HW118713   5.614   1.744   5.890  0.9379 -0.7695 -0.3760
 5938SOL    HW218714   5.670   1.844   5.774 -1.0980  0.1099 -0.6293
 5939SOL     OW18715   2.957   4.818   1.843 -0.1327 -0.3707 -0.5681
 5939SOL    HW118716   3.043   4.850   1.883  0.2249 -0.4651 -1.2383
 5939SOL    HW218717   2.934   4.729   1.882  0.4310 -0.6548 -0.8647
 5940SOL     OW18718   2.304   6.375   1.714 -0.0338  0.1764  0.1681
 5940SOL    HW118719   2.284   6.391   1.618  0.1057  1.4219  0.3252
 5940SOL    HW218720   2.353   6.288   1.725  0.9533  0.5667 -1.0116
 5941SOL     OW18721   5.209   2.634   4.377 -0.5682  0.1375 -0.9973
 5941SOL    HW118722   5.267   2.700   4.426  3.0661 -2.5605 -1.2812
 5941SOL    HW218723   5.148   2.589   4.442  1.7013 -0.9156  0.5396
 5942SOL     OW18724   2.858   4.798   1.240  0.3435 -0.4844  0.4133
 5942SOL    HW118725   2.776   4.805   1.182  1.0173  1.4432 -0.3821
 5942SOL    HW218726   2.911   4.718   1.212  1.0329  0.7674 -2.2307
 5943SOL     OW18727   4.133   6.644   1.087  0.1836 -0.4375 -0.1784
 5943SOL    HW118728   4.217   6.681   1.048  1.2071  2.3405  4.0093
 5943SOL    HW218729   4.068   6.719   1.102 -0.3729 -1.3802  2.5898
 5944SOL     OW18730   3.640   3.024   4.823 -0.2459  0.2335 -0.4327
 5944SOL    HW118731   3.675   2.962   4.893  2.5944  1.8946 -0.2400
 5944SOL    HW218732   3.542   3.037   4.837 -0.2709 -1.5072  1.5988
 5945SOL     OW18733   3.011   5.492   3.398  0.2336  0.2754  0.7340
 5945SOL    HW118734   2.925   5.455   3.433  0.9589  1.0502  3.6145
 5945SOL    HW218735   3.005   5.503   3.299 -2.7890 -0.1232  0.7826
 5946SOL     OW18736   6.695   3.120   0.316 -0.2524 -0.1958 -0.3601
 5946SOL    HW118737   6.758   3.138   0.241 -0.0626  1.0845  0.0929
 5946SOL    HW218738   6.705   3.025   0.346 -0.8576 -0.9703 -2.4347
 5947SOL     OW18739   1.037   0.678   2.868 -0.2205 -0.5687  0.0757
 5947SOL    HW118740   1.025   0.775   2.891 -1.5176 -0.5556 -0.5542
 5947SOL    HW218741   1.133   0.660   2.848 -0.1069  0.8140 -0.7397
 5948SOL     OW18742   0.094   6.306   0.928 -0.0937 -0.0110 -0.5877
 5948SOL    HW118743   0.102   6.366   0.848  1.3687 -1.4884 -1.6049
 5948SOL    HW218744   0.159   6.336   0.998  1.1983 -0.8012 -1.4002
 5949SOL     OW18745   0.464   5.247   2.428  0.7830  0.2806  0.2892
 5949SOL    HW118746   0.546   5.276   2.379  0.9475 -0.0778  0.3550
 5949SOL    HW218747   0.394   5.319   2.421  0.5999 -0.0056 -0.9319
 5950SOL     OW18748   5.124   1.024   5.454  0.0256  0.2586  0.0317
 5950SOL    HW118749   5.059   1.050   5.384  0.0100  1.2570  0.4016
 5950SOL    HW218750   5.075   1.001   5.538  0.1121  0.4827  0.1460
 5951SOL     OW18751   6.519   5.067   0.242  0.0071 -0.3955 -0.3751
 5951SOL    HW118752   6.592   5.033   0.183  2.5411  0.3593  2.0855
 5951SOL    HW218753   6.546   5.055   0.338 -4.4601 -2.8495  0.8381
 5952SOL     OW18754   5.092   5.060   1.895  0.3744 -0.2449 -0.2276
 5952SOL    HW118755   5.059   5.021   1.981  0.8269 -0.0171  0.0514
 5952SOL    HW218756   5.044   5.146   1.877 -1.2513 -1.3111 -1.2752
 5953SOL     OW18757   6.159   2.055   3.306 -0.6207  0.1112 -0.4905
 5953SOL    HW118758   6.204   2.000   3.236  1.2536  1.7991 -0.7027
 5953SOL    HW218759   6.157   2.004   3.392 -0.0159 -0.7562 -0.9725
 5954SOL     OW18760   5.781   0.646   5.815 -0.0536 -0.0514  0.0513
 5954SOL    HW118761   5.861   0.687   5.772  0.4310 -1.6295 -0.5899
 5954SOL    HW218762   5.728   0.597   5.746 -0.0126 -1.4491  0.9920
 5955SOL     OW18763   6.671   1.020   4.829 -0.4148  0.0464  0.3131
 5955SOL    HW118764   6.667   0.958   4.750 -2.0507  0.6675 -0.1260
 5955SOL    HW218765   6.747   1.084   4.817 -1.4350  1.0025 -1.4666
 5956SOL     OW18766   6.860   1.826   5.400  0.1721  0.2237 -0.8346
 5956SOL    HW118767   6.873   1.758   5.327  1.8600  1.4747 -1.7772
 5956SOL    HW218768   6.798   1.789   5.469  0.3431 -1.9167 -1.7378
 5957SOL     OW18769   4.789   6.994   0.868  0.8037 -0.4998  0.1270
 5957SOL    HW118770   4.808   6.992   0.769  2.5395 -0.5551  0.4302
 5957SOL    HW218771   4.761   7.087   0.893  1.0457 -0.3027 -0.3041
 5958SOL     OW18772   4.160   6.665   2.445  0.0152  0.6137 -0.2908
 5958SOL    HW118773   4.221   6.713   2.509  1.6137  1.5978 -2.4406
 5958SOL    HW218774   4.116   6.730   2.385 -1.2619 -0.3166 -0.4037
 5959SOL     OW18775   5.531   6.485   0.803 -0.6807 -0.6624 -0.6715
 5959SOL    HW118776   5.547   6.461   0.707 -0.4821  4.0335 -2.0680
 5959SOL    HW218777   5.434   6.510   0.815  0.1120  3.1542 -1.0239
 5960SOL     OW18778   6.475   1.356   4.270  0.1319  0.2700  0.4519
 5960SOL    HW118779   6.410   1.344   4.345 -0.8913  2.0555 -0.0915
 5960SOL    HW218780   6.520   1.445   4.278 -0.5653  0.8473 -1.4424
 5961SOL     OW18781   2.401   5.814   5.585  0.1491 -0.0089  0.0756
 5961SOL    HW118782   2.395   5.725   5.630  0.3024 -0.7552 -1.3131
 5961SOL    HW218783   2.322   5.826   5.524  0.0500  0.8726  0.3654
 5962SOL     OW18784   4.863   2.747   6.203  0.0828  0.2675  0.6254
 5962SOL    HW118785   4.822   2.695   6.278 -2.3358  0.8333 -0.2211
 5962SOL    HW218786   4.814   2.834   6.193  2.0609  1.3636  0.0363
 5963SOL     OW18787   6.487   4.976   4.474 -0.1197 -0.1440 -0.3574
 5963SOL    HW118788   6.479   5.044   4.546 -1.1800 -1.1453  0.5005
 5963SOL    HW218789   6.396   4.953   4.439  0.4106  1.0406 -2.7553
 5964SOL     OW18790   4.187   0.895   6.614  0.4051 -0.1376  0.3271
 5964SOL    HW118791   4.099   0.875   6.571 -0.5359  2.4743  0.8800
 5964SOL    HW218792   4.240   0.810   6.621 -2.2795 -1.9420  0.5252
 5965SOL     OW18793   3.801   5.823   5.255  0.1442 -0.2778 -0.1080
 5965SOL    HW118794   3.896   5.822   5.224  0.5934 -1.7631  1.2219
 5965SOL    HW218795   3.748   5.885   5.196  2.5078  3.0436  0.9692
 5966SOL     OW18796   0.487   1.687   2.568 -0.0310 -0.8153  0.0135
 5966SOL    HW118797   0.574   1.666   2.612  1.1857  0.4226 -1.6446
 5966SOL    HW218798   0.436   1.752   2.624  0.3344 -1.1861  0.7811
 5967SOL     OW18799   3.127   4.082   5.638 -0.0369  0.5470  0.1932
 5967SOL    HW118800   3.163   4.105   5.547  0.5648 -0.2348  0.2229
 5967SOL    HW218801   3.053   4.015   5.628  0.6218 -0.2128  0.3246
 5968SOL     OW18802   0.901   4.423   2.369 -0.0104  0.0976 -0.0720
 5968SOL    HW118803   0.924   4.327   2.351 -0.4218 -0.7772  3.3860
 5968SOL    HW218804   0.803   4.431   2.386  0.3409  0.6615  1.9151
 5969SOL     OW18805   1.559   5.741   4.283 -0.7148 -0.0345 -0.1474
 5969SOL    HW118806   1.545   5.646   4.312 -1.0282  0.5696  1.8071
 5969SOL    HW218807   1.506   5.802   4.341 -0.6370  1.3604 -1.4692
 5970SOL     OW18808   3.241   1.386   5.550  0.2455  0.2944  0.4602
 5970SOL    HW118809   3.220   1.474   5.508 -0.4760  0.2036  0.6108
 5970SOL    HW218810   3.291   1.400   5.635  0.9205  0.5173  0.0324
 5971SOL     OW18811   0.077   0.780   0.616 -0.2224  0.2590  0.2026
 5971SOL    HW118812  -0.017   0.745   0.618 -0.0754 -0.2617  3.7867
 5971SOL    HW218813   0.075   0.880   0.615 -0.6878  0.3080 -2.5090
 5972SOL     OW18814   0.554   5.456   2.031  0.7918  0.3443 -0.2835
 5972SOL    HW118815   0.566   5.554   2.041  1.3356  0.1656  1.0563
 5972SOL    HW218816   0.565   5.412   2.120  0.5900 -0.9350 -0.8671
 5973SOL     OW18817   0.137   0.565   0.769 -0.0501  0.0442 -0.4123
 5973SOL    HW118818   0.110   0.634   0.701 -1.4923 -0.2418 -0.1459
 5973SOL    HW218819   0.132   0.605   0.860 -1.3975 -0.5469 -0.2133
 5974SOL     OW18820   2.654   1.421   2.965 -0.2314  0.1931 -0.0828
 5974SOL    HW118821   2.710   1.454   3.040 -0.5611  0.7573 -0.0816
 5974SOL    HW218822   2.634   1.324   2.978  0.7743 -0.0324 -0.1075
 5975SOL     OW18823   5.967   3.773   4.342 -0.4902  0.0159 -1.0009
 5975SOL    HW118824   5.952   3.676   4.323  1.2836 -0.7546  0.9977
 5975SOL    HW218825   6.049   3.803   4.294 -0.0388 -0.0032 -0.2689
 5976SOL     OW18826   0.220   2.724   4.061 -0.3545  0.3027 -0.3584
 5976SOL    HW118827   0.236   2.817   4.094  0.9588 -0.2335  0.6007
 5976SOL    HW218828   0.308   2.677   4.048 -1.0003 -1.2922  0.6488
 5977SOL     OW18829   6.998   0.133   0.575  0.0138 -0.9817 -0.0359
 5977SOL    HW118830   6.936   0.207   0.603 -0.8549 -2.0256  0.9207
 5977SOL    HW218831   7.086   0.172   0.549 -0.3588  0.3816  0.6166
 5978SOL     OW18832   4.121   6.055   2.484  0.1104 -0.3963 -0.2432
 5978SOL    HW118833   4.098   6.053   2.581  0.8044 -1.0833 -0.0816
 5978SOL    HW218834   4.039   6.035   2.430 -0.7417  1.8839  0.0855
 5979SOL     OW18835   1.712   3.656   3.619  0.0542 -0.0807  0.0016
 5979SOL    HW118836   1.729   3.637   3.715 -0.0604 -0.4494 -0.0509
 5979SOL    HW218837   1.799   3.672   3.572  0.1099  0.1053  0.1641
 5980SOL     OW18838   5.576   2.502   2.715  0.5241 -0.1019  0.2340
 5980SOL    HW118839   5.507   2.519   2.785  1.8888 -0.1205  1.6497
 5980SOL    HW218840   5.602   2.589   2.672  0.6525  0.1131  0.7348
 5981SOL     OW18841   1.908   6.193   3.493  0.2128  0.0835  0.0152
 5981SOL    HW118842   1.972   6.172   3.567 -0.1510 -0.0425  0.2941
 5981SOL    HW218843   1.868   6.283   3.508 -1.1308 -0.6275  0.8890
 5982SOL     OW18844   6.558   3.595   3.238 -0.2256  0.2116 -0.4316
 5982SOL    HW118845   6.494   3.636   3.303  0.1188  0.7228 -0.4145
 5982SOL    HW218846   6.568   3.654   3.158 -2.2486 -1.3735 -1.9631
 5983SOL     OW18847   0.717   3.580   4.152  0.7070  0.2379  0.7067
 5983SOL    HW118848   0.720   3.644   4.229  2.2081 -0.0434  0.8914
 5983SOL    HW218849   0.676   3.627   4.073  1.6359  1.3922  0.8844
 5984SOL     OW18850   0.830   5.657   2.506 -0.3678  0.6890 -0.7764
 5984SOL    HW118851   0.883   5.572   2.508 -2.0119 -0.3872  1.9795
 5984SOL    HW218852   0.874   5.725   2.565 -0.7784  0.5940 -0.3531
 5985SOL     OW18853   6.650   3.500   2.845  0.1392 -0.0676  0.4255
 5985SOL    HW118854   6.699   3.530   2.927  0.0046 -0.8644  0.8019
 5985SOL    HW218855   6.558   3.541   2.845 -0.2726 -0.9445  1.2613
 5986SOL     OW18856   3.586   6.546   0.675 -0.3625 -0.5584  0.7428
 5986SOL    HW118857   3.649   6.602   0.729  0.9151 -1.3925  0.1512
 5986SOL    HW218858   3.597   6.450   0.699 -0.1406 -0.8985 -0.6165
 5987SOL     OW18859   2.973   1.364   6.469 -0.3284  0.0431 -0.1948
 5987SOL    HW118860   2.898   1.430   6.460 -0.1615  0.3643  0.6472
 5987SOL    HW218861   3.045   1.386   6.403  0.9066  2.3571  1.7150
 5988SOL     OW18862   0.452   6.673   6.228 -0.4464 -0.2592  0.3859
 5988SOL    HW118863   0.539   6.643   6.189 -0.7131 -0.0975 -0.3494
 5988SOL    HW218864   0.421   6.755   6.181 -1.1860 -0.5306  0.3920
 5989SOL     OW18865   1.345   2.321   3.893  0.4401 -0.4648 -0.2715
 5989SOL    HW118866   1.300   2.403   3.859 -0.4137 -0.7544  0.1543
 5989SOL    HW218867   1.297   2.240   3.861 -0.2330 -0.7574  1.3611
 5990SOL     OW18868   0.983   0.409   2.510 -0.1423 -0.1858  0.2548
 5990SOL    HW118869   0.949   0.317   2.489 -0.5867 -0.5103  2.1820
 5990SOL    HW218870   0.921   0.454   2.574  0.5019  1.1573 -0.0206
 5991SOL     OW18871   5.123   4.290   1.475 -0.0909 -0.0985 -0.3355
 5991SOL    HW118872   5.146   4.195   1.495 -3.0913 -0.4868  2.0849
 5991SOL    HW218873   5.044   4.294   1.414 -0.7925  0.7498  0.5805
 5992SOL     OW18874   0.430   3.694   0.849  0.1006  0.0008 -0.2122
 5992SOL    HW118875   0.344   3.743   0.837  0.4255  0.5567 -0.3589
 5992SOL    HW218876   0.498   3.730   0.784  1.2179  1.4143  1.6266
 5993SOL     OW18877   4.436   0.500   4.963 -0.0133 -0.1174 -0.0074
 5993SOL    HW118878   4.425   0.570   4.892  0.7907  0.9055  0.8536
 5993SOL    HW218879   4.346   0.460   4.984 -0.3027 -0.2385 -1.3784
 5994SOL     OW18880   2.046   6.138   4.637 -0.4573 -0.0804  0.1527
 5994SOL    HW118881   2.141   6.110   4.626 -0.2513  0.1516  1.2303
 5994SOL    HW218882   2.001   6.141   4.547  1.0033  1.4367 -0.5792
 5995SOL     OW18883   6.460   6.423   5.559  0.1247 -0.0517 -0.1691
 5995SOL    HW118884   6.535   6.398   5.498 -0.8602 -0.5173 -1.2399
 5995SOL    HW218885   6.400   6.489   5.513 -1.7829 -1.9626 -0.5985
 5996SOL     OW18886   1.074   0.138   6.185 -0.1331 -0.9007 -0.4665
 5996SOL    HW118887   1.066   0.146   6.284  0.1022  0.3144 -0.5260
 5996SOL    HW218888   1.157   0.087   6.162  1.6700  1.6246 -0.0261
 5997SOL     OW18889   3.388   3.829   2.182 -0.2974  0.2257  0.0338
 5997SOL    HW118890   3.365   3.734   2.162 -3.6278  0.7819  0.6074
 5997SOL    HW218891   3.376   3.884   2.099 -0.5263  0.4640  0.2238
 5998SOL     OW18892   3.474   6.289   3.882  0.1709  0.0224  0.4209
 5998SOL    HW118893   3.377   6.305   3.866  0.4864  0.6571 -0.9921
 5998SOL    HW218894   3.487   6.197   3.921 -0.9262 -0.3506 -0.0697
 5999SOL     OW18895   1.783   1.369   3.688  0.0988 -0.1371  0.0148
 5999SOL    HW118896   1.684   1.370   3.670 -0.0596 -0.4486  0.8544
 5999SOL    HW218897   1.827   1.304   3.625 -0.5067 -1.5148  0.9610
 6000SOL     OW18898   6.170   2.090   5.408 -0.4738  0.2797 -0.6219
 6000SOL    HW118899   6.233   2.067   5.482  0.1216 -1.5181 -1.6165
 6000SOL    HW218900   6.217   2.150   5.343 -1.4108  2.9430  1.0192
 6001SOL     OW18901   2.732   0.432   3.174 -0.4600  0.7439 -0.6806
 6001SOL    HW118902   2.802   0.360   3.175 -1.1635  0.0117 -1.5377
 6001SOL    HW218903   2.652   0.401   3.225  0.4992  2.3513  2.0153
 6002SOL     OW18904   2.335   0.570   1.221 -0.1764 -0.5441  0.5595
 6002SOL    HW118905   2.381   0.654   1.195  1.1468 -0.9060  1.6243
 6002SOL    HW218906   2.324   0.512   1.141 -0.2973  0.2539 -0.0142
 6003SOL     OW18907   0.327   3.590   4.451 -1.0022 -0.5891 -0.8471
 6003SOL    HW118908   0.413   3.582   4.502 -1.8835  0.7904  0.9567
 6003SOL    HW218909   0.347   3.597   4.353  0.9531  0.0448 -0.4473
 6004SOL     OW18910   5.469   0.341   0.878  0.1213  0.2624 -0.1648
 6004SOL    HW118911   5.553   0.287   0.873  0.8952  1.5016 -1.2396
 6004SOL    HW218912   5.488   0.429   0.922 -0.3377  0.9965 -1.3880
 6005SOL     OW18913   6.843   1.338   1.947  0.5346  0.3350  0.0329
 6005SOL    HW118914   6.852   1.349   1.848  0.2393  0.5152  0.0241
 6005SOL    HW218915   6.909   1.270   1.979  0.0234 -0.3883 -0.4139
 6006SOL     OW18916   3.395   5.436   5.059  0.2619 -0.6064 -0.9729
 6006SOL    HW118917   3.411   5.532   5.079  1.1980 -0.7398 -1.0409
 6006SOL    HW218918   3.430   5.415   4.968 -1.3527 -0.6649 -1.6221
 6007SOL     OW18919   6.584   1.407   1.142 -0.0730 -0.8644  0.4765
 6007SOL    HW118920   6.503   1.462   1.163 -0.6593 -1.6477  0.2895
 6007SOL    HW218921   6.639   1.454   1.073  0.0894  0.0836  1.2224
 6008SOL     OW18922   2.639   5.071   0.016 -0.0645  0.2147 -0.4107
 6008SOL    HW118923   2.601   5.156   0.053  1.0868  0.6336 -0.1409
 6008SOL    HW218924   2.714   5.093  -0.047  0.6748 -0.6085  0.1574
 6009SOL     OW18925   0.637   0.830   3.867  0.8534 -0.0989  0.1434
 6009SOL    HW118926   0.656   0.889   3.789 -1.8210  0.2968 -0.3312
 6009SOL    HW218927   0.582   0.881   3.934 -1.8344 -2.0186 -0.4305
 6010SOL     OW18928   2.258   2.133   6.250 -0.1196 -0.0526 -0.4960
 6010SOL    HW118929   2.336   2.194   6.235 -0.2945  0.7206  1.4450
 6010SOL    HW218930   2.284   2.040   6.224  1.9764 -0.0872  1.4051
 6011SOL     OW18931   4.687   2.057   2.955  0.4194  0.1179 -0.3269
 6011SOL    HW118932   4.662   2.115   3.032  2.5530  0.4897  0.1341
 6011SOL    HW218933   4.649   2.096   2.871  1.1426  1.7682  0.0722
 6012SOL     OW18934   5.053   2.737   0.899  0.3318  0.0230 -0.3137
 6012SOL    HW118935   4.991   2.808   0.866 -0.1739  0.1714  0.9067
 6012SOL    HW218936   5.142   2.747   0.854 -0.1405  0.5697 -1.1647
 6013SOL     OW18937   3.382   5.965   3.290 -0.8066 -0.1883  0.3829
 6013SOL    HW118938   3.317   5.915   3.347 -1.2735 -0.2233 -0.1709
 6013SOL    HW218939   3.344   5.976   3.198 -0.4513  0.6587  0.3303
 6014SOL     OW18940   4.975   0.329   3.201 -0.6229 -0.3314  0.2685
 6014SOL    HW118941   4.969   0.276   3.286 -0.2203 -1.2952 -0.2925
 6014SOL    HW218942   4.974   0.426   3.223 -0.4277 -0.5676  1.3902
 6015SOL     OW18943   2.451   1.269   5.932 -0.0973 -0.1264  0.2946
 6015SOL    HW118944   2.456   1.196   5.864  2.4692  0.1320  0.1057
 6015SOL    HW218945   2.455   1.230   6.024 -0.2589 -0.3041  0.2260
 6016SOL     OW18946   4.140   3.428   0.418  0.3892  0.2024  0.0994
 6016SOL    HW118947   4.044   3.414   0.394  1.2251 -1.2193 -3.0478
 6016SOL    HW218948   4.170   3.517   0.384  0.2424  0.5633  0.9075
 6017SOL     OW18949   5.525   5.028   4.284 -0.4806 -0.3227  0.0284
 6017SOL    HW118950   5.564   5.042   4.375 -0.9928  0.4758  0.1363
 6017SOL    HW218951   5.487   5.114   4.251  0.6557 -0.3433 -1.4063
 6018SOL     OW18952   6.802   4.080   0.525  0.0982  0.0968 -0.1394
 6018SOL    HW118953   6.708   4.099   0.499 -0.3987 -1.9836  0.0249
 6018SOL    HW218954   6.822   4.123   0.613 -0.5833  0.7747 -0.3063
 6019SOL     OW18955   2.355   5.408   0.553 -0.5221 -0.6387  0.6575
 6019SOL    HW118956   2.304   5.474   0.498  1.6704  2.2373  1.8003
 6019SOL    HW218957   2.409   5.349   0.492 -0.3497  0.5291 -0.3643
 6020SOL     OW18958   1.973   1.743   6.442 -0.1212  0.3021  0.4936
 6020SOL    HW118959   1.887   1.727   6.491 -0.4721  0.6760  0.0062
 6020SOL    HW218960   1.970   1.832   6.398  0.2288  0.0060 -0.1423
 6021SOL     OW18961   6.754   5.882   1.917  0.4089  0.1433 -0.6557
 6021SOL    HW118962   6.663   5.910   1.888  0.6797  1.0971 -0.5935
 6021SOL    HW218963   6.823   5.929   1.862  0.9147  1.2324  0.8615
 6022SOL     OW18964   2.418   3.492   5.524 -0.6545 -0.1408 -0.4259
 6022SOL    HW118965   2.499   3.548   5.544 -1.0498  0.1954  0.2828
 6022SOL    HW218966   2.372   3.528   5.443  0.2632 -0.7357 -1.2312
 6023SOL     OW18967   2.139   6.325   2.417 -0.3346 -0.6507  0.0749
 6023SOL    HW118968   2.141   6.392   2.491  0.7560  1.4877 -1.7633
 6023SOL    HW218969   2.044   6.302   2.396 -0.7807  0.7529  0.4246
 6024SOL     OW18970   2.451   5.423   0.817  0.0504  0.2937 -0.2056
 6024SOL    HW118971   2.450   5.522   0.830 -0.9792  0.3722 -0.7946
 6024SOL    HW218972   2.399   5.399   0.735  0.1254 -0.7490  0.0343
 6025SOL     OW18973   0.593   5.032   0.728 -0.3527  0.6395  0.1536
 6025SOL    HW118974   0.649   5.107   0.762 -0.0109  1.1952 -1.5727
 6025SOL    HW218975   0.599   5.027   0.629 -2.2713 -0.1746  0.0294
 6026SOL     OW18976   3.231   0.663   6.541 -0.4525  0.7405  0.1233
 6026SOL    HW118977   3.319   0.708   6.561 -0.8597  2.3221 -1.3789
 6026SOL    HW218978   3.157   0.729   6.556 -1.2395 -0.0301 -0.3389
 6027SOL     OW18979   3.574   6.226   5.391  0.0154  0.2446 -0.1792
 6027SOL    HW118980   3.657   6.171   5.401 -0.1970 -0.0608 -0.0864
 6027SOL    HW218981   3.548   6.229   5.295  0.2270  0.4792 -0.2299
 6028SOL     OW18982   2.510   1.551   5.489 -0.4972  0.3103 -0.1592
 6028SOL    HW118983   2.557   1.631   5.452  1.2663 -0.2011  0.8620
 6028SOL    HW218984   2.576   1.492   5.536 -2.1062 -0.6605  0.9880
 6029SOL     OW18985   2.629   4.711   1.885  0.1442 -0.4533 -0.1093
 6029SOL    HW118986   2.723   4.697   1.917  1.0420  2.5841 -1.0438
 6029SOL    HW218987   2.627   4.699   1.786 -0.2418  0.3186 -0.1983
 6030SOL     OW18988   6.329   2.016   2.937 -0.2966  0.3252  0.3024
 6030SOL    HW118989   6.269   2.094   2.952  0.6023  0.4374  4.3809
 6030SOL    HW218990   6.310   1.945   3.005  2.3514 -0.7550  0.0543
 6031SOL     OW18991   2.878   1.795   1.947 -0.1553  1.0016 -0.2421
 6031SOL    HW118992   2.878   1.832   2.040 -1.6451  0.3853  0.0247
 6031SOL    HW218993   2.934   1.854   1.888  1.3108  1.0713  1.1456
 6032SOL     OW18994   1.145   4.038   2.782  0.0073  0.1677 -0.1824
 6032SOL    HW118995   1.221   4.039   2.717 -0.5673  0.8874 -0.8527
 6032SOL    HW218996   1.158   4.112   2.849  0.8748 -0.8988  0.8764
 6033SOL     OW18997   1.614   3.302   2.138  0.2725  0.0888  0.3540
 6033SOL    HW118998   1.647   3.240   2.209  2.7399  1.3433  0.3960
 6033SOL    HW218999   1.648   3.272   2.048 -0.5171  0.0698  0.0493
 6034SOL     OW19000   1.114   2.487   1.786  0.2452  0.2573 -0.7035
 6034SOL    HW119001   1.039   2.455   1.844 -0.2663  1.3040 -0.7609
 6034SOL    HW219002   1.200   2.478   1.836  0.2403 -1.9160 -1.0115
 6035SOL     OW19003   6.622   0.554   0.915 -0.0010 -0.3251  0.0868
 6035SOL    HW119004   6.595   0.483   0.850 -1.5089  1.2904 -1.1530
 6035SOL    HW219005   6.591   0.529   1.006 -1.6040 -0.7194 -0.5341
 6036SOL     OW19006   2.401   6.537   6.364  0.7714  0.4344  0.3850
 6036SOL    HW119007   2.390   6.526   6.462  0.2289  0.1418  0.2919
 6036SOL    HW219008   2.353   6.620   6.334 -0.8045 -0.5537  0.0631
 6037SOL     OW19009   3.866   0.084   6.007  0.3601 -0.1453 -0.1607
 6037SOL    HW119010   3.961   0.085   5.975  0.7339  0.0021  0.9160
 6037SOL    HW219011   3.845  -0.005   6.048 -0.3933 -0.6496 -1.5883
 6038SOL     OW19012   0.049   4.050   3.456 -0.0987 -0.2131 -0.6441
 6038SOL    HW119013   0.127   3.988   3.447 -0.5337 -0.6555 -1.5214
 6038SOL    HW219014   0.030   4.093   3.368 -1.2193 -0.5808 -0.6005
 6039SOL     OW19015   2.860   3.623   4.877 -0.2567 -0.4009 -0.2616
 6039SOL    HW119016   2.762   3.604   4.868 -0.4439 -0.0212  0.8572
 6039SOL    HW219017   2.911   3.567   4.811 -1.1715 -1.0991 -0.3952
 6040SOL     OW19018   1.860   2.100   1.985 -0.3599  0.6699  0.3514
 6040SOL    HW119019   1.905   2.099   2.075  0.2309 -1.7729  0.0831
 6040SOL    HW219020   1.885   2.184   1.937  1.7436  0.6563  1.3174
 6041SOL     OW19021   2.670   1.259   1.319  0.4671 -0.0894  0.1085
 6041SOL    HW119022   2.708   1.183   1.266  2.2676  0.3950  0.6240
 6041SOL    HW219023   2.602   1.307   1.265 -1.3283 -2.5125  0.0426
 6042SOL     OW19024   1.007   2.782   3.271  0.0587  0.2336 -0.3796
 6042SOL    HW119025   1.014   2.714   3.343 -0.5986  0.4910 -0.0604
 6042SOL    HW219026   1.084   2.772   3.207  0.9907  0.3899  0.6827
 6043SOL     OW19027   4.199   6.888   0.095  0.7173 -0.3819 -0.5540
 6043SOL    HW119028   4.167   6.816   0.033 -1.3562 -0.5770  0.6181
 6043SOL    HW219029   4.123   6.950   0.115  1.3263 -0.2544  1.6407
 6044SOL     OW19030   4.093   6.156   3.984  0.3231 -0.4962  0.4930
 6044SOL    HW119031   4.123   6.240   3.937  0.5728  0.3840  2.1607
 6044SOL    HW219032   4.007   6.125   3.944  1.2769 -0.6825 -1.5694
 6045SOL     OW19033   3.073   4.867   4.331 -0.1272  0.1441  0.3548
 6045SOL    HW119034   2.995   4.840   4.388  1.0084 -3.0830  0.5427
 6045SOL    HW219035   3.074   4.813   4.248  2.0860 -0.1324  0.5032
 6046SOL     OW19036   3.705   0.412   0.395 -0.2033 -0.0805 -0.4093
 6046SOL    HW119037   3.751   0.356   0.326 -0.5745  0.3541 -1.0293
 6046SOL    HW219038   3.611   0.380   0.406  0.3732 -1.3519  1.2908
 6047SOL     OW19039   2.689   5.808   4.000 -0.6695 -0.2057  0.0908
 6047SOL    HW119040   2.590   5.809   3.991 -0.6410  1.8396 -0.6214
 6047SOL    HW219041   2.726   5.731   3.947 -1.7545  0.5317 -1.8751
 6048SOL     OW19042   4.551   6.937   2.614 -0.4698 -0.5364  0.0632
 6048SOL    HW119043   4.645   6.951   2.643  0.2963 -0.0635 -2.3784
 6048SOL    HW219044   4.536   6.980   2.525 -2.8453 -1.0833  0.1079
 6049SOL     OW19045   2.432   0.379   6.793 -0.2639 -0.1508  0.0250
 6049SOL    HW119046   2.414   0.467   6.837 -0.3132 -0.6620  1.0351
 6049SOL    HW219047   2.347   0.342   6.757  0.0706  1.2823 -2.5080
 6050SOL     OW19048   1.968   5.774   5.774 -0.0827  0.0261  0.2540
 6050SOL    HW119049   1.941   5.678   5.767  0.2982  0.0210 -1.4073
 6050SOL    HW219050   1.902   5.822   5.833 -0.9222 -1.0000  0.1904
 6051SOL     OW19051   5.751   2.682   4.978  0.0288  0.0526  0.0001
 6051SOL    HW119052   5.662   2.651   5.008  0.3421 -0.1730  0.6989
 6051SOL    HW219053   5.800   2.607   4.933 -0.2767  0.2795 -0.7306
 6052SOL     OW19054   4.885   6.862   5.852 -0.0854  0.0236  0.7836
 6052SOL    HW119055   4.872   6.839   5.756 -0.8236 -0.4181  0.9776
 6052SOL    HW219056   4.805   6.912   5.885  0.4541  0.7555  0.9997
 6053SOL     OW19057   3.684   0.305   5.958  0.1515  0.0933  0.6756
 6053SOL    HW119058   3.764   0.258   5.996  0.0997 -1.1965 -0.6952
 6053SOL    HW219059   3.714   0.387   5.909  0.6743 -0.4823  0.0103
 6054SOL     OW19060   2.048   0.360   5.218  0.3039 -0.8843 -0.0220
 6054SOL    HW119061   1.979   0.430   5.198  0.8318 -0.5477 -0.7417
 6054SOL    HW219062   2.135   0.387   5.176  1.1503 -0.8062  1.6939
 6055SOL     OW19063   0.824   2.616   6.311  0.6289 -0.7726 -0.2752
 6055SOL    HW119064   0.764   2.557   6.257  0.0837 -1.8877  1.4769
 6055SOL    HW219065   0.891   2.659   6.251 -1.0321 -0.5647 -2.0848
 6056SOL     OW19066   4.789   6.060   1.371 -0.1476  0.3314  0.0362
 6056SOL    HW119067   4.729   6.123   1.420 -1.5566 -0.4129 -0.6536
 6056SOL    HW219068   4.833   5.998   1.436 -1.2795 -0.0572  0.4608
 6057SOL     OW19069   3.699   2.773   6.810 -0.3881  0.1016 -0.3647
 6057SOL    HW119070   3.647   2.838   6.866 -0.6226 -1.4115  1.2757
 6057SOL    HW219071   3.726   2.694   6.867  1.7562 -0.2402 -1.7243
 6058SOL     OW19072   1.159   6.304   6.633 -0.3780 -0.1192 -0.6515
 6058SOL    HW119073   1.122   6.327   6.723  0.1038  3.1329 -1.1846
 6058SOL    HW219074   1.085   6.298   6.566 -0.3833  3.7101 -1.1772
 6059SOL     OW19075   0.667   6.816   4.828 -0.0338  0.6613 -0.3723
 6059SOL    HW119076   0.731   6.872   4.776  0.8823 -0.3153 -0.3294
 6059SOL    HW219077   0.613   6.875   4.889  0.4304  1.5613 -0.8094
 6060SOL     OW19078   4.567   4.427   6.552  0.1086  0.5857  0.0802
 6060SOL    HW119079   4.554   4.526   6.552 -0.5066  0.5199 -0.8793
 6060SOL    HW219080   4.598   4.398   6.642  0.0945  1.6218  0.4389
 6061SOL     OW19081   3.375   3.959   6.086  0.5461  0.4787 -0.8164
 6061SOL    HW119082   3.389   4.033   6.152  1.1004 -0.8219  0.5866
 6061SOL    HW219083   3.460   3.944   6.034  0.5039  0.6692 -0.9416
 6062SOL     OW19084   2.642   6.787   4.271 -0.2680 -0.0654  0.4661
 6062SOL    HW119085   2.672   6.692   4.284 -1.2374 -0.1670  2.3030
 6062SOL    HW219086   2.652   6.812   4.175 -0.2941 -2.1304 -0.1287
 6063SOL     OW19087   2.200   2.019   3.010  0.5255 -0.4311 -0.2679
 6063SOL    HW119088   2.279   2.014   2.950  1.1163  2.7417  0.0961
 6063SOL    HW219089   2.143   2.098   2.986 -2.5143 -2.4499 -0.3815
 6064SOL     OW19090   4.913   2.008   2.740  0.0216 -0.3368 -0.3375
 6064SOL    HW119091   4.820   2.006   2.776 -0.2220  1.9372 -0.6996
 6064SOL    HW219092   4.926   2.089   2.684  2.4724 -0.1592  0.3514
 6065SOL     OW19093   0.724   3.750   4.381 -0.8302  0.0354 -0.1046
 6065SOL    HW119094   0.814   3.732   4.420  0.2301  1.5833 -1.6497
 6065SOL    HW219095   0.664   3.788   4.451  0.4515  1.1407  0.4372
 6066SOL     OW19096   2.619   6.545   2.231 -0.2100  0.2411 -0.0779
 6066SOL    HW119097   2.565   6.479   2.179 -0.5272 -0.3172  0.9389
 6066SOL    HW219098   2.575   6.562   2.319  1.2261 -0.1636  0.7503
 6067SOL     OW19099   1.866   5.511   4.686 -0.0716 -0.4446 -0.6072
 6067SOL    HW119100   1.813   5.459   4.753  1.7360  0.2918  1.5192
 6067SOL    HW219101   1.961   5.481   4.688  0.4301  1.0008 -1.3451
 6068SOL     OW19102   6.260   4.669   5.961  0.2497  0.1751 -0.0689
 6068SOL    HW119103   6.208   4.588   5.989  0.0223  1.0659  2.3480
 6068SOL    HW219104   6.357   4.654   5.980 -0.0189  1.1682  2.4193
 6069SOL     OW19105   5.611   2.514   1.832 -0.6614  0.2048 -0.5225
 6069SOL    HW119106   5.516   2.516   1.798 -0.9536  0.6142  0.2856
 6069SOL    HW219107   5.613   2.551   1.925  0.2714  0.0182 -0.4657
 6070SOL     OW19108   1.348   0.097   5.320 -0.1914 -0.1866  0.3133
 6070SOL    HW119109   1.330   0.037   5.397  1.9828 -2.8319 -1.0625
 6070SOL    HW219110   1.277   0.085   5.251  0.1811 -1.1547  0.0863
 6071SOL     OW19111   1.232   0.895   5.661  0.0529 -0.4554 -0.2956
 6071SOL    HW119112   1.169   0.914   5.737  1.5581  1.8788  0.4794
 6071SOL    HW219113   1.275   0.806   5.676  0.4642  0.0364  1.7648
 6072SOL     OW19114   6.394   2.760   0.246 -0.5561 -0.3256 -0.0318
 6072SOL    HW119115   6.320   2.814   0.286 -1.3640 -2.5143  1.6100
 6072SOL    HW219116   6.445   2.713   0.318  3.0689  1.7300 -1.0260
 6073SOL     OW19117   2.171   1.096   5.546  0.5035 -0.6300 -0.3119
 6073SOL    HW119118   2.223   1.096   5.460  1.3816 -1.5603  0.1997
 6073SOL    HW219119   2.074   1.106   5.526  0.8344  1.2008 -1.2998
 6074SOL     OW19120   0.865   6.287   5.678  0.3218  0.6798  0.1989
 6074SOL    HW119121   0.788   6.312   5.620  0.3831 -0.3824 -0.3718
 6074SOL    HW219122   0.875   6.187   5.679  2.2218  0.8154 -0.4531
 6075SOL     OW19123   3.513   5.453   1.252  0.1764  0.2331  0.6296
 6075SOL    HW119124   3.606   5.432   1.220  0.0131 -1.5031  1.2155
 6075SOL    HW219125   3.457   5.370   1.250 -1.6113  1.3972 -0.4385
 6076SOL     OW19126   2.451   0.421   4.142  0.0653  0.0035  0.2474
 6076SOL    HW119127   2.486   0.406   4.235  0.2878  1.1274  0.3524
 6076SOL    HW219128   2.443   0.519   4.125 -0.2979 -0.2037 -0.8083
 6077SOL     OW19129   0.211   2.586   1.683 -0.1381 -0.2883 -0.2428
 6077SOL    HW119130   0.303   2.559   1.713 -0.1146  1.0363  0.9923
 6077SOL    HW219131   0.200   2.685   1.695 -0.5486  0.2022 -3.6095
 6078SOL     OW19132   3.212   3.302   3.398  0.1525  0.1661 -0.9324
 6078SOL    HW119133   3.143   3.251   3.449 -1.2564 -0.4298 -3.2903
 6078SOL    HW219134   3.300   3.255   3.405 -0.1575 -0.2696  0.3174
 6079SOL     OW19135   1.745   3.776   1.615 -0.2896  0.0387 -0.8996
 6079SOL    HW119136   1.747   3.760   1.714 -0.4989 -2.1119 -1.1974
 6079SOL    HW219137   1.683   3.852   1.595  0.1971  0.9026  0.6253
 6080SOL     OW19138   0.056   2.471   2.163 -0.0333  0.2143 -0.0499
 6080SOL    HW119139   0.142   2.438   2.203 -0.0494  1.2723  0.8908
 6080SOL    HW219140  -0.013   2.399   2.170  0.6413 -0.4788 -0.3964
 6081SOL     OW19141   2.443   4.196   6.702 -0.9137 -0.4544  0.2128
 6081SOL    HW119142   2.373   4.267   6.716 -1.8678 -1.1535 -0.8740
 6081SOL    HW219143   2.403   4.106   6.717 -0.5541 -0.9324 -1.4648
 6082SOL     OW19144   6.816   3.707   0.710 -0.7865 -0.0491  0.5150
 6082SOL    HW119145   6.791   3.729   0.616 -1.7403  0.7570  0.9342
 6082SOL    HW219146   6.881   3.631   0.711 -0.6340  0.0471 -0.7928
 6083SOL     OW19147   3.203   4.920   1.938  0.3792 -0.2520 -0.3466
 6083SOL    HW119148   3.241   4.995   1.992 -1.0706  1.6582 -1.8038
 6083SOL    HW219149   3.276   4.876   1.885  1.3879 -0.4893  1.1845
 6084SOL     OW19150   5.053   2.987   6.412  0.0483  0.3927 -0.0735
 6084SOL    HW119151   5.018   3.081   6.405 -0.1009  0.3466  0.0569
 6084SOL    HW219152   5.060   2.948   6.321 -3.0167 -0.6211  0.0159
 6085SOL     OW19153   3.550   5.113   2.364  0.0022 -0.2231 -0.0265
 6085SOL    HW119154   3.644   5.108   2.399 -0.1964 -1.4852  0.3663
 6085SOL    HW219155   3.530   5.030   2.311 -1.3646 -0.6495  1.1140
 6086SOL     OW19156   1.000   4.530   6.158  0.7439  0.3134 -0.6364
 6086SOL    HW119157   0.983   4.453   6.219 -1.6177  0.5885 -0.8456
 6086SOL    HW219158   1.051   4.498   6.078  2.5128 -0.3594  0.7098
 6087SOL     OW19159   1.792   0.742   4.990  0.1669  0.2763 -0.0128
 6087SOL    HW119160   1.732   0.819   5.011 -2.1373 -0.8066 -2.1485
 6087SOL    HW219161   1.838   0.758   4.903  0.1698 -0.4798 -0.1604
 6088SOL     OW19162   0.531   4.672   5.871  0.6359  0.0208  0.1893
 6088SOL    HW119163   0.504   4.738   5.940  1.4903  0.8891 -0.2817
 6088SOL    HW219164   0.534   4.716   5.782 -0.1639 -1.0156 -0.3671
 6089SOL     OW19165   2.935   5.334   6.648  0.0915 -0.0374  0.0947
 6089SOL    HW119166   2.850   5.385   6.634  0.3032  0.2782 -0.0396
 6089SOL    HW219167   2.992   5.342   6.566  0.1356 -0.4682  0.0840
 6090SOL     OW19168   2.913   1.500   3.172  0.4580  0.1546 -0.2311
 6090SOL    HW119169   2.942   1.540   3.259  0.8919  0.6743 -0.6114
 6090SOL    HW219170   2.959   1.547   3.096  1.0190 -1.0836 -0.6903
 6091SOL     OW19171   1.253   6.433   6.165 -0.1204  0.3183  0.6110
 6091SOL    HW119172   1.326   6.421   6.232 -0.3196 -0.1037  0.7528
 6091SOL    HW219173   1.291   6.470   6.080  0.8643 -2.9226 -0.5153
 6092SOL     OW19174   6.704   2.103   4.522 -0.2614  0.2645 -0.0008
 6092SOL    HW119175   6.707   2.116   4.423 -0.0573 -0.5298 -0.1045
 6092SOL    HW219176   6.643   2.171   4.563  0.1527  1.0001 -0.5989
 6093SOL     OW19177   3.458   0.199   1.330 -0.1121  0.0591 -0.3017
 6093SOL    HW119178   3.387   0.152   1.382  0.7641 -1.0260 -0.0238
 6093SOL    HW219179   3.520   0.246   1.394 -0.3265  0.6305 -0.5117
 6094SOL     OW19180   6.399   1.556   1.336  0.0972 -0.9641  0.6145
 6094SOL    HW119181   6.307   1.561   1.297  0.1667 -0.5994  0.4905
 6094SOL    HW219182   6.395   1.582   1.433  0.2118  0.0379  0.3664
 6095SOL     OW19183   1.255   1.291   5.802 -0.1563 -0.1635  0.1111
 6095SOL    HW119184   1.342   1.295   5.752 -1.0171  0.6512 -1.3727
 6095SOL    HW219185   1.191   1.233   5.753 -0.8089  0.0957  0.6425
 6096SOL     OW19186   2.243   2.842   3.468 -0.3844  0.3045 -0.5067
 6096SOL    HW119187   2.235   2.908   3.543  1.8733 -0.2374  0.2788
 6096SOL    HW219188   2.162   2.783   3.467 -1.7197  2.0280 -0.2510
 6097SOL     OW19189   4.134   2.075   6.326  0.8059 -0.2937  0.0563
 6097SOL    HW119190   4.171   2.010   6.260 -0.3767 -0.0157 -0.9315
 6097SOL    HW219191   4.164   2.051   6.418  3.2511 -0.1585 -0.6535
 6098SOL     OW19192   3.162   6.816   4.552 -0.2855  0.2754 -0.9483
 6098SOL    HW119193   3.167   6.726   4.510 -2.6123 -0.0380 -0.7063
 6098SOL    HW219194   3.110   6.809   4.638  2.2980  1.3050  0.8389
 6099SOL     OW19195   1.902   2.592   2.230  0.3145 -0.8208  0.3001
 6099SOL    HW119196   1.835   2.518   2.218  0.1721 -0.6948  0.3169
 6099SOL    HW219197   1.903   2.649   2.147 -0.5595 -0.0377  0.8068
 6100SOL     OW19198   3.808   4.132   6.159  0.2157 -0.1744 -0.0169
 6100SOL    HW119199   3.764   4.103   6.073  0.8461 -1.2617  0.0145
 6100SOL    HW219200   3.906   4.146   6.143  0.4823 -1.1154  0.6715
 6101SOL     OW19201   4.477   3.695   5.838  0.3082 -0.0555  0.0380
 6101SOL    HW119202   4.431   3.611   5.865  0.2548  0.5453  1.9342
 6101SOL    HW219203   4.547   3.718   5.905  0.6217  1.1902 -0.6807
 6102SOL     OW19204   1.306   0.266   5.986  0.1219 -0.4695  0.4829
 6102SOL    HW119205   1.393   0.224   5.962  0.0531 -1.2710  1.5488
 6102SOL    HW219206   1.315   0.365   5.985  0.8519 -0.5347 -0.0968
 6103SOL     OW19207   4.497   2.277   0.875  0.1001  0.5096  0.0285
 6103SOL    HW119208   4.465   2.242   0.963  1.9051  1.0700  0.9478
 6103SOL    HW219209   4.428   2.339   0.837 -0.3124  1.0120  1.5201
 6104SOL     OW19210   1.940   2.256   1.398  0.5895 -0.1046  0.4733
 6104SOL    HW119211   1.962   2.211   1.485 -0.7123  0.1733  0.9635
 6104SOL    HW219212   1.933   2.187   1.326  2.0560 -0.3004  0.4778
 6105SOL     OW19213   5.097   1.176   3.598  0.2795  0.2680 -0.5164
 6105SOL    HW119214   5.070   1.254   3.654 -0.7290 -0.8578  0.6416
 6105SOL    HW219215   5.106   1.204   3.503  1.2157  2.0566  0.0745
 6106SOL     OW19216   3.236   1.581   4.589  0.3724 -0.1978  0.4729
 6106SOL    HW119217   3.193   1.541   4.670 -0.4635 -3.2199 -1.3114
 6106SOL    HW219218   3.174   1.572   4.511  1.3123  2.2661 -0.6581
 6107SOL     OW19219   5.016   3.563   6.675  0.1675 -0.1406  0.2558
 6107SOL    HW119220   4.991   3.626   6.748  2.1711 -0.5695  1.3833
 6107SOL    HW219221   4.937   3.549   6.614 -0.4329  3.2386  0.0543
 6108SOL     OW19222   3.214   6.297   3.821  0.7024  0.2365 -0.9239
 6108SOL    HW119223   3.207   6.224   3.753 -0.1603  0.1246 -0.7331
 6108SOL    HW219224   3.134   6.356   3.815 -0.5240 -1.0377  1.3891
 6109SOL     OW19225   1.735   4.365   0.042 -0.1021 -0.4030  0.2816
 6109SOL    HW119226   1.806   4.416   0.091 -0.0326  0.6014 -0.8137
 6109SOL    HW219227   1.647   4.379   0.086  0.0096  0.2175  0.3110
 6110SOL     OW19228   5.301   4.346   0.002 -0.0241  0.1412  0.2413
 6110SOL    HW119229   5.305   4.327   0.100  2.0741 -0.1355  0.1504
 6110SOL    HW219230   5.208   4.330  -0.031 -0.3791 -1.4557  1.8482
 6111SOL     OW19231   1.550   2.176   5.470  0.3946  0.1694  0.3538
 6111SOL    HW119232   1.618   2.111   5.436  1.5160  1.9660 -1.0261
 6111SOL    HW219233   1.472   2.178   5.408  1.3245  1.6424 -0.8177
 6112SOL     OW19234   0.803   5.984   2.104 -0.2936 -0.0637  0.0603
 6112SOL    HW119235   0.831   5.939   2.189  0.2550 -0.8679 -0.5303
 6112SOL    HW219236   0.703   5.992   2.103 -0.3635 -0.7375  0.4524
 6113SOL     OW19237   0.593   2.225   4.434 -0.5432  0.4871  0.0832
 6113SOL    HW119238   0.667   2.239   4.500 -0.5776 -0.3466  0.3132
 6113SOL    HW219239   0.506   2.217   4.483 -0.5517 -0.2726 -0.0415
 6114SOL     OW19240   5.214   2.585   3.153  0.0556 -0.0150  0.1215
 6114SOL    HW119241   5.213   2.684   3.162 -0.8755  0.0794 -0.7638
 6114SOL    HW219242   5.301   2.555   3.115  1.4214  0.1733  2.8358
 6115SOL     OW19243   2.010   6.215   5.536  0.1192 -0.4795  0.1338
 6115SOL    HW119244   2.075   6.205   5.610 -1.0899  0.1378  1.3206
 6115SOL    HW219245   1.923   6.171   5.561 -0.6590  0.6695 -0.4442
 6116SOL     OW19246   0.563   2.184   1.552  0.1534  0.2714  0.6333
 6116SOL    HW119247   0.640   2.245   1.572 -0.7181  0.9092  2.2388
 6116SOL    HW219248   0.528   2.204   1.461  2.1975 -0.4169 -0.3774
 6117SOL     OW19249   3.152   0.925   2.567 -0.5487  0.3209  0.8129
 6117SOL    HW119250   3.164   0.858   2.493 -0.4631  0.4660  0.6962
 6117SOL    HW219251   3.225   0.993   2.563 -0.7802  0.5665  0.7808
 6118SOL     OW19252   2.782   1.063   5.658  0.3549  0.1645  0.6437
 6118SOL    HW119253   2.868   1.046   5.610  0.1374 -0.9030  0.6025
 6118SOL    HW219254   2.741   1.148   5.625  1.8742  1.2149  1.3819
 6119SOL     OW19255   1.570   2.363   1.300  0.3613  0.2831  0.3236
 6119SOL    HW119256   1.624   2.372   1.216  0.1312 -2.6558 -0.2511
 6119SOL    HW219257   1.584   2.271   1.339 -2.8586  0.0003  1.1097
 6120SOL     OW19258   3.416   4.741   5.557  0.4341  0.4518  0.4863
 6120SOL    HW119259   3.371   4.799   5.626 -1.2062  0.3663 -0.4469
 6120SOL    HW219260   3.486   4.795   5.509  0.3718  1.0349  1.0366
 6121SOL     OW19261   0.076   6.780   3.174  0.2629  0.2812 -0.0569
 6121SOL    HW119262   0.077   6.858   3.110 -1.0090  0.3400 -0.0310
 6121SOL    HW219263   0.009   6.713   3.143  0.2207 -0.0725  0.7886
 6122SOL     OW19264   6.851   1.292   2.488 -0.3642 -0.1869  0.8996
 6122SOL    HW119265   6.950   1.293   2.492 -0.2729 -2.4954  0.5560
 6122SOL    HW219266   6.818   1.378   2.449  1.3508  1.3868  2.7254
 6123SOL     OW19267   5.734   3.734   5.681  0.5156  0.2036  0.2181
 6123SOL    HW119268   5.678   3.652   5.693  0.8194 -0.1295 -0.6261
 6123SOL    HW219269   5.763   3.767   5.771  2.7611 -2.2423  0.5145
 6124SOL     OW19270   1.792   3.260   4.993  0.0248 -0.6619  0.3357
 6124SOL    HW119271   1.826   3.207   4.916 -0.3018 -2.0943  1.1407
 6124SOL    HW219272   1.721   3.208   5.041 -0.0578  0.3575  1.3680
 6125SOL     OW19273   2.179   3.140   3.019  0.4427  0.0660  0.6309
 6125SOL    HW119274   2.194   3.102   3.110  2.4747  1.1293  0.8000
 6125SOL    HW219275   2.221   3.080   2.951 -0.3716 -0.3188  0.4646
 6126SOL     OW19276   2.035   6.376   4.773 -0.1893 -0.0885 -0.2464
 6126SOL    HW119277   2.033   6.307   4.699  0.3828  1.7367 -2.0516
 6126SOL    HW219278   2.129   6.394   4.799 -0.3938 -0.7527  1.0073
 6127SOL     OW19279   7.016   4.152   6.049 -0.9164 -0.0622  0.1970
 6127SOL    HW119280   7.111   4.146   6.017 -0.8113 -1.4340  0.7121
 6127SOL    HW219281   7.014   4.195   6.140 -0.8229  0.2287  0.0626
 6128SOL     OW19282   3.971   5.406   6.106  0.0593  0.1642 -0.7544
 6128SOL    HW119283   3.927   5.409   6.017  0.0546 -1.8894 -0.8698
 6128SOL    HW219284   4.071   5.405   6.093  0.0525 -0.9730 -0.8043
 6129SOL     OW19285   2.648   1.760   5.388  0.7956  0.1384  0.7911
 6129SOL    HW119286   2.649   1.719   5.296 -0.2364  0.6785  0.5225
 6129SOL    HW219287   2.675   1.856   5.381 -1.8548  0.9376  0.6215
 6130SOL     OW19288   5.133   5.385   2.899  0.2890  0.0174  0.1767
 6130SOL    HW119289   5.176   5.379   2.809  1.3813  0.9705  0.6069
 6130SOL    HW219290   5.072   5.464   2.902 -0.4247 -0.5132  0.0195
 6131SOL     OW19291   3.620   6.545   5.035 -0.0817  0.2607 -0.4055
 6131SOL    HW119292   3.705   6.589   5.005  0.9470 -1.4285 -0.1081
 6131SOL    HW219293   3.629   6.446   5.027 -2.8422  0.0552 -2.4522
 6132SOL     OW19294   4.877   5.451   0.461 -0.4159 -0.4729 -0.3506
 6132SOL    HW119295   4.925   5.460   0.549 -2.6722  0.8880  0.8271
 6132SOL    HW219296   4.818   5.370   0.464 -0.2002 -0.6461 -0.7841
 6133SOL     OW19297   6.190   3.786   4.904 -0.1026  0.1585 -0.0843
 6133SOL    HW119298   6.178   3.688   4.891  1.8849 -0.0614 -0.4986
 6133SOL    HW219299   6.136   3.835   4.835  2.1023 -0.7931 -2.6734
 6134SOL     OW19300   0.593   2.466   3.221 -0.2524 -0.1519  0.6013
 6134SOL    HW119301   0.553   2.483   3.131  0.1904  1.0233  0.6031
 6134SOL    HW219302   0.635   2.376   3.222 -1.5446 -0.7981  0.1185
 6135SOL     OW19303   1.939   0.435   5.761 -0.2604 -0.7245  0.1423
 6135SOL    HW119304   1.932   0.388   5.849 -2.9757 -2.4537 -0.8805
 6135SOL    HW219305   1.992   0.379   5.697  1.0205  0.1622  0.3726
 6136SOL     OW19306   4.096   3.665   5.983  0.2220  0.4416 -0.3234
 6136SOL    HW119307   4.127   3.635   5.893 -0.6670  0.9529 -0.8058
 6136SOL    HW219308   4.163   3.728   6.022 -0.1972  1.5716 -1.3767
 6137SOL     OW19309   6.742   0.764   6.117  0.4299  0.3162 -0.3649
 6137SOL    HW119310   6.671   0.756   6.187 -2.4413 -0.8397 -3.1964
 6137SOL    HW219311   6.741   0.857   6.080  0.3431  0.2756 -0.4635
 6138SOL     OW19312   3.691   0.790   1.093  0.0441  0.2288  0.1211
 6138SOL    HW119313   3.669   0.849   1.171 -3.1187  0.8458 -1.0914
 6138SOL    HW219314   3.628   0.712   1.091  2.0776 -1.4933 -0.1410
 6139SOL     OW19315   0.741   4.885   3.182 -0.3013  0.0622 -0.0490
 6139SOL    HW119316   0.692   4.816   3.235  0.8505 -0.5721  0.2269
 6139SOL    HW219317   0.692   4.902   3.096 -1.1584 -0.3118  0.3545
 6140SOL     OW19318   3.911   4.011   4.390 -0.3155 -0.0696  0.2835
 6140SOL    HW119319   3.811   4.014   4.395 -0.3125 -1.1983  1.4325
 6140SOL    HW219320   3.950   4.068   4.462 -0.1320 -0.1372  0.2386
 6141SOL     OW19321   0.370   3.910   5.766  0.0741 -0.0440 -0.2861
 6141SOL    HW119322   0.423   3.986   5.730  2.7963 -1.1733  1.0505
 6141SOL    HW219323   0.348   3.927   5.862 -0.4061 -0.3984 -0.3261
 6142SOL     OW19324   3.091   5.375   1.879  0.0200 -0.0648 -0.0974
 6142SOL    HW119325   3.153   5.305   1.842 -0.0453 -0.4237  0.4630
 6142SOL    HW219326   3.143   5.457   1.903  0.0440  0.2333 -1.1115
 6143SOL     OW19327   7.016   5.587   5.029 -0.2452  0.1926 -0.1831
 6143SOL    HW119328   7.087   5.630   4.974  2.1699 -2.8531  0.2820
 6143SOL    HW219329   6.936   5.569   4.972 -0.2407  2.4868 -1.0543
 6144SOL     OW19330   0.114   1.221   6.475 -0.0541  0.0331 -0.7427
 6144SOL    HW119331   0.040   1.269   6.520  0.5821  0.3898 -0.0568
 6144SOL    HW219332   0.138   1.139   6.527  0.7488  0.4993 -0.3470
 6145SOL     OW19333   1.580   2.805   4.943  0.1036  0.1132 -0.4223
 6145SOL    HW119334   1.536   2.845   5.024  1.0949 -0.5058  0.4545
 6145SOL    HW219335   1.678   2.822   4.947  0.2493 -0.4903 -1.1729
 6146SOL     OW19336   1.451   4.649   3.873  0.0952 -0.2922 -0.1453
 6146SOL    HW119337   1.475   4.630   3.967  1.6126  0.7861 -0.2825
 6146SOL    HW219338   1.356   4.680   3.868  0.0339 -0.2759  1.0280
 6147SOL     OW19339   4.370   0.289   2.549 -0.3785  0.3151 -0.3562
 6147SOL    HW119340   4.324   0.372   2.582 -1.1588 -0.8623  1.6903
 6147SOL    HW219341   4.408   0.239   2.626  1.7064 -0.3393 -1.7414
 6148SOL     OW19342   0.978   5.919   5.495 -0.2776 -1.0645  0.6468
 6148SOL    HW119343   0.971   5.819   5.503  2.0386 -1.1996  1.7001
 6148SOL    HW219344   1.046   5.943   5.426 -0.1375 -0.2393  1.0558
 6149SOL     OW19345   2.760   4.660   5.607  0.5028 -0.0078 -0.1105
 6149SOL    HW119346   2.803   4.569   5.610 -0.0821 -0.2766  0.2714
 6149SOL    HW219347   2.767   4.697   5.515 -1.8367 -1.7076 -1.0827
 6150SOL     OW19348   4.877   1.616   3.949  0.2008  0.3367  0.1740
 6150SOL    HW119349   4.783   1.586   3.932 -0.3770  3.0750 -2.0641
 6150SOL    HW219350   4.902   1.594   4.043 -2.5354 -0.7325  0.7438
 6151SOL     OW19351   6.400   4.749   2.190  0.6764  0.1023 -0.7903
 6151SOL    HW119352   6.388   4.835   2.140  1.5531  1.2286  0.8501
 6151SOL    HW219353   6.437   4.679   2.129 -0.4274  0.7419 -2.2547
 6152SOL     OW19354   2.089   5.310   5.443 -0.0376 -0.0138 -0.4068
 6152SOL    HW119355   2.106   5.376   5.370  0.4907 -0.6602 -0.8798
 6152SOL    HW219356   2.064   5.222   5.403 -0.9537 -0.0454  0.2253
 6153SOL     OW19357   6.737   6.997   0.219  0.0245  0.2007 -0.2215
 6153SOL    HW119358   6.647   7.039   0.229  0.0215 -0.0694  1.0135
 6153SOL    HW219359   6.726   6.900   0.195 -0.0152  0.1710 -0.0820
 6154SOL     OW19360   2.413   4.104   1.298  0.2443  0.2750 -0.6468
 6154SOL    HW119361   2.510   4.112   1.319  0.0649 -0.3155  0.4799
 6154SOL    HW219362   2.365   4.185   1.332 -0.0388 -0.6559  1.3875
 6155SOL     OW19363   6.770   0.451   6.098  0.6068 -0.0008  0.7749
 6155SOL    HW119364   6.785   0.424   6.003 -0.6415  1.0639  0.2459
 6155SOL    HW219365   6.851   0.499   6.132  0.7555  0.3265 -0.0252
 6156SOL     OW19366   2.382   3.049   0.248 -0.0631  0.1209 -0.0438
 6156SOL    HW119367   2.284   3.031   0.250  0.4856 -3.4200  1.4706
 6156SOL    HW219368   2.424   3.000   0.172  0.8183 -0.5527  0.8383
 6157SOL     OW19369   0.430   3.360   6.346  0.1272 -0.0155  0.1232
 6157SOL    HW119370   0.402   3.358   6.442 -0.6980  0.8280 -0.0830
 6157SOL    HW219371   0.390   3.440   6.301  0.3882 -0.4716 -0.9636
 6158SOL     OW19372   1.647   5.273   2.190  0.8839 -0.0808 -0.3532
 6158SOL    HW119373   1.721   5.221   2.147  0.2257 -0.1970 -1.3876
 6158SOL    HW219374   1.576   5.292   2.122  0.3793  0.8108  0.4004
 6159SOL     OW19375   5.608   2.872   3.738 -0.1151  0.1438  0.9511
 6159SOL    HW119376   5.583   2.778   3.719  1.5127 -0.3616  1.1563
 6159SOL    HW219377   5.674   2.903   3.669 -0.5741  1.1185  0.9308
 6160SOL     OW19378   5.663   1.365   6.296 -0.2577  0.1707  0.2548
 6160SOL    HW119379   5.737   1.298   6.287  0.6177  1.0752  0.5047
 6160SOL    HW219380   5.650   1.389   6.392  0.5873  1.5740  0.0533
 6161SOL     OW19381   5.700   0.936   0.301 -0.9730 -0.0955  0.4526
 6161SOL    HW119382   5.625   0.870   0.302  0.6870 -2.0848  0.5277
 6161SOL    HW219383   5.742   0.939   0.210 -0.9189  0.7561  0.4921
 6162SOL     OW19384   3.094   4.107   5.062  0.0651  0.0599  0.3636
 6162SOL    HW119385   2.996   4.099   5.085  0.0450 -0.8122  0.0080
 6162SOL    HW219386   3.106   4.093   4.964  0.4487  1.1585  0.2418
 6163SOL     OW19387   6.622   0.845   2.553  0.8786 -0.0634  0.3980
 6163SOL    HW119388   6.661   0.781   2.619  0.4694  1.6260  2.3837
 6163SOL    HW219389   6.662   0.935   2.566 -2.1800  1.3079  1.2584
 6164SOL     OW19390   6.190   5.718   6.826 -0.9984 -0.1314  0.0293
 6164SOL    HW119391   6.216   5.661   6.748  2.5491  2.7051 -1.0936
 6164SOL    HW219392   6.128   5.790   6.794 -2.6676 -1.1664  0.7591
 6165SOL     OW19393   2.871   0.184   3.180  0.1682 -0.4466  0.2932
 6165SOL    HW119394   2.863   0.134   3.094 -2.4799  0.8290 -0.3254
 6165SOL    HW219395   2.882   0.120   3.256 -0.1237 -1.7600 -0.7473
 6166SOL     OW19396   1.599   0.399   6.307  0.6779 -0.2182  0.1912
 6166SOL    HW119397   1.550   0.450   6.235 -1.2147 -0.9879  0.8742
 6166SOL    HW219398   1.595   0.450   6.392 -1.2712 -1.4107  0.8933
 6167SOL     OW19399   4.432   3.932   0.797  0.1495  0.2054 -0.4871
 6167SOL    HW119400   4.525   3.968   0.810  0.3699 -0.2819 -0.6771
 6167SOL    HW219401   4.367   3.990   0.845  0.7083 -0.2747  0.9252
 6168SOL     OW19402   4.219   2.385   0.805 -0.8306  0.5322 -0.1662
 6168SOL    HW119403   4.196   2.464   0.862 -1.1459  0.0058  0.4404
 6168SOL    HW219404   4.213   2.411   0.708 -0.6637  1.3232  0.0317
 6169SOL     OW19405   6.234   5.510   5.080  0.5453  0.6061  0.3419
 6169SOL    HW119406   6.291   5.492   5.000  2.8065  0.9803  1.7420
 6169SOL    HW219407   6.283   5.572   5.142 -2.1622  2.3677  0.9088
 6170SOL     OW19408   2.859   2.833   1.057  0.2705 -0.5336  0.0029
 6170SOL    HW119409   2.794   2.842   1.133  1.2916 -0.6316  0.9126
 6170SOL    HW219410   2.879   2.737   1.042  1.8026 -0.4277  1.1510
 6171SOL     OW19411   0.991   0.725   2.178 -0.1706  0.1958  0.0082
 6171SOL    HW119412   1.048   0.711   2.259  1.0893 -0.0863 -0.8877
 6171SOL    HW219413   0.902   0.762   2.205 -0.1342 -0.7724  1.5959
 6172SOL     OW19414   0.666   2.687   4.356 -0.1196 -0.1533  0.0329
 6172SOL    HW119415   0.661   2.787   4.355 -1.2935 -0.1919 -1.6888
 6172SOL    HW219416   0.748   2.659   4.406 -0.0046  1.6366  0.9526
 6173SOL     OW19417   6.884   4.614   4.580 -0.8160 -0.4543 -0.1913
 6173SOL    HW119418   6.829   4.697   4.576 -0.6650 -0.3984 -1.3967
 6173SOL    HW219419   6.916   4.591   4.488  0.8169 -0.7168  0.4130
 6174SOL     OW19420   0.055   4.194   2.376  0.4439 -0.3021  0.4384
 6174SOL    HW119421  -0.003   4.193   2.458  2.2285  1.6928  1.8437
 6174SOL    HW219422   0.126   4.124   2.385  0.7066 -0.0090  0.6596
 6175SOL     OW19423   0.239   1.349   0.260  0.4658 -0.2126  0.1356
 6175SOL    HW119424   0.281   1.395   0.181  0.2580 -2.0555 -1.1121
 6175SOL    HW219425   0.297   1.362   0.341 -0.5765  3.9127  0.4522
 6176SOL     OW19426   1.299   6.967   5.539  0.2095  0.3491  0.5348
 6176SOL    HW119427   1.239   6.898   5.499  0.4142  1.3039 -1.5208
 6176SOL    HW219428   1.375   6.921   5.585  0.1418 -0.8077 -0.4489
 6177SOL     OW19429   1.968   5.348   3.535  0.6136  0.5091 -0.3497
 6177SOL    HW119430   1.990   5.422   3.599 -0.6997  1.0547 -0.5008
 6177SOL    HW219431   1.985   5.378   3.441  1.8111 -0.0295 -0.3266
 6178SOL     OW19432   1.111   6.923   3.483  0.5698  0.0222  0.0956
 6178SOL    HW119433   1.139   6.847   3.424 -0.6386 -0.8726  0.6351
 6178SOL    HW219434   1.013   6.936   3.477  0.9407  2.9796 -1.6118
 6179SOL     OW19435   5.844   1.361   3.887 -0.3637 -0.1786 -0.3969
 6179SOL    HW119436   5.940   1.391   3.882 -0.4899  0.4376  0.6972
 6179SOL    HW219437   5.828   1.313   3.973 -1.6460  2.0245  0.6836
 6180SOL     OW19438   3.546   0.128   5.797  0.6281  0.0158 -0.5300
 6180SOL    HW119439   3.597   0.181   5.865  0.4290  2.1382 -1.9568
 6180SOL    HW219440   3.610   0.088   5.731  0.8771 -2.5424  1.1192
 6181SOL     OW19441   4.406   6.603   0.533  0.1031  0.2745  0.4608
 6181SOL    HW119442   4.415   6.698   0.565 -0.1455  0.4093  0.1340
 6181SOL    HW219443   4.490   6.554   0.553 -0.2756  0.1597  1.9546
 6182SOL     OW19444   4.051   1.625   0.322  0.0033 -0.1727 -0.2869
 6182SOL    HW119445   3.971   1.661   0.371  0.2295 -1.9849  1.5459
 6182SOL    HW219446   4.112   1.581   0.387  0.3535 -2.7096 -2.1939
 6183SOL     OW19447   2.108   6.097   6.842 -0.0408  0.0564  0.2871
 6183SOL    HW119448   2.032   6.033   6.840 -0.5588  0.5771  1.5731
 6183SOL    HW219449   2.107   6.147   6.929  2.3495 -0.6186  0.7811
 6184SOL     OW19450   0.211   6.324   1.475  0.1968  0.1459 -0.3475
 6184SOL    HW119451   0.114   6.299   1.469  0.2085 -0.4881  1.4888
 6184SOL    HW219452   0.219   6.422   1.489 -0.0618  0.5025 -2.2995
 6185SOL     OW19453   3.631   3.267   4.368  0.1523 -0.0746  0.3218
 6185SOL    HW119454   3.680   3.349   4.397  0.2948 -0.4317  1.1163
 6185SOL    HW219455   3.650   3.249   4.271 -1.6222  2.0699 -0.5205
 6186SOL     OW19456   2.474   5.287   6.076 -0.6471  0.5032 -0.7934
 6186SOL    HW119457   2.383   5.265   6.042  0.0668 -0.3026 -2.2528
 6186SOL    HW219458   2.477   5.274   6.175 -1.9031 -0.2064 -0.8361
 6187SOL     OW19459   5.391   1.875   2.917 -0.4284 -0.3727 -0.4611
 6187SOL    HW119460   5.470   1.935   2.929  1.2871 -2.7514  1.1636
 6187SOL    HW219461   5.419   1.793   2.867 -1.8262 -1.3183  0.2385
 6188SOL     OW19462   4.799   3.996   4.954  0.0440  0.5760  0.1400
 6188SOL    HW119463   4.755   4.044   5.030 -0.1702 -0.7084  0.8587
 6188SOL    HW219464   4.818   3.902   4.981  2.5252  0.8477 -0.4290
 6189SOL     OW19465   1.223   3.849   3.338  0.2706  0.2142 -0.0245
 6189SOL    HW119466   1.298   3.795   3.376 -0.7099 -0.9705  0.2887
 6189SOL    HW219467   1.140   3.833   3.392 -0.3659  0.9964 -0.7510
 6190SOL     OW19468   5.612   4.976   5.476 -0.1459  0.2423  0.2158
 6190SOL    HW119469   5.649   5.067   5.461 -0.1654  0.0777 -0.9642
 6190SOL    HW219470   5.602   4.929   5.388 -0.0196 -0.9459  0.8056
 6191SOL     OW19471   4.106   5.065   0.652 -0.1499  0.2910  0.0860
 6191SOL    HW119472   4.051   5.130   0.704  2.2170  2.7346 -0.2656
 6191SOL    HW219473   4.145   4.997   0.715 -1.6883 -0.1301  0.6289
 6192SOL     OW19474   1.048   2.893   2.601 -0.3200 -0.0126  0.7090
 6192SOL    HW119475   1.117   2.896   2.529 -0.8372 -0.8071  0.1548
 6192SOL    HW219476   1.084   2.845   2.681 -0.4803 -1.1399  0.1198
 6193SOL     OW19477   0.476   1.311   0.446 -0.0517  0.3853 -0.6137
 6193SOL    HW119478   0.429   1.253   0.514 -0.1678 -1.1672 -1.9626
 6193SOL    HW219479   0.519   1.388   0.493  1.4610 -1.6068  1.5013
 6194SOL     OW19480   4.829   4.746   3.449 -0.3791 -0.5681 -0.7950
 6194SOL    HW119481   4.758   4.808   3.416 -0.9484 -2.0891 -2.5894
 6194SOL    HW219482   4.831   4.664   3.392  0.3273 -2.2377  1.4853
 6195SOL     OW19483   5.708   5.730   2.826 -0.0381  0.8553  0.4475
 6195SOL    HW119484   5.710   5.638   2.866  1.1258  0.3510 -0.6802
 6195SOL    HW219485   5.630   5.781   2.862 -0.9653 -0.7272  0.7506
 6196SOL     OW19486   3.479   0.963   1.767  0.1780 -0.3358 -0.0268
 6196SOL    HW119487   3.431   1.011   1.840  0.2314  0.7826 -0.7037
 6196SOL    HW219488   3.465   1.011   1.680  0.2440 -1.5492 -0.7346
 6197SOL     OW19489   1.479   6.618   3.585 -0.1757 -0.1164  0.2118
 6197SOL    HW119490   1.417   6.555   3.632  0.0478 -0.2502  0.3337
 6197SOL    HW219491   1.431   6.702   3.563 -0.3649 -0.1680  0.4192
 6198SOL     OW19492   2.044   2.273   5.659  0.1495 -0.2347 -0.3275
 6198SOL    HW119493   2.028   2.318   5.571  0.6616 -0.2504 -0.4327
 6198SOL    HW219494   2.139   2.287   5.686 -0.7235  2.5544  1.7941
 6199SOL     OW19495   0.193   2.368   4.302 -0.5780 -0.0358  0.0343
 6199SOL    HW119496   0.101   2.337   4.326 -0.5458  0.3557  0.6773
 6199SOL    HW219497   0.247   2.290   4.268 -1.1701 -0.2475 -0.4386
 6200SOL     OW19498   0.117   6.306   4.796  0.0275  0.0912  0.0254
 6200SOL    HW119499   0.161   6.326   4.709  0.5483 -3.2474 -0.5993
 6200SOL    HW219500   0.186   6.306   4.869  0.1513 -0.1987 -0.0923
 6201SOL     OW19501   1.515   4.420   1.757 -0.1323 -0.1104 -0.6825
 6201SOL    HW119502   1.449   4.427   1.832  0.0888  0.0440 -0.5009
 6201SOL    HW219503   1.606   4.446   1.790  0.0310 -0.3790 -0.9172
 6202SOL     OW19504   0.206   6.055   1.816 -0.1622  0.4020  0.6246
 6202SOL    HW119505   0.254   6.060   1.728  1.9657  0.0165  1.6990
 6202SOL    HW219506   0.181   5.960   1.835 -2.7305  0.7673 -0.5705
 6203SOL     OW19507   4.897   3.472   3.944 -0.5256 -0.1283  0.4727
 6203SOL    HW119508   4.975   3.497   4.000 -0.8889 -1.2388  1.5271
 6203SOL    HW219509   4.898   3.373   3.929 -1.1052 -0.0048 -0.4852
 6204SOL     OW19510   1.764   4.360   1.266  0.5752 -0.5797 -0.0495
 6204SOL    HW119511   1.775   4.317   1.355 -1.5165 -0.3860  0.3506
 6204SOL    HW219512   1.778   4.458   1.274  1.3445 -0.6741 -0.1505
 6205SOL     OW19513   1.733   6.019   6.653  0.0206 -0.3567 -0.4292
 6205SOL    HW119514   1.712   6.078   6.574  1.5145 -0.2360 -0.7538
 6205SOL    HW219515   1.710   6.068   6.737 -1.2644 -0.3539 -0.7479
 6206SOL     OW19516   1.548   5.360   2.871 -0.4148 -0.3403  0.2493
 6206SOL    HW119517   1.578   5.445   2.828  0.6482 -1.2612 -0.9197
 6206SOL    HW219518   1.462   5.331   2.831 -0.2850 -0.3077 -0.0582
 6207SOL     OW19519   3.440   6.828   6.733 -0.2057  0.4417  0.0490
 6207SOL    HW119520   3.346   6.795   6.735 -0.6499  1.6789  1.0920
 6207SOL    HW219521   3.440   6.927   6.717  0.8886  0.5457  0.5987
 6208SOL     OW19522   1.832   0.549   2.196 -0.1133 -0.1376  0.0518
 6208SOL    HW119523   1.845   0.639   2.237  0.4796 -0.7811  1.3366
 6208SOL    HW219524   1.754   0.503   2.238 -0.7777 -0.0194 -1.0050
 6209SOL     OW19525   0.750   6.618   3.637 -0.2957  0.3565  0.5495
 6209SOL    HW119526   0.673   6.639   3.578 -1.3715  0.9716  2.1200
 6209SOL    HW219527   0.824   6.577   3.582 -0.6300  2.2784 -1.4798
 6210SOL     OW19528   1.057   4.794   5.827  0.1853 -0.3418  0.9770
 6210SOL    HW119529   1.115   4.803   5.907 -0.2746 -3.9026  1.8675
 6210SOL    HW219530   0.961   4.804   5.854  0.0949  3.0068 -0.0639
 6211SOL     OW19531   5.628   4.203   4.165 -0.3483  0.0019  0.1736
 6211SOL    HW119532   5.648   4.159   4.253 -2.9132 -1.0469  0.3254
 6211SOL    HW219533   5.619   4.133   4.094  1.9286  0.8529 -1.0673
 6212SOL     OW19534   0.746   2.003   5.952  0.4301  0.2369 -0.4105
 6212SOL    HW119535   0.656   1.975   5.985  0.4430  0.1897 -0.4165
 6212SOL    HW219536   0.754   1.984   5.855  0.3940  0.3717 -0.4407
 6213SOL     OW19537   5.598   3.874   0.706  0.0900 -0.0851 -0.0498
 6213SOL    HW119538   5.500   3.876   0.726  0.3997  3.3915  1.8259
 6213SOL    HW219539   5.630   3.966   0.683  2.9866 -1.0653 -0.3899
 6214SOL     OW19540   4.852   5.901   1.162 -0.3797 -0.1424 -0.3266
 6214SOL    HW119541   4.879   5.810   1.192 -0.7341 -0.1872 -0.1397
 6214SOL    HW219542   4.838   5.960   1.242  2.4934  0.8708 -0.4660
 6215SOL     OW19543   1.848   6.638   5.137  0.0515  0.0986 -0.3048
 6215SOL    HW119544   1.890   6.595   5.217 -0.9188  0.6491  0.5226
 6215SOL    HW219545   1.910   6.707   5.099  0.7481 -0.5588 -0.3839
 6216SOL     OW19546   6.126   3.986   1.962 -0.3195  0.2132  0.4310
 6216SOL    HW119547   6.072   3.975   2.046 -1.2399 -0.5066 -0.2238
 6216SOL    HW219548   6.105   4.075   1.921  0.0992  0.5494  0.9314
 6217SOL     OW19549   0.204   5.596   5.572 -0.1478 -0.7934 -0.4672
 6217SOL    HW119550   0.186   5.574   5.668 -0.6605 -2.2328 -0.8696
 6217SOL    HW219551   0.135   5.661   5.539  0.0170 -0.3144  0.1208
 6218SOL     OW19552   3.183   6.761   5.395  0.0645  0.2184  0.1993
 6218SOL    HW119553   3.247   6.697   5.436 -1.1828 -1.0583  0.2256
 6218SOL    HW219554   3.191   6.758   5.296 -1.7259 -1.9617  0.0403
 6219SOL     OW19555   5.246   1.889   6.125 -0.1230  0.2358  0.1032
 6219SOL    HW119556   5.335   1.844   6.135 -0.5828 -0.8768 -0.5340
 6219SOL    HW219557   5.236   1.960   6.194  0.2574 -1.2882  1.8225
 6220SOL     OW19558   3.354   0.033   0.398 -0.1981 -0.5787 -0.5312
 6220SOL    HW119559   3.426   0.048   0.330 -0.6521 -1.6573 -1.2745
 6220SOL    HW219560   3.308   0.120   0.418  2.2931  0.4695  1.1527
 6221SOL     OW19561   3.551   3.463   1.722  0.4983 -0.5508  0.7713
 6221SOL    HW119562   3.581   3.368   1.714  1.0379 -0.2508 -1.3335
 6221SOL    HW219563   3.619   3.515   1.772  0.6829 -1.0645  1.0669
 6222SOL     OW19564   6.419   1.486   6.237  0.1711 -0.5256  0.3157
 6222SOL    HW119565   6.403   1.430   6.155  2.8199 -2.0329  0.7272
 6222SOL    HW219566   6.416   1.583   6.211  0.5673 -0.9506 -1.5141
 6223SOL     OW19567   6.013   5.098   0.321  0.2548  0.4228  0.2983
 6223SOL    HW119568   6.083   5.155   0.365  0.3420  0.5523 -0.0078
 6223SOL    HW219569   6.018   5.005   0.358  1.1312  0.2198 -0.2903
 6224SOL     OW19570   6.454   0.149   3.887  0.0842 -0.3798 -0.4432
 6224SOL    HW119571   6.528   0.141   3.821 -0.3753  1.1570 -1.1886
 6224SOL    HW219572   6.472   0.225   3.949 -1.3054  0.6687 -1.2678
 6225SOL     OW19573   1.759   6.686   4.117  0.3474 -0.5348  0.1883
 6225SOL    HW119574   1.843   6.678   4.171  1.5884  0.1800 -1.5272
 6225SOL    HW219575   1.770   6.758   4.049 -0.9636 -1.6607 -1.2978
 6226SOL     OW19576   6.999   5.393   3.835  0.7610 -0.1866  0.7752
 6226SOL    HW119577   7.069   5.351   3.776  0.6542 -1.7252  1.6900
 6226SOL    HW219578   6.914   5.341   3.829  0.0550  0.9332  0.6414
 6227SOL     OW19579   2.683   4.957   2.317 -0.3365 -0.5373 -0.3396
 6227SOL    HW119580   2.630   4.932   2.236 -1.2123 -0.1803  0.1067
 6227SOL    HW219581   2.731   4.877   2.352 -0.0768 -0.7268 -1.1173
 6228SOL     OW19582   2.233   0.110   6.048 -0.2278  0.1426 -0.2988
 6228SOL    HW119583   2.282   0.081   5.966 -1.7006  2.6887 -2.2135
 6228SOL    HW219584   2.282   0.186   6.091 -0.9492  0.7328 -0.5071
 6229SOL     OW19585   1.535   1.275   4.106  0.3135  0.1601 -0.3377
 6229SOL    HW119586   1.606   1.310   4.045  2.5161 -0.8916  1.4605
 6229SOL    HW219587   1.565   1.283   4.201 -1.1795 -2.0222  0.4103
 6230SOL     OW19588   0.872   1.174   6.680  0.0658  0.0641  0.4722
 6230SOL    HW119589   0.933   1.176   6.760  0.6458 -1.6702  0.1319
 6230SOL    HW219590   0.779   1.197   6.708  0.5121  0.7992  1.3913
 6231SOL     OW19591   5.533   4.528   6.276 -0.7836  0.0815  0.1096
 6231SOL    HW119592   5.588   4.448   6.301  0.0334  0.1328 -1.4124
 6231SOL    HW219593   5.436   4.504   6.279 -0.6879 -0.2391  2.0660
 6232SOL     OW19594   4.156   4.299   0.672 -0.4407 -0.1343  0.5173
 6232SOL    HW119595   4.227   4.243   0.717 -0.0417  0.3789  0.5340
 6232SOL    HW219596   4.115   4.360   0.740 -2.0090 -1.5107  0.8708
 6233SOL     OW19597   0.391   1.935   2.617  0.1876 -0.0050 -0.2451
 6233SOL    HW119598   0.377   2.006   2.548  0.9653  1.1661  0.7377
 6233SOL    HW219599   0.379   1.975   2.708 -0.3104 -1.3875  0.3284
 6234SOL     OW19600   2.680   0.124   3.660 -0.3705  0.2750  0.4906
 6234SOL    HW119601   2.752   0.193   3.659  0.6179 -0.7310 -0.2850
 6234SOL    HW219602   2.696   0.058   3.586 -1.3753 -0.6814  1.1012
 6235SOL     OW19603   0.679   3.441   4.513 -0.1104 -0.4124 -0.3031
 6235SOL    HW119604   0.591   3.395   4.527 -0.3556 -0.0960 -0.7573
 6235SOL    HW219605   0.715   3.417   4.422 -0.4347  0.5885 -0.7087
 6236SOL     OW19606   4.897   3.768   0.946 -0.3022 -0.2476 -0.6037
 6236SOL    HW119607   4.894   3.697   1.015  3.0918  0.1814  0.1450
 6236SOL    HW219608   4.834   3.746   0.872 -2.5652 -1.7175  1.6333
 6237SOL     OW19609   5.981   3.121   5.811  0.0295  0.0089  0.5599
 6237SOL    HW119610   5.952   3.070   5.892 -1.1913 -1.5187 -0.7686
 6237SOL    HW219611   6.060   3.077   5.770 -0.8871 -0.7256 -0.4633
 6238SOL     OW19612   0.443   5.136   3.802  0.0399 -0.2276  0.3922
 6238SOL    HW119613   0.411   5.043   3.821  0.7948 -0.6512 -0.3405
 6238SOL    HW219614   0.542   5.136   3.788 -0.0546  0.5447 -0.4335
 6239SOL     OW19615   4.064   3.641   6.869 -0.8877  0.2509  0.0745
 6239SOL    HW119616   4.082   3.589   6.786  0.3550 -0.8641  0.9889
 6239SOL    HW219617   4.114   3.727   6.867  0.3749 -0.4503  0.2835
 6240SOL     OW19618   5.188   6.008   5.554 -0.1236 -0.4369 -0.0132
 6240SOL    HW119619   5.202   6.098   5.513  0.4338 -0.3346  0.3923
 6240SOL    HW219620   5.261   5.947   5.525 -0.8540 -0.9504 -0.8078
 6241SOL     OW19621   1.950   5.086   0.485 -0.2184  0.7026 -0.0884
 6241SOL    HW119622   2.000   5.153   0.540 -1.0565  0.8876  0.4652
 6241SOL    HW219623   1.875   5.049   0.538  0.5094 -1.0545 -0.2233
 6242SOL     OW19624   1.268   1.118   7.004 -0.3309  0.0149  0.1283
 6242SOL    HW119625   1.278   1.101   7.102  0.9514  1.5280  0.2947
 6242SOL    HW219626   1.357   1.112   6.960 -0.6860  0.7184 -0.7100
 6243SOL     OW19627   5.030   4.070   5.322  0.3536 -0.5587 -0.1016
 6243SOL    HW119628   5.018   4.136   5.397 -0.0799 -1.3113  0.5021
 6243SOL    HW219629   4.941   4.049   5.282  0.4470 -1.0641 -0.0451
 6244SOL     OW19630   0.517   6.004   2.931 -0.0152  0.1002 -0.0067
 6244SOL    HW119631   0.596   5.972   2.983 -0.4070  0.7918  1.0577
 6244SOL    HW219632   0.483   6.090   2.971 -1.1484 -0.0470 -0.5942
 6245SOL     OW19633   0.246   5.613   0.856  0.3454  0.4586  0.0627
 6245SOL    HW119634   0.245   5.687   0.788 -2.2663  0.5822  0.1202
 6245SOL    HW219635   0.222   5.651   0.946  1.6884 -0.0579  0.6651
 6246SOL     OW19636   0.969   6.550   4.333 -0.1306  0.2127 -0.0342
 6246SOL    HW119637   1.003   6.635   4.373 -2.2978  1.5660 -0.9133
 6246SOL    HW219638   0.969   6.557   4.233  0.7267 -1.3005 -0.1846
 6247SOL     OW19639   2.781   3.297   0.372  0.2284 -0.2079  0.1481
 6247SOL    HW119640   2.730   3.252   0.444  1.6079 -1.2175  0.5403
 6247SOL    HW219641   2.725   3.368   0.330 -1.5725 -1.4714  0.3350
 6248SOL     OW19642   2.485   5.241   0.310  0.3169  0.2308  0.4317
 6248SOL    HW119643   2.391   5.213   0.327 -0.3088  2.4989  1.0452
 6248SOL    HW219644   2.501   5.246   0.211  0.7480 -2.8711  0.2322
 6249SOL     OW19645   4.747   6.042   3.753 -0.1417 -0.0102  0.2327
 6249SOL    HW119646   4.810   5.965   3.737  0.8221  0.8929 -0.5209
 6249SOL    HW219647   4.657   6.007   3.777  0.6306 -1.3587  1.3473
 6250SOL     OW19648   4.240   3.188   5.343  0.1505 -0.1863 -0.0127
 6250SOL    HW119649   4.190   3.102   5.332 -0.1622 -0.2425  1.6739
 6250SOL    HW219650   4.192   3.261   5.293 -0.1306 -0.7812 -0.6197
 6251SOL     OW19651   2.814   1.833   0.749  0.3620  0.1848 -0.1038
 6251SOL    HW119652   2.789   1.817   0.654 -0.9363 -1.2115  0.4407
 6251SOL    HW219653   2.772   1.764   0.807  1.2338  0.9308  1.4907
 6252SOL     OW19654   1.849   1.173   4.436 -0.5441  0.0464  0.3654
 6252SOL    HW119655   1.928   1.227   4.407  1.1338 -1.5800  1.7059
 6252SOL    HW219656   1.839   1.094   4.376  0.2370 -0.9271  1.4651
 6253SOL     OW19657   6.314   1.442   0.988 -0.0921  0.0952  0.6803
 6253SOL    HW119658   6.344   1.537   0.990  0.9594 -0.1743 -0.7536
 6253SOL    HW219659   6.214   1.438   0.997 -0.5437  1.5897 -2.3917
 6254SOL     OW19660   5.746   6.050   0.776 -0.5690  0.2607 -0.0782
 6254SOL    HW119661   5.717   5.985   0.846  0.4625  0.1914  0.2986
 6254SOL    HW219662   5.805   6.119   0.817  1.5784 -0.8233 -1.1657
 6255SOL     OW19663   4.597   3.342   6.827  0.8341 -0.1484  0.6348
 6255SOL    HW119664   4.505   3.303   6.822  0.8621 -0.0409 -1.3947
 6255SOL    HW219665   4.665   3.269   6.817  0.8994  0.1210 -1.2821
 6256SOL     OW19666   3.215   5.469   1.603 -0.2067  0.1795 -0.2494
 6256SOL    HW119667   3.116   5.467   1.590 -0.1033  1.7298 -1.6589
 6256SOL    HW219668   3.236   5.483   1.699 -1.4037  1.4305 -0.1407
 6257SOL     OW19669   1.447   3.920   3.187  0.3772 -0.3886  0.2493
 6257SOL    HW119670   1.363   3.890   3.233 -0.5697  0.3602 -0.9178
 6257SOL    HW219671   1.463   4.017   3.208  1.1357 -0.6081  0.7167
 6258SOL     OW19672   3.496   5.045   4.881  0.3266  0.2699 -0.4674
 6258SOL    HW119673   3.468   5.115   4.816 -0.1187  1.7884  1.2716
 6258SOL    HW219674   3.417   4.990   4.908  0.4700 -0.2151 -1.0077
 6259SOL     OW19675   2.355   0.764   6.151  0.0696  0.0283  0.2551
 6259SOL    HW119676   2.392   0.684   6.198  0.0262 -1.0100 -1.4002
 6259SOL    HW219677   2.426   0.804   6.092 -0.2657  0.4773  0.1500
 6260SOL     OW19678   1.534   2.556   0.100  0.4724  0.4958  0.1372
 6260SOL    HW119679   1.508   2.493   0.027  0.1075 -0.3829  1.0107
 6260SOL    HW219680   1.591   2.509   0.167  1.9099  1.6440 -0.2334
 6261SOL     OW19681   6.257   4.474   4.080 -0.3220  0.3739 -0.1222
 6261SOL    HW119682   6.247   4.549   4.014 -2.1686  0.1977 -0.1024
 6261SOL    HW219683   6.263   4.387   4.031  1.0396  0.4490 -0.1186
 6262SOL     OW19684   0.987   5.920   0.928  0.2873  0.7434  0.0751
 6262SOL    HW119685   1.024   5.879   1.011 -0.3242 -1.2602 -0.5866
 6262SOL    HW219686   0.902   5.874   0.902  1.4077 -0.0160 -2.6620
 6263SOL     OW19687   6.260   5.838   6.008 -0.7344  0.0503 -0.4339
 6263SOL    HW119688   6.346   5.864   5.964 -0.3860  0.1419  0.2911
 6263SOL    HW219689   6.186   5.840   5.940  0.3821 -3.4188 -1.9416
 6264SOL     OW19690   6.174   2.875   3.416  0.2883  0.1233  0.5961
 6264SOL    HW119691   6.164   2.874   3.316  0.3931  0.7520  0.5744
 6264SOL    HW219692   6.233   2.799   3.445 -0.4555 -0.5955  0.2632
 6265SOL     OW19693   2.478   0.463   4.740  0.1259  0.3914  0.3304
 6265SOL    HW119694   2.428   0.398   4.797  0.9882 -2.7173 -2.1996
 6265SOL    HW219695   2.432   0.473   4.652  2.4951 -0.6878 -1.1482
 6266SOL     OW19696   5.055   7.004   3.346 -0.5057 -0.3284 -0.6784
 6266SOL    HW119697   5.023   6.910   3.354 -0.8846 -0.1502  0.0108
 6266SOL    HW219698   5.003   7.062   3.409  1.8065 -0.1694  1.2262
 6267SOL     OW19699   2.198   5.252   6.021  0.2699 -0.5970 -0.2675
 6267SOL    HW119700   2.181   5.328   5.959  2.4279  0.4422  0.3266
 6267SOL    HW219701   2.148   5.171   5.989 -3.1077  1.2936 -0.2531
 6268SOL     OW19702   4.294   0.275   5.412  0.2746 -0.2009 -0.0118
 6268SOL    HW119703   4.246   0.187   5.412  3.5734 -2.1899 -2.0554
 6268SOL    HW219704   4.363   0.276   5.485  0.6666  0.4558 -0.3846
 6269SOL     OW19705   0.658   3.766   3.880 -0.6325 -0.0611 -0.3921
 6269SOL    HW119706   0.602   3.684   3.868 -2.2629  0.8950  0.2783
 6269SOL    HW219707   0.598   3.845   3.892  0.8627  0.8823  1.3242
 6270SOL     OW19708   3.686   6.896   2.465  0.4265 -0.0867  0.6772
 6270SOL    HW119709   3.728   6.863   2.381  0.5577 -1.0536  1.0986
 6270SOL    HW219710   3.755   6.941   2.522  0.3869  0.3641  0.3677
 6271SOL     OW19711   6.177   4.470   5.378  0.1766  0.0505 -0.2395
 6271SOL    HW119712   6.140   4.502   5.465  0.9228  1.4881 -0.4197
 6271SOL    HW219713   6.182   4.370   5.378 -0.5963 -0.0100  1.0323
 6272SOL     OW19714   6.455   5.188   5.262  0.0021  0.3376  0.4584
 6272SOL    HW119715   6.388   5.196   5.189  0.7971  0.5938 -0.2708
 6272SOL    HW219716   6.432   5.112   5.321 -0.4527 -0.1103 -0.2815
 6273SOL     OW19717   5.724   0.989   4.904  0.9673  0.2020 -0.5236
 6273SOL    HW119718   5.707   1.021   4.997  1.7422  0.1380 -0.3594
 6273SOL    HW219719   5.728   0.889   4.904  0.2238  0.1603 -0.7603
 6274SOL     OW19720   4.837   6.891   3.167  0.1857  0.0202 -0.3689
 6274SOL    HW119721   4.785   6.848   3.093  0.3446 -0.4320 -0.2258
 6274SOL    HW219722   4.906   6.952   3.129  0.9390 -0.9759 -0.6400
 6275SOL     OW19723   0.060   2.871   5.431 -0.4212 -0.2127 -0.3449
 6275SOL    HW119724   0.112   2.865   5.345  1.5032  1.2595  0.6418
 6275SOL    HW219725   0.085   2.795   5.490 -0.3406 -0.1990 -0.3610
 6276SOL     OW19726   2.489   6.584   2.482 -0.2591 -0.1736 -0.7758
 6276SOL    HW119727   2.516   6.507   2.539  0.0554  0.9235  0.5886
 6276SOL    HW219728   2.411   6.631   2.523  0.7460  1.3685 -0.5572
 6277SOL     OW19729   2.534   0.312   6.443  0.0964  0.0439 -0.2603
 6277SOL    HW119730   2.626   0.346   6.466  0.2882 -0.5517 -0.1303
 6277SOL    HW219731   2.523   0.219   6.478  0.2635 -0.7672 -2.2370
 6278SOL     OW19732   0.907   2.827   1.304 -0.0022  0.2698 -0.0984
 6278SOL    HW119733   0.910   2.920   1.340 -0.5959 -0.2736  1.4044
 6278SOL    HW219734   1.000   2.800   1.276  0.6090  0.5040  1.5967
 6279SOL     OW19735   5.334   6.496   1.451 -0.0240  0.1688 -0.4258
 6279SOL    HW119736   5.354   6.529   1.544  0.6725 -2.1283  0.3018
 6279SOL    HW219737   5.245   6.532   1.422 -0.7257  0.1827  1.5456
 6280SOL     OW19738   5.988   3.214   1.530  0.1825 -0.3087 -0.3475
 6280SOL    HW119739   6.043   3.146   1.482  0.5198 -1.7222  1.8982
 6280SOL    HW219740   5.966   3.181   1.621  1.8049  3.2548  1.5570
 6281SOL     OW19741   2.776   2.276   2.874  0.1701 -0.4731  0.7536
 6281SOL    HW119742   2.688   2.315   2.902  1.5753  2.6764  1.2389
 6281SOL    HW219743   2.805   2.318   2.788  0.4007 -2.9047 -0.4571
 6282SOL     OW19744   0.849   2.186   1.794  0.4322  0.3291 -0.4535
 6282SOL    HW119745   0.806   2.110   1.842  1.5625 -0.5625 -0.8183
 6282SOL    HW219746   0.923   2.152   1.736  0.6819  1.6600 -0.9636
 6283SOL     OW19747   3.388   0.321   5.999 -0.5054 -0.1432  0.2009
 6283SOL    HW119748   3.325   0.396   5.975  0.4283  0.6510  0.1760
 6283SOL    HW219749   3.482   0.351   5.983 -0.1668 -2.2162 -2.4529
 6284SOL     OW19750   2.274   3.561   5.292  0.3667  0.3586  0.0575
 6284SOL    HW119751   2.217   3.635   5.257 -2.3715 -0.4642  2.4624
 6284SOL    HW219752   2.242   3.473   5.256  1.3457  0.0125 -0.0178
 6285SOL     OW19753   6.578   0.548   6.951 -0.3783 -0.0995  0.2244
 6285SOL    HW119754   6.620   0.597   7.028 -1.2312 -0.6330  1.0455
 6285SOL    HW219755   6.542   0.615   6.886  1.4554  0.3711 -0.3704
 6286SOL     OW19756   5.461   3.317   5.966 -0.0945 -0.0261 -0.0159
 6286SOL    HW119757   5.382   3.360   5.922 -0.1132  0.6146  0.6259
 6286SOL    HW219758   5.432   3.272   6.050  0.1455 -0.2032 -0.0260
 6287SOL     OW19759   6.436   2.019   6.779 -0.5298 -0.2682 -0.2770
 6287SOL    HW119760   6.535   2.010   6.769 -0.6801 -1.7195 -0.6158
 6287SOL    HW219761   6.392   1.930   6.766 -1.7645  0.0494  1.3125
 6288SOL     OW19762   0.901   0.848   4.211 -0.2079  0.5503  0.4041
 6288SOL    HW119763   0.907   0.867   4.113  1.1639  2.2105  0.7566
 6288SOL    HW219764   0.981   0.887   4.257 -0.3452 -1.0142  2.0752
 6289SOL     OW19765   4.237   0.560   1.561  0.2688 -0.0735 -0.0113
 6289SOL    HW119766   4.317   0.564   1.501 -0.6970  0.7431 -1.3137
 6289SOL    HW219767   4.264   0.581   1.655  1.9699 -2.2747  0.0411
 6290SOL     OW19768   0.573   4.210   5.403 -0.3486  0.2524 -0.4652
 6290SOL    HW119769   0.588   4.288   5.463  1.1559 -0.0136 -0.4697
 6290SOL    HW219770   0.556   4.127   5.457  1.4505 -0.0765 -0.3649
 6291SOL     OW19771   6.061   2.719   2.111 -0.3034 -0.1639 -0.0384
 6291SOL    HW119772   6.086   2.624   2.092 -1.9643 -0.3337 -1.5077
 6291SOL    HW219773   6.121   2.754   2.183  1.9668 -1.5306 -1.1472
 6292SOL     OW19774   2.016   2.250   6.192  0.0016 -0.3140 -0.1873
 6292SOL    HW119775   1.996   2.271   6.096 -0.2934 -0.3137 -0.1270
 6292SOL    HW219776   2.115   2.244   6.205  0.0199 -1.5476 -0.7592
 6293SOL     OW19777   1.390   0.625   0.719 -0.2359  0.3369  0.2813
 6293SOL    HW119778   1.465   0.602   0.782 -0.7967 -0.4270  0.6950
 6293SOL    HW219779   1.320   0.676   0.768 -0.9320 -0.7354  0.4503
 6294SOL     OW19780   4.936   4.684   6.937 -0.0399 -0.4738  0.4247
 6294SOL    HW119781   4.943   4.729   7.027  1.0774 -0.4224  0.3363
 6294SOL    HW219782   5.019   4.704   6.884 -2.1476  2.5610 -2.0945
 6295SOL     OW19783   4.333   6.261   1.066  0.0731 -0.5027 -0.3384
 6295SOL    HW119784   4.335   6.171   1.109 -0.4078 -0.8581 -1.0361
 6295SOL    HW219785   4.426   6.290   1.046  0.3940  0.1151  1.8032
 6296SOL     OW19786   4.359   6.971   0.871 -0.0659 -0.0686 -0.0109
 6296SOL    HW119787   4.266   6.952   0.840  1.0280 -1.1859 -2.9305
 6296SOL    HW219788   4.381   7.067   0.852 -0.2298 -0.1145 -0.4531
 6297SOL     OW19789   4.517   0.880   5.369 -0.0539 -0.8171 -0.1309
 6297SOL    HW119790   4.532   0.898   5.272 -2.5248  0.2292 -0.3916
 6297SOL    HW219791   4.558   0.953   5.423 -0.4403 -0.3180 -0.5077
 6298SOL     OW19792   5.538   6.633   2.782  0.1592 -0.0184 -0.3321
 6298SOL    HW119793   5.535   6.534   2.774  2.1320 -0.1516  0.0513
 6298SOL    HW219794   5.507   6.674   2.696 -3.2942 -0.8301  0.3680
 6299SOL     OW19795   2.579   5.667   1.912  0.1319  0.3823 -0.5740
 6299SOL    HW119796   2.559   5.765   1.911  2.0013  0.8163 -0.3836
 6299SOL    HW219797   2.559   5.629   2.002  1.3911  1.0809  0.0216
 6300SOL     OW19798   5.495   3.956   4.732  0.7939  0.5006 -0.1241
 6300SOL    HW119799   5.594   3.970   4.720  1.0598 -1.9162 -1.5454
 6300SOL    HW219800   5.472   3.862   4.707 -1.6218  0.4255  1.9699
 6301SOL     OW19801   2.387   2.321   0.674  0.0210 -0.2728 -0.1740
 6301SOL    HW119802   2.449   2.394   0.701 -0.0202 -0.1025 -0.5375
 6301SOL    HW219803   2.303   2.326   0.728  0.5902 -0.9104  0.7956
 6302SOL     OW19804   3.411   1.048   0.519  0.4062  0.3638 -0.3369
 6302SOL    HW119805   3.446   1.090   0.603  0.5897 -0.2408 -0.1018
 6302SOL    HW219806   3.474   1.066   0.444  0.0125  1.2971 -0.4593
 6303SOL     OW19807   3.571   4.901   6.616 -0.3747  0.2089 -0.5427
 6303SOL    HW119808   3.620   4.892   6.703 -0.8621  1.4891 -0.1183
 6303SOL    HW219809   3.625   4.956   6.553 -0.1469 -0.4884 -0.9697
 6304SOL     OW19810   4.138   3.473   2.932  0.0421 -0.3945  0.2903
 6304SOL    HW119811   4.108   3.466   2.837  0.4966 -2.9371  0.2872
 6304SOL    HW219812   4.237   3.486   2.936 -0.0771  0.5732  0.4355
 6305SOL     OW19813   6.275   3.150   3.667 -0.3206 -0.1541  0.2548
 6305SOL    HW119814   6.345   3.209   3.628 -0.7325  0.3851  0.3264
 6305SOL    HW219815   6.304   3.054   3.658  0.5767  0.0758  0.6030
 6306SOL     OW19816   2.551   2.838   1.360 -0.0192 -0.0736 -0.3887
 6306SOL    HW119817   2.651   2.835   1.353 -0.0772  1.2681 -2.8790
 6306SOL    HW219818   2.521   2.780   1.435  2.5543 -1.3354 -0.2379
 6307SOL     OW19819   2.386   0.542   3.659 -0.1895  0.1808  0.2215
 6307SOL    HW119820   2.306   0.507   3.610  1.2520 -3.9106  0.4386
 6307SOL    HW219821   2.355   0.596   3.738 -2.6422  0.4910 -0.8422
 6308SOL     OW19822   3.205   4.549   5.516 -0.6911 -0.1752  0.6295
 6308SOL    HW119823   3.278   4.614   5.497  0.5902 -2.2964 -2.4801
 6308SOL    HW219824   3.166   4.567   5.607  2.8849  1.7502  1.9557
 6309SOL     OW19825   6.360   3.225   0.813 -0.3737  0.3177  0.0032
 6309SOL    HW119826   6.375   3.173   0.898 -1.0296  0.0107 -0.0569
 6309SOL    HW219827   6.268   3.265   0.815 -1.2802 -1.5371 -1.4908
 6310SOL     OW19828   6.357   3.880   3.142  0.3488  0.1066 -0.1397
 6310SOL    HW119829   6.371   3.926   3.229  2.2237 -0.3750 -0.1303
 6310SOL    HW219830   6.435   3.820   3.123 -1.1979 -1.7717 -0.9568
 6311SOL     OW19831   1.953   3.902   2.193 -0.2487  0.1263 -0.2350
 6311SOL    HW119832   2.009   3.819   2.186  1.4201  1.2104 -0.3850
 6311SOL    HW219833   1.858   3.877   2.207  0.2459 -1.8101 -0.0543
 6312SOL     OW19834   5.724   1.852   5.598  0.0050  0.0516 -0.2294
 6312SOL    HW119835   5.816   1.813   5.597 -0.2519 -0.5806  0.3232
 6312SOL    HW219836   5.675   1.824   5.515 -0.0983 -0.6468  0.0524
 6313SOL     OW19837   3.656   5.798   5.912 -0.5166 -0.2900  0.7415
 6313SOL    HW119838   3.667   5.832   6.005  1.4125  2.2784 -0.3195
 6313SOL    HW219839   3.723   5.725   5.896  0.6092  0.7051  0.7725
 6314SOL     OW19840   6.706   3.372   2.497 -0.5801 -0.7870  0.2835
 6314SOL    HW119841   6.717   3.277   2.470 -2.9019 -1.4667  1.4656
 6314SOL    HW219842   6.688   3.377   2.596  1.2507  1.0635  0.6163
 6315SOL     OW19843   0.970   1.394   0.955  0.5250 -0.1249 -0.0679
 6315SOL    HW119844   0.938   1.472   0.900  1.1640  0.8080  0.8518
 6315SOL    HW219845   0.907   1.317   0.943  0.7283 -0.0159 -2.2115
 6316SOL     OW19846   3.256   0.622   1.859 -0.6708  0.1441  0.2906
 6316SOL    HW119847   3.250   0.722   1.863 -1.1328  0.1080  0.5801
 6316SOL    HW219848   3.183   0.582   1.916  0.2221 -0.3500  1.1093
 6317SOL     OW19849   0.243   3.073   4.628  0.0987 -0.0778 -0.1465
 6317SOL    HW119850   0.313   3.002   4.631 -0.1947 -0.3839 -0.3527
 6317SOL    HW219851   0.231   3.113   4.719  1.7681  1.2075 -0.4375
 6318SOL     OW19852   6.498   2.926   3.270  0.4003  0.5501  0.3924
 6318SOL    HW119853   6.426   2.973   3.322  0.0755  0.5511 -0.0568
 6318SOL    HW219854   6.519   2.978   3.187  0.3372  0.1203  0.1067
 6319SOL     OW19855   4.065   2.114   4.098 -0.6355  0.1546 -0.0712
 6319SOL    HW119856   4.053   2.111   4.198 -0.3251 -1.0408 -0.0621
 6319SOL    HW219857   3.976   2.129   4.055 -0.5682  2.3405  0.4259
 6320SOL     OW19858   5.342   2.882   3.502  0.1182  0.4736  0.2322
 6320SOL    HW119859   5.416   2.949   3.494 -0.4386  0.9392 -1.5087
 6320SOL    HW219860   5.368   2.797   3.457  0.5291 -0.2403  1.7805
 6321SOL     OW19861   2.436   4.831   2.703 -0.2248 -0.1107 -0.7071
 6321SOL    HW119862   2.523   4.783   2.694  0.3993  0.8413  0.1076
 6321SOL    HW219863   2.435   4.909   2.640 -1.1479 -1.0076 -1.8674
 6322SOL     OW19864   6.576   4.509   3.466 -0.2479  0.0190  0.1704
 6322SOL    HW119865   6.640   4.523   3.542  0.3647 -1.3324 -0.0672
 6322SOL    HW219866   6.618   4.540   3.381 -0.5564  0.6287  0.2326
 6323SOL     OW19867   4.863   5.016   5.623  0.0135  1.1107  0.8117
 6323SOL    HW119868   4.866   4.964   5.538  0.2454  0.7962  1.0109
 6323SOL    HW219869   4.946   4.998   5.676 -0.6971  0.3257  1.6868
 6324SOL     OW19870   2.055   5.506   4.973  0.4995 -0.0407  0.0074
 6324SOL    HW119871   2.031   5.591   4.927  1.6692  0.0098 -0.5467
 6324SOL    HW219872   2.132   5.463   4.926 -1.1355 -2.3155 -0.7869
 6325SOL     OW19873   2.029   0.973   2.182 -0.0858 -0.5636 -0.3002
 6325SOL    HW119874   2.058   1.064   2.213  1.0968 -0.9743 -0.1645
 6325SOL    HW219875   2.109   0.922   2.150 -1.1253 -0.3621 -3.5693
 6326SOL     OW19876   5.043   2.653   3.948  0.1366 -0.1539 -0.1144
 6326SOL    HW119877   5.070   2.686   4.038 -2.0337 -0.0709  0.5636
 6326SOL    HW219878   5.087   2.564   3.931  0.8657  0.0052  0.8525
 6327SOL     OW19879   3.390   0.860   6.830  0.0898 -0.1912  0.1032
 6327SOL    HW119880   3.422   0.935   6.888 -0.4150  0.6584 -0.6915
 6327SOL    HW219881   3.360   0.784   6.888  2.1279 -0.4574  0.8976
 6328SOL     OW19882   4.681   5.755   4.134 -0.5082 -0.4254 -0.1818
 6328SOL    HW119883   4.646   5.840   4.173 -0.9707 -0.7584  0.1494
 6328SOL    HW219884   4.615   5.720   4.068 -0.0198 -0.1939 -0.7959
 6329SOL     OW19885   5.953   2.821   5.751  0.2548 -0.0074  0.5100
 6329SOL    HW119886   5.865   2.867   5.744  0.1851 -0.1407  0.5100
 6329SOL    HW219887   5.988   2.801   5.659  0.3829  0.2321  0.5079
 6330SOL     OW19888   4.859   0.047   1.752  0.2078  0.4472 -0.3417
 6330SOL    HW119889   4.831   0.143   1.751 -0.3316  0.3000 -1.1952
 6330SOL    HW219890   4.795  -0.006   1.696  2.3141  0.1275 -2.6149
 6331SOL     OW19891   0.397   4.081   2.932 -0.4467 -0.1495  0.6670
 6331SOL    HW119892   0.494   4.099   2.915 -0.2961 -0.0350  1.5820
 6331SOL    HW219893   0.345   4.166   2.928  0.0383  0.3946  3.5240
 6332SOL     OW19894   5.303   4.023   5.350  0.2377  0.0246 -0.6154
 6332SOL    HW119895   5.217   4.049   5.306  0.6077  2.8574  0.1362
 6332SOL    HW219896   5.292   4.028   5.449  1.1212 -0.2273 -0.5009
 6333SOL     OW19897   5.852   3.507   2.654 -0.5027  0.0099 -0.1617
 6333SOL    HW119898   5.900   3.452   2.721 -0.3579  0.3395  0.0085
 6333SOL    HW219899   5.909   3.585   2.628 -1.0493  0.5605  0.2539
 6334SOL     OW19900   3.691   3.879   4.790  0.0337 -0.0372  0.0369
 6334SOL    HW119901   3.748   3.845   4.715  1.4099 -0.0171  1.0317
 6334SOL    HW219902   3.636   3.804   4.827 -0.1057 -0.2088 -0.5111
 6335SOL     OW19903   6.241   6.949   1.134 -0.1418  0.2581 -0.2220
 6335SOL    HW119904   6.238   6.856   1.171  0.7921  0.8861  1.5458
 6335SOL    HW219905   6.304   6.952   1.056  0.5187 -0.4200  0.2694
 6336SOL     OW19906   1.109   3.252   3.226  0.0013 -0.1118 -0.7667
 6336SOL    HW119907   1.014   3.257   3.255  0.3418  0.0565  0.4242
 6336SOL    HW219908   1.146   3.161   3.245  0.2411  0.0088 -0.6355
 6337SOL     OW19909   1.479   0.490   1.191  0.1468  0.8632 -0.1724
 6337SOL    HW119910   1.528   0.465   1.108  0.2611 -0.3433  0.2363
 6337SOL    HW219911   1.384   0.512   1.168 -0.0223 -0.1930 -0.5428
 6338SOL     OW19912   3.521   1.986   1.598  0.2395  0.3734 -0.2514
 6338SOL    HW119913   3.543   1.893   1.568  0.2041  0.0485  0.6948
 6338SOL    HW219914   3.602   2.026   1.642 -0.3507 -0.0279  1.2869
 6339SOL     OW19915   6.068   6.495   0.131 -0.1642 -0.2293  0.3218
 6339SOL    HW119916   6.027   6.484   0.041  0.8158 -1.4352  0.0000
 6339SOL    HW219917   6.098   6.590   0.143  0.1554 -0.1798 -0.8092
 6340SOL     OW19918   6.726   6.719   6.847  0.0822 -0.7332 -0.3304
 6340SOL    HW119919   6.766   6.712   6.756 -2.1443 -1.4262 -1.3157
 6340SOL    HW219920   6.629   6.740   6.840  0.6888  4.2073  2.0098
 6341SOL     OW19921   3.056   5.003   4.726  1.4540 -0.2450  0.1174
 6341SOL    HW119922   3.135   4.947   4.699  1.8824  0.0558  0.7229
 6341SOL    HW219923   2.981   4.944   4.756  1.7264 -0.5128  0.2749
 6342SOL     OW19924   3.125   0.911   6.655 -0.9281 -0.1431  0.3821
 6342SOL    HW119925   3.101   1.001   6.620 -1.0177  0.5545  2.1062
 6342SOL    HW219926   3.218   0.912   6.691  0.3250 -1.6927 -2.5045
 6343SOL     OW19927   1.369   6.832   4.564 -0.2110  0.3497  0.0968
 6343SOL    HW119928   1.389   6.850   4.660 -0.0469 -0.9641  0.3262
 6343SOL    HW219929   1.421   6.895   4.507  1.7048 -0.5252  0.7985
 6344SOL     OW19930   5.104   1.060   5.864 -0.3702  0.1936 -0.0269
 6344SOL    HW119931   5.122   0.977   5.812  1.3770 -0.4993  1.5650
 6344SOL    HW219932   5.141   1.139   5.814  1.6513 -0.5031  0.2504
 6345SOL     OW19933   3.693   1.637   1.839  0.1186 -0.3968  0.4201
 6345SOL    HW119934   3.636   1.646   1.921  1.3523 -1.1199  1.3884
 6345SOL    HW219935   3.787   1.664   1.860  0.3920 -0.2745 -0.8602
 6346SOL     OW19936   4.615   1.699   1.126 -0.0180  0.7590  0.5755
 6346SOL    HW119937   4.582   1.623   1.070  0.6612 -0.1245  1.3528
 6346SOL    HW219938   4.544   1.726   1.191 -0.5725  1.3705 -0.2522
 6347SOL     OW19939   3.635   1.631   6.529  0.0864 -0.0297 -0.0176
 6347SOL    HW119940   3.640   1.633   6.629  0.2152  3.5116  0.0121
 6347SOL    HW219941   3.725   1.653   6.490  0.0804 -1.5263 -0.9793
 6348SOL     OW19942   1.717   3.738   5.586 -0.0742  0.7264  0.3624
 6348SOL    HW119943   1.787   3.764   5.519 -1.6082  2.1492 -0.7679
 6348SOL    HW219944   1.701   3.814   5.649 -2.4891  1.5601 -1.1180
 6349SOL     OW19945   1.236   0.826   1.237 -0.3403  0.1771 -0.2165
 6349SOL    HW119946   1.172   0.876   1.179 -0.7745 -0.8004 -0.5814
 6349SOL    HW219947   1.279   0.891   1.301 -0.9046  1.0160 -0.6645
 6350SOL     OW19948   1.965   3.250   4.507  0.7605  0.4256  0.8166
 6350SOL    HW119949   2.013   3.207   4.431 -1.3041 -0.3727 -0.0951
 6350SOL    HW219950   1.994   3.346   4.514 -0.0010  0.9616 -1.9488
 6351SOL     OW19951   2.587   0.309   4.387  0.2809  0.3076  0.0977
 6351SOL    HW119952   2.592   0.226   4.331 -2.1534 -0.3704  0.7798
 6351SOL    HW219953   2.680   0.335   4.416  1.3387 -0.7224 -2.1499
 6352SOL     OW19954   4.441   2.237   4.331 -0.4680  0.0285  0.6767
 6352SOL    HW119955   4.401   2.201   4.247 -0.4028  2.6365 -0.5822
 6352SOL    HW219956   4.439   2.337   4.329  0.9126  0.2002  3.1441
 6353SOL     OW19957   0.433   5.081   6.488 -0.1361  0.0094 -0.8300
 6353SOL    HW119958   0.339   5.069   6.519  0.0060  0.8842 -0.0442
 6353SOL    HW219959   0.464   5.174   6.507  0.8178 -0.1951 -1.2874
 6354SOL     OW19960   5.708   2.572   6.346  0.4245 -0.2407  0.7669
 6354SOL    HW119961   5.736   2.483   6.382  0.3612 -0.2082  0.8980
 6354SOL    HW219962   5.755   2.589   6.259  1.9160  0.4360  1.6642
 6355SOL     OW19963   0.031   1.780   5.083 -0.0308  0.1068  0.0156
 6355SOL    HW119964   0.023   1.762   4.985 -1.2453  4.3237 -0.8711
 6355SOL    HW219965   0.120   1.821   5.102 -0.2754  0.4335  0.4621
 6356SOL     OW19966   1.298   3.475   2.727  0.2957 -0.3604  0.1701
 6356SOL    HW119967   1.254   3.428   2.803 -1.3504 -0.5625 -0.8609
 6356SOL    HW219968   1.282   3.574   2.735 -0.3990 -0.4374 -0.2255
 6357SOL     OW19969   0.823   0.139   1.368  0.3027 -0.0128  0.4336
 6357SOL    HW119970   0.733   0.159   1.330  0.0316 -0.0989  1.0209
 6357SOL    HW219971   0.875   0.223   1.378  0.4857 -0.0209 -0.3900
 6358SOL     OW19972   0.142   6.663   3.435  0.3151  0.1556 -0.5844
 6358SOL    HW119973   0.080   6.681   3.512  0.7426 -0.1310 -0.1648
 6358SOL    HW219974   0.118   6.723   3.359 -0.0473  0.5266 -0.1892
 6359SOL     OW19975   5.006   3.146   4.566  0.1489  0.0406 -0.0254
 6359SOL    HW119976   4.995   3.244   4.548 -1.9157 -0.2707 -0.7486
 6359SOL    HW219977   5.042   3.101   4.484  0.2757  0.0668  0.0156
 6360SOL     OW19978   2.280   4.449   1.867 -0.1614 -0.2485  0.0663
 6360SOL    HW119979   2.213   4.518   1.842 -1.9722 -1.7857  0.4567
 6360SOL    HW219980   2.234   4.361   1.883  2.1666 -1.9768 -1.9095
 6361SOL     OW19981   3.003   5.469   6.426 -0.5861  0.3252  0.6135
 6361SOL    HW119982   2.926   5.532   6.414 -1.0352 -0.2190  0.5821
 6361SOL    HW219983   3.086   5.511   6.390 -0.3142  1.9908  2.9301
 6362SOL     OW19984   1.265   6.941   0.071  0.0361  0.2912  0.4078
 6362SOL    HW119985   1.177   6.906   0.039  0.1777 -0.0042  0.3336
 6362SOL    HW219986   1.320   6.969  -0.007  0.0858  0.2884  0.4417
 6363SOL     OW19987   5.289   1.034   1.594  0.3066  0.3947 -0.2818
 6363SOL    HW119988   5.388   1.033   1.580  0.1437 -0.0554 -1.6289
 6363SOL    HW219989   5.249   1.107   1.538 -0.2644 -0.4498 -0.9903
 6364SOL     OW19990   5.347   2.160   3.711 -0.2964  0.5755  0.0394
 6364SOL    HW119991   5.375   2.252   3.741 -0.8079  0.6305  0.3560
 6364SOL    HW219992   5.406   2.092   3.755  0.4505  0.7740 -0.6288
 6365SOL     OW19993   3.500   3.187   4.596  0.0721 -0.7502 -0.1120
 6365SOL    HW119994   3.565   3.243   4.647 -1.3524 -0.2954  1.2882
 6365SOL    HW219995   3.521   3.191   4.498  0.4566  1.6393  0.0221
 6366SOL     OW19996   3.219   1.276   6.924  0.0690 -0.4843  0.7667
 6366SOL    HW119997   3.238   1.226   7.008  2.3349 -0.3776  0.3850
 6366SOL    HW219998   3.304   1.316   6.889 -1.1951  1.3839 -0.3771
 6367SOL     OW19999   1.833   7.009   5.878 -0.1120  0.3408 -0.2443
 6367SOL    HW120000   1.850   6.928   5.821  1.1433 -1.1150  2.0214
 6367SOL    HW220001   1.775   6.983   5.955 -0.4807  1.8698  0.0144
 6368SOL     OW20002   4.598   5.434   6.403 -0.6202 -0.8417 -0.2839
 6368SOL    HW120003   4.501   5.452   6.383 -0.4238 -0.3341 -0.7905
 6368SOL    HW220004   4.604   5.374   6.483 -1.3816 -1.6535 -0.8113
 6369SOL     OW20005   4.187   6.586   0.708  0.4486 -0.3931 -0.4623
 6369SOL    HW120006   4.233   6.612   0.623  0.0772  0.1796 -0.4873
 6369SOL    HW220007   4.119   6.655   0.732  0.2823 -0.7482  0.0970
 6370SOL     OW20008   2.461   3.860   5.886 -0.0124 -0.2484 -0.2221
 6370SOL    HW120009   2.511   3.848   5.800  0.5945 -1.2261  0.2488
 6370SOL    HW220010   2.474   3.952   5.920  1.1838 -0.3747 -0.2923
 6371SOL     OW20011   4.299   0.204   0.458  1.1510  0.1308 -0.7148
 6371SOL    HW120012   4.352   0.268   0.402  1.2487  0.4708 -0.2380
 6371SOL    HW220013   4.201   0.220   0.443  1.1686 -0.4617 -1.5550
 6372SOL     OW20014   1.068   2.401   1.528 -0.3076 -0.5603 -0.2537
 6372SOL    HW120015   1.086   2.430   1.622 -0.6177  1.7565 -0.8333
 6372SOL    HW220016   1.135   2.332   1.501 -0.7382 -1.9156  1.9040
 6373SOL     OW20017   6.368   2.022   5.145 -0.5884 -0.4022 -0.2074
 6373SOL    HW120018   6.391   2.105   5.195  2.4582 -2.3058  1.9266
 6373SOL    HW220019   6.386   2.035   5.048  2.0009  0.8827  0.3429
 6374SOL     OW20020   1.035   1.337   0.406  0.8833  0.1408 -0.3065
 6374SOL    HW120021   1.024   1.427   0.362  1.1138  1.0302  1.3610
 6374SOL    HW220022   1.130   1.325   0.434  0.7700 -0.4608 -0.1706
 6375SOL     OW20023   3.059   0.807   5.553  0.4142 -0.1652  0.9373
 6375SOL    HW120024   3.143   0.852   5.523  0.2770  0.6613  1.7403
 6375SOL    HW220025   2.983   0.836   5.496  0.5433 -0.3498  0.6707
 6376SOL     OW20026   5.534   5.773   5.985 -0.5189  0.3305  0.1860
 6376SOL    HW120027   5.484   5.688   6.002 -0.8946  0.5977  0.4361
 6376SOL    HW220028   5.506   5.842   6.052  0.3141  0.4341  0.4423
 6377SOL     OW20029   3.653   2.688   0.547 -0.9084 -0.3467  1.1572
 6377SOL    HW120030   3.672   2.759   0.616  1.9694 -0.4764  0.5963
 6377SOL    HW220031   3.637   2.731   0.458 -2.3231 -0.3088  1.3964
 6378SOL     OW20032   6.477   1.368   5.508 -0.6538  0.4356 -0.2087
 6378SOL    HW120033   6.395   1.344   5.456 -1.4488  1.0837  0.7101
 6378SOL    HW220034   6.504   1.461   5.484 -0.9244  0.6743  0.4010
 6379SOL     OW20035   4.813   6.263   2.990 -0.4263  0.3649  0.2368
 6379SOL    HW120036   4.800   6.330   3.064 -1.8880  1.1740 -0.6959
 6379SOL    HW220037   4.725   6.220   2.970  0.3643 -1.3684  0.3468
 6380SOL     OW20038   5.725   6.233   3.787 -0.4965 -0.1496 -0.2437
 6380SOL    HW120039   5.676   6.320   3.777 -0.4553  0.1640  1.9035
 6380SOL    HW220040   5.821   6.247   3.764 -0.3521  0.5589  0.7189
 6381SOL     OW20041   3.338   4.337   1.005 -0.0791  0.5237  0.2769
 6381SOL    HW120042   3.295   4.288   1.081  0.4325 -0.3577  0.0100
 6381SOL    HW220043   3.344   4.277   0.925 -1.7252  1.8097 -0.8842
 6382SOL     OW20044   2.509   1.389   2.667  0.4275  0.3550 -0.7633
 6382SOL    HW120045   2.573   1.426   2.599  1.7461 -2.3774 -1.1357
 6382SOL    HW220046   2.553   1.314   2.717 -0.8345  1.5861  2.4862
 6383SOL     OW20047   2.771   6.707   3.735 -0.1925  0.1933 -0.4506
 6383SOL    HW120048   2.752   6.629   3.795  0.6180  0.5511  0.3037
 6383SOL    HW220049   2.865   6.702   3.703 -0.7064 -0.1462 -1.9617
 6384SOL     OW20050   5.030   5.627   2.758  0.2227 -0.1165  0.0760
 6384SOL    HW120051   5.064   5.710   2.713 -1.3192  0.9235  0.7144
 6384SOL    HW220052   4.973   5.576   2.693 -0.2101  0.2293  0.1773
 6385SOL     OW20053   2.329   4.557   5.504 -0.1782  0.5165  0.2170
 6385SOL    HW120054   2.405   4.621   5.509 -0.0302  0.3413  0.1835
 6385SOL    HW220055   2.346   4.489   5.433 -1.5214  2.0030 -1.6373
 6386SOL     OW20056   3.513   4.985   0.621 -0.5598  0.4030  0.5379
 6386SOL    HW120057   3.579   4.913   0.598  1.0109  1.8446  0.3439
 6386SOL    HW220058   3.472   5.020   0.537  0.6254  1.4783  0.3747
 6387SOL     OW20059   0.866   2.127   0.376 -0.3805 -0.2062  0.5576
 6387SOL    HW120060   0.807   2.104   0.454  0.2189  1.4450  1.5585
 6387SOL    HW220061   0.884   2.226   0.377  0.6645 -0.3571 -0.9731
 6388SOL     OW20062   6.143   3.983   0.787 -0.3123  0.4924  0.1856
 6388SOL    HW120063   6.116   4.063   0.842 -0.1752  0.9797 -0.4499
 6388SOL    HW220064   6.089   3.981   0.703 -1.1766 -0.7643  0.7377
 6389SOL     OW20065   6.859   0.437   2.206  0.7029 -0.3130 -0.1406
 6389SOL    HW120066   6.887   0.378   2.130  1.0217  0.8381 -0.9608
 6389SOL    HW220067   6.769   0.476   2.186  1.0710  0.5079 -0.2668
 6390SOL     OW20068   0.556   0.776   2.002 -0.1201 -0.1431  0.0118
 6390SOL    HW120069   0.613   0.842   2.051 -1.1133  0.4797  0.3751
 6390SOL    HW220070   0.611   0.725   1.937  0.3790  2.3345 -1.6299
 6391SOL     OW20071   4.102   1.480   6.602 -0.1674  0.0580 -0.2870
 6391SOL    HW120072   4.048   1.524   6.674  0.8362 -0.0696  0.5688
 6391SOL    HW220073   4.108   1.382   6.620  0.4235  0.0849 -0.3173
 6392SOL     OW20074   6.447   3.721   2.522  0.1261 -0.2003 -0.0777
 6392SOL    HW120075   6.471   3.739   2.427 -1.5867 -2.2140 -0.9824
 6392SOL    HW220076   6.381   3.646   2.526 -0.7378  0.5910  2.6532
 6393SOL     OW20077   4.890   3.352   3.147  0.1006 -0.0061 -0.7279
 6393SOL    HW120078   4.841   3.306   3.221  0.5491  0.3513 -0.2041
 6393SOL    HW220079   4.981   3.312   3.137 -0.4156 -0.9267 -1.9549
 6394SOL     OW20080   4.284   3.094   5.615  0.5217 -0.1943  0.7938
 6394SOL    HW120081   4.257   3.100   5.519 -1.6798  0.5348  1.4035
 6394SOL    HW220082   4.360   3.030   5.624  1.1086  0.1032 -1.4772
 6395SOL     OW20083   4.466   1.559   4.556 -0.3531 -0.0642 -0.1307
 6395SOL    HW120084   4.413   1.626   4.503  0.0392 -0.4105 -0.9933
 6395SOL    HW220085   4.448   1.467   4.522  1.7227 -0.1026 -1.3462
 6396SOL     OW20086   6.795   3.316   3.167 -0.4289 -0.3687  0.1283
 6396SOL    HW120087   6.846   3.390   3.123  0.3721 -1.9455 -1.7142
 6396SOL    HW220088   6.698   3.340   3.171 -0.1804  0.7765 -0.4173
 6397SOL     OW20089   6.610   5.077   1.054 -0.1763 -0.0919  0.0809
 6397SOL    HW120090   6.679   5.111   0.991 -0.0119  1.0548  0.8349
 6397SOL    HW220091   6.549   5.014   1.007 -0.5411  1.3231 -1.4506
 6398SOL     OW20092   0.225   6.980   6.773 -0.0474 -0.8714 -0.3161
 6398SOL    HW120093   0.155   6.969   6.703  1.4935  1.7410 -2.4647
 6398SOL    HW220094   0.199   7.056   6.833  1.2949  0.8104 -1.7613
 6399SOL     OW20095   4.892   6.955   4.449 -0.2786 -0.4891  0.0468
 6399SOL    HW120096   4.873   7.031   4.511  1.1179 -1.2535  1.4947
 6399SOL    HW220097   4.952   6.889   4.495  0.2471 -1.4391 -1.8936
 6400SOL     OW20098   0.242   4.238   5.652  0.2309  0.5352 -0.1194
 6400SOL    HW120099   0.234   4.257   5.749  0.3955 -1.3008  0.2990
 6400SOL    HW220100   0.151   4.232   5.611  0.1521  0.9397 -0.0063
 6401SOL     OW20101   1.214   6.111   5.213 -0.5397  0.0452 -0.7027
 6401SOL    HW120102   1.221   6.040   5.283  2.9088  0.3290 -0.5983
 6401SOL    HW220103   1.279   6.092   5.139 -0.5024  2.3711 -1.3427
 6402SOL     OW20104   4.909   4.341   5.311 -0.2252 -0.4122  0.1295
 6402SOL    HW120105   4.990   4.350   5.254 -0.8519  1.5143 -0.5369
 6402SOL    HW220106   4.861   4.256   5.288  1.0538 -1.0858 -0.1493
 6403SOL     OW20107   6.743   3.608   5.149  0.5247  0.2798 -0.0007
 6403SOL    HW120108   6.799   3.690   5.140  1.8473 -0.2051  2.7089
 6403SOL    HW220109   6.802   3.529   5.163 -0.7996 -0.5910  0.8563
 6404SOL     OW20110   6.454   1.506   3.471 -0.2856  0.2469 -0.2106
 6404SOL    HW120111   6.489   1.479   3.561 -1.7226 -2.4620 -0.3539
 6404SOL    HW220112   6.523   1.486   3.401  0.2036  0.8000  0.1085
 6405SOL     OW20113   3.485   4.566   6.512 -0.5246 -0.7202  0.2162
 6405SOL    HW120114   3.457   4.662   6.510  1.3778 -0.1435 -0.3932
 6405SOL    HW220115   3.413   4.512   6.554 -2.5986  0.6380 -1.3650
 6406SOL     OW20116   2.767   5.063   3.483 -0.1998  0.5233  0.0938
 6406SOL    HW120117   2.852   5.012   3.497 -0.6640 -0.0819  0.7956
 6406SOL    HW220118   2.689   5.005   3.508 -0.8303  1.0293 -0.6603
 6407SOL     OW20119   4.753   0.383   3.986 -0.0492  0.0125  0.9039
 6407SOL    HW120120   4.776   0.480   3.979 -0.0440 -0.0102  0.5757
 6407SOL    HW220121   4.654   0.372   3.991 -0.1141 -0.0258 -0.2573
 6408SOL     OW20122   5.260   1.909   1.450 -0.2735  0.8813  0.5047
 6408SOL    HW120123   5.245   1.989   1.391 -0.6389 -1.0228 -2.1422
 6408SOL    HW220124   5.173   1.861   1.464  0.0246  0.6503  1.7094
 6409SOL     OW20125   4.258   2.054   0.655  0.0004 -0.3168  0.1747
 6409SOL    HW120126   4.187   1.985   0.639 -1.7387  1.4960 -0.3207
 6409SOL    HW220127   4.344   2.022   0.617 -1.1641 -1.4726 -1.6503
 6410SOL     OW20128   0.207   2.360   2.793  0.6426  0.5434  0.5893
 6410SOL    HW120129   0.269   2.409   2.732 -1.9279  0.4261 -2.4022
 6410SOL    HW220130   0.112   2.386   2.773 -0.7179 -3.4631  0.7213
 6411SOL     OW20131   2.402   1.540   3.013  0.3412 -0.3106  0.4499
 6411SOL    HW120132   2.478   1.542   2.948 -0.9600  0.8843 -1.1245
 6411SOL    HW220133   2.438   1.548   3.106  2.2081 -1.2991 -0.1312
 6412SOL     OW20134   4.311   0.533   5.794  0.0968 -0.5738 -0.3658
 6412SOL    HW120135   4.398   0.497   5.761 -0.0738 -0.3298 -1.0861
 6412SOL    HW220136   4.284   0.483   5.877  2.0979  0.9379  1.2954
 6413SOL     OW20137   6.939   0.446   0.123  0.4751 -0.0193 -0.3710
 6413SOL    HW120138   6.951   0.434   0.221  1.0296  0.0375 -0.4287
 6413SOL    HW220139   6.904   0.361   0.084 -1.2864  0.4565  0.1018
 6414SOL     OW20140   3.094   4.599   1.133  0.1820  0.5835  0.3966
 6414SOL    HW120141   3.060   4.514   1.094 -0.9362  0.1243  2.2177
 6414SOL    HW220142   3.183   4.621   1.093  0.4538 -1.3793 -0.1974
 6415SOL     OW20143   6.244   4.736   1.711  0.3579 -0.5561 -0.3087
 6415SOL    HW120144   6.281   4.659   1.659  2.6061 -0.7933  1.4520
 6415SOL    HW220145   6.319   4.785   1.756 -1.2875  0.6454  1.3176
 6416SOL     OW20146   0.853   3.905   3.512 -0.8895 -0.0280 -0.2192
 6416SOL    HW120147   0.828   3.907   3.415 -1.2971 -0.3912 -0.1235
 6416SOL    HW220148   0.935   3.849   3.525 -1.0968 -0.3533 -0.2992
 6417SOL     OW20149   5.124   0.875   3.472  0.0239  0.4754  0.7425
 6417SOL    HW120150   5.026   0.890   3.482 -0.1886  0.5342 -1.1035
 6417SOL    HW220151   5.168   0.879   3.562 -1.5355  1.3214  1.5014
 6418SOL     OW20152   5.356   2.388   6.698 -0.1384 -0.2740  0.0911
 6418SOL    HW120153   5.265   2.388   6.655 -0.5056 -2.2490  0.7422
 6418SOL    HW220154   5.347   2.402   6.796  0.4741  1.5614 -0.0831
 6419SOL     OW20155   4.383   1.128   2.245 -0.5132  0.0727 -0.6249
 6419SOL    HW120156   4.354   1.155   2.153  0.0028 -0.3328 -0.9155
 6419SOL    HW220157   4.447   1.196   2.281 -0.5661  0.1341 -0.6467
 6420SOL     OW20158   4.116   0.347   1.464  0.0747  0.4192 -0.5177
 6420SOL    HW120159   4.169   0.337   1.379  0.6302  1.1987 -0.2748
 6420SOL    HW220160   4.156   0.420   1.519 -0.7795  0.4637  0.0500
 6421SOL     OW20161   6.725   3.963   1.514  0.1358  0.1412  0.1420
 6421SOL    HW120162   6.707   3.905   1.594  0.3789 -0.5886 -0.3176
 6421SOL    HW220163   6.645   4.019   1.494 -0.1451 -0.1129  0.5362
 6422SOL     OW20164   5.261   3.376   3.300  0.0191 -0.3045 -0.0670
 6422SOL    HW120165   5.242   3.473   3.316 -1.7433 -0.8949  1.9883
 6422SOL    HW220166   5.206   3.343   3.223  1.1319  0.4334 -1.2134
 6423SOL     OW20167   1.932   3.504   2.734  0.3378  0.2363 -0.0347
 6423SOL    HW120168   1.885   3.416   2.736  3.8936 -1.8900 -0.4582
 6423SOL    HW220169   1.930   3.541   2.641  0.2806 -0.3072 -0.2535
 6424SOL     OW20170   0.422   0.507   3.440 -0.2029  0.2402 -0.0481
 6424SOL    HW120171   0.374   0.442   3.498 -0.8789  0.3462 -0.4741
 6424SOL    HW220172   0.437   0.468   3.349 -1.4905  1.0068 -0.6200
 6425SOL     OW20173   0.923   3.682   3.830  0.1213  0.1930  0.5518
 6425SOL    HW120174   0.969   3.688   3.742 -1.2909 -0.2069 -0.2284
 6425SOL    HW220175   0.834   3.727   3.825  0.6425  1.5543  2.2332
 6426SOL     OW20176   6.058   3.462   3.954 -0.1175  0.6826  0.3395
 6426SOL    HW120177   6.071   3.363   3.950  0.0154  0.6886  0.6548
 6426SOL    HW220178   5.965   3.483   3.986 -0.0219  0.6624  0.6313
 6427SOL     OW20179   1.471   6.370   6.333 -0.0873 -0.3690 -0.3873
 6427SOL    HW120180   1.432   6.432   6.402 -0.2784 -3.2379  2.2979
 6427SOL    HW220181   1.552   6.324   6.371 -0.4008 -2.3318 -1.9324
 6428SOL     OW20182   3.314   3.922   2.691  0.6444  0.2335  0.3697
 6428SOL    HW120183   3.378   3.999   2.687 -1.9107  2.5968  1.3489
 6428SOL    HW220184   3.357   3.846   2.740  2.4765  1.9198  1.5638
 6429SOL     OW20185   6.500   2.770   1.536  0.4375 -0.1095 -0.5728
 6429SOL    HW120186   6.589   2.764   1.581 -0.6869  0.7295  1.9164
 6429SOL    HW220187   6.429   2.787   1.604 -1.3383  1.7735 -2.7458
 6430SOL     OW20188   6.699   0.092   0.619 -0.3953 -0.0273 -0.3457
 6430SOL    HW120189   6.770   0.044   0.567 -1.1426  1.1581 -2.5795
 6430SOL    HW220190   6.735   0.117   0.709  1.1227 -1.7110 -0.4345
 6431SOL     OW20191   4.316   6.194   5.373 -0.8893  0.3912  0.8438
 6431SOL    HW120192   4.321   6.127   5.448  0.6949  0.0908  0.4942
 6431SOL    HW220193   4.408   6.224   5.349 -1.4918  1.6659  0.0454
 6432SOL     OW20194   0.551   4.984   2.172 -0.0857  0.2250 -0.0242
 6432SOL    HW120195   0.531   4.888   2.150  0.8828 -0.1006  0.4577
 6432SOL    HW220196   0.466   5.031   2.197 -0.2973 -1.1019  2.0044
 6433SOL     OW20197   1.629   0.568   5.959 -0.5282  0.6041  0.1313
 6433SOL    HW120198   1.710   0.509   5.953 -0.9748  0.0962 -1.1569
 6433SOL    HW220199   1.656   0.663   5.942 -0.4020  0.2505 -1.8215
 6434SOL     OW20200   5.383   6.706   6.679  0.1277 -0.0622 -0.4169
 6434SOL    HW120201   5.430   6.765   6.613 -1.2757  0.1481 -1.2599
 6434SOL    HW220202   5.290   6.688   6.648 -0.0099 -1.3830  0.6634
 6435SOL     OW20203   3.250   2.986   3.049  0.1624 -0.0497 -0.1706
 6435SOL    HW120204   3.189   3.005   2.972 -0.1082  1.0235  0.2939
 6435SOL    HW220205   3.199   2.995   3.135  0.4224 -1.3932  0.1475
 6436SOL     OW20206   3.904   0.907   4.115  0.1531  0.1161 -0.3060
 6436SOL    HW120207   3.877   0.959   4.196 -0.2041 -0.3883 -0.1012
 6436SOL    HW220208   3.869   0.953   4.033 -1.0442 -0.3438 -0.0652
 6437SOL     OW20209   1.468   0.261   0.936 -0.0443  0.0963  0.5634
 6437SOL    HW120210   1.402   0.252   1.010 -0.6996  1.3130  0.1645
 6437SOL    HW220211   1.431   0.218   0.853  0.5573 -0.9997  0.8489
 6438SOL     OW20212   0.857   2.524   3.694  0.2777 -0.3141 -0.1683
 6438SOL    HW120213   0.906   2.492   3.775 -1.4268  0.3842  1.2080
 6438SOL    HW220214   0.854   2.451   3.626 -0.5424 -1.9283  1.5016
 6439SOL     OW20215   6.254   2.514   5.329  0.2601  0.7434  0.4761
 6439SOL    HW120216   6.184   2.565   5.279  1.0860  1.1360 -0.3290
 6439SOL    HW220217   6.345   2.545   5.299  0.7928 -1.1144  0.0324
 6440SOL     OW20218   1.819   3.321   6.837  0.1787  0.0134 -0.0745
 6440SOL    HW120219   1.768   3.261   6.776  1.4372 -1.2348  0.0317
 6440SOL    HW220220   1.778   3.319   6.928 -0.6890  0.5434 -0.4393
 6441SOL     OW20221   3.029   6.487   6.468  0.6723  0.0961 -0.4094
 6441SOL    HW120222   3.079   6.401   6.460  0.6881  0.0669 -0.0285
 6441SOL    HW220223   3.049   6.545   6.389  2.0049  0.4411  0.1473
 6442SOL     OW20224   4.116   6.237   1.373 -0.9488 -0.6195 -0.1171
 6442SOL    HW120225   4.090   6.286   1.289 -2.1994  1.4252  1.3734
 6442SOL    HW220226   4.122   6.301   1.449  1.6189 -2.1715  1.1450
 6443SOL     OW20227   1.505   2.137   5.064 -0.6977 -0.4618 -0.0717
 6443SOL    HW120228   1.496   2.108   4.968 -2.3055  0.6395 -0.2790
 6443SOL    HW220229   1.602   2.135   5.089  0.0441  1.3473 -2.4173
 6444SOL     OW20230   1.094   3.621   2.445  0.4729  0.0045 -0.2806
 6444SOL    HW120231   1.056   3.669   2.524  2.2481 -1.2956  1.4463
 6444SOL    HW220232   1.056   3.528   2.441 -2.0250  0.9770 -2.9006
 6445SOL     OW20233   3.649   5.320   6.256  0.5611 -0.2054  0.1150
 6445SOL    HW120234   3.665   5.409   6.213 -4.0291  1.0852  0.5684
 6445SOL    HW220235   3.615   5.334   6.349 -0.1365 -2.4589  0.2492
 6446SOL     OW20236   6.924   2.968   4.301  0.2287  0.2274  0.3180
 6446SOL    HW120237   6.940   2.880   4.259 -1.2764  1.0924 -2.2951
 6446SOL    HW220238   6.941   2.962   4.400  0.3788 -2.8765  0.1860
 6447SOL     OW20239   6.046   6.158   5.822 -0.2750 -0.1980  0.0899
 6447SOL    HW120240   6.100   6.240   5.803 -0.9349  0.2493  0.0990
 6447SOL    HW220241   5.955   6.167   5.781 -0.0708 -1.3041 -0.6512
 6448SOL     OW20242   5.841   5.783   4.679 -0.0655  0.2689 -0.0581
 6448SOL    HW120243   5.903   5.796   4.602 -0.7628 -0.6133 -0.7828
 6448SOL    HW220244   5.795   5.870   4.700  0.1474  0.5176 -0.6030
 6449SOL     OW20245   5.411   6.770   0.372  0.0048  0.3750  0.0472
 6449SOL    HW120246   5.324   6.723   0.358 -1.2101  2.5272 -0.1034
 6449SOL    HW220247   5.431   6.776   0.470  0.6242 -1.1453  0.0417
 6450SOL     OW20248   2.228   6.625   4.477  0.2389  0.4203  0.1148
 6450SOL    HW120249   2.265   6.540   4.438  2.0049  0.9929  0.4594
 6450SOL    HW220250   2.213   6.612   4.575 -0.9716  0.0504 -0.0995
 6451SOL     OW20251   4.742   0.196   5.124 -0.6318  0.5324  0.0848
 6451SOL    HW120252   4.828   0.247   5.131 -0.0639  0.1583 -2.7977
 6451SOL    HW220253   4.758   0.100   5.150 -0.1350  0.4710 -0.4065
 6452SOL     OW20254   6.128   1.283   0.367  0.4416  0.8368 -0.0529
 6452SOL    HW120255   6.046   1.279   0.423  1.0770 -2.8542  0.9084
 6452SOL    HW220256   6.118   1.218   0.291  2.2288  0.7232 -0.2174
 6453SOL     OW20257   0.088   6.582   4.605 -0.2913  0.7616 -0.0264
 6453SOL    HW120258   0.020   6.593   4.678 -0.4744 -2.1723  0.3417
 6453SOL    HW220259   0.049   6.615   4.519 -1.8272  0.1013  0.3746
 6454SOL     OW20260   4.538   5.861   4.381 -0.4436  0.0167 -0.1350
 6454SOL    HW120261   4.545   5.936   4.314 -0.7591 -0.2586 -0.4821
 6454SOL    HW220262   4.574   5.892   4.469 -1.0482  0.7524 -0.1346
 6455SOL     OW20263   2.733   1.529   4.742  0.7866 -0.3407 -0.2630
 6455SOL    HW120264   2.798   1.538   4.818  0.3852  0.3479  0.0067
 6455SOL    HW220265   2.770   1.575   4.661  0.6585  0.0200 -0.1198
 6456SOL     OW20266   5.091   1.911   2.479  0.1060 -0.7549 -0.3708
 6456SOL    HW120267   5.159   1.910   2.552 -0.4911  1.6856  0.3059
 6456SOL    HW220268   5.108   1.988   2.418 -1.0550 -1.1244 -1.1972
 6457SOL     OW20269   4.392   1.667   5.050  0.0127 -0.4933  0.2622
 6457SOL    HW120270   4.310   1.665   5.108  0.6396  0.5482  1.2128
 6457SOL    HW220271   4.392   1.751   4.996  1.1104  0.1721  1.2626
 6458SOL     OW20272   4.585   1.054   4.462 -0.2290  0.3469 -0.2785
 6458SOL    HW120273   4.492   1.041   4.427 -0.1961 -0.2757 -0.1539
 6458SOL    HW220274   4.604   0.985   4.531  0.8545 -0.5060 -1.3731
 6459SOL     OW20275   0.173   1.333   0.633 -0.0887 -0.2362 -0.2016
 6459SOL    HW120276   0.256   1.317   0.687  0.3520  0.6809 -0.5874
 6459SOL    HW220277   0.094   1.338   0.694  0.3784  0.6132  0.3530
 6460SOL     OW20278   6.970   4.898   4.861 -0.9457  0.0949  0.4327
 6460SOL    HW120279   7.057   4.904   4.910 -0.8455  1.5655  0.1321
 6460SOL    HW220280   6.898   4.866   4.923 -0.1968 -1.1680  0.6712
 6461SOL     OW20281   1.217   4.048   4.069 -1.3344  0.3728  0.0462
 6461SOL    HW120282   1.235   4.128   4.012  0.9329 -0.7218 -0.8979
 6461SOL    HW220283   1.124   4.015   4.052 -1.6094  1.6249 -1.0218
 6462SOL     OW20284   2.963   5.420   0.204 -0.1793  0.1569  0.5347
 6462SOL    HW120285   2.976   5.499   0.144 -2.3476 -0.8513 -1.4094
 6462SOL    HW220286   2.888   5.440   0.268  1.8067  1.0459  2.7142
 6463SOL     OW20287   4.492   0.328   4.017  0.4978 -0.3832  0.1472
 6463SOL    HW120288   4.474   0.279   3.931  0.9301 -0.2964  0.0038
 6463SOL    HW220289   4.436   0.289   4.090 -0.3651 -0.0342 -0.3105
 6464SOL     OW20290   4.499   6.032   0.337  0.1718 -0.3112  0.5983
 6464SOL    HW120291   4.433   6.034   0.262 -0.6034 -0.1625  1.2825
 6464SOL    HW220292   4.583   5.986   0.306 -0.8399 -1.9848  0.2058
 6465SOL     OW20293   6.246   6.649   1.225  0.2085 -0.3069  0.1914
 6465SOL    HW120294   6.160   6.662   1.275 -0.6502 -1.5541 -0.9174
 6465SOL    HW220295   6.311   6.599   1.283 -1.1173 -2.6194 -0.1785
 6466SOL     OW20296   3.506   4.286   5.332  0.6590  0.5441  0.3676
 6466SOL    HW120297   3.578   4.218   5.344  0.8000  0.5000 -0.6025
 6466SOL    HW220298   3.434   4.272   5.400  0.9931 -0.1719  0.5791
 6467SOL     OW20299   1.200   6.178   6.138  0.0454  0.0535 -0.1066
 6467SOL    HW120300   1.280   6.153   6.083  0.4229 -0.1603  0.5336
 6467SOL    HW220301   1.216   6.266   6.181 -0.3129  0.2901 -0.4517
 6468SOL     OW20302   6.543   0.895   2.938  0.3433 -0.1525 -0.2539
 6468SOL    HW120303   6.617   0.831   2.915  1.2377  0.7642  0.0205
 6468SOL    HW220304   6.503   0.869   3.026  2.4721  1.1295  1.1984
 6469SOL     OW20305   5.553   0.387   2.863 -0.3235  0.4507 -0.0850
 6469SOL    HW120306   5.619   0.362   2.793 -0.4541  0.6719 -0.2852
 6469SOL    HW220307   5.601   0.407   2.949 -0.2182 -0.6251  0.1230
 6470SOL     OW20308   3.729   3.979   0.811  0.9114  0.1631 -0.0683
 6470SOL    HW120309   3.676   3.964   0.894 -0.9297  0.8862 -1.0596
 6470SOL    HW220310   3.724   3.898   0.752 -0.9381  0.9441 -1.0892
 6471SOL     OW20311   5.716   1.917   0.869 -0.5495  0.1029  0.0871
 6471SOL    HW120312   5.806   1.875   0.868 -0.1707  0.8829 -1.1307
 6471SOL    HW220313   5.646   1.847   0.885 -0.0560 -1.2729 -3.0318
 6472SOL     OW20314   5.501   1.818   1.856  0.2542 -0.2600 -0.2514
 6472SOL    HW120315   5.517   1.845   1.951  1.5378  0.7791 -0.7292
 6472SOL    HW220316   5.575   1.759   1.825  0.0255 -0.3098 -0.7162
 6473SOL     OW20317   2.591   1.863   4.313  0.1908  0.7352 -0.1482
 6473SOL    HW120318   2.597   1.939   4.247 -0.5873 -0.1630 -1.2951
 6473SOL    HW220319   2.504   1.869   4.362 -0.0383  0.3924 -0.5045
 6474SOL     OW20320   3.491   0.979   4.911  0.2443 -0.0961  0.2106
 6474SOL    HW120321   3.535   1.025   4.834 -1.2837 -1.1469 -1.3775
 6474SOL    HW220322   3.500   0.880   4.901 -3.2636 -0.4428 -0.8184
 6475SOL     OW20323   0.590   6.090   1.704 -0.1876 -0.6314 -0.0119
 6475SOL    HW120324   0.506   6.117   1.658 -0.0950  0.7862  0.6018
 6475SOL    HW220325   0.668   6.134   1.660  0.2901 -2.1721 -0.7664
 6476SOL     OW20326   6.539   0.737   5.304 -0.0297  0.4459 -0.0404
 6476SOL    HW120327   6.506   0.831   5.299  0.4260  0.5528 -1.6755
 6476SOL    HW220328   6.639   0.737   5.314  0.6514  0.3226 -4.5156
 6477SOL     OW20329   1.835   4.735   0.046 -0.3404  0.6233 -0.0340
 6477SOL    HW120330   1.742   4.762   0.070 -1.1156 -0.8657 -1.1798
 6477SOL    HW220331   1.899   4.809   0.070 -1.6031  1.1000  2.1018
 6478SOL     OW20332   3.780   0.714   2.430  0.4456 -0.2254 -0.0711
 6478SOL    HW120333   3.791   0.783   2.359 -0.2887  1.1000  1.0557
 6478SOL    HW220334   3.705   0.653   2.407  0.0234  0.3754 -0.2868
 6479SOL     OW20335   0.969   4.405   0.488 -0.4527 -0.0151 -0.3533
 6479SOL    HW120336   0.905   4.352   0.431  0.6437 -1.7791 -0.0209
 6479SOL    HW220337   0.983   4.495   0.447 -0.9937 -0.6241 -1.9630
 6480SOL     OW20338   0.920   3.506   2.658 -0.1376 -0.3910 -0.1067
 6480SOL    HW120339   0.908   3.413   2.625  0.5323 -0.4834 -0.1056
 6480SOL    HW220340   0.975   3.506   2.741  0.6164  0.0599 -0.5876
 6481SOL     OW20341   1.560   6.929   4.863 -0.4775 -0.1673 -0.0476
 6481SOL    HW120342   1.633   6.917   4.795  0.1479 -0.6642  0.6871
 6481SOL    HW220343   1.482   6.871   4.839 -0.8329  0.7335 -1.1034
 6482SOL     OW20344   3.421   2.666   6.553  0.3737  0.4230 -0.3078
 6482SOL    HW120345   3.469   2.693   6.470  1.0014 -1.3444 -0.5818
 6482SOL    HW220346   3.380   2.746   6.596  0.7573  1.4990 -1.8530
 6483SOL     OW20347   6.324   2.077   2.290 -0.4538  0.4334 -0.4259
 6483SOL    HW120348   6.331   2.129   2.205 -2.1510  0.5619 -0.5199
 6483SOL    HW220349   6.351   2.136   2.367  0.6932  0.4405 -0.8251
 6484SOL     OW20350   0.239   5.763   2.635 -0.2543 -0.2324 -0.2731
 6484SOL    HW120351   0.283   5.847   2.666  0.7845 -0.3835 -1.2798
 6484SOL    HW220352   0.176   5.784   2.560  1.4534 -0.5226 -1.8889
 6485SOL     OW20353   6.645   1.616   1.882  0.6281  0.4270  0.3726
 6485SOL    HW120354   6.663   1.712   1.861 -0.9063  0.2659 -1.9137
 6485SOL    HW220355   6.716   1.559   1.841  0.8390  0.4857  0.6508
 6486SOL     OW20356   5.715   6.716   6.560 -0.7235 -0.1224  0.1534
 6486SOL    HW120357   5.685   6.688   6.651 -4.0785  0.6968 -0.5488
 6486SOL    HW220358   5.652   6.786   6.525  0.8358  0.0512 -2.5468
 6487SOL     OW20359   5.682   3.568   1.176  0.4134 -0.2734 -0.0942
 6487SOL    HW120360   5.782   3.575   1.179  0.6242  0.0521 -3.5661
 6487SOL    HW220361   5.642   3.659   1.176  0.2448 -0.3450 -0.3246
 6488SOL     OW20362   3.641   4.213   4.773  0.4564  0.0735  0.3758
 6488SOL    HW120363   3.566   4.206   4.707  1.1122 -0.2273 -0.3608
 6488SOL    HW220364   3.633   4.298   4.824 -0.2804  0.1291  0.1787
 6489SOL     OW20365   0.552   5.760   0.004 -0.2745 -0.1545 -0.1712
 6489SOL    HW120366   0.541   5.858  -0.013 -1.4083 -0.1908  0.2985
 6489SOL    HW220367   0.650   5.737   0.005  0.0240  1.0667  0.2748
 6490SOL     OW20368   1.047   6.097   1.658  0.4124 -0.0443 -0.6341
 6490SOL    HW120369   0.999   6.104   1.570 -0.8249 -1.6000 -0.1278
 6490SOL    HW220370   0.994   6.145   1.728  1.2084  0.8723 -0.6402
 6491SOL     OW20371   1.215   6.750   6.839  0.0342  0.2168 -0.6730
 6491SOL    HW120372   1.123   6.732   6.803  0.0837  0.8150 -1.1197
 6491SOL    HW220373   1.229   6.696   6.922 -1.1094  0.8970 -0.0082
 6492SOL     OW20374   2.155   5.278   2.035  0.1533 -0.1360 -0.2250
 6492SOL    HW120375   2.200   5.367   2.038 -1.2354  0.5570  1.6407
 6492SOL    HW220376   2.055   5.291   2.034 -0.1057 -1.6339  1.2738
 6493SOL     OW20377   6.900   4.609   6.278 -0.6753 -0.9084  0.2375
 6493SOL    HW120378   6.917   4.668   6.200 -0.5139  0.0940  1.0101
 6493SOL    HW220379   6.986   4.566   6.307 -0.0823  1.1260  1.7330
 6494SOL     OW20380   3.517   3.099   1.937 -0.0871 -0.6769  0.2556
 6494SOL    HW120381   3.427   3.107   1.894  0.8278  0.4842 -1.5663
 6494SOL    HW220382   3.579   3.049   1.877  1.1271  0.6524  0.3507
 6495SOL     OW20383   5.028   0.365   2.205  0.0684 -0.0359  0.9415
 6495SOL    HW120384   4.931   0.384   2.198 -0.5370 -1.3898  3.9818
 6495SOL    HW220385   5.077   0.448   2.232 -0.2769  0.5478 -0.2006
 6496SOL     OW20386   2.365   5.573   5.694  0.4497  0.2960  0.0857
 6496SOL    HW120387   2.433   5.502   5.677 -0.4292 -0.6521  0.4203
 6496SOL    HW220388   2.285   5.533   5.739  0.7187  1.8467  2.0798
 6497SOL     OW20389   2.815   0.131   0.768 -0.2349  0.1252 -0.2060
 6497SOL    HW120390   2.789   0.075   0.688 -0.9039  2.0239 -1.3814
 6497SOL    HW220391   2.840   0.223   0.737  0.5756  0.5850  1.7062
 6498SOL     OW20392   0.525   2.197   1.202 -0.2346 -0.7797  0.1744
 6498SOL    HW120393   0.578   2.249   1.135 -1.6809 -0.7926 -1.0216
 6498SOL    HW220394   0.451   2.255   1.238  1.4394 -0.1962  3.0566
 6499SOL     OW20395   6.002   1.569   0.301 -0.0992  0.0678  0.2428
 6499SOL    HW120396   5.977   1.555   0.397 -0.3969 -2.4670 -0.1350
 6499SOL    HW220397   6.041   1.485   0.264 -2.7092 -0.0732 -2.6536
 6500SOL     OW20398   1.279   2.196   3.097  0.0927 -0.3346 -0.1467
 6500SOL    HW120399   1.348   2.182   3.168 -0.8675 -0.7879  0.7233
 6500SOL    HW220400   1.310   2.154   3.011  1.8835  1.3958 -0.4255
 6501SOL     OW20401   0.697   6.205   2.517 -0.4217  0.8533  0.5020
 6501SOL    HW120402   0.725   6.221   2.423 -1.2355  1.5457  0.3731
 6501SOL    HW220403   0.778   6.185   2.573 -0.0885 -1.6059 -0.7104
 6502SOL     OW20404   6.665   4.996   1.766 -0.3006 -0.2033  0.0121
 6502SOL    HW120405   6.598   5.043   1.708 -1.9329  0.0642  1.9719
 6502SOL    HW220406   6.741   5.058   1.786 -0.7409  0.4181 -0.2070
 6503SOL     OW20407   5.222   3.519   4.925 -0.3411  0.7007 -0.6467
 6503SOL    HW120408   5.283   3.500   5.002  0.3927  1.9121 -0.9115
 6503SOL    HW220409   5.211   3.618   4.915 -2.0754  0.5179 -0.8328
 6504SOL     OW20410   1.731   4.035   4.199  0.0723  0.0222 -0.0210
 6504SOL    HW120411   1.799   4.106   4.222  1.2413 -1.2373  0.5677
 6504SOL    HW220412   1.689   4.057   4.111  1.4847  0.7078 -0.5683
 6505SOL     OW20413   2.873   1.515   3.722  0.2994 -0.2333  0.6866
 6505SOL    HW120414   2.951   1.554   3.770 -0.0556  0.5085  0.6883
 6505SOL    HW220415   2.821   1.457   3.784 -0.1567  0.7167  1.2230
 6506SOL     OW20416   5.342   4.104   2.991 -0.3691  0.0091 -0.1968
 6506SOL    HW120417   5.257   4.145   2.960 -0.8078 -0.3432  0.5231
 6506SOL    HW220418   5.417   4.170   2.981 -0.8078  0.4793 -0.3881
 6507SOL     OW20419   6.962   6.454   1.747  0.5551  0.7209 -0.0178
 6507SOL    HW120420   7.050   6.416   1.718 -0.7175 -2.5305 -0.0054
 6507SOL    HW220421   6.957   6.455   1.847  0.0287 -0.6452 -0.0095
 6508SOL     OW20422   4.179   0.495   0.281 -0.0698  0.1675  0.2904
 6508SOL    HW120423   4.163   0.590   0.306 -1.5190 -0.1999  0.8673
 6508SOL    HW220424   4.277   0.480   0.265  0.0678  1.9515 -0.7134
 6509SOL     OW20425   6.411   2.582   4.608  0.0396 -0.3315 -0.0607
 6509SOL    HW120426   6.502   2.593   4.649 -0.8155 -0.3668  1.9633
 6509SOL    HW220427   6.378   2.670   4.577  0.5406 -0.2287 -0.3163
 6510SOL     OW20428   4.544   4.807   6.007  0.7091 -0.2699 -0.0010
 6510SOL    HW120429   4.583   4.822   6.098  3.8460 -0.1868 -1.2191
 6510SOL    HW220430   4.585   4.873   5.943 -0.1339 -1.4080 -1.7742
 6511SOL     OW20431   4.538   2.441   1.633  0.1650 -0.6257  0.0528
 6511SOL    HW120432   4.501   2.510   1.696  1.1512  0.6785 -0.7334
 6511SOL    HW220433   4.576   2.487   1.552  2.2112 -1.9853  0.1750
 6512SOL     OW20434   4.316   2.285   6.491 -0.0750 -0.0243  0.1096
 6512SOL    HW120435   4.272   2.285   6.401  0.3827 -0.1211 -0.1195
 6512SOL    HW220436   4.339   2.378   6.517  0.1971 -0.0378 -0.0781
 6513SOL     OW20437   1.494   4.436   0.175  0.1287 -0.2931  0.0558
 6513SOL    HW120438   1.492   4.491   0.258  2.3175  0.4787 -0.3268
 6513SOL    HW220439   1.479   4.340   0.198  1.2318 -0.1634  1.4503
 6514SOL     OW20440   5.852   2.684   1.374  0.2978 -0.2802 -0.6028
 6514SOL    HW120441   5.781   2.643   1.318  1.2125 -0.6564 -1.5246
 6514SOL    HW220442   5.934   2.627   1.371  0.3475 -0.3548  1.2056
 6515SOL     OW20443   1.692   6.535   2.411  0.7476  0.4674  0.3339
 6515SOL    HW120444   1.596   6.561   2.397  1.1419  1.2461 -1.1714
 6515SOL    HW220445   1.729   6.586   2.489  0.1399  0.7193  0.4648
 6516SOL     OW20446   4.660   4.284   2.878  0.0366  0.0779  0.3666
 6516SOL    HW120447   4.606   4.216   2.927 -2.3868 -0.5160 -2.7647
 6516SOL    HW220448   4.757   4.269   2.894 -0.5005 -2.8177  1.3681
 6517SOL     OW20449   4.775   6.448   3.171 -0.0370  0.3119  0.7984
 6517SOL    HW120450   4.783   6.416   3.265 -0.5997  1.8767  1.3984
 6517SOL    HW220451   4.703   6.517   3.164 -0.0838  0.1496 -0.8063
 6518SOL     OW20452   6.000   6.575   2.787 -0.2819 -0.0516 -0.3348
 6518SOL    HW120453   6.079   6.574   2.726  0.3533  0.7721  0.4398
 6518SOL    HW220454   6.013   6.508   2.860 -0.0813  0.3875  0.0405
 6519SOL     OW20455   0.922   4.907   6.162  0.5418 -0.1733  0.1342
 6519SOL    HW120456   0.971   4.870   6.241 -0.2853  1.3641  1.4290
 6519SOL    HW220457   0.852   4.971   6.193 -1.7431 -1.6119 -1.6914
 6520SOL     OW20458   1.378   4.900   0.416  0.5195 -0.3189  0.0090
 6520SOL    HW120459   1.295   4.844   0.423  1.0189 -1.3325 -1.6075
 6520SOL    HW220460   1.424   4.902   0.504 -0.6031 -0.7163  0.6263
 6521SOL     OW20461   3.681   6.036   4.454  0.5226  0.2730  0.3562
 6521SOL    HW120462   3.622   5.991   4.387 -0.2261 -0.2913  1.3809
 6521SOL    HW220463   3.706   6.127   4.419  1.4174 -0.5768 -1.3806
 6522SOL     OW20464   6.801   4.368   0.154  0.5160  0.3419  0.7579
 6522SOL    HW120465   6.833   4.282   0.194  1.0053  0.2211  0.1252
 6522SOL    HW220466   6.823   4.369   0.057 -1.3613  0.2941  0.3047
 6523SOL     OW20467   4.823   2.553   6.663 -0.3285 -0.3684  0.2359
 6523SOL    HW120468   4.873   2.467   6.676 -0.9094 -0.7821 -0.1991
 6523SOL    HW220469   4.878   2.616   6.608 -0.6536 -1.1768 -1.0557
 6524SOL     OW20470   3.755   0.873   4.864  0.4308  0.4200  0.3543
 6524SOL    HW120471   3.736   0.934   4.940 -1.5839  1.7544 -1.1095
 6524SOL    HW220472   3.689   0.798   4.864 -0.2177  0.9780 -0.6166
 6525SOL     OW20473   3.078   3.522   0.726  0.2207 -0.3294  0.2432
 6525SOL    HW120474   3.072   3.425   0.746  1.2637 -0.1736  1.4751
 6525SOL    HW220475   3.000   3.550   0.670 -0.5723 -1.6862  0.6345
 6526SOL     OW20476   1.553   2.607   6.578  0.2234 -0.5671  0.2281
 6526SOL    HW120477   1.507   2.651   6.656  1.0992 -0.8467  0.9173
 6526SOL    HW220478   1.651   2.623   6.584  0.1511  1.0130 -1.8684
 6527SOL     OW20479   0.246   6.422   3.227 -0.0000  0.2032 -0.2789
 6527SOL    HW120480   0.291   6.446   3.313 -1.8454  1.5834  0.3551
 6527SOL    HW220481   0.154   6.461   3.225 -0.8799 -1.7417 -1.9013
 6528SOL     OW20482   2.171   2.130   3.876 -0.1706 -0.7573 -0.1559
 6528SOL    HW120483   2.125   2.074   3.945 -2.0369  0.6377 -0.1864
 6528SOL    HW220484   2.169   2.226   3.904 -0.9839 -0.1419 -2.0995
 6529SOL     OW20485   4.258   6.047   1.503 -0.1694  0.3037 -0.6538
 6529SOL    HW120486   4.324   6.092   1.563 -1.3024  1.5370 -0.2758
 6529SOL    HW220487   4.187   6.112   1.476 -2.4993 -1.4623  0.7965
 6530SOL     OW20488   6.917   1.274   3.155  0.1166  0.1841 -0.0298
 6530SOL    HW120489   6.844   1.335   3.124  0.1280  0.3111  0.1939
 6530SOL    HW220490   6.901   1.249   3.250  0.2929  0.1017 -0.0219
 6531SOL     OW20491   6.521   4.872   6.772  0.0374 -0.0332 -0.0683
 6531SOL    HW120492   6.495   4.964   6.745  0.0272 -0.2347 -0.7687
 6531SOL    HW220493   6.582   4.833   6.703 -0.5203 -0.8078 -0.1372
 6532SOL     OW20494   5.322   5.782   1.247  0.0893 -0.4324  0.0591
 6532SOL    HW120495   5.403   5.730   1.273 -0.1322 -1.7198 -1.6840
 6532SOL    HW220496   5.349   5.872   1.211  0.6530 -0.4317  0.4738
 6533SOL     OW20497   1.534   1.685   3.818 -0.0577  0.5455  0.0365
 6533SOL    HW120498   1.613   1.703   3.877  0.1330  0.7081 -0.2669
 6533SOL    HW220499   1.565   1.672   3.724 -0.4188  0.8844 -0.1324
 6534SOL     OW20500   5.294   5.149   0.281  0.4157 -0.7303 -0.6487
 6534SOL    HW120501   5.352   5.210   0.227  0.9716 -0.3026  0.4163
 6534SOL    HW220502   5.223   5.111   0.222  0.7298  0.0764 -1.5788
 6535SOL     OW20503   2.215   6.456   4.139  0.6390 -0.2601 -0.1690
 6535SOL    HW120504   2.283   6.425   4.072  0.1379 -0.6416 -0.5003
 6535SOL    HW220505   2.236   6.417   4.229  0.3857 -1.0369 -0.4439
 6536SOL     OW20506   5.960   1.764   0.860  0.0104  0.0537  0.3058
 6536SOL    HW120507   5.912   1.723   0.783  1.5097 -0.9782 -0.1413
 6536SOL    HW220508   5.956   1.702   0.938  2.8252 -1.4308 -0.5642
 6537SOL     OW20509   4.465   1.183   4.191  0.0537  0.3571 -0.0781
 6537SOL    HW120510   4.427   1.147   4.277  0.7270  0.1781  0.1487
 6537SOL    HW220511   4.397   1.173   4.118  0.1881 -1.3038 -0.0074
 6538SOL     OW20512   0.663   0.188   2.271 -0.2866 -0.5077  0.1133
 6538SOL    HW120513   0.715   0.245   2.334 -2.0252 -0.6466  1.7910
 6538SOL    HW220514   0.708   0.187   2.182  1.0594  1.5572  0.6804
 6539SOL     OW20515   1.350   5.209   1.326  0.1970 -0.5179  1.1369
 6539SOL    HW120516   1.287   5.187   1.251 -1.4212  0.0967  2.2416
 6539SOL    HW220517   1.371   5.126   1.378  1.4085 -0.9634 -0.0207
 6540SOL     OW20518   4.303   0.654   6.587 -0.5082  0.0526 -0.7031
 6540SOL    HW120519   4.349   0.640   6.499  0.8196 -0.6010  0.0582
 6540SOL    HW220520   4.280   0.565   6.626  1.5454  0.1586  0.9134
 6541SOL     OW20521   0.407   0.575   0.747  0.2492  0.0274 -0.1229
 6541SOL    HW120522   0.441   0.530   0.664 -0.0092 -0.4071  0.0048
 6541SOL    HW220523   0.309   0.591   0.739  0.2721  0.2313 -0.0120
 6542SOL     OW20524   4.168   3.968   6.669 -0.1251  0.2017  0.1292
 6542SOL    HW120525   4.085   3.971   6.725  0.5831 -0.2397  1.2518
 6542SOL    HW220526   4.150   3.918   6.585 -1.0862  0.4170  0.1982
 6543SOL     OW20527   2.637   6.231   5.781  0.2015 -0.2362 -0.7485
 6543SOL    HW120528   2.597   6.256   5.869  0.8901 -0.7986 -0.2648
 6543SOL    HW220529   2.727   6.190   5.796 -0.7862 -2.8786 -1.4700
 6544SOL     OW20530   5.059   2.041   1.694  0.1931  0.3861  0.3256
 6544SOL    HW120531   5.116   1.977   1.746  1.4149 -1.4861 -3.0244
 6544SOL    HW220532   4.982   1.992   1.653  1.7208  0.5925 -3.1875
 6545SOL     OW20533   0.592   6.254   0.951 -0.2809 -0.2073  0.0425
 6545SOL    HW120534   0.527   6.322   0.918  0.8052  0.6728 -0.3333
 6545SOL    HW220535   0.631   6.205   0.873  1.3537  1.0086  0.0339
 6546SOL     OW20536   6.476   4.209   0.679 -0.5115 -0.3942  0.1288
 6546SOL    HW120537   6.518   4.120   0.696 -1.6043 -0.5706  2.2365
 6546SOL    HW220538   6.461   4.220   0.581 -0.4955 -2.5969 -0.1833
 6547SOL     OW20539   5.800   2.780   1.071 -0.7387  0.1991  0.0190
 6547SOL    HW120540   5.731   2.839   1.028 -0.1847  1.5597  0.9185
 6547SOL    HW220541   5.862   2.836   1.127 -0.2989 -1.2777  1.0775
 6548SOL     OW20542   6.097   1.185   3.001  0.4591  0.3436 -0.3620
 6548SOL    HW120543   6.153   1.221   2.926  1.2979 -1.4661 -0.6560
 6548SOL    HW220544   6.023   1.129   2.964  0.5031 -0.0481  0.1306
 6549SOL     OW20545   5.198   1.852   1.076  0.2738  0.1006 -0.1105
 6549SOL    HW120546   5.297   1.840   1.067  0.2281 -0.1239 -0.3249
 6549SOL    HW220547   5.156   1.850   0.986 -0.1834 -2.1324  0.1018
 6550SOL     OW20548   2.694   5.871   4.786 -1.1858 -0.3035 -0.4013
 6550SOL    HW120549   2.699   5.939   4.713 -1.4325  0.3521  0.1816
 6550SOL    HW220550   2.740   5.906   4.868 -1.2575 -0.8652 -0.1147
 6551SOL     OW20551   6.404   1.225   5.035  0.3248 -0.0420  0.6381
 6551SOL    HW120552   6.439   1.319   5.040  0.1676  0.0278  0.4450
 6551SOL    HW220553   6.316   1.225   4.989  1.7734 -0.6606 -2.3871
 6552SOL     OW20554   4.668   5.335   4.120 -0.2071 -0.6958 -0.2949
 6552SOL    HW120555   4.732   5.360   4.193 -0.7638  2.0171 -0.6242
 6552SOL    HW220556   4.712   5.270   4.058  1.1593 -1.1368  1.0685
 6553SOL     OW20557   1.877   5.996   0.702  0.2114 -0.1647 -0.3640
 6553SOL    HW120558   1.888   6.095   0.705  0.6935 -0.2151 -0.3671
 6553SOL    HW220559   1.839   5.970   0.613  0.3835 -0.0058 -0.4880
 6554SOL     OW20560   4.386   5.578   2.831  0.2505 -0.1211  0.0521
 6554SOL    HW120561   4.480   5.570   2.864  0.4109  0.1725 -0.3229
 6554SOL    HW220562   4.329   5.620   2.902  0.4348 -0.1573  0.2217
 6555SOL     OW20563   6.074   1.081   0.204 -0.0726 -0.4945 -0.7277
 6555SOL    HW120564   6.064   0.994   0.250  0.0938 -1.8864 -3.1334
 6555SOL    HW220565   6.000   1.092   0.138  1.8611 -0.6107 -3.0640
 6556SOL     OW20566   6.009   2.942   4.644 -0.3872 -0.5850  0.2267
 6556SOL    HW120567   5.968   2.944   4.735  0.6596 -2.4400  0.7881
 6556SOL    HW220568   6.013   2.848   4.610  0.3421 -0.0743 -1.2310
 6557SOL     OW20569   4.586   4.522   2.767 -0.0001 -0.6889 -0.8809
 6557SOL    HW120570   4.623   4.437   2.806 -0.2705 -0.4019  0.0206
 6557SOL    HW220571   4.660   4.590   2.759  0.1450 -0.8866 -1.2929
 6558SOL     OW20572   2.119   5.561   2.363 -0.6769 -0.2232 -0.3840
 6558SOL    HW120573   2.183   5.618   2.414  1.8111 -1.9642 -1.3890
 6558SOL    HW220574   2.042   5.617   2.332 -0.7761  1.5218  2.6197
 6559SOL     OW20575   2.115   1.521   2.346 -0.0806  0.3444 -0.2385
 6559SOL    HW120576   2.059   1.555   2.271  0.8514  0.9459 -0.6786
 6559SOL    HW220577   2.085   1.562   2.432 -1.7306 -1.0133 -0.1105
 6560SOL     OW20578   2.976   3.202   4.251  0.6480 -0.0180  0.1927
 6560SOL    HW120579   3.059   3.164   4.294  0.1055 -0.8774  0.5000
 6560SOL    HW220580   2.975   3.178   4.154  0.6223 -0.2527  0.2498
 6561SOL     OW20581   2.976   5.628   5.654 -0.0771  0.1880 -0.3711
 6561SOL    HW120582   2.930   5.539   5.649  0.5603 -0.0832 -1.6159
 6561SOL    HW220583   2.968   5.664   5.747 -1.8415 -0.3610 -0.2665
 6562SOL     OW20584   5.581   2.397   4.907 -0.3924  0.0457  0.0480
 6562SOL    HW120585   5.539   2.366   4.822  0.1955  0.5224 -0.4285
 6562SOL    HW220586   5.640   2.325   4.943  0.3549  0.2949 -0.6355
 6563SOL     OW20587   1.778   4.784   6.751  0.2047  0.6361  0.5770
 6563SOL    HW120588   1.703   4.722   6.776  0.1681  0.9305  1.2358
 6563SOL    HW220589   1.848   4.780   6.822  1.0906 -0.0554 -0.3074
 6564SOL     OW20590   0.614   0.819   1.707  0.1730 -0.4256 -0.1884
 6564SOL    HW120591   0.602   0.867   1.794  0.0902 -2.1984  0.8252
 6564SOL    HW220592   0.683   0.866   1.653  1.0132  0.1347  1.2985
 6565SOL     OW20593   0.376   5.850   5.227  0.6965 -0.4726  0.1636
 6565SOL    HW120594   0.423   5.824   5.143  1.7427 -0.6453  0.7866
 6565SOL    HW220595   0.358   5.769   5.282  0.8083 -0.2709  0.5037
 6566SOL     OW20596   2.623   0.626   0.998 -0.2918  0.2675  0.1969
 6566SOL    HW120597   2.720   0.642   1.016 -0.5016  1.7249  0.1711
 6566SOL    HW220598   2.568   0.691   1.050 -1.1845  0.3475 -0.8086
 6567SOL     OW20599   3.998   2.574   6.650  0.2192  0.6292  0.2972
 6567SOL    HW120600   4.012   2.491   6.595 -2.0881  0.2450  0.2112
 6567SOL    HW220601   4.002   2.550   6.747 -1.3758  0.1888  0.2813
 6568SOL     OW20602   4.621   5.811   3.184  0.4927  0.7580 -0.0549
 6568SOL    HW120603   4.654   5.772   3.098  1.8789 -1.8986  1.5505
 6568SOL    HW220604   4.699   5.844   3.238  0.0103 -0.3438  1.3951
 6569SOL     OW20605   0.856   1.228   1.802  0.6368 -0.3265  0.1708
 6569SOL    HW120606   0.814   1.318   1.807  2.3904  0.5813 -0.5293
 6569SOL    HW220607   0.944   1.229   1.850  0.3401 -1.8991  0.8204
 6570SOL     OW20608   3.363   0.436   0.019 -0.7036 -0.0593 -0.1414
 6570SOL    HW120609   3.275   0.402   0.053  0.4376 -1.8001  1.2175
 6570SOL    HW220610   3.367   0.536   0.031 -0.8150 -0.3678  4.0923
 6571SOL     OW20611   0.105   1.745   0.153 -0.1150  0.7298  0.3369
 6571SOL    HW120612   0.084   1.752   0.251 -0.6043  1.3413  0.1917
 6571SOL    HW220613   0.029   1.782   0.100  0.9786  2.2414 -0.2358
 6572SOL     OW20614   2.349   1.923   5.567  0.0610 -0.5430  0.4614
 6572SOL    HW120615   2.257   1.962   5.556  0.3543  1.3858  3.5933
 6572SOL    HW220616   2.342   1.829   5.600 -0.7156 -0.9389 -0.7549
 6573SOL     OW20617   4.534   2.849   0.637  0.2543  0.3649 -0.0952
 6573SOL    HW120618   4.521   2.780   0.566 -0.9413 -0.0995  0.5508
 6573SOL    HW220619   4.597   2.919   0.603  1.6771 -1.1158 -0.6982
 6574SOL     OW20620   3.166   5.004   0.577  0.5564  0.2864  0.1390
 6574SOL    HW120621   3.092   5.012   0.510  1.1231  2.2302 -0.3382
 6574SOL    HW220622   3.253   5.026   0.533  1.1702 -0.0837  1.1321
 6575SOL     OW20623   2.183   3.883   5.566 -0.2208  0.6845  0.7568
 6575SOL    HW120624   2.088   3.884   5.537  0.5523  0.9414 -2.0628
 6575SOL    HW220625   2.243   3.891   5.486  2.1886  0.7365  2.4425
 6576SOL     OW20626   6.084   4.642   5.195 -0.6523  0.0816 -0.7438
 6576SOL    HW120627   6.140   4.641   5.112 -0.5928  0.5426 -0.7117
 6576SOL    HW220628   6.124   4.580   5.263  1.1229  2.0218  0.1077
 6577SOL     OW20629   5.140   3.979   3.468 -0.1471 -0.3143  0.2143
 6577SOL    HW120630   5.158   3.901   3.527  0.3732 -1.1709 -1.0346
 6577SOL    HW220631   5.222   4.002   3.417 -0.5970  0.3695 -0.2197
 6578SOL     OW20632   0.099   2.152   5.317 -0.2824 -0.2958 -0.0359
 6578SOL    HW120633   0.132   2.122   5.406  0.2757 -0.0140 -0.1484
 6578SOL    HW220634   0.175   2.160   5.253 -0.6694 -0.4203 -0.5192
 6579SOL     OW20635   5.714   2.530   3.074 -0.2729 -0.6292  0.1310
 6579SOL    HW120636   5.705   2.622   3.113 -1.2964 -0.1471 -1.1942
 6579SOL    HW220637   5.732   2.465   3.148  0.8698  0.6657  1.0560
 6580SOL     OW20638   4.137   6.887   3.832 -0.3293 -0.2910  0.7336
 6580SOL    HW120639   4.042   6.916   3.843 -0.6186 -1.0303  0.2674
 6580SOL    HW220640   4.198   6.964   3.853 -1.0291  0.2378  0.8755
 6581SOL     OW20641   2.621   1.579   0.247 -0.5497  0.3070  0.0847
 6581SOL    HW120642   2.536   1.607   0.202 -1.0804 -1.6306 -0.1948
 6581SOL    HW220643   2.615   1.483   0.272  1.9477 -0.1259 -0.7973
 6582SOL     OW20644   4.780   4.464   4.325  0.1662 -0.2026 -0.6317
 6582SOL    HW120645   4.763   4.493   4.419 -0.3757 -1.5516 -0.2896
 6582SOL    HW220646   4.762   4.540   4.263  0.9111  0.8170  0.3756
 6583SOL     OW20647   3.678   6.682   1.163 -0.5790 -0.4400  0.3470
 6583SOL    HW120648   3.610   6.727   1.105 -1.0693 -0.9199  0.5415
 6583SOL    HW220649   3.632   6.621   1.227 -0.0136 -0.1768  1.0131
 6584SOL     OW20650   1.599   4.334   6.076 -0.4074  0.1246  0.6982
 6584SOL    HW120651   1.580   4.373   6.166 -0.2701 -1.3002  1.3680
 6584SOL    HW220652   1.679   4.275   6.082 -0.7056 -0.3825 -0.2456
 6585SOL     OW20653   4.488   0.951   1.210 -0.0316  0.4039 -0.5473
 6585SOL    HW120654   4.437   0.864   1.210 -0.3232  0.5761 -0.7791
 6585SOL    HW220655   4.533   0.963   1.122 -1.2116  1.1981 -1.0756
 6586SOL     OW20656   2.988   2.251   3.570  0.2220  0.4418 -0.2088
 6586SOL    HW120657   2.942   2.164   3.555 -1.1966  0.9165  1.0502
 6586SOL    HW220658   2.993   2.301   3.484 -0.3218 -0.2556 -0.6601
 6587SOL     OW20659   5.078   0.402   0.374 -0.0162 -0.8172 -0.5543
 6587SOL    HW120660   5.010   0.407   0.301 -2.1464 -0.8445  1.3281
 6587SOL    HW220661   5.100   0.306   0.392  0.1053 -0.8336 -0.7821
 6588SOL     OW20662   5.983   3.030   0.814 -0.0836  0.2062 -0.9506
 6588SOL    HW120663   5.934   3.090   0.750 -1.0768  0.5593  0.1006
 6588SOL    HW220664   6.069   3.074   0.842 -0.6870  1.0604 -0.3782
 6589SOL     OW20665   4.455   5.788   0.784  0.9853 -0.3437 -0.3802
 6589SOL    HW120666   4.384   5.854   0.810  0.8667 -0.9786  0.9643
 6589SOL    HW220667   4.540   5.812   0.830  1.3419 -0.2703 -1.0717
 6590SOL     OW20668   4.546   6.423   6.274  0.3357  0.3843  0.3502
 6590SOL    HW120669   4.509   6.333   6.298  1.7751  0.3703  2.8739
 6590SOL    HW220670   4.480   6.473   6.219 -1.6437 -1.1805  1.2048
 6591SOL     OW20671   1.921   4.589   2.371 -0.1198  0.2172 -0.4251
 6591SOL    HW120672   1.942   4.685   2.383  0.0786  0.1281 -0.0558
 6591SOL    HW220673   1.991   4.545   2.316  0.1535  0.1355 -0.0171
 6592SOL     OW20674   3.576   2.506   1.267 -0.9010 -0.1443  0.2887
 6592SOL    HW120675   3.640   2.550   1.330 -0.5042 -1.1336  0.5991
 6592SOL    HW220676   3.487   2.552   1.272 -0.8682 -0.1838  1.5507
 6593SOL     OW20677   5.883   4.828   4.325  0.0789  0.0216  0.2505
 6593SOL    HW120678   5.841   4.887   4.395  1.9890  1.8601 -0.0496
 6593SOL    HW220679   5.942   4.761   4.369 -2.3096 -1.9783  0.6140
 6594SOL     OW20680   5.376   4.000   3.284  0.2621 -0.0087 -0.0268
 6594SOL    HW120681   5.425   4.086   3.268 -1.3872  0.8278 -0.8923
 6594SOL    HW220682   5.374   3.947   3.200 -0.6829  0.1843 -0.1359
 6595SOL     OW20683   0.796   3.144   6.886  1.0190  0.1968 -0.3222
 6595SOL    HW120684   0.854   3.064   6.904  0.8325 -0.4295 -2.2198
 6595SOL    HW220685   0.834   3.195   6.808 -0.5344  0.1962 -1.1231
 6596SOL     OW20686   0.493   5.890   2.472  0.0672  0.5908  0.0141
 6596SOL    HW120687   0.457   5.920   2.561 -0.8289 -0.6783  0.1023
 6596SOL    HW220688   0.418   5.881   2.407  0.7631  1.8801 -1.0256
 6597SOL     OW20689   1.440   4.973   5.666 -0.5608  0.2699  0.0213
 6597SOL    HW120690   1.460   4.888   5.618  1.9880  1.8642 -2.0417
 6597SOL    HW220691   1.467   4.965   5.762 -0.8146 -1.3728 -0.0208
 6598SOL     OW20692   2.942   0.377   4.695  0.3203  0.0152  0.3858
 6598SOL    HW120693   2.890   0.292   4.682 -0.9377  0.6876  0.8344
 6598SOL    HW220694   2.887   0.441   4.749  1.6637  0.7438  0.9220
 6599SOL     OW20695   0.722   2.320   1.035 -0.5159 -0.0911 -0.1824
 6599SOL    HW120696   0.647   2.359   0.982 -1.1890  1.6011  1.8787
 6599SOL    HW220697   0.808   2.362   1.008 -0.5861 -0.5120 -1.0965
 6600SOL     OW20698   0.685   3.044   6.533 -0.0982 -0.0888 -0.8422
 6600SOL    HW120699   0.609   2.996   6.489  0.4873 -1.3233 -0.5432
 6600SOL    HW220700   0.762   2.982   6.544  1.4550  1.4636 -2.3075
 6601SOL     OW20701   4.831   0.585   0.259  0.2202  0.6550 -0.3528
 6601SOL    HW120702   4.859   0.498   0.218 -1.5127  0.9780 -2.4009
 6601SOL    HW220703   4.847   0.659   0.193 -2.4926  1.2329 -0.4844
 6602SOL     OW20704   3.253   3.084   5.479 -0.9471 -0.1420 -0.1449
 6602SOL    HW120705   3.203   3.029   5.545 -1.7436  0.1277 -0.5135
 6602SOL    HW220706   3.191   3.112   5.405  0.2937 -1.9855 -2.0083
 6603SOL     OW20707   5.791   0.766   5.401  0.0141  0.5097  0.6187
 6603SOL    HW120708   5.745   0.811   5.477 -1.3322 -2.4445  1.7149
 6603SOL    HW220709   5.723   0.734   5.335  0.9832  0.8892 -0.6001
 6604SOL     OW20710   4.031   2.121   5.611  0.2616  0.4236 -0.2274
 6604SOL    HW120711   3.935   2.128   5.581  0.2425  0.4933 -0.1514
 6604SOL    HW220712   4.065   2.030   5.592 -0.2625 -0.0621  1.0230
 6605SOL     OW20713   3.866   1.326   0.294 -0.3782 -0.2384 -0.2610
 6605SOL    HW120714   3.873   1.258   0.367 -0.3366  0.2003  0.1455
 6605SOL    HW220715   3.933   1.399   0.308 -3.2589  2.2649  1.8379
 6606SOL     OW20716   6.565   0.261   2.395  0.0579  0.0878  0.9732
 6606SOL    HW120717   6.659   0.295   2.391 -0.4695  1.4790 -1.5258
 6606SOL    HW220718   6.501   0.337   2.387 -1.2419 -1.0206  0.3350
 6607SOL     OW20719   1.001   1.078   0.756  0.5603 -0.1545 -0.1464
 6607SOL    HW120720   0.944   1.013   0.805 -0.6709 -0.3269 -1.7293
 6607SOL    HW220721   1.020   1.044   0.664  2.8304  0.1449  0.1509
 6608SOL     OW20722   1.743   5.065   5.045  0.0826  0.3706 -0.4990
 6608SOL    HW120723   1.700   5.089   4.959  0.1891  0.7199 -0.4560
 6608SOL    HW220724   1.812   5.133   5.068  0.4465 -0.0187 -0.4177
 6609SOL     OW20725   1.537   4.806   4.622  0.1477 -0.2964 -0.0306
 6609SOL    HW120726   1.470   4.812   4.696  2.0404 -1.8654  1.9177
 6609SOL    HW220727   1.540   4.713   4.587  1.1109 -0.1775 -0.2844
 6610SOL     OW20728   2.447   1.283   2.113 -0.7512  0.6966 -0.5195
 6610SOL    HW120729   2.460   1.373   2.153 -0.4419  0.6263 -0.4540
 6610SOL    HW220730   2.355   1.275   2.075 -0.8508  0.9625 -0.3324
 6611SOL     OW20731   2.909   4.993   2.647  0.0604  0.3032  0.2795
 6611SOL    HW120732   3.001   5.028   2.665  0.9295 -1.5430 -0.2874
 6611SOL    HW220733   2.914   4.921   2.578 -2.0439  1.2340 -0.9229
 6612SOL     OW20734   2.134   6.968   1.120  0.0078  0.5219 -0.0971
 6612SOL    HW120735   2.192   6.902   1.166 -0.6023  1.1879  1.7059
 6612SOL    HW220736   2.039   6.936   1.121  0.1119 -0.0156 -2.0141
 6613SOL     OW20737   6.970   6.425   6.536 -0.1652 -0.2887 -0.0750
 6613SOL    HW120738   6.972   6.500   6.602 -3.8717 -0.1369  0.1072
 6613SOL    HW220739   6.966   6.338   6.584 -1.0773 -0.2723 -0.0980
 6614SOL     OW20740   1.180   6.768   2.666  0.0670 -0.2810  0.2144
 6614SOL    HW120741   1.156   6.837   2.597  0.8985 -0.6666 -0.4869
 6614SOL    HW220742   1.231   6.694   2.622  2.0681  0.2434  1.5136
 6615SOL     OW20743   3.279   5.701   3.683 -0.8664 -0.3742  0.0612
 6615SOL    HW120744   3.341   5.623   3.671  0.0956  0.4209 -0.3257
 6615SOL    HW220745   3.296   5.743   3.772  0.2158  0.7249 -0.6321
 6616SOL     OW20746   0.085   3.401   1.292  0.0506 -0.9424 -0.5609
 6616SOL    HW120747   0.170   3.448   1.271 -0.1377 -0.7773 -0.9783
 6616SOL    HW220748   0.071   3.399   1.391 -0.9597  1.7416 -0.5682
 6617SOL     OW20749   5.774   1.703   1.489  0.3230 -0.0841  0.0175
 6617SOL    HW120750   5.859   1.753   1.475  1.5987 -1.8241  1.1662
 6617SOL    HW220751   5.697   1.767   1.486  1.6907  1.6226 -0.4696
 6618SOL     OW20752   6.643   0.122   5.467  0.2415  0.3177  0.3098
 6618SOL    HW120753   6.566   0.125   5.531 -0.7210  0.0761 -0.8125
 6618SOL    HW220754   6.711   0.057   5.501 -1.6448 -2.1884 -0.3821
 6619SOL     OW20755   5.878   3.752   0.176  0.0240 -0.5077 -0.2403
 6619SOL    HW120756   5.810   3.679   0.179  0.9044 -1.4461 -1.9625
 6619SOL    HW220757   5.833   3.838   0.152 -0.5931 -1.1123 -1.3405
 6620SOL     OW20758   5.780   2.780   3.214  0.2596  0.3138 -0.4198
 6620SOL    HW120759   5.827   2.821   3.136  0.6003  0.1516 -0.3061
 6620SOL    HW220760   5.841   2.712   3.257  1.1825  2.3247  1.6475
 6621SOL     OW20761   2.821   4.255   0.797  0.1086 -0.4196  0.2931
 6621SOL    HW120762   2.837   4.193   0.720 -0.9477 -0.4252  0.0714
 6621SOL    HW220763   2.736   4.231   0.844 -0.7487  1.3061 -0.2636
 6622SOL     OW20764   4.295   4.675   0.595 -0.4305  0.6540  1.1411
 6622SOL    HW120765   4.285   4.597   0.534 -0.1359  0.6221  1.1329
 6622SOL    HW220766   4.340   4.646   0.679  2.1585  1.3103  0.0769
 6623SOL     OW20767   5.285   3.084   0.603  0.4265 -0.6327  0.1496
 6623SOL    HW120768   5.285   3.184   0.602  2.4768 -0.5873 -0.9277
 6623SOL    HW220769   5.363   3.050   0.550  0.0247 -2.8080  0.8450
 6624SOL     OW20770   4.329   6.127   2.108  0.1187  0.2227 -0.3307
 6624SOL    HW120771   4.338   6.060   2.181  0.4808  0.7266  0.0977
 6624SOL    HW220772   4.389   6.103   2.032 -0.8738 -0.7636 -0.8370
 6625SOL     OW20773   6.200   2.712   5.580  0.3795 -0.1019  0.2006
 6625SOL    HW120774   6.201   2.630   5.638  1.0500 -2.0012 -2.3200
 6625SOL    HW220775   6.216   2.685   5.485  2.8648  3.2059 -0.4646
 6626SOL     OW20776   3.738   6.378   5.880  0.3067 -0.2113 -0.3002
 6626SOL    HW120777   3.794   6.447   5.926  0.3378  0.2417 -0.9958
 6626SOL    HW220778   3.688   6.420   5.805  1.9092 -1.3043 -2.0817
 6627SOL     OW20779   5.871   2.023   2.588  0.5267 -0.2486  0.4256
 6627SOL    HW120780   5.957   1.995   2.546  1.5982  0.5191  1.9836
 6627SOL    HW220781   5.805   2.049   2.518  2.9418  3.1817 -0.8134
 6628SOL     OW20782   5.484   2.608   6.536 -0.3139 -0.1236  0.3456
 6628SOL    HW120783   5.460   2.523   6.582 -0.0890 -0.9843 -1.0552
 6628SOL    HW220784   5.557   2.591   6.469  0.4045  1.3608  0.6931
 6629SOL     OW20785   2.297   2.577   1.589 -0.0958 -0.2089 -0.6099
 6629SOL    HW120786   2.323   2.543   1.679 -0.5081 -0.0699 -0.4379
 6629SOL    HW220787   2.367   2.551   1.522 -0.0527 -0.7703 -0.3496
 6630SOL     OW20788   1.500   0.016   1.545  0.5021 -0.0875  0.6818
 6630SOL    HW120789   1.476  -0.051   1.474 -1.1608  0.9006  0.2564
 6630SOL    HW220790   1.499   0.108   1.506  2.0638  0.2785  1.4241
 6631SOL     OW20791   3.528   5.393   2.165 -0.3981  0.2204  0.0488
 6631SOL    HW120792   3.504   5.298   2.142 -0.0498  0.0131  0.5193
 6631SOL    HW220793   3.626   5.406   2.155  0.0371 -0.3227  2.7976
 6632SOL     OW20794   3.927   6.804   1.929  0.8552  0.8286  0.4456
 6632SOL    HW120795   3.903   6.897   1.958  1.8309  1.2203  0.0395
 6632SOL    HW220796   3.844   6.757   1.898  0.2443  1.3404  1.2528
 6633SOL     OW20797   0.729   1.986   5.676 -0.2164 -0.4534  0.0153
 6633SOL    HW120798   0.759   2.074   5.640 -1.5520 -0.3929 -1.0321
 6633SOL    HW220799   0.761   1.913   5.617 -1.3624 -0.4433 -0.6600
 6634SOL     OW20800   4.473   6.865   6.323 -0.6110  0.6102  0.8953
 6634SOL    HW120801   4.444   6.833   6.414  1.0612 -1.8975  0.6584
 6634SOL    HW220802   4.392   6.880   6.266 -1.6532 -2.0389  1.5193
 6635SOL     OW20803   6.400   3.472   5.009  0.0350 -0.3859  0.1163
 6635SOL    HW120804   6.408   3.376   4.982 -2.9599 -0.2149 -1.8118
 6635SOL    HW220805   6.487   3.518   4.993  0.6364 -2.0798 -2.0153
 6636SOL     OW20806   6.640   0.079   1.675  0.1780  0.9940 -0.5083
 6636SOL    HW120807   6.704   0.123   1.611  0.4006  0.2208 -0.8337
 6636SOL    HW220808   6.612  -0.009   1.637 -0.1823  0.8107  0.1805
 6637SOL     OW20809   1.350   0.966   1.436 -0.2590  0.2068  0.5916
 6637SOL    HW120810   1.381   1.060   1.428  1.8711 -0.5964 -2.3195
 6637SOL    HW220811   1.394   0.923   1.514 -0.2656  1.2820  1.2003
 6638SOL     OW20812   5.785   3.569   4.542 -0.1184  0.3470  0.1269
 6638SOL    HW120813   5.723   3.603   4.471 -0.1933  0.4504  0.2413
 6638SOL    HW220814   5.876   3.555   4.503 -0.4491 -0.7837 -0.3024
 6639SOL     OW20815   3.099   2.995   3.273  0.2736  0.4352 -0.0456
 6639SOL    HW120816   3.068   3.090   3.274 -0.0715  0.3399  1.7608
 6639SOL    HW220817   3.056   2.945   3.348  2.1181 -0.5996  0.3972
 6640SOL     OW20818   5.092   5.936   0.984 -0.3060 -0.2073 -0.2908
 6640SOL    HW120819   5.022   5.941   1.055 -0.8306  1.5224 -0.9068
 6640SOL    HW220820   5.111   5.840   0.963 -2.1944 -0.7129  0.1612
 6641SOL     OW20821   0.792   4.164   0.664 -0.0770  0.1937  0.3412
 6641SOL    HW120822   0.752   4.255   0.657 -2.0277 -0.6803 -0.7785
 6641SOL    HW220823   0.840   4.142   0.580 -1.2159 -0.4792 -0.1612
 6642SOL     OW20824   3.295   0.892   3.630  0.0506 -0.4275 -0.3700
 6642SOL    HW120825   3.207   0.934   3.649 -0.9776 -1.9012 -1.6260
 6642SOL    HW220826   3.330   0.849   3.714  0.4637  1.6344  0.5693
 6643SOL     OW20827   1.979   5.876   5.516 -0.0532 -0.0020  0.2345
 6643SOL    HW120828   1.987   5.823   5.600 -1.2417  2.1386  1.7889
 6643SOL    HW220829   1.922   5.957   5.532 -0.6037  0.3204 -2.7318
 6644SOL     OW20830   5.756   3.259   2.554  0.0289  0.1121 -0.0878
 6644SOL    HW120831   5.786   3.346   2.592 -0.2089 -0.0855  0.5676
 6644SOL    HW220832   5.836   3.205   2.527  0.2274 -0.0283  0.7811
 6645SOL     OW20833   0.519   0.012   2.092 -0.1237 -0.6441  0.8760
 6645SOL    HW120834   0.536   0.109   2.075 -1.7782 -0.8067 -2.5450
 6645SOL    HW220835   0.510  -0.004   2.191 -1.0953  2.9057  1.4873
 6646SOL     OW20836   6.166   0.994   2.390 -0.1633 -0.1222  0.1374
 6646SOL    HW120837   6.077   1.018   2.351  0.2126  0.5819 -0.3035
 6646SOL    HW220838   6.182   1.049   2.472 -1.5344 -2.5117  2.1565
 6647SOL     OW20839   5.352   5.363   0.950 -0.0331 -1.2312 -0.3924
 6647SOL    HW120840   5.403   5.355   1.036 -0.2401  0.4834 -0.0719
 6647SOL    HW220841   5.415   5.388   0.876 -0.2364 -0.0381 -0.1819
 6648SOL     OW20842   6.293   1.769   6.210 -0.2940  0.1968  0.1775
 6648SOL    HW120843   6.271   1.867   6.203  2.3426  1.0557  2.0314
 6648SOL    HW220844   6.221   1.715   6.168 -2.7735  2.8538  0.7138
 6649SOL     OW20845   1.183   5.498   1.292  0.4153  0.0975  0.2957
 6649SOL    HW120846   1.191   5.525   1.388 -3.3510 -0.3702  0.8932
 6649SOL    HW220847   1.211   5.403   1.282  2.1877  0.5494  0.5721
 6650SOL     OW20848   3.431   6.981   2.455  0.3618 -0.6381 -0.5669
 6650SOL    HW120849   3.378   6.912   2.405 -0.6990  0.5737 -1.1938
 6650SOL    HW220850   3.518   6.941   2.485 -1.5916 -3.2622  2.0971
 6651SOL     OW20851   5.570   1.037   6.273  0.0450 -0.2975  0.1067
 6651SOL    HW120852   5.550   1.119   6.218  3.6964  0.0069 -1.0419
 6651SOL    HW220853   5.592   0.961   6.212 -1.6911 -1.7318  1.1908
 6652SOL     OW20854   3.626   6.636   5.459  0.3131  0.9045 -0.1601
 6652SOL    HW120855   3.645   6.711   5.523 -0.5989  0.9232  0.1071
 6652SOL    HW220856   3.711   6.606   5.417  0.5976  2.8640 -1.1356
 6653SOL     OW20857   4.170   6.594   6.512  0.2567 -0.4871  0.1644
 6653SOL    HW120858   4.116   6.538   6.449  2.2219 -1.3537 -0.8314
 6653SOL    HW220859   4.189   6.542   6.595  0.9351 -0.8140 -0.1881
 6654SOL     OW20860   1.732   1.599   0.343 -0.0561  0.0722  0.0403
 6654SOL    HW120861   1.777   1.649   0.269 -1.0284  1.8639  0.6125
 6654SOL    HW220862   1.703   1.663   0.414 -2.4128 -1.1573  0.2688
 6655SOL     OW20863   0.945   5.453   0.184 -0.0058  0.2376  0.1295
 6655SOL    HW120864   0.937   5.441   0.085  4.1041  0.7543 -0.4302
 6655SOL    HW220865   0.987   5.372   0.225  0.0098  0.7514  1.1636
 6656SOL     OW20866   4.836   0.832   0.071 -0.0548 -0.0313 -0.2524
 6656SOL    HW120867   4.863   0.757   0.010  0.4198  0.1988 -0.3272
 6656SOL    HW220868   4.871   0.918   0.035 -1.0641  0.3000 -0.4509
 6657SOL     OW20869   0.442   2.221   5.958 -0.5122  0.4908  0.0298
 6657SOL    HW120870   0.407   2.145   5.904  1.1733 -0.9297  0.8015
 6657SOL    HW220871   0.508   2.273   5.904  0.2690 -0.2002  0.2890
 6658SOL     OW20872   0.887   3.825   0.616  0.1236 -0.4040  0.0780
 6658SOL    HW120873   0.870   3.901   0.554 -2.0455 -0.4364  0.5695
 6658SOL    HW220874   0.918   3.746   0.564  2.2162  0.7034 -0.4580
 6659SOL     OW20875   0.865   6.424   0.948 -0.0329 -0.4231  0.6231
 6659SOL    HW120876   0.791   6.362   0.973  0.2048 -1.2648 -0.6683
 6659SOL    HW220877   0.835   6.518   0.962 -1.0354 -0.7710  0.9465
 6660SOL     OW20878   4.914   3.876   4.488  0.0255  0.2491 -0.4749
 6660SOL    HW120879   4.875   3.968   4.489 -2.6547 -0.7540 -2.4309
 6660SOL    HW220880   4.896   3.832   4.576  0.4963  1.2325  0.1378
 6661SOL     OW20881   4.510   5.000   0.906  0.8244 -0.0434 -0.7571
 6661SOL    HW120882   4.551   5.091   0.902 -0.0923  0.3605 -1.3229
 6661SOL    HW220883   4.565   4.936   0.854  0.4660  0.6050 -1.9704
 6662SOL     OW20884   2.477   4.099   6.080 -0.5495  0.1562 -0.0159
 6662SOL    HW120885   2.467   4.171   6.012 -0.5666  0.8652  0.7219
 6662SOL    HW220886   2.387   4.058   6.099 -0.4657 -0.4135 -0.7988
 6663SOL     OW20887   1.184   2.756   4.355  0.0796 -0.1755  0.0125
 6663SOL    HW120888   1.187   2.823   4.282  0.9771  0.3062  0.4780
 6663SOL    HW220889   1.163   2.802   4.442 -0.6984 -0.6998  0.1196
 6664SOL     OW20890   1.514   4.653   6.719 -0.2957 -0.8599  0.4590
 6664SOL    HW120891   1.469   4.621   6.802 -0.5385 -2.3620 -0.2151
 6664SOL    HW220892   1.534   4.575   6.660 -0.8534  0.2364 -1.2592
 6665SOL     OW20893   6.003   3.587   0.687  0.1614  0.9315  0.0600
 6665SOL    HW120894   5.919   3.533   0.691  0.5406  0.3790  0.7870
 6665SOL    HW220895   5.992   3.670   0.742 -0.4571  1.6761 -1.1388
 6666SOL     OW20896   1.132   6.515   3.003 -0.4508  0.7850 -0.9627
 6666SOL    HW120897   1.084   6.448   2.946 -1.0709  0.8332 -0.5138
 6666SOL    HW220898   1.135   6.603   2.955 -1.4824  0.9811 -0.7016
 6667SOL     OW20899   1.113   0.943   1.958 -0.5763  0.0684  0.0300
 6667SOL    HW120900   1.064   1.027   1.981 -0.2675 -0.5680  3.5272
 6667SOL    HW220901   1.083   0.869   2.018  1.3665 -1.5403 -0.8612
 6668SOL     OW20902   7.015   4.095   2.894  0.3473 -0.4137  1.1274
 6668SOL    HW120903   7.049   4.006   2.864 -0.6013 -0.1494 -0.8643
 6668SOL    HW220904   7.090   4.161   2.894  0.7451 -0.8549  1.2060
 6669SOL     OW20905   2.314   1.564   1.534 -0.2190 -0.6791 -0.1518
 6669SOL    HW120906   2.218   1.570   1.562 -0.4158 -0.1762 -0.9091
 6669SOL    HW220907   2.365   1.640   1.574 -0.4534 -0.0907 -0.9431
 6670SOL     OW20908   4.257   5.162   4.719  0.2455 -0.1935 -0.1410
 6670SOL    HW120909   4.321   5.238   4.729 -0.2143  0.2825 -0.7433
 6670SOL    HW220910   4.287   5.086   4.776  0.0589  0.8604  1.3994
 6671SOL     OW20911   3.552   5.937   5.096  0.5526 -0.2946 -0.1152
 6671SOL    HW120912   3.551   5.885   5.011 -0.1796 -0.0282 -0.2773
 6671SOL    HW220913   3.514   6.028   5.080 -1.2886 -0.8446  0.8517
 6672SOL     OW20914   2.366   6.854   1.254 -0.2203  0.4413 -0.0175
 6672SOL    HW120915   2.363   6.936   1.312 -1.4067  1.1129 -0.9767
 6672SOL    HW220916   2.461   6.827   1.240  0.1006 -0.1879  2.8067
 6673SOL     OW20917   5.150   0.054   4.656 -0.5182  0.5781  0.5995
 6673SOL    HW120918   5.095   0.134   4.681 -0.0505  0.6719  1.3396
 6673SOL    HW220919   5.204   0.025   4.734 -0.1735 -0.0556  0.1312
 6674SOL     OW20920   6.270   5.679   1.757  0.2727  0.6394 -0.0929
 6674SOL    HW120921   6.357   5.709   1.718  1.0305 -1.0128  0.2489
 6674SOL    HW220922   6.286   5.600   1.816 -1.4098  0.6153  0.3644
 6675SOL     OW20923   4.798   0.169   4.621 -0.1159  0.2117 -0.1643
 6675SOL    HW120924   4.727   0.219   4.572 -0.3181  0.0348 -0.0513
 6675SOL    HW220925   4.779   0.170   4.719 -0.6422 -0.8963 -0.2391
 6676SOL     OW20926   4.911   5.265   6.131  0.4087  0.9092  0.3423
 6676SOL    HW120927   4.992   5.297   6.181  0.5847 -1.0093  1.4140
 6676SOL    HW220928   4.913   5.301   6.038  3.9451 -1.0618 -0.5610
 6677SOL     OW20929   4.731   5.395   1.790 -0.4249 -0.4882 -0.0089
 6677SOL    HW120930   4.661   5.385   1.720  1.6058  0.5846 -2.3678
 6677SOL    HW220931   4.746   5.492   1.809 -0.6380 -0.7500  1.6384
 6678SOL     OW20932   6.264   5.703   0.367 -0.5921  0.0661 -0.8005
 6678SOL    HW120933   6.359   5.722   0.389 -0.8021  0.7890 -0.4730
 6678SOL    HW220934   6.256   5.611   0.329 -0.1951 -1.2976  2.1387
 6679SOL     OW20935   2.886   2.027   5.550 -0.0513 -0.2938  0.0083
 6679SOL    HW120936   2.838   2.012   5.463  1.5066 -1.0127 -0.7726
 6679SOL    HW220937   2.926   1.941   5.581  0.9159  0.3228  0.4988
 6680SOL     OW20938   2.891   0.106   2.911 -0.3302 -0.0261 -0.1782
 6680SOL    HW120939   2.809   0.144   2.866 -1.5239 -0.8990  1.1704
 6680SOL    HW220940   2.972   0.150   2.874 -1.4836  1.7980 -0.6888
 6681SOL     OW20941   3.900   5.499   0.833  0.0586  1.0974  0.0721
 6681SOL    HW120942   3.924   5.559   0.758  0.2563 -0.1462 -0.8930
 6681SOL    HW220943   3.874   5.554   0.913 -1.3965  2.4706 -1.2740
 6682SOL     OW20944   6.540   1.258   0.900  0.3193 -0.2377  0.5956
 6682SOL    HW120945   6.478   1.328   0.935 -3.1767 -2.3638 -0.7864
 6682SOL    HW220946   6.529   1.251   0.800 -0.5454 -3.4764  0.7837
 6683SOL     OW20947   5.146   2.551   5.493 -0.3042 -0.2144 -0.0192
 6683SOL    HW120948   5.177   2.461   5.462  1.3327  0.4418 -0.3914
 6683SOL    HW220949   5.046   2.552   5.498 -0.3447 -2.1333  0.2746
 6684SOL     OW20950   6.932   5.514   4.473  0.3008 -0.9582 -0.0217
 6684SOL    HW120951   6.985   5.429   4.477  0.4694 -0.8189  1.0974
 6684SOL    HW220952   6.994   5.591   4.455  0.8490 -0.5498  3.0890
 6685SOL     OW20953   3.871   2.980   4.334 -0.6983  0.2050 -0.2167
 6685SOL    HW120954   3.940   3.050   4.348  0.3669 -0.6266 -1.1080
 6685SOL    HW220955   3.834   2.951   4.423  1.2463 -0.4320  0.4383
 6686SOL     OW20956   0.380   5.592   5.989  0.0809  0.1730  0.3028
 6686SOL    HW120957   0.303   5.608   6.051 -1.6015 -0.4759 -1.4969
 6686SOL    HW220958   0.389   5.669   5.926 -1.0545 -0.9966 -1.3804
 6687SOL     OW20959   2.187   1.192   6.695 -0.2467  0.5076 -0.2334
 6687SOL    HW120960   2.158   1.147   6.780 -0.8867 -1.1471 -1.2864
 6687SOL    HW220961   2.180   1.292   6.707 -1.3178  0.2918  1.3055
 6688SOL     OW20962   4.492   4.558   4.060 -0.7627  0.1315 -0.0216
 6688SOL    HW120963   4.570   4.570   4.121 -0.3833  0.0561 -0.4795
 6688SOL    HW220964   4.510   4.482   3.997 -1.9613 -1.0823  1.0281
 6689SOL     OW20965   1.977   1.838   3.474 -0.2538 -0.9160  0.2756
 6689SOL    HW120966   2.060   1.865   3.426 -0.4293 -0.7374  0.0722
 6689SOL    HW220967   1.925   1.775   3.418 -0.3181 -0.9282  0.3490
 6690SOL     OW20968   2.845   1.317   0.598 -0.1693 -0.4754 -0.2257
 6690SOL    HW120969   2.878   1.383   0.531  0.7405  0.3671  0.9895
 6690SOL    HW220970   2.763   1.353   0.643 -0.9067 -1.1361 -1.0123
 6691SOL     OW20971   0.630   2.322   4.008 -0.0182  0.5677 -0.0696
 6691SOL    HW120972   0.578   2.316   3.923 -2.2981 -0.2827  1.2911
 6691SOL    HW220973   0.598   2.400   4.062 -0.1701 -0.1867  0.9637
 6692SOL     OW20974   3.151   6.946   3.533 -0.0630 -0.0545 -0.0075
 6692SOL    HW120975   3.130   7.016   3.600 -0.2337 -0.3096  0.2064
 6692SOL    HW220976   3.248   6.923   3.538 -0.3546 -1.1036  1.1468
 6693SOL     OW20977   4.072   4.885   5.516  0.7176 -0.2123 -0.9642
 6693SOL    HW120978   4.125   4.966   5.493  1.8802 -0.5394  0.4344
 6693SOL    HW220979   4.116   4.837   5.592 -2.0769 -0.0321  0.8773
 6694SOL     OW20980   5.744   6.088   2.706 -0.3323  0.0237 -0.9850
 6694SOL    HW120981   5.767   6.049   2.795 -0.1938  0.2465 -0.9234
 6694SOL    HW220982   5.802   6.168   2.689  2.1946 -1.9775 -2.7465
 6695SOL     OW20983   3.099   5.426   6.119 -0.4910 -0.3477 -0.3472
 6695SOL    HW120984   3.000   5.425   6.136 -0.3200  0.0449  0.7205
 6695SOL    HW220985   3.125   5.341   6.072 -1.4200 -0.1755 -1.2145
 6696SOL     OW20986   2.316   1.659   5.623  0.4870 -0.3782  0.1309
 6696SOL    HW120987   2.236   1.607   5.595  0.0570  0.5127 -0.3513
 6696SOL    HW220988   2.398   1.618   5.586 -0.0008  0.3541 -1.8985
 6697SOL     OW20989   4.780   2.616   5.775 -0.0908 -0.2863  0.3237
 6697SOL    HW120990   4.862   2.605   5.832  0.1793 -1.5687 -0.2802
 6697SOL    HW220991   4.727   2.531   5.776 -1.6112  0.6149  0.9633
 6698SOL     OW20992   1.336   2.230   5.243  0.6031  0.3459 -0.0859
 6698SOL    HW120993   1.272   2.299   5.209  0.3889  0.6044  0.8146
 6698SOL    HW220994   1.407   2.214   5.174 -1.8149 -1.8822 -2.2424
 6699SOL     OW20995   4.208   2.625   0.938  0.0488  0.5092 -0.3964
 6699SOL    HW120996   4.289   2.683   0.926 -0.4158  1.2879  0.1575
 6699SOL    HW220997   4.209   2.584   1.029  0.5675 -0.6914 -0.9127
 6700SOL     OW20998   5.240   1.915   3.577  0.2028  0.0739 -0.0316
 6700SOL    HW120999   5.143   1.902   3.559  0.2271 -0.5188  0.2562
 6700SOL    HW221000   5.253   1.992   3.639 -0.1943 -0.8798  1.2619
 6701SOL     OW21001   0.482   0.900   0.249  0.4212  0.0909  0.3687
 6701SOL    HW121002   0.419   0.899   0.171  0.3906  2.9329  0.2258
 6701SOL    HW221003   0.558   0.962   0.229  0.1892  1.2575  2.7115
 6702SOL     OW21004   6.638   0.107   2.617 -0.3599  0.0907 -0.2557
 6702SOL    HW121005   6.623   0.188   2.560  0.3284  0.9043  0.6993
 6702SOL    HW221006   6.713   0.053   2.579 -0.9526 -0.2251 -1.0084
 6703SOL     OW21007   1.187   2.950   0.089 -0.0713  0.2943  0.2464
 6703SOL    HW121008   1.199   2.850   0.081 -1.1788  0.2295 -0.8775
 6703SOL    HW221009   1.227   2.981   0.175  1.3064 -0.9534  0.1131
 6704SOL     OW21010   3.138   5.797   6.110  0.3029  0.0049  0.2587
 6704SOL    HW121011   3.185   5.884   6.123  1.0250 -0.1245 -1.2697
 6704SOL    HW221012   3.190   5.724   6.154 -0.1805  0.2908  1.3375
 6705SOL     OW21013   6.569   0.158   0.907  0.0380 -0.2491 -0.0245
 6705SOL    HW121014   6.513   0.238   0.887  1.6545  0.9268  0.0379
 6705SOL    HW221015   6.599   0.160   1.003  0.8689 -0.4156 -0.2688
 6706SOL     OW21016   1.454   5.198   4.246  0.5874  0.3627  0.1545
 6706SOL    HW121017   1.532   5.172   4.304 -0.2147  1.3439  1.7375
 6706SOL    HW221018   1.485   5.258   4.173  1.8602 -2.0001 -1.3705
 6707SOL     OW21019   3.692   6.272   0.081  0.1184 -0.5528  0.1092
 6707SOL    HW121020   3.623   6.220   0.131 -0.0653 -0.4411 -0.0259
 6707SOL    HW221021   3.715   6.355   0.133 -0.7014  0.0032 -0.3870
 6708SOL     OW21022   0.950   0.593   3.125  0.5211  0.8314  0.1018
 6708SOL    HW121023   0.978   0.617   3.032 -0.8898  0.1682 -0.5231
 6708SOL    HW221024   0.885   0.661   3.158 -1.2067 -0.4385 -0.5415
 6709SOL     OW21025   2.874   2.213   3.144  0.4164 -0.0381 -0.0460
 6709SOL    HW121026   2.835   2.258   3.063  0.6077  0.3686  0.0836
 6709SOL    HW221027   2.971   2.192   3.126  1.1993  2.3345  0.9494
 6710SOL     OW21028   0.252   2.143   6.828  0.0576 -0.0129 -0.0950
 6710SOL    HW121029   0.351   2.131   6.832  0.1400  0.4198 -0.6422
 6710SOL    HW221030   0.220   2.185   6.913  0.1528 -1.3560  0.6305
 6711SOL     OW21031   4.233   0.493   2.626 -0.4793 -0.0556  0.0364
 6711SOL    HW121032   4.265   0.585   2.648  0.6714 -0.4580  0.1831
 6711SOL    HW221033   4.167   0.463   2.695 -2.1900  1.2737 -0.9586
 6712SOL     OW21034   4.020   3.750   2.778  0.7302  0.0409 -0.0728
 6712SOL    HW121035   4.026   3.652   2.756  4.8301  0.3960 -1.4141
 6712SOL    HW221036   3.995   3.801   2.696  1.8324  0.3333 -0.2361
 6713SOL     OW21037   1.046   5.958   4.421 -0.0535 -0.7728  0.3344
 6713SOL    HW121038   1.119   6.009   4.466 -1.5174  1.3414  0.4935
 6713SOL    HW221039   0.996   5.904   4.489 -2.7487  3.0020  1.6992
 6714SOL     OW21040   5.442   6.912   2.305  0.0407  0.1545 -0.3183
 6714SOL    HW121041   5.475   7.006   2.309 -2.1204  0.9619  0.1642
 6714SOL    HW221042   5.362   6.907   2.245  0.4903 -1.5376 -0.8577
 6715SOL     OW21043   1.457   1.405   0.372  0.2970  0.5504  0.0442
 6715SOL    HW121044   1.399   1.458   0.433  0.0187  0.2327  0.0541
 6715SOL    HW221045   1.535   1.369   0.423 -0.4157 -0.4917  0.4337
 6716SOL     OW21046   1.381   3.879   5.171  0.3318 -0.2619  0.4893
 6716SOL    HW121047   1.327   3.866   5.088  1.1378 -0.3083 -0.0408
 6716SOL    HW221048   1.392   3.977   5.189  1.2512 -0.2212 -0.2086
 6717SOL     OW21049   5.590   2.570   3.778  0.2301  0.4712 -0.0557
 6717SOL    HW121050   5.523   2.495   3.778  1.9428 -1.2328 -3.3305
 6717SOL    HW221051   5.658   2.553   3.849 -0.8638  0.4109  1.0161
 6718SOL     OW21052   4.879   3.860   6.788  0.1698  0.2814 -0.3300
 6718SOL    HW121053   4.956   3.863   6.725  1.1186  1.1576  0.8181
 6718SOL    HW221054   4.902   3.800   6.865 -1.2169 -1.2901 -1.0952
 6719SOL     OW21055   0.818   1.969   3.833 -0.7881 -0.4104 -0.1802
 6719SOL    HW121056   0.883   1.908   3.879  0.1804  0.0737 -0.8747
 6719SOL    HW221057   0.725   1.942   3.857 -0.3986 -2.3056 -0.6526
 6720SOL     OW21058   0.274   5.997   5.447  0.4508 -0.1685  0.1433
 6720SOL    HW121059   0.284   5.968   5.352 -2.3330  1.7519 -0.8540
 6720SOL    HW221060   0.323   5.932   5.507  1.0247 -2.2902 -2.4218
 6721SOL     OW21061   1.074   4.680   3.661  0.3731 -0.4070  0.2933
 6721SOL    HW121062   0.987   4.695   3.614  0.5367 -1.0525 -0.2369
 6721SOL    HW221063   1.116   4.596   3.626  0.9064 -0.4391  0.9965
 6722SOL     OW21064   2.370   6.565   5.138 -0.2213 -0.0323 -0.0935
 6722SOL    HW121065   2.376   6.512   5.222  0.8437 -0.0083 -0.1310
 6722SOL    HW221066   2.300   6.635   5.147  0.7642  0.8279  1.2763
 6723SOL     OW21067   6.131   3.724   1.656 -0.3095 -0.3457 -0.3255
 6723SOL    HW121068   6.131   3.816   1.618 -0.9924 -0.5496 -0.8297
 6723SOL    HW221069   6.202   3.717   1.726  0.3873  0.2821 -0.9575
 6724SOL     OW21070   6.104   3.442   5.473 -1.0020  0.1110 -0.3505
 6724SOL    HW121071   6.145   3.481   5.391 -0.1827  0.2233  0.1021
 6724SOL    HW221072   6.047   3.364   5.447  0.7254 -1.0395 -0.8871
 6725SOL     OW21073   1.787   5.236   2.908  0.0043 -0.1055  0.7144
 6725SOL    HW121074   1.696   5.277   2.901 -0.0509 -0.3644 -0.1446
 6725SOL    HW221075   1.810   5.191   2.822  1.5032  1.1117  0.4232
 6726SOL     OW21076   1.274   4.561   5.500 -0.3904 -0.4516  0.4608
 6726SOL    HW121077   1.352   4.515   5.543 -0.0506  0.3332  0.7285
 6726SOL    HW221078   1.226   4.616   5.569 -2.5690 -2.6557  0.8207
 6727SOL     OW21079   3.518   1.177   4.227  0.1185  0.2201  0.0582
 6727SOL    HW121080   3.521   1.207   4.131  1.2423  1.1693  0.3789
 6727SOL    HW221081   3.446   1.228   4.274  1.6071  2.0771  0.4473
 6728SOL     OW21082   6.617   0.484   2.105  0.0748 -0.3287  0.4813
 6728SOL    HW121083   6.599   0.396   2.061  0.2504 -0.2213  0.1872
 6728SOL    HW221084   6.534   0.539   2.104  0.3443  0.0861 -0.6839
 6729SOL     OW21085   2.931   0.868   2.881 -0.2944  0.2473  0.5006
 6729SOL    HW121086   3.027   0.891   2.868 -0.2300  0.7591  1.7800
 6729SOL    HW221087   2.915   0.773   2.852 -0.2610  1.2720 -3.4361
 6730SOL     OW21088   2.762   6.601   2.528  0.4243  0.3358 -0.4743
 6730SOL    HW121089   2.695   6.632   2.461  0.2039 -0.4752 -0.6302
 6730SOL    HW221090   2.818   6.679   2.557  0.9039  0.5870 -2.0135
 6731SOL     OW21091   3.503   6.839   1.011 -0.1839 -0.1583 -0.1649
 6731SOL    HW121092   3.511   6.784   0.928 -1.6499 -0.8834  0.1374
 6731SOL    HW221093   3.436   6.912   0.996  2.5290  2.3668 -0.9364
 6732SOL     OW21094   3.976   6.999   6.882  0.2768  0.3897 -0.7549
 6732SOL    HW121095   3.908   7.071   6.897 -0.2610 -0.0035 -1.2637
 6732SOL    HW221096   3.931   6.918   6.843  0.5189 -0.8878  1.4036
 6733SOL     OW21097   6.985   6.640   2.151 -0.2197  0.4354 -0.4898
 6733SOL    HW121098   7.064   6.702   2.161 -0.1321  0.1903  0.4076
 6733SOL    HW221099   7.018   6.549   2.126 -0.3527  0.7377 -1.8685
 6734SOL     OW21100   3.101   6.066   6.856  0.0644  0.2480  0.7293
 6734SOL    HW121101   3.012   6.054   6.901  0.8275 -0.0103  2.2607
 6734SOL    HW221102   3.121   5.987   6.798 -0.0737 -0.3962  1.5430
 6735SOL     OW21103   0.329   5.730   3.759 -0.0946  0.3239  0.3042
 6735SOL    HW121104   0.311   5.792   3.682 -1.8876  0.9632  1.1924
 6735SOL    HW221105   0.426   5.706   3.759  0.1570  1.0976 -1.5589
 6736SOL     OW21106   6.613   5.491   0.956  0.0204 -0.0686  0.0389
 6736SOL    HW121107   6.541   5.467   1.021 -1.3075 -0.2352 -1.4453
 6736SOL    HW221108   6.577   5.556   0.889  0.7543 -1.3593 -1.6852
 6737SOL     OW21109   4.027   2.001   2.217  0.2111  0.2264 -0.2254
 6737SOL    HW121110   3.944   2.054   2.238 -1.5555 -2.2571 -0.4366
 6737SOL    HW221111   4.073   2.042   2.138 -1.7172  0.8482 -1.1064
 6738SOL     OW21112   3.505   0.597   1.028 -0.8770  0.0776 -0.6127
 6738SOL    HW121113   3.436   0.607   0.956 -0.9200  2.2259 -0.3123
 6738SOL    HW221114   3.502   0.503   1.063 -0.7184 -1.1130 -3.5038
 6739SOL     OW21115   1.048   0.610   3.782  0.0238  0.1324 -1.0385
 6739SOL    HW121116   1.091   0.546   3.718  0.2978 -1.5725  0.7346
 6739SOL    HW221117   0.966   0.568   3.822 -0.4843  1.3818 -0.7140
 6740SOL     OW21118   4.885   5.569   4.622 -0.0942  0.5036  0.2315
 6740SOL    HW121119   4.932   5.657   4.623  1.7954 -0.4481  0.2304
 6740SOL    HW221120   4.837   5.558   4.535  0.9090  0.9215 -0.3943
 6741SOL     OW21121   1.053   6.426   0.417  0.1219 -0.1031  0.1804
 6741SOL    HW121122   0.982   6.495   0.404 -0.4646 -0.8522 -0.8103
 6741SOL    HW221123   1.143   6.467   0.407 -0.2316  0.2324 -2.1474
 6742SOL     OW21124   5.454   4.265   3.634 -0.7142  0.0975  0.0024
 6742SOL    HW121125   5.426   4.179   3.677  0.4201 -0.1561  0.2715
 6742SOL    HW221126   5.464   4.250   3.535  0.4192 -0.3563  0.1710
 6743SOL     OW21127   4.740   1.255   4.376  0.0357  0.4552 -0.3404
 6743SOL    HW121128   4.722   1.159   4.394  0.2368  0.6254  0.9307
 6743SOL    HW221129   4.786   1.265   4.288  0.4986 -0.6661 -0.2423
 6744SOL     OW21130   4.087   1.262   5.768 -0.5764  0.0820  0.4704
 6744SOL    HW121131   4.054   1.173   5.801 -0.7714  0.4117  1.1904
 6744SOL    HW221132   4.140   1.249   5.684  1.6532 -1.0475  1.9679
 6745SOL     OW21133   4.325   0.142   5.978  0.0723  0.0033 -0.0689
 6745SOL    HW121134   4.289   0.235   5.975 -1.7576 -0.6870 -1.5174
 6745SOL    HW221135   4.409   0.137   5.923  0.2286  0.8219  0.0971
 6746SOL     OW21136   4.024   6.418   6.377  0.7326 -0.4253 -0.1454
 6746SOL    HW121137   4.026   6.417   6.277 -0.4623  0.8615 -0.2067
 6746SOL    HW221138   3.993   6.329   6.411  0.6104 -0.6847 -0.9232
 6747SOL     OW21139   1.961   1.683   2.129  0.0865  0.3475  0.6032
 6747SOL    HW121140   1.978   1.737   2.047 -1.0057 -1.0820 -0.6259
 6747SOL    HW221141   1.933   1.744   2.204  0.1073  1.5836 -0.3620
 6748SOL     OW21142   3.845   3.425   6.140 -0.3544 -0.7136  0.4510
 6748SOL    HW121143   3.852   3.515   6.183  1.8452 -1.0473  0.9078
 6748SOL    HW221144   3.771   3.372   6.183 -0.0569 -0.0085  1.8562
 6749SOL     OW21145   1.226   0.912   2.506 -0.4422  0.7309 -0.6867
 6749SOL    HW121146   1.139   0.935   2.550  0.5724  0.6992  1.4577
 6749SOL    HW221147   1.297   0.973   2.541  0.8036 -0.6501 -0.7385
 6750SOL     OW21148   1.910   3.603   6.100  0.2890 -0.1982 -0.1306
 6750SOL    HW121149   1.831   3.543   6.096  1.1882 -1.4106 -0.2775
 6750SOL    HW221150   1.931   3.625   6.195 -0.9723  1.2008 -0.1344
 6751SOL     OW21151   3.602   6.871   3.102 -0.1506  0.4500 -0.3543
 6751SOL    HW121152   3.614   6.931   3.023 -0.1614  0.8195 -0.0776
 6751SOL    HW221153   3.540   6.796   3.078  0.1349  0.3599 -0.8029
 6752SOL     OW21154   4.246   6.886   4.262 -0.4004 -0.4906 -0.0606
 6752SOL    HW121155   4.254   6.901   4.361  2.4120 -1.7218 -0.0056
 6752SOL    HW221156   4.255   6.788   4.243 -0.9168 -0.2672 -1.5650
 6753SOL     OW21157   5.510   1.799   4.401 -0.1921  0.3404  0.5861
 6753SOL    HW121158   5.437   1.751   4.448 -1.3822 -0.9228 -2.2851
 6753SOL    HW221159   5.473   1.847   4.321  2.0346 -0.3605 -0.9825
 6754SOL     OW21160   4.725   4.316   6.370 -0.1547 -0.4236  0.0913
 6754SOL    HW121161   4.665   4.366   6.432  1.2896  2.0151 -0.3478
 6754SOL    HW221162   4.815   4.306   6.411  0.3300 -0.2975 -0.8911
 6755SOL     OW21163   5.731   4.172   4.490  0.2320  0.9414 -0.6149
 6755SOL    HW121164   5.688   4.262   4.501 -1.6984 -0.0888  0.7782
 6755SOL    HW221165   5.777   4.147   4.576 -0.4817 -0.0052 -0.4963
 6756SOL     OW21166   1.247   0.300   2.496  0.4486  0.5505  0.0407
 6756SOL    HW121167   1.273   0.277   2.402 -0.2244 -1.0557  0.2316
 6756SOL    HW221168   1.151   0.328   2.498  0.2921 -0.0040  0.3368
 6757SOL     OW21169   2.097   1.833   3.964 -0.0876 -0.3833 -0.1474
 6757SOL    HW121170   2.178   1.791   4.004  0.2326 -0.9789 -1.3687
 6757SOL    HW221171   2.070   1.912   4.019  0.4965 -0.9902  1.0480
 6758SOL     OW21172   4.929   5.613   1.546  0.0355 -0.2352  0.4548
 6758SOL    HW121173   4.943   5.650   1.455  0.2177 -1.2211  0.0722
 6758SOL    HW221174   4.906   5.516   1.540 -1.0459 -0.0668  1.3962
 6759SOL     OW21175   1.413   6.072   0.755  0.4618 -0.4224 -0.4985
 6759SOL    HW121176   1.498   6.021   0.766  0.3751 -0.8506 -1.6848
 6759SOL    HW221177   1.339   6.009   0.735  0.0206  0.0216 -0.2827
 6760SOL     OW21178   2.615   1.242   4.744 -0.3372 -0.3599  0.7719
 6760SOL    HW121179   2.657   1.282   4.826  1.3137  2.0616 -1.0950
 6760SOL    HW221180   2.687   1.222   4.677 -1.7775 -0.6277 -0.7508
 6761SOL     OW21181   4.910   2.768   4.956  0.1928  0.5322 -0.2369
 6761SOL    HW121182   4.981   2.730   4.897  0.4715  1.5818 -0.5950
 6761SOL    HW221183   4.949   2.838   5.015 -0.2937  0.2081  0.4864
 6762SOL     OW21184   0.329   6.641   5.323  0.1749  0.0975  0.1705
 6762SOL    HW121185   0.361   6.547   5.336  0.2111  0.0681 -0.1305
 6762SOL    HW221186   0.230   6.645   5.340 -0.1119 -0.2994 -1.2621
 6763SOL     OW21187   6.954   5.526   6.370  0.6134  0.7702 -1.2155
 6763SOL    HW121188   7.024   5.594   6.392  1.8741 -0.7562 -0.2500
 6763SOL    HW221189   6.955   5.454   6.440  0.1676 -0.8628 -2.8219
 6764SOL     OW21190   3.555   2.856   3.582  0.5356  0.3964  0.4720
 6764SOL    HW121191   3.597   2.947   3.585 -0.3831  0.9672 -1.7817
 6764SOL    HW221192   3.473   2.859   3.525  0.9947 -2.0464 -0.4533
 6765SOL     OW21193   4.929   5.653   2.026  0.2439  0.5674  0.2994
 6765SOL    HW121194   5.000   5.609   1.971 -0.2573  0.1173  0.0030
 6765SOL    HW221195   4.842   5.607   2.011 -0.1344  1.1752  0.5849
 6766SOL     OW21196   2.105   6.911   0.117  0.5864  0.5709  0.0029
 6766SOL    HW121197   2.092   7.002   0.078 -1.5927  0.5636  0.5840
 6766SOL    HW221198   2.130   6.847   0.045 -0.5980  1.1059 -0.9153
 6767SOL     OW21199   0.361   1.491   0.864  0.2788  0.3621  0.1895
 6767SOL    HW121200   0.379   1.575   0.916  1.6331  0.1358  0.1472
 6767SOL    HW221201   0.341   1.514   0.769 -0.3064  0.6874  0.3920
 6768SOL     OW21202   5.720   5.974   1.930  0.0527  0.6402 -0.0545
 6768SOL    HW121203   5.678   5.993   2.018 -1.0282 -0.1423 -0.3870
 6768SOL    HW221204   5.771   6.054   1.899  0.4784  0.9086  1.2867
 6769SOL     OW21205   4.678   3.026   1.322 -0.1900 -0.3958 -0.3142
 6769SOL    HW121206   4.649   3.122   1.332 -1.4328 -0.6617 -1.1151
 6769SOL    HW221207   4.674   2.981   1.411 -3.6260 -0.7433 -0.4869
 6770SOL     OW21208   4.476   0.191   3.789  0.2063  1.0164  0.0562
 6770SOL    HW121209   4.382   0.167   3.763  0.1110 -0.5983  1.7398
 6770SOL    HW221210   4.538   0.160   3.717 -0.4119  0.8698 -0.4322
 6771SOL     OW21211   6.932   6.600   4.820 -0.0212  0.0065 -0.5671
 6771SOL    HW121212   6.884   6.651   4.892  1.9489  0.4252  0.5350
 6771SOL    HW221213   6.894   6.508   4.813 -0.9773  0.3212  0.2546
 6772SOL     OW21214   6.822   6.958   5.564 -0.1732 -0.0042  0.0078
 6772SOL    HW121215   6.915   6.987   5.587 -0.6251  0.4807  1.3324
 6772SOL    HW221216   6.821   6.859   5.548  0.9156  0.2745 -2.0345
 6773SOL     OW21217   6.236   1.158   3.454 -0.2090  0.0473 -0.1181
 6773SOL    HW121218   6.262   1.235   3.512  0.4154 -1.1199  1.1936
 6773SOL    HW221219   6.304   1.085   3.462 -2.3995 -2.0110  1.3123
 6774SOL     OW21220   1.478   2.512   1.790 -0.4050  0.1075 -0.2150
 6774SOL    HW121221   1.453   2.483   1.698  0.6987 -2.1810  0.1232
 6774SOL    HW221222   1.572   2.484   1.810 -0.6166  0.5327  1.6114
 6775SOL     OW21223   1.730   5.896   0.513  0.0295 -0.0132  0.5626
 6775SOL    HW121224   1.693   5.814   0.557 -0.6728 -1.1662 -2.0041
 6775SOL    HW221225   1.676   5.918   0.432  2.2094  0.9962 -0.7158
 6776SOL     OW21226   4.478   6.577   4.538  0.1135  0.7050  0.1862
 6776SOL    HW121227   4.491   6.559   4.635  0.8486 -0.7200 -0.1536
 6776SOL    HW221228   4.382   6.603   4.521 -0.6301 -1.3756  0.9663
 6777SOL     OW21229   3.709   1.407   4.408 -0.1875  0.5157  0.5158
 6777SOL    HW121230   3.717   1.346   4.329 -0.5335  0.1694  0.7482
 6777SOL    HW221231   3.702   1.353   4.491 -1.0470  0.8687  0.6775
 6778SOL     OW21232   1.741   0.944   6.095  0.1177 -0.3390 -0.3878
 6778SOL    HW121233   1.767   0.863   6.148  0.8045  1.2436  1.8457
 6778SOL    HW221234   1.710   1.016   6.158 -0.0139  1.3121 -2.2535
 6779SOL     OW21235   0.344   5.507   4.037 -0.2663  0.2176 -0.3186
 6779SOL    HW121236   0.269   5.565   4.004 -0.3473  0.4231  0.2079
 6779SOL    HW221237   0.347   5.512   4.137 -0.3753 -0.8193 -0.2577
 6780SOL     OW21238   1.583   2.199   6.161 -0.0225  0.1405  0.0475
 6780SOL    HW121239   1.528   2.118   6.183 -0.8135  0.6739  0.0643
 6780SOL    HW221240   1.604   2.249   6.245 -0.8213  0.7608 -0.1093
 6781SOL     OW21241   1.287   0.649   3.995  0.5365  0.0010  0.1231
 6781SOL    HW121242   1.215   0.621   4.059 -1.7570  2.6977 -1.0568
 6781SOL    HW221243   1.257   0.629   3.901  1.9093  0.0276 -0.3328
 6782SOL     OW21244   5.604   1.451   0.858 -0.1767  0.5427 -0.2128
 6782SOL    HW121245   5.511   1.426   0.832 -0.5901  0.8555  0.9247
 6782SOL    HW221246   5.667   1.380   0.826 -0.9304 -0.2465 -0.0001
 6783SOL     OW21247   4.357   4.343   5.826 -0.0524 -0.3482  0.4853
 6783SOL    HW121248   4.362   4.265   5.764  0.0464  0.1698 -0.1645
 6783SOL    HW221249   4.338   4.426   5.774  1.2650  0.2956  1.0042
 6784SOL     OW21250   4.679   6.204   4.013  0.4121 -0.4471 -0.0555
 6784SOL    HW121251   4.695   6.152   3.929  0.3832 -1.8519  0.7818
 6784SOL    HW221252   4.640   6.294   3.990 -1.8903 -1.6933 -1.4539
 6785SOL     OW21253   6.527   0.405   4.008  1.0893 -0.0887 -0.0569
 6785SOL    HW121254   6.612   0.422   4.057  1.5768  0.7846 -1.1638
 6785SOL    HW221255   6.454   0.385   4.074  1.9696 -0.1101  0.9400
 6786SOL     OW21256   1.483   6.837   1.122  0.3968 -0.4898 -0.1712
 6786SOL    HW121257   1.420   6.825   1.046 -0.5732 -2.5841  0.8909
 6786SOL    HW221258   1.474   6.930   1.158 -0.5951 -0.1250 -1.3011
 6787SOL     OW21259   5.538   0.909   6.722  0.7435 -0.3661 -0.2057
 6787SOL    HW121260   5.444   0.901   6.755  0.3410  1.7503 -0.6581
 6787SOL    HW221261   5.599   0.860   6.784 -0.4819 -0.2849  1.1296
 6788SOL     OW21262   6.371   0.541   0.482  0.0259 -0.6128  0.6076
 6788SOL    HW121263   6.290   0.510   0.532 -0.0819 -0.3523  0.5949
 6788SOL    HW221264   6.391   0.477   0.407 -1.2102  0.2509 -0.5037
 6789SOL     OW21265   3.761   2.782   6.050  0.0206 -0.3014 -0.0024
 6789SOL    HW121266   3.718   2.719   6.115 -0.1456 -0.1891 -0.0025
 6789SOL    HW221267   3.767   2.873   6.091  0.4513 -0.3636  0.0763
 6790SOL     OW21268   4.837   2.495   5.021  0.4023  0.7762 -0.6681
 6790SOL    HW121269   4.863   2.583   4.981  0.4154  0.7181 -0.7866
 6790SOL    HW221270   4.912   2.461   5.077  0.0491  1.2885  0.1346
 6791SOL     OW21271   3.910   6.598   2.108 -0.2530 -0.3588  0.2597
 6791SOL    HW121272   3.906   6.664   2.033 -0.6327  1.7464  2.0576
 6791SOL    HW221273   3.862   6.634   2.188  1.4943 -1.7963  2.0751
 6792SOL     OW21274   5.251   1.241   1.405 -0.5809  0.2911 -0.1937
 6792SOL    HW121275   5.179   1.297   1.365  0.3151  0.2255 -2.0180
 6792SOL    HW221276   5.339   1.289   1.397 -0.1400 -0.4172  0.2743
 6793SOL     OW21277   3.803   1.364   1.718  0.2488  0.3370 -0.2185
 6793SOL    HW121278   3.821   1.375   1.620 -0.9654 -3.1651 -0.9641
 6793SOL    HW221279   3.881   1.400   1.770  2.2481 -0.2654 -2.5765
 6794SOL     OW21280   3.496   6.106   0.223 -0.3654 -0.1105  0.1989
 6794SOL    HW121281   3.438   6.120   0.303 -1.1158  2.1569 -0.6813
 6794SOL    HW221282   3.439   6.086   0.143 -0.0722  2.4624 -0.7477
 6795SOL     OW21283   0.416   2.731   6.163 -0.0898 -0.0275  0.4272
 6795SOL    HW121284   0.363   2.805   6.122 -0.3615  0.0541  0.9086
 6795SOL    HW221285   0.462   2.678   6.092 -0.4428  0.1904  0.0355
 6796SOL     OW21286   5.605   2.634   2.066 -0.1509  0.0897 -0.4147
 6796SOL    HW121287   5.527   2.585   2.104 -0.7138  2.0684  1.2061
 6796SOL    HW221288   5.686   2.616   2.122 -0.5815  1.6580  0.7858
 6797SOL     OW21289   2.584   5.150   6.359  0.1456  0.5111 -0.1623
 6797SOL    HW121290   2.676   5.145   6.319 -0.3929  0.0275 -1.3905
 6797SOL    HW221291   2.532   5.069   6.332 -0.3901  0.3736  1.2113
 6798SOL     OW21292   4.971   3.409   4.975 -0.3312  0.0484  0.2625
 6798SOL    HW121293   5.063   3.446   4.965 -0.5032  0.4828  0.2849
 6798SOL    HW221294   4.903   3.480   4.956 -0.6642 -0.3070  0.1033
 6799SOL     OW21295   6.644   6.038   1.420 -0.1179  0.0874  0.4054
 6799SOL    HW121296   6.575   5.972   1.391  1.6948 -1.9873  0.5598
 6799SOL    HW221297   6.643   6.046   1.520 -0.6793  0.6942  0.3528
 6800SOL     OW21298   4.860   0.329   1.711  0.7694  0.3114  0.2653
 6800SOL    HW121299   4.913   0.383   1.776 -0.9429  0.2508  1.7839
 6800SOL    HW221300   4.766   0.363   1.708  0.6709 -0.0047 -1.8548
 6801SOL     OW21301   1.697   1.871   2.192  0.3322 -0.2781  0.1631
 6801SOL    HW121302   1.697   1.817   2.108 -0.4271 -0.5874  0.3545
 6801SOL    HW221303   1.788   1.908   2.208  0.3064  0.4295 -1.2047
 6802SOL     OW21304   2.549   6.866   2.527 -0.0635 -0.2903  0.8656
 6802SOL    HW121305   2.552   6.907   2.618 -0.7887  0.6675  0.4773
 6802SOL    HW221306   2.502   6.778   2.531 -3.3455  1.3271  0.8910
 6803SOL     OW21307   6.427   0.365   0.285 -0.1934 -0.4384  0.1400
 6803SOL    HW121308   6.449   0.387   0.191 -1.1966 -2.0466 -0.5258
 6803SOL    HW221309   6.442   0.267   0.301  0.0400 -0.1844  1.6790
 6804SOL     OW21310   3.874   5.197   1.926 -0.2776  0.4083 -0.2141
 6804SOL    HW121311   3.838   5.103   1.929  0.0832  0.2650 -0.3884
 6804SOL    HW221312   3.889   5.229   2.020 -1.7279  0.8107 -0.0864
 6805SOL     OW21313   1.909   4.668   6.048 -0.3504 -0.6892  0.3690
 6805SOL    HW121314   1.937   4.682   6.143 -0.8167  0.3889  0.3685
 6805SOL    HW221315   1.989   4.670   5.989 -0.2352  0.7333  0.5353
 6806SOL     OW21316   0.032   0.536   3.174  0.1881 -0.1534  0.2666
 6806SOL    HW121317   0.088   0.458   3.147 -0.1536 -0.6860  1.0566
 6806SOL    HW221318   0.030   0.603   3.100 -2.5804 -2.5364 -2.0023
 6807SOL     OW21319   4.709   5.945   5.888 -0.3593  0.1419 -0.2793
 6807SOL    HW121320   4.617   5.924   5.918 -0.6160 -0.7927 -1.6717
 6807SOL    HW221321   4.772   5.936   5.965 -1.0334 -1.9003  0.0783
 6808SOL     OW21322   3.449   2.098   5.002  0.1211  0.5187 -0.1484
 6808SOL    HW121323   3.436   2.180   5.058 -1.1530 -0.2672  0.7734
 6808SOL    HW221324   3.519   2.040   5.043  1.1443  1.1872 -0.8922
 6809SOL     OW21325   0.938   4.396   5.108  0.0578 -0.1711  0.2641
 6809SOL    HW121326   0.916   4.316   5.163  1.1331 -1.0801 -0.5584
 6809SOL    HW221327   0.875   4.402   5.031  0.3643 -0.6178 -0.0288
 6810SOL     OW21328   6.190   1.249   2.048  0.4549  0.0596 -0.5817
 6810SOL    HW121329   6.282   1.277   2.022  1.5065 -1.5730  1.1698
 6810SOL    HW221330   6.175   1.153   2.022 -0.9809  0.4458 -1.3313
 6811SOL     OW21331   3.207   3.917   6.634  0.6571 -0.2483 -0.6790
 6811SOL    HW121332   3.253   4.005   6.642  1.1457 -0.4815 -0.8642
 6811SOL    HW221333   3.110   3.931   6.614  1.0197  0.2368 -2.2451
 6812SOL     OW21334   2.836   2.425   0.785  0.6134  0.4133  0.1877
 6812SOL    HW121335   2.839   2.513   0.832  0.6704  0.0557  0.8749
 6812SOL    HW221336   2.821   2.352   0.852  1.5281 -0.1906 -0.2331
 6813SOL     OW21337   1.138   0.077   4.806  0.5525 -0.0705 -0.1713
 6813SOL    HW121338   1.124   0.155   4.744 -0.5322 -1.5746 -1.9378
 6813SOL    HW221339   1.234   0.071   4.831  0.4452  2.7716  1.3903
 6814SOL     OW21340   5.052   5.090   5.934  0.1039 -0.5616 -0.1337
 6814SOL    HW121341   5.133   5.120   5.984  1.3621 -1.4696 -1.5667
 6814SOL    HW221342   4.992   5.169   5.919  0.2979 -0.0266  1.6306
 6815SOL     OW21343   3.911   4.227   0.535  0.2143  0.5757 -0.2699
 6815SOL    HW121344   3.987   4.213   0.598  0.5306 -1.0928 -0.9789
 6815SOL    HW221345   3.847   4.293   0.575  0.9735  0.4329  1.2692
 6816SOL     OW21346   4.449   6.561   4.852  0.2713  0.0203 -0.0994
 6816SOL    HW121347   4.470   6.636   4.913 -0.3889  1.0869 -1.1383
 6816SOL    HW221348   4.353   6.566   4.824 -0.0460 -1.7517  0.5215
 6817SOL     OW21349   3.559   1.039   2.499 -0.1978 -0.4440  0.1114
 6817SOL    HW121350   3.611   1.121   2.523 -0.1957 -0.5390  0.4362
 6817SOL    HW221351   3.548   1.034   2.400 -0.0304 -0.1532  0.0779
 6818SOL     OW21352   0.489   6.891   1.127 -0.0580 -0.0956  0.0699
 6818SOL    HW121353   0.517   6.870   1.033 -0.7957 -0.0192 -0.1750
 6818SOL    HW221354   0.454   6.985   1.132  0.1257 -0.0466  0.4525
 6819SOL     OW21355   1.940   3.565   0.830 -0.2676  0.5728 -0.5941
 6819SOL    HW121356   2.000   3.627   0.881 -1.1008  2.0747 -1.3925
 6819SOL    HW221357   1.971   3.559   0.735 -0.2598 -0.1510 -0.5472
 6820SOL     OW21358   4.530   5.407   1.610  0.1352 -0.4817  0.2266
 6820SOL    HW121359   4.449   5.429   1.665  0.3747 -0.1677  0.4563
 6820SOL    HW221360   4.501   5.372   1.521 -0.2915  1.9273 -0.6452
 6821SOL     OW21361   2.012   0.337   0.222  0.9188  0.1782 -0.1099
 6821SOL    HW121362   2.085   0.377   0.279 -0.6729  0.1542  2.0629
 6821SOL    HW221363   1.989   0.247   0.258 -0.8397  0.5958 -0.1205
 6822SOL     OW21364   3.742   3.767   4.544 -0.0518  0.1407 -0.4987
 6822SOL    HW121365   3.730   3.851   4.491 -0.9887  0.9041  0.8425
 6822SOL    HW221366   3.653   3.735   4.576  0.5409  0.6669  1.9628
 6823SOL     OW21367   6.226   0.340   5.209  0.0371 -0.6197  0.8555
 6823SOL    HW121368   6.300   0.392   5.251 -0.1472 -0.1210  0.5731
 6823SOL    HW221369   6.202   0.262   5.267  2.8051 -2.5887 -0.4209
 6824SOL     OW21370   3.405   6.323   4.443  0.4931  0.1999 -1.0705
 6824SOL    HW121371   3.365   6.256   4.506 -1.6350  1.5434 -0.8657
 6824SOL    HW221372   3.415   6.282   4.353  2.2339 -1.3160 -0.2291
 6825SOL     OW21373   2.231   2.551   5.850  0.5275  0.0122 -0.5627
 6825SOL    HW121374   2.251   2.453   5.853  1.0723  0.0967 -1.2227
 6825SOL    HW221375   2.260   2.594   5.935  0.5481 -0.3523 -0.3843
 6826SOL     OW21376   4.837   5.935   6.122 -0.0953  0.2229 -0.1451
 6826SOL    HW121377   4.833   5.856   6.184  0.4734 -0.3749 -0.8550
 6826SOL    HW221378   4.913   5.994   6.150  0.9119 -0.6505 -0.9500
 6827SOL     OW21379   1.981   1.714   5.868 -0.6463  0.2758 -0.1311
 6827SOL    HW121380   1.964   1.679   5.776  0.3239 -0.0195 -0.2082
 6827SOL    HW221381   1.934   1.656   5.935  1.6838 -1.8268 -0.1840
 6828SOL     OW21382   2.608   4.506   5.251 -0.6822  0.0052 -0.0247
 6828SOL    HW121383   2.706   4.512   5.236 -0.7102 -0.6366 -0.5137
 6828SOL    HW221384   2.576   4.589   5.298  0.2600 -0.2691  1.1453
 6829SOL     OW21385   3.341   1.803   3.607  0.3680 -0.4758  0.2733
 6829SOL    HW121386   3.311   1.724   3.661 -0.2548 -0.8044 -0.5456
 6829SOL    HW221387   3.264   1.865   3.593  0.8915  0.3895  1.0674
 6830SOL     OW21388   0.981   4.350   5.746  0.3100  0.8461  0.1779
 6830SOL    HW121389   0.990   4.312   5.654 -1.0123 -0.8300  0.6815
 6830SOL    HW221390   0.949   4.445   5.740 -1.9903  0.0795 -1.1390
 6831SOL     OW21391   4.083   1.011   1.265 -0.8348 -0.3662  0.0126
 6831SOL    HW121392   4.038   1.058   1.341 -0.6331  2.0435 -1.2692
 6831SOL    HW221393   4.109   0.919   1.294 -2.1929 -0.1113  2.3189
 6832SOL     OW21394   2.887   0.556   2.882 -0.4865 -0.0170 -0.1526
 6832SOL    HW121395   2.853   0.479   2.935 -0.1490  0.3059  0.5504
 6832SOL    HW221396   2.850   0.552   2.789 -0.4702 -1.0150 -0.1243
 6833SOL     OW21397   2.585   4.676   5.022 -0.1253  0.3130 -0.2119
 6833SOL    HW121398   2.672   4.653   4.978 -1.7179 -1.8752 -2.5085
 6833SOL    HW221399   2.576   4.623   5.107  0.1762 -0.6140 -0.7352
 6834SOL     OW21400   4.770   5.495   3.209  0.6785 -0.2242  0.3769
 6834SOL    HW121401   4.755   5.556   3.286  2.0156 -0.9165  1.2326
 6834SOL    HW221402   4.832   5.539   3.144 -1.8777  1.1254 -1.3100
 6835SOL     OW21403   6.610   2.005   3.435 -0.0340  0.4167 -0.5995
 6835SOL    HW121404   6.528   1.949   3.443  0.1783  0.4217  2.7871
 6835SOL    HW221405   6.687   1.958   3.479  1.0448  1.7665 -0.9788
 6836SOL     OW21406   1.152   5.097   0.645 -0.0864  0.2499 -0.2958
 6836SOL    HW121407   1.195   5.056   0.725  1.1191  0.4257 -0.8283
 6836SOL    HW221408   1.196   5.185   0.626  0.2058 -0.1669 -1.6197
 6837SOL     OW21409   2.100   4.274   6.209  0.7784  0.4140 -0.0396
 6837SOL    HW121410   2.179   4.255   6.267  1.1233  1.2330 -0.2162
 6837SOL    HW221411   2.026   4.313   6.265  0.5242 -0.2718  0.1107
 6838SOL     OW21412   0.018   6.010   5.803  0.5753  0.2519  0.0225
 6838SOL    HW121413   0.089   6.080   5.805  1.1214 -0.2070 -1.6169
 6838SOL    HW221414   0.060   5.920   5.817  0.1520  0.0793  0.1852
 6839SOL     OW21415   6.689   2.830   6.390 -0.1658 -0.6739 -0.2150
 6839SOL    HW121416   6.756   2.903   6.401 -1.8207  1.3043 -2.3487
 6839SOL    HW221417   6.717   2.750   6.443  1.0783  1.8952  3.3130
 6840SOL     OW21418   4.923   3.116   2.508 -0.0354 -0.3364 -0.2894
 6840SOL    HW121419   4.988   3.051   2.467  1.1061  0.2001  0.6238
 6840SOL    HW221420   4.883   3.172   2.435  0.9462 -0.3005 -0.8169
 6841SOL     OW21421   4.892   4.272   4.181  0.0454 -0.4139 -0.4485
 6841SOL    HW121422   4.875   4.351   4.240 -2.1842  0.9657 -2.7509
 6841SOL    HW221423   4.844   4.192   4.219 -0.3591  0.1304  0.2274
 6842SOL     OW21424   5.250   0.121   4.012 -0.2989 -0.1621 -0.0467
 6842SOL    HW121425   5.188   0.129   3.934  0.0424 -0.4465 -0.3480
 6842SOL    HW221426   5.197   0.107   4.096 -0.7742  1.7996  0.0301
 6843SOL     OW21427   0.147   4.525   0.254  0.1609  0.2967  0.0070
 6843SOL    HW121428   0.059   4.572   0.246  0.2657  0.4300 -0.4101
 6843SOL    HW221429   0.193   4.525   0.165 -0.0167 -0.9422 -0.1098
 6844SOL     OW21430   3.462   5.396   4.543 -0.5644  0.8496 -0.3815
 6844SOL    HW121431   3.551   5.435   4.564 -0.0594 -0.5741  0.3284
 6844SOL    HW221432   3.400   5.412   4.620 -0.0823 -0.4499  0.3187
 6845SOL     OW21433   0.775   4.912   1.164  0.2903  0.8800  0.0271
 6845SOL    HW121434   0.836   4.952   1.095  1.4614 -0.9492 -0.0671
 6845SOL    HW221435   0.823   4.839   1.212 -1.0636  1.0158  1.6585
 6846SOL     OW21436   2.453   4.078   1.674  0.5463  0.2489 -0.8395
 6846SOL    HW121437   2.483   4.166   1.713  0.6839 -0.1650  0.0179
 6846SOL    HW221438   2.532   4.028   1.639  1.1661 -1.3658  2.4899
 6847SOL     OW21439   4.638   0.141   3.462 -0.1513  0.2577  0.0994
 6847SOL    HW121440   4.641   0.131   3.363  0.4092  1.7762 -0.0576
 6847SOL    HW221441   4.573   0.076   3.500 -1.5927  0.7591 -1.4213
 6848SOL     OW21442   3.726   5.375   0.491 -0.2955  0.4013  0.0282
 6848SOL    HW121443   3.680   5.301   0.540 -1.6217  1.2515  0.1255
 6848SOL    HW221444   3.825   5.363   0.498 -0.4799 -0.9451  0.6617
 6849SOL     OW21445   3.159   3.062   3.811 -0.4807  0.6942  0.1355
 6849SOL    HW121446   3.213   2.990   3.854  0.5272  0.8531 -0.7813
 6849SOL    HW221447   3.213   3.103   3.737 -2.0982  0.4593 -1.2391
 6850SOL     OW21448   1.466   6.471   0.927  0.1240  0.1647  0.3731
 6850SOL    HW121449   1.394   6.540   0.921 -1.3737 -1.4467 -1.0841
 6850SOL    HW221450   1.494   6.443   0.836  0.0849 -1.7592  0.9128
 6851SOL     OW21451   0.040   3.378   5.962 -0.0025 -0.2207 -0.0540
 6851SOL    HW121452   0.132   3.410   5.986 -0.5225  0.6554  0.8277
 6851SOL    HW221453  -0.008   3.351   6.045 -1.0940  0.8452 -0.3090
 6852SOL     OW21454   0.294   2.414   3.912  0.0547 -0.0767 -0.1746
 6852SOL    HW121455   0.206   2.367   3.910  0.3177 -0.5581 -0.8032
 6852SOL    HW221456   0.316   2.442   4.006 -0.6349 -0.1957  0.0222
 6853SOL     OW21457   1.430   2.196   3.563 -0.8132 -0.5067 -0.3273
 6853SOL    HW121458   1.435   2.115   3.621 -2.0627 -0.7500 -0.5380
 6853SOL    HW221459   1.480   2.272   3.606  1.3045 -1.6533 -0.6316
 6854SOL     OW21460   1.750   3.838   4.379  0.0793  0.0530  0.1586
 6854SOL    HW121461   1.656   3.838   4.413 -0.7722 -1.2497 -1.9835
 6854SOL    HW221462   1.757   3.901   4.301  1.2902  0.9615  0.9672
 6855SOL     OW21463   6.544   1.857   4.621 -0.0341 -0.5753  0.2429
 6855SOL    HW121464   6.602   1.826   4.697 -0.0462 -0.6831  0.2089
 6855SOL    HW221465   6.587   1.936   4.576 -0.0054 -0.5394  0.3331
 6856SOL     OW21466   3.514   5.661   0.820  0.3122  0.0460  0.0654
 6856SOL    HW121467   3.555   5.719   0.890  3.4865  0.2760 -1.8191
 6856SOL    HW221468   3.560   5.572   0.818 -1.5520 -0.9670  0.0151
 6857SOL     OW21469   1.234   0.468   0.877 -0.0138  0.0437  0.0698
 6857SOL    HW121470   1.177   0.548   0.858 -1.1138 -0.6103  0.5379
 6857SOL    HW221471   1.309   0.463   0.810  0.5189  1.8675  0.4794
 6858SOL     OW21472   5.719   0.821   4.214  0.2330  0.0131 -0.3113
 6858SOL    HW121473   5.809   0.853   4.185 -0.0496  0.2919 -0.8927
 6858SOL    HW221474   5.722   0.721   4.227  0.6243  0.0223 -0.3187
 6859SOL     OW21475   5.141   4.000   1.510  0.2248 -0.0536 -0.2420
 6859SOL    HW121476   5.072   3.948   1.459 -2.2465 -0.2790  2.9718
 6859SOL    HW221477   5.176   3.943   1.585  1.2821  1.2710  0.3105
 6860SOL     OW21478   3.396   1.959   5.295 -0.5289 -0.2087  0.3151
 6860SOL    HW121479   3.363   1.875   5.251 -0.2577 -0.0272 -0.2465
 6860SOL    HW221480   3.496   1.958   5.298 -0.3437  1.3807 -2.3825
 6861SOL     OW21481   5.449   1.957   4.146  0.1865  0.0384 -0.0765
 6861SOL    HW121482   5.364   1.994   4.185  0.6850  0.2761  0.8176
 6861SOL    HW221483   5.448   1.969   4.047 -0.1587  1.4524  0.0762
 6862SOL     OW21484   1.307   3.929   6.891 -0.5851 -0.0885 -0.0450
 6862SOL    HW121485   1.330   3.851   6.834  0.1253  0.6771 -0.8161
 6862SOL    HW221486   1.387   3.957   6.944 -0.8983 -0.0068  0.3961
 6863SOL     OW21487   6.334   0.585   5.115  0.5996  0.8070 -0.0212
 6863SOL    HW121488   6.241   0.572   5.148 -0.0800  0.7010 -1.8655
 6863SOL    HW221489   6.390   0.623   5.188 -0.3453 -1.0564  1.7734
 6864SOL     OW21490   0.097   4.788   5.906 -0.0098  0.4002  0.7820
 6864SOL    HW121491   0.129   4.848   5.833 -2.1736 -0.5048 -1.0185
 6864SOL    HW221492   0.149   4.703   5.904 -0.2563  0.2588  0.0775
 6865SOL     OW21493   6.246   3.174   2.746 -0.7663 -0.1031  0.4724
 6865SOL    HW121494   6.275   3.145   2.837  1.2904  1.6528  0.4447
 6865SOL    HW221495   6.260   3.100   2.681 -0.9463 -0.9044  1.3252
 6866SOL     OW21496   2.138   2.804   1.559 -0.0917  0.3425 -0.3153
 6866SOL    HW121497   2.208   2.733   1.549  0.4749  0.9455 -0.8025
 6866SOL    HW221498   2.171   2.874   1.623 -2.1965 -1.6565  3.2650
 6867SOL     OW21499   5.193   3.570   2.730  0.4702 -0.0014 -0.2101
 6867SOL    HW121500   5.248   3.630   2.671  0.4550  0.2091 -0.0098
 6867SOL    HW221501   5.106   3.615   2.750  0.4453 -0.1058 -0.0869
 6868SOL     OW21502   4.693   1.024   3.543 -0.6715 -0.3868 -0.9083
 6868SOL    HW121503   4.624   1.093   3.522 -1.7048 -1.3222 -0.7130
 6868SOL    HW221504   4.716   0.974   3.459  0.2758  0.3592 -1.1030
 6869SOL     OW21505   0.696   5.307   6.141 -0.5441 -0.0710  0.1620
 6869SOL    HW121506   0.755   5.385   6.162 -0.5916 -0.1099  0.4518
 6869SOL    HW221507   0.712   5.235   6.208 -0.0507 -0.5559 -0.4741
 6870SOL     OW21508   4.095   5.028   3.696 -0.1292  0.1775  0.3661
 6870SOL    HW121509   4.011   5.081   3.706  0.3717  1.0764 -0.1281
 6870SOL    HW221510   4.114   4.981   3.782  0.4685  2.3814  1.5116
 6871SOL     OW21511   0.921   4.567   3.038 -0.4738 -0.1311 -0.3528
 6871SOL    HW121512   0.971   4.513   2.970  0.0039  0.6121 -0.6008
 6871SOL    HW221513   0.970   4.652   3.055  0.2340 -0.9201  1.9933
 6872SOL     OW21514   3.429   3.873   5.583 -0.6555  0.5291 -0.6928
 6872SOL    HW121515   3.420   3.931   5.663 -1.0333 -1.2450  0.6273
 6872SOL    HW221516   3.341   3.869   5.534 -1.2231 -0.4188  0.3394
 6873SOL     OW21517   3.135   2.080   5.971  0.0555 -0.4850  0.2374
 6873SOL    HW121518   3.143   2.142   6.049 -1.3883  0.2769 -0.1886
 6873SOL    HW221519   3.062   2.111   5.910 -0.0944 -2.0932 -0.4751
 6874SOL     OW21520   2.060   2.798   0.810 -0.0306  0.2006  0.4323
 6874SOL    HW121521   2.071   2.878   0.870 -1.0421  0.1998  0.6363
 6874SOL    HW221522   2.108   2.720   0.850  2.1185  0.9965 -0.4302
 6875SOL     OW21523   5.868   4.820   6.294  0.1457 -0.2046 -0.0975
 6875SOL    HW121524   5.915   4.732   6.296 -0.3537 -0.4902 -0.6784
 6875SOL    HW221525   5.774   4.807   6.263  0.2934  0.6275 -0.9310
 6876SOL     OW21526   0.079   6.787   5.122  0.0380  0.0829 -0.0177
 6876SOL    HW121527   0.166   6.834   5.135  0.3792 -0.6007  0.2195
 6876SOL    HW221528   0.009   6.853   5.095  0.3390  0.8332  0.9930
 6877SOL     OW21529   5.765   0.399   3.326 -0.3478  0.3110  0.0104
 6877SOL    HW121530   5.731   0.368   3.415 -0.0069  1.2553  0.4950
 6877SOL    HW221531   5.797   0.494   3.335 -0.1603  0.3597 -1.0873
 6878SOL     OW21532   6.543   4.496   4.054  0.0544 -0.8387 -0.2599
 6878SOL    HW121533   6.584   4.581   4.086  0.5060 -1.5094  1.0431
 6878SOL    HW221534   6.453   4.485   4.098 -1.5547  0.5352 -2.9534
 6879SOL     OW21535   3.824   6.571   0.912  0.3713 -0.1004 -0.3075
 6879SOL    HW121536   3.787   6.601   1.000 -1.5898 -1.0189 -0.7735
 6879SOL    HW221537   3.830   6.471   0.911 -0.3895 -0.1468 -1.4931
 6880SOL     OW21538   2.411   6.673   2.935  0.2957  0.0858 -0.4838
 6880SOL    HW121539   2.495   6.680   2.880  0.3412 -1.5400 -0.6785
 6880SOL    HW221540   2.436   6.659   3.031  0.2978 -1.6826 -0.7155
 6881SOL     OW21541   1.515   2.340   0.934 -0.4512  0.0393  0.4364
 6881SOL    HW121542   1.603   2.293   0.940  0.7242  1.9389 -0.8931
 6881SOL    HW221543   1.518   2.424   0.988 -1.0893  0.6445 -0.4467
 6882SOL     OW21544   0.758   1.582   2.724  0.7008  0.4957  0.1869
 6882SOL    HW121545   0.828   1.654   2.723  1.0048  0.3677  3.2401
 6882SOL    HW221546   0.751   1.543   2.816 -1.8872 -1.0391 -0.5484
 6883SOL     OW21547   5.802   5.996   5.282 -0.0101  0.9054  0.0868
 6883SOL    HW121548   5.752   6.081   5.265 -0.1130  0.7348 -0.4963
 6883SOL    HW221549   5.895   6.006   5.246  0.1325  0.9465  0.4667
 6884SOL     OW21550   5.523   4.621   5.278 -0.3100 -0.6446 -0.0866
 6884SOL    HW121551   5.606   4.575   5.247 -0.5787 -1.9280  1.0137
 6884SOL    HW221552   5.443   4.573   5.242 -0.6138  0.4723 -0.9857
 6885SOL     OW21553   4.255   4.451   0.468  0.0156 -0.0924  0.3036
 6885SOL    HW121554   4.256   4.384   0.542  1.9204 -2.7345 -1.9508
 6885SOL    HW221555   4.179   4.432   0.406 -1.0372  1.5707  0.9943
 6886SOL     OW21556   3.856   1.065   5.500  0.4903 -0.2792 -0.2577
 6886SOL    HW121557   3.866   0.973   5.539  1.0798 -0.4782 -0.8582
 6886SOL    HW221558   3.947   1.105   5.487  0.2333  0.4264  0.0809
 6887SOL     OW21559   4.220   3.830   6.177  0.0246  0.3036  0.2841
 6887SOL    HW121560   4.313   3.848   6.211 -0.2149  1.3338  0.4433
 6887SOL    HW221561   4.154   3.867   6.243 -0.4947 -0.2826  0.0910
 6888SOL     OW21562   4.066   3.201   4.320 -0.1869  0.0326  0.3473
 6888SOL    HW121563   4.028   3.234   4.407 -1.0353 -1.4480  0.5743
 6888SOL    HW221564   4.117   3.275   4.276 -1.0107  1.2674  1.3800
 6889SOL     OW21565   0.077   4.843   4.476  0.4456 -0.1650  0.0321
 6889SOL    HW121566   0.038   4.809   4.562  1.3307 -0.7318  0.2257
 6889SOL    HW221567   0.150   4.908   4.497 -0.8619  1.4572 -0.3333
 6890SOL     OW21568   5.515   0.371   1.218 -0.5474 -0.0771  0.1238
 6890SOL    HW121569   5.604   0.384   1.175 -0.2694 -0.9731  0.4035
 6890SOL    HW221570   5.513   0.283   1.266 -0.9181  0.7713  1.7567
 6891SOL     OW21571   0.846   0.542   1.091  0.4579  0.1934  0.2340
 6891SOL    HW121572   0.868   0.444   1.088 -0.7831 -0.1476  1.3093
 6891SOL    HW221573   0.766   0.559   1.033 -0.9126  0.0638  1.9773
 6892SOL     OW21574   3.551   0.973   5.827 -0.0509 -0.3261 -0.1220
 6892SOL    HW121575   3.500   0.907   5.772  1.0395 -1.2126 -0.0998
 6892SOL    HW221576   3.489   1.014   5.895 -0.8744 -0.8996 -0.5078
 6893SOL     OW21577   6.653   6.342   5.363 -0.2037  0.1741 -0.1143
 6893SOL    HW121578   6.701   6.258   5.387 -2.2451 -0.5317  1.9099
 6893SOL    HW221579   6.634   6.343   5.265  0.3858 -1.4453 -0.2696
 6894SOL     OW21580   6.825   0.620   2.395 -0.1604 -0.3583  0.1718
 6894SOL    HW121581   6.850   0.571   2.311  1.0706 -0.1096  0.3820
 6894SOL    HW221582   6.727   0.638   2.394 -0.8896 -3.6387  0.5024
 6895SOL     OW21583   4.314   1.869   1.859  0.1645 -0.6228 -0.1372
 6895SOL    HW121584   4.308   1.801   1.786  2.4723  1.7220 -2.7488
 6895SOL    HW221585   4.406   1.869   1.897 -0.2791 -0.0325  0.9886
 6896SOL     OW21586   1.559   1.947   0.940 -0.0041 -0.6073 -0.1989
 6896SOL    HW121587   1.620   1.886   0.989  1.4911  0.6594 -0.4014
 6896SOL    HW221588   1.609   2.028   0.910 -1.4862 -0.1199 -1.5350
 6897SOL     OW21589   0.825   2.542   4.083 -0.2300  0.3409 -0.5036
 6897SOL    HW121590   0.873   2.628   4.101  0.8852 -0.2496 -0.5440
 6897SOL    HW221591   0.843   2.478   4.157  1.6453 -0.9635 -1.9918
 6898SOL     OW21592   4.919   0.709   5.836 -0.0454 -0.7234  0.5965
 6898SOL    HW121593   4.967   0.654   5.904  2.4784 -1.3139 -1.5045
 6898SOL    HW221594   4.981   0.777   5.798 -2.1106  1.2992  0.6129
 6899SOL     OW21595   5.839   6.356   2.676  0.3595 -0.2921  0.6421
 6899SOL    HW121596   5.874   6.441   2.714  0.1459  0.1941 -0.2222
 6899SOL    HW221597   5.908   6.317   2.614  0.3947 -0.6666  0.9152
 6900SOL     OW21598   2.310   6.590   6.619  0.1711  0.2386  0.3999
 6900SOL    HW121599   2.247   6.517   6.594  1.0836 -0.4350  0.0084
 6900SOL    HW221600   2.259   6.674   6.635 -0.8220 -0.2959  0.1160
 6901SOL     OW21601   3.636   4.999   4.312  0.6223 -0.4848 -0.2050
 6901SOL    HW121602   3.599   5.061   4.381  2.0392  0.1183  0.0574
 6901SOL    HW221603   3.566   4.980   4.243 -0.0188  1.0054 -0.0127
 6902SOL     OW21604   6.449   0.980   3.460  0.0676  0.3395  0.0941
 6902SOL    HW121605   6.539   1.015   3.484 -0.1673  0.4512  0.8216
 6902SOL    HW221606   6.458   0.885   3.430  0.5517  0.6536 -0.8140
 6903SOL     OW21607   5.155   0.178   2.366 -0.3062 -0.3795 -0.5305
 6903SOL    HW121608   5.213   0.113   2.316  0.3374 -0.6112  0.4913
 6903SOL    HW221609   5.119   0.246   2.302 -0.8486 -1.6213 -1.5837
 6904SOL     OW21610   4.739   6.437   5.525 -0.4606  0.0705 -0.2111
 6904SOL    HW121611   4.727   6.487   5.611 -1.1307 -1.3151  0.5273
 6904SOL    HW221612   4.837   6.427   5.507 -0.3106  1.4748 -0.2949
 6905SOL     OW21613   3.879   4.872   2.007  0.6879  0.1887 -0.4005
 6905SOL    HW121614   3.893   4.913   2.097  0.9521 -0.7659  0.0028
 6905SOL    HW221615   3.788   4.830   2.004 -0.2247  2.1223 -1.3459
 6906SOL     OW21616   4.784   4.910   1.064  0.4520  0.3958 -0.0127
 6906SOL    HW121617   4.849   4.979   1.096  0.5395  0.7342 -0.9141
 6906SOL    HW221618   4.697   4.921   1.113  0.6236  0.8198  0.1984
 6907SOL     OW21619   1.126   5.929   1.191 -0.0633 -0.5729 -0.7089
 6907SOL    HW121620   1.165   5.840   1.166  1.1904 -0.7465  1.6159
 6907SOL    HW221621   1.201   5.993   1.212 -0.9802  0.4451 -0.4572
 6908SOL     OW21622   0.627   4.420   0.621  0.5396  0.2433  0.0971
 6908SOL    HW121623   0.564   4.386   0.551  1.3406 -1.7323  0.2792
 6908SOL    HW221624   0.590   4.399   0.712  0.4832  0.9693  0.2503
 6909SOL     OW21625   1.555   3.346   1.364 -0.4662  0.1753  0.3527
 6909SOL    HW121626   1.537   3.438   1.330  0.4051 -0.5009 -2.1561
 6909SOL    HW221627   1.653   3.330   1.368 -0.6110 -0.8102  0.2699
 6910SOL     OW21628   5.851   2.646   2.873 -0.5242  0.1449  0.1377
 6910SOL    HW121629   5.805   2.591   2.942  1.9392 -0.1917  1.6625
 6910SOL    HW221630   5.881   2.587   2.798 -0.2240 -0.1450  0.4764
 6911SOL     OW21631   3.924   3.573   1.717  0.2891 -0.0782 -0.4355
 6911SOL    HW121632   3.883   3.560   1.627 -0.9985  0.9849 -0.0452
 6911SOL    HW221633   3.851   3.580   1.786  1.2618 -1.5936  0.8171
 6912SOL     OW21634   4.248   6.865   3.340 -0.0466  0.7579  1.1046
 6912SOL    HW121635   4.292   6.779   3.367 -1.4354  0.0586  1.2109
 6912SOL    HW221636   4.198   6.852   3.254 -0.1300  1.5111  1.0288
 6913SOL     OW21637   0.534   2.744   5.691 -0.1805 -0.6382  0.1238
 6913SOL    HW121638   0.580   2.725   5.604  0.6754  0.3006  0.3512
 6913SOL    HW221639   0.603   2.767   5.760 -0.9545  0.1814  0.6409
 6914SOL     OW21640   2.682   6.862   1.706  0.0201  0.0625 -0.1360
 6914SOL    HW121641   2.609   6.852   1.638  0.5100 -0.0715 -0.6510
 6914SOL    HW221642   2.644   6.849   1.797 -0.7534  0.7634 -0.3408
 6915SOL     OW21643   6.914   2.005   4.646  0.0993 -0.5698  0.1081
 6915SOL    HW121644   6.953   1.958   4.567 -1.0046  0.5068 -1.1291
 6915SOL    HW221645   6.825   2.043   4.622 -0.4475 -0.5404  2.0045
 6916SOL     OW21646   0.987   3.666   6.369  0.2238 -0.3745  0.7351
 6916SOL    HW121647   1.059   3.643   6.303 -0.8523 -2.0065  0.0865
 6916SOL    HW221648   0.953   3.583   6.413 -0.0445  0.5514  2.3600
 6917SOL     OW21649   5.537   6.970   2.952  0.2373 -0.2253  0.2741
 6917SOL    HW121650   5.440   6.955   2.934  0.3370 -0.0438 -0.4239
 6917SOL    HW221651   5.583   7.000   2.868  0.5334  1.4574  0.9961
 6918SOL     OW21652   1.552   4.783   6.132  0.0964  0.4547 -0.3334
 6918SOL    HW121653   1.612   4.835   6.194 -1.2766 -0.2105  1.6722
 6918SOL    HW221654   1.592   4.693   6.116 -0.8236 -0.4676  2.0181
 6919SOL     OW21655   4.728   0.152   0.145 -0.3475  0.1299 -0.2653
 6919SOL    HW121656   4.653   0.110   0.195  0.0595 -1.5843 -1.0186
 6919SOL    HW221657   4.812   0.099   0.159  0.3771  1.1396 -0.6501
 6920SOL     OW21658   2.962   2.926   6.100 -0.3053  0.3337 -0.0314
 6920SOL    HW121659   2.992   2.886   6.013 -0.9070 -0.3510  0.0680
 6920SOL    HW221660   3.017   2.887   6.174 -1.3045 -0.8235  0.1361
 6921SOL     OW21661   4.015   4.193   0.001 -0.1681  0.0367  0.4317
 6921SOL    HW121662   3.938   4.181  -0.063 -1.2335  1.2240  1.4319
 6921SOL    HW221663   4.028   4.108   0.053  0.2917 -0.7234 -0.8684
 6922SOL     OW21664   0.238   3.694   3.883 -0.3486  0.0246  0.1416
 6922SOL    HW121665   0.230   3.608   3.931  0.9756 -0.4433 -0.4316
 6922SOL    HW221666   0.283   3.679   3.795  0.1025  1.3218  0.1266
 6923SOL     OW21667   2.056   4.007   3.008  0.3543  0.5163 -0.0688
 6923SOL    HW121668   2.028   4.088   3.059 -0.2267 -0.7513  1.7450
 6923SOL    HW221669   2.112   4.034   2.930 -0.5043  2.6919  0.0040
 6924SOL     OW21670   4.220   5.352   2.331  0.0130 -0.0658 -0.1630
 6924SOL    HW121671   4.319   5.345   2.339 -0.1270 -1.1267  1.1351
 6924SOL    HW221672   4.177   5.283   2.390 -1.5122  1.7100  0.9348
 6925SOL     OW21673   2.608   3.012   5.846  0.2978 -0.2793  0.5981
 6925SOL    HW121674   2.646   3.052   5.929  1.0237  0.9883 -0.3162
 6925SOL    HW221675   2.603   3.081   5.774 -1.8075 -0.9508  0.0324
 6926SOL     OW21676   5.950   5.862   0.904  0.6225 -1.1652 -0.1618
 6926SOL    HW121677   5.856   5.885   0.879  0.3504 -0.7398  1.1417
 6926SOL    HW221678   6.008   5.859   0.822 -0.0650  0.6940 -0.7598
 6927SOL     OW21679   1.041   0.032   3.824 -0.2138  0.4229  0.4219
 6927SOL    HW121680   0.997  -0.052   3.789 -0.3370  0.7381 -0.1989
 6927SOL    HW221681   0.971   0.099   3.846 -0.0911  0.5293  0.4868
 6928SOL     OW21682   0.200   2.049   4.026 -0.0679 -0.3348  0.1880
 6928SOL    HW121683   0.237   2.089   4.110  1.0947 -1.5259  0.2924
 6928SOL    HW221684   0.117   1.997   4.048 -1.6453  1.9692  0.0338
 6929SOL     OW21685   6.091   4.836   0.386 -0.1631 -0.1552 -0.3314
 6929SOL    HW121686   6.161   4.858   0.318 -0.7647 -0.0047 -0.9140
 6929SOL    HW221687   6.044   4.752   0.359  0.7788 -1.0947  0.8335
 6930SOL     OW21688   3.148   4.748   0.655  0.2138 -0.2842  0.2881
 6930SOL    HW121689   3.152   4.835   0.606  0.1702 -1.4024 -1.8337
 6930SOL    HW221690   3.144   4.765   0.753  0.0018  2.0960 -0.0712
 6931SOL     OW21691   0.079   0.226   4.552  0.3436  0.0539  0.1396
 6931SOL    HW121692   0.055   0.236   4.649 -1.6460 -0.8804 -0.1987
 6931SOL    HW221693  -0.001   0.195   4.501  2.1664 -2.8382 -1.2345
 6932SOL     OW21694   1.722   7.008   0.057  0.0859  0.0708 -0.2746
 6932SOL    HW121695   1.778   7.091   0.054  0.9835 -0.4811  0.4886
 6932SOL    HW221696   1.731   6.965   0.147  0.4350 -1.3803 -0.9658
 6933SOL     OW21697   0.394   1.557   3.270  0.2989 -0.2830 -0.2375
 6933SOL    HW121698   0.488   1.579   3.297  0.0186  1.1166 -0.3293
 6933SOL    HW221699   0.392   1.538   3.172  0.2556  1.3238 -0.5803
 6934SOL     OW21700   4.123   5.115   5.851 -0.3135 -0.1708 -0.2077
 6934SOL    HW121701   4.023   5.112   5.845 -0.3131 -1.2688  0.1963
 6934SOL    HW221702   4.155   5.040   5.907  0.7325  0.3631 -0.0749
 6935SOL     OW21703   6.399   1.361   6.758  0.4156  0.0734 -0.4813
 6935SOL    HW121704   6.371   1.350   6.663 -1.3305  1.0338 -0.1259
 6935SOL    HW221705   6.465   1.436   6.766 -0.6366  1.0549 -0.7617
 6936SOL     OW21706   1.192   1.436   7.010  0.2216  0.4198  0.0562
 6936SOL    HW121707   1.150   1.476   6.928  0.1268  0.3215  0.0559
 6936SOL    HW221708   1.160   1.342   7.021 -2.0834  1.3035  1.8089
 6937SOL     OW21709   2.751   5.376   3.878  0.3520 -0.0192 -0.6231
 6937SOL    HW121710   2.809   5.454   3.855  1.6865 -0.6405  0.4689
 6937SOL    HW221711   2.791   5.292   3.841  0.5289 -0.5369  0.6599
 6938SOL     OW21712   0.453   3.717   1.871 -0.3806  0.2913 -0.1217
 6938SOL    HW121713   0.361   3.756   1.864 -0.5038  0.2229  1.0106
 6938SOL    HW221714   0.465   3.676   1.961  0.8802  0.5767 -0.1530
 6939SOL     OW21715   4.440   5.755   1.102  0.0558 -0.0951  0.3472
 6939SOL    HW121716   4.505   5.680   1.101  0.5119  0.1699  2.9047
 6939SOL    HW221717   4.347   5.719   1.113 -0.5098 -0.5249 -4.0420
 6940SOL     OW21718   2.253   2.385   2.413 -0.7569 -0.3065  0.6532
 6940SOL    HW121719   2.301   2.305   2.451  1.7983  0.3571 -0.8863
 6940SOL    HW221720   2.164   2.356   2.378 -0.3759 -2.2488  1.1286
 6941SOL     OW21721   6.240   6.181   1.817 -0.7554 -0.5350  0.2632
 6941SOL    HW121722   6.195   6.098   1.852 -2.1364 -0.0942 -0.4090
 6941SOL    HW221723   6.329   6.156   1.779  0.1549 -1.2546  2.6602
 6942SOL     OW21724   3.901   1.904   3.771 -0.4582  0.3023  0.0738
 6942SOL    HW121725   3.924   2.000   3.790 -0.3992  0.1976  0.5273
 6942SOL    HW221726   3.985   1.855   3.747 -0.5340  0.4368 -0.4894
 6943SOL     OW21727   6.634   3.520   5.862  0.3949  0.3272  0.2240
 6943SOL    HW121728   6.579   3.437   5.865  0.7912 -0.0008 -0.9989
 6943SOL    HW221729   6.691   3.525   5.944 -0.1334 -0.2503  0.6374
 6944SOL     OW21730   0.580   4.680   3.282  0.2093  0.3328 -0.5067
 6944SOL    HW121731   0.611   4.601   3.336 -1.0167 -0.3875 -0.8075
 6944SOL    HW221732   0.482   4.692   3.296  0.4354  2.0406 -0.2017
 6945SOL     OW21733   5.747   2.291   6.432  0.2756 -0.4370 -0.0866
 6945SOL    HW121734   5.683   2.260   6.503  1.2059 -0.7301  0.6520
 6945SOL    HW221735   5.840   2.264   6.457  0.7585  0.4143 -0.8898
 6946SOL     OW21736   2.210   1.450   0.060  0.0080  0.0898 -0.4344
 6946SOL    HW121737   2.290   1.509   0.059 -0.9769  1.4861 -0.4269
 6946SOL    HW221738   2.134   1.498   0.104 -1.1917 -0.6796 -1.5698
 6947SOL     OW21739   5.557   5.001   6.611  0.4504  0.1880 -0.0482
 6947SOL    HW121740   5.506   5.084   6.586  1.6553  0.5910 -1.3367
 6947SOL    HW221741   5.539   4.929   6.544  0.5067 -0.1336  0.2774
 6948SOL     OW21742   0.914   2.693   4.491 -0.2410  0.5184 -0.3050
 6948SOL    HW121743   0.937   2.607   4.538 -0.9658  0.5988  0.2162
 6948SOL    HW221744   0.978   2.764   4.520 -1.0891  0.7398  1.1345
 6949SOL     OW21745   5.355   0.497   0.545 -0.2762  0.1039  0.2350
 6949SOL    HW121746   5.360   0.540   0.636  1.3648 -0.7914  0.6065
 6949SOL    HW221747   5.279   0.537   0.494 -0.0803  1.9717  1.3026
 6950SOL     OW21748   4.971   3.415   0.622  0.4035  0.7154 -0.3715
 6950SOL    HW121749   4.888   3.463   0.593  1.1208  1.4915 -1.2002
 6950SOL    HW221750   5.017   3.467   0.694  0.7398  0.8646 -0.6859
 6951SOL     OW21751   2.702   5.488   6.630 -0.2989  0.0559  0.2356
 6951SOL    HW121752   2.742   5.579   6.641  2.0039 -0.8947  0.2537
 6951SOL    HW221753   2.662   5.481   6.538 -1.3261  1.3460  0.5541
 6952SOL     OW21754   3.168   2.137   2.452  0.0202 -0.0292 -0.0124
 6952SOL    HW121755   3.239   2.133   2.522  2.3587  2.6469 -1.9883
 6952SOL    HW221756   3.095   2.197   2.482 -0.3025 -0.9375  1.0992
 6953SOL     OW21757   4.804   2.922   3.449  0.3839  0.7639  0.6288
 6953SOL    HW121758   4.776   2.958   3.538 -1.7109 -3.5876  1.9709
 6953SOL    HW221759   4.893   2.878   3.457  0.0858  0.1615  0.6370
 6954SOL     OW21760   0.161   4.841   5.036 -0.6736 -0.2466  0.3601
 6954SOL    HW121761   0.193   4.818   5.128  0.8403  2.8734  0.7414
 6954SOL    HW221762   0.231   4.815   4.970 -0.2507  0.5593  0.4803
 6955SOL     OW21763   4.512   5.174   3.044  0.1702  0.1666  0.3075
 6955SOL    HW121764   4.565   5.112   2.988 -0.1201 -1.2317  1.5088
 6955SOL    HW221765   4.572   5.225   3.105  0.2682 -0.2311  0.5430
 6956SOL     OW21766   1.725   5.594   3.051 -0.1344 -0.0260 -0.2057
 6956SOL    HW121767   1.749   5.687   3.081  0.5460 -0.4257  0.5026
 6956SOL    HW221768   1.700   5.597   2.954 -0.2165  0.9139 -0.1686
 6957SOL     OW21769   3.376   3.481   3.716 -0.3995  0.5553 -0.4465
 6957SOL    HW121770   3.378   3.518   3.623 -0.2985 -0.3433 -0.8091
 6957SOL    HW221771   3.448   3.524   3.770  0.4416  0.1073 -1.1697
 6958SOL     OW21772   2.513   1.529   3.285 -0.6724 -0.0877  0.0016
 6958SOL    HW121773   2.440   1.497   3.346 -0.8086 -0.0826 -0.1550
 6958SOL    HW221774   2.590   1.466   3.289 -1.3328 -1.0089 -1.0483
 6959SOL     OW21775   4.882   4.137   2.525  0.0551 -0.0964  0.2271
 6959SOL    HW121776   4.927   4.068   2.582 -0.0778 -0.4871 -0.1312
 6959SOL    HW221777   4.880   4.224   2.573 -0.5963 -0.5667  1.0719
 6960SOL     OW21778   1.173   3.315   2.922  0.1387  0.0921 -0.5673
 6960SOL    HW121779   1.171   3.215   2.917  1.3774  0.0429 -0.2923
 6960SOL    HW221780   1.087   3.348   2.960 -0.3831 -0.8498 -0.8921
 6961SOL     OW21781   1.143   4.438   5.953  0.0619  0.5179  0.1206
 6961SOL    HW121782   1.092   4.395   5.878  1.8105  0.6176 -1.1922
 6961SOL    HW221783   1.207   4.371   5.992  0.2851  0.9148  0.4367
 6962SOL     OW21784   6.161   1.239   6.594  0.6443  0.2346 -0.0415
 6962SOL    HW121785   6.181   1.184   6.513 -1.4658  0.2343 -0.6246
 6962SOL    HW221786   6.144   1.180   6.672  0.7086  0.1530 -0.0897
 6963SOL     OW21787   0.811   5.128   6.328 -0.5714 -0.1955  0.4712
 6963SOL    HW121788   0.748   5.050   6.321 -2.3831  1.2872 -0.8480
 6963SOL    HW221789   0.856   5.127   6.417  1.6141 -4.2392 -0.3930
 6964SOL     OW21790   2.349   4.368   0.755  0.1180 -0.4067 -0.3976
 6964SOL    HW121791   2.281   4.397   0.821 -0.2158 -2.1960  0.1178
 6964SOL    HW221792   2.430   4.426   0.761  0.0198 -0.4300  1.4532
 6965SOL     OW21793   4.310   0.869   4.099  0.6559 -0.0767 -0.4984
 6965SOL    HW121794   4.334   0.781   4.059 -0.2586  0.8176 -3.2112
 6965SOL    HW221795   4.215   0.892   4.076  0.7390  1.4412  0.5024
 6966SOL     OW21796   2.223   5.234   3.225  0.1978 -0.4995  0.6731
 6966SOL    HW121797   2.219   5.230   3.125 -1.0419 -0.7262  0.7179
 6966SOL    HW221798   2.172   5.314   3.257  1.3708  0.0936  1.0910
 6967SOL     OW21799   5.512   3.364   5.356 -0.8394 -0.0196 -0.8528
 6967SOL    HW121800   5.567   3.441   5.324 -3.0097  1.0253 -2.2757
 6967SOL    HW221801   5.465   3.389   5.440 -0.5046 -0.2829 -0.5858
 6968SOL     OW21802   4.044   1.302   4.167 -0.2631  0.4211 -0.4263
 6968SOL    HW121803   3.954   1.285   4.129 -0.1173  2.5418 -1.9302
 6968SOL    HW221804   4.054   1.400   4.188  1.2249  0.0250  1.0044
 6969SOL     OW21805   6.105   3.882   6.557 -0.6440  0.3206  0.1612
 6969SOL    HW121806   6.134   3.819   6.485 -1.0994 -0.5565  0.7271
 6969SOL    HW221807   6.184   3.912   6.610 -0.3403  0.7615 -0.5386
 6970SOL     OW21808   6.974   0.418   0.895 -0.1037  0.1852 -0.0526
 6970SOL    HW121809   7.056   0.463   0.860  1.3814 -1.6469  0.8381
 6970SOL    HW221810   6.960   0.444   0.991 -0.1583 -0.0056 -0.0072
 6971SOL     OW21811   1.508   2.444   3.651  0.0838  0.1260 -0.0367
 6971SOL    HW121812   1.492   2.509   3.726 -0.7239 -0.1308  0.0197
 6971SOL    HW221813   1.450   2.469   3.573  1.5743  0.9336 -0.9334
 6972SOL     OW21814   3.070   6.504   2.675  0.3389  0.1547 -0.6353
 6972SOL    HW121815   2.985   6.453   2.687  0.1540  0.8238  1.2591
 6972SOL    HW221816   3.128   6.492   2.755  1.1022  1.4169 -0.9607
 6973SOL     OW21817   5.588   0.190   4.367 -0.0352  0.4579  0.3953
 6973SOL    HW121818   5.682   0.210   4.339 -0.3542  0.1645 -0.9980
 6973SOL    HW221819   5.587   0.142   4.454  1.3014 -1.9663 -0.8251
 6974SOL     OW21820   4.601   5.291   4.430 -0.3212  0.4639  0.3071
 6974SOL    HW121821   4.683   5.347   4.428 -0.3352  0.5236  0.9662
 6974SOL    HW221822   4.600   5.237   4.514 -0.4916 -0.2470 -0.1457
 6975SOL     OW21823   5.486   4.138   1.811  0.7126  0.2717 -0.4795
 6975SOL    HW121824   5.477   4.234   1.837 -1.2346 -0.1384  0.4934
 6975SOL    HW221825   5.403   4.088   1.836  1.0850 -1.3803 -2.2838
 6976SOL     OW21826   3.771   0.059   3.248 -0.1321  0.4688  0.0367
 6976SOL    HW121827   3.866   0.077   3.274 -0.0561  0.6244 -0.3456
 6976SOL    HW221828   3.753  -0.039   3.257  0.5444  0.1818 -1.4038
 6977SOL     OW21829   0.846   0.539   2.703  0.7147  0.5725  0.0885
 6977SOL    HW121830   0.844   0.462   2.765  1.3126 -0.1520 -0.7597
 6977SOL    HW221831   0.905   0.611   2.740  0.1921  0.6106  0.8572
 6978SOL     OW21832   6.920   3.279   2.206  0.0258 -0.4635 -0.4132
 6978SOL    HW121833   7.002   3.276   2.263 -0.5543 -0.4770  0.4425
 6978SOL    HW221834   6.915   3.196   2.150  0.3423 -0.6902 -0.1059
 6979SOL     OW21835   5.549   0.653   5.968  0.3958 -0.0203 -0.3781
 6979SOL    HW121836   5.630   0.663   5.910  1.0647  0.1488  0.5621
 6979SOL    HW221837   5.517   0.559   5.965 -0.1497  0.1920 -1.7555
 6980SOL     OW21838   4.122   1.872   2.678  0.0090 -0.0152  0.1236
 6980SOL    HW121839   4.221   1.863   2.669  0.1901 -0.0820  1.7949
 6980SOL    HW221840   4.077   1.824   2.603  1.2105 -1.3797  0.2253
 6981SOL     OW21841   2.365   3.008   0.714 -0.2181 -0.2758 -0.4316
 6981SOL    HW121842   2.420   3.008   0.630  0.0281 -0.5621 -0.2739
 6981SOL    HW221843   2.347   2.914   0.742 -2.1413 -0.2263 -1.3399
 6982SOL     OW21844   0.306   5.189   5.014 -0.2407 -0.1614  0.1654
 6982SOL    HW121845   0.258   5.186   5.101 -1.0710  1.1196 -0.2333
 6982SOL    HW221846   0.335   5.282   4.994 -0.2682 -0.3874 -1.0426
 6983SOL     OW21847   3.615   6.260   6.816  0.2226  0.8044 -0.5183
 6983SOL    HW121848   3.638   6.185   6.878 -1.5405 -0.5481 -1.4126
 6983SOL    HW221849   3.661   6.343   6.846  1.5495 -0.4228  1.0163
 6984SOL     OW21850   2.509   1.536   6.086  0.2856  0.0144 -0.3138
 6984SOL    HW121851   2.473   1.443   6.074  2.0512 -0.6377 -0.9190
 6984SOL    HW221852   2.463   1.598   6.022  0.0517 -0.7348 -0.8943
 6985SOL     OW21853   4.322   4.319   1.170 -0.3721 -0.0613 -0.1119
 6985SOL    HW121854   4.282   4.294   1.259  2.4352  0.3156  1.3601
 6985SOL    HW221855   4.294   4.412   1.146 -1.3424 -0.2499  0.2293
 6986SOL     OW21856   0.754   3.703   5.908 -0.5514  0.2884  0.4182
 6986SOL    HW121857   0.800   3.700   5.819 -2.0716  1.6338 -0.4815
 6986SOL    HW221858   0.773   3.790   5.952 -0.2343 -0.1640  1.1830
 6987SOL     OW21859   3.030   5.898   3.217 -0.7062 -0.2855  0.5688
 6987SOL    HW121860   3.100   5.860   3.277 -1.3865 -0.8899  1.0049
 6987SOL    HW221861   2.994   5.825   3.159 -1.5784 -0.1841  0.9635
 6988SOL     OW21862   2.927   2.268   4.124 -0.5263  0.0902  1.0492
 6988SOL    HW121863   2.936   2.180   4.170  0.3752  0.7409  2.1734
 6988SOL    HW221864   2.957   2.260   4.029  0.4736 -0.5898  1.4121
 6989SOL     OW21865   4.801   4.140   3.679  0.0265  0.1689  0.3302
 6989SOL    HW121866   4.835   4.127   3.773 -0.2072  1.1128  0.5508
 6989SOL    HW221867   4.723   4.202   3.680 -0.0693  0.0729 -0.4846
 6990SOL     OW21868   0.837   0.338   2.874 -0.2163  0.1391 -0.4549
 6990SOL    HW121869   0.833   0.350   2.973 -0.8900  1.9199 -0.6628
 6990SOL    HW221870   0.781   0.259   2.848 -0.5482  0.0328  0.5324
 6991SOL     OW21871   1.627   6.836   5.110 -0.2926 -0.0181 -0.2921
 6991SOL    HW121872   1.612   6.872   5.018  1.4887  1.0656 -0.2104
 6991SOL    HW221873   1.700   6.767   5.108 -1.1476 -0.9655  0.1311
 6992SOL     OW21874   1.359   1.838   6.411 -0.7156 -0.0801 -0.3923
 6992SOL    HW121875   1.260   1.846   6.427 -1.1822 -0.5480 -2.6023
 6992SOL    HW221876   1.409   1.888   6.481 -2.4805 -0.6148  1.3190
 6993SOL     OW21877   1.156   6.725   3.304  0.4906  0.0087  0.0604
 6993SOL    HW121878   1.117   6.653   3.362 -0.7002  1.5071  1.2229
 6993SOL    HW221879   1.086   6.757   3.240  1.3007 -0.4690 -1.1097
 6994SOL     OW21880   6.902   5.735   5.246 -0.0463  0.1827 -0.1945
 6994SOL    HW121881   6.891   5.828   5.209  1.0033  0.4776  0.1857
 6994SOL    HW221882   6.964   5.683   5.187 -0.5205 -0.2384 -0.3288
 6995SOL     OW21883   3.401   2.932   4.663  0.4662 -0.3124  0.3940
 6995SOL    HW121884   3.448   3.014   4.629 -1.0977  0.2682 -0.4347
 6995SOL    HW221885   3.359   2.883   4.587 -1.1514 -0.2451  1.1953
 6996SOL     OW21886   3.714   0.946   0.339 -0.4497 -0.0283 -0.3042
 6996SOL    HW121887   3.628   0.987   0.308  1.0388  1.7561 -2.3838
 6996SOL    HW221888   3.775   1.018   0.372  0.3116 -1.2609  1.1123
 6997SOL     OW21889   2.530   1.522   2.236 -0.1158 -0.0265  0.7365
 6997SOL    HW121890   2.598   1.595   2.229 -0.7368  0.5723  0.7761
 6997SOL    HW221891   2.439   1.563   2.246 -0.7668 -0.7540 -1.6136
 6998SOL     OW21892   4.172   4.390   6.632 -0.4077 -0.1057 -0.1748
 6998SOL    HW121893   4.244   4.325   6.607 -1.8999 -2.2461  0.7853
 6998SOL    HW221894   4.194   4.431   6.720  0.5079  0.6791 -0.7490
 6999SOL     OW21895   1.289   0.928   2.213 -0.4318 -0.0424 -0.1314
 6999SOL    HW121896   1.295   0.925   2.313  0.2360  0.5192 -0.1465
 6999SOL    HW221897   1.321   0.841   2.175 -0.3545 -0.1294  0.1298
 7000SOL     OW21898   4.012   2.445   5.390  0.5059 -0.5764  0.5010
 7000SOL    HW121899   4.066   2.482   5.315 -1.6296 -0.4498 -1.0661
 7000SOL    HW221900   3.953   2.516   5.427  1.5528 -0.6269  2.4021
 7001SOL     OW21901   1.702   1.481   2.337 -0.1795 -0.5913  0.5148
 7001SOL    HW121902   1.696   1.461   2.435 -0.2033 -0.9999  0.4320
 7001SOL    HW221903   1.745   1.404   2.290 -1.4017 -0.9952  0.0124
 7002SOL     OW21904   5.462   6.854   6.472 -0.0472 -0.1038 -0.1413
 7002SOL    HW121905   5.455   6.776   6.410  2.5497 -0.5597  0.0189
 7002SOL    HW221906   5.412   6.932   6.433 -0.6526 -1.1327 -1.5072
 7003SOL     OW21907   1.791   5.356   1.020  0.1859  0.0388  0.1149
 7003SOL    HW121908   1.873   5.323   1.067 -0.6012 -2.1286  0.0929
 7003SOL    HW221909   1.748   5.428   1.074  0.9986 -0.2181  1.1477
 7004SOL     OW21910   1.723   3.351   2.579  0.3844  0.4064 -0.1686
 7004SOL    HW121911   1.750   3.291   2.504 -1.5636 -2.0666  0.9730
 7004SOL    HW221912   1.638   3.398   2.556  1.0469  1.5432 -0.4001
 7005SOL     OW21913   0.139   3.085   6.531 -0.5173  0.1566  0.5459
 7005SOL    HW121914   0.162   3.088   6.434 -0.3663 -1.9656  0.4688
 7005SOL    HW221915   0.047   3.047   6.542 -1.4142  2.3915  1.1696
 7006SOL     OW21916   0.429   2.574   2.071 -0.2266  0.5664 -0.1225
 7006SOL    HW121917   0.374   2.570   2.154 -1.0482 -0.9787 -0.6948
 7006SOL    HW221918   0.463   2.667   2.058  1.2408  0.5161  2.7430
 7007SOL     OW21919   0.285   6.023   0.222  0.0250 -0.0224 -0.0819
 7007SOL    HW121920   0.252   5.929   0.212  2.0421 -0.8058  0.2749
 7007SOL    HW221921   0.385   6.023   0.230  0.0994  2.1954 -0.4887
 7008SOL     OW21922   0.435   0.182   1.832 -0.3832 -0.4641 -0.4537
 7008SOL    HW121923   0.471   0.153   1.743  0.9448 -0.0944 -0.0574
 7008SOL    HW221924   0.510   0.213   1.890 -1.3082 -0.0857  0.5781
 7009SOL     OW21925   1.373   5.670   0.341  0.1919  0.9298 -0.1556
 7009SOL    HW121926   1.280   5.697   0.316  1.0609  3.6182 -0.7882
 7009SOL    HW221927   1.385   5.572   0.324 -1.4212  1.1730 -3.5601
 7010SOL     OW21928   4.432   1.300   4.466 -0.4205 -0.0806 -0.1516
 7010SOL    HW121929   4.522   1.263   4.441 -1.0705 -2.3960  0.6802
 7010SOL    HW221930   4.417   1.285   4.564 -1.0686  1.7853  0.0600
 7011SOL     OW21931   4.962   6.376   6.717 -0.1048  0.1723 -0.2714
 7011SOL    HW121932   4.886   6.311   6.717  0.5435 -0.5954  0.3338
 7011SOL    HW221933   4.969   6.418   6.626  0.5574 -1.9168 -1.2625
 7012SOL     OW21934   3.858   4.916   4.512 -0.2459  0.3260  0.0669
 7012SOL    HW121935   3.805   4.928   4.427 -1.2280 -0.6841  0.5052
 7012SOL    HW221936   3.802   4.942   4.590  0.2440  0.1529  0.4830
 7013SOL     OW21937   3.682   2.877   0.733  0.3952 -0.1256  0.8613
 7013SOL    HW121938   3.674   2.975   0.715 -0.7384 -0.5336 -1.0732
 7013SOL    HW221939   3.631   2.854   0.816 -0.9789  0.6395  0.2642
 7014SOL     OW21940   4.794   3.292   1.062  0.5154  0.1227 -0.5106
 7014SOL    HW121941   4.841   3.221   1.010  0.0851 -1.8279  1.6052
 7014SOL    HW221942   4.713   3.322   1.011  0.5985 -1.0363 -1.3630
 7015SOL     OW21943   3.801   1.909   3.343 -0.2365 -0.3357  0.4128
 7015SOL    HW121944   3.896   1.888   3.363  0.5135  1.0075 -1.4294
 7015SOL    HW221945   3.756   1.829   3.304  0.6005 -0.5328 -0.1662
 7016SOL     OW21946   5.250   1.043   2.742  0.2305  0.3945 -0.1446
 7016SOL    HW121947   5.299   0.967   2.783 -0.2826 -0.1231 -0.4639
 7016SOL    HW221948   5.311   1.095   2.683  0.4611 -0.0877 -0.3356
 7017SOL     OW21949   0.659   0.547   1.661  0.3672 -0.4331  0.2877
 7017SOL    HW121950   0.667   0.646   1.675 -1.6232 -0.2843  0.7093
 7017SOL    HW221951   0.713   0.499   1.730  0.0687  0.3622  1.0951
 7018SOL     OW21952   6.924   6.141   5.594  0.3091 -0.2119 -0.2762
 7018SOL    HW121953   6.862   6.207   5.636  0.2506  0.4178 -1.3158
 7018SOL    HW221954   6.965   6.084   5.665 -2.1199 -1.2496  0.3780
 7019SOL     OW21955   5.531   5.268   4.934  0.0685  0.0472  0.0059
 7019SOL    HW121956   5.522   5.248   4.837 -4.3351 -0.2936  0.3068
 7019SOL    HW221957   5.533   5.367   4.948 -1.3105  0.1382 -0.3670
 7020SOL     OW21958   0.425   4.112   2.236  0.0582  0.3184  0.5924
 7020SOL    HW121959   0.521   4.137   2.221  0.5772 -1.8646 -0.2564
 7020SOL    HW221960   0.367   4.167   2.176  0.8387  1.2765  0.6927
 7021SOL     OW21961   5.951   5.019   2.681  0.2396  0.3337 -0.4563
 7021SOL    HW121962   5.904   5.061   2.758  1.0728  1.7309 -0.6712
 7021SOL    HW221963   5.961   4.921   2.697 -1.8140  0.1721  0.0323
 7022SOL     OW21964   1.627   5.958   1.361  0.7906 -0.8918  0.1798
 7022SOL    HW121965   1.655   5.937   1.455  3.1810 -0.2655 -0.3435
 7022SOL    HW221966   1.618   6.057   1.350  0.7439 -0.9490 -0.3149
 7023SOL     OW21967   4.585   6.238   5.337 -0.1483 -0.3345 -0.5763
 7023SOL    HW121968   4.622   6.151   5.307 -1.1774 -1.4741  1.2828
 7023SOL    HW221969   4.656   6.289   5.386  0.3727 -0.2189 -1.4268
 7024SOL     OW21970   6.787   4.731   7.021 -0.1252 -0.4614 -0.4055
 7024SOL    HW121971   6.840   4.763   6.943  0.0029 -0.1401 -0.1918
 7024SOL    HW221972   6.848   4.685   7.086 -0.0950 -0.0423 -0.1337
 7025SOL     OW21973   1.830   3.828   3.022  0.2839  0.0752 -0.0359
 7025SOL    HW121974   1.898   3.901   3.025  0.9224 -0.5127  0.0080
 7025SOL    HW221975   1.740   3.867   3.002  0.3900  1.0195  1.2351
 7026SOL     OW21976   5.782   6.731   2.724 -0.7928  0.0691  0.1462
 7026SOL    HW121977   5.694   6.693   2.755 -1.4917 -0.4312 -2.2540
 7026SOL    HW221978   5.856   6.668   2.749 -1.1454  0.2378  1.7268
 7027SOL     OW21979   5.786   1.884   6.401 -0.2137  0.5025  0.0003
 7027SOL    HW121980   5.725   1.808   6.424  0.0652  0.5836  1.0606
 7027SOL    HW221981   5.761   1.964   6.455  1.5732  0.1820  1.4003
 7028SOL     OW21982   6.300   6.501   1.572  0.4011  0.1803  0.0716
 7028SOL    HW121983   6.342   6.509   1.663 -0.1567 -1.7212  0.5415
 7028SOL    HW221984   6.203   6.525   1.579  0.1880 -0.6686  0.1589
 7029SOL     OW21985   4.269   6.329   0.776  0.2613 -0.1432  0.2398
 7029SOL    HW121986   4.283   6.310   0.873  1.3022  0.0061  0.1241
 7029SOL    HW221987   4.243   6.425   0.764 -0.0962 -0.2178  0.3799
 7030SOL     OW21988   4.948   3.875   1.344 -0.0258  0.2053 -0.4604
 7030SOL    HW121989   4.997   3.871   1.257  0.1750  0.2322 -0.3490
 7030SOL    HW221990   4.860   3.921   1.330  0.2393  0.6958 -0.5399
 7031SOL     OW21991   1.452   5.491   4.413  0.4357 -0.2393  0.6404
 7031SOL    HW121992   1.440   5.492   4.513  0.6801 -1.7842  0.7121
 7031SOL    HW221993   1.439   5.398   4.379  0.9860  0.1548 -0.7062
 7032SOL     OW21994   1.554   4.930   5.202 -0.4130  0.1869  0.6074
 7032SOL    HW121995   1.587   4.868   5.273 -0.9236 -0.0215  0.6722
 7032SOL    HW221996   1.627   4.993   5.175  0.8290 -1.8273 -1.0128
 7033SOL     OW21997   5.502   4.339   5.386 -0.0094 -0.0836 -0.3119
 7033SOL    HW121998   5.521   4.255   5.334 -0.2190  0.8460 -1.9601
 7033SOL    HW221999   5.582   4.365   5.439  1.0487  0.1756 -1.9766
 7034SOL     OW22000   1.939   1.148   3.928 -0.1023 -0.2146 -0.6354
 7034SOL    HW122001   1.894   1.238   3.925  0.4120  0.0366 -1.6599
 7034SOL    HW222002   2.000   1.144   4.007  2.7354  1.8318 -2.5135
 7035SOL     OW22003   4.409   0.694   1.178  0.3781  0.2413  0.0546
 7035SOL    HW122004   4.470   0.651   1.244 -0.8956 -2.0946 -0.1990
 7035SOL    HW222005   4.408   0.641   1.093  1.6160  2.9129 -1.7672
 7036SOL     OW22006   4.545   1.375   1.004  0.2211 -0.0085 -0.4857
 7036SOL    HW122007   4.638   1.394   0.973 -0.7412  2.2718 -2.2792
 7036SOL    HW222008   4.480   1.401   0.932 -1.8060 -2.2290  0.4121
 7037SOL     OW22009   0.644   6.450   0.705 -0.1344 -0.2155 -0.0221
 7037SOL    HW122010   0.632   6.548   0.689 -1.0977  0.0166  1.8564
 7037SOL    HW222011   0.714   6.435   0.774  0.5000 -0.9190 -0.7835
 7038SOL     OW22012   6.387   2.799   0.795 -0.1835 -0.2935  1.1789
 7038SOL    HW122013   6.369   2.846   0.882 -0.6285 -2.9347  2.6305
 7038SOL    HW222014   6.303   2.754   0.764 -0.0030  0.5587 -0.6318
 7039SOL     OW22015   1.469   0.413   2.713 -0.4895  0.5566 -0.2880
 7039SOL    HW122016   1.418   0.343   2.663 -1.7435 -0.3763  2.1265
 7039SOL    HW222017   1.557   0.376   2.743 -0.7733  0.2777  0.2239
 7040SOL     OW22018   3.909   1.497   3.636  0.0782 -0.1694 -0.3925
 7040SOL    HW122019   3.920   1.513   3.538  0.1340 -0.2052 -0.3922
 7040SOL    HW222020   3.812   1.499   3.660  0.0228 -0.7692 -0.5501
 7041SOL     OW22021   2.138   6.356   1.156  0.1832  0.0518 -0.4644
 7041SOL    HW122022   2.194   6.283   1.195  0.9799 -0.1319 -1.8669
 7041SOL    HW222023   2.164   6.443   1.197 -1.0446 -0.4429  1.5072
 7042SOL     OW22024   6.573   1.652   3.916  0.1558  0.4709 -0.0690
 7042SOL    HW122025   6.616   1.609   3.837  1.2452  0.9924  0.2302
 7042SOL    HW222026   6.477   1.672   3.894 -0.7629 -3.0115  0.1355
 7043SOL     OW22027   5.549   3.881   1.916  0.4694  0.1254 -0.2906
 7043SOL    HW122028   5.512   3.970   1.888  2.9007  1.2872 -0.1019
 7043SOL    HW222029   5.532   3.814   1.844  0.5084  1.3096 -1.4361
 7044SOL     OW22030   0.441   6.688   0.464 -0.4522 -0.2885  0.2158
 7044SOL    HW122031   0.455   6.649   0.555  0.5664  0.8782  0.5858
 7044SOL    HW222032   0.470   6.623   0.394  2.9061  0.3742  0.8592
 7045SOL     OW22033   1.663   0.055   3.271 -0.1265 -0.8238 -0.6117
 7045SOL    HW122034   1.710   0.138   3.298 -0.8321  0.1009 -2.1097
 7045SOL    HW222035   1.565   0.074   3.261 -0.5509 -2.2218  0.5213
 7046SOL     OW22036   1.354   6.527   2.163  0.5232  0.1152  0.2648
 7046SOL    HW122037   1.310   6.452   2.212 -1.2855  0.6513 -0.4864
 7046SOL    HW222038   1.386   6.494   2.074 -0.3732  0.2552 -0.1130
 7047SOL     OW22039   0.596   0.114   6.623  0.5335  0.7932 -0.0485
 7047SOL    HW122040   0.641   0.201   6.603  1.1317  0.8909  1.5387
 7047SOL    HW222041   0.661   0.053   6.668  0.0738 -0.4327 -1.0085
 7048SOL     OW22042   2.587   0.698   2.545  0.0252  0.1196 -0.0951
 7048SOL    HW122043   2.567   0.739   2.634 -0.7910  1.9278 -1.0604
 7048SOL    HW222044   2.509   0.712   2.483  0.2151 -1.8803 -0.8608
 7049SOL     OW22045   1.141   5.211   5.150  0.1040 -0.2242  0.1476
 7049SOL    HW122046   1.126   5.153   5.230  1.1122  0.1380  0.6172
 7049SOL    HW222047   1.090   5.174   5.072  1.3008 -2.1797  0.2224
 7050SOL     OW22048   4.974   2.918   1.924 -0.5000  0.3268 -0.6632
 7050SOL    HW122049   4.880   2.952   1.929 -0.1116  1.3033  0.8493
 7050SOL    HW222050   5.033   2.977   1.979  0.3852 -2.2746  1.3571
 7051SOL     OW22051   5.415   5.606   3.538  0.1536 -0.0876 -0.1673
 7051SOL    HW122052   5.379   5.584   3.629 -0.9507 -0.3765 -0.6646
 7051SOL    HW222053   5.467   5.528   3.503 -0.1895 -0.3217 -0.1595
 7052SOL     OW22054   4.517   1.390   2.317 -0.6965 -1.0467 -0.3825
 7052SOL    HW122055   4.486   1.433   2.232 -0.2589  0.2628  0.1055
 7052SOL    HW222056   4.504   1.453   2.393  0.8129 -1.4278  0.2236
 7053SOL     OW22057   1.705   4.558   1.936  0.0607  0.0222 -0.3535
 7053SOL    HW122058   1.787   4.507   1.962 -0.2726 -0.0863  0.5271
 7053SOL    HW222059   1.641   4.559   2.013 -0.2537  1.1488 -0.6116
 7054SOL     OW22060   2.152   2.410   3.168  0.3152  0.3651  0.0686
 7054SOL    HW122061   2.111   2.490   3.211 -0.0797 -0.5022  1.4042
 7054SOL    HW222062   2.240   2.434   3.127 -1.0645  2.0670 -2.0425
 7055SOL     OW22063   2.296   0.474   5.177  0.1573 -0.0129 -0.1158
 7055SOL    HW122064   2.342   0.502   5.261  0.2320 -0.0215 -0.1537
 7055SOL    HW222065   2.327   0.531   5.101 -1.2064  1.1585  0.1771
 7056SOL     OW22066   2.613   1.852   5.653  0.6310 -0.0236  0.6010
 7056SOL    HW122067   2.676   1.838   5.576  1.1349  0.9534  0.8161
 7056SOL    HW222068   2.533   1.903   5.622  1.0326  0.7449  0.7932
 7057SOL     OW22069   0.466   5.763   1.102 -0.2738  0.1735 -0.7415
 7057SOL    HW122070   0.479   5.682   1.045 -2.1669 -1.4084  0.8764
 7057SOL    HW222071   0.381   5.809   1.076 -0.2068  0.4857 -0.4188
 7058SOL     OW22072   6.331   2.373   1.689  0.2877  0.0939 -0.0109
 7058SOL    HW122073   6.390   2.405   1.615  1.1619  2.4523  1.5769
 7058SOL    HW222074   6.246   2.424   1.688 -0.7086 -1.4782 -0.6927
 7059SOL     OW22075   6.321   2.921   1.700  0.3526  0.6702  0.0024
 7059SOL    HW122076   6.269   2.912   1.784  1.2885  0.7947  0.6069
 7059SOL    HW222077   6.362   3.012   1.694  2.2481 -0.0930  0.5964
 7060SOL     OW22078   5.482   6.780   5.834 -0.3568 -0.2861 -0.1269
 7060SOL    HW122079   5.451   6.699   5.784  2.4907 -1.3797 -0.3456
 7060SOL    HW222080   5.580   6.772   5.852 -0.0486  2.9559  0.2503
 7061SOL     OW22081   3.836   0.470   4.020 -0.3489 -0.4701  0.8260
 7061SOL    HW122082   3.763   0.488   4.086  0.1706  0.0603  1.2664
 7061SOL    HW222083   3.916   0.525   4.044 -0.3746  0.2382 -0.6452
 7062SOL     OW22084   2.421   6.658   1.958 -0.6730 -0.5046  0.2536
 7062SOL    HW122085   2.475   6.585   1.918  0.3880  1.5034 -2.2830
 7062SOL    HW222086   2.471   6.744   1.951 -3.0062  0.9781  0.5107
 7063SOL     OW22087   6.304   2.302   2.034 -0.3023  0.1696 -0.1548
 7063SOL    HW122088   6.263   2.225   1.985 -1.7067  0.7144  0.1152
 7063SOL    HW222089   6.383   2.335   1.983 -0.4057 -0.6780 -0.9003
 7064SOL     OW22090   4.608   1.818   2.835 -0.2299 -0.7015  0.2447
 7064SOL    HW122091   4.686   1.769   2.797  0.1725  1.6969 -2.3699
 7064SOL    HW222092   4.639   1.879   2.908  0.7845  1.3315 -1.7430
 7065SOL     OW22093   1.748   2.102   6.618  0.2319  0.7404 -0.1844
 7065SOL    HW122094   1.724   2.159   6.697 -1.6103  0.5742 -0.5737
 7065SOL    HW222095   1.731   2.153   6.534  2.1300  0.8931 -0.5195
 7066SOL     OW22096   5.281   4.770   6.504  0.3362 -0.3859  0.4353
 7066SOL    HW122097   5.251   4.860   6.472  1.4027 -0.5409 -1.1717
 7066SOL    HW222098   5.220   4.700   6.468  0.5386 -0.4258  0.1605
 7067SOL     OW22099   4.028   3.906   5.702 -0.3348 -0.2977  0.1691
 7067SOL    HW122100   4.043   3.919   5.800 -0.7131 -0.3434  0.2333
 7067SOL    HW222101   3.943   3.950   5.675 -0.8216 -1.2609  0.0879
 7068SOL     OW22102   3.659   2.928   5.690 -0.0142 -0.2561 -0.2374
 7068SOL    HW122103   3.609   2.887   5.614 -1.5931 -0.6094  0.9328
 7068SOL    HW222104   3.756   2.906   5.681 -0.2132 -0.5787 -1.9423
 7069SOL     OW22105   0.187   5.632   1.594 -0.3443 -0.7187  0.1410
 7069SOL    HW122106   0.113   5.581   1.639 -0.6133 -0.7726 -0.3559
 7069SOL    HW222107   0.275   5.600   1.630 -0.3041 -3.7530 -2.2622
 7070SOL     OW22108   5.792   0.227   6.937  0.0416 -0.1020 -0.1612
 7070SOL    HW122109   5.871   0.287   6.955 -1.5373  1.9068  0.4666
 7070SOL    HW222110   5.758   0.191   7.024 -0.9822  0.7618 -0.1823
 7071SOL     OW22111   6.785   4.872   4.632  0.6186  0.4141 -0.1896
 7071SOL    HW122112   6.849   4.865   4.708 -0.2138 -0.1139  0.4771
 7071SOL    HW222113   6.785   4.965   4.596  2.2214  0.2823 -0.6219
 7072SOL     OW22114   6.493   1.742   4.326 -0.0093 -0.2005  0.0862
 7072SOL    HW122115   6.480   1.695   4.414 -1.7425 -1.0348 -0.5802
 7072SOL    HW222116   6.567   1.697   4.275 -0.2501 -0.8839  0.3306
 7073SOL     OW22117   4.965   4.690   6.138  0.0858 -0.4888  0.4543
 7073SOL    HW122118   4.982   4.770   6.081  3.3693 -2.3648 -1.5657
 7073SOL    HW222119   4.906   4.626   6.088 -0.8883 -0.2107  1.2189
 7074SOL     OW22120   0.672   3.329   5.969  0.2735  0.3860 -0.1676
 7074SOL    HW122121   0.641   3.308   6.061 -0.7982 -1.4345 -0.8903
 7074SOL    HW222122   0.594   3.355   5.912  0.6801 -0.0051 -0.9232
 7075SOL     OW22123   0.408   0.959   5.313 -0.0981  0.1839 -0.0589
 7075SOL    HW122124   0.360   0.875   5.287  0.9605 -0.6221  0.4732
 7075SOL    HW222125   0.365   0.998   5.394 -0.7007  0.2521 -0.4065
 7076SOL     OW22126   1.875   6.067   5.841  0.9111  0.4495  0.5106
 7076SOL    HW122127   1.965   6.055   5.800  1.0166  1.1359  0.5279
 7076SOL    HW222128   1.805   6.058   5.771  0.9556 -0.5493  0.5775
 7077SOL     OW22129   3.285   6.259   2.061 -0.1737  0.0830  0.4937
 7077SOL    HW122130   3.293   6.227   2.156 -1.4392 -1.3473  0.1546
 7077SOL    HW222131   3.322   6.189   2.000 -0.8314  0.2939 -0.1533
 7078SOL     OW22132   6.193   1.807   1.906  0.1515  0.0153  0.1200
 7078SOL    HW122133   6.119   1.776   1.847 -0.0381 -0.9802  0.8687
 7078SOL    HW222134   6.253   1.731   1.928  0.5625  0.5050  0.7338
 7079SOL     OW22135   6.537   2.276   4.646 -0.1092 -0.2665 -0.3965
 7079SOL    HW122136   6.537   2.371   4.617 -0.1520 -0.1043  0.1224
 7079SOL    HW222137   6.571   2.269   4.740 -0.0412 -0.7679 -0.4531
 7080SOL     OW22138   4.809   5.124   0.691 -0.2349  0.0000 -0.3139
 7080SOL    HW122139   4.762   5.174   0.763 -1.3558 -3.2272  1.4112
 7080SOL    HW222140   4.864   5.051   0.732  1.5542 -0.0828 -2.6445
 7081SOL     OW22141   0.999   4.554   2.162  0.1575 -0.8605  0.0794
 7081SOL    HW122142   0.936   4.624   2.131  0.9334  0.4252  1.3154
 7081SOL    HW222143   0.953   4.493   2.226 -0.4266 -1.3219 -0.7549
 7082SOL     OW22144   0.256   6.514   6.687  0.3211 -0.0198  0.2521
 7082SOL    HW122145   0.287   6.607   6.707 -1.4863  0.3692  1.5000
 7082SOL    HW222146   0.319   6.472   6.622  0.3266  2.6349 -1.6597
 7083SOL     OW22147   4.297   5.945   6.163 -0.4158 -0.2963  0.0839
 7083SOL    HW122148   4.266   5.874   6.226  0.7361 -0.7172  0.2070
 7083SOL    HW222149   4.297   6.034   6.209  0.4295 -0.6008  0.6889
 7084SOL     OW22150   3.950   6.339   0.702  0.4832 -0.8886 -0.1834
 7084SOL    HW122151   4.005   6.400   0.760  0.1252 -0.5505 -0.1882
 7084SOL    HW222152   3.981   6.245   0.713 -1.4957 -1.3451  2.9687
 7085SOL     OW22153   4.835   6.967   4.946  0.1810  0.6083  0.2856
 7085SOL    HW122154   4.916   7.025   4.945  1.1443 -0.6430  1.3713
 7085SOL    HW222155   4.772   6.996   4.875  0.6511  2.9028  0.7404
 7086SOL     OW22156   6.189   1.798   3.502  0.2365 -0.9041  0.3971
 7086SOL    HW122157   6.185   1.705   3.536  0.5775 -0.8758  0.5149
 7086SOL    HW222158   6.187   1.862   3.579 -2.0032 -0.7454  0.2497
 7087SOL     OW22159   6.684   6.437   6.302  0.3384  0.0041 -0.3717
 7087SOL    HW122160   6.757   6.430   6.234 -0.4881  1.5661 -1.4826
 7087SOL    HW222161   6.610   6.494   6.266 -0.4128  0.3659  1.6114
 7088SOL     OW22162   0.577   4.917   0.463  0.2845  0.4085  0.1206
 7088SOL    HW122163   0.513   4.916   0.385  0.7558  0.0347 -0.2651
 7088SOL    HW222164   0.563   4.835   0.518  0.3021  0.4203  0.1422
 7089SOL     OW22165   2.676   5.046   4.293  0.1565 -0.3633  0.6772
 7089SOL    HW122166   2.683   5.130   4.347 -1.8243 -0.5492  1.2889
 7089SOL    HW222167   2.581   5.027   4.272  0.4895 -2.7039  0.9586
 7090SOL     OW22168   0.119   6.202   2.559 -0.2167 -0.7067  0.4664
 7090SOL    HW122169   0.095   6.289   2.602 -1.0265 -0.6634 -0.0599
 7090SOL    HW222170   0.211   6.208   2.521 -0.3062 -0.0515  0.3435
 7091SOL     OW22171   5.059   0.885   3.000  0.1082  0.2836 -0.6151
 7091SOL    HW122172   5.103   0.975   2.992  0.8764  0.0371  0.6649
 7091SOL    HW222173   5.129   0.816   3.019 -0.7000 -0.3074  0.2365
 7092SOL     OW22174   5.058   5.422   5.552 -0.5262  0.5249 -0.0104
 7092SOL    HW122175   5.029   5.517   5.560 -1.9208  0.3907 -2.5732
 7092SOL    HW222176   4.978   5.362   5.556  0.0110 -0.3120 -1.3201
 7093SOL     OW22177   4.981   5.318   1.866  0.1528  0.7562  0.0365
 7093SOL    HW122178   4.887   5.322   1.831  0.1113 -2.9065 -0.7028
 7093SOL    HW222179   5.039   5.380   1.814 -1.0353 -0.3257 -2.7798
 7094SOL     OW22180   1.276   6.242   4.847 -0.4114  0.4049  0.2723
 7094SOL    HW122181   1.202   6.304   4.820 -1.6782 -1.3214 -0.3771
 7094SOL    HW222182   1.307   6.266   4.939  0.4660  3.1578 -0.6427
 7095SOL     OW22183   0.093   0.934   4.858 -0.1425  0.3791  0.0746
 7095SOL    HW122184   0.141   0.984   4.786  0.0268 -0.4010 -0.3598
 7095SOL    HW222185   0.156   0.919   4.935 -0.2105  0.8759  0.2294
 7096SOL     OW22186   1.532   3.554   2.502  0.2575 -0.1008  0.5665
 7096SOL    HW122187   1.519   3.515   2.411  0.9725  1.0350 -0.0444
 7096SOL    HW222188   1.447   3.545   2.554 -0.2076 -0.6370 -0.2599
 7097SOL     OW22189   5.838   3.948   6.215 -0.2772 -0.5128 -0.1863
 7097SOL    HW122190   5.748   3.910   6.193  0.5959 -1.9963 -1.3592
 7097SOL    HW222191   5.865   4.013   6.144 -0.6903  0.4536  0.5195
 7098SOL     OW22192   1.349   1.521   4.175  0.2524  0.2055 -0.2650
 7098SOL    HW122193   1.414   1.449   4.152 -0.5768 -0.4134 -0.7092
 7098SOL    HW222194   1.317   1.508   4.269  0.7369  0.4890 -0.0584
 7099SOL     OW22195   4.591   5.611   4.466 -0.5707 -0.0551  0.1982
 7099SOL    HW122196   4.575   5.703   4.432 -1.0058  0.0638  0.7228
 7099SOL    HW222197   4.672   5.572   4.420  0.1401  0.9065  0.6143
 7100SOL     OW22198   0.579   6.026   6.921  0.1565  0.5037 -0.1307
 7100SOL    HW122199   0.531   6.077   6.850  1.1476  1.3869 -0.1858
 7100SOL    HW222200   0.671   6.063   6.933  0.7758 -1.0126  0.1016
 7101SOL     OW22201   6.546   3.265   4.137 -0.5300  0.4690 -0.4077
 7101SOL    HW122202   6.551   3.251   4.038  1.7308 -0.8923 -0.1972
 7101SOL    HW222203   6.604   3.197   4.182 -0.1724  2.1027  1.7526
 7102SOL     OW22204   5.952   0.085   5.625 -0.0454  0.5130  0.5948
 7102SOL    HW122205   5.902   0.000   5.607 -0.8197  0.8775  0.9814
 7102SOL    HW222206   5.954   0.102   5.723  0.9857  0.4259  0.5967
 7103SOL     OW22207   1.581   1.424   5.030  0.3829 -0.7369 -0.8102
 7103SOL    HW122208   1.654   1.356   5.029 -0.5485 -1.7851 -2.4509
 7103SOL    HW222209   1.578   1.468   5.120  1.1052 -2.7689  0.2760
 7104SOL     OW22210   1.854   5.550   3.944 -0.0136  0.4221  0.0765
 7104SOL    HW122211   1.877   5.465   3.992 -0.0960  0.5359  0.3183
 7104SOL    HW222212   1.823   5.618   4.010  0.3381  0.7403 -0.0787
 7105SOL     OW22213   6.594   3.886   1.053 -0.0408  0.5919  0.5204
 7105SOL    HW122214   6.574   3.983   1.065  1.5125  1.0273 -0.1552
 7105SOL    HW222215   6.657   3.856   1.125 -2.4963 -0.6292  2.3404
 7106SOL     OW22216   3.393   1.735   0.460  0.0259  0.0526  0.2854
 7106SOL    HW122217   3.423   1.696   0.372 -0.1430  0.5151  0.0196
 7106SOL    HW222218   3.390   1.663   0.529  2.5871  0.0966  0.5476
 7107SOL     OW22219   6.203   3.495   6.747 -0.4278 -0.3690  0.3071
 7107SOL    HW122220   6.121   3.480   6.693 -1.1997  0.8633  1.0804
 7107SOL    HW222221   6.239   3.408   6.779 -1.6117 -0.9039  0.1985
 7108SOL     OW22222   5.278   1.574   1.809  0.0545 -0.6577 -0.4900
 7108SOL    HW122223   5.257   1.591   1.713  1.3519 -0.8875 -0.8415
 7108SOL    HW222224   5.332   1.651   1.845 -1.1532 -0.1597  0.3198
 7109SOL     OW22225   3.152   6.123   4.062 -0.5941 -0.4180  0.3376
 7109SOL    HW122226   3.163   6.202   4.001  1.4503 -0.4613  0.5802
 7109SOL    HW222227   3.108   6.048   4.012  1.5866 -0.6691 -1.3342
 7110SOL     OW22228   5.078   1.835   5.859 -0.2528  0.2440 -0.3248
 7110SOL    HW122229   5.122   1.861   5.945 -0.5225 -0.2739 -0.0269
 7110SOL    HW222230   5.108   1.897   5.787 -1.2526  1.7046  0.4595
 7111SOL     OW22231   5.885   5.298   5.861  0.2198  0.6609 -0.4055
 7111SOL    HW122232   5.964   5.250   5.822  1.2167  1.0083  1.0908
 7111SOL    HW222233   5.909   5.394   5.876 -0.6253  0.8566 -0.2705
 7112SOL     OW22234   5.990   5.099   5.102 -0.0203 -0.0083 -0.2948
 7112SOL    HW122235   5.910   5.091   5.042 -0.5973  0.5096  0.3888
 7112SOL    HW222236   5.995   5.018   5.161  0.3732 -0.3743 -0.8242
 7113SOL     OW22237   5.409   5.176   5.233  0.2706  0.8622 -0.0620
 7113SOL    HW122238   5.460   5.220   5.307 -0.0020  0.3412  0.4428
 7113SOL    HW222239   5.417   5.077   5.240 -0.2355  0.7919 -0.3874
 7114SOL     OW22240   3.120   2.573   6.372  0.1900  0.1542 -0.5706
 7114SOL    HW122241   3.089   2.591   6.465 -0.6011 -1.0724 -0.5693
 7114SOL    HW222242   3.198   2.510   6.374 -1.3107 -1.8230 -0.7638
 7115SOL     OW22243   3.762   3.591   3.600 -0.0287  0.5779  0.5826
 7115SOL    HW122244   3.819   3.668   3.570 -0.2345  0.2842 -0.6077
 7115SOL    HW222245   3.714   3.616   3.684 -1.0623  2.2210 -0.4346
 7116SOL     OW22246   2.206   2.898   2.397  0.4172  0.6480 -0.1188
 7116SOL    HW122247   2.290   2.847   2.380 -1.1285 -1.9419 -0.5522
 7116SOL    HW222248   2.167   2.870   2.484  0.1360  2.0414  0.2236
 7117SOL     OW22249   6.551   5.003   3.313  0.6277 -0.4575  0.0816
 7117SOL    HW122250   6.608   4.991   3.395  2.3401 -0.6022 -1.0883
 7117SOL    HW222251   6.496   4.920   3.299  1.5108 -1.0816  0.2069
 7118SOL     OW22252   3.193   2.192   3.136  0.3630  0.3647  0.2817
 7118SOL    HW122253   3.240   2.144   3.210  1.3301  0.5600 -0.1903
 7118SOL    HW222254   3.260   2.236   3.077 -0.4918  2.4601  0.7987
 7119SOL     OW22255   2.139   1.350   5.395  0.0982  0.4036  0.2189
 7119SOL    HW122256   2.040   1.366   5.384 -0.1802 -1.0118  0.4692
 7119SOL    HW222257   2.165   1.368   5.490 -0.2983 -0.9836  0.6080
 7120SOL     OW22258   5.343   3.156   0.121  0.6297 -0.3790 -0.7146
 7120SOL    HW122259   5.271   3.134   0.055  0.0449 -1.4916  0.2572
 7120SOL    HW222260   5.406   3.079   0.128 -0.6309 -1.2947  1.6871
 7121SOL     OW22261   1.279   3.203   5.099 -0.3589 -0.6559  0.0079
 7121SOL    HW122262   1.363   3.249   5.127  0.7296 -0.2645 -3.3695
 7121SOL    HW222263   1.200   3.257   5.128  0.6996  0.7911  0.3147
 7122SOL     OW22264   5.261   4.955   3.068  0.1438  0.0789 -1.0207
 7122SOL    HW122265   5.191   5.025   3.052  0.4498  0.9768  1.2490
 7122SOL    HW222266   5.292   4.919   2.980 -1.4469  1.3677 -2.1703
 7123SOL     OW22267   0.887   1.592   3.487 -0.0589 -0.2166  0.1204
 7123SOL    HW122268   0.950   1.551   3.552 -1.1220 -0.4492  1.0417
 7123SOL    HW222269   0.841   1.670   3.530 -0.8639 -0.4420 -0.3036
 7124SOL     OW22270   2.331   0.209   5.408 -0.0439 -0.5302 -0.1687
 7124SOL    HW122271   2.403   0.247   5.466 -1.4417 -0.9844  1.9798
 7124SOL    HW222272   2.242   0.233   5.446 -1.0662 -0.3800 -2.5005
 7125SOL     OW22273   2.228   1.273   2.996 -0.4946 -0.0044  0.2132
 7125SOL    HW122274   2.234   1.322   2.909 -0.4009 -0.4839 -0.0555
 7125SOL    HW222275   2.320   1.255   3.031 -0.4342 -1.8851 -0.7858
 7126SOL     OW22276   6.992   5.025   5.166  0.2335 -0.0345  0.3889
 7126SOL    HW122277   7.065   5.085   5.199  0.5537 -0.7261  0.9565
 7126SOL    HW222278   7.033   4.946   5.121 -0.1794 -0.1116  0.1510
 7127SOL     OW22279   3.208   1.906   2.785 -0.4488 -0.7592  0.2916
 7127SOL    HW122280   3.239   1.956   2.704 -0.4043 -2.7968 -1.0090
 7127SOL    HW222281   3.115   1.936   2.809  0.2003  1.1292  0.6194
 7128SOL     OW22282   5.344   5.770   1.765 -0.0796  0.3863 -0.0503
 7128SOL    HW122283   5.438   5.798   1.748 -0.2258 -0.4441 -2.6501
 7128SOL    HW222284   5.294   5.765   1.679 -1.8612 -1.4134  0.9840
 7129SOL     OW22285   0.749   4.564   1.667  0.2440 -0.0692  0.4118
 7129SOL    HW122286   0.682   4.586   1.596  0.8802  0.8839  0.0940
 7129SOL    HW222287   0.792   4.476   1.646 -1.9020 -1.4392  1.3810
 7130SOL     OW22288   6.095   2.148   4.954  0.0457  0.1224  0.1519
 7130SOL    HW122289   6.190   2.118   4.961  0.3198  0.7335 -0.7411
 7130SOL    HW222290   6.087   2.240   4.992  0.0314  0.4782 -0.6841
 7131SOL     OW22291   0.991   1.488   4.125 -0.6750 -0.1785  0.2090
 7131SOL    HW122292   0.905   1.504   4.174  0.6127  1.5206  2.0822
 7131SOL    HW222293   1.044   1.417   4.172  0.3751  1.1535  1.1208
 7132SOL     OW22294   2.210   5.738   5.397  0.0009 -0.2749  0.1212
 7132SOL    HW122295   2.125   5.779   5.429  0.2542 -1.1521  2.0620
 7132SOL    HW222296   2.190   5.653   5.348 -0.3641  0.8562 -1.7820
 7133SOL     OW22297   3.423   0.729   5.240 -0.0935 -0.1154  0.3415
 7133SOL    HW122298   3.514   0.751   5.207 -0.8792  2.2315 -0.4994
 7133SOL    HW222299   3.375   0.672   5.173  0.7257 -1.3560  0.7910
 7134SOL     OW22300   6.092   2.359   3.939  0.2301  0.6849 -0.3193
 7134SOL    HW122301   6.087   2.395   4.032  0.9979  2.1343 -0.8106
 7134SOL    HW222302   6.155   2.415   3.884  0.2626 -0.4959 -1.5556
 7135SOL     OW22303   6.822   4.267   4.342  0.0172 -0.1879 -0.2587
 7135SOL    HW122304   6.727   4.285   4.365  0.1292  1.0458 -0.6756
 7135SOL    HW222305   6.830   4.175   4.303 -0.8523 -0.6231  0.5485
 7136SOL     OW22306   5.907   5.128   1.228  0.0731 -0.6215 -0.6240
 7136SOL    HW122307   5.992   5.150   1.178 -1.0932  3.3456 -1.2360
 7136SOL    HW222308   5.848   5.073   1.169  0.7803 -0.3110 -1.6660
 7137SOL     OW22309   3.703   0.755   6.276  0.5183 -0.0874 -0.7995
 7137SOL    HW122310   3.744   0.666   6.255  1.5988  0.3274 -0.5328
 7137SOL    HW222311   3.706   0.813   6.194 -0.1415 -0.2732 -0.9601
 7138SOL     OW22312   2.092   5.115   3.673  0.4954  0.0442  0.1911
 7138SOL    HW122313   2.097   5.111   3.573  0.1721  3.5955 -0.0702
 7138SOL    HW222314   2.003   5.080   3.703  0.8696 -1.7489 -0.6307
 7139SOL     OW22315   5.946   0.244   3.029 -0.2793  0.0605  0.1554
 7139SOL    HW122316   5.985   0.163   2.985 -2.0893  0.8802 -3.2822
 7139SOL    HW222317   6.015   0.315   3.035  0.9866 -1.2532  2.0770
 7140SOL     OW22318   4.914   4.476   3.333 -0.2598  0.0664 -0.0163
 7140SOL    HW122319   4.989   4.537   3.355 -0.0213  0.5044 -1.8399
 7140SOL    HW222320   4.947   4.403   3.273 -0.7659 -1.2613  1.2823
 7141SOL     OW22321   4.821   2.891   2.644 -0.0155 -0.2002 -0.4162
 7141SOL    HW122322   4.802   2.817   2.579 -2.2396  1.6168 -2.0197
 7141SOL    HW222323   4.846   2.974   2.593  0.9180  0.5715  1.2321
 7142SOL     OW22324   0.953   5.658   5.511 -0.4428  0.0565 -0.1122
 7142SOL    HW122325   1.030   5.595   5.499  0.6451  1.2942  0.1740
 7142SOL    HW222326   0.920   5.653   5.605 -0.7898 -0.5349 -0.2567
 7143SOL     OW22327   2.277   4.772   0.468 -0.0862 -0.9871 -0.0092
 7143SOL    HW122328   2.246   4.778   0.373 -1.3259 -1.3363  0.3596
 7143SOL    HW222329   2.266   4.678   0.500  1.0240 -1.0375  0.2616
 7144SOL     OW22330   0.465   4.738   3.667 -0.0947 -0.4965 -0.3079
 7144SOL    HW122331   0.528   4.664   3.689 -0.4748 -0.1219  2.5148
 7144SOL    HW222332   0.515   4.816   3.630  0.8470 -0.8469  0.2159
 7145SOL     OW22333   6.895   1.116   5.658 -0.2180 -0.0192 -0.0014
 7145SOL    HW122334   6.815   1.074   5.701 -0.7689 -0.0232 -1.0022
 7145SOL    HW222335   6.896   1.214   5.676 -0.9726  0.1370 -0.7640
 7146SOL     OW22336   3.178   2.102   0.179 -1.1808 -0.1314 -0.1423
 7146SOL    HW122337   3.189   2.113   0.080 -0.7594 -2.6138 -0.4274
 7146SOL    HW222338   3.082   2.082   0.200 -2.0472  3.6658  0.4273
 7147SOL     OW22339   0.275   5.101   2.225 -0.8993 -0.4010  0.6299
 7147SOL    HW122340   0.272   5.201   2.230  0.6417 -0.0901 -2.4273
 7147SOL    HW222341   0.271   5.063   2.318  0.5067  2.5845  2.0469
 7148SOL     OW22342   2.387   6.091   4.031 -0.3305  0.3392  0.6189
 7148SOL    HW122343   2.336   6.164   3.984  0.8733 -0.0578 -1.4281
 7148SOL    HW222344   2.326   6.044   4.095 -1.9838  1.1348 -0.3093
 7149SOL     OW22345   0.987   5.875   1.817  0.1383 -0.0186 -0.6500
 7149SOL    HW122346   1.039   5.952   1.781  1.2086 -0.4569 -0.0763
 7149SOL    HW222347   1.006   5.865   1.915  0.4494 -1.3444 -0.8274
 7150SOL     OW22348   4.253   2.256   5.938 -0.9123 -0.2662 -0.8168
 7150SOL    HW122349   4.351   2.274   5.951 -1.5341  2.4523  1.2124
 7150SOL    HW222350   4.231   2.164   5.969  0.8772 -0.6686 -0.6372
 7151SOL     OW22351   3.801   0.462   2.671  0.4719  0.1832 -0.8262
 7151SOL    HW122352   3.883   0.420   2.711 -1.0360 -0.6501  1.6012
 7151SOL    HW222353   3.826   0.546   2.623  2.6733  0.2590  0.3357
 7152SOL     OW22354   0.086   0.037   1.325  0.2428 -0.6282  0.8572
 7152SOL    HW122355   0.021   0.100   1.282 -0.9629 -1.7668  0.9578
 7152SOL    HW222356   0.178   0.077   1.323 -0.4287  0.9377  0.5663
 7153SOL     OW22357   4.370   0.706   4.809 -0.7008  0.4867 -0.5457
 7153SOL    HW122358   4.283   0.696   4.859  0.3164  0.3750  1.2937
 7153SOL    HW222359   4.411   0.794   4.832  1.0143 -0.6242  0.9077
 7154SOL     OW22360   6.071   3.137   4.203 -0.2461 -0.3308  0.2138
 7154SOL    HW122361   6.154   3.090   4.233 -0.2051  0.2530  1.0603
 7154SOL    HW222362   6.021   3.171   4.283 -0.3944  0.8301 -0.3492
 7155SOL     OW22363   5.766   3.438   0.450 -0.3310 -0.0099  0.2806
 7155SOL    HW122364   5.700   3.496   0.496 -1.4076 -1.7096  0.9379
 7155SOL    HW222365   5.755   3.447   0.351 -0.2503  1.1271  0.3614
 7156SOL     OW22366   6.109   1.964   4.224  0.2333  0.5702  0.1219
 7156SOL    HW122367   6.201   1.948   4.187 -0.7599  0.2644 -2.4423
 7156SOL    HW222368   6.096   2.062   4.239  1.2176  0.5429  1.2562
 7157SOL     OW22369   5.842   4.118   1.801 -0.2547 -0.1121  0.0782
 7157SOL    HW122370   5.854   4.031   1.849 -2.6434 -0.9445 -0.7008
 7157SOL    HW222371   5.785   4.104   1.720  1.6226  1.7160 -1.6760
 7158SOL     OW22372   6.107   1.591   2.242 -0.0564  0.0728  0.4841
 7158SOL    HW122373   6.155   1.677   2.224 -1.7291  1.4890  2.4479
 7158SOL    HW222374   6.017   1.593   2.199 -0.3415 -0.4424  1.0397
 7159SOL     OW22375   6.545   3.004   4.526 -0.0346 -0.0452  0.2595
 7159SOL    HW122376   6.458   2.999   4.574 -0.2869  0.7774 -0.1026
 7159SOL    HW222377   6.571   2.912   4.494 -1.7492 -0.0082 -1.3970
 7160SOL     OW22378   6.844   0.372   0.663  0.2444  0.0826  0.2400
 7160SOL    HW122379   6.883   0.376   0.755  0.7299 -1.7918  0.1559
 7160SOL    HW222380   6.745   0.358   0.670  0.4762 -1.6930  0.5445
 7161SOL     OW22381   5.604   5.492   5.256  0.3155  0.3643  0.3932
 7161SOL    HW122382   5.664   5.413   5.269  0.3217  0.3923  0.5339
 7161SOL    HW222383   5.625   5.535   5.168  2.5650  2.1255  1.6604
 7162SOL     OW22384   5.989   0.382   2.151 -0.2923 -0.4758 -0.5428
 7162SOL    HW122385   5.944   0.427   2.228  2.3486  1.2470  0.1277
 7162SOL    HW222386   6.014   0.450   2.082 -1.3938 -1.8054 -2.3592
 7163SOL     OW22387   5.344   0.502   0.189 -0.0214  0.7323 -0.0772
 7163SOL    HW122388   5.442   0.516   0.203 -0.2921  1.8760  0.8054
 7163SOL    HW222389   5.303   0.467   0.273  0.0805 -2.7100 -1.2814
 7164SOL     OW22390   6.527   1.264   6.062  0.5272 -0.2508 -0.4993
 7164SOL    HW122391   6.554   1.250   6.157  0.4610  0.2862 -0.3961
 7164SOL    HW222392   6.486   1.180   6.026  1.1395 -0.6635 -0.2569
 7165SOL     OW22393   0.661   5.362   2.302 -0.0512  0.3282  0.0033
 7165SOL    HW122394   0.654   5.440   2.364 -1.8418  0.7929 -0.7247
 7165SOL    HW222395   0.741   5.373   2.243 -1.1573  2.5027 -1.1978
 7166SOL     OW22396   3.743   5.365   1.105  0.6976  0.5316  0.0757
 7166SOL    HW122397   3.674   5.340   1.037 -0.0340 -1.0085  1.3048
 7166SOL    HW222398   3.800   5.439   1.069  0.1793 -0.0319 -2.0780
 7167SOL     OW22399   0.348   1.164   4.848 -0.6924  0.5152 -0.2414
 7167SOL    HW122400   0.400   1.112   4.781 -0.2240  0.4202  0.1856
 7167SOL    HW222401   0.397   1.248   4.872 -1.4363  1.1501 -0.9097
 7168SOL     OW22402   1.974   1.383   1.326  0.2071  0.6001 -1.0176
 7168SOL    HW122403   2.073   1.379   1.339  0.2638  1.8679 -0.9158
 7168SOL    HW222404   1.929   1.348   1.408  0.5654  0.3121 -0.9382
 7169SOL     OW22405   6.135   0.064   2.167 -0.2467  0.5449  0.4116
 7169SOL    HW122406   6.050   0.016   2.189 -0.9005  2.3132  2.0254
 7169SOL    HW222407   6.165   0.117   2.246  2.6315 -0.3284  0.0359
 7170SOL     OW22408   4.189   4.762   3.007  0.0789 -0.1735 -0.4442
 7170SOL    HW122409   4.236   4.690   2.956 -0.0783  0.6174 -1.7497
 7170SOL    HW222410   4.228   4.851   2.983  0.2973  0.2018  1.1767
 7171SOL     OW22411   6.058   4.407   4.872  0.5874 -0.4395 -0.9168
 7171SOL    HW122412   6.149   4.389   4.909 -0.0895 -0.3408  0.9398
 7171SOL    HW222413   6.064   4.432   4.776  2.5482 -0.0913 -0.7307
 7172SOL     OW22414   5.748   1.947   5.128  0.1454 -0.1438 -0.3974
 7172SOL    HW122415   5.785   1.997   5.205 -1.6838  0.3757  0.2064
 7172SOL    HW222416   5.822   1.910   5.072  1.5066 -0.2935  1.4373
 7173SOL     OW22417   1.234   6.555   3.747  0.0371  0.4436 -0.2114
 7173SOL    HW122418   1.189   6.561   3.836  1.1383  0.5303  0.3544
 7173SOL    HW222419   1.179   6.499   3.685 -0.7713  0.4401  0.5038
 7174SOL     OW22420   2.324   6.036   2.052  0.6037  0.1184  0.1173
 7174SOL    HW122421   2.311   6.135   2.045  0.7753  0.1415  0.1381
 7174SOL    HW222422   2.274   5.991   1.978 -0.3979  0.1482  0.7543
 7175SOL     OW22423   6.281   3.273   4.489  0.3518  0.3235  0.1309
 7175SOL    HW122424   6.305   3.328   4.409 -1.6054 -0.6955 -1.2504
 7175SOL    HW222425   6.182   3.257   4.489  0.7097 -2.3242  1.0321
 7176SOL     OW22426   6.178   2.810   1.493 -0.2531 -0.2804 -0.0834
 7176SOL    HW122427   6.221   2.857   1.570 -0.1440 -0.1956 -0.1972
 7176SOL    HW222428   6.155   2.876   1.422 -0.2697 -0.3729 -0.1645
 7177SOL     OW22429   2.103   6.616   0.956 -0.4015 -0.8123 -0.0396
 7177SOL    HW122430   2.163   6.643   1.032 -0.9573  0.9990 -0.1972
 7177SOL    HW222431   2.127   6.669   0.875 -3.3816  1.4201  0.3944
 7178SOL     OW22432   0.414   5.786   4.597  0.5845  0.1803  0.3404
 7178SOL    HW122433   0.424   5.789   4.497  1.6310 -2.5227  0.2773
 7178SOL    HW222434   0.497   5.823   4.639  0.7113  0.0809  0.1809
 7179SOL     OW22435   6.126   2.692   5.174  0.0709  0.5778  0.0907
 7179SOL    HW122436   6.156   2.702   5.080 -0.0223  1.4668  0.1420
 7179SOL    HW222437   6.026   2.695   5.178 -0.0537 -1.7076 -0.0086
 7180SOL     OW22438   7.022   6.434   0.112 -0.6444  0.2116  0.2729
 7180SOL    HW122439   7.003   6.337   0.126  2.3797 -0.6887 -0.9967
 7180SOL    HW222440   7.120   6.451   0.121 -0.8070  2.7807 -1.5467
 7181SOL     OW22441   4.358   5.532   6.309 -0.1666  0.1827  0.0782
 7181SOL    HW122442   4.340   5.628   6.333  0.8236  0.5995 -0.7747
 7181SOL    HW222443   4.377   5.525   6.211 -1.5361 -1.0969 -0.1155
 7182SOL     OW22444   0.107   0.702   2.207 -0.1607  0.1109  0.2118
 7182SOL    HW122445   0.106   0.604   2.190  0.3879  0.2486 -0.6838
 7182SOL    HW222446   0.027   0.744   2.166 -0.4310  0.0373  0.6539
 7183SOL     OW22447   5.164   3.777   4.960  0.6725 -0.4481 -0.3122
 7183SOL    HW122448   5.245   3.827   4.993  0.5737 -0.6978  0.3225
 7183SOL    HW222449   5.094   3.777   5.031 -0.0455  0.1106 -1.0169
 7184SOL     OW22450   3.035   6.090   3.438 -0.0460 -0.6209  0.0707
 7184SOL    HW122451   2.969   6.164   3.425  1.6544  0.7447 -1.2513
 7184SOL    HW222452   3.031   6.029   3.360  0.2579 -0.5381 -0.0080
 7185SOL     OW22453   5.440   3.387   2.515 -0.5034 -0.0509  0.0297
 7185SOL    HW122454   5.413   3.324   2.441  0.6604 -0.9694  0.3576
 7185SOL    HW222455   5.449   3.336   2.600 -0.6421  0.7901  0.5596
 7186SOL     OW22456   1.912   2.290   0.683 -0.5742  0.4440 -0.0843
 7186SOL    HW122457   1.945   2.244   0.600  2.1652  2.4538 -0.2560
 7186SOL    HW222458   1.918   2.389   0.670 -1.2165  0.8172  2.1078
 7187SOL     OW22459   4.495   0.883   1.837 -0.0582  0.7062 -0.0659
 7187SOL    HW122460   4.396   0.869   1.839 -0.1075  1.0002 -0.4026
 7187SOL    HW222461   4.515   0.974   1.800  0.3301  0.7411  0.2239
 7188SOL     OW22462   4.962   3.683   3.065  0.1711  0.1281 -0.1852
 7188SOL    HW122463   4.988   3.591   3.092  0.2073 -0.1728 -1.1882
 7188SOL    HW222464   4.918   3.730   3.141  1.7781 -0.0698  0.9167
 7189SOL     OW22465   3.240   2.140   6.939 -0.3768  0.1784 -0.0779
 7189SOL    HW122466   3.277   2.056   6.899 -3.3933 -0.5747 -1.5356
 7189SOL    HW222467   3.245   2.214   6.872  0.9764  0.8627  0.7211
 7190SOL     OW22468   1.260   2.486   5.902 -0.4974  0.3086 -0.0068
 7190SOL    HW122469   1.192   2.438   5.847 -0.3032  0.0895 -0.0620
 7190SOL    HW222470   1.218   2.563   5.949 -0.8583 -0.0392  0.2395
 7191SOL     OW22471   5.148   3.269   3.086 -0.0360  0.3877 -0.1308
 7191SOL    HW122472   5.201   3.272   3.001 -1.3495  0.0592 -0.9804
 7191SOL    HW222473   5.165   3.183   3.133  0.0397  0.2086 -0.4850
 7192SOL     OW22474   1.472   6.967   1.809 -0.3582 -0.2519 -0.5331
 7192SOL    HW122475   1.460   6.870   1.792  1.1061 -0.7810  1.0518
 7192SOL    HW222476   1.487   7.015   1.723 -1.6199 -1.3247 -1.3837
 7193SOL     OW22477   0.240   2.850   5.221 -0.2533  0.0720 -0.2833
 7193SOL    HW122478   0.223   2.872   5.125 -0.8532 -0.5105 -0.3195
 7193SOL    HW222479   0.256   2.752   5.231 -1.3397 -0.0613  0.3490
 7194SOL     OW22480   2.003   4.580   1.491 -0.1059 -0.1957 -0.2706
 7194SOL    HW122481   1.961   4.670   1.477  2.3947  0.6949 -3.4042
 7194SOL    HW222482   2.042   4.576   1.584 -2.1117  1.0494  0.6957
 7195SOL     OW22483   1.485   6.620   5.331  0.6099 -0.0879 -0.1140
 7195SOL    HW122484   1.415   6.688   5.311 -0.8265 -1.7006 -0.7753
 7195SOL    HW222485   1.465   6.575   5.418 -0.6820 -2.2858 -1.4495
 7196SOL     OW22486   0.724   2.750   0.203  0.2367  0.1715  0.4546
 7196SOL    HW122487   0.686   2.837   0.171  1.0561  0.5207  0.3841
 7196SOL    HW222488   0.805   2.769   0.259  0.2062 -0.5357  0.7410
 7197SOL     OW22489   2.001   2.517   1.466  0.3550 -0.1515  0.2122
 7197SOL    HW122490   2.067   2.523   1.542 -0.2201  2.4116  0.6141
 7197SOL    HW222491   1.976   2.421   1.451  2.1639 -0.9365  1.7865
 7198SOL     OW22492   3.654   6.799   3.773 -0.1779  0.1795 -0.1151
 7198SOL    HW122493   3.732   6.760   3.723  1.2799 -0.7076  2.6801
 7198SOL    HW222494   3.597   6.725   3.808 -0.5428  0.7491  0.4960
 7199SOL     OW22495   0.255   3.819   1.605 -0.3686 -0.7177  0.1190
 7199SOL    HW122496   0.234   3.800   1.700  1.0547 -0.0241  0.5957
 7199SOL    HW222497   0.176   3.864   1.562 -0.9769 -0.9388  0.9876
 7200SOL     OW22498   5.251   0.097   2.687 -0.0921 -0.2900  0.5200
 7200SOL    HW122499   5.165   0.069   2.644 -1.2995  1.7375  1.5005
 7200SOL    HW222500   5.235   0.120   2.783  0.6789  3.6781 -0.1259
 7201SOL     OW22501   4.041   1.791   4.600  0.9500  0.0097  0.4372
 7201SOL    HW122502   3.998   1.737   4.528 -0.4893 -0.7807  1.8350
 7201SOL    HW222503   3.998   1.882   4.602  0.2717 -0.3097  0.9263
 7202SOL     OW22504   5.125   4.311   4.303  0.7000  0.2417  0.2832
 7202SOL    HW122505   5.050   4.295   4.239  1.2696 -0.4465 -0.2382
 7202SOL    HW222506   5.130   4.235   4.368  1.5087 -0.1943 -0.2681
 7203SOL     OW22507   5.339   1.806   2.533  0.2396  0.5788 -0.6649
 7203SOL    HW122508   5.345   1.844   2.625 -1.0820  1.2609 -0.8382
 7203SOL    HW222509   5.284   1.722   2.535  0.3989  0.4696 -0.8028
 7204SOL     OW22510   0.405   0.033   5.552  0.2584 -0.0890  0.1755
 7204SOL    HW122511   0.450   0.108   5.503  0.0399  0.9000  1.4293
 7204SOL    HW222512   0.440   0.030   5.645 -2.1463  0.6475  1.1647
 7205SOL     OW22513   0.280   4.608   4.835  0.5203 -0.0400 -0.2625
 7205SOL    HW122514   0.334   4.633   4.755  1.2787 -1.3397 -0.1886
 7205SOL    HW222515   0.226   4.527   4.814  1.9904 -1.4261  0.9907
 7206SOL     OW22516   0.244   2.941   0.729 -0.1995  0.2267  0.5805
 7206SOL    HW122517   0.223   2.925   0.632  1.2748  2.4786 -0.1951
 7206SOL    HW222518   0.184   3.012   0.765  0.1816  0.3805  0.9184
 7207SOL     OW22519   6.919   1.901   1.125 -0.7217  0.0668  0.6524
 7207SOL    HW122520   6.866   1.908   1.210  0.9717 -0.1808  1.7952
 7207SOL    HW222521   6.928   1.991   1.084 -1.3500  0.2336  0.8629
 7208SOL     OW22522   2.390   5.078   4.247  0.3153  0.1952 -0.1235
 7208SOL    HW122523   2.337   5.021   4.184  1.7539  0.3532 -1.5493
 7208SOL    HW222524   2.355   5.066   4.340 -0.4955 -1.7098 -0.6196
 7209SOL     OW22525   2.044   0.807   1.787  0.3714  0.0063 -0.2428
 7209SOL    HW122526   2.045   0.721   1.736  0.9585 -0.1458  0.0135
 7209SOL    HW222527   2.099   0.797   1.870  1.1107  0.8668 -0.6072
 7210SOL     OW22528   0.841   4.255   6.503 -0.1970 -0.1823 -0.2113
 7210SOL    HW122529   0.880   4.188   6.566 -1.6038 -0.1187  0.7741
 7210SOL    HW222530   0.908   4.328   6.486  0.1009 -0.0266  1.4897
 7211SOL     OW22531   2.678   0.369   5.414 -0.0911 -0.3691  0.1829
 7211SOL    HW122532   2.694   0.360   5.512 -0.1255 -0.1785  0.2059
 7211SOL    HW222533   2.765   0.376   5.366 -0.0791 -0.2984  0.2155
 7212SOL     OW22534   1.116   0.312   2.850  0.0225 -0.9266  0.2145
 7212SOL    HW122535   1.027   0.342   2.885  0.4176 -0.0165  0.4688
 7212SOL    HW222536   1.123   0.335   2.753  0.1059 -0.6794  0.2767
 7213SOL     OW22537   2.494   5.020   0.927 -0.2922  0.3713 -0.2223
 7213SOL    HW122538   2.416   5.029   0.865 -1.8425  1.8624  1.8192
 7213SOL    HW222539   2.544   5.106   0.931 -1.6587  1.1576  2.2994
 7214SOL     OW22540   5.062   5.480   6.552  0.2232 -0.6951  0.2767
 7214SOL    HW122541   5.067   5.470   6.652 -0.0020  0.2748  0.3994
 7214SOL    HW222542   4.988   5.543   6.529  0.5438 -0.5860 -0.4795
 7215SOL     OW22543   3.192   1.495   4.079 -0.2736 -0.3809 -0.3915
 7215SOL    HW122544   3.093   1.483   4.076 -0.2062 -0.8746 -0.7301
 7215SOL    HW222545   3.236   1.420   4.029  0.2027  0.6986 -1.6410
 7216SOL     OW22546   0.892   0.237   3.747  0.5207  0.1088  0.0286
 7216SOL    HW122547   0.792   0.249   3.742  0.7363  1.6537 -1.4740
 7216SOL    HW222548   0.936   0.296   3.679  2.4477 -0.9779  0.2624
 7217SOL     OW22549   0.149   0.411   2.197  0.0962 -0.5832  0.0982
 7217SOL    HW122550   0.181   0.353   2.271  1.8698  0.9703  0.6390
 7217SOL    HW222551   0.194   0.384   2.112 -1.4321 -1.9284 -0.3436
 7218SOL     OW22552   3.961   2.842   6.972  0.5394 -0.4302  0.5511
 7218SOL    HW122553   3.902   2.761   6.972 -0.1090  0.0379  0.6637
 7218SOL    HW222554   3.914   2.918   7.016  0.3758  0.5559 -1.2184
 7219SOL     OW22555   5.769   3.091   0.283 -0.3329  0.1611  0.4265
 7219SOL    HW122556   5.746   3.036   0.364  0.8052 -2.4286 -0.9005
 7219SOL    HW222557   5.856   3.138   0.298  1.6607 -2.9938 -0.3715
 7220SOL     OW22558   6.128   2.439   2.341  0.0675 -0.0942 -0.0019
 7220SOL    HW122559   6.175   2.525   2.319  0.5993 -0.4479 -0.2881
 7220SOL    HW222560   6.188   2.382   2.396 -0.4814 -0.0751  0.6229
 7221SOL     OW22561   0.849   1.118   3.435 -0.1987  0.1433 -0.4586
 7221SOL    HW122562   0.771   1.181   3.430 -0.5909 -0.3842 -1.2811
 7221SOL    HW222563   0.916   1.153   3.500 -1.4802  0.2149  0.8984
 7222SOL     OW22564   0.266   1.459   6.880 -0.4702 -0.3173  0.1312
 7222SOL    HW122565   0.170   1.458   6.909 -0.6115  0.2770 -0.3151
 7222SOL    HW222566   0.271   1.454   6.780  0.0381 -4.2430  0.1878
 7223SOL     OW22567   1.456   1.341   0.081 -0.0906 -0.3539  0.6787
 7223SOL    HW122568   1.448   1.366   0.177 -1.5871 -2.4028  1.1668
 7223SOL    HW222569   1.369   1.359   0.035 -0.9261 -3.4170  0.8427
 7224SOL     OW22570   4.971   4.593   0.763  0.5186 -0.0690  0.0570
 7224SOL    HW122571   4.979   4.668   0.697  0.5362 -0.8429 -0.8478
 7224SOL    HW222572   4.922   4.625   0.844 -2.9183  0.0046 -1.8305
 7225SOL     OW22573   3.750   2.725   1.366  0.1331 -0.2246  0.1934
 7225SOL    HW122574   3.758   2.744   1.463 -0.1270  0.4786  0.0862
 7225SOL    HW222575   3.718   2.807   1.318 -1.0038 -0.9263 -0.3086
 7226SOL     OW22576   0.257   4.594   2.783 -0.2360  0.3271  0.2907
 7226SOL    HW122577   0.160   4.610   2.806 -0.6252 -0.7803 -0.5189
 7226SOL    HW222578   0.314   4.652   2.841 -1.3638  0.7095  1.0623
 7227SOL     OW22579   4.115   2.280   4.497 -0.1097 -0.6611 -0.1855
 7227SOL    HW122580   4.093   2.281   4.595  0.1403 -0.0014 -0.1294
 7227SOL    HW222581   4.128   2.373   4.465  1.3883 -0.9487 -0.4867
 7228SOL     OW22582   1.068   0.424   3.325 -0.6862  0.8716  0.2624
 7228SOL    HW122583   1.066   0.478   3.240  1.0209  1.0235  0.2832
 7228SOL    HW222584   1.011   0.343   3.314  0.8380 -0.0303 -1.7017
 7229SOL     OW22585   3.963   0.423   6.646  0.1993  0.2467 -0.8171
 7229SOL    HW122586   3.961   0.496   6.713  2.0123 -0.0383 -0.3945
 7229SOL    HW222587   3.970   0.461   6.554 -1.0909  0.6150 -0.7767
 7230SOL     OW22588   5.149   2.223   4.129 -0.5451 -0.0474 -0.7058
 7230SOL    HW122589   5.093   2.283   4.187  0.1742 -0.8192  0.8706
 7230SOL    HW222590   5.173   2.140   4.181  0.9265 -0.3482 -1.7952
 7231SOL     OW22591   5.343   6.676   0.924 -0.1057 -0.2026  0.1301
 7231SOL    HW122592   5.434   6.688   0.962  0.4670 -2.7655 -0.2385
 7231SOL    HW222593   5.275   6.708   0.989  0.9953 -0.3252  1.3749
 7232SOL     OW22594   3.753   5.778   4.203  0.9389  0.7590 -0.4802
 7232SOL    HW122595   3.794   5.700   4.251 -1.0602  0.3627  0.7034
 7232SOL    HW222596   3.814   5.857   4.210  2.3172 -0.2626 -0.4019
 7233SOL     OW22597   4.787   6.117   4.564 -0.4468 -0.1798 -0.6492
 7233SOL    HW122598   4.872   6.094   4.610 -0.7316 -2.0766 -0.9972
 7233SOL    HW222599   4.798   6.202   4.513  0.8912  0.1578  0.1735
 7234SOL     OW22600   6.887   3.072   6.485 -0.1176  0.0079  0.3366
 7234SOL    HW122601   6.926   3.164   6.478 -1.0734  0.4099  0.1696
 7234SOL    HW222602   6.821   3.070   6.560  0.0519 -0.6072  0.4745
 7235SOL     OW22603   1.311   5.420   5.387  0.1873  0.6992 -0.0569
 7235SOL    HW122604   1.299   5.344   5.325  1.3337  1.1692 -0.9010
 7235SOL    HW222605   1.331   5.386   5.479 -3.6271 -0.0403  0.6605
 7236SOL     OW22606   3.137   1.931   4.706 -0.2914 -0.4174 -0.7570
 7236SOL    HW122607   3.128   1.923   4.607 -1.6875  1.5514 -0.8533
 7236SOL    HW222608   3.059   1.983   4.743  0.6932 -0.2562  1.2501
 7237SOL     OW22609   2.083   4.646   5.426  0.1706 -0.3440  0.4190
 7237SOL    HW122610   2.119   4.737   5.447 -0.9597  0.2803 -0.2237
 7237SOL    HW222611   2.151   4.577   5.450  1.2454  0.6931  0.4640
 7238SOL     OW22612   0.210   6.300   6.072 -0.6769  0.3864  0.2087
 7238SOL    HW122613   0.195   6.339   6.163 -0.6885  0.2728  0.2556
 7238SOL    HW222614   0.274   6.358   6.021 -1.4623  1.0190 -0.0862
 7239SOL     OW22615   6.595   1.066   5.179 -0.5097  0.0705  0.0258
 7239SOL    HW122616   6.656   1.144   5.165 -0.1327 -0.3696 -0.8707
 7239SOL    HW222617   6.501   1.093   5.160 -0.8058  1.0704  2.5359
 7240SOL     OW22618   0.788   2.887   2.515 -0.4892  0.1412  0.6048
 7240SOL    HW122619   0.799   2.830   2.433 -1.8029 -0.8265  1.0698
 7240SOL    HW222620   0.879   2.914   2.549  0.0993 -0.2683 -0.5987
 7241SOL     OW22621   6.978   1.608   3.289  0.2598  0.2552 -0.0250
 7241SOL    HW122622   7.068   1.617   3.331  1.0163 -0.9830 -1.2899
 7241SOL    HW222623   6.983   1.632   3.193 -1.2195  2.0486  0.2825
 7242SOL     OW22624   3.535   2.692   6.298  0.3331  0.6243 -0.1792
 7242SOL    HW122625   3.564   2.621   6.234 -0.0606  0.0440  0.2722
 7242SOL    HW222626   3.456   2.741   6.260 -1.1802 -1.0267  0.6630
 7243SOL     OW22627   4.096   3.650   3.835  0.3465  0.3394  0.0383
 7243SOL    HW122628   4.152   3.719   3.790  0.5793  1.0326  1.3326
 7243SOL    HW222629   4.019   3.695   3.880  0.3169 -0.2807  0.6229
 7244SOL     OW22630   0.120   3.734   0.454 -0.3871  0.5676  0.1130
 7244SOL    HW122631   0.201   3.792   0.457 -0.4373  0.7357 -1.0614
 7244SOL    HW222632   0.057   3.760   0.526  0.7822  0.1345  1.3488
 7245SOL     OW22633   1.034   2.063   1.650  0.6569 -0.1422  0.3927
 7245SOL    HW122634   1.089   2.102   1.576  0.4523  1.8783  1.2419
 7245SOL    HW222635   1.024   1.964   1.636  1.9405 -0.0621 -1.3961
 7246SOL     OW22636   2.430   2.711   6.598 -1.4030 -0.1445 -0.2303
 7246SOL    HW122637   2.346   2.687   6.549 -1.1822 -0.2973 -0.5355
 7246SOL    HW222638   2.502   2.646   6.574 -1.3979 -0.4435  0.5855
 7247SOL     OW22639   5.038   4.117   1.127  0.0696 -0.6551 -0.0453
 7247SOL    HW122640   5.105   4.102   1.054  0.3714 -1.8221  0.4547
 7247SOL    HW222641   5.065   4.195   1.182 -0.7672  0.9942 -1.8592
 7248SOL     OW22642   6.378   4.841   2.836  0.2263 -0.0933 -0.2235
 7248SOL    HW122643   6.354   4.938   2.831 -1.1375 -0.4341 -0.6146
 7248SOL    HW222644   6.310   4.792   2.891  1.0339 -0.8031  0.1743
 7249SOL     OW22645   5.358   5.575   6.068 -0.0253  0.8648 -0.4540
 7249SOL    HW122646   5.419   5.498   6.089 -1.8203  0.1584  2.8680
 7249SOL    HW222647   5.299   5.550   5.991  1.8184  0.4224 -1.7918
 7250SOL     OW22648   5.151   6.734   1.890 -0.4850 -0.1861  0.1940
 7250SOL    HW122649   5.238   6.690   1.868 -0.4423  0.3032 -0.6524
 7250SOL    HW222650   5.078   6.694   1.835 -0.2505  1.5690 -1.5151
 7251SOL     OW22651   4.344   3.444   5.882 -0.2935 -0.1988  0.6697
 7251SOL    HW122652   4.284   3.392   5.821  0.4376 -1.1310  0.7111
 7251SOL    HW222653   4.426   3.390   5.902  1.3679  1.6483 -0.7059
 7252SOL     OW22654   3.282   2.873   2.266 -0.1063  0.4362  0.2568
 7252SOL    HW122655   3.228   2.929   2.329  1.6276  2.6301 -0.0684
 7252SOL    HW222656   3.257   2.777   2.277 -3.1875  1.1934  0.9136
 7253SOL     OW22657   0.380   2.261   0.789  0.2716 -0.6432  0.6302
 7253SOL    HW122658   0.352   2.336   0.729 -0.8981  0.1651  2.1454
 7253SOL    HW222659   0.458   2.213   0.747  1.0326  1.3673 -0.3949
 7254SOL     OW22660   1.482   4.358   5.594  0.1259 -0.1959 -0.2046
 7254SOL    HW122661   1.432   4.297   5.532  1.8318 -2.5000  0.5489
 7254SOL    HW222662   1.504   4.309   5.678  1.3293  1.5803  0.5733
 7255SOL     OW22663   0.076   3.555   5.265 -0.4231  0.1260  0.7894
 7255SOL    HW122664   0.020   3.512   5.336  1.5123  1.5580  3.3506
 7255SOL    HW222665   0.092   3.651   5.288  0.5253  0.5881 -1.4819
 7256SOL     OW22666   5.128   3.972   3.120  0.0369 -0.4754 -0.1334
 7256SOL    HW122667   5.216   4.006   3.088  0.2661  0.3146  1.2675
 7256SOL    HW222668   5.130   3.872   3.124 -0.0675 -0.6426 -2.6685
 7257SOL     OW22669   3.277   4.522   0.639 -0.4766 -0.1368  0.4439
 7257SOL    HW122670   3.255   4.474   0.724  3.0498 -0.2780  1.4579
 7257SOL    HW222671   3.223   4.606   0.633 -2.3799 -1.1879  1.6766
 7258SOL     OW22672   6.487   3.337   0.493  0.1797 -0.1792 -0.0765
 7258SOL    HW122673   6.506   3.267   0.562  0.3267 -1.3028 -1.2225
 7258SOL    HW222674   6.573   3.364   0.449  0.0117  0.0160 -0.2884
 7259SOL     OW22675   5.541   0.307   3.526  0.4928  0.2823  0.1707
 7259SOL    HW122676   5.455   0.334   3.481  1.8535  1.8850 -1.6723
 7259SOL    HW222677   5.561   0.211   3.505 -0.0388  0.3681 -0.7823
 7260SOL     OW22678   6.141   2.435   3.178 -0.3235  0.0711 -0.8979
 7260SOL    HW122679   6.222   2.378   3.161 -0.3345  0.6364 -3.2380
 7260SOL    HW222680   6.155   2.526   3.138 -1.5800  0.6341 -0.1151
 7261SOL     OW22681   0.410   1.954   0.936 -0.0960  1.1356  0.2549
 7261SOL    HW122682   0.396   2.053   0.942  1.8758  1.5193 -0.4169
 7261SOL    HW222683   0.427   1.917   1.027  0.0715  1.5832  0.4103
 7262SOL     OW22684   6.895   6.537   5.538  0.0309  0.2370  0.1557
 7262SOL    HW122685   6.820   6.472   5.546  1.1103 -1.0460  0.2130
 7262SOL    HW222686   6.863   6.618   5.490 -1.6471  0.1684  1.0619
 7263SOL     OW22687   2.215   6.122   1.313 -0.6387  0.9490 -0.2813
 7263SOL    HW122688   2.297   6.084   1.356 -0.4496  4.0837  2.6321
 7263SOL    HW222689   2.170   6.052   1.258  1.7343 -2.0932  1.3199
 7264SOL     OW22690   0.851   6.623   5.549 -0.4635  0.7826  0.3527
 7264SOL    HW122691   0.779   6.574   5.500 -1.3079  1.3870  0.9760
 7264SOL    HW222692   0.858   6.589   5.642 -0.2353  1.0275  0.4271
 7265SOL     OW22693   1.746   0.479   1.939  0.2620  0.2470  0.0106
 7265SOL    HW122694   1.773   0.509   2.030  0.1297 -1.0172  0.4870
 7265SOL    HW222695   1.807   0.406   1.909 -1.5458 -1.5037  0.4122
 7266SOL     OW22696   2.743   1.660   4.134  0.0849  0.0145  0.2340
 7266SOL    HW122697   2.806   1.702   4.067 -0.6784  0.1036 -0.4389
 7266SOL    HW222698   2.709   1.731   4.195 -0.9539  0.3537 -0.7023
 7267SOL     OW22699   3.238   3.205   4.675  0.2936 -0.0992 -0.2295
 7267SOL    HW122700   3.220   3.179   4.770  1.2898 -6.2256 -1.3114
 7267SOL    HW222701   3.337   3.210   4.660  0.2616 -1.7739 -1.3067
 7268SOL     OW22702   6.357   2.160   6.520 -0.2132  0.2237  0.0493
 7268SOL    HW122703   6.288   2.167   6.593  0.4269  0.0858  0.6748
 7268SOL    HW222704   6.448   2.159   6.561  0.1966  1.0203 -0.8073
 7269SOL     OW22705   3.637   6.706   2.190 -0.1747 -0.1883  0.0879
 7269SOL    HW122706   3.576   6.668   2.259  0.7545  0.5201  1.3514
 7269SOL    HW222707   3.673   6.633   2.132 -0.6956 -0.8489  0.5876
 7270SOL     OW22708   6.444   1.505   5.950 -0.0009  0.7840 -0.1234
 7270SOL    HW122709   6.472   1.409   5.943  1.1162  0.9464  1.6733
 7270SOL    HW222710   6.518   1.559   5.990 -0.9513  2.2473 -0.2602
 7271SOL     OW22711   2.002   1.147   0.610 -0.1181 -0.7206  0.3463
 7271SOL    HW122712   2.064   1.121   0.537  0.2694 -0.4615  0.5800
 7271SOL    HW222713   2.017   1.243   0.635  0.0660 -0.9333  1.0707
 7272SOL     OW22714   0.515   0.067   2.631 -0.0660  0.0845  0.0414
 7272SOL    HW122715   0.557  -0.010   2.584  2.5763  1.7166 -0.5005
 7272SOL    HW222716   0.482   0.133   2.563  0.0492  0.5977  0.4759
 7273SOL     OW22717   1.280   3.699   4.568  0.2003 -0.1986 -0.0391
 7273SOL    HW122718   1.357   3.759   4.547  0.0354  0.2120  0.5183
 7273SOL    HW222719   1.313   3.605   4.578  0.4458 -0.2206 -0.9839
 7274SOL     OW22720   6.431   6.541   1.800 -0.3898  0.0617 -0.6777
 7274SOL    HW122721   6.519   6.515   1.762  0.3743 -0.0533  1.0717
 7274SOL    HW222722   6.405   6.476   1.872 -1.7175  0.3186 -0.8856
 7275SOL     OW22723   0.324   1.832   3.902  0.1718  0.3343  0.4839
 7275SOL    HW122724   0.279   1.921   3.894  1.4576  0.9956  0.3106
 7275SOL    HW222725   0.312   1.796   3.994 -1.2938  0.1497  0.2441
 7276SOL     OW22726   0.766   3.008   0.706  0.6857  0.7021  0.3199
 7276SOL    HW122727   0.808   3.047   0.624 -0.5175  1.1643 -0.0921
 7276SOL    HW222728   0.836   2.961   0.759  1.5406  0.6339 -0.8220
 7277SOL     OW22729   5.773   4.594   5.712  0.2892  0.6652  0.4607
 7277SOL    HW122730   5.728   4.550   5.789 -0.4643 -0.1246 -0.4081
 7277SOL    HW222731   5.821   4.676   5.743 -0.9302  0.9845  1.5723
 7278SOL     OW22732   6.740   1.985   1.322  0.0753 -0.1124  0.1192
 7278SOL    HW122733   6.662   1.925   1.341  0.7759 -0.9451  0.4558
 7278SOL    HW222734   6.709   2.065   1.270 -1.3522  0.5880  1.9387
 7279SOL     OW22735   4.571   6.185   1.716  0.3530 -0.5324  0.2648
 7279SOL    HW122736   4.607   6.115   1.654 -0.3458 -0.0305 -0.7428
 7279SOL    HW222737   4.554   6.269   1.665 -1.6356 -0.5490  0.8018
 7280SOL     OW22738   1.449   2.877   5.179  0.4420 -0.0963  0.1453
 7280SOL    HW122739   1.415   2.912   5.266  1.3209  0.8325  0.1367
 7280SOL    HW222740   1.407   2.789   5.160  0.5047 -0.4885  1.6862
 7281SOL     OW22741   3.905   0.709   1.916 -0.3657 -0.6208  0.1215
 7281SOL    HW122742   3.883   0.684   1.822  0.5413 -3.7147  0.6254
 7281SOL    HW222743   3.845   0.784   1.945 -0.7025  0.4125 -2.8382
 7282SOL     OW22744   2.008   6.749   3.461 -0.5415 -0.2448  0.3868
 7282SOL    HW122745   2.057   6.823   3.415  1.1719  0.5548  3.2232
 7282SOL    HW222746   1.916   6.781   3.486 -0.6834  0.0600 -0.4845
 7283SOL     OW22747   2.681   6.804   1.169  0.6097 -0.5799  0.1378
 7283SOL    HW122748   2.748   6.825   1.098 -0.1584 -1.1948 -0.7941
 7283SOL    HW222749   2.657   6.707   1.164 -1.6222 -0.0363 -0.7014
 7284SOL     OW22750   5.859   3.388   5.856 -0.3390  0.2488  0.0215
 7284SOL    HW122751   5.813   3.380   5.768  2.7259 -1.2440 -1.6134
 7284SOL    HW222752   5.932   3.320   5.862 -0.4388  0.2826  3.7856
 7285SOL     OW22753   1.653   1.150   6.296  0.0790 -0.0595  0.0955
 7285SOL    HW122754   1.733   1.209   6.284 -0.4453  0.3543 -1.7335
 7285SOL    HW222755   1.593   1.189   6.366  1.5059 -0.4680  1.6226
 7286SOL     OW22756   2.155   5.882   4.164  0.0208 -0.6576  0.3296
 7286SOL    HW122757   2.110   5.815   4.222  1.0344 -0.3955  1.4535
 7286SOL    HW222758   2.088   5.949   4.132 -0.5961 -0.9517  0.9979
 7287SOL     OW22759   0.940   4.737   6.827  0.3143 -0.1188 -0.1369
 7287SOL    HW122760   0.949   4.649   6.873 -0.9107  0.1469  0.6656
 7287SOL    HW222761   0.997   4.805   6.873  2.0052 -0.6588 -1.3283
 7288SOL     OW22762   1.693   4.044   6.239 -0.0709 -0.2411 -0.3294
 7288SOL    HW122763   1.670   3.947   6.252 -0.9961  0.3194  2.9159
 7288SOL    HW222764   1.775   4.050   6.182  0.9363 -3.0173  0.6435
 7289SOL     OW22765   6.078   2.930   3.177  0.0297 -0.2299 -0.2039
 7289SOL    HW122766   6.009   2.923   3.105  0.9386  1.5298 -1.3338
 7289SOL    HW222767   6.067   3.017   3.225  0.3448 -0.7513  0.8473
 7290SOL     OW22768   4.634   6.794   6.649 -0.3489  0.0535 -0.5158
 7290SOL    HW122769   4.697   6.863   6.685 -0.0511  0.6028 -1.9986
 7290SOL    HW222770   4.544   6.835   6.636 -0.8286 -0.5122  0.8252
 7291SOL     OW22771   3.571   6.028   4.694  0.2533 -0.4245  0.3276
 7291SOL    HW122772   3.620   6.039   4.608 -0.6239  0.1548 -0.1144
 7291SOL    HW222773   3.499   5.960   4.683 -0.3987  0.2460  0.3475
 7292SOL     OW22774   0.043   0.415   0.362  0.0894 -0.2173 -0.1650
 7292SOL    HW122775   0.101   0.380   0.436 -2.3036 -0.0686  1.9144
 7292SOL    HW222776   0.040   0.515   0.366 -3.0648 -0.2430  2.2283
 7293SOL     OW22777   6.790   2.360   4.250  0.0339 -0.0487 -0.1014
 7293SOL    HW122778   6.858   2.324   4.314  1.1106  0.0932 -1.1154
 7293SOL    HW222779   6.698   2.345   4.286  0.5400 -1.5813  0.6357
 7294SOL     OW22780   6.747   5.115   5.212  0.1187 -0.9004  0.0816
 7294SOL    HW122781   6.715   5.035   5.262 -0.6672 -0.5214  0.2070
 7294SOL    HW222782   6.836   5.096   5.171 -0.8796 -2.5142 -1.5027
 7295SOL     OW22783   3.625   2.026   3.135  0.6988 -0.2259  0.5203
 7295SOL    HW122784   3.709   2.021   3.189 -0.6792 -2.7658  2.6830
 7295SOL    HW222785   3.547   2.042   3.196 -0.5386  1.3461 -1.3404
 7296SOL     OW22786   3.325   4.444   0.229  0.0549 -0.2642 -0.0479
 7296SOL    HW122787   3.239   4.493   0.245  1.2603  1.5808  1.2828
 7296SOL    HW222788   3.361   4.469   0.139 -1.1269 -1.6373 -0.9402
 7297SOL     OW22789   1.461   3.593   3.061 -0.0938 -0.4863  0.4038
 7297SOL    HW122790   1.524   3.550   2.996  0.2861  0.5590  0.0580
 7297SOL    HW222791   1.503   3.595   3.152 -0.4665 -1.6006  0.6152
 7298SOL     OW22792   3.448   5.772   7.001 -0.2136  0.3934 -0.4069
 7298SOL    HW122793   3.431   5.788   6.904 -2.1046  0.1077 -0.1777
 7298SOL    HW222794   3.385   5.700   7.033  1.1530 -0.3128  0.7810
 7299SOL     OW22795   4.032   1.238   2.017 -0.3051 -0.2365  0.0214
 7299SOL    HW122796   3.998   1.165   1.957 -1.5031  0.0383  0.3263
 7299SOL    HW222797   3.967   1.251   2.092  0.5911  0.2173  0.7261
 7300SOL     OW22798   5.523   1.342   3.223  0.0990 -0.5353 -0.5346
 7300SOL    HW122799   5.494   1.246   3.217 -0.7367 -0.2703 -0.8426
 7300SOL    HW222800   5.444   1.401   3.211  0.2770  0.1967  1.4504
 7301SOL     OW22801   3.100   0.298   3.050  0.1989 -0.5692  0.4254
 7301SOL    HW122802   3.140   0.366   3.112 -0.8626  1.4168 -0.9608
 7301SOL    HW222803   3.008   0.274   3.082 -0.1573  0.0874 -0.0804
 7302SOL     OW22804   3.762   0.539   5.490 -0.5183 -0.0222 -0.0299
 7302SOL    HW122805   3.786   0.566   5.397 -0.0851 -0.0111  0.0821
 7302SOL    HW222806   3.666   0.559   5.507 -0.7832 -0.6852 -0.7137
 7303SOL     OW22807   2.708   2.471   5.276  0.0253  0.0909  0.9388
 7303SOL    HW122808   2.779   2.406   5.251  1.2374  1.3933  0.8760
 7303SOL    HW222809   2.628   2.457   5.218  1.4869  0.7934 -1.3704
 7304SOL     OW22810   4.300   1.984   5.920  0.1667  0.2497  0.1116
 7304SOL    HW122811   4.395   1.990   5.891  0.2411 -1.8390 -0.2635
 7304SOL    HW222812   4.257   1.904   5.877 -1.3600  0.3541  1.3322
 7305SOL     OW22813   6.156   1.158   1.322 -0.0289  1.2479 -0.4045
 7305SOL    HW122814   6.254   1.167   1.305  0.2449  0.2604  0.5893
 7305SOL    HW222815   6.121   1.244   1.359  1.0528  0.7406  1.9555
 7306SOL     OW22816   6.944   6.780   1.113  0.1090 -0.0684  0.2884
 7306SOL    HW122817   6.954   6.737   1.023  0.3130 -0.8582  0.6796
 7306SOL    HW222818   6.914   6.711   1.180 -1.4935  0.8115  0.5368
 7307SOL     OW22819   1.545   6.516   0.462  0.0038 -0.5368  0.2875
 7307SOL    HW122820   1.505   6.567   0.538  1.5274 -0.0225  0.7725
 7307SOL    HW222821   1.606   6.576   0.410  0.2458 -1.3246 -0.3618
 7308SOL     OW22822   1.032   3.038   3.488 -0.4032 -0.2801  0.2254
 7308SOL    HW122823   1.107   3.031   3.421 -0.9359 -0.0268 -0.4055
 7308SOL    HW222824   0.984   2.950   3.494  0.3367 -0.6393  1.1105
 7309SOL     OW22825   2.278   3.867   1.295 -0.1114  0.1342  0.0883
 7309SOL    HW122826   2.327   3.953   1.311 -0.7811  0.9853 -2.0854
 7309SOL    HW222827   2.258   3.858   1.198 -0.7505 -2.1443  0.3772
 7310SOL     OW22828   6.005   5.061   6.330 -0.2223 -0.0027  0.2309
 7310SOL    HW122829   5.958   4.974   6.314  0.7014 -0.0814 -2.5310
 7310SOL    HW222830   6.085   5.045   6.388 -0.3797 -0.8754  0.2213
 7311SOL     OW22831   5.015   5.157   6.849 -0.2349 -0.3663  0.3956
 7311SOL    HW122832   5.027   5.085   6.781 -0.0650  0.0734 -0.0501
 7311SOL    HW222833   5.025   5.246   6.804  0.6951 -0.0824  1.1478
 7312SOL     OW22834   5.349   2.839   6.608 -0.9975  0.3161  0.4337
 7312SOL    HW122835   5.404   2.769   6.563 -1.0041  0.3528  0.3686
 7312SOL    HW222836   5.260   2.801   6.633 -0.9164  0.2376  0.6004
 7313SOL     OW22837   2.168   4.354   0.005  0.1808  0.0777 -0.5721
 7313SOL    HW122838   2.176   4.373  -0.093 -0.8639 -0.8783 -0.8669
 7313SOL    HW222839   2.235   4.409   0.055  1.5565 -0.2978 -1.9169
 7314SOL     OW22840   0.295   5.590   6.317 -0.1906 -0.5746  0.1094
 7314SOL    HW122841   0.365   5.521   6.299  0.3468 -0.2701  0.9699
 7314SOL    HW222842   0.284   5.602   6.416 -1.7575 -0.9074 -0.0025
 7315SOL     OW22843   4.177   1.400   2.538  0.6749 -0.0651  0.0296
 7315SOL    HW122844   4.138   1.447   2.617  1.0157 -0.8999  0.7127
 7315SOL    HW222845   4.142   1.306   2.535  1.7222 -0.4640 -0.0132
 7316SOL     OW22846   3.428   2.856   5.116  0.0159 -0.2924 -0.7489
 7316SOL    HW122847   3.408   2.762   5.145 -0.0437  0.3480  1.4129
 7316SOL    HW222848   3.525   2.862   5.090  0.3864 -0.6728  0.4496
 7317SOL     OW22849   1.398   2.739   1.382 -0.0041  0.2403 -0.2874
 7317SOL    HW122850   1.475   2.777   1.332 -1.0444  0.7769 -1.5323
 7317SOL    HW222851   1.367   2.805   1.451  0.9730 -0.2056  0.6060
 7318SOL     OW22852   2.209   1.466   6.757 -0.2744 -0.4118  0.0384
 7318SOL    HW122853   2.168   1.551   6.726 -1.3868  0.0679  2.5772
 7318SOL    HW222854   2.265   1.484   6.838 -0.0412 -2.0076  0.2660
 7319SOL     OW22855   3.443   1.609   4.826  0.2438  0.0428  0.0437
 7319SOL    HW122856   3.389   1.529   4.802 -1.3568  0.9894  0.3110
 7319SOL    HW222857   3.465   1.662   4.743  1.7249 -0.8786 -0.1934
 7320SOL     OW22858   5.642   1.806   0.572  0.2379  0.1545  0.4882
 7320SOL    HW122859   5.702   1.885   0.558  1.0967 -0.7084 -0.9645
 7320SOL    HW222860   5.649   1.745   0.493 -1.1781 -0.8851  1.1293
 7321SOL     OW22861   6.381   5.464   1.116 -0.0101  0.5689  0.2739
 7321SOL    HW122862   6.363   5.373   1.154 -1.1146  1.0225  0.8925
 7321SOL    HW222863   6.333   5.473   1.029 -2.3330  1.5177  1.5687
 7322SOL     OW22864   1.769   1.325   6.764 -0.1197 -1.0057 -0.1337
 7322SOL    HW122865   1.682   1.359   6.731  1.1562  0.8611 -1.8004
 7322SOL    HW222866   1.816   1.396   6.817  1.0342 -1.4217 -0.5565
 7323SOL     OW22867   0.123   0.902   6.242  0.2487  0.1840  0.1283
 7323SOL    HW122868   0.056   0.920   6.314 -1.6892 -1.3070 -1.1904
 7323SOL    HW222869   0.075   0.876   6.158  2.4954 -2.6224 -0.4333
 7324SOL     OW22870   5.697   2.512   5.293  0.2279 -0.2810  0.1235
 7324SOL    HW122871   5.618   2.522   5.233 -0.1038  1.0016  0.7214
 7324SOL    HW222872   5.671   2.540   5.386  0.8696 -1.6939  0.7602
 7325SOL     OW22873   3.494   6.444   6.433 -0.1807 -0.0939  0.0493
 7325SOL    HW122874   3.455   6.517   6.377  0.4362 -0.7364 -1.2596
 7325SOL    HW222875   3.593   6.456   6.440  0.2909 -1.9823 -2.1131
 7326SOL     OW22876   1.821   2.573   2.888  1.0628  0.0152  0.1363
 7326SOL    HW122877   1.841   2.520   2.805 -2.4904 -2.0152  0.3734
 7326SOL    HW222878   1.764   2.651   2.865 -0.7870 -1.1153  0.6546
 7327SOL     OW22879   0.798   6.712   0.975  0.3830  0.4833  0.1387
 7327SOL    HW122880   0.782   6.811   0.982  0.5453  0.7108 -2.1176
 7327SOL    HW222881   0.893   6.693   1.002  0.4345  0.9681  0.3223
 7328SOL     OW22882   3.026   0.721   5.962  0.1103  0.0770  0.0326
 7328SOL    HW122883   2.962   0.708   6.037  0.5121  0.0871  0.3807
 7328SOL    HW222884   2.977   0.751   5.880 -0.2744  0.4595  0.4030
 7329SOL     OW22885   2.618   2.467   1.783 -0.2478 -0.2220 -0.2399
 7329SOL    HW122886   2.700   2.458   1.840 -0.4184  1.3710  0.3004
 7329SOL    HW222887   2.626   2.547   1.724 -1.1489 -0.4102 -0.6450
 7330SOL     OW22888   0.445   4.701   6.640  0.7240  0.3518  0.3911
 7330SOL    HW122889   0.514   4.752   6.589  0.3862  1.3788  0.9345
 7330SOL    HW222890   0.448   4.605   6.613 -0.0030  0.9791 -2.1843
 7331SOL     OW22891   1.493   2.728   3.297  0.3474  0.1172  0.2953
 7331SOL    HW122892   1.479   2.827   3.302  0.7063  0.1419  0.9109
 7331SOL    HW222893   1.578   2.709   3.248 -0.5386  0.0416 -1.3189
 7332SOL     OW22894   6.851   5.959   4.266  0.4132 -0.0047 -0.1613
 7332SOL    HW122895   6.849   5.873   4.216  2.1847 -0.9199  1.1974
 7332SOL    HW222896   6.768   5.968   4.321 -0.8066  0.2596 -1.9919
 7333SOL     OW22897   4.945   4.519   0.266 -0.1166 -0.2383 -0.0438
 7333SOL    HW122898   4.846   4.529   0.258  0.0815  1.5351 -0.7494
 7333SOL    HW222899   4.966   4.451   0.335 -1.8185  0.0016  0.7705
 7334SOL     OW22900   5.222   3.856   2.195 -0.4945 -0.1266  0.4766
 7334SOL    HW122901   5.125   3.845   2.215 -0.5706  0.1109  0.2516
 7334SOL    HW222902   5.257   3.935   2.246 -0.3081 -0.4915  0.9198
 7335SOL     OW22903   2.023   5.825   6.752 -0.4303  0.3649 -0.3280
 7335SOL    HW122904   1.967   5.795   6.674 -1.1694  0.4392  0.1591
 7335SOL    HW222905   2.116   5.845   6.721 -0.4703 -0.4736 -1.0292
 7336SOL     OW22906   5.297   3.613   4.309 -0.4814 -0.1124 -0.7687
 7336SOL    HW122907   5.382   3.593   4.260 -0.8138  0.1948 -1.4857
 7336SOL    HW222908   5.242   3.530   4.317 -0.2396 -0.2514 -0.5490
 7337SOL     OW22909   1.618   4.030   0.998  0.0074  0.3123 -0.1935
 7337SOL    HW122910   1.548   3.964   1.026 -0.0106  0.9156  1.2808
 7337SOL    HW222911   1.607   4.052   0.901 -0.2195 -1.5420 -0.6261
 7338SOL     OW22912   7.021   4.329   6.363  0.1381  0.0548 -0.1415
 7338SOL    HW122913   7.115   4.350   6.391  0.3162  0.6979 -1.1754
 7338SOL    HW222914   7.004   4.231   6.376  1.5760 -0.4523 -1.6039
 7339SOL     OW22915   3.234   5.235   0.038  0.3390  0.6469  0.1076
 7339SOL    HW122916   3.167   5.176   0.083  1.9061 -0.7018  0.7224
 7339SOL    HW222917   3.188   5.288  -0.034 -1.3735 -0.2424  0.5017
 7340SOL     OW22918   0.656   4.255   4.502  0.7600 -0.0648  0.1068
 7340SOL    HW122919   0.574   4.221   4.457  1.1479 -0.7166 -0.1353
 7340SOL    HW222920   0.690   4.335   4.454 -0.5455  1.1167  1.0738
 7341SOL     OW22921   5.983   6.781   4.687  0.2490 -0.6981  0.1954
 7341SOL    HW122922   5.995   6.854   4.754 -1.3075 -0.0598 -0.1665
 7341SOL    HW222923   5.991   6.818   4.594 -1.3393 -0.7815 -0.0078
 7342SOL     OW22924   1.099   6.111   2.813  0.3648 -0.4635  0.0611
 7342SOL    HW122925   1.107   6.028   2.869  2.2355 -0.6741 -0.4541
 7342SOL    HW222926   1.156   6.101   2.731 -0.9575  0.5518 -1.0076
 7343SOL     OW22927   4.023   5.281   0.215  0.2596  0.2854  0.2158
 7343SOL    HW122928   4.035   5.183   0.202  0.3130  0.2375  0.6130
 7343SOL    HW222929   3.998   5.323   0.128  1.2350  0.0781 -0.1738
 7344SOL     OW22930   6.645   2.770   4.439  0.3637  0.0096 -0.3085
 7344SOL    HW122931   6.586   2.714   4.381  0.8281 -2.3796  1.3394
 7344SOL    HW222932   6.741   2.743   4.425  0.7426  1.3026 -0.3527
 7345SOL     OW22933   3.327   4.608   0.983 -0.2519 -0.2484 -0.2658
 7345SOL    HW122934   3.383   4.658   0.917  1.4809  0.4309  1.6416
 7345SOL    HW222935   3.362   4.515   0.993  0.5199  0.1462  0.8553
 7346SOL     OW22936   3.685   4.113   3.248 -0.0525 -0.1225  0.5336
 7346SOL    HW122937   3.690   4.023   3.205  0.2281  0.5141 -0.7968
 7346SOL    HW222938   3.729   4.109   3.338  2.5235 -0.6205 -0.6810
 7347SOL     OW22939   6.025   3.596   6.143  0.4477  0.0533  0.4126
 7347SOL    HW122940   5.974   3.512   6.126 -0.2412  0.4093  0.6474
 7347SOL    HW222941   6.069   3.627   6.059  1.2712 -0.8989  0.4811
 7348SOL     OW22942   4.224   3.129   6.400 -0.3499  0.2633  0.3175
 7348SOL    HW122943   4.137   3.175   6.389 -0.0984  0.8020  0.5523
 7348SOL    HW222944   4.223   3.076   6.485  0.2647  1.9379  1.4284
 7349SOL     OW22945   4.398   0.519   0.975 -0.1032 -0.0179  0.7865
 7349SOL    HW122946   4.464   0.459   1.022 -0.8888 -1.1689  0.4541
 7349SOL    HW222947   4.325   0.464   0.935  0.8187  0.8198 -2.3304
 7350SOL     OW22948   3.439   0.707   1.453  0.7873  0.4640  0.5779
 7350SOL    HW122949   3.494   0.646   1.398  1.4203  1.1262  0.4593
 7350SOL    HW222950   3.451   0.686   1.550 -1.5858 -1.7931  0.5041
 7351SOL     OW22951   6.197   6.901   4.818 -0.6941  0.1165 -0.0561
 7351SOL    HW122952   6.236   6.872   4.905 -0.4564 -1.4814 -0.6595
 7351SOL    HW222953   6.188   7.000   4.817  4.0316  0.7266 -0.1779
 7352SOL     OW22954   5.328   6.327   0.032  0.4000  0.1731  0.0023
 7352SOL    HW122955   5.407   6.377   0.068  0.7476  0.0287 -0.5501
 7352SOL    HW222956   5.360   6.248  -0.020 -0.1196 -0.0286 -0.0098
 7353SOL     OW22957   3.675   1.660   5.852  0.5009  0.1094 -0.5316
 7353SOL    HW122958   3.708   1.643   5.759 -2.2552 -0.5250 -1.4855
 7353SOL    HW222959   3.663   1.573   5.899 -0.8588  0.2359 -0.6251
 7354SOL     OW22960   2.111   4.362   2.778  0.3869  0.3189  0.1255
 7354SOL    HW122961   2.188   4.395   2.724  0.3512 -0.3146 -0.3119
 7354SOL    HW222962   2.026   4.377   2.728  0.2391  0.7542  0.4884
 7355SOL     OW22963   0.036   3.693   1.038 -0.4422  0.5407 -0.5923
 7355SOL    HW122964   0.106   3.753   1.077 -0.5790  0.5096 -0.2962
 7355SOL    HW222965  -0.020   3.654   1.112  0.2921 -0.7746 -0.7024
 7356SOL     OW22966   4.062   0.639   5.745  0.5616 -0.3541  0.4411
 7356SOL    HW122967   4.153   0.598   5.758  1.0130  0.8778  1.3225
 7356SOL    HW222968   4.026   0.669   5.833 -0.3052  0.0228 -0.0309
 7357SOL     OW22969   1.474   2.053   4.422 -0.2641 -0.4192  0.1449
 7357SOL    HW122970   1.496   1.956   4.427  0.6981 -0.1728  1.0408
 7357SOL    HW222971   1.516   2.093   4.341  0.7467 -0.4162  0.6604
 7358SOL     OW22972   1.306   1.586   3.905  0.1032 -0.0010  0.3157
 7358SOL    HW122973   1.311   1.573   4.004 -0.0404  0.4446  0.3832
 7358SOL    HW222974   1.393   1.621   3.872 -0.2104  0.9394  0.4549
 7359SOL     OW22975   6.341   6.330   2.537 -0.1990  0.1462 -0.1541
 7359SOL    HW122976   6.372   6.380   2.618  0.2395  0.8156 -0.7162
 7359SOL    HW222977   6.416   6.274   2.502  0.3905  1.6484 -1.4268
 7360SOL     OW22978   1.077   6.860   4.901 -0.1364 -0.5774 -0.2174
 7360SOL    HW122979   1.019   6.852   4.982  0.5740 -1.7930  0.1904
 7360SOL    HW222980   1.071   6.953   4.865 -0.2578  0.0693  1.3822
 7361SOL     OW22981   6.082   6.154   0.678  0.6761 -0.2753  0.4354
 7361SOL    HW122982   6.126   6.074   0.719 -0.0040 -1.7447 -1.5855
 7361SOL    HW222983   6.027   6.201   0.747 -0.5342 -2.7183  1.2202
 7362SOL     OW22984   2.987   3.396   5.104 -0.2335  0.1422  0.3812
 7362SOL    HW122985   2.950   3.462   5.039 -0.9575  1.3417  1.9608
 7362SOL    HW222986   3.085   3.414   5.116  0.4234 -1.4074 -1.8545
 7363SOL     OW22987   5.533   6.771   1.066  0.3149  0.4305  0.3451
 7363SOL    HW122988   5.503   6.828   1.142  0.3735  1.3869 -0.3407
 7363SOL    HW222989   5.633   6.764   1.067  0.3056  0.2909  0.4522
 7364SOL     OW22990   2.846   4.656   0.936 -0.5988 -0.4935 -0.0405
 7364SOL    HW122991   2.859   4.644   1.035  1.5063  0.5438 -0.1402
 7364SOL    HW222992   2.926   4.620   0.888  0.3452  2.6585 -1.0593
 7365SOL     OW22993   3.999   0.104   3.920  0.0733  0.0987 -0.3483
 7365SOL    HW122994   4.021   0.142   4.009 -0.8993 -0.7346  0.2671
 7365SOL    HW222995   3.928   0.159   3.876  0.7975  0.7123 -0.7824
 7366SOL     OW22996   4.982   3.661   6.947  0.1328  0.0267  0.1132
 7366SOL    HW122997   5.027   3.577   6.977 -0.6732 -0.4924 -0.1038
 7366SOL    HW222998   4.885   3.657   6.971  0.0611  0.8406 -0.0193
 7367SOL     OW22999   1.128   1.827   2.231 -0.2204  0.0472  0.6776
 7367SOL    HW123000   1.215   1.825   2.181 -0.8016 -0.7302 -0.3263
 7367SOL    HW223001   1.075   1.906   2.200  0.2774  0.7663  1.5925
 7368SOL     OW23002   6.719   2.133   6.141  0.1407  0.5418  0.1412
 7368SOL    HW123003   6.771   2.199   6.197 -0.0048  0.4340  0.4048
 7368SOL    HW223004   6.658   2.081   6.200  0.2424  0.1816 -0.0735
 7369SOL     OW23005   2.768   3.350   1.680 -0.3192 -0.2021 -0.3919
 7369SOL    HW123006   2.835   3.419   1.708 -0.9987  1.2315 -2.0977
 7369SOL    HW223007   2.676   3.387   1.692 -0.9642 -2.4002  2.5975
 7370SOL     OW23008   2.247   6.595   2.175 -0.3788  0.1563 -0.3141
 7370SOL    HW123009   2.222   6.500   2.195  0.3922 -0.3360 -1.5447
 7370SOL    HW223010   2.314   6.597   2.100  2.1272  1.4959  1.8117
 7371SOL     OW23011   0.898   3.980   4.707 -0.1303  0.1249  0.4833
 7371SOL    HW123012   0.858   3.961   4.797  1.1668 -0.6138  0.9210
 7371SOL    HW223013   0.973   4.045   4.716 -0.5591  0.7338 -0.1961
 7372SOL     OW23014   0.529   7.021   3.012  0.2271  0.4721 -0.3976
 7372SOL    HW123015   0.559   6.925   3.020 -1.0694  0.1711  1.8619
 7372SOL    HW223016   0.442   7.025   2.964  0.3926  0.5597 -0.6945
 7373SOL     OW23017   5.704   0.707   4.872 -0.5445 -0.1852 -0.0739
 7373SOL    HW123018   5.712   0.688   4.774  1.7403  0.6927 -0.1268
 7373SOL    HW223019   5.609   0.728   4.894 -1.2988 -1.4193 -1.8920
 7374SOL     OW23020   3.491   0.783   2.560  0.0442 -0.0140 -0.4524
 7374SOL    HW123021   3.520   0.732   2.641  0.2794  0.0975 -0.4659
 7374SOL    HW223022   3.562   0.847   2.534 -0.3753  0.5433 -0.2504
 7375SOL     OW23023   5.615   3.848   6.355  0.4950 -0.3941 -0.6431
 7375SOL    HW123024   5.568   3.760   6.348  0.5408 -0.4800  0.0840
 7375SOL    HW223025   5.547   3.921   6.364  0.4836 -0.6254  1.6052
 7376SOL     OW23026   5.110   3.113   2.705  0.2310  0.5589 -0.1256
 7376SOL    HW123027   5.035   3.136   2.643  0.1473  0.0794 -0.2024
 7376SOL    HW223028   5.158   3.197   2.731  0.7252  0.6886 -1.4119
 7377SOL     OW23029   6.473   6.383   4.237  0.2984  0.4158  0.3614
 7377SOL    HW123030   6.383   6.409   4.201 -0.5429  1.6650  3.0742
 7377SOL    HW223031   6.510   6.459   4.291  1.8502 -0.9740  1.3354
 7378SOL     OW23032   6.075   4.867   6.073  0.7736 -0.2047 -0.3079
 7378SOL    HW123033   6.013   4.806   6.122  2.3740 -1.1534  0.6199
 7378SOL    HW223034   6.148   4.814   6.030  0.0031  0.7162 -2.9221
 7379SOL     OW23035   1.008   4.049   5.030 -0.0697  0.1456  0.2507
 7379SOL    HW123036   0.918   4.014   5.005  0.0938 -0.8715  1.0018
 7379SOL    HW223037   1.079   3.998   4.982  0.1173  0.7676 -0.1394
 7380SOL     OW23038   6.804   1.553   1.001  0.0512  0.0660 -0.4789
 7380SOL    HW123039   6.795   1.632   0.941 -2.3238  1.4135  1.4384
 7380SOL    HW223040   6.851   1.580   1.085 -0.7579 -0.5098  0.1825
 7381SOL     OW23041   1.004   3.677   2.132  0.0307 -0.0965 -0.1995
 7381SOL    HW123042   1.034   3.670   2.227 -0.2701 -0.7002 -0.1406
 7381SOL    HW223043   1.044   3.602   2.079  0.1047  0.1703 -0.5215
 7382SOL     OW23044   3.730   0.312   4.290  0.3548 -0.0672 -0.8694
 7382SOL    HW123045   3.778   0.238   4.242  0.7609 -1.7857  1.9449
 7382SOL    HW223046   3.633   0.289   4.296  0.5822 -0.7375  0.5465
 7383SOL     OW23047   5.648   0.185   6.326 -0.4076  0.2906  0.2344
 7383SOL    HW123048   5.583   0.261   6.323 -1.9815 -0.9790  0.7485
 7383SOL    HW223049   5.603   0.102   6.293  1.1131 -0.5378  0.1839
 7384SOL     OW23050   0.153   3.348   2.336  0.1920  0.0067 -0.1017
 7384SOL    HW123051   0.202   3.434   2.345 -1.8415  1.4870 -2.0536
 7384SOL    HW223052   0.183   3.301   2.252 -2.0446  1.2697 -1.7020
 7385SOL     OW23053   5.790   2.901   2.382 -0.2199  0.0190  0.4428
 7385SOL    HW123054   5.710   2.958   2.363  0.5179  0.5376 -1.2683
 7385SOL    HW223055   5.859   2.954   2.430  0.1741  0.3952 -0.5095
 7386SOL     OW23056   1.376   0.053   6.893 -0.5601 -0.3832  0.0962
 7386SOL    HW123057   1.447   0.119   6.917 -1.8280  0.8333  0.6837
 7386SOL    HW223058   1.359   0.056   6.794 -0.0034 -0.4752 -0.0043
 7387SOL     OW23059   5.103   3.874   4.102  0.2522  0.0261  0.9730
 7387SOL    HW123060   5.145   3.901   4.189  3.0825 -1.1717  0.1227
 7387SOL    HW223061   5.112   3.949   4.036  1.5420 -0.3441  0.6895
 7388SOL     OW23062   2.703   4.690   0.391 -0.3028  0.0663 -0.0562
 7388SOL    HW123063   2.679   4.730   0.303 -0.1148  0.6347  0.1477
 7388SOL    HW223064   2.648   4.733   0.463 -1.0145 -0.9305  0.0218
 7389SOL     OW23065   0.392   6.053   0.839  0.1449 -0.0166  0.3167
 7389SOL    HW123066   0.373   6.126   0.773 -1.9180 -0.3941  0.4171
 7389SOL    HW223067   0.486   6.061   0.872  0.2378  2.0569 -0.3212
 7390SOL     OW23068   3.931   0.799   0.270  0.2575  0.6589 -0.3602
 7390SOL    HW123069   3.838   0.830   0.290  0.5904  2.6093 -1.5941
 7390SOL    HW223070   3.975   0.863   0.207  3.1400  0.8427  1.6629
 7391SOL     OW23071   3.933   0.621   6.860 -0.5172  0.1688 -0.0288
 7391SOL    HW123072   3.889   0.607   6.949  0.9370  1.2111  0.9000
 7391SOL    HW223073   4.027   0.653   6.874 -0.0566 -0.2470 -1.9538
 7392SOL     OW23074   4.488   2.527   3.014 -0.0917 -0.0545  0.6290
 7392SOL    HW123075   4.564   2.579   3.052 -0.5474  0.4880  0.8245
 7392SOL    HW223076   4.491   2.530   2.914 -0.6340  1.1598  0.6280
 7393SOL     OW23077   0.751   5.971   1.074 -0.5976  0.1548 -0.0109
 7393SOL    HW123078   0.790   6.051   1.029 -1.7986 -0.3700 -2.1196
 7393SOL    HW223079   0.673   5.999   1.131  0.1343  0.6750  0.7559
 7394SOL     OW23080   3.936   1.063   6.132  0.1867 -0.3736  0.1019
 7394SOL    HW123081   3.985   1.060   6.219 -1.1802  1.2772  1.0006
 7394SOL    HW223082   3.921   1.159   6.106  1.6999 -0.7848 -2.6551
 7395SOL     OW23083   6.147   0.263   2.736  0.0115 -0.2779 -0.0015
 7395SOL    HW123084   6.150   0.225   2.828  0.7108  0.4645  0.2921
 7395SOL    HW223085   6.201   0.205   2.675  0.5924 -0.0792  0.3194
 7396SOL     OW23086   0.088   6.417   2.705 -0.4344 -0.0552  0.0798
 7396SOL    HW123087   0.062   6.512   2.716 -1.9295 -0.4491  0.2167
 7396SOL    HW223088   0.141   6.387   2.784 -1.0889  0.3154  0.6706
 7397SOL     OW23089   5.382   6.061   6.686  0.2284 -0.4722  0.3833
 7397SOL    HW123090   5.450   5.989   6.672  0.4145 -0.3147  0.4625
 7397SOL    HW223091   5.396   6.133   6.618 -0.0138 -0.5538  0.2470
 7398SOL     OW23092   1.943   4.170   2.534  0.3913 -0.6759  0.3533
 7398SOL    HW123093   1.943   4.111   2.453 -0.1630 -1.5649  0.9811
 7398SOL    HW223094   1.969   4.116   2.614  0.7888  0.1612  0.7960
 7399SOL     OW23095   5.474   5.159   1.444 -0.2380 -0.2120  0.2714
 7399SOL    HW123096   5.537   5.085   1.423 -1.2354 -1.2469  0.8078
 7399SOL    HW223097   5.382   5.122   1.461 -0.4974  0.9824  1.8156
 7400SOL     OW23098   5.358   6.583   1.852 -0.6043  0.3108  0.3369
 7400SOL    HW123099   5.426   6.545   1.916  0.1783 -0.4631 -0.8962
 7400SOL    HW223100   5.312   6.508   1.805  0.1859  0.8308 -1.3585
 7401SOL     OW23101   5.459   5.899   4.928 -0.3660 -0.5047  0.3973
 7401SOL    HW123102   5.556   5.903   4.952 -0.1566  0.7268 -0.5675
 7401SOL    HW223103   5.416   5.986   4.949 -1.4220 -1.2320  1.3700
 7402SOL     OW23104   1.527   0.327   5.730  1.3052  0.2797 -0.2192
 7402SOL    HW123105   1.571   0.292   5.812  2.0571  1.9579  0.1420
 7402SOL    HW223106   1.584   0.399   5.690 -0.0977  1.0158 -0.9709
 7403SOL     OW23107   5.343   2.883   2.040 -0.1999 -0.3575 -0.1022
 7403SOL    HW123108   5.424   2.904   1.986 -0.4245  0.1874 -0.2398
 7403SOL    HW223109   5.299   2.969   2.069 -0.0159 -0.6341  1.0527
 7404SOL     OW23110   6.320   2.857   3.994  0.1528  0.0506  0.4644
 7404SOL    HW123111   6.316   2.956   3.982  1.7517  0.0507 -0.3203
 7404SOL    HW223112   6.239   2.826   4.043 -0.8789  1.6030 -0.1995
 7405SOL     OW23113   0.144   0.174   6.931 -0.0529 -0.2712 -0.4375
 7405SOL    HW123114   0.087   0.253   6.907 -1.2540 -1.1127 -0.4634
 7405SOL    HW223115   0.141   0.159   7.029 -0.5380 -0.8095 -0.5351
 7406SOL     OW23116   5.837   1.535   0.075  0.2563 -0.1794 -0.4114
 7406SOL    HW123117   5.897   1.549   0.154  0.3816 -0.3391 -0.4767
 7406SOL    HW223118   5.881   1.472   0.011 -0.3084 -0.8903 -0.1158
 7407SOL     OW23119   1.809   2.549   4.779  0.0254 -0.1306  0.1844
 7407SOL    HW123120   1.758   2.625   4.739 -0.3032  0.0202  0.8713
 7407SOL    HW223121   1.847   2.577   4.867  1.7331 -0.0798 -0.5363
 7408SOL     OW23122   5.026   1.399   3.748  0.6669 -0.2074  0.1483
 7408SOL    HW123123   5.022   1.476   3.684  1.0510  0.3201  0.7580
 7408SOL    HW223124   4.958   1.412   3.820  1.1252 -0.1481  0.5728
 7409SOL     OW23125   4.682   4.029   0.768  0.0434 -0.9276  0.3684
 7409SOL    HW123126   4.745   4.001   0.841  0.4271  0.5557  0.6360
 7409SOL    HW223127   4.687   4.128   0.756 -1.0173 -0.9919 -0.7644
 7410SOL     OW23128   1.024   6.384   2.391 -0.1950 -0.0120 -0.6451
 7410SOL    HW123129   0.990   6.425   2.475 -0.5576 -0.6886 -0.4500
 7410SOL    HW223130   1.042   6.455   2.323  0.0248  0.5325 -0.0258
 7411SOL     OW23131   6.033   2.353   5.725 -0.7190  0.0945 -0.0151
 7411SOL    HW123132   5.983   2.297   5.659 -0.1391 -0.6766  0.1787
 7411SOL    HW223133   6.127   2.366   5.694 -0.1824 -1.0212  1.0524
 7412SOL     OW23134   4.646   3.401   5.922 -0.8293 -0.0112 -0.1209
 7412SOL    HW123135   4.619   3.445   5.837 -0.4747 -0.8849 -0.6979
 7412SOL    HW223136   4.673   3.306   5.904  0.4893  0.1652  0.7513
 7413SOL     OW23137   1.967   3.761   5.441  0.2865 -0.1108  0.1909
 7413SOL    HW123138   2.003   3.688   5.499 -0.1127  0.1264  0.7498
 7413SOL    HW223139   1.986   3.741   5.345  2.7973  0.4693  0.4942
 7414SOL     OW23140   0.821   5.675   2.842 -0.2964 -0.6194  0.1031
 7414SOL    HW123141   0.765   5.747   2.801  1.7563  0.1263 -1.5315
 7414SOL    HW223142   0.766   5.625   2.910 -1.8304  2.3986  1.2633
 7415SOL     OW23143   2.115   6.176   6.582  0.1427 -0.3354 -0.3719
 7415SOL    HW123144   2.115   6.087   6.538 -1.6160  0.0280 -1.1663
 7415SOL    HW223145   2.105   6.165   6.681 -0.5189 -1.0012 -0.5123
 7416SOL     OW23146   0.319   1.047   5.593  0.2658  0.2762  0.1865
 7416SOL    HW123147   0.409   1.037   5.636  0.2904  2.0841  0.6559
 7416SOL    HW223148   0.277   1.132   5.624 -0.4058  0.8753 -2.1766
 7417SOL     OW23149   0.429   4.834   6.085 -0.1304 -0.4665  0.4292
 7417SOL    HW123150   0.475   4.886   6.157 -0.2969 -0.6277  0.6535
 7417SOL    HW223151   0.331   4.835   6.101 -0.1805 -0.3812  0.1199
 7418SOL     OW23152   6.133   5.369   2.366  0.6319  0.2661  0.4338
 7418SOL    HW123153   6.138   5.338   2.461 -1.4341 -1.0990  0.1610
 7418SOL    HW223154   6.206   5.325   2.313  0.5727 -0.5321  1.0038
 7419SOL     OW23155   3.445   5.861   2.950 -0.2019  0.5585 -0.0468
 7419SOL    HW123156   3.347   5.881   2.954 -0.4278 -0.6513  1.1700
 7419SOL    HW223157   3.491   5.904   3.027 -0.0323 -0.1757  0.2680
 7420SOL     OW23158   2.168   2.409   5.415 -0.3846  0.2250  0.0519
 7420SOL    HW123159   2.094   2.469   5.444 -1.8046 -0.7490 -1.3689
 7420SOL    HW223160   2.168   2.401   5.316  1.2260 -0.3286  0.0587
 7421SOL     OW23161   2.790   5.969   6.916  0.3779 -0.3194 -0.5958
 7421SOL    HW123162   2.745   6.029   6.850 -0.6614 -1.0470 -0.5661
 7421SOL    HW223163   2.812   6.021   6.999 -0.3086  0.0704 -0.6508
 7422SOL     OW23164   4.976   3.135   5.626 -0.7365 -0.7537  0.1438
 7422SOL    HW123165   5.023   3.153   5.540  0.0471  0.4983  0.7951
 7422SOL    HW223166   4.906   3.205   5.641  1.2637  1.0272  1.9582
 7423SOL     OW23167   3.496   4.599   1.219  0.4397  0.1190 -0.7535
 7423SOL    HW123168   3.438   4.673   1.253  0.6585  0.5784 -1.3566
 7423SOL    HW223169   3.438   4.527   1.180  0.2692  0.6355 -1.4701
 7424SOL     OW23170   2.704   0.798   5.720 -0.3304 -0.2319 -0.1630
 7424SOL    HW123171   2.732   0.894   5.717 -0.3956 -0.2311 -0.8647
 7424SOL    HW223172   2.724   0.754   5.632  0.8821 -1.2011  0.5667
 7425SOL     OW23173   3.054   1.378   2.777 -0.4807 -0.4620  0.1778
 7425SOL    HW123174   3.114   1.430   2.716 -1.2707 -0.4007 -0.5762
 7425SOL    HW223175   3.105   1.304   2.820  0.5500  0.6568  0.9172
 7426SOL     OW23176   1.433   3.682   6.123  0.0652  0.2382 -0.4305
 7426SOL    HW123177   1.358   3.748   6.119  0.1508  0.3555 -0.1106
 7426SOL    HW223178   1.453   3.649   6.031  1.1876  1.9830 -0.8606
 7427SOL     OW23179   0.801   4.661   4.367 -0.7668  0.0260 -0.2874
 7427SOL    HW123180   0.884   4.714   4.351 -1.1154  0.6258 -0.1612
 7427SOL    HW223181   0.815   4.567   4.337 -0.1891  0.2272 -0.6663
 7428SOL     OW23182   4.575   1.636   4.800 -0.2885  0.6691 -0.1909
 7428SOL    HW123183   4.543   1.591   4.717  2.2835  0.5531 -1.2156
 7428SOL    HW223184   4.538   1.729   4.804 -1.9395  0.0566 -0.4483
 7429SOL     OW23185   1.733   2.772   1.788 -0.0180  0.2408  0.6289
 7429SOL    HW123186   1.719   2.695   1.725  1.4538  1.0099 -0.7197
 7429SOL    HW223187   1.644   2.803   1.822 -0.6012 -2.7084  2.1038
 7430SOL     OW23188   6.874   4.920   0.581  0.2374  0.2417 -0.2193
 7430SOL    HW123189   6.948   4.975   0.620  2.1588 -1.8078 -0.7917
 7430SOL    HW223190   6.875   4.930   0.481  0.4292 -0.5724 -0.3073
 7431SOL     OW23191   5.214   0.430   5.310 -0.7029 -0.1668  0.2171
 7431SOL    HW123192   5.214   0.346   5.365  0.4408  0.3964  1.1007
 7431SOL    HW223193   5.135   0.486   5.335 -0.5342 -0.2018  0.8317
 7432SOL     OW23194   1.987   1.960   6.003  0.0888  0.3468 -0.6908
 7432SOL    HW123195   1.991   1.886   5.935 -2.1903 -2.2118  1.6950
 7432SOL    HW223196   1.900   2.008   5.994  0.3922  0.9369 -0.4712
 7433SOL     OW23197   1.843   4.163   4.665 -0.6247  0.1103 -0.1465
 7433SOL    HW123198   1.815   4.224   4.590  0.7707 -0.8891 -1.5436
 7433SOL    HW223199   1.893   4.216   4.734 -0.1254  0.7046 -0.9394
 7434SOL     OW23200   6.640   0.218   6.910  0.1406  0.6394 -0.7144
 7434SOL    HW123201   6.668   0.154   6.838  0.2432  1.6594 -1.5989
 7434SOL    HW223202   6.717   0.236   6.970  0.2751  0.3918 -0.8076
 7435SOL     OW23203   3.647   1.375   2.750  0.4580 -0.1166  0.2496
 7435SOL    HW123204   3.632   1.415   2.841 -0.6473 -1.7433  0.8359
 7435SOL    HW223205   3.745   1.366   2.734  0.7041  1.3884  0.7090
 7436SOL     OW23206   2.309   4.876   5.078 -0.3884 -0.1138  0.3019
 7436SOL    HW123207   2.246   4.843   5.008 -1.7645 -1.0748  1.9258
 7436SOL    HW223208   2.402   4.846   5.055 -1.0513 -1.8914 -0.2477
 7437SOL     OW23209   6.112   3.189   6.268  0.0505 -0.2041  0.0743
 7437SOL    HW123210   6.085   3.266   6.209  0.9947  0.8230  0.9205
 7437SOL    HW223211   6.075   3.203   6.360  0.3583 -0.6945  0.2757
 7438SOL     OW23212   0.247   1.326   5.959  0.0351 -0.0428  0.3169
 7438SOL    HW123213   0.220   1.268   5.882  2.1023 -2.2325  1.1115
 7438SOL    HW223214   0.229   1.279   6.045  2.0340  0.2908  0.9786
 7439SOL     OW23215   0.836   5.622   0.395 -0.5488 -0.4861  0.4641
 7439SOL    HW123216   0.870   5.544   0.343 -1.6384 -0.3362 -0.5177
 7439SOL    HW223217   0.840   5.601   0.493  0.5439 -1.1873  0.2848
 7440SOL     OW23218   3.832   5.297   6.625 -0.2432 -0.1385 -0.2746
 7440SOL    HW123219   3.774   5.363   6.673 -1.0728 -3.1021  3.3111
 7440SOL    HW223220   3.775   5.228   6.580  0.2482 -2.5219  2.4362
 7441SOL     OW23221   6.782   5.494   3.020 -0.4976  0.1621  0.1836
 7441SOL    HW123222   6.798   5.454   3.110 -0.2626  0.0532  0.0932
 7441SOL    HW223223   6.695   5.461   2.984 -0.6670  0.3293  0.4389
 7442SOL     OW23224   0.001   4.928   3.779  0.4106 -0.0630  0.1512
 7442SOL    HW123225  -0.068   4.982   3.827 -0.3177 -1.0040  0.1920
 7442SOL    HW223226   0.016   4.967   3.688 -0.8645 -0.3798 -0.2067
 7443SOL     OW23227   3.189   2.891   5.952  1.0342  0.8951 -0.0097
 7443SOL    HW123228   3.276   2.867   5.910  1.7002  0.0874  1.7437
 7443SOL    HW223229   3.185   2.854   6.045 -1.3233  0.5969 -0.1566
 7444SOL     OW23230   3.811   0.547   0.093 -0.8061 -0.1165  0.3593
 7444SOL    HW123231   3.888   0.576   0.149  0.0503 -0.7016 -0.5010
 7444SOL    HW223232   3.730   0.600   0.119 -0.3795 -0.1902  1.9550
 7445SOL     OW23233   2.015   1.570   0.193  0.1925 -0.1386 -0.4316
 7445SOL    HW123234   1.970   1.492   0.237 -0.5626 -0.1205 -1.1382
 7445SOL    HW223235   2.077   1.614   0.257 -1.9648  0.8239  1.1304
 7446SOL     OW23236   6.823   1.736   0.733  0.0333  0.0817  0.1192
 7446SOL    HW123237   6.790   1.819   0.778 -0.7069 -0.7035  1.0643
 7446SOL    HW223238   6.774   1.723   0.646 -2.4074 -1.1613  1.5794
 7447SOL     OW23239   6.734   4.219   2.922 -0.4379 -0.5383 -0.6015
 7447SOL    HW123240   6.818   4.167   2.937  0.7323  0.7722 -2.3574
 7447SOL    HW223241   6.684   4.179   2.845 -1.1085 -0.8856 -0.0042
 7448SOL     OW23242   1.553   0.641   1.809  0.2690 -0.2502 -0.2526
 7448SOL    HW123243   1.633   0.601   1.854 -0.1784 -0.9324 -0.0594
 7448SOL    HW223244   1.474   0.581   1.821 -0.4194  0.6948  0.0598
 7449SOL     OW23245   2.357   6.346   0.027 -0.1455  0.1993  0.0939
 7449SOL    HW123246   2.279   6.284   0.037 -0.5823  0.8107  0.5889
 7449SOL    HW223247   2.438   6.294   0.001 -0.3522 -0.6660  1.1283
 7450SOL     OW23248   2.419   6.767   0.797  0.2988 -0.0641  0.0707
 7450SOL    HW123249   2.414   6.711   0.879 -0.0834  1.7326  1.3523
 7450SOL    HW223250   2.512   6.766   0.761  0.0166 -2.5600 -0.7947
 7451SOL     OW23251   4.789   2.742   3.936  0.1589  0.0871  0.2449
 7451SOL    HW123252   4.787   2.839   3.961 -0.8573 -0.3920  2.2436
 7451SOL    HW223253   4.876   2.702   3.963 -0.6486 -0.2494  2.5497
 7452SOL     OW23254   1.223   2.097   1.833 -0.0969 -0.0994 -0.3307
 7452SOL    HW123255   1.160   2.078   1.908 -0.8975 -1.8321 -1.3989
 7452SOL    HW223256   1.174   2.091   1.746  0.7588  2.0992 -1.0412
 7453SOL     OW23257   0.260   3.531   2.848 -0.0324 -0.1467 -0.4120
 7453SOL    HW123258   0.289   3.622   2.878  1.5235 -0.4344 -0.9531
 7453SOL    HW223259   0.334   3.465   2.863 -0.1591 -0.8184 -2.3648
 7454SOL     OW23260   5.932   6.066   4.394  0.1890 -0.1734  0.2267
 7454SOL    HW123261   5.903   6.143   4.337 -1.7174 -0.8758  0.1906
 7454SOL    HW223262   5.972   6.100   4.479 -0.3535  0.8495  0.0805
 7455SOL     OW23263   0.548   5.524   5.636 -0.3461 -0.3931  0.0247
 7455SOL    HW123264   0.601   5.453   5.590 -0.1607 -0.4333  0.2937
 7455SOL    HW223265   0.598   5.555   5.717 -0.7534 -0.4513  0.2971
 7456SOL     OW23266   2.794   6.223   1.538  0.1688 -0.2951 -0.3135
 7456SOL    HW123267   2.798   6.319   1.511  0.5883 -0.1674  0.1835
 7456SOL    HW223268   2.865   6.204   1.606 -0.2046 -0.8510 -0.0665
 7457SOL     OW23269   3.766   2.935   2.307 -0.2403 -0.5258 -0.6874
 7457SOL    HW123270   3.683   2.948   2.254  0.1520  0.7448 -1.0382
 7457SOL    HW223271   3.743   2.913   2.401 -0.9820  0.0266 -0.7323
 7458SOL     OW23272   6.690   0.690   2.777 -0.1480  0.3531  0.4297
 7458SOL    HW123273   6.786   0.689   2.805 -0.0705 -0.6740  0.1973
 7458SOL    HW223274   6.654   0.597   2.782 -0.9615  0.6339 -0.0570
 7459SOL     OW23275   0.705   0.100   2.822 -0.2950 -1.0487  0.0482
 7459SOL    HW123276   0.667   0.057   2.903 -1.3594 -0.6460 -0.2267
 7459SOL    HW223277   0.637   0.101   2.749 -1.4174  3.4756  0.8447
 7460SOL     OW23278   2.939   0.389   5.121  0.5218  0.0357  0.0339
 7460SOL    HW123279   2.946   0.318   5.051 -0.9931 -1.3821  1.2298
 7460SOL    HW223280   2.842   0.413   5.134  0.8535  0.9221  1.0190
 7461SOL     OW23281   3.213   3.136   4.384  0.2257 -0.9944 -0.3255
 7461SOL    HW123282   3.251   3.045   4.399 -0.1294 -1.0337  0.3690
 7461SOL    HW223283   3.226   3.191   4.466 -1.6876 -1.1732  0.1238
 7462SOL     OW23284   0.448   3.921   3.646 -1.1059  0.2355  0.2387
 7462SOL    HW123285   0.511   3.997   3.631 -0.8496  0.1350  0.7745
 7462SOL    HW223286   0.391   3.908   3.565 -0.0621 -0.0226 -0.4727
 7463SOL     OW23287   2.030   4.346   5.728  0.0521  0.2952 -0.5515
 7463SOL    HW123288   2.078   4.303   5.652  1.3878 -0.0742  0.4543
 7463SOL    HW223289   1.962   4.282   5.765  0.3179 -0.0309 -0.6179
 7464SOL     OW23290   6.133   0.280   3.926 -0.1368 -0.3035  0.0045
 7464SOL    HW123291   6.103   0.185   3.939  0.9400 -0.6207  0.2203
 7464SOL    HW223292   6.095   0.315   3.840 -1.6229 -0.4775  0.5610
 7465SOL     OW23293   6.907   6.410   6.168 -0.2646  0.0136 -0.4833
 7465SOL    HW123294   6.953   6.428   6.081  0.4090 -0.2393 -0.1927
 7465SOL    HW223295   6.901   6.312   6.183 -1.0127  0.0434 -0.5665
 7466SOL     OW23296   6.537   6.698   5.451  0.4776 -0.1198 -0.0327
 7466SOL    HW123297   6.444   6.736   5.459  0.6977  0.4554 -0.1622
 7466SOL    HW223298   6.575   6.683   5.542 -0.2513 -1.6395  0.0425
 7467SOL     OW23299   3.709   5.655   0.571 -0.2422  0.0372  0.3001
 7467SOL    HW123300   3.642   5.698   0.632  0.4832  0.2160  0.9878
 7467SOL    HW223301   3.667   5.577   0.524 -0.7755 -0.1668  1.1051
 7468SOL     OW23302   5.713   0.814   1.347 -0.7840  0.9925 -0.0448
 7468SOL    HW123303   5.635   0.864   1.383 -0.0600  3.6932 -1.8118
 7468SOL    HW223304   5.798   0.857   1.379 -0.0954  0.3707 -0.9540
 7469SOL     OW23305   6.605   2.541   6.323  0.0192  0.0748  0.0794
 7469SOL    HW123306   6.586   2.608   6.252  0.5170 -0.2775 -0.3903
 7469SOL    HW223307   6.655   2.585   6.398 -1.2650  0.6509  0.6318
 7470SOL     OW23308   1.408   2.761   6.772  0.1054 -0.1318  0.3867
 7470SOL    HW123309   1.417   2.860   6.756 -2.3716  0.2950  1.1343
 7470SOL    HW223310   1.311   2.735   6.764  0.7834 -2.6861 -0.6038
 7471SOL     OW23311   1.880   1.761   0.677 -0.1400 -0.3107  0.0159
 7471SOL    HW123312   1.891   1.818   0.758 -1.4833 -2.0112  1.4673
 7471SOL    HW223313   1.792   1.782   0.634 -0.7650 -1.4219  0.7135
 7472SOL     OW23314   2.588   0.128   2.092  0.1077 -0.3283 -0.1137
 7472SOL    HW123315   2.634   0.182   2.021  0.7782 -0.7608 -0.0229
 7472SOL    HW223316   2.643   0.131   2.176  0.6350 -1.8643 -0.3682
 7473SOL     OW23317   5.217   0.524   4.613 -0.2583 -0.3295  0.1734
 7473SOL    HW123318   5.165   0.590   4.560  0.9962  0.1028 -0.5774
 7473SOL    HW223319   5.265   0.571   4.687 -1.3829 -0.8140  1.2442
 7474SOL     OW23320   1.063   1.621   6.101  0.5055 -0.4204 -0.4472
 7474SOL    HW123321   1.049   1.716   6.129 -0.4602 -0.8421  0.5575
 7474SOL    HW223322   1.112   1.572   6.173 -0.6291 -1.1306 -0.1314
 7475SOL     OW23323   0.623   5.838   6.424  0.1336 -0.4521 -0.2762
 7475SOL    HW123324   0.683   5.870   6.498 -2.1924  0.2698  1.3840
 7475SOL    HW223325   0.540   5.893   6.423 -0.4318 -1.2512 -2.7054
 7476SOL     OW23326   5.022   1.398   6.873  0.1737 -0.2675  0.1581
 7476SOL    HW123327   5.074   1.358   6.797 -0.4214 -0.4661 -0.1580
 7476SOL    HW223328   4.935   1.432   6.838  0.0362 -0.0622  0.7012
 7477SOL     OW23329   0.570   5.294   4.644 -0.0994 -0.2130  0.1048
 7477SOL    HW123330   0.484   5.345   4.641  0.4253  0.6388 -0.6715
 7477SOL    HW223331   0.558   5.207   4.596 -1.1816 -1.1506  1.9812
 7478SOL     OW23332   1.595   5.678   0.639  0.3824  0.1854 -0.4417
 7478SOL    HW123333   1.497   5.658   0.632  0.4332  0.1313 -1.1179
 7478SOL    HW223334   1.624   5.669   0.734 -0.1521 -0.3376 -0.3173
 7479SOL     OW23335   6.069   2.596   4.738 -0.0759 -0.2623 -0.2985
 7479SOL    HW123336   5.994   2.560   4.793 -0.0632  0.7835  0.4482
 7479SOL    HW223337   6.121   2.521   4.698 -0.8273 -1.0163  0.1205
 7480SOL     OW23338   5.542   2.885   5.303  0.1868  0.0239  0.3590
 7480SOL    HW123339   5.577   2.977   5.286  3.6724 -1.4489 -1.4200
 7480SOL    HW223340   5.475   2.861   5.234 -1.6790  1.5433  1.5356
 7481SOL     OW23341   4.232   6.618   3.927  0.4267  0.2839  0.7255
 7481SOL    HW123342   4.259   6.596   4.021  1.3513 -0.4902  0.2904
 7481SOL    HW223343   4.173   6.699   3.928 -0.3960 -0.2826  2.0693
 7482SOL     OW23344   0.220   4.076   2.611 -0.2364  0.2199  0.0684
 7482SOL    HW123345   0.305   4.034   2.643 -0.0588 -0.0264 -0.6985
 7482SOL    HW223346   0.220   4.173   2.636  0.8426  0.5157 -0.9697
 7483SOL     OW23347   1.786   4.911   4.696 -0.1226  0.0673  0.0857
 7483SOL    HW123348   1.774   5.004   4.731  0.0881 -0.0387  0.4417
 7483SOL    HW223349   1.696   4.870   4.680 -0.2205  0.4659 -0.4468
 7484SOL     OW23350   3.891   3.797   6.084  0.1586 -0.1020  0.3763
 7484SOL    HW123351   3.881   3.771   6.180 -0.4108 -1.1710  0.0420
 7484SOL    HW223352   3.959   3.738   6.041 -0.3231 -0.2974 -0.1226
 7485SOL     OW23353   6.467   0.987   6.015  0.4576 -0.0188  0.0807
 7485SOL    HW123354   6.440   0.893   6.036  2.4727 -0.3289  1.6993
 7485SOL    HW223355   6.542   0.986   5.949  0.6433  0.4387  0.2794
 7486SOL     OW23356   0.518   5.251   2.807  0.2239 -0.3525  0.0237
 7486SOL    HW123357   0.607   5.236   2.765  0.1527 -0.5071 -0.0689
 7486SOL    HW223358   0.448   5.202   2.756 -0.0951  0.7919 -0.6679
 7487SOL     OW23359   4.915   2.349   5.947 -0.0504 -0.6843 -0.0100
 7487SOL    HW123360   4.833   2.324   5.999 -1.2521  0.6049 -1.1993
 7487SOL    HW223361   4.954   2.433   5.986 -0.7935  0.1264 -0.9461
 7488SOL     OW23362   6.728   2.687   0.082 -1.2474 -0.6521 -0.1271
 7488SOL    HW123363   6.712   2.637  -0.003 -1.3812 -0.8896  0.0368
 7488SOL    HW223364   6.682   2.776   0.077 -2.3198 -1.1770  0.1900
 7489SOL     OW23365   3.692   2.900   2.973 -0.1776 -0.0310 -0.0100
 7489SOL    HW123366   3.675   2.942   3.062 -0.5118  0.7840 -0.4449
 7489SOL    HW223367   3.612   2.911   2.915  0.1631 -0.2431 -0.5255
 7490SOL     OW23368   1.202   2.416   3.238 -0.3626 -0.0565 -0.2122
 7490SOL    HW123369   1.213   2.342   3.171  0.7691  0.3620 -0.5158
 7490SOL    HW223370   1.279   2.413   3.302 -0.4905  0.6494 -0.0264
 7491SOL     OW23371   5.427   5.626   4.237  0.2501 -0.1937  0.2220
 7491SOL    HW123372   5.381   5.693   4.295 -0.6101 -0.2461 -0.3816
 7491SOL    HW223373   5.382   5.623   4.148  0.5317 -1.2920  0.1082
 7492SOL     OW23374   6.373   2.424   2.962 -0.3326  0.4480  0.6142
 7492SOL    HW123375   6.396   2.505   3.016  1.5979 -0.7263  1.6612
 7492SOL    HW223376   6.360   2.346   3.024  0.8003 -0.6855 -0.5196
 7493SOL     OW23377   4.983   6.938   6.555 -0.1860 -0.0485 -1.3173
 7493SOL    HW123378   5.051   7.011   6.550  0.7912 -0.8473 -0.3582
 7493SOL    HW223379   4.972   6.896   6.465  0.7948 -0.0688 -1.4372
 7494SOL     OW23380   6.267   5.970   0.402  0.4165 -0.4125  0.5441
 7494SOL    HW123381   6.293   6.027   0.324  0.3305 -0.7088  0.3000
 7494SOL    HW223382   6.273   5.874   0.377  1.6351 -0.5612  1.2802
 7495SOL     OW23383   2.926   4.058   5.983  0.9595 -0.2893  0.2004
 7495SOL    HW123384   3.014   4.027   5.945  1.5352  2.2594 -0.7146
 7495SOL    HW223385   2.878   4.113   5.916  0.2360  1.1843  1.8522
 7496SOL     OW23386   5.991   1.382   3.152 -0.1918 -0.3714 -0.3213
 7496SOL    HW123387   6.034   1.427   3.231  0.0002 -0.8335 -0.1626
 7496SOL    HW223388   6.055   1.316   3.113 -0.2043  0.0028 -0.9963
 7497SOL     OW23389   5.546   3.946   4.448 -0.1371 -0.1953 -0.2227
 7497SOL    HW123390   5.464   3.996   4.477 -0.7078 -1.2181 -0.0117
 7497SOL    HW223391   5.620   4.010   4.428 -0.9836  0.7437 -0.3850
 7498SOL     OW23392   1.245   5.081   3.187 -0.1921 -0.0952 -0.3193
 7498SOL    HW123393   1.321   5.128   3.231  0.1843 -1.4794  0.5825
 7498SOL    HW223394   1.202   5.141   3.120  1.6663  0.7165 -0.8138
 7499SOL     OW23395   5.505   2.431   0.646  0.2600 -0.1967 -0.4886
 7499SOL    HW123396   5.406   2.426   0.638  0.2820  1.4902 -2.8334
 7499SOL    HW223397   5.534   2.527   0.639  2.0823 -0.6835 -0.1747
 7500SOL     OW23398   5.292   6.441   4.312 -0.1072 -0.0321 -0.1944
 7500SOL    HW123399   5.245   6.356   4.289 -1.6366  0.1211  2.0870
 7500SOL    HW223400   5.277   6.508   4.239  1.2275 -1.6567 -2.0940
 7501SOL     OW23401   5.847   3.302   3.761  0.2629  0.0844 -0.0669
 7501SOL    HW123402   5.911   3.285   3.836  0.2966  1.8930  0.3712
 7501SOL    HW223403   5.756   3.270   3.786  0.8285 -1.9932 -0.4700
 7502SOL     OW23404   5.326   6.400   5.113  0.0906 -0.0324  0.2384
 7502SOL    HW123405   5.408   6.442   5.074  0.4390  0.5824  1.5466
 7502SOL    HW223406   5.347   6.306   5.140  1.0738  0.7366  2.4666
 7503SOL     OW23407   0.248   6.560   5.650  0.0429 -0.5876  0.2473
 7503SOL    HW123408   0.326   6.513   5.608  0.8389  1.8017 -1.1098
 7503SOL    HW223409   0.168   6.549   5.592 -0.3006 -1.8070  0.9079
 7504SOL     OW23410   1.104   5.089   5.420 -0.0141 -0.1151  0.4074
 7504SOL    HW123411   1.148   5.020   5.477 -0.3760 -0.8298 -0.1772
 7504SOL    HW223412   1.007   5.096   5.446 -0.5078 -1.3833 -0.9826
 7505SOL     OW23413   0.667   1.473   2.961  0.0221  0.3449  0.5074
 7505SOL    HW123414   0.622   1.401   2.909 -0.9531  1.5006 -0.3007
 7505SOL    HW223415   0.710   1.433   3.043 -2.5547 -0.8304  1.4019
 7506SOL     OW23416   6.784   2.519   1.904  0.4733  0.3605  0.2269
 7506SOL    HW123417   6.701   2.464   1.902  0.5553  0.2091  0.8412
 7506SOL    HW223418   6.860   2.467   1.866  0.2388  0.5954 -0.5889
 7507SOL     OW23419   6.346   3.473   6.457  0.0798 -0.2359  0.4267
 7507SOL    HW123420   6.270   3.412   6.479 -1.3747  1.1724 -0.5204
 7507SOL    HW223421   6.373   3.461   6.362  0.0618  0.3045  0.3486
 7508SOL     OW23422   4.562   5.600   4.751 -0.4280 -0.3102  0.1251
 7508SOL    HW123423   4.648   5.630   4.792  0.6155 -2.3865 -0.3834
 7508SOL    HW223424   4.569   5.605   4.652 -0.7915 -0.6822  0.0761
 7509SOL     OW23425   0.437   5.020   0.259 -0.2167 -0.0334  0.3604
 7509SOL    HW123426   0.509   5.055   0.199  1.8743 -1.9577  1.5842
 7509SOL    HW223427   0.356   4.999   0.204  1.3456 -1.0460 -1.7216
 7510SOL     OW23428   0.836   4.425   1.235  0.0085 -0.5922  0.2268
 7510SOL    HW123429   0.748   4.379   1.244  0.7860 -2.2080 -0.0424
 7510SOL    HW223430   0.894   4.374   1.171  0.7756  1.0289 -0.4216
 7511SOL     OW23431   2.831   1.075   0.084  0.2686 -0.0946  0.9059
 7511SOL    HW123432   2.752   1.041   0.135  0.8485 -0.6663  1.4444
 7511SOL    HW223433   2.914   1.028   0.116  0.5482 -1.1769 -1.1868
 7512SOL     OW23434   5.304   5.000   2.480  0.3950 -1.0438 -0.0816
 7512SOL    HW123435   5.287   5.037   2.389 -0.3010 -0.5992  0.2234
 7512SOL    HW223436   5.217   4.983   2.526  0.6767  1.6602  1.6793
 7513SOL     OW23437   1.849   0.407   4.729 -0.4553 -0.4821 -0.4720
 7513SOL    HW123438   1.916   0.463   4.778 -3.4351  1.5833  1.5741
 7513SOL    HW223439   1.855   0.428   4.631  1.1791  0.3474 -0.2401
 7514SOL     OW23440   6.526   3.132   6.505 -0.3584  0.5676 -0.6057
 7514SOL    HW123441   6.603   3.095   6.557 -0.9910  1.4751  1.0736
 7514SOL    HW223442   6.525   3.091   6.414  1.3818 -0.3657 -0.2643
 7515SOL     OW23443   0.501   0.554   1.241 -0.5177 -0.1060  0.3154
 7515SOL    HW123444   0.599   0.543   1.256 -0.7436 -0.2841  1.9031
 7515SOL    HW223445   0.455   0.560   1.330 -1.9278  0.1136 -0.4061
 7516SOL     OW23446   3.159   5.338   3.891 -0.1873  0.3307  0.6362
 7516SOL    HW123447   3.084   5.314   3.952  1.1637 -0.6038  2.0119
 7516SOL    HW223448   3.149   5.289   3.804  0.4287 -2.3369  1.9480
 7517SOL     OW23449   6.294   0.215   5.961  0.5055  0.0842 -0.0875
 7517SOL    HW123450   6.363   0.151   5.995  0.0946  0.8498  2.3454
 7517SOL    HW223451   6.314   0.307   5.994 -1.5463  0.3660  0.4831
 7518SOL     OW23452   2.123   3.689   2.199  0.0912 -0.1176  0.6902
 7518SOL    HW123453   2.134   3.614   2.134 -0.4052  0.0410  0.4154
 7518SOL    HW223454   2.148   3.658   2.291  0.7735 -0.3497  0.4298
 7519SOL     OW23455   6.096   5.949   1.499 -0.2650  0.3350  0.4308
 7519SOL    HW123456   6.065   5.872   1.442  1.8381 -0.2339 -0.0407
 7519SOL    HW223457   6.034   5.960   1.577 -2.3758  0.1942 -1.1602
 7520SOL     OW23458   2.197   1.110   3.832 -0.0180 -0.0757 -0.3026
 7520SOL    HW123459   2.246   1.196   3.817  1.2082 -0.7393 -0.1969
 7520SOL    HW223460   2.098   1.126   3.824  0.2469  1.0602 -1.7651
 7521SOL     OW23461   5.975   0.880   4.669  0.1664  0.3976  0.7643
 7521SOL    HW123462   5.948   0.914   4.578  1.4619 -1.5920 -0.4374
 7521SOL    HW223463   5.948   0.947   4.738 -1.6618  1.5810 -0.9718
 7522SOL     OW23464   4.204   1.273   1.720  0.5934 -0.6289  0.3112
 7522SOL    HW123465   4.215   1.267   1.621 -0.5138 -0.6470  0.1784
 7522SOL    HW223466   4.122   1.223   1.748  1.4737 -1.5265  1.3691
 7523SOL     OW23467   2.826   0.432   0.571  0.2587  0.2284  0.4465
 7523SOL    HW123468   2.813   0.504   0.503 -0.8321  0.7400  1.1639
 7523SOL    HW223469   2.771   0.453   0.652 -1.9620 -2.5392 -0.1964
 7524SOL     OW23470   1.198   2.492   6.284 -0.1423  0.4807  0.0557
 7524SOL    HW123471   1.223   2.565   6.220  0.6165 -1.1716 -1.6179
 7524SOL    HW223472   1.276   2.472   6.343  0.9931 -1.3309 -1.8955
 7525SOL     OW23473   2.455   1.033   5.805 -0.3227 -0.8946 -0.0184
 7525SOL    HW123474   2.503   0.968   5.865 -0.0040 -0.3643  0.3143
 7525SOL    HW223475   2.369   0.992   5.774 -1.7295 -0.3555  2.7501
 7526SOL     OW23476   6.530   3.244   3.498  0.1416 -0.0507 -0.4921
 7526SOL    HW123477   6.614   3.198   3.471  0.9172  1.2712 -0.4322
 7526SOL    HW223478   6.461   3.233   3.426  0.9668  0.3539 -1.3616
 7527SOL     OW23479   5.615   0.064   3.426 -0.6923  0.0576 -0.3221
 7527SOL    HW123480   5.619   0.023   3.335  2.1785 -2.3643  0.7153
 7527SOL    HW223481   5.545   0.017   3.480 -0.7553 -0.1701 -0.5982
 7528SOL     OW23482   3.809   1.552   0.590  0.3747  0.0034  0.0836
 7528SOL    HW123483   3.726   1.549   0.645  0.7982  1.2221  0.8289
 7528SOL    HW223484   3.792   1.602   0.505 -0.1393 -1.4293 -0.6993
 7529SOL     OW23485   5.894   3.769   1.466 -0.2949  0.7596 -1.0071
 7529SOL    HW123486   5.805   3.761   1.510  0.0788  0.4244 -0.2850
 7529SOL    HW223487   5.965   3.736   1.529  0.4887  2.3987 -0.9819
 7530SOL     OW23488   2.195   3.498   6.967 -0.0662 -0.1348 -0.2852
 7530SOL    HW123489   2.250   3.441   7.028  0.5742  1.7271  0.9337
 7530SOL    HW223490   2.112   3.448   6.942  1.2424 -2.2575 -0.6643
 7531SOL     OW23491   4.480   4.525   6.130  0.3469 -0.0006  0.4970
 7531SOL    HW123492   4.538   4.601   6.100  0.9253 -0.7367 -0.3009
 7531SOL    HW223493   4.425   4.554   6.209  1.4430  0.8630  0.9711
 7532SOL     OW23494   5.672   0.443   2.536 -0.3851  0.2984 -0.1273
 7532SOL    HW123495   5.592   0.395   2.500 -1.6089  2.3622 -0.3020
 7532SOL    HW223496   5.720   0.384   2.601 -0.4034 -2.0207 -2.0759
 7533SOL     OW23497   3.827   6.884   3.959  0.0828 -0.6151  0.4027
 7533SOL    HW123498   3.764   6.856   3.887  0.1459 -0.0866  0.1387
 7533SOL    HW223499   3.849   6.980   3.948 -0.7368 -0.2421  1.7465
 7534SOL     OW23500   0.613   6.694   4.576  0.8154 -0.2210  1.2607
 7534SOL    HW123501   0.516   6.671   4.569  0.3663  1.5725  0.9905
 7534SOL    HW223502   0.629   6.746   4.660  1.5478 -0.5013  1.3036
 7535SOL     OW23503   0.697   0.482   1.994 -0.2701 -0.1403 -0.1828
 7535SOL    HW123504   0.633   0.504   2.068  0.3819 -2.1709  1.0738
 7535SOL    HW223505   0.790   0.507   2.021 -0.0492 -0.7425 -0.3714
 7536SOL     OW23506   4.895   4.086   0.434 -0.7130 -0.5912 -0.0325
 7536SOL    HW123507   4.979   4.076   0.380 -1.4257 -1.3102 -1.0440
 7536SOL    HW223508   4.816   4.085   0.372 -1.4842 -0.1541  0.9271
 7537SOL     OW23509   4.787   3.583   1.811 -0.1728 -0.1968  0.2052
 7537SOL    HW123510   4.805   3.614   1.718 -1.0095 -1.6543 -0.4820
 7537SOL    HW223511   4.716   3.639   1.852  1.4672  1.6241  0.6737
 7538SOL     OW23512   2.992   2.163   4.785 -0.1575 -0.4135  0.5455
 7538SOL    HW123513   2.920   2.221   4.748 -0.2285  0.4117  1.9193
 7538SOL    HW223514   3.054   2.218   4.841  0.8151 -1.3473  0.4310
 7539SOL     OW23515   0.459   3.413   4.860  0.3776 -0.1937  0.1586
 7539SOL    HW123516   0.456   3.511   4.879  2.9341 -0.1140  0.4784
 7539SOL    HW223517   0.406   3.364   4.929  0.2326  0.8721  0.8312
 7540SOL     OW23518   3.225   3.604   0.926 -0.4746 -0.3800 -0.0340
 7540SOL    HW123519   3.173   3.669   0.981 -0.1801 -0.0451 -0.1502
 7540SOL    HW223520   3.176   3.585   0.842 -0.3041  0.1070 -0.2452
 7541SOL     OW23521   3.212   6.736   0.853  0.2136  0.3597  0.3203
 7541SOL    HW123522   3.129   6.731   0.797  1.1266 -1.0582 -0.9768
 7541SOL    HW223523   3.287   6.772   0.798  1.0607 -0.7770  0.7029
 7542SOL     OW23524   1.794   1.305   2.146  0.4734  0.0533  0.0933
 7542SOL    HW123525   1.872   1.351   2.103  1.2628 -1.0535  0.3024
 7542SOL    HW223526   1.780   1.216   2.103  0.0248 -0.2280  0.8062
 7543SOL     OW23527   3.416   1.802   6.174 -0.0537 -0.5119 -0.5687
 7543SOL    HW123528   3.365   1.853   6.244 -0.3863 -1.7329  0.0919
 7543SOL    HW223529   3.446   1.866   6.103 -3.0152  0.1965 -1.3247
 7544SOL     OW23530   3.984   6.419   4.280  0.0049  0.3701  0.3537
 7544SOL    HW123531   3.966   6.489   4.350 -0.8789  1.3213 -0.7873
 7544SOL    HW223532   3.971   6.459   4.190  0.7017 -0.9665 -0.3589
 7545SOL     OW23533   5.123   6.818   2.480  0.0452  0.1866 -0.1470
 7545SOL    HW123534   5.179   6.735   2.473 -0.1981  0.0411 -0.3789
 7545SOL    HW223535   5.158   6.875   2.554  1.1964  0.6359 -1.0047
 7546SOL     OW23536   5.491   3.824   6.936  0.0135  0.1018  0.1924
 7546SOL    HW123537   5.416   3.819   6.870  1.2122  1.7192 -1.3787
 7546SOL    HW223538   5.561   3.886   6.902  1.3246 -0.0771  2.3944
 7547SOL     OW23539   2.196   1.653   0.368 -0.1438 -0.9666 -0.4229
 7547SOL    HW123540   2.280   1.678   0.320 -1.0374 -0.1481 -1.5874
 7547SOL    HW223541   2.220   1.605   0.452  1.5831  1.4629  0.5904
 7548SOL     OW23542   1.789   6.616   0.351  0.0830 -0.2535 -0.2986
 7548SOL    HW123543   1.819   6.669   0.430  1.5532  0.4096 -1.2544
 7548SOL    HW223544   1.868   6.572   0.309 -0.8090 -1.3424 -0.8726
 7549SOL     OW23545   2.996   5.530   4.565  0.1112 -0.1963  0.2494
 7549SOL    HW123546   2.917   5.563   4.615  0.2937 -1.0886  1.1598
 7549SOL    HW223547   2.997   5.430   4.566  1.1389 -0.1996  0.0672
 7550SOL     OW23548   1.559   6.535   4.196  0.4137  0.1301  0.2677
 7550SOL    HW123549   1.479   6.565   4.144  0.9897  1.4434  0.0978
 7550SOL    HW223550   1.636   6.595   4.176  1.5819 -1.3785  0.0981
 7551SOL     OW23551   4.157   1.780   5.809  0.3442 -0.0220  0.0557
 7551SOL    HW123552   4.153   1.715   5.733  0.9668  0.6040 -0.5269
 7551SOL    HW223553   4.067   1.823   5.821  0.7064  1.3001 -1.6141
 7552SOL     OW23554   6.437   0.678   6.027  0.7292 -0.0661 -0.6939
 7552SOL    HW123555   6.400   0.646   5.940 -1.4067 -2.1980  0.8732
 7552SOL    HW223556   6.490   0.605   6.069  1.3468  0.7815  0.0280
 7553SOL     OW23557   2.488   0.972   5.497 -0.4843  0.2769  0.7565
 7553SOL    HW123558   2.532   0.958   5.586 -2.2399  0.0431  1.6323
 7553SOL    HW223559   2.463   1.068   5.487  1.0666  0.6040 -0.1668
 7554SOL     OW23560   2.696   6.450   1.094 -0.3021 -0.6240 -0.3839
 7554SOL    HW123561   2.786   6.487   1.116 -0.3586  1.7416 -3.4975
 7554SOL    HW223562   2.706   6.378   1.025 -0.7784 -0.5384 -0.5421
 7555SOL     OW23563   3.506   3.406   5.656  0.0632  0.0247 -0.2961
 7555SOL    HW123564   3.542   3.499   5.662 -0.6040  0.4652 -2.3071
 7555SOL    HW223565   3.453   3.396   5.572 -0.4544 -1.9948  0.2094
 7556SOL     OW23566   2.111   6.558   5.296 -0.3630 -0.3643  0.0085
 7556SOL    HW123567   2.190   6.497   5.296 -0.9818 -1.2021 -1.0165
 7556SOL    HW223568   2.027   6.505   5.309 -0.8931  0.2813 -0.6863
 7557SOL     OW23569   5.945   0.250   4.575 -0.8523 -0.0540 -0.0638
 7557SOL    HW123570   6.006   0.330   4.583  1.4681 -1.8021  1.0046
 7557SOL    HW223571   5.884   0.263   4.497 -2.6125  3.9928  1.6660
 7558SOL     OW23572   6.648   1.557   0.515 -0.3871  0.7661 -0.4578
 7558SOL    HW123573   6.656   1.458   0.517 -1.4662  0.6028 -1.9470
 7558SOL    HW223574   6.578   1.586   0.580  0.8270  0.6921  0.9078
 7559SOL     OW23575   0.382   5.078   6.854 -0.7857 -0.6291 -0.4639
 7559SOL    HW123576   0.325   5.104   6.931  0.9668 -3.6886  2.1034
 7559SOL    HW223577   0.467   5.130   6.855 -1.7308  1.0620 -1.9112
 7560SOL     OW23578   6.977   5.077   4.119  0.1381  0.2803 -0.6352
 7560SOL    HW123579   6.999   5.087   4.216  0.2645  3.6888 -0.9054
 7560SOL    HW223580   7.058   5.042   4.070  0.0580 -1.4972  0.4338
 7561SOL     OW23581   6.841   0.159   3.526  0.2154 -0.3898  0.2001
 7561SOL    HW123582   6.841   0.075   3.472  0.6950 -1.2132  1.4496
 7561SOL    HW223583   6.799   0.233   3.473  0.3733 -1.2480 -1.1595
 7562SOL     OW23584   6.687   0.755   1.974  0.6634  0.0570 -0.1744
 7562SOL    HW123585   6.702   0.664   2.010 -0.1980 -0.1231 -0.2452
 7562SOL    HW223586   6.606   0.796   2.017 -0.6433 -0.3232 -2.1200
 7563SOL     OW23587   6.515   3.341   3.145  0.0708  0.5389  0.4473
 7563SOL    HW123588   6.497   3.434   3.177 -1.8531  0.2297  0.3686
 7563SOL    HW223589   6.428   3.293   3.131  0.9180 -0.3327 -2.3604
 7564SOL     OW23590   5.881   4.213   3.084  1.2291 -0.3776  0.4406
 7564SOL    HW123591   5.865   4.117   3.108 -0.0987  0.1152  1.6354
 7564SOL    HW223592   5.970   4.221   3.038  0.8870 -2.3265 -0.6989
 7565SOL     OW23593   3.963   3.305   4.556  0.0761 -0.1470 -0.0183
 7565SOL    HW123594   3.922   3.378   4.503  0.4067  0.5341  0.6435
 7565SOL    HW223595   3.900   3.277   4.629 -2.2767 -3.9981 -3.1527
 7566SOL     OW23596   0.857   0.161   0.332  0.0791  0.9874 -0.4797
 7566SOL    HW123597   0.819   0.070   0.314  0.8875  0.1940  1.6225
 7566SOL    HW223598   0.821   0.226   0.264  0.1227 -1.0206 -2.5464
 7567SOL     OW23599   6.118   6.369   1.148  0.1078  0.0625 -0.2487
 7567SOL    HW123600   6.097   6.313   1.228  0.8455 -0.8841 -0.6900
 7567SOL    HW223601   6.132   6.464   1.176  0.1156 -0.2103  0.7128
 7568SOL     OW23602   2.676   4.689   2.617  0.3320 -0.0253  0.0211
 7568SOL    HW123603   2.611   4.626   2.577 -0.2338  1.2651 -1.1787
 7568SOL    HW223604   2.736   4.725   2.546  0.7920  0.6130  0.7116
 7569SOL     OW23605   4.106   3.647   1.890  0.3323  0.0784 -0.4115
 7569SOL    HW123606   4.039   3.630   1.818  1.4442  1.1409 -1.7558
 7569SOL    HW223607   4.179   3.705   1.855  1.3884 -0.1092  1.3380
 7570SOL     OW23608   0.641   0.996   4.304 -0.5254  0.1390 -0.7225
 7570SOL    HW123609   0.705   0.984   4.380 -1.1291  0.3041 -0.1727
 7570SOL    HW223610   0.682   1.053   4.234  0.9822 -2.0070 -1.6691
 7571SOL     OW23611   2.932   3.556   1.767  0.0540 -0.5425 -0.5909
 7571SOL    HW123612   2.976   3.480   1.814  1.8691  0.6363 -0.2603
 7571SOL    HW223613   2.969   3.642   1.802 -2.3356  0.5496 -0.5437
 7572SOL     OW23614   6.668   4.445   5.294 -0.1114  0.2228 -0.1133
 7572SOL    HW123615   6.596   4.376   5.290 -0.8017  0.9178  0.1665
 7572SOL    HW223616   6.650   4.515   5.224  1.1681 -0.4248 -1.1327
 7573SOL     OW23617   5.718   0.163   0.174 -0.3020 -0.6282 -0.0800
 7573SOL    HW123618   5.643   0.129   0.231 -1.3628 -2.3022 -2.3088
 7573SOL    HW223619   5.737   0.259   0.197 -2.7285 -0.3331  0.9740
 7574SOL     OW23620   6.056   1.418   1.726  0.1008 -0.7647 -0.0927
 7574SOL    HW123621   5.971   1.396   1.677 -0.6691  0.5304  0.6072
 7574SOL    HW223622   6.102   1.333   1.752  0.4630 -1.5260 -2.8525
 7575SOL     OW23623   2.650   4.109   1.429  0.0083  0.6145  0.2588
 7575SOL    HW123624   2.715   4.070   1.495  0.1211  1.9171  0.9429
 7575SOL    HW223625   2.654   4.209   1.433 -1.0051  0.7122 -0.7286
 7576SOL     OW23626   4.564   1.953   5.749 -0.4272  0.0197 -0.1593
 7576SOL    HW123627   4.607   2.043   5.754 -3.0061  1.2988  1.3838
 7576SOL    HW223628   4.632   1.882   5.768  1.1002  1.8484  1.6820
 7577SOL     OW23629   6.732   0.654   0.120 -0.1589 -0.2615 -0.4631
 7577SOL    HW123630   6.802   0.582   0.121 -0.2762 -0.4394 -2.2808
 7577SOL    HW223631   6.744   0.712   0.201  1.6024 -0.7390 -0.3222
 7578SOL     OW23632   3.796   2.127   4.035  0.4458 -0.1491  0.6841
 7578SOL    HW123633   3.730   2.112   3.962  0.6479 -1.9523  0.8396
 7578SOL    HW223634   3.748   2.158   4.117  0.1169  0.9705  0.1037
 7579SOL     OW23635   5.524   5.519   3.164 -0.0170 -0.2440  0.5562
 7579SOL    HW123636   5.572   5.485   3.245 -2.2120 -0.8967  1.6561
 7579SOL    HW223637   5.494   5.442   3.108 -0.4989  0.1071  0.3221
 7580SOL     OW23638   6.428   1.345   1.952  0.6117 -0.5168 -0.0285
 7580SOL    HW123639   6.523   1.339   1.982  0.1966  0.1960  1.5655
 7580SOL    HW223640   6.420   1.313   1.858  2.3355 -1.0594 -0.0184
 7581SOL     OW23641   0.798   3.917   6.068  0.2037  0.0707 -0.7037
 7581SOL    HW123642   0.734   3.963   6.129 -0.5035 -0.6076 -0.9171
 7581SOL    HW223643   0.886   3.906   6.115 -0.4758 -0.8988  0.4108
 7582SOL     OW23644   5.499   4.255   1.426  0.4726  0.2743  0.2037
 7582SOL    HW123645   5.507   4.348   1.460  1.0754 -0.6053  2.6370
 7582SOL    HW223646   5.570   4.238   1.358 -0.4886  1.9505 -1.3001
 7583SOL     OW23647   5.358   6.454   2.412  0.3646  0.1188 -0.1620
 7583SOL    HW123648   5.296   6.486   2.340 -1.7616  0.5081  1.7205
 7583SOL    HW223649   5.451   6.487   2.393 -0.3152  1.0468 -2.1758
 7584SOL     OW23650   3.659   0.987   5.120  0.1245 -0.7311 -0.0412
 7584SOL    HW123651   3.666   1.061   5.188 -0.0904  0.9169 -1.7350
 7584SOL    HW223652   3.576   1.001   5.065  1.1414 -1.0804 -1.7136
 7585SOL     OW23653   2.031   5.708   6.271  0.4635  0.3205 -0.6699
 7585SOL    HW123654   1.950   5.705   6.212 -1.3680  1.4323  1.6258
 7585SOL    HW223655   2.093   5.633   6.247 -1.4012 -0.8031 -2.2574
 7586SOL     OW23656   4.435   6.039   2.912 -0.1108  0.0406 -0.8937
 7586SOL    HW123657   4.510   6.103   2.926  0.3364 -0.2513 -1.8804
 7586SOL    HW223658   4.419   5.988   2.997 -0.0703  1.0093 -0.2787
 7587SOL     OW23659   0.904   5.783   1.225  0.1113 -0.0126 -0.1408
 7587SOL    HW123660   0.834   5.840   1.181 -0.8676  0.5391  2.0193
 7587SOL    HW223661   0.994   5.820   1.205 -0.4649  1.9967  0.7063
 7588SOL     OW23662   4.566   1.574   6.963 -0.6487 -0.6316 -0.2364
 7588SOL    HW123663   4.482   1.521   6.977 -0.6105 -0.4093  0.9811
 7588SOL    HW223664   4.610   1.591   7.052  0.5524 -0.5242 -0.8303
 7589SOL     OW23665   2.012   5.203   2.379  0.0363 -0.3184 -0.4318
 7589SOL    HW123666   2.102   5.226   2.415  0.2098 -0.6563 -0.6424
 7589SOL    HW223667   1.990   5.263   2.303 -0.7864  1.1185  0.8808
 7590SOL     OW23668   1.332   2.328   4.892 -0.2323 -0.6559 -0.3901
 7590SOL    HW123669   1.247   2.290   4.927  0.4701 -1.6363  0.3049
 7590SOL    HW223670   1.380   2.260   4.837  0.5542 -0.4499  0.0206
 7591SOL     OW23671   4.952   2.082   6.622 -0.2509 -0.5321  0.1445
 7591SOL    HW123672   4.953   1.984   6.644  2.1618 -0.8892 -1.2177
 7591SOL    HW223673   4.965   2.094   6.523  1.3358  1.1703  0.5120
 7592SOL     OW23674   5.272   0.170   3.702 -0.0974 -0.2937 -0.6492
 7592SOL    HW123675   5.360   0.126   3.719  0.0682  0.3993  0.3454
 7592SOL    HW223676   5.281   0.235   3.626  0.4617  0.3437 -0.0506
 7593SOL     OW23677   2.188   3.974   3.227 -0.3741  0.1343  0.1712
 7593SOL    HW123678   2.248   4.053   3.235 -0.9912  0.6561 -0.2996
 7593SOL    HW223679   2.131   3.983   3.145  0.4089 -1.3799 -0.5805
 7594SOL     OW23680   3.787   1.610   4.746  0.1512 -0.9399  0.0626
 7594SOL    HW123681   3.734   1.687   4.712  1.7666  0.9851  1.6672
 7594SOL    HW223682   3.831   1.563   4.669  3.2103  2.8875 -0.8125
 7595SOL     OW23683   0.660   4.082   0.139  0.3843 -0.0474  0.4715
 7595SOL    HW123684   0.660   4.062   0.041  1.8195  3.9236 -0.5214
 7595SOL    HW223685   0.572   4.121   0.166  1.4461  3.2627 -0.4654
 7596SOL     OW23686   5.214   1.260   2.417  0.2548  0.2848 -0.0729
 7596SOL    HW123687   5.143   1.223   2.476 -0.4722  0.0676 -1.0717
 7596SOL    HW223688   5.256   1.187   2.364  0.2347  0.6066 -0.5397
 7597SOL     OW23689   1.359   5.900   4.398  0.2501 -0.5153  0.0421
 7597SOL    HW123690   1.303   5.982   4.389 -0.0282 -0.7638 -0.5372
 7597SOL    HW223691   1.416   5.907   4.480 -0.8541 -0.3918  0.8229
 7598SOL     OW23692   0.233   2.411   5.663  0.8443 -0.3203  0.2104
 7598SOL    HW123693   0.325   2.397   5.699  1.4487  0.9001 -0.7703
 7598SOL    HW223694   0.173   2.337   5.694  2.2620 -1.4025  0.4692
 7599SOL     OW23695   0.387   0.891   4.364  0.1509 -0.4972  0.4409
 7599SOL    HW123696   0.400   0.806   4.416  0.8438 -1.2451 -0.8942
 7599SOL    HW223697   0.476   0.926   4.336 -0.2362 -0.5440 -0.8903
 7600SOL     OW23698   1.122   5.945   3.651 -0.2069  0.3985  0.1854
 7600SOL    HW123699   1.135   5.898   3.563 -1.1045 -0.0523  0.2721
 7600SOL    HW223700   1.203   5.999   3.673  1.4715 -2.1592  0.7134
 7601SOL     OW23701   5.534   3.915   2.485 -0.3701  0.3143 -0.5466
 7601SOL    HW123702   5.575   3.976   2.418  0.1648 -1.3341 -1.7840
 7601SOL    HW223703   5.601   3.891   2.555  0.3726 -1.1645 -1.7177
 7602SOL     OW23704   4.617   1.817   1.562  0.2322 -0.0109  0.1610
 7602SOL    HW123705   4.691   1.808   1.496 -0.3737 -0.3008 -0.5052
 7602SOL    HW223706   4.580   1.910   1.559 -0.2733 -0.2194 -0.4584
 7603SOL     OW23707   2.576   5.368   5.715 -0.4764 -0.3526  0.2945
 7603SOL    HW123708   2.520   5.285   5.715 -1.0204  0.0023 -0.3533
 7603SOL    HW223709   2.611   5.383   5.622 -1.0240  0.5676  0.2298
 7604SOL     OW23710   0.443   0.277   4.859 -0.1868  0.3703  0.2687
 7604SOL    HW123711   0.438   0.377   4.863 -0.5455  0.4792 -1.5801
 7604SOL    HW223712   0.381   0.244   4.787  2.6732 -0.8616 -1.8250
 7605SOL     OW23713   6.950   2.860   0.870  0.4869 -0.3004  0.3813
 7605SOL    HW123714   6.895   2.930   0.827 -1.1576 -0.6498  1.7994
 7605SOL    HW223715   7.040   2.897   0.894  0.0863  0.9437 -0.0104
 7606SOL     OW23716   2.020   0.803   4.189 -0.2339  0.1064  0.5061
 7606SOL    HW123717   1.958   0.749   4.132 -1.8079  1.3387  0.9446
 7606SOL    HW223718   2.097   0.835   4.134 -1.6547  1.1879 -0.9432
 7607SOL     OW23719   2.793   1.931   4.490  0.4872 -0.2696  0.2779
 7607SOL    HW123720   2.730   1.918   4.414  2.2787 -1.1499 -1.1479
 7607SOL    HW223721   2.879   1.969   4.456  1.0368  0.1488  2.0184
 7608SOL     OW23722   6.216   3.074   0.023 -0.9342 -0.1425  0.0272
 7608SOL    HW123723   6.214   2.977   0.001 -2.0394 -0.0100 -0.5264
 7608SOL    HW223724   6.282   3.090   0.096 -0.2145 -1.1937 -0.3722
 7609SOL     OW23725   3.992   1.181   2.504 -0.0442  0.0978 -0.0691
 7609SOL    HW123726   3.969   1.125   2.583 -2.4772  0.3951 -0.4744
 7609SOL    HW223727   4.017   1.121   2.427  2.2955 -0.1890  0.8426
 7610SOL     OW23728   6.565   5.976   5.216  0.2051  0.4210 -0.4866
 7610SOL    HW123729   6.625   6.025   5.279  0.4912 -0.1243 -0.3310
 7610SOL    HW223730   6.575   5.878   5.229 -1.0776  0.3190 -0.1168
 7611SOL     OW23731   5.504   4.256   3.324  0.0878  0.8351  0.0584
 7611SOL    HW123732   5.589   4.261   3.272 -0.2177 -1.7189 -0.8573
 7611SOL    HW223733   5.443   4.329   3.295  1.8073  2.5273  0.5155
 7612SOL     OW23734   1.990   3.357   0.144  0.3603 -0.1633 -0.5373
 7612SOL    HW123735   1.924   3.430   0.128  0.2832 -0.1975 -0.3788
 7612SOL    HW223736   2.068   3.394   0.195  1.6387  0.4693 -2.8019
 7613SOL     OW23737   4.961   6.107   2.711 -0.7456 -0.4778  0.0984
 7613SOL    HW123738   4.913   6.129   2.796  0.7746 -0.5611  0.9968
 7613SOL    HW223739   4.984   6.191   2.663 -1.3468 -0.4229 -0.1126
 7614SOL     OW23740   1.237   6.008   2.601 -0.4937 -0.7612  0.0614
 7614SOL    HW123741   1.195   6.024   2.511 -1.6530  0.3407  0.7616
 7614SOL    HW223742   1.334   6.031   2.597 -0.6692 -0.1209 -0.7576
 7615SOL     OW23743   4.207   4.917   6.046  0.6373 -0.4988 -0.3259
 7615SOL    HW123744   4.231   4.823   6.023 -0.4269 -0.1327 -3.3483
 7615SOL    HW223745   4.110   4.922   6.070  0.6261 -0.1289 -0.4393
 7616SOL     OW23746   2.197   0.438   0.419  0.0313 -0.5125  0.3426
 7616SOL    HW123747   2.116   0.428   0.476 -0.5277 -1.0287 -0.5282
 7616SOL    HW223748   2.273   0.387   0.460 -0.8700 -2.5085 -0.3179
 7617SOL     OW23749   0.114   3.189   2.559 -0.2731 -0.4101  0.4323
 7617SOL    HW123750   0.132   3.264   2.496  0.4733  0.0581  1.1888
 7617SOL    HW223751   0.074   3.225   2.643 -1.7630 -1.0846  0.0485
 7618SOL     OW23752   5.608   6.607   6.845 -0.2831 -0.3893 -0.4759
 7618SOL    HW123753   5.560   6.609   6.933 -1.1671  0.7386 -0.9716
 7618SOL    HW223754   5.542   6.612   6.770  0.4834 -1.0065 -1.2240
 7619SOL     OW23755   1.102   2.321   2.115  0.3246  0.7014  0.5721
 7619SOL    HW123756   1.195   2.304   2.082  0.3369 -1.0007  1.3711
 7619SOL    HW223757   1.098   2.410   2.160  1.3986  1.0679 -0.0237
 7620SOL     OW23758   3.783   3.973   6.382  0.0391 -0.0008 -0.1117
 7620SOL    HW123759   3.793   4.045   6.313  2.2233  1.0291  1.1878
 7620SOL    HW223760   3.687   3.944   6.385 -0.3366  0.6970 -2.7517
 7621SOL     OW23761   3.520   0.317   6.835  0.0694  0.2089 -0.4181
 7621SOL    HW123762   3.454   0.352   6.901 -1.1435 -0.3650 -1.2873
 7621SOL    HW223763   3.611   0.315   6.876 -0.7943 -0.9572  1.5448
 7622SOL     OW23764   4.923   3.785   3.361 -0.1742  0.1970  0.1315
 7622SOL    HW123765   4.875   3.869   3.387 -0.2314  0.2391 -0.1093
 7622SOL    HW223766   5.022   3.798   3.371 -0.2328 -0.0539  1.1149
 7623SOL     OW23767   2.561   0.094   0.124  0.3306  0.5616  0.2827
 7623SOL    HW123768   2.633   0.148   0.168 -0.9471  1.0294  1.9449
 7623SOL    HW223769   2.558   0.116   0.026  2.3521  0.5783  0.1838
 7624SOL     OW23770   5.918   2.519   2.600 -0.1323  0.2381 -0.0809
 7624SOL    HW123771   5.987   2.453   2.630  0.3516  0.7761  0.0115
 7624SOL    HW223772   5.849   2.473   2.544 -1.4310 -0.9434  2.3400
 7625SOL     OW23773   6.964   4.688   4.298  0.5133  0.1658 -0.1328
 7625SOL    HW123774   7.014   4.764   4.339 -2.3253  1.7262  0.7268
 7625SOL    HW223775   6.960   4.701   4.198  1.3583  0.3042 -0.1498
 7626SOL     OW23776   6.954   5.097   1.102 -0.1807  0.4506 -0.3833
 7626SOL    HW123777   6.904   5.125   1.020  1.4870 -1.0757 -2.0140
 7626SOL    HW223778   6.987   5.003   1.090  0.9848  0.5522  1.6213
 7627SOL     OW23779   1.434   4.153   5.395  0.8468  0.1755  0.0315
 7627SOL    HW123780   1.387   4.168   5.307 -1.0248 -0.3751  0.8932
 7627SOL    HW223781   1.532   4.144   5.378  0.5273 -0.1155 -2.0369
 7628SOL     OW23782   1.292   6.251   0.573 -0.6380 -0.0201  0.2417
 7628SOL    HW123783   1.217   6.255   0.639 -0.6890 -0.8861  0.2401
 7628SOL    HW223784   1.363   6.188   0.605 -0.9193 -0.8848 -0.7752
 7629SOL     OW23785   0.870   0.142   2.523 -1.0859 -0.5265  0.7632
 7629SOL    HW123786   0.902   0.133   2.617 -1.0787 -0.3737  0.7756
 7629SOL    HW223787   0.865   0.052   2.481 -1.3495 -0.6222  0.9967
 7630SOL     OW23788   5.112   2.281   1.457  0.5015 -0.6167  0.0111
 7630SOL    HW123789   5.153   2.370   1.435 -1.6504  0.6475  0.7165
 7630SOL    HW223790   5.128   2.218   1.382 -0.8185  1.4733 -2.2007
 7631SOL     OW23791   5.935   1.649   4.992 -0.5897 -0.5750  0.1252
 7631SOL    HW123792   5.864   1.654   4.921 -0.5198  0.2926  0.1027
 7631SOL    HW223793   6.023   1.677   4.952 -0.6969  0.7037  0.7277
 7632SOL     OW23794   0.077   1.880   3.600 -0.4605  0.3904  0.4322
 7632SOL    HW123795   0.064   1.781   3.597  0.1535  0.3326 -1.4206
 7632SOL    HW223796  -0.012   1.925   3.593 -0.6850 -0.0243  0.5940
 7633SOL     OW23797   3.741   5.951   2.860  0.0241  0.5865 -0.1673
 7633SOL    HW123798   3.659   5.929   2.913 -0.2536  0.2299 -0.7287
 7633SOL    HW223799   3.715   6.006   2.780  0.3700  0.7145 -0.1946
 7634SOL     OW23800   0.994   1.447   5.700  0.0190  0.0255  0.1887
 7634SOL    HW123801   0.925   1.457   5.772 -0.9965  0.3684 -0.8134
 7634SOL    HW223802   1.031   1.354   5.702  0.5186  0.2296  1.5874
 7635SOL     OW23803   2.788   3.280   0.093 -0.2940  0.1879  0.6695
 7635SOL    HW123804   2.822   3.271   0.187  1.9351  1.0316  0.0101
 7635SOL    HW223805   2.782   3.377   0.069  2.0868  0.0347 -0.9517
 7636SOL     OW23806   4.617   3.322   0.764  0.2804  0.3824  0.1073
 7636SOL    HW123807   4.666   3.408   0.754  0.0145  0.5960  0.5970
 7636SOL    HW223808   4.518   3.339   0.763  0.2203  0.2613  1.5256
 7637SOL     OW23809   1.394   3.872   1.027 -0.1515 -0.1212 -0.0275
 7637SOL    HW123810   1.384   3.773   1.042 -1.0418  0.1955  1.7483
 7637SOL    HW223811   1.343   3.898   0.945  1.0092 -1.2697 -1.1708
 7638SOL     OW23812   3.945   1.096   0.726  0.4251  0.6142 -0.1393
 7638SOL    HW123813   3.973   1.191   0.712  1.1615  0.2324 -1.4033
 7638SOL    HW223814   3.977   1.066   0.817  1.0332  1.2824 -0.1197
 7639SOL     OW23815   3.968   2.287   1.125  0.3506  0.0547 -0.5327
 7639SOL    HW123816   3.869   2.296   1.110  0.4539  0.5361 -0.9328
 7639SOL    HW223817   4.011   2.255   1.040  0.0766 -3.8751  0.6040
 7640SOL     OW23818   0.499   1.217   3.606  0.4162 -0.0520  0.7204
 7640SOL    HW123819   0.410   1.239   3.565  0.9328 -1.7221 -1.4737
 7640SOL    HW223820   0.535   1.298   3.653 -1.5912  1.0733  0.4328
 7641SOL     OW23821   7.001   3.044   4.540  0.3760  0.1709 -0.2778
 7641SOL    HW123822   7.093   3.019   4.570  0.8494  1.2212 -0.8156
 7641SOL    HW223823   7.003   3.135   4.498 -1.2030  0.9305  1.1759
 7642SOL     OW23824   4.063   5.643   1.393 -0.3466 -0.1737  0.1349
 7642SOL    HW123825   3.966   5.663   1.408 -0.4333 -0.6549  0.2452
 7642SOL    HW223826   4.079   5.545   1.406  0.0640 -0.1762 -0.3716
 7643SOL     OW23827   4.538   3.015   5.546  1.0484  0.6547 -0.1593
 7643SOL    HW123828   4.617   2.967   5.585 -1.0324 -1.0090  2.3063
 7643SOL    HW223829   4.511   2.970   5.461 -0.1626 -2.0413  1.5218
 7644SOL     OW23830   4.072   5.430   6.550 -0.2878  0.5114  0.2441
 7644SOL    HW123831   3.991   5.383   6.586  0.0515  1.1859  1.9978
 7644SOL    HW223832   4.117   5.372   6.483  0.5320 -2.0875  2.8174
 7645SOL     OW23833   1.672   2.937   4.111  0.1336  0.1738 -0.2562
 7645SOL    HW123834   1.595   2.877   4.090  0.1440  0.6111 -1.6401
 7645SOL    HW223835   1.717   2.905   4.195 -0.6708 -0.9436 -0.2255
 7646SOL     OW23836   0.438   0.682   3.151  0.5088  0.0426 -0.0393
 7646SOL    HW123837   0.405   0.681   3.245  3.1262 -0.8068  0.9618
 7646SOL    HW223838   0.403   0.602   3.102 -1.1063  0.6469  0.0536
 7647SOL     OW23839   4.656   4.839   2.639  0.0147 -0.3278 -0.2057
 7647SOL    HW123840   4.646   4.901   2.561  0.8621 -1.3451 -1.1637
 7647SOL    HW223841   4.565   4.818   2.676 -0.7430 -2.0416 -2.7528
 7648SOL     OW23842   6.846   4.565   5.710  0.2357 -0.2444  0.0602
 7648SOL    HW123843   6.879   4.531   5.622  1.2402 -2.2599  1.1491
 7648SOL    HW223844   6.887   4.512   5.784 -0.5303  1.4381  1.7751
 7649SOL     OW23845   2.058   0.114   5.799  0.6641  0.3815 -0.3831
 7649SOL    HW123846   1.970   0.088   5.839  1.9032  0.5909  2.8084
 7649SOL    HW223847   2.062   0.083   5.704 -2.3123 -0.7678 -0.2541
 7650SOL     OW23848   2.485   5.880   0.731 -0.3116 -0.6286  0.1833
 7650SOL    HW123849   2.569   5.883   0.786 -1.3362  0.8495  1.7565
 7650SOL    HW223850   2.507   5.902   0.636  0.9320  0.9536  0.7969
 7651SOL     OW23851   4.835   2.096   4.088  0.0110 -0.1498  0.4650
 7651SOL    HW123852   4.930   2.092   4.058  0.4215  1.9377  1.2724
 7651SOL    HW223853   4.799   2.188   4.074 -0.4329  0.4263  4.1603
 7652SOL     OW23854   5.465   0.761   5.015  0.2842 -0.2953 -0.0109
 7652SOL    HW123855   5.437   0.855   5.033 -0.7075 -0.3218 -1.2357
 7652SOL    HW223856   5.384   0.706   4.993  1.1029 -0.7975 -1.9539
 7653SOL     OW23857   5.761   1.650   2.508  0.4037  0.3244  0.1755
 7653SOL    HW123858   5.683   1.698   2.468 -0.4840 -0.4989  0.8876
 7653SOL    HW223859   5.777   1.686   2.601 -0.4030 -0.8659  0.7977
 7654SOL     OW23860   2.452   1.856   0.547  0.0253 -0.4094  0.2019
 7654SOL    HW123861   2.440   1.952   0.521 -0.0787 -0.4393  0.1394
 7654SOL    HW223862   2.396   1.836   0.627  1.1097 -0.0546  1.0789
 7655SOL     OW23863   2.180   2.992   3.667  0.2441 -0.2618  0.3214
 7655SOL    HW123864   2.233   2.995   3.751 -0.5012  1.6636  0.7779
 7655SOL    HW223865   2.088   3.028   3.684 -0.1931 -0.5979 -1.1525
 7656SOL     OW23866   2.178   2.369   1.212  0.4186 -0.3315 -0.1733
 7656SOL    HW123867   2.148   2.350   1.305  0.8921  0.1872  0.0973
 7656SOL    HW223868   2.253   2.435   1.215 -1.8476  2.4912 -1.0717
 7657SOL     OW23869   6.470   6.363   2.000  0.1346  0.3180 -0.8739
 7657SOL    HW123870   6.385   6.345   2.049 -0.8566  2.4778 -1.6663
 7657SOL    HW223871   6.530   6.420   2.056 -0.7924  2.3697 -1.8423
 7658SOL     OW23872   2.973   4.036   1.274 -0.0518  0.3566  0.4739
 7658SOL    HW123873   2.984   3.968   1.201  1.3600  0.0149  0.9751
 7658SOL    HW223874   3.006   3.998   1.360  0.7627  1.6666  0.7735
 7659SOL     OW23875   3.540   6.295   2.345 -0.2958 -0.5163  0.4804
 7659SOL    HW123876   3.603   6.372   2.337 -1.7675  0.7074  0.0633
 7659SOL    HW223877   3.463   6.322   2.404 -1.4379 -1.2273 -0.6448
 7660SOL     OW23878   0.555   6.405   6.161  0.2018  0.3617  0.4230
 7660SOL    HW123879   0.472   6.459   6.174  0.2349  0.3275  0.7709
 7660SOL    HW223880   0.629   6.464   6.130 -0.0785  0.3116 -0.3692
 7661SOL     OW23881   4.722   6.484   5.787  0.2662  0.8354  0.0372
 7661SOL    HW123882   4.780   6.523   5.859 -0.2960  0.1743  0.8646
 7661SOL    HW223883   4.700   6.389   5.810 -0.1696  0.7125 -0.8610
 7662SOL     OW23884   3.149   4.727   0.228  0.1147 -0.8962 -0.0077
 7662SOL    HW123885   3.215   4.790   0.269  0.8857 -1.6600 -0.0481
 7662SOL    HW223886   3.115   4.765   0.142 -1.3155  0.6030  1.1603
 7663SOL     OW23887   4.894   1.890   3.813 -0.6401  0.6338 -0.5180
 7663SOL    HW123888   4.886   1.798   3.852  0.7200  0.2307 -1.1291
 7663SOL    HW223889   4.825   1.949   3.854 -1.4162 -0.6058  0.0302
 7664SOL     OW23890   5.941   2.742   6.970  0.5459 -0.1383  0.4683
 7664SOL    HW123891   5.878   2.803   7.018 -0.2164 -2.2649  2.3578
 7664SOL    HW223892   6.003   2.700   7.036  2.1474 -0.1918 -0.9954
 7665SOL     OW23893   1.994   4.387   0.981  0.4000  0.0355  0.3227
 7665SOL    HW123894   2.068   4.451   1.003 -0.2489  0.6938  0.6673
 7665SOL    HW223895   1.970   4.335   1.063  0.4902 -0.1776  0.2118
 7666SOL     OW23896   3.068   5.451   4.305 -0.0662 -0.2430 -0.5982
 7666SOL    HW123897   2.995   5.408   4.252 -1.0653  1.5809 -0.7841
 7666SOL    HW223898   3.029   5.497   4.385  0.7251  1.4875 -1.1539
 7667SOL     OW23899   3.682   0.581   6.493  0.7179  0.0148 -0.2182
 7667SOL    HW123900   3.641   0.640   6.423 -1.2417 -0.5497  0.3857
 7667SOL    HW223901   3.695   0.633   6.577  0.5061  0.0114 -0.1818
 7668SOL     OW23902   6.371   2.529   5.849  0.2514  0.2631  0.0093
 7668SOL    HW123903   6.318   2.463   5.796 -1.4710  1.4284  0.1944
 7668SOL    HW223904   6.451   2.557   5.795  1.1285 -2.0399  0.0089
 7669SOL     OW23905   4.399   3.094   1.691 -0.4314  0.3142 -0.7894
 7669SOL    HW123906   4.459   3.053   1.760 -0.0074  1.5097 -0.4145
 7669SOL    HW223907   4.312   3.119   1.732 -0.7941 -0.4441 -1.0817
 7670SOL     OW23908   0.004   6.711   7.014  0.1485  0.4822 -0.2129
 7670SOL    HW123909   0.032   6.631   7.066 -1.9298  1.3638  2.4824
 7670SOL    HW223910   0.045   6.793   7.052 -1.7087  1.1935  0.3921
 7671SOL     OW23911   6.179   2.305   4.339  0.2405  0.2503  0.0719
 7671SOL    HW123912   6.227   2.370   4.281  0.9512 -0.2442  0.1019
 7671SOL    HW223913   6.103   2.264   4.289  2.1890 -1.8803 -1.3482
 7672SOL     OW23914   0.872   6.024   4.242  0.2997  0.5411 -0.1083
 7672SOL    HW123915   0.861   6.123   4.250  0.2629  0.4048  2.1914
 7672SOL    HW223916   0.933   5.991   4.314  0.6644 -1.0698 -1.0998
 7673SOL     OW23917   3.472   5.914   6.449  0.4360  0.9120  0.0541
 7673SOL    HW123918   3.502   6.000   6.489  0.3247  0.5057  1.0440
 7673SOL    HW223919   3.543   5.845   6.459 -0.2084  0.3699  1.0086
 7674SOL     OW23920   4.311   6.367   5.966  0.0809  0.1550 -0.9060
 7674SOL    HW123921   4.366   6.434   6.016  0.6919 -0.2766 -0.9825
 7674SOL    HW223922   4.365   6.284   5.953 -1.6792 -1.5843  1.8905
 7675SOL     OW23923   6.636   5.071   4.964  0.1732  0.2990 -0.5415
 7675SOL    HW123924   6.640   5.120   5.051  1.7530 -0.0341 -0.3960
 7675SOL    HW223925   6.662   5.132   4.889  0.6302  0.0928 -0.5515
 7676SOL     OW23926   3.088   3.923   4.758 -0.4432 -0.7335 -0.2904
 7676SOL    HW123927   3.097   3.878   4.847 -0.1644 -0.7489 -0.3252
 7676SOL    HW223928   3.040   3.862   4.695 -0.6841 -0.7024 -0.1354
 7677SOL     OW23929   2.246   2.517   4.597  0.2394 -0.5345 -0.1418
 7677SOL    HW123930   2.163   2.573   4.596  0.6083  0.1091 -3.2737
 7677SOL    HW223931   2.316   2.563   4.651 -0.6300  0.1295  0.4604
 7678SOL     OW23932   7.013   5.490   0.867  0.5806  0.2950  0.6138
 7678SOL    HW123933   7.098   5.542   0.869  0.4979  0.4210  2.2585
 7678SOL    HW223934   7.000   5.445   0.955 -0.5837 -0.5052  0.0532
 7679SOL     OW23935   3.655   1.718   4.084  1.0458 -0.1305 -0.3538
 7679SOL    HW123936   3.732   1.665   4.050  1.7671  0.0666  0.8830
 7679SOL    HW223937   3.632   1.791   4.019 -0.5656 -2.4399 -2.5344
 7680SOL     OW23938   6.510   4.570   2.007  0.2107  0.3206 -0.6093
 7680SOL    HW123939   6.610   4.572   2.014  0.1647 -0.3594  0.5245
 7680SOL    HW223940   6.476   4.483   2.043 -0.8075  0.6258 -0.8087
 7681SOL     OW23941   1.845   4.874   0.362  0.6179 -0.1961 -0.1499
 7681SOL    HW123942   1.878   4.844   0.272 -0.6150  0.4859 -0.8601
 7681SOL    HW223943   1.892   4.958   0.388 -0.6685  0.9359 -1.2929
 7682SOL     OW23944   5.357   1.225   4.871  0.1033  0.1603  0.3201
 7682SOL    HW123945   5.318   1.152   4.926  0.5006 -0.1528  0.1850
 7682SOL    HW223946   5.316   1.223   4.780  0.6879 -0.3930  0.0645
 7683SOL     OW23947   6.001   3.155   4.472 -0.4176  0.5177 -0.8543
 7683SOL    HW123948   6.010   3.091   4.548 -1.3576  0.3956 -0.8386
 7683SOL    HW223949   5.906   3.186   4.465 -0.0090  1.8098 -0.9423
 7684SOL     OW23950   6.820   2.193   0.480  0.6872 -0.1032 -0.2264
 7684SOL    HW123951   6.846   2.212   0.575 -1.4299 -1.0168  0.5830
 7684SOL    HW223952   6.726   2.161   0.477  0.1087  1.5653 -2.8441
 7685SOL     OW23953   0.102   2.728   4.666 -0.1267 -0.6295  0.1096
 7685SOL    HW123954   0.184   2.703   4.615  0.3906  3.0375 -1.1920
 7685SOL    HW223955   0.021   2.706   4.613  0.1057 -1.9140  0.2557
 7686SOL     OW23956   5.546   2.708   0.613  0.0443  0.2535 -0.7441
 7686SOL    HW123957   5.520   2.781   0.550 -1.0598 -0.5504 -1.2563
 7686SOL    HW223958   5.514   2.731   0.705 -0.0622  0.5300 -0.8475
 7687SOL     OW23959   2.463   6.530   3.382  0.0199 -0.4759  0.3973
 7687SOL    HW123960   2.490   6.560   3.474  0.7417  0.4727 -0.1047
 7687SOL    HW223961   2.471   6.431   3.376 -1.0810 -0.6781  1.6803
 7688SOL     OW23962   4.806   5.578   5.936  0.0837 -0.7896  0.0473
 7688SOL    HW123963   4.769   5.580   6.028  0.7236  0.3013  0.2962
 7688SOL    HW223964   4.787   5.665   5.890  0.5486 -0.9809 -0.5283
 7689SOL     OW23965   0.027   4.658   3.754 -0.3003  0.3596 -0.7864
 7689SOL    HW123966   0.116   4.616   3.773 -1.1247 -0.6500  1.0900
 7689SOL    HW223967   0.038   4.758   3.754  0.4505  0.3863  2.0885
 7690SOL     OW23968   2.314   6.033   4.635  0.1136 -0.4852 -0.1680
 7690SOL    HW123969   2.306   6.017   4.536 -2.4656 -1.7908  0.1877
 7690SOL    HW223970   2.322   5.946   4.683  1.4404  0.1441  0.8056
 7691SOL     OW23971   0.532   3.266   3.893  0.2173 -0.3928 -0.0803
 7691SOL    HW123972   0.542   3.232   3.986  0.6884 -0.4241 -0.1403
 7691SOL    HW223973   0.585   3.209   3.830 -0.0718 -0.3536 -0.3660
 7692SOL     OW23974   1.687   5.529   5.446  0.0001 -0.0291 -0.0089
 7692SOL    HW123975   1.683   5.433   5.420  0.1257 -0.1481  0.4163
 7692SOL    HW223976   1.780   5.563   5.437  0.0198 -0.0367  0.1665
 7693SOL     OW23977   3.435   3.555   6.339  0.3856 -0.0817 -0.0264
 7693SOL    HW123978   3.371   3.479   6.336  2.3026 -1.7625 -0.3333
 7693SOL    HW223979   3.389   3.636   6.375 -1.7087 -1.3615  0.3326
 7694SOL     OW23980   6.119   6.847   6.978 -0.1541  0.0667  0.0294
 7694SOL    HW123981   6.151   6.799   6.897  2.8092  2.0025 -0.0915
 7694SOL    HW223982   6.023   6.874   6.965 -0.2362 -1.0530 -2.1053
 7695SOL     OW23983   4.911   0.662   2.051  0.2558 -0.0200  0.1952
 7695SOL    HW123984   4.835   0.599   2.036  0.4219 -0.3732  0.8256
 7695SOL    HW223985   4.967   0.630   2.127  0.7809  0.4811  0.0292
 7696SOL     OW23986   0.919   5.165   6.581 -0.1157 -0.2227  0.1528
 7696SOL    HW123987   0.991   5.201   6.641 -0.0517 -0.1247  0.0197
 7696SOL    HW223988   0.844   5.129   6.636 -0.5787  0.9103  0.2977
 7697SOL     OW23989   1.100   1.694   3.768  0.1871  0.2663 -0.0636
 7697SOL    HW123990   1.026   1.719   3.830 -0.2636 -0.4431 -0.2976
 7697SOL    HW223991   1.175   1.653   3.821 -0.3935 -0.7751 -0.0162
 7698SOL     OW23992   5.996   6.869   6.375 -0.0753  0.9193 -0.0517
 7698SOL    HW123993   6.056   6.793   6.352  1.1232  0.1679  4.5485
 7698SOL    HW223994   5.906   6.853   6.335  0.5907 -2.0869 -0.6117
 7699SOL     OW23995   1.505   0.296   1.919 -0.0279  0.2076 -0.5001
 7699SOL    HW123996   1.421   0.349   1.929  0.5436  1.0824 -0.2361
 7699SOL    HW223997   1.539   0.269   2.009 -0.2937 -0.5799 -0.6318
 7700SOL     OW23998   1.243   5.608   1.535  0.2522  0.0356 -0.5508
 7700SOL    HW123999   1.204   5.700   1.544 -0.2858 -0.1361 -1.0364
 7700SOL    HW224000   1.343   5.613   1.540  0.1751  0.4475  1.0255
 7701SOL     OW24001   6.710   5.105   4.481  0.1088 -0.0773 -0.3398
 7701SOL    HW124002   6.625   5.052   4.483  1.0192 -1.5927 -0.0615
 7701SOL    HW224003   6.690   5.201   4.496 -1.9032  0.1290 -3.6015
 7702SOL     OW24004   4.909   4.378   0.493 -0.3545  0.5811  0.1662
 7702SOL    HW124005   4.904   4.280   0.473 -1.0238  0.1041  2.3455
 7702SOL    HW224006   4.987   4.396   0.553 -0.2738  1.3898 -0.1649
 7703SOL     OW24007   4.869   1.071   2.386  0.2267  0.6094 -0.2336
 7703SOL    HW124008   4.933   1.089   2.461  1.1702 -0.8680 -0.6330
 7703SOL    HW224009   4.835   1.157   2.349 -0.0196  1.3808  1.6726
 7704SOL     OW24010   3.619   0.026   4.477 -0.3481 -0.3321  0.5254
 7704SOL    HW124011   3.571   0.102   4.520 -0.7464 -0.4555  0.2993
 7704SOL    HW224012   3.709   0.057   4.445 -0.7614  0.2136 -0.1349
 7705SOL     OW24013   4.527   4.616   2.233  0.0951  0.0869 -0.0934
 7705SOL    HW124014   4.493   4.599   2.325  1.3609  0.8088  0.5354
 7705SOL    HW224015   4.599   4.551   2.211  0.4042  0.4697 -0.2266
 7706SOL     OW24016   3.343   2.404   6.444  0.2389 -0.4963 -0.0487
 7706SOL    HW124017   3.377   2.485   6.492 -0.8521  1.0669 -1.7758
 7706SOL    HW224018   3.408   2.376   6.374  0.5301 -1.0338  0.4245
 7707SOL     OW24019   6.626   3.074   2.523  0.3043  0.1119  0.7508
 7707SOL    HW124020   6.676   3.044   2.441 -0.0345 -0.3578  0.7123
 7707SOL    HW224021   6.539   3.114   2.497 -0.1119 -0.6627  0.9087
 7708SOL     OW24022   6.368   5.212   2.274  0.1348 -0.5874 -0.6170
 7708SOL    HW124023   6.339   5.130   2.224  1.7517 -2.7279  1.7065
 7708SOL    HW224024   6.440   5.259   2.222  1.5554 -2.5561 -0.5339
 7709SOL     OW24025   2.964   6.184   1.740 -0.3500  0.2909  0.1676
 7709SOL    HW124026   3.055   6.161   1.705 -1.2103 -1.4262 -1.1082
 7709SOL    HW224027   2.972   6.231   1.828  1.7730  1.0245 -0.3712
 7710SOL     OW24028   4.767   4.537   4.845  0.4578  0.1088 -0.2508
 7710SOL    HW124029   4.793   4.440   4.837  0.0410 -0.0402  0.1165
 7710SOL    HW224030   4.667   4.544   4.844  0.4885  0.5443 -0.3165
 7711SOL     OW24031   4.442   1.386   4.927 -0.2700  0.0273  0.3129
 7711SOL    HW124032   4.472   1.477   4.898 -1.0096  1.5364  3.7189
 7711SOL    HW224033   4.509   1.349   4.992  0.7286 -2.5921 -2.0377
 7712SOL     OW24034   3.829   4.855   6.218  0.1000  0.2529  0.4165
 7712SOL    HW124035   3.852   4.950   6.200 -1.4205  0.4812 -0.4840
 7712SOL    HW224036   3.847   4.800   6.136 -0.8832  0.1276  0.2813
 7713SOL     OW24037   6.003   5.531   3.269 -0.0455 -0.3512  0.0488
 7713SOL    HW124038   5.924   5.585   3.299  1.4717  0.4040  3.1418
 7713SOL    HW224039   6.075   5.592   3.237  0.7114 -0.6967  1.0472
 7714SOL     OW24040   6.874   0.193   2.811  0.2047 -0.2523  0.1618
 7714SOL    HW124041   6.848   0.132   2.736 -1.8545  1.0367 -0.2736
 7714SOL    HW224042   6.864   0.288   2.781 -2.2489  0.3320  2.4673
 7715SOL     OW24043   4.502   2.849   0.029 -0.2166  0.6347  0.4612
 7715SOL    HW124044   4.409   2.817   0.046 -0.8288  2.0746 -0.0613
 7715SOL    HW224045   4.552   2.854   0.116 -0.1334 -1.4863  0.5987
 7716SOL     OW24046   2.610   6.744   5.641 -0.8234  0.5962  0.6243
 7716SOL    HW124047   2.520   6.712   5.612 -0.2508 -0.5021 -0.0093
 7716SOL    HW224048   2.681   6.688   5.598  0.1354  0.0338  2.8020
 7717SOL     OW24049   1.170   1.932   0.753  0.6660 -0.5545  0.4740
 7717SOL    HW124050   1.153   2.031   0.756  2.3455 -0.2469  1.0587
 7717SOL    HW224051   1.110   1.890   0.685  0.0699  0.8848  0.0654
 7718SOL     OW24052   2.162   0.298   6.668 -0.0536  0.2614  0.4907
 7718SOL    HW124053   2.075   0.268   6.630 -1.3675  3.1309  0.9652
 7718SOL    HW224054   2.218   0.337   6.594  0.0796  0.0283  0.4687
 7719SOL     OW24055   5.828   6.303   6.216 -0.0569  0.1208 -0.7676
 7719SOL    HW124056   5.875   6.271   6.298 -0.4417  2.7186  0.5710
 7719SOL    HW224057   5.828   6.230   6.147  2.2989 -1.3643  0.6497
 7720SOL     OW24058   3.700   6.544   0.183  0.4915  0.3198  0.1948
 7720SOL    HW124059   3.690   6.498   0.272  0.0009  0.7969  0.3917
 7720SOL    HW224060   3.782   6.601   0.184  0.9433 -0.3159  0.0504
 7721SOL     OW24061   1.816   5.889   4.356  0.0404 -0.2443 -0.0312
 7721SOL    HW124062   1.837   5.964   4.419  1.3933 -1.9322  1.6842
 7721SOL    HW224063   1.717   5.879   4.347 -0.3244 -1.0341  3.3920
 7722SOL     OW24064   0.839   5.435   6.552 -0.0908 -0.1063 -0.5225
 7722SOL    HW124065   0.899   5.497   6.502  0.0600 -0.4382 -0.7622
 7722SOL    HW224066   0.886   5.347   6.564 -0.1622 -0.0558  0.1253
 7723SOL     OW24067   1.084   1.663   6.886 -0.4534  0.2418  0.2584
 7723SOL    HW124068   0.985   1.654   6.896 -0.2774 -0.3065  1.6820
 7723SOL    HW224069   1.124   1.694   6.972  0.2137  4.6743 -1.3809
 7724SOL     OW24070   3.816   5.993   0.886 -0.2561 -0.0576  0.5526
 7724SOL    HW124071   3.722   6.008   0.856  0.1655 -2.0338 -2.1389
 7724SOL    HW224072   3.816   5.958   0.980 -2.1876  0.0099  0.6062
 7725SOL     OW24073   2.625   0.040   6.054 -0.0543 -0.3596  0.2894
 7725SOL    HW124074   2.685   0.118   6.035 -0.0690  0.1401  2.0806
 7725SOL    HW224075   2.556   0.033   5.982  1.2896 -0.1032 -1.0789
 7726SOL     OW24076   3.586   6.682   1.457 -0.2933 -0.2317  0.6078
 7726SOL    HW124077   3.651   6.646   1.524 -0.2625  0.6128  1.0475
 7726SOL    HW224078   3.620   6.768   1.421  0.0074 -0.9908 -1.0060
 7727SOL     OW24079   6.908   6.350   2.919  0.4274  0.0996 -0.0642
 7727SOL    HW124080   6.955   6.340   2.832  1.3070 -0.8736  0.5080
 7727SOL    HW224081   6.888   6.260   2.958 -2.4288  0.4588 -0.5308
 7728SOL     OW24082   5.388   4.553   6.841  0.2394  0.0106 -0.7708
 7728SOL    HW124083   5.363   4.481   6.906 -0.1933  1.2051  0.4288
 7728SOL    HW224084   5.485   4.574   6.850  0.5965 -1.0557 -1.8093
 7729SOL     OW24085   3.257   0.068   3.047  0.6282  0.6114  0.3012
 7729SOL    HW124086   3.188   0.141   3.050 -1.2548 -1.0514 -0.2998
 7729SOL    HW224087   3.320   0.079   3.123  0.7194  3.1277 -0.0465
 7730SOL     OW24088   5.593   3.458   1.423 -0.0643 -0.0393  0.7287
 7730SOL    HW124089   5.626   3.508   1.503  1.9876 -1.1419  0.6446
 7730SOL    HW224090   5.601   3.515   1.341 -4.2675  1.9388  1.4575
 7731SOL     OW24091   6.373   4.983   4.989  0.4588  0.2857  0.3503
 7731SOL    HW124092   6.347   4.907   4.930  2.3165  1.1996 -1.7747
 7731SOL    HW224093   6.461   5.020   4.960  1.3726  0.9803  3.5849
 7732SOL     OW24094   3.622   7.022   2.835 -0.0930  0.2144 -0.0887
 7732SOL    HW124095   3.543   7.061   2.786  0.0182  0.5048 -0.0376
 7732SOL    HW224096   3.694   7.090   2.842  0.7938 -0.5409 -1.5199
 7733SOL     OW24097   6.707   3.441   2.207 -0.3507 -0.4118  0.5001
 7733SOL    HW124098   6.678   3.449   2.303 -2.5888  0.1784 -0.1668
 7733SOL    HW224099   6.779   3.373   2.200 -1.9364 -2.4025  2.2817
 7734SOL     OW24100   4.481   5.502   0.334  0.1726 -0.7895  0.3774
 7734SOL    HW124101   4.513   5.424   0.388 -1.7662 -1.2120  0.9819
 7734SOL    HW224102   4.384   5.491   0.312  0.0402  1.0904 -0.1876
 7735SOL     OW24103   3.756   6.568   6.769 -0.0893 -0.2598 -0.3150
 7735SOL    HW124104   3.712   6.638   6.826 -1.7612 -1.1733 -0.4147
 7735SOL    HW224105   3.814   6.510   6.826 -0.2988 -0.0420  0.1270
 7736SOL     OW24106   5.847   3.310   6.827 -0.6036 -0.5378 -0.6796
 7736SOL    HW124107   5.886   3.262   6.905 -2.9962  0.9723  1.5883
 7736SOL    HW224108   5.887   3.401   6.820 -0.4040 -0.6627 -1.2451
 7737SOL     OW24109   0.872   6.520   5.097 -0.6859 -0.1715 -0.3003
 7737SOL    HW124110   0.848   6.574   5.016 -1.7407 -0.2635 -0.0545
 7737SOL    HW224111   0.796   6.460   5.122  0.7992 -2.5117 -1.1228
 7738SOL     OW24112   3.489   6.656   6.244  0.3597  0.2808 -0.3512
 7738SOL    HW124113   3.542   6.726   6.196  1.7435 -0.4143  0.1245
 7738SOL    HW224114   3.443   6.598   6.177  1.6595 -0.2111 -0.8563
 7739SOL     OW24115   2.044   1.166   0.217  0.1113 -0.1063 -0.1122
 7739SOL    HW124116   2.006   1.084   0.260  0.6950 -0.4501 -0.2496
 7739SOL    HW224117   2.059   1.149   0.120  2.0550 -0.5120  0.2154
 7740SOL     OW24118   1.072   4.857   6.427 -0.1145 -0.6659 -0.0900
 7740SOL    HW124119   1.000   4.811   6.477 -0.8297  0.6272  0.1160
 7740SOL    HW224120   1.086   4.949   6.464  2.3692 -1.2310  0.5520
 7741SOL     OW24121   0.012   5.352   1.107 -0.0274 -0.1194  0.7440
 7741SOL    HW124122  -0.001   5.422   1.177  0.7922 -0.8842  1.6909
 7741SOL    HW224123  -0.031   5.266   1.137  0.2223 -0.4206  0.2539
 7742SOL     OW24124   1.733   2.559   5.140  0.0940  0.0290  0.3565
 7742SOL    HW124125   1.650   2.561   5.084  1.3632  1.6809 -1.6119
 7742SOL    HW224126   1.722   2.621   5.218 -0.7998 -0.4158  0.6050
 7743SOL     OW24127   0.743   1.623   3.792 -0.0991  0.0074  0.4376
 7743SOL    HW124128   0.811   1.675   3.741 -0.6374  1.0822  0.7736
 7743SOL    HW224129   0.716   1.674   3.874 -0.7837 -0.7271  0.6904
 7744SOL     OW24130   1.635   1.820   4.414 -0.5006 -0.2897 -0.0628
 7744SOL    HW124131   1.708   1.888   4.421  0.3650 -1.1653 -0.4140
 7744SOL    HW224132   1.592   1.808   4.503  1.4344 -1.5242  0.7733
 7745SOL     OW24133   5.038   6.097   5.812 -0.7939 -0.1602  0.3841
 7745SOL    HW124134   5.123   6.150   5.809 -1.3104  0.6685  0.0460
 7745SOL    HW224135   5.042   6.022   5.746 -0.3890 -0.0335  0.2645
 7746SOL     OW24136   2.602   2.511   5.922  0.2196 -0.2710 -0.0890
 7746SOL    HW124137   2.556   2.595   5.893 -0.7805 -0.4437  0.9137
 7746SOL    HW224138   2.534   2.443   5.950  1.0490 -0.9334  0.3999
 7747SOL     OW24139   2.681   3.744   1.347 -0.5260  0.3493  0.4646
 7747SOL    HW124140   2.655   3.648   1.337  1.6304 -0.3692  1.1455
 7747SOL    HW224141   2.624   3.787   1.416 -3.3970  0.4074 -1.7467
 7748SOL     OW24142   4.887   0.719   4.009  0.3497  0.3701 -0.8242
 7748SOL    HW124143   4.874   0.756   4.101  1.2815 -1.1484 -0.0362
 7748SOL    HW224144   4.803   0.732   3.956 -1.4705 -1.6293  1.3120
 7749SOL     OW24145   5.550   5.842   2.384 -0.6213 -0.7788  0.5519
 7749SOL    HW124146   5.642   5.843   2.344 -0.8209  2.4114 -0.1066
 7749SOL    HW224147   5.548   5.780   2.462  2.3075 -0.4504  1.0064
 7750SOL     OW24148   0.549   1.580   5.846 -0.3414  0.4781  0.5029
 7750SOL    HW124149   0.471   1.567   5.907 -0.0941 -0.6437  0.5955
 7750SOL    HW224150   0.634   1.560   5.896  0.0634  2.1563  0.5483
 7751SOL     OW24151   3.800   0.357   4.565 -0.3139  0.6947  0.0681
 7751SOL    HW124152   3.864   0.433   4.552 -0.8579  1.3082  0.8163
 7751SOL    HW224153   3.762   0.329   4.477  0.8306  0.4437 -0.3637
 7752SOL     OW24154   4.576   0.104   6.253 -0.4567  0.3818 -0.2567
 7752SOL    HW124155   4.529   0.016   6.257 -2.0627  1.1568 -1.0185
 7752SOL    HW224156   4.659   0.094   6.199 -1.3257 -0.4008 -1.5219
 7753SOL     OW24157   2.209   3.906   2.000 -0.3480  0.1211 -0.2318
 7753SOL    HW124158   2.267   3.985   2.020  0.1405 -0.6501  1.6458
 7753SOL    HW224159   2.206   3.846   2.080 -1.3042 -1.3990 -1.3507
 7754SOL     OW24160   2.099   4.599   5.828 -0.5086 -0.9658 -0.0281
 7754SOL    HW124161   2.159   4.546   5.768 -0.8450 -0.6185 -0.6765
 7754SOL    HW224162   2.004   4.583   5.804 -0.6160 -0.0307 -0.2747
 7755SOL     OW24163   3.857   3.791   3.989  0.2186  0.4087  0.2632
 7755SOL    HW124164   3.855   3.891   3.989  0.1852  0.4174 -0.4135
 7755SOL    HW224165   3.773   3.756   4.031 -0.1504  0.6765 -0.2368
 7756SOL     OW24166   3.881   1.681   6.326 -0.0948 -0.4236  0.2618
 7756SOL    HW124167   3.912   1.710   6.235 -1.2839  1.3582  0.3697
 7756SOL    HW224168   3.871   1.761   6.385 -1.1258 -1.3400  1.3964
 7757SOL     OW24169   3.072   0.234   4.301 -0.2100 -0.7833  0.5828
 7757SOL    HW124170   3.156   0.209   4.253 -1.1513 -0.4014 -1.3776
 7757SOL    HW224171   3.070   0.333   4.314 -1.0068 -0.6028 -0.7540
 7758SOL     OW24172   1.982   5.220   5.039 -0.0011 -0.1317  0.3755
 7758SOL    HW124173   2.004   5.201   4.944  0.0558 -0.9230  0.5437
 7758SOL    HW224174   1.990   5.319   5.056  2.6329 -0.2368  0.2064
 7759SOL     OW24175   0.697   6.383   2.928  0.0304  0.4061  0.7107
 7759SOL    HW124176   0.756   6.450   2.973 -0.3727  0.1697  1.6106
 7759SOL    HW224177   0.674   6.310   2.992  0.0631 -0.3388 -0.1184
 7760SOL     OW24178   6.070   0.478   2.582 -0.6529  0.2044  0.4125
 7760SOL    HW124179   6.112   0.395   2.619  0.0247  0.8022  1.0158
 7760SOL    HW224180   6.141   0.545   2.563 -0.9093 -0.2262 -2.4727
 7761SOL     OW24181   6.753   5.345   0.237  0.3461 -0.3669 -0.1787
 7761SOL    HW124182   6.767   5.420   0.301 -0.1796  0.0607 -0.5633
 7761SOL    HW224183   6.666   5.357   0.189  0.4933 -0.9521 -0.6016
 7762SOL     OW24184   0.051   3.126   0.817 -0.3075 -0.4610 -0.3069
 7762SOL    HW124185  -0.016   3.199   0.803 -0.2999 -0.3457  0.2590
 7762SOL    HW224186   0.124   3.158   0.877  0.6181 -0.3681 -1.4457
 7763SOL     OW24187   5.510   4.936   2.670 -0.3675 -0.1698  0.1370
 7763SOL    HW124188   5.599   4.890   2.661  0.8258  1.8813  0.8498
 7763SOL    HW224189   5.480   4.969   2.581  0.2406  0.2575  0.0840
 7764SOL     OW24190   3.405   4.493   1.528  0.7237 -0.3015 -0.3851
 7764SOL    HW124191   3.331   4.535   1.580  1.0797 -1.0909  0.8195
 7764SOL    HW224192   3.471   4.563   1.501  0.2178  0.2149 -0.2884
 7765SOL     OW24193   0.344   1.433   6.358  0.1593  0.6166 -0.3875
 7765SOL    HW124194   0.333   1.355   6.296 -0.7668  0.1122  0.3694
 7765SOL    HW224195   0.412   1.496   6.322  0.1329 -0.0066 -1.5636
 7766SOL     OW24196   5.482   5.184   3.395 -0.1403  0.1284 -0.2860
 7766SOL    HW124197   5.391   5.160   3.430  0.3248 -0.2401  0.7118
 7766SOL    HW224198   5.510   5.116   3.327 -1.1744  1.0097 -1.6327
 7767SOL     OW24199   1.708   4.525   3.675  0.1313 -0.2574 -0.6283
 7767SOL    HW124200   1.632   4.515   3.739  1.0786  1.4627  0.8503
 7767SOL    HW224201   1.671   4.547   3.584 -1.1754  1.7663  0.3152
 7768SOL     OW24202   5.274   4.715   0.519 -0.0912  0.3206 -0.1637
 7768SOL    HW124203   5.176   4.736   0.520 -0.2707 -0.4866  0.0089
 7768SOL    HW224204   5.321   4.779   0.458 -0.7187  0.7373 -0.2197
 7769SOL     OW24205   0.496   6.063   3.792  0.1380  0.3084  0.1611
 7769SOL    HW124206   0.476   6.103   3.702  2.1643 -4.0254 -2.5181
 7769SOL    HW224207   0.416   6.012   3.823  0.6131 -1.3553 -1.1979
 7770SOL     OW24208   3.358   6.116   4.254 -0.1397  0.3781 -0.9309
 7770SOL    HW124209   3.264   6.127   4.224 -0.4216 -0.3466 -0.3331
 7770SOL    HW224210   3.385   6.020   4.246  0.5667  0.5817 -1.1419
 7771SOL     OW24211   5.000   5.990   4.986 -1.1057  0.2256 -0.1175
 7771SOL    HW124212   5.057   5.913   4.957 -2.2455 -1.1536  1.1521
 7771SOL    HW224213   4.976   6.045   4.906  0.7924  0.0393 -0.8782
 7772SOL     OW24214   5.829   2.567   6.099  0.4449 -0.2205  0.5142
 7772SOL    HW124215   5.785   2.634   6.039  0.9501  3.4694  3.7984
 7772SOL    HW224216   5.907   2.526   6.053 -0.3683  0.8717 -1.9723
 7773SOL     OW24217   1.537   0.418   3.162 -0.2757 -0.0429  0.2592
 7773SOL    HW124218   1.563   0.509   3.130  0.8873 -1.0448 -1.8866
 7773SOL    HW224219   1.503   0.364   3.085  0.3660 -1.8438  1.1729
 7774SOL     OW24220   6.068   4.661   2.856 -1.0323 -0.1423 -0.0163
 7774SOL    HW124221   6.032   4.680   2.765 -0.3859 -0.3194 -0.3149
 7774SOL    HW224222   6.010   4.705   2.925 -1.0063  0.7752 -0.5586
 7775SOL     OW24223   1.459   5.614   5.618  0.7040 -0.5070 -0.2284
 7775SOL    HW124224   1.401   5.543   5.658  1.5310 -1.1715 -0.1661
 7775SOL    HW224225   1.524   5.572   5.555  1.1220  0.2179 -0.2953
 7776SOL     OW24226   4.837   1.495   2.852 -0.0729 -0.4683 -0.2219
 7776SOL    HW124227   4.768   1.451   2.794 -3.6271  2.9651  0.9799
 7776SOL    HW224228   4.904   1.541   2.795  0.4874 -2.6794 -1.4493
 7777SOL     OW24229   4.658   1.712   3.250  0.4498 -0.2073  0.0645
 7777SOL    HW124230   4.638   1.628   3.301  0.8942  0.2076  0.9397
 7777SOL    HW224231   4.597   1.785   3.280  0.6086  0.0009 -0.1133
 7778SOL     OW24232   6.673   3.501   1.839  0.8374  0.0604 -0.7698
 7778SOL    HW124233   6.631   3.460   1.920 -0.6545  0.4514 -1.3138
 7778SOL    HW224234   6.763   3.460   1.824 -0.1477 -2.3187 -0.7087
 7779SOL     OW24235   3.189   1.756   3.274 -0.8209  0.0970  0.0927
 7779SOL    HW124236   3.187   1.772   3.175  0.2884 -0.2595  0.0052
 7779SOL    HW224237   3.138   1.673   3.295  0.6232 -0.9672 -0.4345
 7780SOL     OW24238   6.796   5.028   3.937  0.2170 -0.0810 -0.3322
 7780SOL    HW124239   6.854   5.057   4.013 -0.5659 -0.0787  0.2789
 7780SOL    HW224240   6.708   4.996   3.973  0.1679 -0.9318 -1.1733
 7781SOL     OW24241   2.380   0.095   5.158 -0.3076  0.3728  0.0667
 7781SOL    HW124242   2.477   0.073   5.148 -0.4486 -1.1572  1.4744
 7781SOL    HW224243   2.367   0.152   5.239 -0.7442 -1.0346  1.0176
 7782SOL     OW24244   1.717   4.470   2.985  0.2624  0.0455  0.1326
 7782SOL    HW124245   1.811   4.470   3.019  0.2885  2.4093  0.2838
 7782SOL    HW224246   1.706   4.546   2.920 -1.2194 -1.0092 -0.9103
 7783SOL     OW24247   3.884   6.986   4.683 -0.4255 -0.7180  0.4031
 7783SOL    HW124248   3.804   6.927   4.676 -0.3884 -0.8721  1.1277
 7783SOL    HW224249   3.905   7.026   4.594 -0.3069 -1.9798 -0.1607
 7784SOL     OW24250   1.287   5.762   2.890  0.0247 -0.4815  0.3519
 7784SOL    HW124251   1.348   5.807   2.956 -0.7056 -0.4789  1.0366
 7784SOL    HW224252   1.195   5.799   2.900 -0.2524 -1.0327 -0.1533
 7785SOL     OW24253   5.250   0.223   5.942 -0.3744  0.0806 -0.1691
 7785SOL    HW124254   5.227   0.273   5.858 -0.6841 -0.1464 -0.2198
 7785SOL    HW224255   5.306   0.143   5.919 -0.2732  0.1427 -0.1366
 7786SOL     OW24256   5.579   4.690   6.487  0.4072  0.0363 -0.0070
 7786SOL    HW124257   5.489   4.730   6.499  0.1899 -0.0616 -1.2079
 7786SOL    HW224258   5.576   4.621   6.415  1.2405 -0.6216  0.5743
 7787SOL     OW24259   0.291   2.648   4.433  0.1121 -0.1373 -0.1324
 7787SOL    HW124260   0.333   2.731   4.396  0.2508  0.1365  0.6244
 7787SOL    HW224261   0.270   2.585   4.358  1.8278 -0.2686 -0.5570
 7788SOL     OW24262   4.331   2.209   2.135  0.2187 -0.0651  0.2624
 7788SOL    HW124263   4.360   2.293   2.181 -1.0374  0.8028 -0.4842
 7788SOL    HW224264   4.364   2.130   2.187  0.6525  0.8815  1.4760
 7789SOL     OW24265   0.296   5.843   2.306 -0.0267  0.1974 -0.7589
 7789SOL    HW124266   0.207   5.882   2.330 -1.3720 -2.7024 -0.5814
 7789SOL    HW224267   0.286   5.788   2.223  1.3651 -0.8936 -0.2445
 7790SOL     OW24268   1.381   6.255   2.875  0.1987  0.2308 -0.0295
 7790SOL    HW124269   1.390   6.304   2.962 -0.0742 -1.6495  1.1049
 7790SOL    HW224270   1.284   6.239   2.856  0.2308  0.9962 -0.9209
 7791SOL     OW24271   4.000   0.101   5.640  0.0540  0.2464 -0.2051
 7791SOL    HW124272   4.028   0.062   5.728  1.2451 -2.6154 -1.7376
 7791SOL    HW224273   3.994   0.201   5.649 -0.4663  0.0469  3.2259
 7792SOL     OW24274   6.722   6.011   2.577 -0.7409 -0.3082 -0.3751
 7792SOL    HW124275   6.766   6.073   2.641 -1.1818  0.0339 -0.3949
 7792SOL    HW224276   6.671   5.941   2.628 -0.3291 -0.5981 -0.3536
 7793SOL     OW24277   3.091   5.170   6.294 -0.4000  0.1744 -0.3588
 7793SOL    HW124278   3.073   5.261   6.333 -0.5039  0.0527 -0.1157
 7793SOL    HW224279   3.182   5.168   6.254 -0.7936  0.7093 -1.3195
 7794SOL     OW24280   0.671   1.019   3.646  0.1197  0.2026 -0.0035
 7794SOL    HW124281   0.606   1.092   3.626 -0.4824 -0.4417 -0.4552
 7794SOL    HW224282   0.728   1.002   3.566 -0.8069 -0.8762 -0.4661
 7795SOL     OW24283   5.054   2.646   2.518  0.6852 -0.5945 -0.6422
 7795SOL    HW124284   5.064   2.612   2.611 -2.2845  2.3748  1.0182
 7795SOL    HW224285   5.083   2.742   2.515 -2.3390  0.4011 -1.7794
 7796SOL     OW24286   4.451   2.741   6.222 -0.1730  0.2107 -0.1900
 7796SOL    HW124287   4.441   2.838   6.245  1.1703  0.0966  0.9961
 7796SOL    HW224288   4.466   2.732   6.124  1.1214  1.3409 -0.1185
 7797SOL     OW24289   2.066   1.541   1.584  0.2555  0.5767 -0.5764
 7797SOL    HW124290   2.002   1.467   1.604  1.9553 -0.9237 -0.4862
 7797SOL    HW224291   2.015   1.621   1.551 -1.8287  0.1670  1.4173
 7798SOL     OW24292   0.969   2.726   0.387 -0.0004  0.1347  0.0121
 7798SOL    HW124293   1.018   2.645   0.354 -1.1331 -0.2691 -0.7120
 7798SOL    HW224294   1.035   2.797   0.410  1.0165 -0.9250  0.5114
 7799SOL     OW24295   2.184   4.894   5.413 -0.3676 -0.1923  0.1627
 7799SOL    HW124296   2.146   4.986   5.405 -0.6633 -0.2589  0.7423
 7799SOL    HW224297   2.277   4.893   5.374 -0.2959  0.3865  0.3068
 7800SOL     OW24298   6.781   6.326   4.484  0.5123 -0.3044  0.0301
 7800SOL    HW124299   6.687   6.292   4.494 -0.0284  1.3477  0.8556
 7800SOL    HW224300   6.780   6.426   4.479  2.2062 -0.2803 -0.3959
 7801SOL     OW24301   5.962   3.089   2.541 -0.0129 -0.4355 -0.4926
 7801SOL    HW124302   6.045   3.042   2.511 -0.2815 -1.6920  0.5924
 7801SOL    HW224303   5.953   3.078   2.640 -0.9140  0.6223 -0.4468
 7802SOL     OW24304   6.318   4.004   2.622 -0.3954  0.2383  0.0011
 7802SOL    HW124305   6.232   4.024   2.668 -1.1635  0.2394 -1.4067
 7802SOL    HW224306   6.320   3.908   2.593 -0.6322  0.6499 -1.4207
 7803SOL     OW24307   6.244   4.825   1.260 -0.2266  0.6855  0.3326
 7803SOL    HW124308   6.178   4.750   1.256  0.4310  0.1127 -0.0490
 7803SOL    HW224309   6.213   4.893   1.327 -1.0215  0.2621  0.4095
 7804SOL     OW24310   3.240   6.487   5.739 -0.6200 -0.0417  0.3066
 7804SOL    HW124311   3.199   6.406   5.697 -0.1642 -0.1807  0.1251
 7804SOL    HW224312   3.174   6.530   5.801 -0.9735 -0.3671  0.1554
 7805SOL     OW24313   5.324   3.116   5.259 -0.1598 -0.4048 -0.1265
 7805SOL    HW124314   5.321   3.023   5.223 -3.6985 -0.8275  0.8377
 7805SOL    HW224315   5.352   3.179   5.186  1.4020 -2.0638 -1.0449
 7806SOL     OW24316   3.718   2.968   1.772  0.1829 -0.2760 -0.7027
 7806SOL    HW124317   3.719   2.890   1.710  1.8700 -2.0376  1.4003
 7806SOL    HW224318   3.811   2.989   1.801 -0.4597  1.1443  0.4344
 7807SOL     OW24319   1.928   6.683   2.847  0.5576  0.0263  0.7934
 7807SOL    HW124320   1.874   6.606   2.881 -0.3892  0.5245  0.4431
 7807SOL    HW224321   1.914   6.692   2.748 -0.6848  1.6601  1.0731
 7808SOL     OW24322   5.004   0.075   4.154 -0.4092 -0.1387  0.5297
 7808SOL    HW124323   5.028   0.032   4.242 -0.3298 -0.3904  0.3863
 7808SOL    HW224324   4.916   0.122   4.163 -0.1222  0.3348  0.9080
 7809SOL     OW24325   6.243   3.966   6.947 -0.2599  0.0326 -0.1171
 7809SOL    HW124326   6.252   3.997   7.042  0.2443  0.2380 -0.2282
 7809SOL    HW224327   6.331   3.977   6.900 -0.5439  0.0689 -0.6492
 7810SOL     OW24328   3.463   3.706   3.176 -0.4112  0.1796 -0.3660
 7810SOL    HW124329   3.537   3.762   3.138  0.2557  0.8086  1.7522
 7810SOL    HW224330   3.487   3.610   3.169  1.9458  0.4157  2.6598
 7811SOL     OW24331   4.808   4.014   3.452  0.0660  0.4472  0.1575
 7811SOL    HW124332   4.711   3.991   3.439 -0.2232  1.6334  0.1088
 7811SOL    HW224333   4.820   4.064   3.537  1.1029 -2.1906  1.6733
 7812SOL     OW24334   5.108   0.052   0.664  0.0476  0.1056 -0.2353
 7812SOL    HW124335   5.107   0.117   0.740 -0.1753  0.1405 -0.2666
 7812SOL    HW224336   5.146  -0.035   0.695 -0.8060 -0.1477  0.1396
 7813SOL     OW24337   0.818   1.601   5.559  0.0277 -0.7415  0.0118
 7813SOL    HW124338   0.841   1.697   5.541 -0.8188 -0.9503 -2.5059
 7813SOL    HW224339   0.901   1.553   5.589  0.8583  0.4026 -0.3400
 7814SOL     OW24340   7.000   0.697   4.353  0.1160 -0.2693 -0.0257
 7814SOL    HW124341   6.906   0.731   4.351  0.9860  2.3776  0.3870
 7814SOL    HW224342   7.031   0.687   4.447  0.7469  0.4650 -0.1418
 7815SOL     OW24343   4.055   1.048   2.291  0.0232  0.1579  0.2933
 7815SOL    HW124344   4.031   0.951   2.296 -0.6776  0.2420 -0.9226
 7815SOL    HW224345   4.110   1.065   2.210 -0.5467  0.9024  0.0473
 7816SOL     OW24346   1.780   5.451   6.713  0.1655  0.6476  0.1005
 7816SOL    HW124347   1.802   5.466   6.616  1.6478  2.2871  0.6437
 7816SOL    HW224348   1.731   5.530   6.749  2.2564  1.4168  1.3965
 7817SOL     OW24349   5.078   0.590   1.849 -0.4962 -0.5688  0.6116
 7817SOL    HW124350   5.007   0.626   1.909 -1.4605  2.5656 -2.1093
 7817SOL    HW224351   5.163   0.641   1.864 -0.8429  0.4886 -0.8068
 7818SOL     OW24352   5.886   0.587   2.761  0.2219  0.0691  0.6388
 7818SOL    HW124353   5.913   0.504   2.714 -1.7542  0.0640 -0.6171
 7818SOL    HW224354   5.895   0.665   2.700 -0.7577  0.3142  0.7750
 7819SOL     OW24355   4.814   6.849   3.663 -0.0461 -0.2237  0.1891
 7819SOL    HW124356   4.773   6.905   3.735 -0.4320 -0.4353  0.1382
 7819SOL    HW224357   4.908   6.879   3.646  0.3400 -0.7033  1.3693
 7820SOL     OW24358   2.017   0.876   2.783  0.1552 -0.0845  0.6667
 7820SOL    HW124359   2.022   0.862   2.882  1.9852 -0.7765  0.5269
 7820SOL    HW224360   2.004   0.972   2.763 -1.4542 -0.0858  1.5826
 7821SOL     OW24361   3.205   0.188   2.429  0.3175 -0.0656  0.5874
 7821SOL    HW124362   3.180   0.237   2.345 -0.3418  0.1643  0.9117
 7821SOL    HW224363   3.157   0.100   2.432 -0.2830  0.2686  1.0930
 7822SOL     OW24364   2.432   2.063   0.270  0.6951 -0.3369  0.4120
 7822SOL    HW124365   2.371   2.076   0.347  0.4624 -0.8485  0.3210
 7822SOL    HW224366   2.525   2.091   0.295  0.3146  1.0583  0.3428
 7823SOL     OW24367   1.843   1.750   5.266  0.4282  0.1272  0.4451
 7823SOL    HW124368   1.937   1.759   5.297  0.7420  0.4381 -0.5732
 7823SOL    HW224369   1.841   1.744   5.166 -0.5858 -0.4680  0.4921
 7824SOL     OW24370   6.196   0.778   2.640  0.2240 -0.1540  0.1561
 7824SOL    HW124371   6.099   0.801   2.641  0.2822  0.1506 -0.5096
 7824SOL    HW224372   6.244   0.835   2.707 -0.1867 -0.9670  1.1680
 7825SOL     OW24373   2.979   6.164   4.383  0.3965  0.0843  0.2197
 7825SOL    HW124374   2.984   6.069   4.353 -2.3759  0.7418 -2.9964
 7825SOL    HW224375   2.920   6.170   4.463  1.3175 -0.9614  1.0001
 7826SOL     OW24376   6.497   6.874   1.555 -0.8069  0.4664 -0.0291
 7826SOL    HW124377   6.397   6.868   1.551 -0.7852 -0.5381  0.5852
 7826SOL    HW224378   6.534   6.867   1.463 -1.2424 -0.8045 -0.1305
 7827SOL     OW24379   2.179   6.439   3.637 -0.1509 -0.3708 -0.6831
 7827SOL    HW124380   2.137   6.349   3.640  0.5695 -0.7834 -1.9459
 7827SOL    HW224381   2.179   6.473   3.542  1.8433 -0.1705 -0.6688
 7828SOL     OW24382   6.761   3.857   6.921 -0.5672 -0.3082 -0.4105
 7828SOL    HW124383   6.763   3.759   6.901 -1.9592 -0.5457  0.4466
 7828SOL    HW224384   6.846   3.884   6.966 -0.4984 -1.2947  0.0713
 7829SOL     OW24385   5.574   3.812   1.160 -0.0191  0.0601  0.0172
 7829SOL    HW124386   5.611   3.832   1.069 -0.2874 -0.3551 -0.1859
 7829SOL    HW224387   5.531   3.894   1.197 -1.0206 -0.1011 -0.7564
 7830SOL     OW24388   6.534   1.262   5.749 -0.1299  0.3285 -0.3659
 7830SOL    HW124389   6.499   1.308   5.668  0.6477 -0.5906 -1.2678
 7830SOL    HW224390   6.593   1.324   5.800 -1.1876  1.1370 -0.1140
 7831SOL     OW24391   5.437   5.181   6.307  0.0094 -0.2048 -0.0503
 7831SOL    HW124392   5.474   5.272   6.290  2.1449 -1.1022 -0.5263
 7831SOL    HW224393   5.389   5.180   6.395 -0.2496  1.4089 -0.1465
 7832SOL     OW24394   3.667   6.335   3.692 -0.8136 -0.2105 -0.2708
 7832SOL    HW124395   3.677   6.435   3.690  1.0281 -0.2124  2.9149
 7832SOL    HW224396   3.578   6.312   3.733 -0.9391  0.1262 -0.3453
 7833SOL     OW24397   5.731   1.231   1.255  0.0772  0.0059 -0.3345
 7833SOL    HW124398   5.735   1.221   1.156 -0.1178  0.9638 -0.4487
 7833SOL    HW224399   5.753   1.325   1.281  2.8175 -0.8326  0.7460
 7834SOL     OW24400   4.882   3.911   5.625  0.2485 -0.0018  0.2988
 7834SOL    HW124401   4.920   3.867   5.544 -1.2181 -2.7836  0.9623
 7834SOL    HW224402   4.955   3.940   5.685  1.3509  1.5804 -1.7043
 7835SOL     OW24403   5.362   2.954   6.317 -0.0944 -0.7354  0.2514
 7835SOL    HW124404   5.436   2.892   6.291  1.4955  0.3286  1.9674
 7835SOL    HW224405   5.318   2.919   6.400 -0.1105 -0.2722  0.4364
 7836SOL     OW24406   1.035   2.556   3.409 -0.3165  0.2393 -0.3641
 7836SOL    HW124407   0.962   2.488   3.420  0.0360 -0.5103 -2.3168
 7836SOL    HW224408   1.096   2.529   3.335  2.3135  0.5806  1.5223
 7837SOL     OW24409   6.218   3.040   5.680 -0.1603 -0.4887  0.5585
 7837SOL    HW124410   6.271   3.048   5.764 -0.0813  1.9274  0.3529
 7837SOL    HW224411   6.230   2.949   5.641  1.3223 -1.0202  2.1496
 7838SOL     OW24412   1.044   2.016   4.434 -0.0989 -0.3807  0.5342
 7838SOL    HW124413   0.946   2.023   4.418  0.1084 -0.4499 -0.9238
 7838SOL    HW224414   1.072   1.920   4.427  0.3073 -0.1930 -0.7500
 7839SOL     OW24415   1.732   0.471   0.588 -0.2012 -0.7290  0.1433
 7839SOL    HW124416   1.708   0.561   0.552 -0.1156 -1.2037 -1.1714
 7839SOL    HW224417   1.686   0.456   0.675 -0.7788  0.3023  0.0294
 7840SOL     OW24418   5.187   6.457   2.973  0.4307 -0.1078 -0.0258
 7840SOL    HW124419   5.204   6.494   2.881  1.0849 -3.0666 -1.2289
 7840SOL    HW224420   5.240   6.509   3.040  0.7383  1.5047 -1.4436
 7841SOL     OW24421   1.123   2.921   4.855  0.0134  0.6791  0.0095
 7841SOL    HW124422   1.214   2.891   4.826  0.0684  1.6727 -0.9438
 7841SOL    HW224423   1.118   2.924   4.954  0.2987 -1.4756  0.1327
 7842SOL     OW24424   0.613   1.424   1.456 -0.0247 -0.0534 -0.2011
 7842SOL    HW124425   0.691   1.362   1.454 -0.0342 -0.0529 -1.6208
 7842SOL    HW224426   0.645   1.517   1.474  0.1663 -0.2157  0.3197
 7843SOL     OW24427   6.843   1.833   6.127  0.4074  0.1305 -0.2073
 7843SOL    HW124428   6.798   1.825   6.216 -0.3162  0.4332 -0.5338
 7843SOL    HW224429   6.830   1.926   6.093  2.3910  0.6134  0.2631
 7844SOL     OW24430   0.200   0.366   0.575 -0.0753  0.0606 -0.3749
 7844SOL    HW124431   0.284   0.408   0.542  0.2136 -0.6447 -0.5498
 7844SOL    HW224432   0.149   0.432   0.630 -0.2048  1.0245 -1.6139
 7845SOL     OW24433   1.614   6.372   0.715  0.9362 -0.6283  0.2821
 7845SOL    HW124434   1.684   6.304   0.697  0.9022 -0.2806 -1.2297
 7845SOL    HW224435   1.561   6.389   0.632  0.1014  0.2866  0.9797
 7846SOL     OW24436   6.056   1.648   6.149  0.1437 -0.0493 -0.0308
 7846SOL    HW124437   5.989   1.721   6.167  0.4705  0.0779  0.7228
 7846SOL    HW224438   6.008   1.560   6.142  0.0044 -0.1859  2.0337
 7847SOL     OW24439   6.665   3.651   5.598  0.2982  0.9753 -0.1174
 7847SOL    HW124440   6.655   3.640   5.697 -0.4602  1.9405 -0.0642
 7847SOL    HW224441   6.738   3.592   5.564 -0.0611 -0.0615  0.8734
 7848SOL     OW24442   3.799   5.271   2.942 -0.3769 -0.0004 -0.1091
 7848SOL    HW124443   3.729   5.320   2.890 -2.3086 -0.5280  1.8107
 7848SOL    HW224444   3.851   5.335   2.998  0.7693  0.3951 -1.5486
 7849SOL     OW24445   2.137   2.249   3.384  0.2012  0.0699 -0.1954
 7849SOL    HW124446   2.159   2.152   3.375  1.2575  0.3393 -0.6363
 7849SOL    HW224447   2.133   2.291   3.294 -1.0946  0.2740 -0.0610
 7850SOL     OW24448   0.455   5.078   5.849  0.7174  0.4330 -0.2367
 7850SOL    HW124449   0.416   5.153   5.795 -0.2043 -0.4780 -0.8875
 7850SOL    HW224450   0.391   5.054   5.922  1.0047  0.2707 -0.0374
 7851SOL     OW24451   6.985   6.140   4.436  0.0592 -0.6972 -0.3545
 7851SOL    HW124452   6.944   6.088   4.361  0.1176 -1.5346  0.1853
 7851SOL    HW224453   6.918   6.205   4.472  0.1447 -0.0269 -1.3593
 7852SOL     OW24454   1.730   2.841   3.615 -0.3513  0.2840  0.3662
 7852SOL    HW124455   1.811   2.870   3.565  0.5906  0.0739  1.6910
 7852SOL    HW224456   1.750   2.755   3.662 -1.9027 -0.6352 -0.6090
 7853SOL     OW24457   2.630   4.487   0.734  0.2291  0.0287  0.4467
 7853SOL    HW124458   2.674   4.577   0.732  0.4900 -0.0981 -2.3620
 7853SOL    HW224459   2.696   4.419   0.767  0.4345  0.6269  1.3278
 7854SOL     OW24460   2.814   2.344   4.676 -0.1250  0.0432  0.3011
 7854SOL    HW124461   2.838   2.427   4.727 -1.3926  0.4462  0.2675
 7854SOL    HW224462   2.780   2.369   4.585 -2.7334 -0.3183  1.1050
 7855SOL     OW24463   0.012   4.565   2.290 -0.7455  0.0362 -0.6347
 7855SOL    HW124464  -0.087   4.558   2.284 -0.6948  0.0606 -1.6154
 7855SOL    HW224465   0.043   4.651   2.249 -0.4766  1.1612  1.7181
 7856SOL     OW24466   5.802   3.743   2.396 -0.5738  0.5411 -0.3706
 7856SOL    HW124467   5.768   3.761   2.489  1.1229  0.6611  0.2490
 7856SOL    HW224468   5.895   3.779   2.387 -0.9912  1.2251 -2.3743
 7857SOL     OW24469   2.490   4.540   2.047  0.4605  0.3069  0.3095
 7857SOL    HW124470   2.541   4.607   1.993 -0.4890  0.9382  0.1740
 7857SOL    HW224471   2.420   4.496   1.990 -0.2457  0.6459  0.8920
 7858SOL     OW24472   2.556   6.683   4.659  0.3295  0.8800 -0.7019
 7858SOL    HW124473   2.564   6.627   4.742 -2.8605  0.5562 -0.5062
 7858SOL    HW224474   2.603   6.638   4.583  0.8846 -0.2236  0.2732
 7859SOL     OW24475   3.284   3.553   1.630 -0.1477 -0.2799 -0.0688
 7859SOL    HW124476   3.378   3.526   1.651 -0.4624 -0.5332  1.1071
 7859SOL    HW224477   3.221   3.484   1.665 -0.8983  1.1721  1.6507
 7860SOL     OW24478   1.221   2.316   5.638 -0.6065  0.3153 -0.0989
 7860SOL    HW124479   1.284   2.384   5.601  2.0412 -1.1752  1.3619
 7860SOL    HW224480   1.271   2.253   5.698 -3.6496 -0.5483  1.7846
 7861SOL     OW24481   6.900   2.187   5.013  0.3945 -0.0537 -0.0622
 7861SOL    HW124482   6.903   2.131   5.097 -0.1736  0.0353  0.0176
 7861SOL    HW224483   6.967   2.152   4.948  3.5661  2.0563  1.7718
 7862SOL     OW24484   2.513   1.059   1.144  0.3276 -0.2987 -0.5419
 7862SOL    HW124485   2.488   1.119   1.068  1.9714  1.0492 -0.0862
 7862SOL    HW224486   2.475   1.096   1.229  2.3567  0.8858 -0.0775
 7863SOL     OW24487   5.100   6.566   5.120  0.2227 -0.4915  0.3504
 7863SOL    HW124488   5.016   6.539   5.166 -0.2327  1.5774  0.8459
 7863SOL    HW224489   5.165   6.490   5.121 -0.1587 -0.9003  3.4519
 7864SOL     OW24490   0.364   2.968   1.496  0.1083 -0.1541 -0.4394
 7864SOL    HW124491   0.360   2.963   1.595  2.5853 -0.3895 -0.2785
 7864SOL    HW224492   0.293   2.910   1.456  0.5411 -1.8979  1.2076
 7865SOL     OW24493   1.846   3.794   3.270 -0.3047 -0.3946 -0.1410
 7865SOL    HW124494   1.943   3.773   3.287 -0.3320  0.0682  0.6005
 7865SOL    HW224495   1.831   3.802   3.171  1.0177  2.2619 -0.2158
 7866SOL     OW24496   6.249   2.467   6.884  0.1108 -0.6324  0.1397
 7866SOL    HW124497   6.259   2.368   6.872 -0.8205 -0.5917 -1.3065
 7866SOL    HW224498   6.312   2.499   6.955 -0.1416 -2.3680  1.2014
 7867SOL     OW24499   6.906   2.805   3.761 -0.5446  0.0870  0.3931
 7867SOL    HW124500   6.994   2.760   3.749 -0.8374 -0.3844 -0.0334
 7867SOL    HW224501   6.905   2.853   3.849 -0.9528 -2.5085  1.9320
 7868SOL     OW24502   6.969   1.594   4.340  0.6681 -0.0780  0.3242
 7868SOL    HW124503   6.882   1.595   4.391 -0.4561 -0.8376 -1.4777
 7868SOL    HW224504   7.015   1.682   4.351 -0.2516  0.2899  1.4330
 7869SOL     OW24505   1.031   1.167   5.679 -0.7233 -0.1393  0.1750
 7869SOL    HW124506   0.998   1.075   5.699 -0.9109 -0.3706 -1.1000
 7869SOL    HW224507   1.048   1.176   5.581  0.2357  0.8879  0.4058
 7870SOL     OW24508   2.764   5.350   3.447 -0.2278  0.7145 -0.1290
 7870SOL    HW124509   2.712   5.394   3.374 -1.2290 -0.1084  0.0529
 7870SOL    HW224510   2.730   5.256   3.460  0.1170  0.7516  1.1975
 7871SOL     OW24511   4.625   5.572   1.101  0.7167 -0.2198  0.1334
 7871SOL    HW124512   4.644   5.557   1.198  0.1887 -1.3081  0.0828
 7871SOL    HW224513   4.704   5.617   1.058 -0.0199  2.7640  1.5839
 7872SOL     OW24514   6.259   3.045   2.998 -0.0164  0.4191 -0.1064
 7872SOL    HW124515   6.354   3.024   3.019  0.2849 -0.6114 -2.1822
 7872SOL    HW224516   6.201   3.023   3.077  1.2951 -0.4389  0.6456
 7873SOL     OW24517   3.495   4.279   5.929 -0.3100 -0.2256 -0.2857
 7873SOL    HW124518   3.554   4.348   5.887 -0.8701  0.8058  0.5678
 7873SOL    HW224519   3.478   4.206   5.864  0.6130  0.2419 -1.0857
 7874SOL     OW24520   1.671   5.701   4.991  0.2771  0.3068  0.1391
 7874SOL    HW124521   1.663   5.608   5.028  1.4388  1.1136  2.6652
 7874SOL    HW224522   1.580   5.744   4.991 -0.0113 -0.2790  0.5439
 7875SOL     OW24523   0.364   6.875   6.067  0.3709 -0.1958 -0.1230
 7875SOL    HW124524   0.286   6.835   6.020  1.1750 -0.7067 -1.0673
 7875SOL    HW224525   0.337   6.962   6.108 -0.9501 -0.8494  0.4712
 7876SOL     OW24526   3.231   5.642   5.578 -0.1755  0.1312 -0.4098
 7876SOL    HW124527   3.135   5.616   5.587  0.0110  0.1937  2.4694
 7876SOL    HW224528   3.272   5.591   5.502 -2.2592 -0.4389 -1.2248
 7877SOL     OW24529   3.251   6.095   3.583 -0.2307 -0.0681  0.1648
 7877SOL    HW124530   3.302   6.164   3.531  0.7977 -1.3558 -0.5924
 7877SOL    HW224531   3.160   6.085   3.543 -1.0777  2.0982  1.3980
 7878SOL     OW24532   6.986   6.687   0.834 -0.0558 -0.0434  0.4479
 7878SOL    HW124533   6.907   6.644   0.792  2.1304 -1.0337 -3.1571
 7878SOL    HW224534   6.990   6.783   0.808  1.5103 -0.7495 -2.2604
 7879SOL     OW24535   2.924   3.737   3.514 -0.2307  0.5224 -0.2958
 7879SOL    HW124536   3.006   3.695   3.474  1.2155  2.3602  0.5685
 7879SOL    HW224537   2.880   3.795   3.446  0.4285  1.1948 -0.1591
 7880SOL     OW24538   0.205   4.944   2.465  0.1707  0.5801  0.3723
 7880SOL    HW124539   0.215   4.850   2.497 -0.3941  0.6100  0.6544
 7880SOL    HW224540   0.257   5.005   2.525 -0.1677  0.5391  0.7136
 7881SOL     OW24541   1.806   3.430   1.048 -0.5262 -0.6269 -0.1250
 7881SOL    HW124542   1.850   3.470   0.968 -1.8566 -1.7194 -1.4645
 7881SOL    HW224543   1.746   3.498   1.091  0.5341  0.1009  0.2532
 7882SOL     OW24544   4.086   6.724   3.589 -0.1726 -0.2134  0.4363
 7882SOL    HW124545   4.137   6.739   3.504 -0.1310  0.3935  0.5614
 7882SOL    HW224546   4.121   6.785   3.660 -0.5162 -0.3893  0.7604
 7883SOL     OW24547   5.068   3.144   5.368 -0.0067  0.7710 -0.0651
 7883SOL    HW124548   5.164   3.148   5.342  0.5698  3.3480  2.0294
 7883SOL    HW224549   5.011   3.170   5.290  0.7365 -2.5605 -1.8962
 7884SOL     OW24550   6.574   3.756   0.166  0.0626 -0.0185  0.5801
 7884SOL    HW124551   6.641   3.754   0.240 -1.8724 -0.1649  2.4354
 7884SOL    HW224552   6.556   3.851   0.141 -1.3953  0.2498  2.4290
 7885SOL     OW24553   2.334   3.747   6.978  0.3397  0.0147 -0.8118
 7885SOL    HW124554   2.296   3.656   6.995  0.2159 -0.0612 -1.4712
 7885SOL    HW224555   2.333   3.765   6.880 -1.2596  1.4275 -0.5861
 7886SOL     OW24556   2.757   4.821   5.202  0.6988 -0.3736 -0.1072
 7886SOL    HW124557   2.788   4.904   5.157 -0.7899  0.1528 -0.1911
 7886SOL    HW224558   2.764   4.744   5.138 -2.2123  0.5111 -1.6600
 7887SOL     OW24559   4.787   3.641   0.618 -0.3302  0.1521 -0.6570
 7887SOL    HW124560   4.687   3.631   0.617 -0.2843 -0.3932 -0.3447
 7887SOL    HW224561   4.811   3.736   0.602 -0.9466  0.5465  0.6477
 7888SOL     OW24562   0.931   1.188   3.719 -0.3436 -0.0861  0.0043
 7888SOL    HW124563   0.864   1.122   3.754 -0.3052 -0.0426  0.1580
 7888SOL    HW224564   0.928   1.271   3.775  0.5722 -0.4817  0.6496
 7889SOL     OW24565   2.188   1.259   2.012 -0.3851 -0.0354  0.0519
 7889SOL    HW124566   2.180   1.188   1.942 -0.0787  1.3922 -1.4905
 7889SOL    HW224567   2.105   1.314   2.013  0.4140  1.2222 -0.6487
 7890SOL     OW24568   5.927   3.508   5.212  0.1174  0.4050 -0.6383
 7890SOL    HW124569   5.890   3.461   5.292 -0.1753  0.5156 -0.7090
 7890SOL    HW224570   5.912   3.606   5.221  0.2843  0.4400 -0.7259
 7891SOL     OW24571   0.979   4.197   0.852 -0.7917  0.1112 -0.3484
 7891SOL    HW124572   0.902   4.187   0.790 -0.4745  0.3947 -0.7954
 7891SOL    HW224573   1.060   4.226   0.800  0.1043 -1.9443 -0.2199
 7892SOL     OW24574   2.653   0.457   6.051 -0.0255 -0.3872  0.5786
 7892SOL    HW124575   2.709   0.376   6.038 -1.2547 -1.3816  1.2627
 7892SOL    HW224576   2.597   0.472   5.969  0.2188 -0.1960  0.4427
 7893SOL     OW24577   2.940   6.768   5.526 -0.7606 -0.3454 -0.3375
 7893SOL    HW124578   3.028   6.784   5.481 -0.5029  0.4979  0.4374
 7893SOL    HW224579   2.901   6.855   5.556 -1.2149 -0.8255  0.5213
 7894SOL     OW24580   2.514   5.397   2.684 -0.4628  0.1117  0.2266
 7894SOL    HW124581   2.602   5.350   2.684 -1.8267 -2.7389 -1.5155
 7894SOL    HW224582   2.523   5.485   2.638  2.0383  1.3453  2.8428
 7895SOL     OW24583   1.310   6.970   6.147 -0.0979 -0.3030 -0.4971
 7895SOL    HW124584   1.307   6.912   6.229  0.5246 -0.7055 -0.7530
 7895SOL    HW224585   1.368   7.050   6.164 -0.1166 -0.2918 -0.4862
 7896SOL     OW24586   6.093   5.775   5.055 -0.0129  0.9892 -0.3623
 7896SOL    HW124587   5.995   5.780   5.074 -0.1113  0.1930 -0.6449
 7896SOL    HW224588   6.127   5.682   5.073  0.4680  0.9703 -1.3008
 7897SOL     OW24589   4.725   6.205   1.955  0.0822  0.0105 -0.3722
 7897SOL    HW124590   4.648   6.222   1.894  0.2344 -0.6207 -0.7473
 7897SOL    HW224591   4.694   6.212   2.050 -0.8973 -2.0903 -0.4801
 7898SOL     OW24592   1.281   3.731   2.760 -0.2925 -0.0091  0.9131
 7898SOL    HW124593   1.268   3.750   2.857 -0.9885 -1.3089  1.0920
 7898SOL    HW224594   1.245   3.808   2.706 -1.1654  0.1258  1.6585
 7899SOL     OW24595   5.247   5.186   4.931 -0.0060  0.2442 -0.3812
 7899SOL    HW124596   5.195   5.187   5.016 -2.2434  2.3250 -1.6463
 7899SOL    HW224597   5.341   5.218   4.949 -0.2994  0.2471  1.3415
 7900SOL     OW24598   6.318   5.259   6.702 -0.4549  0.0908 -0.3830
 7900SOL    HW124599   6.237   5.201   6.710 -0.2380 -0.0816  0.6574
 7900SOL    HW224600   6.341   5.297   6.791  2.9144 -2.9508  0.2751
 7901SOL     OW24601   3.636   4.227   5.074 -0.1056  0.2197  0.4155
 7901SOL    HW124602   3.550   4.238   5.124  0.0680 -2.4221  1.4173
 7901SOL    HW224603   3.711   4.216   5.140  0.6523  0.0618 -0.4599
 7902SOL     OW24604   4.557   2.938   0.287  0.2895  0.2273 -1.0266
 7902SOL    HW124605   4.607   3.016   0.250  0.9742  0.4899  0.3696
 7902SOL    HW224606   4.488   2.970   0.352 -0.3961 -0.2520 -1.5065
 7903SOL     OW24607   3.042   1.856   6.102 -0.6628 -0.2135  0.1667
 7903SOL    HW124608   3.066   1.858   6.199  0.1998  0.1361 -0.0396
 7903SOL    HW224609   3.071   1.941   6.059 -1.2830 -0.2588 -0.3443
 7904SOL     OW24610   3.299   6.014   0.046 -0.3172 -0.8522 -0.5605
 7904SOL    HW124611   3.342   5.924   0.046  0.1811 -0.6366 -1.8866
 7904SOL    HW224612   3.248   6.027  -0.039 -2.8755 -1.0056  0.8628
 7905SOL     OW24613   1.715   0.479   6.647  0.1018 -0.1668  0.0432
 7905SOL    HW124614   1.651   0.404   6.665 -0.6630  0.3442 -0.4741
 7905SOL    HW224615   1.793   0.444   6.595  1.0120 -1.1018  1.9346
 7906SOL     OW24616   7.005   1.977   5.604  0.7608  0.3598 -0.2746
 7906SOL    HW124617   7.015   1.896   5.662  2.9724  1.1257  0.5073
 7906SOL    HW224618   6.995   1.949   5.508  1.3508 -0.8372 -0.0009
 7907SOL     OW24619   4.197   1.179   3.994 -0.6863  0.3060  0.4578
 7907SOL    HW124620   4.134   1.237   4.047 -1.2922  0.5083 -0.4644
 7907SOL    HW224621   4.145   1.106   3.950 -0.1483  0.0076  0.3144
 7908SOL     OW24622   5.003   4.662   3.702 -0.0345 -0.3098  0.1260
 7908SOL    HW124623   4.948   4.672   3.620  0.2629  0.1489 -0.0239
 7908SOL    HW224624   5.037   4.752   3.731 -1.5287 -0.1959  1.7314
 7909SOL     OW24625   6.448   5.842   3.169  0.2985 -0.2052  0.4536
 7909SOL    HW124626   6.497   5.796   3.243  0.3860  0.4507  0.8125
 7909SOL    HW224627   6.500   5.834   3.084  0.4568 -0.5077  0.5773
 7910SOL     OW24628   4.191   6.414   2.490 -0.2320  0.3119 -0.2467
 7910SOL    HW124629   4.174   6.504   2.451  0.4502  1.2094  1.4487
 7910SOL    HW224630   4.179   6.345   2.419 -1.4968  1.6488 -1.3974
 7911SOL     OW24631   6.021   4.598   3.681  0.1680 -0.3301  0.7026
 7911SOL    HW124632   6.115   4.607   3.649 -0.6796 -0.6216 -2.1853
 7911SOL    HW224633   5.996   4.502   3.686 -0.9865 -0.2930 -2.2359
 7912SOL     OW24634   1.835   2.929   5.225 -0.0777 -0.2338  0.6782
 7912SOL    HW124635   1.799   3.021   5.208  1.0552 -0.1886 -1.9666
 7912SOL    HW224636   1.923   2.936   5.272 -1.0303 -0.1489  2.5830
 7913SOL     OW24637   5.872   2.967   3.861  0.1156  0.4306 -0.7081
 7913SOL    HW124638   5.784   3.004   3.833 -1.0741 -1.0334  0.9214
 7913SOL    HW224639   5.910   2.911   3.787 -1.3256 -0.6083 -0.6917
 7914SOL     OW24640   3.595   3.852   0.227  0.3954  0.0320 -0.0104
 7914SOL    HW124641   3.547   3.865   0.140  1.6203 -0.4329 -0.7822
 7914SOL    HW224642   3.588   3.936   0.281 -1.8647 -0.2592  0.2232
 7915SOL     OW24643   3.533   3.512   2.722 -0.2782  0.4819 -0.1648
 7915SOL    HW124644   3.550   3.445   2.794 -0.9744  0.6087  0.1296
 7915SOL    HW224645   3.458   3.481   2.664  0.9827 -0.1435 -1.5260
 7916SOL     OW24646   1.543   6.563   2.783 -0.0348 -0.2170 -0.5577
 7916SOL    HW124647   1.487   6.504   2.725 -2.6436  1.2175  0.3529
 7916SOL    HW224648   1.621   6.511   2.818 -0.4829 -2.1702 -2.2650
 7917SOL     OW24649   2.937   3.785   4.162  0.1850 -0.6305  0.2361
 7917SOL    HW124650   2.892   3.748   4.243  0.1876 -0.7906  0.1648
 7917SOL    HW224651   2.930   3.719   4.087 -1.7738  0.4367 -0.5814
 7918SOL     OW24652   4.965   4.286   0.837 -0.9427 -0.9744 -0.0766
 7918SOL    HW124653   4.886   4.242   0.878 -1.0829  0.3309  1.1298
 7918SOL    HW224654   4.941   4.378   0.807  0.2583 -0.2505  1.0216
 7919SOL     OW24655   0.974   2.346   6.782 -0.3659 -0.6354 -0.8920
 7919SOL    HW124656   1.049   2.411   6.777 -1.4350  0.7605  0.3749
 7919SOL    HW224657   1.009   2.256   6.808  0.9111 -0.1552 -0.8915
 7920SOL     OW24658   2.316   6.106   0.787  0.4062  0.0423  0.6863
 7920SOL    HW124659   2.338   6.161   0.707 -1.6181 -0.8721 -0.5620
 7920SOL    HW224660   2.386   6.036   0.800  1.0305  0.5429  0.0618
 7921SOL     OW24661   1.352   3.239   4.846 -0.5458 -0.2888  0.6298
 7921SOL    HW124662   1.337   3.203   4.938  2.1303 -0.8947  0.9296
 7921SOL    HW224663   1.373   3.164   4.783  0.8724  0.3428  0.2996
 7922SOL     OW24664   0.132   6.080   2.827 -0.0021 -0.6227 -0.2717
 7922SOL    HW124665   0.121   6.118   2.735  0.9771 -0.3840 -0.3037
 7922SOL    HW224666   0.222   6.035   2.833  0.0083 -0.4920  0.6178
 7923SOL     OW24667   0.697   6.812   2.924 -0.1668  0.1177  0.1949
 7923SOL    HW124668   0.701   6.720   2.963  0.9801 -0.4518 -1.1633
 7923SOL    HW224669   0.789   6.851   2.921 -0.6806  1.4710  1.0503
 7924SOL     OW24670   2.387   6.698   3.857  0.8082 -0.7314 -0.1255
 7924SOL    HW124671   2.474   6.746   3.864  0.0667  0.4327  1.9047
 7924SOL    HW224672   2.391   6.614   3.911  0.3436 -0.1175  0.8832
 7925SOL     OW24673   5.989   6.899   2.914  0.0077  0.0804 -0.5001
 7925SOL    HW124674   6.063   6.860   2.859  1.4518  0.8720  0.7756
 7925SOL    HW224675   5.902   6.889   2.866  1.0843  0.0464 -2.5441
 7926SOL     OW24676   2.253   0.752   5.349 -0.1946  0.2417 -0.5368
 7926SOL    HW124677   2.256   0.830   5.412  1.1008  0.8102 -1.2710
 7926SOL    HW224678   2.284   0.670   5.396 -1.3739  0.1837  0.1848
 7927SOL     OW24679   3.172   4.623   1.641 -0.1603 -0.2995  0.1998
 7927SOL    HW124680   3.123   4.603   1.557 -1.0975 -0.3575  0.7436
 7927SOL    HW224681   3.113   4.604   1.720 -0.0298  1.6332  0.8288
 7928SOL     OW24682   0.813   4.380   3.271  0.5612 -0.1636 -0.1369
 7928SOL    HW124683   0.859   4.459   3.230 -2.0761  0.8177 -1.4727
 7928SOL    HW224684   0.742   4.412   3.334 -0.5752 -1.4387 -0.7213
 7929SOL     OW24685   6.051   6.256   1.655  0.2835  0.4750  0.3770
 7929SOL    HW124686   6.012   6.166   1.638 -0.0641  0.8425 -0.8867
 7929SOL    HW224687   6.143   6.246   1.693  0.6136 -0.4349 -0.5977
 7930SOL     OW24688   5.258   1.388   3.877  0.6751 -0.4545 -0.0587
 7930SOL    HW124689   5.176   1.390   3.821 -0.1389  0.2777  1.1223
 7930SOL    HW224690   5.308   1.474   3.865  1.2139 -0.8396 -0.6626
 7931SOL     OW24691   2.130   5.437   0.035  0.6188  0.9055 -0.0427
 7931SOL    HW124692   2.103   5.504   0.105  0.5154  1.9432 -1.0413
 7931SOL    HW224693   2.080   5.456  -0.050 -1.1626 -1.8796  0.2648
 7932SOL     OW24694   1.139   0.631   6.441 -0.4979 -0.1955 -0.3184
 7932SOL    HW124695   1.150   0.685   6.357  1.5194  0.3454  0.2509
 7932SOL    HW224696   1.092   0.686   6.510  0.5679  0.4704 -0.1067
 7933SOL     OW24697   0.879   3.088   1.023  0.2615  0.3493  0.2610
 7933SOL    HW124698   0.844   3.059   0.933 -2.0964  0.2874  1.1285
 7933SOL    HW224699   0.975   3.116   1.014 -0.2399  1.5184 -2.5235
 7934SOL     OW24700   6.977   1.368   0.799 -0.5835 -0.0449  0.1175
 7934SOL    HW124701   6.939   1.308   0.869  0.4853  0.9698  1.6296
 7934SOL    HW224702   6.962   1.463   0.825 -1.4914  0.3856 -1.8054
 7935SOL     OW24703   1.474   1.594   5.286 -0.4381 -0.8617  0.1442
 7935SOL    HW124704   1.534   1.547   5.351  2.6586  0.7932 -1.2492
 7935SOL    HW224705   1.393   1.629   5.334  0.3563 -2.0218  2.4984
 7936SOL     OW24706   5.834   6.000   6.841 -0.6846  0.4013 -0.3056
 7936SOL    HW124707   5.789   6.086   6.867  1.2104  1.1287  0.7676
 7936SOL    HW224708   5.829   5.936   6.917  0.5503  0.7088  0.0580
 7937SOL     OW24709   5.036   3.352   6.849 -0.1149 -0.0911 -0.0663
 7937SOL    HW124710   5.091   3.387   6.925  0.2758  0.9005 -0.7838
 7937SOL    HW224711   5.038   3.418   6.773 -2.7297  0.2846  0.0777
 7938SOL     OW24712   1.792   3.172   1.142  0.5953 -0.3119 -0.1078
 7938SOL    HW124713   1.810   3.208   1.234 -0.5842 -0.7855  0.3205
 7938SOL    HW224714   1.785   3.248   1.078 -0.2590  0.1343  0.5031
 7939SOL     OW24715   1.593   5.574   3.826 -0.5941 -1.0560 -0.1487
 7939SOL    HW124716   1.592   5.523   3.741  0.1633  1.5122 -1.8068
 7939SOL    HW224717   1.685   5.574   3.864 -0.4702 -0.5053 -0.4405
 7940SOL     OW24718   5.864   5.387   3.525 -0.0935 -0.2245 -0.6174
 7940SOL    HW124719   5.927   5.321   3.566 -0.0934  0.7481  1.0034
 7940SOL    HW224720   5.915   5.466   3.492 -0.3273 -0.0493 -0.5612
 7941SOL     OW24721   1.730   2.180   1.587 -0.3335  0.5929  0.5699
 7941SOL    HW124722   1.651   2.197   1.645 -0.3834  1.7108  0.1987
 7941SOL    HW224723   1.736   2.251   1.517 -0.1454 -0.5929 -0.6650
 7942SOL     OW24724   1.568   1.340   0.629  0.3641 -0.1246 -0.0437
 7942SOL    HW124725   1.613   1.409   0.685 -1.1465  1.1221 -0.2979
 7942SOL    HW224726   1.620   1.254   0.633  2.4732  1.0930  0.0045
 7943SOL     OW24727   5.774   0.224   3.819  0.3407  0.1525 -0.0087
 7943SOL    HW124728   5.788   0.312   3.775 -1.9550  0.4942 -0.1918
 7943SOL    HW224729   5.720   0.237   3.902  1.1173 -0.9555  0.6984
 7944SOL     OW24730   6.356   0.490   1.819  0.1483 -0.1786 -0.4302
 7944SOL    HW124731   6.371   0.458   1.913  0.4830 -1.6932 -0.9615
 7944SOL    HW224732   6.441   0.529   1.783  0.1155  0.0859 -0.2235
 7945SOL     OW24733   0.176   5.392   2.216 -0.3341 -0.0291  0.0014
 7945SOL    HW124734   0.088   5.427   2.185 -0.3905  0.2493  0.4614
 7945SOL    HW224735   0.192   5.422   2.311  0.4374  0.2686 -0.2162
 7946SOL     OW24736   2.374   2.336   4.418 -0.3345 -0.5037 -0.0353
 7946SOL    HW124737   2.331   2.388   4.492  0.5569  0.3462 -0.0897
 7946SOL    HW224738   2.305   2.285   4.368 -1.2789  0.7921 -0.1009
 7947SOL     OW24739   5.931   6.280   0.852 -0.4157 -0.1926  0.2390
 7947SOL    HW124740   5.932   6.379   0.866  0.6295 -0.2646  0.7867
 7947SOL    HW224741   5.970   6.235   0.932  0.5825 -0.9480 -0.6376
 7948SOL     OW24742   3.132   0.660   4.741 -0.8535  0.0317  0.5229
 7948SOL    HW124743   3.136   0.565   4.773  0.4689  0.9496  3.4691
 7948SOL    HW224744   3.061   0.709   4.792 -0.1998  1.0530  0.4909
 7949SOL     OW24745   4.141   1.266   2.949  0.1418  0.6325 -0.1856
 7949SOL    HW124746   4.084   1.272   2.867 -0.9073  0.8145  0.5442
 7949SOL    HW224747   4.149   1.357   2.990  1.0460  0.6278 -0.3259
 7950SOL     OW24748   6.687   2.501   5.412  0.2999  0.1129  0.2415
 7950SOL    HW124749   6.709   2.429   5.478 -1.4444 -1.8127 -1.1178
 7950SOL    HW224750   6.765   2.517   5.352  1.4131  0.8879  1.8283
 7951SOL     OW24751   2.146   3.630   0.255 -0.0261  0.6012  0.4017
 7951SOL    HW124752   2.204   3.694   0.305  0.8932  0.0709  0.0568
 7951SOL    HW224753   2.084   3.681   0.196  0.2811  1.1870  0.5706
 7952SOL     OW24754   5.588   0.281   5.775 -0.3923 -0.1214  0.0329
 7952SOL    HW124755   5.543   0.236   5.698  2.0576 -0.2648 -1.4351
 7952SOL    HW224756   5.656   0.219   5.815  1.5841  1.4586 -0.6970
 7953SOL     OW24757   3.958   2.815   6.286  0.0365  0.1509 -0.5026
 7953SOL    HW124758   3.998   2.728   6.258  0.4102  0.4246 -0.8304
 7953SOL    HW224759   3.918   2.806   6.378  2.6988  0.4068  0.7794
 7954SOL     OW24760   3.924   2.329   5.764  0.0537 -0.4684  0.4677
 7954SOL    HW124761   3.970   2.260   5.708 -0.9253 -1.2127  0.5626
 7954SOL    HW224762   3.991   2.396   5.795  0.7344 -0.4564 -0.9679
 7955SOL     OW24763   2.140   0.323   4.322  0.0789  0.0654  0.2992
 7955SOL    HW124764   2.197   0.385   4.376  1.3541  0.0646 -0.9916
 7955SOL    HW224765   2.175   0.230   4.330  0.1579  0.0345 -0.3674
 7956SOL     OW24766   6.580   4.666   2.799 -0.0220 -0.2399 -0.3338
 7956SOL    HW124767   6.545   4.574   2.817 -1.0211  0.1967 -0.0166
 7956SOL    HW224768   6.511   4.734   2.823  0.9618  0.6381  0.1194
 7957SOL     OW24769   1.077   2.156   0.054  0.4502 -0.5581 -0.5672
 7957SOL    HW124770   1.036   2.073   0.093  1.2638 -0.3004  0.8989
 7957SOL    HW224771   1.153   2.130  -0.006  0.7189 -0.8715 -0.0947
 7958SOL     OW24772   0.584   1.195   2.557  0.0591 -0.0401 -0.3360
 7958SOL    HW124773   0.520   1.149   2.618 -0.8236 -0.0517 -1.2426
 7958SOL    HW224774   0.656   1.131   2.529 -1.1457 -0.9020 -1.5715
 7959SOL     OW24775   2.231   6.398   0.395  0.1063 -0.0441 -0.2560
 7959SOL    HW124776   2.225   6.487   0.440  2.2165  0.9375 -1.7660
 7959SOL    HW224777   2.286   6.336   0.452  1.0613  0.5499 -0.5123
 7960SOL     OW24778   5.484   1.749   6.182  0.2693 -0.0152  0.3878
 7960SOL    HW124779   5.533   1.828   6.144  1.3918 -0.6558  0.4349
 7960SOL    HW224780   5.487   1.674   6.117 -1.4218  0.1838  0.0404
 7961SOL     OW24781   0.581   3.258   3.082 -0.3663  0.2255 -0.2120
 7961SOL    HW124782   0.642   3.180   3.096 -0.8316 -0.3139 -1.0980
 7961SOL    HW224783   0.492   3.225   3.051 -0.2811  1.1531 -1.5266
 7962SOL     OW24784   4.336   3.763   6.851  0.1599 -0.3330 -0.4492
 7962SOL    HW124785   4.336   3.851   6.803 -0.1239  0.9889  1.8561
 7962SOL    HW224786   4.418   3.755   6.908 -0.8747 -0.5475  1.0647
 7963SOL     OW24787   1.536   1.616   6.373 -0.1962 -0.4602  0.4047
 7963SOL    HW124788   1.518   1.525   6.410  2.3748 -0.9794  0.5718
 7963SOL    HW224789   1.452   1.669   6.373 -1.4936 -2.3871  1.5428
 7964SOL     OW24790   6.551   1.610   5.385  0.1782  0.2236  0.1471
 7964SOL    HW124791   6.534   1.555   5.303 -0.0632 -1.4956  1.3218
 7964SOL    HW224792   6.488   1.688   5.385 -1.1954 -0.8466 -0.3296
 7965SOL     OW24793   6.506   3.060   3.050  0.2188  0.7350 -0.0147
 7965SOL    HW124794   6.533   3.151   3.083  1.7857  0.3517 -0.1436
 7965SOL    HW224795   6.577   3.025   2.989 -1.0788  0.0401 -1.1802
 7966SOL     OW24796   3.125   0.820   2.137  0.2399  0.2319 -0.0806
 7966SOL    HW124797   3.046   0.854   2.187  1.0008  2.0543 -0.0170
 7966SOL    HW224798   3.119   0.850   2.041  0.7811  0.2936 -0.1002
 7967SOL     OW24799   1.052   3.230   6.335 -0.0489 -0.1423  0.2859
 7967SOL    HW124800   0.987   3.305   6.344 -0.4482 -0.5562  1.0054
 7967SOL    HW224801   1.125   3.255   6.271 -0.5109  0.6116  0.0497
 7968SOL     OW24802   1.079   0.330   3.976 -0.4414 -0.2739 -0.7238
 7968SOL    HW124803   1.016   0.313   3.900  0.0046 -1.0292 -0.9415
 7968SOL    HW224804   1.168   0.289   3.955  0.4060  1.5190 -0.8058
 7969SOL     OW24805   0.118   4.196   0.572  0.1232 -0.6753 -0.0291
 7969SOL    HW124806   0.179   4.167   0.645 -1.1137 -1.6718  0.6355
 7969SOL    HW224807   0.031   4.226   0.610  1.0981  3.5922 -0.6918
 7970SOL     OW24808   1.302   6.546   4.575 -0.0286 -0.1645  0.0227
 7970SOL    HW124809   1.255   6.548   4.664 -2.6621  0.8196 -1.2951
 7970SOL    HW224810   1.329   6.638   4.550 -1.6873  0.0101 -1.3157
 7971SOL     OW24811   0.871   5.359   1.656 -0.9288  0.2228  0.2889
 7971SOL    HW124812   0.842   5.264   1.662  0.0626 -0.0453  1.1376
 7971SOL    HW224813   0.858   5.392   1.563 -0.3076 -1.0696 -0.2856
 7972SOL     OW24814   5.594   1.435   6.557 -0.2085 -0.6090 -0.7251
 7972SOL    HW124815   5.624   1.352   6.604  0.3060  0.5571  1.0963
 7972SOL    HW224816   5.517   1.475   6.606  1.3771  1.5289  0.1658
 7973SOL     OW24817   0.909   3.529   5.301  0.4384  0.3833 -0.1181
 7973SOL    HW124818   0.960   3.604   5.344 -2.3566  1.6322  1.2836
 7973SOL    HW224819   0.813   3.556   5.291  0.2352 -1.2468 -4.0147
 7974SOL     OW24820   4.524   2.363   6.693 -0.0887 -0.1183 -0.5317
 7974SOL    HW124821   4.620   2.384   6.710 -0.1635 -0.7673  0.7502
 7974SOL    HW224822   4.517   2.290   6.625  0.3712 -1.0530  0.4139
 7975SOL     OW24823   3.369   2.598   1.027  0.4416 -0.2426 -0.3404
 7975SOL    HW124824   3.360   2.508   0.985 -2.0331 -0.4086  0.3923
 7975SOL    HW224825   3.368   2.589   1.127 -0.3460  0.5938 -0.2536
 7976SOL     OW24826   2.446   5.331   4.572 -0.5878  0.1277  0.0033
 7976SOL    HW124827   2.397   5.392   4.509 -0.1459 -0.4792 -0.9547
 7976SOL    HW224828   2.424   5.356   4.666  0.3145  2.3818 -0.3172
 7977SOL     OW24829   6.225   5.269   1.406 -0.6399  0.4823 -0.0211
 7977SOL    HW124830   6.214   5.170   1.407  1.5546  0.1608  2.4913
 7977SOL    HW224831   6.175   5.309   1.483  0.3844  1.0305  0.3799
 7978SOL     OW24832   4.012   5.019   0.179 -0.2653 -0.0616 -0.1693
 7978SOL    HW124833   4.044   4.962   0.255 -0.3721  1.0170  0.7278
 7978SOL    HW224834   3.920   4.992   0.152 -0.1770 -0.5416  0.0124
 7979SOL     OW24835   1.585   6.802   2.915 -0.2134  0.0448 -0.4524
 7979SOL    HW124836   1.548   6.721   2.870  1.1954 -0.6805 -0.3718
 7979SOL    HW224837   1.645   6.774   2.990  1.1214  1.1051 -1.0611
 7980SOL     OW24838   2.402   6.175   5.495 -0.3472 -0.7147  0.4222
 7980SOL    HW124839   2.436   6.219   5.578  2.7195  0.8463 -1.5039
 7980SOL    HW224840   2.443   6.085   5.485 -1.4311 -1.2880  1.0197
 7981SOL     OW24841   6.603   2.647   5.689 -0.4680 -0.3611  0.6695
 7981SOL    HW124842   6.695   2.608   5.695  0.4549  1.7988  1.4586
 7981SOL    HW224843   6.578   2.660   5.593  1.9719  3.0907  0.3355
 7982SOL     OW24844   5.820   5.767   7.006  0.5732 -0.0484 -0.1807
 7982SOL    HW124845   5.794   5.763   7.102 -0.0648 -1.4475 -0.3857
 7982SOL    HW224846   5.914   5.736   6.994  1.0818  1.2934  0.1047
 7983SOL     OW24847   1.397   0.085   4.067  0.0304 -0.6402  0.3218
 7983SOL    HW124848   1.456   0.133   4.002 -0.9650 -0.3497 -0.3797
 7983SOL    HW224849   1.450   0.014   4.114  1.6396  1.2607  1.5847
 7984SOL     OW24850   0.579   3.218   5.310  0.5278 -0.5814 -1.0579
 7984SOL    HW124851   0.564   3.120   5.312 -0.8937 -0.3971  1.3319
 7984SOL    HW224852   0.520   3.260   5.240 -0.0798 -1.2696 -0.9665
 7985SOL     OW24853   0.040   2.462   4.889  0.0204 -0.1298  0.4548
 7985SOL    HW124854   0.117   2.410   4.852 -0.2626 -0.5667  0.4737
 7985SOL    HW224855   0.011   2.423   4.976 -1.8296 -1.5637 -0.7202
 7986SOL     OW24856   6.470   6.585   0.219  0.4895  0.1238  0.5405
 7986SOL    HW124857   6.438   6.643   0.295 -0.1799  0.3488  0.1043
 7986SOL    HW224858   6.526   6.640   0.157  0.4385  0.1272  0.4971
 7987SOL     OW24859   0.838   5.392   1.392  0.5108 -0.6016  0.0901
 7987SOL    HW124860   0.853   5.486   1.363  1.4401 -0.9881 -0.7315
 7987SOL    HW224861   0.740   5.374   1.400  0.3297  0.3674  0.0583
 7988SOL     OW24862   6.245   3.041   5.000  0.2349 -0.4699  0.1138
 7988SOL    HW124863   6.227   2.949   4.964 -0.0774 -1.3105  2.2548
 7988SOL    HW224864   6.190   3.055   5.082  0.3803  1.6143 -0.1075
 7989SOL     OW24865   4.855   1.683   4.889  0.2768 -0.2379 -0.0162
 7989SOL    HW124866   4.822   1.706   4.981 -0.1070 -0.8699  0.0119
 7989SOL    HW224867   4.780   1.691   4.823  0.5187  0.0904 -0.2522
 7990SOL     OW24868   2.897   3.656   2.859  0.0137  0.3240 -0.3117
 7990SOL    HW124869   2.840   3.664   2.940  0.2358 -1.7864  0.0992
 7990SOL    HW224870   2.943   3.743   2.842 -0.3576  0.9298  1.5706
 7991SOL     OW24871   1.896   1.502   6.922 -0.0783  0.0474 -0.0907
 7991SOL    HW124872   1.886   1.600   6.905  1.7999 -0.0010 -1.8242
 7991SOL    HW224873   1.988   1.482   6.955  0.1834 -1.3254 -1.5343
 7992SOL     OW24874   2.600   3.075   1.182  0.7327  0.0565  0.8704
 7992SOL    HW124875   2.582   3.011   1.257  1.7301 -0.5058  0.6432
 7992SOL    HW224876   2.515   3.121   1.157 -0.3128 -2.0436  0.2687
 7993SOL     OW24877   3.366   6.198   1.516 -0.3220 -0.2920 -0.5028
 7993SOL    HW124878   3.424   6.278   1.532  0.0232 -0.3434 -1.4463
 7993SOL    HW224879   3.318   6.208   1.428 -2.2286  0.0286  0.5168
 7994SOL     OW24880   1.694   4.659   0.701 -0.0708 -0.3362 -0.3963
 7994SOL    HW124881   1.663   4.565   0.714 -1.5839  0.0738 -0.8131
 7994SOL    HW224882   1.760   4.662   0.627  1.2933 -1.2930  0.7391
 7995SOL     OW24883   5.084   2.260   3.654 -0.3836  0.0294  0.5962
 7995SOL    HW124884   5.099   2.357   3.677  1.7270  0.0779 -0.7510
 7995SOL    HW224885   5.171   2.213   3.652 -1.2675 -1.6354 -0.0776
 7996SOL     OW24886   0.702   6.780   3.988 -0.5006 -0.4561  0.0797
 7996SOL    HW124887   0.702   6.826   4.077  2.1226  1.8047 -0.9292
 7996SOL    HW224888   0.615   6.733   3.975 -1.9121  1.1199  2.8240
 7997SOL     OW24889   1.342   6.400   3.128  0.6949  0.0878  0.3326
 7997SOL    HW124890   1.308   6.365   3.215 -0.2441 -0.2766 -0.1656
 7997SOL    HW224891   1.269   6.449   3.080 -0.3418 -3.6018 -2.3067
 7998SOL     OW24892   1.161   6.687   0.578 -0.1249 -0.4477 -0.1616
 7998SOL    HW124893   1.067   6.721   0.590 -0.5342 -2.0551  1.5801
 7998SOL    HW224894   1.192   6.710   0.486 -3.1060 -1.8144 -1.6871
 7999SOL     OW24895   0.840   0.956   3.225  0.6698 -0.5747 -0.1807
 7999SOL    HW124896   0.769   1.008   3.179 -0.9251 -1.2055  1.4694
 7999SOL    HW224897   0.865   1.001   3.310  0.8643 -1.3453  0.1766
 8000SOL     OW24898   6.517   1.381   2.587 -0.0598  0.4973 -0.0321
 8000SOL    HW124899   6.477   1.290   2.586 -1.5345  1.1209 -1.0838
 8000SOL    HW224900   6.538   1.409   2.493  1.3271  0.8593  0.3549
 8001SOL     OW24901   2.567   2.078   2.196  0.2367  0.1435 -0.0379
 8001SOL    HW124902   2.579   1.980   2.210 -1.7953 -0.6055 -2.6784
 8001SOL    HW224903   2.592   2.102   2.103 -3.3424  1.2048 -0.9050
 8002SOL     OW24904   3.760   1.769   2.115 -0.1484 -0.0958  0.4773
 8002SOL    HW124905   3.778   1.833   2.190 -2.3052  0.6864  0.3927
 8002SOL    HW224906   3.738   1.820   2.032  0.9440 -0.9684 -0.3831
 8003SOL     OW24907   6.369   3.222   1.726  0.7943  0.3359 -0.5002
 8003SOL    HW124908   6.424   3.281   1.666  1.9588  0.6082  0.7807
 8003SOL    HW224909   6.298   3.276   1.770 -0.2151  0.0890 -1.7639
 8004SOL     OW24910   6.474   3.463   3.647 -0.1752  0.1219 -0.1795
 8004SOL    HW124911   6.520   3.400   3.585  0.2206  1.4848 -1.3170
 8004SOL    HW224912   6.543   3.520   3.693 -0.5974  3.2487 -3.0317
 8005SOL     OW24913   1.263   4.505   4.856 -0.6028 -0.2127 -0.6441
 8005SOL    HW124914   1.360   4.486   4.837 -0.5476 -0.2716 -0.3165
 8005SOL    HW224915   1.223   4.553   4.778 -0.4892 -0.7992 -1.0707
 8006SOL     OW24916   0.322   5.429   0.485  0.4674  0.9676 -0.3063
 8006SOL    HW124917   0.398   5.402   0.544 -1.4684 -1.9300  1.0730
 8006SOL    HW224918   0.331   5.386   0.395  0.3134  0.3252 -0.0202
 8007SOL     OW24919   0.098   1.469   2.008  0.2011 -0.2551  0.2604
 8007SOL    HW124920   0.125   1.403   2.078 -1.1514  0.6489  1.6950
 8007SOL    HW224921  -0.001   1.466   1.995  0.1181  1.3474  0.2467
 8008SOL     OW24922   0.007   1.834   2.783  0.5329 -0.1128 -0.3482
 8008SOL    HW124923   0.034   1.923   2.745  0.2392 -0.4606 -1.4242
 8008SOL    HW224924  -0.005   1.769   2.708  0.3804 -0.9660  0.4011
 8009SOL     OW24925   6.455   2.662   3.864  0.2238  0.5496 -0.2322
 8009SOL    HW124926   6.545   2.671   3.821  0.3582  0.7235  0.0773
 8009SOL    HW224927   6.427   2.750   3.901  1.3965 -0.1209  2.5413
 8010SOL     OW24928   6.848   4.660   1.694  0.8055  0.1208 -0.1491
 8010SOL    HW124929   6.854   4.679   1.792 -1.0829 -0.1611  0.0586
 8010SOL    HW224930   6.834   4.746   1.645 -2.2726 -0.0299  0.2718
 8011SOL     OW24931   1.852   6.253   0.617 -0.1164 -0.1752  0.4127
 8011SOL    HW124932   1.872   6.240   0.520 -1.1793 -1.1551  0.3064
 8011SOL    HW224933   1.909   6.327   0.653 -1.2159  1.7182 -1.4742
 8012SOL     OW24934   1.314   6.801   6.364 -0.2253 -0.7826 -0.2724
 8012SOL    HW124935   1.215   6.784   6.363 -0.8537  1.9527  2.0917
 8012SOL    HW224936   1.359   6.731   6.419 -1.0020 -1.3999 -0.3946
 8013SOL     OW24937   2.123   5.578   1.169  0.0890 -0.4376  0.0648
 8013SOL    HW124938   2.219   5.599   1.186  0.7683 -0.5432 -2.9563
 8013SOL    HW224939   2.114   5.484   1.137 -1.0023 -0.4246  0.2951
 8014SOL     OW24940   3.598   0.749   3.027 -1.0321 -0.1824  0.1944
 8014SOL    HW124941   3.530   0.696   3.078 -0.9187  1.1332  1.7959
 8014SOL    HW224942   3.670   0.780   3.090 -0.0191  0.1684 -1.0856
 8015SOL     OW24943   0.381   5.337   5.761 -0.3252  0.4572  0.9467
 8015SOL    HW124944   0.433   5.400   5.703  0.1114 -0.1371  0.6854
 8015SOL    HW224945   0.377   5.374   5.854  1.0829  0.2440  1.1162
 8016SOL     OW24946   0.590   1.703   5.626 -0.2934  0.3372  0.0390
 8016SOL    HW124947   0.569   1.679   5.721  0.6824  0.0603  0.1856
 8016SOL    HW224948   0.678   1.665   5.599 -0.0141  1.3817 -0.6138
 8017SOL     OW24949   5.452   4.614   0.221  0.6422  0.5874  0.0400
 8017SOL    HW124950   5.511   4.562   0.283  0.7874  1.0249  0.2774
 8017SOL    HW224951   5.356   4.603   0.249  0.5193 -0.7259 -0.7909
 8018SOL     OW24952   0.857   4.352   1.547 -0.4333  0.1709 -0.2889
 8018SOL    HW124953   0.941   4.383   1.502 -0.6424  1.2748  0.0570
 8018SOL    HW224954   0.801   4.301   1.482  0.4162 -0.4158 -0.5728
 8019SOL     OW24955   0.053   6.792   6.222  0.4800  0.4211  0.8343
 8019SOL    HW124956   0.110   6.734   6.164 -2.2102 -1.2946 -0.2807
 8019SOL    HW224957   0.079   6.888   6.210  2.7617 -0.2295  0.0869
 8020SOL     OW24958   5.061   2.536   3.628  0.5627 -0.0765 -0.2181
 8020SOL    HW124959   5.104   2.626   3.619  0.4224  0.4142  2.8278
 8020SOL    HW224960   4.979   2.532   3.572  0.1142  2.0409  0.2072
 8021SOL     OW24961   1.921   4.952   1.698 -0.0504 -0.1416 -0.5188
 8021SOL    HW124962   1.881   4.902   1.775 -0.9444  1.4277  0.0775
 8021SOL    HW224963   1.852   4.968   1.628 -0.4382  2.1664  0.3044
 8022SOL     OW24964   3.929   5.638   1.983  0.0495  0.1767 -0.1424
 8022SOL    HW124965   3.949   5.650   2.081  2.0894  0.3384 -0.5371
 8022SOL    HW224966   3.928   5.541   1.961 -1.9529  0.0605  0.2960
 8023SOL     OW24967   4.761   2.710   2.446  0.4105 -0.2024  0.1438
 8023SOL    HW124968   4.854   2.679   2.466 -0.2540 -3.0043 -0.5674
 8023SOL    HW224969   4.756   2.740   2.351  0.5331 -0.3503  0.0896
 8024SOL     OW24970   4.541   5.201   3.722 -0.1202  0.4099  0.0300
 8024SOL    HW124971   4.508   5.287   3.683  2.6207  0.6265 -2.1395
 8024SOL    HW224972   4.476   5.127   3.700 -2.1357  1.7133  1.2804
 8025SOL     OW24973   2.271   5.169   6.285 -0.1526  0.0205  0.1230
 8025SOL    HW124974   2.245   5.096   6.221 -0.3405 -0.2396  0.4947
 8025SOL    HW224975   2.255   5.258   6.242 -1.1156 -0.1396  0.1298
 8026SOL     OW24976   2.914   0.026   0.112 -0.1354 -0.2921  0.2473
 8026SOL    HW124977   2.944  -0.064   0.143 -1.6651 -0.3972  1.5680
 8026SOL    HW224978   2.884   0.021   0.017 -0.7862 -1.3376  0.4958
 8027SOL     OW24979   5.989   6.763   5.687 -0.2856 -0.3159 -0.1920
 8027SOL    HW124980   5.891   6.748   5.700 -0.3077 -1.8044 -1.7272
 8027SOL    HW224981   6.003   6.830   5.615 -0.1474  1.0194  1.0411
 8028SOL     OW24982   1.897   4.397   6.361  0.3266  0.3147 -0.1525
 8028SOL    HW124983   1.839   4.333   6.411  1.4093 -0.3980  0.2177
 8028SOL    HW224984   1.905   4.482   6.413 -1.2960  0.8722 -0.7512
 8029SOL     OW24985   5.347   1.569   0.102  0.4320  0.2509 -0.0319
 8029SOL    HW124986   5.425   1.510   0.122  0.0585  0.2659  1.6565
 8029SOL    HW224987   5.267   1.538   0.154 -1.2532 -0.8273 -3.0288
 8030SOL     OW24988   0.285   1.480   1.140 -0.2534  0.3846 -0.2181
 8030SOL    HW124989   0.291   1.466   1.041 -1.2869  0.2442 -0.2713
 8030SOL    HW224990   0.368   1.525   1.172 -0.6416  2.0574 -1.4261
 8031SOL     OW24991   6.258   5.068   2.749  0.0794 -0.3422  0.2839
 8031SOL    HW124992   6.225   5.161   2.732  1.3769 -0.1143 -1.2094
 8031SOL    HW224993   6.278   5.024   2.662  2.3567 -0.9358  1.0610
 8032SOL     OW24994   3.863   2.732   0.255 -0.4097  0.4253  0.6713
 8032SOL    HW124995   3.939   2.746   0.318  0.6614 -0.9501 -0.2451
 8032SOL    HW224996   3.776   2.738   0.305  0.3613  0.4952  2.0393
 8033SOL     OW24997   3.884   1.022   4.579 -0.1718  0.0287 -0.3659
 8033SOL    HW124998   3.905   0.924   4.577  0.4493  0.1573 -0.4819
 8033SOL    HW224999   3.848   1.050   4.490 -1.8787 -0.4009  0.1474
 8034SOL     OW25000   4.810   0.293   5.768 -0.2700  0.2995  1.0664
 8034SOL    HW125001   4.836   0.233   5.692  1.7167 -0.5967  2.3851
 8034SOL    HW225002   4.803   0.387   5.735 -2.1488 -0.4000 -0.7624
 8035SOL     OW25003   0.040   4.928   0.237  0.5503 -0.8902 -0.2108
 8035SOL    HW125004   0.078   4.879   0.315  2.9032  1.5627  0.3454
 8035SOL    HW225005  -0.037   4.984   0.268  1.2066 -0.2492  0.3141
 8036SOL     OW25006   3.582   4.162   6.588  0.0038  0.0245 -0.2521
 8036SOL    HW125007   3.562   4.095   6.517 -0.8899 -1.1658  1.0595
 8036SOL    HW225008   3.675   4.149   6.622 -0.2877 -0.8230  0.2491
 8037SOL     OW25009   3.907   0.664   4.568 -0.1357 -0.3442 -0.1700
 8037SOL    HW125010   3.991   0.706   4.533  0.0515 -0.9163 -0.4282
 8037SOL    HW225011   3.926   0.616   4.653  0.2958 -2.2395 -1.2689
 8038SOL     OW25012   2.076   1.770   5.387  0.0725 -0.1554  0.0232
 8038SOL    HW125013   2.164   1.725   5.374 -1.1989 -2.2777 -2.0777
 8038SOL    HW225014   2.090   1.857   5.435  3.1921 -0.6495  0.2455
 8039SOL     OW25015   0.297   1.617   2.126  0.0219  0.8147  0.4260
 8039SOL    HW125016   0.300   1.690   2.057  1.2368 -0.1811 -0.6513
 8039SOL    HW225017   0.220   1.556   2.106 -0.8181  1.6209  1.1526
 8040SOL     OW25018   3.299   0.612   6.280 -0.4078  0.0351  0.2258
 8040SOL    HW125019   3.277   0.643   6.372 -0.2217  0.4827  0.1197
 8040SOL    HW225020   3.289   0.688   6.216  1.0289  0.1637  0.1108
 8041SOL     OW25021   4.114   3.985   5.958  0.6643 -0.2905  1.3213
 8041SOL    HW125022   4.197   3.994   5.903  0.0742 -1.3575  0.1797
 8041SOL    HW225023   4.133   3.927   6.037  1.1409 -0.0990  1.3494
 8042SOL     OW25024   3.039   3.174   0.429  0.1795  0.2088 -0.1392
 8042SOL    HW125025   2.960   3.235   0.434 -0.3086 -0.4567  0.5290
 8042SOL    HW225026   3.031   3.104   0.500  1.3688  0.1263 -0.0770
 8043SOL     OW25027   0.768   1.097   2.363 -0.0189 -0.1394  0.3834
 8043SOL    HW125028   0.746   1.179   2.309 -0.7681 -0.0773  0.7753
 8043SOL    HW225029   0.788   1.021   2.301  0.6346  0.3174  0.0165
 8044SOL     OW25030   2.458   2.044   1.435  0.3285 -0.1186 -0.3182
 8044SOL    HW125031   2.359   2.032   1.428  0.1979  0.5406  0.3103
 8044SOL    HW225032   2.498   1.963   1.478  0.4268 -1.5808 -2.9312
 8045SOL     OW25033   5.085   4.639   2.878  0.1700 -0.4906  0.0681
 8045SOL    HW125034   5.161   4.580   2.852  0.4894  0.0552 -0.2642
 8045SOL    HW225035   5.100   4.673   2.971  2.1884  2.4005 -1.1487
 8046SOL     OW25036   1.793   3.452   2.282 -0.8761  0.5125 -0.8398
 8046SOL    HW125037   1.732   3.393   2.228 -1.3317  0.2166 -0.0147
 8046SOL    HW225038   1.867   3.396   2.320  0.6928  1.0744 -2.8875
 8047SOL     OW25039   1.108   0.950   4.362  0.1286  0.0045 -0.1154
 8047SOL    HW125040   1.142   1.006   4.437 -0.3674  1.0179 -0.6162
 8047SOL    HW225041   1.158   0.863   4.359  1.9974  1.0196 -0.2223
 8048SOL     OW25042   1.972   2.794   3.857  0.9293 -0.4880  0.1201
 8048SOL    HW125043   1.938   2.752   3.941  1.0601 -1.4923 -0.3140
 8048SOL    HW225044   1.991   2.723   3.789 -0.0152  0.3399 -1.0766
 8049SOL     OW25045   0.152   6.256   5.450  0.1388  0.0448 -0.0437
 8049SOL    HW125046   0.188   6.165   5.428 -0.0785  0.0730 -0.5191
 8049SOL    HW225047   0.080   6.248   5.518 -0.1403 -0.1775 -0.3614
 8050SOL     OW25048   6.413   0.680   2.145 -0.2969  0.3446 -0.4262
 8050SOL    HW125049   6.351   0.726   2.082  2.0710  2.3718 -1.4499
 8050SOL    HW225050   6.421   0.733   2.229  2.4398  2.0449 -1.6094
 8051SOL     OW25051   5.197   0.247   2.957  0.3480 -0.2899 -0.1223
 8051SOL    HW125052   5.271   0.238   3.023 -1.3391  0.2056  1.9596
 8051SOL    HW225053   5.114   0.277   3.004 -1.1658 -0.6919 -2.3649
 8052SOL     OW25054   2.604   1.814   6.587  0.1000 -0.0453 -0.2500
 8052SOL    HW125055   2.572   1.869   6.510 -0.5155 -0.1582 -0.0780
 8052SOL    HW225056   2.587   1.717   6.569 -2.2773  0.0560  1.0107
 8053SOL     OW25057   3.042   3.166   3.568  0.0137 -0.3301  0.4803
 8053SOL    HW125058   3.023   3.120   3.655 -0.5391 -1.5314 -0.2545
 8053SOL    HW225059   3.003   3.258   3.570 -0.3563 -0.4953  1.3456
 8054SOL     OW25060   6.580   6.758   5.738  0.1792  0.0884  0.4468
 8054SOL    HW125061   6.624   6.692   5.799  0.2694  0.5388  0.8768
 8054SOL    HW225062   6.483   6.767   5.763 -0.4117 -1.5760 -1.0737
 8055SOL     OW25063   5.070   2.987   5.005 -0.3046  0.1546 -0.3274
 8055SOL    HW125064   5.063   3.036   4.918 -0.2721  0.6944 -0.0320
 8055SOL    HW225065   5.009   3.031   5.072  0.8624  0.7500  0.3765
 8056SOL     OW25066   4.642   4.371   5.897  0.5620  0.3142 -0.2773
 8056SOL    HW125067   4.547   4.345   5.914  0.8628 -1.5037 -1.1715
 8056SOL    HW225068   4.647   4.428   5.815  0.2041  0.8262  0.0489
 8057SOL     OW25069   1.764   1.716   6.249 -0.1555  0.6363 -0.3512
 8057SOL    HW125070   1.846   1.713   6.306  0.0827  0.6563 -0.6883
 8057SOL    HW225071   1.688   1.670   6.296 -0.0523  0.9457  0.1202
 8058SOL     OW25072   6.371   0.144   1.768 -0.0925  0.2171 -0.3472
 8058SOL    HW125073   6.370   0.243   1.780 -0.4327  0.1158  0.5054
 8058SOL    HW225074   6.463   0.115   1.742 -0.1564  0.8266 -1.2934
 8059SOL     OW25075   3.013   3.309   4.526  0.0672 -0.3447 -0.5551
 8059SOL    HW125076   2.981   3.259   4.446  1.4036 -1.4379 -0.4457
 8059SOL    HW225077   3.073   3.251   4.581  0.1895  0.7903  0.5821
 8060SOL     OW25078   3.583   5.665   3.718 -0.4729 -0.3408 -0.0235
 8060SOL    HW125079   3.534   5.581   3.698  0.8018 -0.9630 -0.6571
 8060SOL    HW225080   3.660   5.675   3.655 -0.3710  1.1146  0.2789
 8061SOL     OW25081   6.177   0.076   3.259 -0.4040  0.3941  0.1397
 8061SOL    HW125082   6.276   0.070   3.244 -0.5678 -0.4841 -0.6611
 8061SOL    HW225083   6.158   0.060   3.356  0.4082  3.0525  0.8223
 8062SOL     OW25084   4.905   6.609   1.811  0.0658 -0.2282  0.2395
 8062SOL    HW125085   4.812   6.623   1.775  0.3078  1.5983  0.2306
 8062SOL    HW225086   4.911   6.519   1.853 -1.7065 -0.3942  0.2179
 8063SOL     OW25087   0.375   3.883   0.424 -0.0940 -0.2462 -0.0965
 8063SOL    HW125088   0.429   3.860   0.344 -1.8843 -1.3375 -1.0578
 8063SOL    HW225089   0.424   3.950   0.479  0.8261  1.2245 -2.5464
 8064SOL     OW25090   4.628   4.804   7.017 -0.3989 -0.0523  0.2761
 8064SOL    HW125091   4.586   4.818   7.106  0.0035  0.4694  0.3942
 8064SOL    HW225092   4.720   4.766   7.029 -0.1995  0.3589  0.1136
 8065SOL     OW25093   5.721   2.739   2.598 -0.2631  0.5397 -0.0125
 8065SOL    HW125094   5.806   2.688   2.606 -1.0791 -1.3476 -2.1574
 8065SOL    HW225095   5.725   2.800   2.518 -1.6028 -1.2827 -1.5953
 8066SOL     OW25096   0.934   4.653   6.565 -0.0887  0.1884  0.3911
 8066SOL    HW125097   0.964   4.557   6.562 -0.6295  0.0174  0.3924
 8066SOL    HW225098   0.917   4.679   6.660  0.1841  0.3287  0.4030
 8067SOL     OW25099   1.330   2.821   0.750 -0.0927 -0.3694 -0.5010
 8067SOL    HW125100   1.312   2.902   0.807  1.1470 -0.9860  0.8246
 8067SOL    HW225101   1.420   2.830   0.707  1.7543 -2.5687  2.5752
 8068SOL     OW25102   1.019   3.329   5.147  0.2265  0.5658 -0.5285
 8068SOL    HW125103   0.975   3.399   5.204 -1.4467 -1.0829  0.3060
 8068SOL    HW225104   0.976   3.329   5.056 -2.1324 -1.4519  0.4712
 8069SOL     OW25105   6.078   6.538   5.475 -0.3050 -0.6494 -0.1358
 8069SOL    HW125106   6.035   6.448   5.483 -1.2752 -0.1576  0.4296
 8069SOL    HW225107   6.103   6.571   5.566  0.3022 -0.4626 -0.3672
 8070SOL     OW25108   6.280   4.583   0.661  0.3172 -0.0392  0.1608
 8070SOL    HW125109   6.352   4.601   0.594  0.8057 -2.8118 -0.1667
 8070SOL    HW225110   6.321   4.573   0.752  0.3613 -1.4739 -0.0011
 8071SOL     OW25111   0.493   6.150   6.203 -0.4968  0.1060 -0.0657
 8071SOL    HW125112   0.500   6.243   6.168 -2.1285  0.5510  0.6895
 8071SOL    HW225113   0.459   6.089   6.131 -3.0955  0.8679  0.4186
 8072SOL     OW25114   2.499   2.491   4.977 -0.5032  0.5447  0.3407
 8072SOL    HW125115   2.454   2.565   5.027  0.5940  1.2129  0.3822
 8072SOL    HW225116   2.509   2.412   5.037 -2.8245 -0.1357 -0.0821
 8073SOL     OW25117   4.171   2.732   5.333  0.2608  0.6102 -0.4906
 8073SOL    HW125118   4.165   2.697   5.426  0.4243  3.9863  0.9592
 8073SOL    HW225119   4.163   2.657   5.268 -0.1088 -1.8573  2.1991
 8074SOL     OW25120   2.905   6.106   5.771 -1.1858  0.3022  0.1688
 8074SOL    HW125121   2.867   6.024   5.813  1.2006 -0.5601  0.8231
 8074SOL    HW225122   2.886   6.104   5.672 -0.7941 -1.2964  0.0882
 8075SOL     OW25123   3.273   3.878   3.578  0.2103 -0.1743  0.2447
 8075SOL    HW125124   3.355   3.850   3.627 -0.1795 -0.9552  0.4815
 8075SOL    HW225125   3.282   3.855   3.482 -0.2286 -1.4572  0.4887
 8076SOL     OW25126   2.394   2.628   2.428  0.0243  0.4490 -0.2295
 8076SOL    HW125127   2.333   2.553   2.452 -1.0124  0.9044 -1.3150
 8076SOL    HW225128   2.461   2.597   2.361  0.7022  0.0652  0.6166
 8077SOL     OW25129   0.831   1.964   2.881 -0.4171  0.1694  1.0435
 8077SOL    HW125130   0.883   1.894   2.832 -0.3233  0.4231  0.7748
 8077SOL    HW225131   0.801   1.928   2.969 -2.9457 -1.2795 -0.2879
 8078SOL     OW25132   4.938   2.463   3.091 -0.1563 -0.1922 -0.1344
 8078SOL    HW125133   4.977   2.375   3.062  0.4158  0.3560 -1.0721
 8078SOL    HW225134   5.004   2.512   3.148  0.1797  0.3283 -0.9527
 8079SOL     OW25135   5.846   6.996   6.835 -0.0443 -0.0998 -0.1677
 8079SOL    HW125136   5.824   7.092   6.852 -0.4112  0.0472 -1.3451
 8079SOL    HW225137   5.775   6.955   6.778  1.0959 -0.5184 -1.3427
 8080SOL     OW25138   6.245   6.674   5.708 -0.6020 -0.3489  0.7118
 8080SOL    HW125139   6.147   6.675   5.725 -0.3653  0.4560  2.1677
 8080SOL    HW225140   6.269   6.750   5.648 -0.8920 -0.6674  0.1884
 8081SOL     OW25141   2.355   0.344   1.360 -0.2620 -0.9844 -0.4994
 8081SOL    HW125142   2.339   0.435   1.321 -0.2444 -0.6057  0.3550
 8081SOL    HW225143   2.288   0.280   1.323 -2.0564 -0.0292  0.8988
 8082SOL     OW25144   3.614   1.443   5.245  0.2578 -0.1777 -0.1053
 8082SOL    HW125145   3.646   1.356   5.281 -0.2439 -0.3622 -0.0966
 8082SOL    HW225146   3.625   1.445   5.146  1.4954  0.2702  0.0274
 8083SOL     OW25147   0.972   2.530   2.772 -0.1728 -0.4096  0.0908
 8083SOL    HW125148   0.889   2.585   2.762  0.2992  0.2321 -0.4214
 8083SOL    HW225149   0.948   2.441   2.809 -0.9460  0.1767  1.0538
 8084SOL     OW25150   4.589   3.429   6.537  0.3036 -0.0669 -0.3731
 8084SOL    HW125151   4.612   3.434   6.634 -0.5235  2.7112 -0.2477
 8084SOL    HW225152   4.494   3.400   6.526  0.4419 -0.5258 -0.3696
 8085SOL     OW25153   3.210   5.894   5.739  0.0946  0.0758  0.4613
 8085SOL    HW125154   3.239   5.825   5.673 -0.1932 -0.1073  0.5238
 8085SOL    HW225155   3.110   5.899   5.741  0.1141  1.7423 -0.8445
 8086SOL     OW25156   5.346   6.026   0.972  0.5518 -0.1776 -0.1666
 8086SOL    HW125157   5.249   6.003   0.976  0.1512  1.1840 -1.3518
 8086SOL    HW225158   5.365   6.100   1.037  0.8218 -0.4880  0.1123
 8087SOL     OW25159   2.576   5.953   0.065  0.8707 -0.6109  0.5773
 8087SOL    HW125160   2.632   6.029   0.032 -0.6207  0.1551 -0.2966
 8087SOL    HW225161   2.504   5.932  -0.002 -1.0772 -0.2849  2.4422
 8088SOL     OW25162   4.740   6.217   5.863 -0.3525  0.2663  0.3761
 8088SOL    HW125163   4.770   6.146   5.927 -0.2940  0.5033  0.6146
 8088SOL    HW225164   4.744   6.181   5.770 -0.1974 -0.0008  0.4820
 8089SOL     OW25165   1.422   6.934   2.536  0.2746  0.1583 -0.1225
 8089SOL    HW125166   1.337   6.975   2.502  1.3188  1.3211 -1.4983
 8089SOL    HW225167   1.454   6.866   2.471  1.8827  1.8353 -1.2012
 8090SOL     OW25168   0.020   5.782   5.484 -0.1278 -0.4845  0.2515
 8090SOL    HW125169   0.078   5.863   5.494 -0.9010 -0.1548  2.7382
 8090SOL    HW225170  -0.035   5.791   5.401  2.2210 -0.1226 -1.3670
 8091SOL     OW25171   3.733   3.397   2.129  0.0398  0.2178  0.0047
 8091SOL    HW125172   3.705   3.335   2.202  0.6877  0.6293  0.6208
 8091SOL    HW225173   3.832   3.410   2.132  0.2082 -0.4319 -1.5037
 8092SOL     OW25174   5.147   3.810   5.769  0.2776  0.6650  0.1022
 8092SOL    HW125175   5.193   3.722   5.787  0.7782  1.0511  0.7597
 8092SOL    HW225176   5.194   3.858   5.695  1.4767  1.4245  1.3117
 8093SOL     OW25177   2.274   5.090   0.721 -0.0008 -0.8245  0.0002
 8093SOL    HW125178   2.231   5.180   0.715  3.0285  0.6391 -2.9581
 8093SOL    HW225179   2.217   5.022   0.675 -1.6909 -0.2095  1.0984
 8094SOL     OW25180   5.043   0.012   3.078 -0.0677  0.1289 -0.5876
 8094SOL    HW125181   5.075  -0.002   3.172 -2.8513 -0.2710  0.3895
 8094SOL    HW225182   5.094   0.087   3.036  2.0224 -0.4324  0.8074
 8095SOL     OW25183   6.413   6.921   5.930 -0.5772  0.4110  0.2424
 8095SOL    HW125184   6.362   6.850   5.977 -0.0121  0.5547  1.0941
 8095SOL    HW225185   6.459   6.980   5.997  0.9587  0.0996 -0.4845
 8096SOL     OW25186   2.061   6.844   5.874 -0.0931 -0.4642  0.9249
 8096SOL    HW125187   2.066   6.940   5.846  1.0820 -1.6227 -3.5556
 8096SOL    HW225188   1.977   6.803   5.838  1.7360 -2.1892 -1.6685
 8097SOL     OW25189   0.799   3.668   6.854 -0.8183 -0.1097 -0.3930
 8097SOL    HW125190   0.711   3.641   6.816 -0.5357 -1.0408 -0.4222
 8097SOL    HW225191   0.852   3.586   6.875  0.3835  0.4384 -1.1796
 8098SOL     OW25192   1.719   2.732   3.125  0.3071 -0.6285  0.5043
 8098SOL    HW125193   1.816   2.714   3.107  0.2178 -0.6081 -0.0069
 8098SOL    HW225194   1.667   2.721   3.041  0.2462  2.1240  0.0863
 8099SOL     OW25195   0.733   3.844   2.538 -0.4733  0.1804  0.0680
 8099SOL    HW125196   0.807   3.798   2.588  0.3985  0.6931 -0.7235
 8099SOL    HW225197   0.764   3.867   2.446 -1.7455  0.1072 -0.4004
 8100SOL     OW25198   4.256   3.080   0.123 -0.0184  0.1780 -0.1621
 8100SOL    HW125199   4.240   2.989   0.084 -2.2452  0.7520 -0.7059
 8100SOL    HW225200   4.266   3.072   0.222  1.7920 -0.8407 -0.3722
 8101SOL     OW25201   0.427   6.226   4.685 -0.4123  0.1714  0.3257
 8101SOL    HW125202   0.486   6.162   4.636  1.3550  0.4162  2.0145
 8101SOL    HW225203   0.362   6.267   4.621 -1.2020 -2.7810 -0.9509
 8102SOL     OW25204   4.093   3.530   0.093  0.3207 -0.7647  0.3490
 8102SOL    HW125205   4.070   3.586   0.013  0.1255  0.8671  1.5156
 8102SOL    HW225206   4.185   3.554   0.125 -0.9058  1.1698  2.6841
 8103SOL     OW25207   4.048   1.397   4.652 -0.4567  0.4991  0.0586
 8103SOL    HW125208   4.107   1.423   4.728 -1.2595 -0.7307  1.1432
 8103SOL    HW225209   4.101   1.347   4.584 -0.4873 -2.2121  1.8741
 8104SOL     OW25210   3.684   5.316   1.743 -0.6200  0.1418 -0.4466
 8104SOL    HW125211   3.732   5.403   1.731  0.2611 -0.1349  0.8334
 8104SOL    HW225212   3.742   5.253   1.793 -1.6371 -0.8571 -0.4831
 8105SOL     OW25213   2.520   1.672   2.715 -0.2382 -0.4491  0.2746
 8105SOL    HW125214   2.488   1.579   2.729  0.2622 -0.5949  0.4516
 8105SOL    HW225215   2.618   1.678   2.733  0.2332 -0.3916 -1.9485
 8106SOL     OW25216   6.535   2.319   4.328  0.5308  0.2052  0.8445
 8106SOL    HW125217   6.481   2.381   4.271 -0.2702 -0.1917  1.1609
 8106SOL    HW225218   6.539   2.229   4.285  1.2768  0.3382  0.6303
 8107SOL     OW25219   5.172   5.373   2.618 -0.0745  0.2822  0.2878
 8107SOL    HW125220   5.105   5.349   2.548 -0.4763  0.5957  0.5539
 8107SOL    HW225221   5.209   5.464   2.598  1.3308 -0.4564 -0.6377
 8108SOL     OW25222   2.328   5.127   1.416 -0.2550  0.0377  0.3133
 8108SOL    HW125223   2.252   5.078   1.461 -0.7320  1.4312  1.1082
 8108SOL    HW225224   2.413   5.109   1.466 -0.5079  0.3483  0.8718
 8109SOL     OW25225   4.853   5.586   3.932  0.4677 -0.4824 -0.0738
 8109SOL    HW125226   4.871   5.582   3.833  0.7181  0.1091 -0.0610
 8109SOL    HW225227   4.769   5.637   3.949  0.5621 -0.3550  0.0245
 8110SOL     OW25228   6.232   6.335   4.774  0.2576 -0.7555  0.1979
 8110SOL    HW125229   6.188   6.411   4.822 -0.9308 -0.8455 -0.7087
 8110SOL    HW225230   6.319   6.366   4.737 -0.0803  0.0938  0.0778
 8111SOL     OW25231   0.488   5.085   4.466 -0.1255 -0.2154  0.0550
 8111SOL    HW125232   0.542   5.014   4.420 -0.1008  0.0363 -0.3164
 8111SOL    HW225233   0.422   5.123   4.401 -0.0190  0.2192  0.1958
 8112SOL     OW25234   2.398   6.280   0.575  0.0531  0.3342 -0.0269
 8112SOL    HW125235   2.448   6.194   0.576 -0.5261 -0.1112  3.7859
 8112SOL    HW225236   2.461   6.356   0.591 -0.1034 -0.0659  2.9743
 8113SOL     OW25237   4.153   6.787   1.779 -0.4877  0.4201 -0.2408
 8113SOL    HW125238   4.073   6.796   1.840 -0.7950  1.7260 -0.8108
 8113SOL    HW225239   4.196   6.876   1.767  0.0743  0.0246 -1.2698
 8114SOL     OW25240   3.538   1.362   0.432 -0.3751  0.4476  0.2422
 8114SOL    HW125241   3.608   1.313   0.379 -0.2598  2.2199 -1.3802
 8114SOL    HW225242   3.478   1.412   0.369 -0.2437  2.6888  1.7706
 8115SOL     OW25243   6.149   0.182   5.446 -0.0932 -0.0864 -0.0313
 8115SOL    HW125244   6.097   0.182   5.531  0.1513 -0.4980  0.1244
 8115SOL    HW225245   6.140   0.092   5.401  0.8758 -0.3423  0.2544
 8116SOL     OW25246   3.634   0.958   2.849  0.1693  0.1453 -0.3429
 8116SOL    HW125247   3.586   0.971   2.762 -1.5676  0.7470  0.6419
 8116SOL    HW225248   3.601   0.874   2.893  1.2496 -0.3117 -0.3853
 8117SOL     OW25249   2.302   5.159   1.805 -0.0936 -0.7657  0.6690
 8117SOL    HW125250   2.397   5.190   1.802  0.6734 -3.0002 -0.6819
 8117SOL    HW225251   2.271   5.153   1.900 -0.3165  3.7473  1.1074
 8118SOL     OW25252   6.804   3.648   3.346  0.0679  0.2170 -0.7590
 8118SOL    HW125253   6.726   3.640   3.284  0.1623 -0.7300 -0.7763
 8118SOL    HW225254   6.821   3.744   3.367 -1.3099  0.4140 -0.4911
 8119SOL     OW25255   0.289   0.429   1.096  0.1571 -0.8226 -0.1890
 8119SOL    HW125256   0.338   0.379   1.025 -1.9258  0.3077 -2.5824
 8119SOL    HW225257   0.353   0.480   1.153  1.9864 -2.8039 -0.3766
 8120SOL     OW25258   3.434   2.649   5.458 -0.7653 -0.3164  0.1679
 8120SOL    HW125259   3.339   2.634   5.485 -1.3254 -0.6567 -1.8453
 8120SOL    HW225260   3.457   2.745   5.472 -1.1331 -0.3764  1.3759
 8121SOL     OW25261   4.199   6.794   5.410  0.1101  0.2359  0.4055
 8121SOL    HW125262   4.130   6.775   5.480  0.1058  1.1080  0.6612
 8121SOL    HW225263   4.286   6.754   5.437  0.4521  1.7011  1.6208
 8122SOL     OW25264   6.001   1.387   1.396 -0.1509 -0.1336  0.1687
 8122SOL    HW125265   5.981   1.321   1.469 -1.4346  0.8497  0.7462
 8122SOL    HW225266   5.915   1.422   1.358  0.4309  2.4667  1.0477
 8123SOL     OW25267   5.455   5.925   5.543  1.0349 -0.0641 -0.1316
 8123SOL    HW125268   5.465   5.919   5.643 -0.2227  0.3957  0.0455
 8123SOL    HW225269   5.464   5.834   5.504 -0.5926 -0.6211  0.6638
 8124SOL     OW25270   1.741   3.291   4.325 -0.3963  0.5186 -0.1600
 8124SOL    HW125271   1.806   3.297   4.401 -0.2845  2.1557 -0.3590
 8124SOL    HW225272   1.779   3.232   4.254  0.0421 -0.0285  0.5112
 8125SOL     OW25273   5.886   0.525   2.382  0.0693  0.1672 -0.2114
 8125SOL    HW125274   5.803   0.489   2.424 -0.0203  0.9552  0.3152
 8125SOL    HW225275   5.962   0.515   2.446  0.3832 -0.5237 -0.6807
 8126SOL     OW25276   0.559   4.583   6.928 -0.0905 -1.0986  0.1624
 8126SOL    HW125277   0.470   4.602   6.968 -0.5212 -2.2958 -0.1724
 8126SOL    HW225278   0.607   4.514   6.983  0.9679  0.0815  0.7678
 8127SOL     OW25279   1.153   4.332   2.601 -0.9393 -0.4110 -0.0039
 8127SOL    HW125280   1.083   4.268   2.632  0.0334 -1.7197 -0.4108
 8127SOL    HW225281   1.220   4.346   2.675 -0.5639 -0.7150 -0.2857
 8128SOL     OW25282   1.898   1.390   0.397 -0.3598 -0.3416  0.4550
 8128SOL    HW125283   1.855   1.316   0.345  0.7607 -2.3436  2.2092
 8128SOL    HW225284   1.836   1.468   0.402 -1.5636 -1.1034 -1.5339
 8129SOL     OW25285   6.897   5.759   2.254  0.1829  0.0664 -0.2658
 8129SOL    HW125286   6.957   5.688   2.217  4.1959  1.4638  2.7714
 8129SOL    HW225287   6.914   5.845   2.206 -0.4415  0.1848 -0.2799
 8130SOL     OW25288   6.450   5.329   5.651 -0.7802 -0.5203 -0.5023
 8130SOL    HW125289   6.437   5.255   5.717  0.4419 -1.1270 -0.9069
 8130SOL    HW225290   6.374   5.330   5.586  0.1187 -2.7482 -1.7182
 8131SOL     OW25291   3.122   2.737   0.443  0.3827  0.6711 -0.7626
 8131SOL    HW125292   3.075   2.748   0.531  1.2649 -1.3756  0.0357
 8131SOL    HW225293   3.073   2.671   0.387  2.4911 -2.0499  0.3658
 8132SOL     OW25294   2.794   6.064   5.241  0.4605  0.4380  0.1037
 8132SOL    HW125295   2.858   6.061   5.318  1.9760 -0.0360 -1.1240
 8132SOL    HW225296   2.761   6.158   5.229 -0.1127  0.4395  1.5675
 8133SOL     OW25297   5.919   4.873   1.907  0.3136 -0.2103  0.1652
 8133SOL    HW125298   5.823   4.879   1.934  0.1217 -0.9261 -0.3196
 8133SOL    HW225299   5.955   4.783   1.932  0.7524 -0.0795  0.0183
 8134SOL     OW25300   3.886   3.851   3.464  0.1781 -0.1837  0.1156
 8134SOL    HW125301   3.904   3.864   3.366  1.8749 -1.2860  0.2506
 8134SOL    HW225302   3.837   3.931   3.499  1.1744  1.0973 -1.2518
 8135SOL     OW25303   3.787   1.298   3.013  0.1957 -0.8687 -0.2019
 8135SOL    HW125304   3.846   1.376   3.033 -0.6213  0.0957 -1.3629
 8135SOL    HW225305   3.772   1.245   3.096  0.8976  0.1151  0.5836
 8136SOL     OW25306   0.222   6.859   2.496 -0.5038  0.6236  0.4380
 8136SOL    HW125307   0.198   6.949   2.459 -0.8407  0.7021  0.8355
 8136SOL    HW225308   0.142   6.820   2.543 -0.0869  0.5329  1.0865
 8137SOL     OW25309   0.764   5.389   4.807  0.6635  0.7588  0.2321
 8137SOL    HW125310   0.694   5.345   4.750  1.3677 -0.4889  0.3087
 8137SOL    HW225311   0.732   5.480   4.834 -0.6966  0.4278 -0.1839
 8138SOL     OW25312   4.428   1.750   1.330 -0.0711 -0.0931  0.2111
 8138SOL    HW125313   4.456   1.710   1.417  2.3273 -2.2133 -1.3811
 8138SOL    HW225314   4.331   1.773   1.333  0.1005  0.7673  3.6670
 8139SOL     OW25315   5.481   0.251   0.525 -0.7122  0.5657  0.4097
 8139SOL    HW125316   5.575   0.285   0.520  0.2361 -1.8899  0.6512
 8139SOL    HW225317   5.419   0.329   0.535  1.3146  2.2056  0.9622
 8140SOL     OW25318   6.801   6.320   5.027 -0.1772  0.7143  0.4717
 8140SOL    HW125319   6.820   6.325   4.929  0.9995  0.1945  0.6502
 8140SOL    HW225320   6.887   6.322   5.077 -0.7692  1.0007  1.5072
 8141SOL     OW25321   1.511   5.670   5.257  0.3279  0.0700 -0.0401
 8141SOL    HW125322   1.588   5.641   5.315  0.0216  0.0023  0.3339
 8141SOL    HW225323   1.425   5.638   5.297  0.1443 -0.3910 -0.7841
 8142SOL     OW25324   0.817   3.339   4.267 -0.1572 -0.0127  0.3235
 8142SOL    HW125325   0.800   3.434   4.241  1.3169  0.0735 -0.4349
 8142SOL    HW225326   0.777   3.278   4.199  0.2292  0.1087 -0.0137
 8143SOL     OW25327   6.348   1.400   6.480  0.7270 -0.0173 -0.5127
 8143SOL    HW125328   6.340   1.428   6.384  1.6730  1.0386 -0.3116
 8143SOL    HW225329   6.267   1.349   6.507 -0.2510  0.9809 -1.4524
 8144SOL     OW25330   6.889   5.387   0.518  0.4853  0.1084 -0.0583
 8144SOL    HW125331   6.812   5.361   0.577 -0.1281  1.2279 -0.3452
 8144SOL    HW225332   6.975   5.355   0.560 -0.1311 -1.3931  0.1292
 8145SOL     OW25333   1.342   0.748   4.614  0.1214  0.3007  0.2528
 8145SOL    HW125334   1.321   0.660   4.657 -0.4500  1.3170  2.1162
 8145SOL    HW225335   1.305   0.749   4.521  1.2815 -1.8996 -0.3014
 8146SOL     OW25336   5.663   3.804   1.636 -0.1405 -0.6601  0.4543
 8146SOL    HW125337   5.667   3.901   1.613  1.5343 -1.0427 -1.1166
 8146SOL    HW225338   5.568   3.773   1.631 -0.5305  0.5801 -0.4955
 8147SOL     OW25339   1.483   2.481   2.211  0.2188 -0.0945 -0.1670
 8147SOL    HW125340   1.574   2.440   2.215  0.9140  1.4049  0.4646
 8147SOL    HW225341   1.483   2.556   2.145 -0.9272 -0.8555 -1.0712
 8148SOL     OW25342   1.121   6.826   4.454 -0.5688  0.5481  0.3863
 8148SOL    HW125343   1.069   6.908   4.475  0.8395  1.7159 -0.4411
 8148SOL    HW225344   1.218   6.841   4.476 -0.4187 -1.2587  1.1423
 8149SOL     OW25345   4.137   3.166   0.548  0.0637 -0.0378 -0.0013
 8149SOL    HW125346   4.148   3.154   0.646  0.0943  3.1529  0.4915
 8149SOL    HW225347   4.141   3.263   0.525 -4.1840 -0.2171 -2.6309
 8150SOL     OW25348   5.308   5.168   6.814 -0.2155 -1.0803 -0.2098
 8150SOL    HW125349   5.315   5.234   6.889 -1.5862 -0.3354 -0.7008
 8150SOL    HW225350   5.214   5.134   6.808  0.4414 -3.0397 -0.0313
 8151SOL     OW25351   0.724   2.558   1.299 -0.0813  0.0541  0.5693
 8151SOL    HW125352   0.749   2.651   1.270  2.2228 -0.4540  0.7229
 8151SOL    HW225353   0.805   2.499   1.295 -0.9337 -1.3792  2.7136
 8152SOL     OW25354   1.930   5.692   6.532  0.0219  0.0623  0.2700
 8152SOL    HW125355   1.832   5.691   6.552 -0.0085 -0.3366  0.1203
 8152SOL    HW225356   1.945   5.659   6.439  0.2453  0.8322  0.0239
 8153SOL     OW25357   2.497   1.824   2.492  0.2737  0.3023  0.1170
 8153SOL    HW125358   2.506   1.758   2.568  1.9608  0.5128  0.1268
 8153SOL    HW225359   2.401   1.849   2.482 -0.1824 -0.8642  1.2226
 8154SOL     OW25360   0.828   2.352   0.021  0.2939 -0.1672  0.1222
 8154SOL    HW125361   0.897   2.279   0.023  1.4139  0.8160 -0.8751
 8154SOL    HW225362   0.822   2.389  -0.072 -3.0972 -1.5840 -0.3635
 8155SOL     OW25363   5.507   3.229   3.306  0.1860  0.3283 -0.1102
 8155SOL    HW125364   5.410   3.252   3.315  0.8073  3.3389  0.0870
 8155SOL    HW225365   5.529   3.151   3.364 -1.8806  0.3048  0.7016
 8156SOL     OW25366   3.505   3.654   0.902  0.1089  0.6988  0.5663
 8156SOL    HW125367   3.419   3.631   0.946 -0.6657 -1.2340 -1.7245
 8156SOL    HW225368   3.487   3.706   0.819  1.1350  0.2944  0.0721
 8157SOL     OW25369   0.570   4.491   4.068 -0.1020  0.4827 -0.1805
 8157SOL    HW125370   0.564   4.409   4.011  1.6522  1.6644 -2.1749
 8157SOL    HW225371   0.478   4.516   4.100 -0.6222 -2.5689  1.0641
 8158SOL     OW25372   3.262   2.996   6.359 -0.1061  0.1555  0.2831
 8158SOL    HW125373   3.208   3.016   6.441  0.8976  0.9704  0.7819
 8158SOL    HW225374   3.348   3.048   6.363 -0.3890  0.8607 -1.6814
 8159SOL     OW25375   0.816   6.270   2.276  0.0185  0.5647 -0.3490
 8159SOL    HW125376   0.903   6.301   2.315  0.9880 -1.3739 -0.8694
 8159SOL    HW225377   0.833   6.202   2.205 -1.9148  0.6933 -1.0013
 8160SOL     OW25378   3.991   6.404   3.499  0.1232  0.3153  0.2431
 8160SOL    HW125379   3.951   6.318   3.529  0.1330  0.3732  0.4263
 8160SOL    HW225380   3.924   6.478   3.510 -0.4346  0.0976 -1.3561
 8161SOL     OW25381   4.444   1.863   4.018  0.6753 -0.7671  0.0149
 8161SOL    HW125382   4.529   1.895   4.059  1.4511 -2.9661  0.2736
 8161SOL    HW225383   4.439   1.763   4.025 -1.3461 -0.8082 -1.1312
 8162SOL     OW25384   1.780   2.142   0.888 -0.1681  0.1663 -0.5099
 8162SOL    HW125385   1.839   2.062   0.897 -2.2190 -1.4755 -0.9281
 8162SOL    HW225386   1.812   2.199   0.813  1.9363  0.3494  0.4596
 8163SOL     OW25387   3.859   0.701   3.218 -0.2014 -0.1454 -0.2598
 8163SOL    HW125388   3.842   0.633   3.289 -0.2450  0.2253  0.0867
 8163SOL    HW225389   3.875   0.654   3.131 -0.2186 -0.5984 -0.0245
 8164SOL     OW25390   2.816   2.767   1.396 -0.4943 -0.4545 -0.6150
 8164SOL    HW125391   2.826   2.828   1.474 -0.5694  2.0942 -2.4581
 8164SOL    HW225392   2.894   2.705   1.392 -0.4423 -0.5821  1.3762
 8165SOL     OW25393   4.342   0.718   2.791  0.1818 -0.2459 -0.1573
 8165SOL    HW125394   4.422   0.661   2.811 -0.2032  0.3113  4.0622
 8165SOL    HW225395   4.365   0.814   2.803 -0.5962  0.0973 -1.2378
 8166SOL     OW25396   3.739   3.171   0.477  0.2845 -0.6797  0.0653
 8166SOL    HW125397   3.665   3.178   0.410  0.4130 -0.2333 -0.0345
 8166SOL    HW225398   3.825   3.149   0.430  0.5295  0.4097 -0.0198
 8167SOL     OW25399   3.318   3.354   5.450  0.5300  0.5904 -0.3284
 8167SOL    HW125400   3.243   3.403   5.406 -0.6431 -1.4314 -0.6789
 8167SOL    HW225401   3.285   3.267   5.485  2.2303  0.6177  1.5214
 8168SOL     OW25402   3.796   0.142   6.411  0.5813  0.1235 -0.1135
 8168SOL    HW125403   3.746   0.195   6.480  1.6711 -0.8224  1.4845
 8168SOL    HW225404   3.737   0.127   6.331 -1.0030  0.6410  0.9080
 8169SOL     OW25405   6.106   0.020   3.511 -0.3337 -0.6458 -0.6471
 8169SOL    HW125406   6.148   0.012   3.601 -1.5155 -2.7565 -0.2098
 8169SOL    HW225407   6.008   0.042   3.522  0.0809  2.1069 -1.5676
 8170SOL     OW25408   0.287   0.501   4.007 -0.2739 -0.0840  0.3837
 8170SOL    HW125409   0.210   0.509   4.070 -1.5514  0.8069 -1.2044
 8170SOL    HW225410   0.370   0.537   4.050 -1.1539  0.7152  1.4581
 8171SOL     OW25411   1.471   1.767   4.138 -0.2088 -0.5586  0.5383
 8171SOL    HW125412   1.558   1.726   4.166 -0.2308  0.3183  1.9800
 8171SOL    HW225413   1.398   1.699   4.146  0.2265 -1.1266 -0.1172
 8172SOL     OW25414   6.352   1.109   4.725 -0.4935 -0.0856  0.2272
 8172SOL    HW125415   6.431   1.111   4.787  1.4067  0.3224 -2.0450
 8172SOL    HW225416   6.287   1.040   4.756  1.6581 -1.8126  1.2051
 8173SOL     OW25417   1.464   6.727   0.638  0.4253  0.5507  0.0183
 8173SOL    HW125418   1.489   6.778   0.720  0.1777  0.0275  0.4223
 8173SOL    HW225419   1.364   6.730   0.626  0.5300  1.3359 -0.7337
 8174SOL     OW25420   1.961   1.278   6.545 -0.4232 -0.2722 -0.0242
 8174SOL    HW125421   1.893   1.300   6.614  3.1423 -0.2648  3.9051
 8174SOL    HW225422   2.034   1.224   6.586  2.0590 -0.2490 -3.8683
 8175SOL     OW25423   1.942   6.621   0.647  0.6510 -0.0157 -0.2357
 8175SOL    HW125424   1.980   6.530   0.630 -1.3236 -0.8400 -0.4661
 8175SOL    HW225425   2.014   6.689   0.635  2.2393 -1.5419  0.1790
 8176SOL     OW25426   6.480   5.771   0.561 -0.0595  0.2807  0.3745
 8176SOL    HW125427   6.439   5.858   0.536 -1.4467 -1.0001 -2.1978
 8176SOL    HW225428   6.534   5.736   0.484 -2.3877 -2.6759 -0.0992
 8177SOL     OW25429   5.880   5.665   3.498 -0.2672 -0.2030  0.0192
 8177SOL    HW125430   5.845   5.737   3.438 -0.0983 -0.4586 -0.3886
 8177SOL    HW225431   5.907   5.705   3.586  0.2053  0.2968 -0.3455
 8178SOL     OW25432   4.484   0.327   6.709 -0.5801  0.6300  0.4492
 8178SOL    HW125433   4.490   0.252   6.775  2.9727 -0.2454 -0.6522
 8178SOL    HW225434   4.556   0.317   6.641 -1.8773  3.4561 -1.5286
 8179SOL     OW25435   6.496   2.418   3.959  0.7902  0.6839 -0.2154
 8179SOL    HW125436   6.596   2.423   3.957  0.7185  2.4218 -1.5818
 8179SOL    HW225437   6.458   2.486   3.897 -1.2336 -1.6724 -1.7113
 8180SOL     OW25438   5.245   6.738   3.828  0.5769  0.0632 -0.3627
 8180SOL    HW125439   5.176   6.776   3.889  1.4422 -0.4618  0.9820
 8180SOL    HW225440   5.200   6.694   3.750 -0.5927 -0.0946  0.3866
 8181SOL     OW25441   0.864   1.672   0.884  0.5921 -0.1598 -0.7043
 8181SOL    HW125442   0.769   1.674   0.850  0.4005 -0.5278 -0.1919
 8181SOL    HW225443   0.869   1.719   0.972  0.4672 -1.9520  0.3028
 8182SOL     OW25444   5.313   0.748   1.938 -0.1701 -0.0348 -0.2829
 8182SOL    HW125445   5.362   0.709   2.016 -1.9752  0.3570  1.1153
 8182SOL    HW225446   5.308   0.848   1.948  0.7704  0.1828 -1.6523
 8183SOL     OW25447   3.377   5.984   1.992  0.0326  0.3278  0.1071
 8183SOL    HW125448   3.289   5.938   1.979  1.0703 -2.1548  1.1347
 8183SOL    HW225449   3.441   5.951   1.922  0.3859  1.4720 -0.1215
 8184SOL     OW25450   2.191   5.757   0.525 -0.1096 -0.2914 -0.2516
 8184SOL    HW125451   2.192   5.658   0.514 -0.4233 -0.1851 -1.3717
 8184SOL    HW225452   2.193   5.780   0.622  0.1456 -1.3867  0.0147
 8185SOL     OW25453   3.145   0.646   3.021 -0.6505  0.7769  0.1829
 8185SOL    HW125454   3.061   0.613   2.977  0.4997 -1.8735 -0.2542
 8185SOL    HW225455   3.189   0.714   2.962 -0.9310 -0.1306 -1.1210
 8186SOL     OW25456   2.504   2.405   2.932  0.2232  0.1035  0.1281
 8186SOL    HW125457   2.483   2.464   3.010  2.8430  2.9490 -1.1236
 8186SOL    HW225458   2.493   2.457   2.847  1.0109 -1.7512 -1.1785
 8187SOL     OW25459   3.832   0.397   1.470  0.3736  0.1813 -0.4609
 8187SOL    HW125460   3.785   0.409   1.383 -0.3392  0.6082 -0.0292
 8187SOL    HW225461   3.925   0.364   1.454 -0.3344 -1.5429 -1.3024
 8188SOL     OW25462   3.882   6.144   5.052 -0.1335 -0.2683  0.4953
 8188SOL    HW125463   3.975   6.170   5.078  0.0019  0.9817 -1.1225
 8188SOL    HW225464   3.886   6.065   4.991  0.0758  1.0876 -1.3279
 8189SOL     OW25465   4.640   4.292   2.419 -0.1578 -0.4413 -0.7829
 8189SOL    HW125466   4.672   4.200   2.444 -0.4312 -0.1531  0.7255
 8189SOL    HW225467   4.681   4.319   2.332  2.9491 -0.4811  0.5448
 8190SOL     OW25468   0.833   5.074   5.485  0.0230  0.2692 -0.5838
 8190SOL    HW125469   0.806   5.170   5.474  1.0613  0.5287 -0.9989
 8190SOL    HW225470   0.851   5.056   5.582  3.2047  1.4919 -0.8334
 8191SOL     OW25471   5.187   3.076   3.283  0.4705 -0.2044  0.5544
 8191SOL    HW125472   5.171   2.989   3.237 -2.1030  0.4995 -0.0679
 8191SOL    HW225473   5.259   3.065   3.351  0.3772 -2.7482  0.3410
 8192SOL     OW25474   6.894   6.303   0.670 -0.3126  0.2584 -0.0310
 8192SOL    HW125475   6.913   6.255   0.756  0.2637 -1.0763 -0.8644
 8192SOL    HW225476   6.980   6.332   0.627 -0.6164  1.3278  0.0475
 8193SOL     OW25477   4.510   5.211   5.022 -0.4694 -0.2159 -0.1343
 8193SOL    HW125478   4.468   5.238   5.108 -0.3218 -1.1739  0.2411
 8193SOL    HW225479   4.446   5.156   4.968 -1.0675  1.4898 -1.2645
 8194SOL     OW25480   4.923   1.248   0.211  0.0657  0.1351 -0.1747
 8194SOL    HW125481   4.936   1.183   0.136  1.4574 -0.1726  0.3032
 8194SOL    HW225482   4.920   1.341   0.174 -0.7367 -0.1064 -0.7461
 8195SOL     OW25483   5.395   5.244   4.163  0.7370 -0.5062  0.5113
 8195SOL    HW125484   5.360   5.319   4.218  1.9945 -1.3987  2.6462
 8195SOL    HW225485   5.427   5.279   4.075 -2.3156  0.8037 -0.2134
 8196SOL     OW25486   0.558   0.216   0.413 -0.1069 -0.5572 -0.3086
 8196SOL    HW125487   0.506   0.276   0.353 -0.2371  0.0720  0.4103
 8196SOL    HW225488   0.570   0.127   0.370  0.9342  0.2750 -1.8248
 8197SOL     OW25489   5.879   5.199   5.468  0.3242  0.0006 -0.2174
 8197SOL    HW125490   5.928   5.121   5.506  1.3008  0.9389  0.4969
 8197SOL    HW225491   5.860   5.265   5.541 -0.3841  0.4926 -0.8292
 8198SOL     OW25492   4.358   5.100   6.205  0.5632  0.5609 -0.3549
 8198SOL    HW125493   4.315   5.033   6.143 -0.6504 -2.4942  3.3927
 8198SOL    HW225494   4.446   5.064   6.236  0.4737  1.3222  0.8093
 8199SOL     OW25495   3.840   0.304   3.820 -0.3088  0.8236  0.2896
 8199SOL    HW125496   3.744   0.299   3.794 -0.2811  3.6734 -0.7525
 8199SOL    HW225497   3.851   0.369   3.895  0.8198  0.5115  0.4153
 8200SOL     OW25498   6.054   0.855   4.948 -0.4757  0.2279  0.3296
 8200SOL    HW125499   6.003   0.798   5.012  1.0869 -1.2716  0.3264
 8200SOL    HW225500   6.023   0.950   4.955 -1.8877 -0.2971  1.6659
 8201SOL     OW25501   2.594   4.512   7.004 -0.1903  0.4132  0.2959
 8201SOL    HW125502   2.691   4.491   7.018  0.0736  0.1092 -1.7112
 8201SOL    HW225503   2.539   4.433   7.030  0.2205  0.0222 -0.0015
 8202SOL     OW25504   4.100   2.777   1.272 -0.0353 -0.5068  0.5177
 8202SOL    HW125505   4.105   2.836   1.353 -1.2504 -0.2874  0.4462
 8202SOL    HW225506   4.042   2.698   1.291  0.2941 -0.8581  0.0972
 8203SOL     OW25507   3.291   4.755   1.339  0.1315 -0.6077  0.3865
 8203SOL    HW125508   3.319   4.823   1.407  1.5605 -2.2321  1.5028
 8203SOL    HW225509   3.239   4.682   1.385 -0.1377 -1.0075 -0.5315
 8204SOL     OW25510   4.631   5.447   2.695  0.0050 -0.3892  0.3878
 8204SOL    HW125511   4.568   5.506   2.645  1.6390  0.9485 -0.2005
 8204SOL    HW225512   4.615   5.351   2.669 -0.4785  0.0928 -1.2054
 8205SOL     OW25513   0.155   1.703   5.517 -0.8728 -0.1146 -0.2668
 8205SOL    HW125514   0.150   1.642   5.438 -1.1153 -2.5293  1.4907
 8205SOL    HW225515   0.067   1.749   5.529 -1.5910 -1.4697 -0.1306
 8206SOL     OW25516   6.266   1.802   5.588 -0.2032 -0.5091  0.3226
 8206SOL    HW125517   6.334   1.767   5.652  0.1254  0.6498  0.6255
 8206SOL    HW225518   6.221   1.882   5.627  0.4633  0.6276 -1.1374
 8207SOL     OW25519   3.098   2.050   0.649 -0.4706  0.5580 -0.5686
 8207SOL    HW125520   3.144   2.076   0.734 -0.5012  0.6695 -0.5864
 8207SOL    HW225521   3.006   2.088   0.648 -0.8107 -0.2280 -0.2272
 8208SOL     OW25522   4.202   0.148   3.749 -0.1020 -0.7523  0.4963
 8208SOL    HW125523   4.151   0.181   3.669  0.5562  0.8296  0.6920
 8208SOL    HW225524   4.138   0.134   3.824 -0.4340  0.0322  0.3762
 8209SOL     OW25525   1.837   5.824   3.145 -0.3853  0.4164 -0.4537
 8209SOL    HW125526   1.911   5.806   3.209 -0.4902 -0.9115 -0.6851
 8209SOL    HW225527   1.874   5.836   3.053 -0.3033  1.5969 -0.2815
 8210SOL     OW25528   1.480   4.877   1.073  0.1106  0.2978 -0.0196
 8210SOL    HW125529   1.539   4.799   1.094  0.0214  1.0360  3.5304
 8210SOL    HW225530   1.387   4.858   1.107 -0.4340  1.1536 -0.9717
 8211SOL     OW25531   2.935   5.265   4.589  0.4846 -0.5290 -0.0656
 8211SOL    HW125532   2.921   5.273   4.688 -2.5264 -0.5677 -0.3893
 8211SOL    HW225533   3.006   5.196   4.571  0.2215 -1.4377  2.0599
 8212SOL     OW25534   0.672   2.510   6.691 -0.0011  0.6329  0.2452
 8212SOL    HW125535   0.619   2.590   6.666  0.1921  0.3211 -1.2745
 8212SOL    HW225536   0.635   2.470   6.775 -1.8903  0.6777 -0.5265
 8213SOL     OW25537   1.472   2.988   3.260  0.0468  1.0024  0.1156
 8213SOL    HW125538   1.492   3.061   3.325  1.5071 -0.5360  1.4972
 8213SOL    HW225539   1.449   3.028   3.171 -0.1359  3.1255  1.0541
 8214SOL     OW25540   5.019   2.130   4.943 -0.3681 -0.1364  0.1859
 8214SOL    HW125541   4.931   2.087   4.961  0.4102 -1.3415  1.3126
 8214SOL    HW225542   5.064   2.083   4.867 -1.0085  0.9989 -0.9359
 8215SOL     OW25543   3.387   2.090   2.609 -0.3478 -0.0496  0.1128
 8215SOL    HW125544   3.431   2.084   2.520 -1.1008  0.4213 -0.3004
 8215SOL    HW225545   3.456   2.106   2.679  0.2019  0.0197 -0.4360
 8216SOL     OW25546   6.423   6.845   2.235  0.4364 -0.1242  0.1775
 8216SOL    HW125547   6.415   6.808   2.143  0.4216 -0.0745  0.1590
 8216SOL    HW225548   6.504   6.806   2.280  1.7755  1.5554 -0.6599
 8217SOL     OW25549   5.125   6.828   0.803 -0.1557 -0.2037  0.0377
 8217SOL    HW125550   5.044   6.770   0.801 -0.6205  0.4373 -1.3794
 8217SOL    HW225551   5.206   6.773   0.825 -0.6820 -1.2421 -0.5545
 8218SOL     OW25552   3.412   4.110   0.850  0.0856 -0.2096  0.7139
 8218SOL    HW125553   3.489   4.055   0.882 -0.5554 -1.0611  0.8266
 8218SOL    HW225554   3.383   4.077   0.760 -0.4276 -0.1805  0.8686
 8219SOL     OW25555   2.358   4.426   4.046  0.3810 -0.2165 -0.0735
 8219SOL    HW125556   2.340   4.382   4.134 -0.9006 -0.6076 -0.5167
 8219SOL    HW225557   2.314   4.374   3.973 -1.3223  1.8579 -0.5995
 8220SOL     OW25558   3.265   1.295   3.887  0.2765  0.2513  0.0033
 8220SOL    HW125559   3.264   1.302   3.787  0.4435 -0.0688 -0.0220
 8220SOL    HW225560   3.349   1.249   3.916  1.2835  2.2330  0.4168
 8221SOL     OW25561   4.705   2.833   4.791  0.0287  0.2807  0.3110
 8221SOL    HW125562   4.767   2.794   4.859 -2.1557 -1.3175  1.5032
 8221SOL    HW225563   4.702   2.932   4.802  2.1899  0.3958  0.3101
 8222SOL     OW25564   0.043   3.442   4.985 -0.0550  0.1612  0.9713
 8222SOL    HW125565   0.050   3.491   5.073 -1.7116  2.6983 -0.2067
 8222SOL    HW225566   0.049   3.508   4.910 -3.8357 -1.1739 -0.7131
 8223SOL     OW25567   3.511   3.968   6.385  0.3047  0.6212 -0.2384
 8223SOL    HW125568   3.461   4.035   6.330  0.6605 -0.1097 -1.4849
 8223SOL    HW225569   3.481   3.876   6.361  3.1023  0.0491 -1.9950
 8224SOL     OW25570   1.725   5.881   2.443  0.3173  0.2859 -0.0424
 8224SOL    HW125571   1.754   5.928   2.359 -0.3177 -0.0821 -0.4777
 8224SOL    HW225572   1.635   5.914   2.470 -0.0691 -0.5458 -0.2639
 8225SOL     OW25573   5.102   0.891   2.232  0.8437  0.6913 -0.6636
 8225SOL    HW125574   5.131   0.963   2.169  0.9555 -0.7797 -2.3919
 8225SOL    HW225575   5.017   0.919   2.277 -0.1719  1.1885 -2.7366
 8226SOL     OW25576   4.218   5.728   2.597 -0.2796 -0.6314  0.0269
 8226SOL    HW125577   4.237   5.800   2.664  0.2168  1.8108 -2.5317
 8226SOL    HW225578   4.275   5.648   2.617 -0.6127 -0.2622  2.8032
 8227SOL     OW25579   5.628   4.589   1.755 -0.3450 -0.3715  0.3665
 8227SOL    HW125580   5.555   4.649   1.787  2.9705  2.6954  2.9645
 8227SOL    HW225581   5.640   4.513   1.819 -0.9817 -0.6569  0.1485
 8228SOL     OW25582   5.154   2.775   6.915  0.2666  0.3838 -0.1912
 8228SOL    HW125583   5.178   2.698   6.856  3.3410 -0.8070  2.2598
 8228SOL    HW225584   5.076   2.750   6.972  1.1422 -0.9659  0.4780
 8229SOL     OW25585   7.015   3.789   2.301 -0.2635  0.2189 -0.0959
 8229SOL    HW125586   7.070   3.872   2.314 -0.7428  0.3983  0.9312
 8229SOL    HW225587   6.957   3.775   2.382  0.7367 -1.8301  0.3426
 8230SOL     OW25588   5.611   5.621   4.585  0.4623 -0.4575 -0.0741
 8230SOL    HW125589   5.676   5.588   4.516 -0.2749 -0.8058 -0.6220
 8230SOL    HW225590   5.657   5.684   4.647  1.5766 -1.4820  0.1829
 8231SOL     OW25591   6.626   4.425   0.646  0.2327  0.3972  0.0208
 8231SOL    HW125592   6.573   4.499   0.604 -0.1340 -0.7508 -1.6166
 8231SOL    HW225593   6.564   4.352   0.675  0.8367 -0.7656 -1.5155
 8232SOL     OW25594   6.223   2.852   6.918 -0.0936  0.1941  0.0827
 8232SOL    HW125595   6.148   2.786   6.917 -0.4220  0.5513  0.7427
 8232SOL    HW225596   6.229   2.897   6.829  0.6205 -1.2483 -0.6401
 8233SOL     OW25597   0.998   4.867   4.407 -0.0771 -0.1998  0.1568
 8233SOL    HW125598   0.923   4.929   4.430  1.4979  1.6758  0.4878
 8233SOL    HW225599   1.084   4.918   4.405  1.2259 -2.2937 -0.1431
 8234SOL     OW25600   5.544   0.304   4.678  0.0073 -0.2389 -0.0410
 8234SOL    HW125601   5.499   0.217   4.659 -1.1863  0.7594 -2.0943
 8234SOL    HW225602   5.624   0.314   4.619  1.1280 -0.6046  1.3497
 8235SOL     OW25603   6.924   5.187   6.827  0.0723  0.6731 -0.2782
 8235SOL    HW125604   6.825   5.179   6.813  0.0204  1.5040 -0.3917
 8235SOL    HW225605   6.943   5.260   6.892  0.4566 -1.5607  2.2791
 8236SOL     OW25606   0.662   2.648   3.402  0.0501  1.1214  0.5042
 8236SOL    HW125607   0.698   2.616   3.490 -0.1459  1.2129  0.6177
 8236SOL    HW225608   0.642   2.569   3.344  1.0892  1.0766  0.1707
 8237SOL     OW25609   1.658   4.575   5.908 -0.2646  0.0109 -0.0760
 8237SOL    HW125610   1.636   4.477   5.911 -0.1653  0.0007  1.5347
 8237SOL    HW225611   1.739   4.592   5.964 -0.1954  0.9994 -0.4655
 8238SOL     OW25612   7.007   5.912   0.775  0.0056  0.6539 -0.3831
 8238SOL    HW125613   6.958   5.834   0.814  0.9789  0.1085 -0.2281
 8238SOL    HW225614   7.031   5.976   0.848 -0.1993  0.7731 -0.4183
 8239SOL     OW25615   2.392   2.732   3.831  0.0114 -0.8337 -1.0732
 8239SOL    HW125616   2.445   2.694   3.755  1.6107  1.3315 -1.1336
 8239SOL    HW225617   2.434   2.704   3.918 -0.6626 -1.7157 -1.0231
 8240SOL     OW25618   4.102   4.812   4.549  0.0823  0.0951 -0.8163
 8240SOL    HW125619   4.163   4.875   4.503 -0.1723  1.9835  1.2535
 8240SOL    HW225620   4.008   4.847   4.545 -0.4552 -1.3496 -1.5722
 8241SOL     OW25621   2.424   5.119   5.685 -0.2091  0.0319  0.1865
 8241SOL    HW125622   2.433   5.057   5.763  0.0063 -0.3231 -0.1174
 8241SOL    HW225623   2.449   5.071   5.601  2.2989  1.1950  0.1841
 8242SOL     OW25624   5.573   6.441   0.555 -0.3255  0.3798 -0.1888
 8242SOL    HW125625   5.532   6.352   0.534  0.9053 -0.5541  1.1634
 8242SOL    HW225626   5.634   6.468   0.481 -0.0795 -0.3029 -0.2422
 8243SOL     OW25627   0.446   0.329   0.891  0.0655 -0.1622 -0.4548
 8243SOL    HW125628   0.537   0.288   0.881 -0.2946 -1.1728  0.2424
 8243SOL    HW225629   0.440   0.410   0.833  1.5494  0.1715 -0.1983
 8244SOL     OW25630   5.081   5.135   0.094 -0.7062 -0.0942 -0.0489
 8244SOL    HW125631   5.014   5.129   0.168 -0.2097 -0.9387  0.3396
 8244SOL    HW225632   5.034   5.155   0.008 -1.5422 -1.2720  0.1121
 8245SOL     OW25633   0.905   3.482   3.324  0.8123  0.1089 -0.6761
 8245SOL    HW125634   0.998   3.449   3.334  0.2297 -1.6247 -0.6763
 8245SOL    HW225635   0.841   3.406   3.334 -0.5795  1.1373 -1.3873
 8246SOL     OW25636   5.895   4.806   2.245 -0.2445  0.1151 -0.1395
 8246SOL    HW125637   5.844   4.774   2.165 -1.8907  0.5340  0.6876
 8246SOL    HW225638   5.939   4.728   2.290 -1.6049 -0.5546  0.0768
 8247SOL     OW25639   4.735   1.551   5.967  0.1689 -0.1210 -0.1724
 8247SOL    HW125640   4.772   1.530   6.058 -2.0748 -0.1380  0.8068
 8247SOL    HW225641   4.674   1.477   5.938  0.6943 -0.0155 -1.6401
 8248SOL     OW25642   6.890   4.637   1.396 -0.1676  0.4988 -0.1452
 8248SOL    HW125643   6.836   4.553   1.386  1.2584 -0.3220 -1.4955
 8248SOL    HW225644   6.833   4.708   1.437 -2.0932 -0.4609 -0.9881
 8249SOL     OW25645   2.031   5.319   1.155 -0.4658 -0.0393  0.0256
 8249SOL    HW125646   2.109   5.274   1.111 -0.1048  1.3205 -0.7794
 8249SOL    HW225647   2.040   5.311   1.255  1.2595  0.9551 -0.0063
 8250SOL     OW25648   3.098   3.543   2.347  0.1440 -0.2830 -0.5897
 8250SOL    HW125649   3.021   3.564   2.287  1.0359  1.5913 -1.1753
 8250SOL    HW225650   3.088   3.595   2.432  0.3144 -0.7309 -0.2961
 8251SOL     OW25651   4.984   6.422   0.247  0.1057  0.1746  0.2009
 8251SOL    HW125652   4.971   6.414   0.148 -3.0977 -1.3160  0.5999
 8251SOL    HW225653   5.069   6.376   0.273  1.3278  1.1268 -1.8573
 8252SOL     OW25654   6.059   5.583   4.618 -0.5003 -0.0761 -0.2194
 8252SOL    HW125655   6.109   5.618   4.539 -1.2270 -0.0848 -0.6863
 8252SOL    HW225656   6.075   5.644   4.696 -1.2285  0.9573 -0.8535
 8253SOL     OW25657   4.577   3.774   1.325  0.2307  0.1786 -0.3444
 8253SOL    HW125658   4.582   3.710   1.402 -0.6818  0.2654 -0.1938
 8253SOL    HW225659   4.514   3.738   1.256 -0.4311  0.9774 -0.1785
 8254SOL     OW25660   0.607   0.890   6.530 -0.3171  0.6159  0.2683
 8254SOL    HW125661   0.569   0.980   6.551 -1.9838 -0.2530  1.1093
 8254SOL    HW225662   0.538   0.833   6.486 -0.2100 -1.1640  2.2305
 8255SOL     OW25663   6.147   5.312   3.376 -0.1774 -0.6258 -0.2853
 8255SOL    HW125664   6.109   5.222   3.355 -0.8677 -0.8387  1.6279
 8255SOL    HW225665   6.095   5.383   3.330  0.2881 -1.1690 -1.7062
 8256SOL     OW25666   0.210   3.209   4.896  0.2448 -0.2668  0.6888
 8256SOL    HW125667   0.260   3.200   4.983  0.6143 -0.4841  0.4576
 8256SOL    HW225668   0.125   3.259   4.912  0.4516 -0.0410  1.1234
 8257SOL     OW25669   1.028   2.191   3.722 -0.4520 -0.0581  0.0758
 8257SOL    HW125670   1.019   2.170   3.624 -0.6143  2.5737 -0.5521
 8257SOL    HW225671   0.964   2.135   3.774 -2.5096  0.5717 -1.6498
 8258SOL     OW25672   6.223   0.036   3.758  0.4353  0.6137  0.8691
 8258SOL    HW125673   6.146   0.043   3.822 -0.7092  1.3910 -0.5274
 8258SOL    HW225674   6.292   0.104   3.782 -1.7863  3.7881 -0.9694
 8259SOL     OW25675   0.125   1.604   6.251 -0.1446 -0.1308  0.5944
 8259SOL    HW125676   0.216   1.566   6.265 -0.0395 -0.6304 -1.1228
 8259SOL    HW225677   0.105   1.671   6.322  0.3492 -2.1409  2.7375
 8260SOL     OW25678   6.349   4.777   4.797  0.4070 -0.1317 -0.1009
 8260SOL    HW125679   6.328   4.730   4.883  0.1197  1.8001  0.9407
 8260SOL    HW225680   6.268   4.826   4.765  0.7418 -0.1880 -1.0719
 8261SOL     OW25681   2.342   0.529   4.513  0.4162 -0.2761 -0.0222
 8261SOL    HW125682   2.411   0.582   4.464  0.3617  1.1494  1.3719
 8261SOL    HW225683   2.252   0.571   4.499  0.6776  1.5821  3.0355
 8262SOL     OW25684   5.409   6.630   3.020 -0.3956  0.0544  0.4665
 8262SOL    HW125685   5.455   6.613   3.108 -0.0051 -1.3479  0.0243
 8262SOL    HW225686   5.478   6.632   2.947 -0.7189  1.2002  0.1667
 8263SOL     OW25687   1.167   3.469   5.899  0.3373  0.0699 -0.3384
 8263SOL    HW125688   1.182   3.566   5.917  0.3442  0.0524 -0.2494
 8263SOL    HW225689   1.069   3.452   5.889  0.3774  0.1923 -0.9703
 8264SOL     OW25690   3.896   0.071   4.445  0.1543  0.4911  0.0406
 8264SOL    HW125691   3.898   0.006   4.369 -1.0358 -0.2154  0.5940
 8264SOL    HW225692   3.969   0.139   4.432  0.3098  0.0845 -1.4528
 8265SOL     OW25693   2.913   6.126   1.252 -0.2456  0.6204  0.0748
 8265SOL    HW125694   2.824   6.096   1.287 -2.2417  3.5299 -1.9833
 8265SOL    HW225695   2.934   6.217   1.288 -0.2086  1.7479 -2.5340
 8266SOL     OW25696   2.519   1.711   4.620  0.8459  0.2185  0.0028
 8266SOL    HW125697   2.500   1.616   4.643  0.1053  0.5000  0.6039
 8266SOL    HW225698   2.609   1.737   4.656  0.6182  0.0289  0.7283
 8267SOL     OW25699   5.923   2.186   3.299  0.1029  0.4708 -0.0975
 8267SOL    HW125700   5.869   2.127   3.359  0.9997 -0.1048  0.1523
 8267SOL    HW225701   6.012   2.144   3.281  0.2544  1.1366 -0.9747
 8268SOL     OW25702   5.689   1.621   1.760 -0.2478 -0.5963 -0.2794
 8268SOL    HW125703   5.650   1.532   1.780  3.0728 -2.0384  0.4060
 8268SOL    HW225704   5.713   1.627   1.663  0.4658 -0.8783 -0.1253
 8269SOL     OW25705   6.492   2.439   4.978  0.3362 -0.2900  0.2083
 8269SOL    HW125706   6.425   2.365   4.988 -1.0188  0.7086 -0.9561
 8269SOL    HW225707   6.496   2.492   5.063 -2.6951  1.4255 -0.5440
 8270SOL     OW25708   2.947   0.236   1.591 -0.2131 -0.0532  0.1978
 8270SOL    HW125709   2.939   0.244   1.690 -0.3933 -0.4752  0.2182
 8270SOL    HW225710   3.044   0.233   1.565 -0.1651 -1.3616  0.4814
 8271SOL     OW25711   5.622   5.618   3.709 -0.3673  0.1388  0.4252
 8271SOL    HW125712   5.551   5.676   3.671  0.2655  1.9528  1.8657
 8271SOL    HW225713   5.696   5.607   3.643 -1.6994 -1.3556 -0.8926
 8272SOL     OW25714   1.355   0.425   4.567  0.2760 -0.6331 -0.2726
 8272SOL    HW125715   1.301   0.409   4.483 -0.6761 -0.3313  0.2627
 8272SOL    HW225716   1.452   0.413   4.547  0.2182  1.0599 -1.8308
 8273SOL     OW25717   1.484   0.149   4.819  0.4727 -0.3258 -0.2881
 8273SOL    HW125718   1.528   0.066   4.853  0.8557  0.0302  0.0925
 8273SOL    HW225719   1.534   0.229   4.852 -1.9353  0.2172  2.3398
 8274SOL     OW25720   0.928   0.279   1.072  0.6274 -0.3617  0.1396
 8274SOL    HW125721   0.998   0.255   1.004 -1.6949 -3.7121 -1.3052
 8274SOL    HW225722   0.919   0.205   1.139 -1.1910  0.1965  0.5698
 8275SOL     OW25723   5.728   5.541   1.478 -0.5465  0.2650  0.0111
 8275SOL    HW125724   5.779   5.508   1.557  0.7699 -0.8820 -1.2548
 8275SOL    HW225725   5.739   5.476   1.402 -2.1166  1.1093 -0.9943
 8276SOL     OW25726   6.579   6.893   3.566  0.2637 -0.2722 -0.3099
 8276SOL    HW125727   6.597   6.898   3.665 -1.3767 -0.2737  0.0351
 8276SOL    HW225728   6.517   6.968   3.540 -0.0163 -0.7866 -1.1623
 8277SOL     OW25729   0.562   1.200   2.878  0.5288 -0.6884 -0.1980
 8277SOL    HW125730   0.614   1.128   2.833 -0.7238 -0.6772 -1.7375
 8277SOL    HW225731   0.464   1.179   2.875  0.1672  0.8420 -0.2844
 8278SOL     OW25732   0.682   0.167   4.045 -0.1199  0.2548 -0.6645
 8278SOL    HW125733   0.641   0.230   4.110 -1.2757 -0.8527 -0.2825
 8278SOL    HW225734   0.764   0.126   4.086  0.6929  1.5532 -0.9551
 8279SOL     OW25735   5.529   3.887   6.650 -0.2184  0.3468  0.4017
 8279SOL    HW125736   5.535   3.840   6.562 -0.5112  0.8018  0.1366
 8279SOL    HW225737   5.592   3.965   6.651 -1.6028  1.5254 -0.1546
 8280SOL     OW25738   2.987   5.151   0.160  0.0956  0.0992 -0.2711
 8280SOL    HW125739   2.965   5.249   0.169 -1.2676 -0.2743  0.9204
 8280SOL    HW225740   2.967   5.122   0.066 -0.9704  0.6508 -0.2439
 8281SOL     OW25741   3.131   6.843   0.044  0.9812  0.2152 -0.0505
 8281SOL    HW125742   3.160   6.903  -0.031 -1.7205  0.8304 -0.6928
 8281SOL    HW225743   3.042   6.803   0.023  1.2311 -1.5254  1.8168
 8282SOL     OW25744   2.245   4.879   1.243 -0.7901 -0.2995  0.4350
 8282SOL    HW125745   2.287   4.881   1.152  0.3348  1.7411  0.9302
 8282SOL    HW225746   2.165   4.940   1.244 -0.8607 -0.3952  0.8029
 8283SOL     OW25747   2.249   4.656   3.934 -0.2077 -0.0724 -0.0447
 8283SOL    HW125748   2.301   4.600   3.999 -0.2063 -0.1338 -0.0989
 8283SOL    HW225749   2.171   4.697   3.981 -0.5895 -0.6538 -0.1574
 8284SOL     OW25750   2.856   4.134   0.528 -0.0831 -0.2868 -0.2412
 8284SOL    HW125751   2.935   4.073   0.524 -0.1570 -0.3123 -2.0511
 8284SOL    HW225752   2.880   4.224   0.493 -0.6708 -0.0899 -0.1568
 8285SOL     OW25753   0.706   3.430   0.932 -0.1575 -0.1412  0.5438
 8285SOL    HW125754   0.706   3.525   0.965 -0.8814  0.9556 -2.3488
 8285SOL    HW225755   0.622   3.385   0.963 -0.3711  0.5162  0.9638
 8286SOL     OW25756   5.782   5.159   4.694 -0.0421 -0.0474  0.1377
 8286SOL    HW125757   5.803   5.110   4.779 -2.9218  0.7847  1.4789
 8286SOL    HW225758   5.797   5.257   4.708  0.7141 -0.0210 -0.7803
 8287SOL     OW25759   0.343   6.081   1.579 -0.0098  0.1093  0.4986
 8287SOL    HW125760   0.316   6.168   1.537 -2.2640 -0.2196  1.1790
 8287SOL    HW225761   0.331   6.007   1.512 -2.6653 -0.2782  1.3034
 8288SOL     OW25762   2.676   4.136   0.294  0.0896 -0.4779 -0.2688
 8288SOL    HW125763   2.765   4.181   0.298 -1.5205  3.0175  0.3163
 8288SOL    HW225764   2.661   4.083   0.378  0.2384  1.9490  1.3762
 8289SOL     OW25765   5.589   3.044   2.237  0.3548  0.9372  0.0425
 8289SOL    HW125766   5.591   3.008   2.144 -2.2626  1.8392 -0.4461
 8289SOL    HW225767   5.569   3.142   2.235  1.0138  1.1383  1.5361
 8290SOL     OW25768   4.018   1.472   1.875  0.3608 -0.6860  0.1378
 8290SOL    HW125769   4.024   1.395   1.939 -1.7008 -1.7958 -0.9244
 8290SOL    HW225770   4.093   1.466   1.809  0.8843 -1.1178  0.7576
 8291SOL     OW25771   5.622   3.121   6.824 -0.4659 -0.2721 -0.2416
 8291SOL    HW125772   5.560   3.119   6.746  1.0740 -0.3225 -1.4997
 8291SOL    HW225773   5.687   3.196   6.814  0.4392 -0.9463  0.4397
 8292SOL     OW25774   0.717   1.709   2.024  0.3187  0.4996 -0.5555
 8292SOL    HW125775   0.659   1.721   1.943 -1.8198  0.9839  0.9518
 8292SOL    HW225776   0.660   1.713   2.106  2.1636 -1.5595  0.9490
 8293SOL     OW25777   0.075   3.696   6.841 -0.9035 -0.5258 -0.1593
 8293SOL    HW125778   0.142   3.622   6.845 -0.7372 -0.3804 -0.2448
 8293SOL    HW225779   0.086   3.747   6.756  1.6533  2.0937  1.5734
 8294SOL     OW25780   3.757   0.770   3.703  0.2545  0.1192  0.5593
 8294SOL    HW125781   3.765   0.829   3.622 -1.3602 -2.1355 -1.4136
 8294SOL    HW225782   3.837   0.710   3.708 -0.6387 -1.3156 -0.8722
 8295SOL     OW25783   4.515   1.939   0.447  0.2326  0.2029 -0.1374
 8295SOL    HW125784   4.520   1.865   0.513  1.3396 -1.4106 -1.9408
 8295SOL    HW225785   4.429   1.932   0.395  0.0758  0.5427  0.0701
 8296SOL     OW25786   6.237   4.077   3.487 -0.1514 -0.5316  0.5631
 8296SOL    HW125787   6.325   4.058   3.445  0.0809  0.3566  0.6297
 8296SOL    HW225788   6.183   4.135   3.427 -0.2235 -0.1014  1.0349
 8297SOL     OW25789   0.802   6.983   0.892 -0.0786  0.1786 -0.8407
 8297SOL    HW125790   0.760   7.071   0.915  0.8074  0.5705 -0.6892
 8297SOL    HW225791   0.767   6.950   0.805 -3.0449 -1.0157  0.6692
 8298SOL     OW25792   2.331   6.355   4.418  0.2590  0.0082 -0.1675
 8298SOL    HW125793   2.349   6.334   4.514 -0.8414  0.0735  0.0755
 8298SOL    HW225794   2.385   6.295   4.360  0.4562 -0.4713  0.4961
 8299SOL     OW25795   6.246   5.364   5.488  0.1237 -0.2269  0.3447
 8299SOL    HW125796   6.243   5.464   5.490  0.2045 -0.2331  1.5510
 8299SOL    HW225797   6.213   5.331   5.399 -0.8382  0.8292  0.2944
 8300SOL     OW25798   1.849   0.553   4.482  0.2976 -0.3872 -0.9684
 8300SOL    HW125799   1.799   0.623   4.430  1.5089  0.6655 -0.7745
 8300SOL    HW225800   1.947   0.575   4.481  0.5170 -1.2100  0.4427
 8301SOL     OW25801   1.657   5.974   0.893  0.0661 -0.0733 -0.2542
 8301SOL    HW125802   1.749   5.967   0.853  1.0375 -0.1007  1.8475
 8301SOL    HW225803   1.650   6.059   0.945 -0.0843 -1.3046  1.8886
 8302SOL     OW25804   5.791   1.623   5.453 -0.9050  0.5088 -0.1038
 8302SOL    HW125805   5.777   1.573   5.368 -0.5509  1.7174 -0.9014
 8302SOL    HW225806   5.888   1.647   5.462 -1.1924  1.7511 -0.1575
 8303SOL     OW25807   3.209   1.151   1.522 -0.0919  0.3038 -0.0959
 8303SOL    HW125808   3.147   1.170   1.445  1.5276  1.6456 -1.1537
 8303SOL    HW225809   3.184   1.208   1.600 -2.2146 -1.6074  0.7044
 8304SOL     OW25810   3.506   6.659   5.816  0.0694 -0.1641 -0.1737
 8304SOL    HW125811   3.539   6.571   5.784 -0.2319 -0.0361 -0.8655
 8304SOL    HW225812   3.411   6.649   5.848 -0.3546  0.1102 -1.2867
 8305SOL     OW25813   2.329   2.654   0.511 -0.4347 -0.0760 -0.2658
 8305SOL    HW125814   2.378   2.655   0.598 -0.8753 -2.2063  0.0436
 8305SOL    HW225815   2.391   2.626   0.437 -0.5321 -0.1351 -0.3255
 8306SOL     OW25816   2.273   4.838   0.188  0.4484 -0.6250  0.1918
 8306SOL    HW125817   2.289   4.898   0.110 -0.8960  0.8604  0.9989
 8306SOL    HW225818   2.299   4.744   0.164 -0.7818 -0.3903 -2.3641
 8307SOL     OW25819   0.173   5.387   6.962  0.1300 -0.0735  0.0828
 8307SOL    HW125820   0.233   5.454   7.007 -0.2488 -0.9611  1.9934
 8307SOL    HW225821   0.079   5.420   6.965  0.2119  0.2702 -0.8859
 8308SOL     OW25822   4.426   2.773   0.877 -0.7659  0.0474 -0.0740
 8308SOL    HW125823   4.441   2.848   0.942  0.1607  0.0039 -0.2199
 8308SOL    HW225824   4.445   2.805   0.784  0.5427 -0.5920 -0.0488
 8309SOL     OW25825   4.208   4.721   0.246 -0.7357 -0.1785  0.1936
 8309SOL    HW125826   4.258   4.637   0.227 -0.6570  0.2226 -1.4509
 8309SOL    HW225827   4.111   4.700   0.258 -0.8043 -0.4436 -0.7715
 8310SOL     OW25828   5.643   2.128   2.443  0.0794  0.2588 -0.7738
 8310SOL    HW125829   5.547   2.141   2.468  0.1657  0.8715 -0.7283
 8310SOL    HW225830   5.649   2.070   2.361 -0.2691 -0.5872 -0.2086
 8311SOL     OW25831   3.568   6.388   1.510  0.6033  0.3036  0.2447
 8311SOL    HW125832   3.546   6.480   1.478 -1.4266 -0.3562 -0.3908
 8311SOL    HW225833   3.602   6.334   1.433 -2.0352 -0.5921 -0.3961
 8312SOL     OW25834   4.590   4.687   6.592 -0.4527 -0.4338 -0.2235
 8312SOL    HW125835   4.673   4.738   6.572  0.3055 -1.2484  0.7525
 8312SOL    HW225836   4.546   4.725   6.673  0.6635 -1.8905  1.1279
 8313SOL     OW25837   1.226   1.545   3.478 -0.0513 -0.1720 -0.5645
 8313SOL    HW125838   1.324   1.564   3.482 -0.2310  0.6397  2.7326
 8313SOL    HW225839   1.176   1.616   3.527 -1.9537 -2.2980  0.7891
 8314SOL     OW25840   1.200   1.166   3.299 -0.2458  0.3981  0.4962
 8314SOL    HW125841   1.125   1.214   3.345 -1.7237 -1.2995 -0.0299
 8314SOL    HW225842   1.280   1.225   3.296 -1.7907  2.6148  0.3617
 8315SOL     OW25843   3.084   6.831   1.621  0.3447 -0.4072  0.5565
 8315SOL    HW125844   3.033   6.902   1.572 -1.5954 -1.9274  0.2802
 8315SOL    HW225845   3.162   6.802   1.566  0.9602  1.2240  0.5150
 8316SOL     OW25846   5.878   3.646   6.372  0.3687  0.0220 -0.1427
 8316SOL    HW125847   5.825   3.726   6.401 -0.8438 -0.2846 -1.4407
 8316SOL    HW225848   5.919   3.664   6.282  1.8658 -0.0468  0.4861
 8317SOL     OW25849   1.496   0.824   4.842 -0.3092  0.1489 -0.1319
 8317SOL    HW125850   1.416   0.818   4.901 -0.8687  2.8820 -0.4809
 8317SOL    HW225851   1.472   0.793   4.750 -0.3766 -0.9329  0.2420
 8318SOL     OW25852   6.759   6.273   5.784  0.1566  0.0652 -0.1442
 8318SOL    HW125853   6.672   6.321   5.799  0.6808  1.1879 -0.5930
 8318SOL    HW225854   6.751   6.179   5.817 -0.4717  0.8176  2.0639
 8319SOL     OW25855   4.108   4.701   1.368  0.0815  0.4371  0.2597
 8319SOL    HW125856   4.013   4.722   1.348  0.3263 -0.1796 -1.7532
 8319SOL    HW225857   4.115   4.607   1.403  0.1061 -0.3567 -1.7132
 8320SOL     OW25858   2.644   2.234   0.977  0.0306  0.1326  0.2545
 8320SOL    HW125859   2.626   2.331   0.993  2.0769  0.8315 -1.2321
 8320SOL    HW225860   2.743   2.219   0.970 -0.3109 -1.6735 -1.6137
 8321SOL     OW25861   2.662   6.166   4.555  0.3618  0.4036  0.7038
 8321SOL    HW125862   2.712   6.187   4.639 -0.9569  0.5488  1.4758
 8321SOL    HW225863   2.583   6.227   4.547 -1.1838 -1.5066  0.8484
 8322SOL     OW25864   4.515   0.668   3.611  0.0637  0.2709  0.6738
 8322SOL    HW125865   4.529   0.582   3.562  0.3138  0.0649  1.1064
 8322SOL    HW225866   4.571   0.669   3.693  0.5943  1.1371  0.3128
 8323SOL     OW25867   2.863   1.781   1.554  0.3922  0.7566  0.0917
 8323SOL    HW125868   2.897   1.772   1.648  0.8327  1.4664  0.0096
 8323SOL    HW225869   2.889   1.701   1.501  0.9518  0.7761  0.3313
 8324SOL     OW25870   0.563   5.397   4.330  0.1996 -0.6170  0.0509
 8324SOL    HW125871   0.494   5.470   4.329  2.4807  1.6769 -0.2128
 8324SOL    HW225872   0.572   5.362   4.424 -0.0805  0.3075  0.4388
 8325SOL     OW25873   0.482   4.579   6.234  0.3574 -0.3248 -0.0229
 8325SOL    HW125874   0.430   4.662   6.211 -0.8478 -0.8557  0.6471
 8325SOL    HW225875   0.572   4.584   6.193  0.1314  1.0922 -0.4247
 8326SOL     OW25876   0.295   5.354   1.941 -0.2197  0.9521  0.4235
 8326SOL    HW125877   0.391   5.374   1.922  0.0381 -0.2845  0.2936
 8326SOL    HW225878   0.279   5.359   2.040  0.4781 -0.7064  0.6594
 8327SOL     OW25879   5.883   1.014   3.411 -0.2905  0.1696  0.3500
 8327SOL    HW125880   5.910   0.982   3.320 -0.3832 -0.8506  0.6700
 8327SOL    HW225881   5.828   1.097   3.402  1.4968  1.3475 -0.4103
 8328SOL     OW25882   0.398   4.205   0.211 -0.2397  0.6949  0.3013
 8328SOL    HW125883   0.300   4.203   0.234 -0.0998  3.4419  1.5556
 8328SOL    HW225884   0.411   4.251   0.124 -0.0036  1.3946  0.7014
 8329SOL     OW25885   2.082   3.408   3.562 -0.3416 -0.1499  0.4973
 8329SOL    HW125886   2.181   3.397   3.549 -0.4744 -0.9487  0.1167
 8329SOL    HW225887   2.033   3.351   3.496 -1.1023  2.5042 -1.4024
 8330SOL     OW25888   2.415   2.649   4.382 -0.0604 -0.7482  0.6865
 8330SOL    HW125889   2.431   2.625   4.477  0.4920 -3.1845  0.0539
 8330SOL    HW225890   2.358   2.579   4.339 -1.0838  0.7913 -0.5587
 8331SOL     OW25891   2.418   4.628   4.273 -0.0171 -0.7148 -0.3351
 8331SOL    HW125892   2.479   4.670   4.205  2.4254 -1.9489  0.9418
 8331SOL    HW225893   2.401   4.533   4.248 -0.4950 -0.6977 -0.0845
 8332SOL     OW25894   2.976   3.882   2.301  0.1629  0.0084 -0.0765
 8332SOL    HW125895   3.010   3.827   2.377  0.6867  0.0700 -0.2642
 8332SOL    HW225896   2.879   3.903   2.316  0.6012  1.2032  1.2887
 8333SOL     OW25897   5.182   3.220   6.673 -0.1274 -0.2493 -0.6617
 8333SOL    HW125898   5.121   3.276   6.730  1.1159  0.2155  0.2782
 8333SOL    HW225899   5.140   3.130   6.657 -1.5482  0.4519 -1.0371
 8334SOL     OW25900   5.092   5.300   0.875  0.5211 -0.2330  0.0353
 8334SOL    HW125901   5.173   5.282   0.931  1.1657 -2.1682 -1.4051
 8334SOL    HW225902   5.111   5.375   0.812  0.2176  1.1159  1.4864
 8335SOL     OW25903   2.434   0.017   0.356 -0.4970  0.2760 -0.3713
 8335SOL    HW125904   2.452   0.058   0.267 -2.7441  0.1182 -0.9476
 8335SOL    HW225905   2.402  -0.077   0.343 -1.5706  0.5030  0.5619
 8336SOL     OW25906   5.642   4.444   4.555  0.2626  0.7501  0.0925
 8336SOL    HW125907   5.549   4.412   4.538  0.1487  1.4884 -0.7812
 8336SOL    HW225908   5.659   4.527   4.501  0.4656  2.2906  2.3720
 8337SOL     OW25909   0.159   4.896   2.003  0.3333 -0.0854 -0.2310
 8337SOL    HW125910   0.208   4.982   2.017  1.1352 -0.5194 -0.3151
 8337SOL    HW225911   0.117   4.867   2.089 -0.0025  0.4246 -0.2209
 8338SOL     OW25912   5.936   2.559   4.129  0.0608  0.1645 -0.2892
 8338SOL    HW125913   5.856   2.566   4.189 -1.0042 -0.1432 -1.6238
 8338SOL    HW225914   6.018   2.578   4.182 -0.8131 -0.2246  1.3010
 8339SOL     OW25915   3.831   6.640   3.637  0.0941  0.5105 -0.2702
 8339SOL    HW125916   3.917   6.688   3.618  0.6837 -0.8313 -1.0954
 8339SOL    HW225917   3.796   6.599   3.553 -0.7496  0.0528  0.2949
 8340SOL     OW25918   1.488   6.810   5.652  0.2185 -0.3438  0.0265
 8340SOL    HW125919   1.470   6.827   5.749  0.1899  0.6363 -0.1394
 8340SOL    HW225920   1.585   6.790   5.639  0.3288  0.0669  0.1926
 8341SOL     OW25921   1.362   3.340   0.683 -0.3197 -0.0565 -0.0928
 8341SOL    HW125922   1.376   3.272   0.755 -0.9056  0.3130  0.3821
 8341SOL    HW225923   1.394   3.429   0.714 -1.0645  0.2144 -0.0787
 8342SOL     OW25924   6.100   3.331   0.824 -0.2502  0.3377 -0.3083
 8342SOL    HW125925   6.078   3.312   0.920  0.0531 -0.0867 -0.3224
 8342SOL    HW225926   6.087   3.429   0.806  2.9415  1.1627  1.0658
 8343SOL     OW25927   2.943   7.007   3.374 -0.3005 -0.3235 -0.4874
 8343SOL    HW125928   3.028   6.985   3.422 -1.0902 -0.5632  0.8889
 8343SOL    HW225929   2.866   6.971   3.427 -1.2676 -0.0252 -1.6516
 8344SOL     OW25930   4.332   4.581   2.026  0.2940  0.4585  0.5882
 8344SOL    HW125931   4.383   4.578   2.112  1.2293 -0.7928  0.0067
 8344SOL    HW225932   4.379   4.528   1.956 -1.1164  0.3804 -0.3573
 8345SOL     OW25933   0.737   0.864   2.206  0.8295 -0.2725  0.2631
 8345SOL    HW125934   0.641   0.893   2.206  0.6824 -0.7183 -0.5044
 8345SOL    HW225935   0.757   0.813   2.289  0.5826  0.3850  0.7347
 8346SOL     OW25936   6.668   5.765   3.321  0.2426  0.3117  0.0470
 8346SOL    HW125937   6.619   5.720   3.395  0.4987  0.7051  0.4596
 8346SOL    HW225938   6.763   5.735   3.321  0.3552  0.6632  0.1695
 8347SOL     OW25939   3.301   5.825   0.986  0.1664  0.1428 -0.0459
 8347SOL    HW125940   3.228   5.787   0.929  0.3753 -1.2857  0.6093
 8347SOL    HW225941   3.293   5.925   0.988 -1.0344  0.0853 -0.9542
 8348SOL     OW25942   0.472   2.582   0.182  0.1411 -0.2298  0.4044
 8348SOL    HW125943   0.517   2.493   0.173  0.5410  0.1212 -1.7385
 8348SOL    HW225944   0.540   2.652   0.202  0.1220 -0.1287  0.1216
 8349SOL     OW25945   4.957   4.312   2.102  0.3839  0.2680 -0.1727
 8349SOL    HW125946   4.972   4.232   2.160 -3.5467  0.3884  1.3140
 8349SOL    HW225947   4.912   4.284   2.017 -0.2415  0.8045 -0.0225
 8350SOL     OW25948   1.108   0.061   2.707  0.0297 -0.3822  0.1213
 8350SOL    HW125949   1.172   0.138   2.714  1.3400 -1.2486 -1.5494
 8350SOL    HW225950   1.125  -0.003   2.782  2.0905 -1.2121 -0.9481
 8351SOL     OW25951   4.482   2.559   5.470  0.1799  0.0836 -0.1629
 8351SOL    HW125952   4.485   2.518   5.379 -1.1934 -0.8490  0.1743
 8351SOL    HW225953   4.545   2.637   5.474  1.1036 -0.5561 -1.5455
 8352SOL     OW25954   5.800   4.743   0.016  0.1466  0.0441 -0.3186
 8352SOL    HW125955   5.756   4.737   0.106  0.6434  0.4887 -0.0415
 8352SOL    HW225956   5.742   4.796  -0.046 -0.0040  0.0877 -0.1417
 8353SOL     OW25957   0.041   4.988   2.885 -0.3367  0.3339  0.1472
 8353SOL    HW125958   0.065   5.042   2.804 -0.4598  0.5078  0.2279
 8353SOL    HW225959   0.125   4.953   2.927 -0.2782  0.1393 -0.1265
 8354SOL     OW25960   6.031   0.716   4.330  0.2455  0.2603 -0.2230
 8354SOL    HW125961   6.012   0.814   4.328  0.7287  0.3568 -0.2650
 8354SOL    HW225962   6.130   0.701   4.328  0.1638 -0.2489 -0.9759
 8355SOL     OW25963   3.278   4.059   0.630 -0.0203  0.1719 -0.1771
 8355SOL    HW125964   3.212   4.036   0.557 -0.6436 -0.8778  0.6851
 8355SOL    HW225965   3.245   4.138   0.681 -0.1982  0.1650 -0.2790
 8356SOL     OW25966   1.803   0.113   5.480  0.9604 -0.0106 -0.4981
 8356SOL    HW125967   1.780   0.210   5.474 -1.6098 -0.4673  0.5631
 8356SOL    HW225968   1.738   0.060   5.426  0.2902 -1.3209  1.4720
 8357SOL     OW25969   5.054   3.177   4.825 -0.0107  0.1390  0.7492
 8357SOL    HW125970   4.992   3.241   4.868 -0.5494 -1.2450  2.1155
 8357SOL    HW225971   5.026   3.162   4.730  0.5828  2.4466  0.1603
 8358SOL     OW25972   3.138   3.553   3.384 -0.1287 -0.8087  0.0286
 8358SOL    HW125973   3.219   3.610   3.371 -0.5517 -0.0847  0.5563
 8358SOL    HW225974   3.166   3.457   3.389  0.7193 -0.5542  0.3787
 8359SOL     OW25975   3.476   3.223   6.904 -0.2736  0.0501 -0.6865
 8359SOL    HW125976   3.389   3.174   6.914  0.5261 -0.8925  3.3114
 8359SOL    HW225977   3.461   3.320   6.921 -0.5168 -0.1964  0.6271
 8360SOL     OW25978   2.854   4.302   6.992  0.2482  0.5184  0.0620
 8360SOL    HW125979   2.929   4.334   6.934  0.1018  2.2610  0.7776
 8360SOL    HW225980   2.891   4.266   7.077  0.4559 -1.9408 -0.9802
 8361SOL     OW25981   1.441   4.130   2.818  0.2073  0.3621 -0.3925
 8361SOL    HW125982   1.424   4.223   2.853  2.6620  1.4062 -1.7332
 8361SOL    HW225983   1.517   4.133   2.753  1.7577 -2.9494  1.0696
 8362SOL     OW25984   5.014   2.880   3.810  0.0184 -0.1336 -0.3997
 8362SOL    HW125985   5.070   2.933   3.873  2.3600  0.5062 -2.8252
 8362SOL    HW225986   5.002   2.787   3.846  2.1677 -0.1050  0.5242
 8363SOL     OW25987   5.059   2.589   2.785  0.4701 -1.0922  0.9556
 8363SOL    HW125988   5.029   2.676   2.823  0.8280 -0.2666 -0.5715
 8363SOL    HW225989   4.992   2.518   2.809 -0.2473 -0.2509  1.5470
 8364SOL     OW25990   5.505   5.690   5.431  0.1039 -0.0048  1.0254
 8364SOL    HW125991   5.449   5.734   5.360 -1.0031 -0.0938  1.8050
 8364SOL    HW225992   5.551   5.610   5.393  0.5744  0.6972  0.0875
 8365SOL     OW25993   6.578   3.642   0.910 -0.5550  0.4191 -0.0330
 8365SOL    HW125994   6.653   3.656   0.845 -0.2435  1.3508  0.5111
 8365SOL    HW225995   6.564   3.725   0.964 -0.6467 -0.4092  1.2613
 8366SOL     OW25996   2.264   3.629   6.714  0.6046  0.0862 -0.2197
 8366SOL    HW125997   2.298   3.570   6.641  0.6351 -1.1271  0.7383
 8366SOL    HW225998   2.246   3.574   6.796  1.0494  1.4829  0.8587
 8367SOL     OW25999   2.062   4.920   6.647 -0.1293 -0.2135 -0.4374
 8367SOL    HW126000   2.093   5.014   6.628  1.2822 -1.1054 -3.0371
 8367SOL    HW226001   1.991   4.894   6.582  0.2409 -1.3031 -0.4276
 8368SOL     OW26002   2.300   4.721   2.125 -0.3765 -0.6752  0.3193
 8368SOL    HW126003   2.306   4.751   2.220 -1.8274 -1.8886  0.8280
 8368SOL    HW226004   2.391   4.694   2.093  0.5764  1.9079  0.5601
 8369SOL     OW26005   4.422   5.035   1.475  0.3219 -0.1701  0.2571
 8369SOL    HW126006   4.378   5.042   1.565  1.1471  0.9236  0.6047
 8369SOL    HW226007   4.432   5.127   1.436  0.4389 -0.5920 -0.7322
 8370SOL     OW26008   3.768   3.497   6.912 -0.0749 -0.5748 -0.2739
 8370SOL    HW126009   3.687   3.476   6.858 -0.2504  0.7524 -0.5637
 8370SOL    HW226010   3.846   3.447   6.876 -0.0745  0.6392 -2.1200
 8371SOL     OW26011   5.283   1.655   4.532  0.2944  0.4380  0.2052
 8371SOL    HW126012   5.285   1.680   4.629 -1.5995  0.5688  0.2308
 8371SOL    HW226013   5.195   1.616   4.509  1.5713 -2.0076 -0.9187
 8372SOL     OW26014   5.126   3.612   4.048 -0.1914  0.0490 -0.0518
 8372SOL    HW126015   5.121   3.707   4.078 -1.2017  1.2815 -3.6218
 8372SOL    HW226016   5.222   3.583   4.045  0.0654  0.5102  2.0868
 8373SOL     OW26017   0.885   2.419   1.950  0.1690  0.7342  0.5189
 8373SOL    HW126018   0.862   2.344   1.888 -0.8043  0.4492  1.2081
 8373SOL    HW226019   0.895   2.383   2.043 -1.9452  1.6697  1.1577
 8374SOL     OW26020   5.106   0.472   1.091 -0.0137 -0.5881  0.4039
 8374SOL    HW126021   5.146   0.537   1.156 -0.8358  0.0420  0.3038
 8374SOL    HW226022   5.006   0.471   1.102 -0.1277 -0.7961 -0.5407
 8375SOL     OW26023   6.432   6.477   1.057  0.2492  0.2233 -0.6712
 8375SOL    HW126024   6.400   6.408   0.993 -0.8170  1.6742 -1.7895
 8375SOL    HW226025   6.361   6.495   1.125  0.9613 -0.5570  0.2938
 8376SOL     OW26026   3.908   6.373   2.555  0.3355 -0.7733 -0.2781
 8376SOL    HW126027   3.872   6.297   2.502 -0.0932 -0.5142 -0.3600
 8376SOL    HW226028   3.996   6.403   2.515  1.2140 -2.1143  0.5798
 8377SOL     OW26029   5.390   5.572   5.742  0.5572 -0.0323 -0.2752
 8377SOL    HW126030   5.314   5.637   5.731  0.9418  0.5426  0.4109
 8377SOL    HW226031   5.384   5.502   5.670  0.4884  1.1067 -1.4147
 8378SOL     OW26032   5.301   1.772   5.195  0.1477  0.5460  0.2180
 8378SOL    HW126033   5.339   1.807   5.281 -0.1592 -0.4295  0.7756
 8378SOL    HW226034   5.348   1.687   5.170  1.0981  1.4712 -1.2750
 8379SOL     OW26035   6.765   6.548   0.739  0.0147 -0.4749 -0.4147
 8379SOL    HW126036   6.809   6.472   0.692  0.6249  1.1356 -2.6228
 8379SOL    HW226037   6.765   6.629   0.679 -0.3312  1.3699  1.9235
 8380SOL     OW26038   5.356   6.570   4.750  0.4963  0.5251 -0.5447
 8380SOL    HW126039   5.258   6.588   4.755  0.7636  2.2505 -0.9983
 8380SOL    HW226040   5.381   6.545   4.657  0.4523 -0.2592 -0.3550
 8381SOL     OW26041   6.106   5.251   2.629  0.3909 -0.6430 -0.0823
 8381SOL    HW126042   6.056   5.329   2.668  0.7689 -0.0786 -0.6992
 8381SOL    HW226043   6.062   5.166   2.657 -0.5586 -0.1785 -0.1231
 8382SOL     OW26044   6.160   6.137   6.134  0.2272  0.6889  0.3940
 8382SOL    HW126045   6.215   6.074   6.188  0.0994  0.2441  0.0092
 8382SOL    HW226046   6.084   6.088   6.092  1.0092  0.7665 -1.1809
 8383SOL     OW26047   0.334   6.906   3.259  0.5156  0.3823  0.3140
 8383SOL    HW126048   0.254   6.851   3.239  0.7186 -0.0610  0.6960
 8383SOL    HW226049   0.306   6.994   3.298  0.2249  0.0425  0.8909
 8384SOL     OW26050   6.035   0.835   5.507 -0.4139 -0.2796  0.9238
 8384SOL    HW126051   5.954   0.804   5.456  0.0388 -1.0253  0.6412
 8384SOL    HW226052   6.110   0.771   5.491  0.5415  0.9413  0.3699
 8385SOL     OW26053   1.765   5.083   4.379 -0.2328 -0.2751 -0.0647
 8385SOL    HW126054   1.787   4.997   4.426 -2.5726 -0.6751  0.4384
 8385SOL    HW226055   1.724   5.147   4.444 -0.8031  0.2670 -0.9361
 8386SOL     OW26056   4.810   1.797   5.159  0.0533 -0.1089  0.1898
 8386SOL    HW126057   4.907   1.811   5.138 -0.4603  0.2259 -2.2655
 8386SOL    HW226058   4.774   1.879   5.203  0.8287 -0.1798  0.9894
 8387SOL     OW26059   5.045   4.923   4.450 -0.6419  0.5112 -0.4911
 8387SOL    HW126060   4.991   4.970   4.520 -0.2163  1.1072 -0.5572
 8387SOL    HW226061   5.024   4.961   4.360  0.5986  1.4457 -0.4135
 8388SOL     OW26062   4.544   0.117   1.904  0.3022 -0.2030 -0.3281
 8388SOL    HW126063   4.618   0.066   1.948  1.5182  1.8027  0.0624
 8388SOL    HW226064   4.492   0.167   1.974 -0.1589  0.0033 -0.8141
 8389SOL     OW26065   0.791   2.051   4.348  0.3281  0.2375  0.2002
 8389SOL    HW126066   0.717   2.100   4.393  0.9807 -0.1645  1.7559
 8389SOL    HW226067   0.815   2.098   4.263 -1.0400  0.9104  0.1588
 8390SOL     OW26068   4.811   5.446   4.394  0.2343 -0.1450 -0.0106
 8390SOL    HW126069   4.861   5.498   4.325 -0.0200 -1.6263 -1.3680
 8390SOL    HW226070   4.864   5.365   4.420  0.1503  0.1871  1.2741
 8391SOL     OW26071   3.753   4.895   3.430  0.2007  0.1121 -0.9350
 8391SOL    HW126072   3.776   4.924   3.523  0.1419  0.4091 -1.0126
 8391SOL    HW226073   3.823   4.831   3.397 -0.4031 -0.9303 -0.2468
 8392SOL     OW26074   3.887   3.293   1.816 -0.1433 -0.3895  0.2075
 8392SOL    HW126075   3.790   3.300   1.790 -0.4481  0.0558  1.3701
 8392SOL    HW226076   3.903   3.349   1.897  1.7737  1.9522 -1.6757
 8393SOL     OW26077   1.903   4.779   3.999 -0.5503  0.2021  0.2408
 8393SOL    HW126078   1.907   4.716   3.920  1.1917  1.4765 -0.7731
 8393SOL    HW226079   1.820   4.834   3.994 -0.9737 -0.4525 -0.1126
 8394SOL     OW26080   3.028   2.139   6.463 -0.3508 -0.5407 -0.3797
 8394SOL    HW126081   3.030   2.087   6.549 -0.3581 -1.0515 -0.6794
 8394SOL    HW226082   2.989   2.229   6.478 -2.0555 -1.2853 -0.1957
 8395SOL     OW26083   6.949   0.091   1.984  0.3173 -0.7507 -0.7039
 8395SOL    HW126084   7.043   0.056   1.981  0.4864 -0.2672 -1.1215
 8395SOL    HW226085   6.892   0.039   1.921  0.3980 -0.7737 -0.7590
 8396SOL     OW26086   1.826   6.862   2.352 -0.1522 -0.0715 -0.8642
 8396SOL    HW126087   1.883   6.937   2.320 -1.1236  1.4311  0.7903
 8396SOL    HW226088   1.778   6.821   2.274  0.0497  1.3022 -1.7406
 8397SOL     OW26089   1.803   1.688   3.239  0.2161 -0.1378  0.3013
 8397SOL    HW126090   1.846   1.615   3.294 -0.1125 -0.2415  0.4241
 8397SOL    HW226091   1.750   1.647   3.166  1.3153  0.0179 -0.6103
 8398SOL     OW26092   3.615   6.796   6.048 -0.7997  0.9591 -0.2639
 8398SOL    HW126093   3.711   6.771   6.061 -1.0920  0.6232  1.4843
 8398SOL    HW226094   3.578   6.744   5.971  0.2549  0.6276 -0.5669
 8399SOL     OW26095   3.915   4.388   1.096 -0.0688 -0.6105 -0.7480
 8399SOL    HW126096   3.966   4.350   1.173 -0.2652  0.2266 -0.1945
 8399SOL    HW226097   3.864   4.315   1.051  1.2538 -1.3869 -1.0437
 8400SOL     OW26098   6.577   2.135   1.131  0.0922 -0.3766  0.0026
 8400SOL    HW126099   6.497   2.077   1.111  2.4674 -3.4556 -1.4379
 8400SOL    HW226100   6.591   2.199   1.056 -1.6023  1.0140  0.8077
 8401SOL     OW26101   5.190   5.425   4.315 -0.0805 -0.7383  0.0464
 8401SOL    HW126102   5.183   5.457   4.410  3.1196 -0.0594  0.1712
 8401SOL    HW226103   5.113   5.462   4.262 -1.1554  0.0764  2.0416
 8402SOL     OW26104   4.302   3.794   1.774  0.3799  0.1953  0.0661
 8402SOL    HW126105   4.328   3.743   1.692 -0.6872  0.9575 -0.7713
 8402SOL    HW226106   4.348   3.882   1.775 -0.7770  0.8398 -0.5536
 8403SOL     OW26107   3.127   1.830   0.454  0.0912  0.1911 -0.5803
 8403SOL    HW126108   3.131   1.905   0.519  0.9007 -1.3536  1.2677
 8403SOL    HW226109   3.218   1.788   0.445 -0.7088 -1.8318  0.0774
 8404SOL     OW26110   0.931   1.732   3.994  0.1239 -0.2686 -0.3486
 8404SOL    HW126111   0.955   1.637   4.010 -0.4306 -0.7506 -2.1664
 8404SOL    HW226112   0.994   1.792   4.043 -0.3768 -1.5521  1.9917
 8405SOL     OW26113   0.966   5.934   5.918  0.3174 -0.2609  0.2948
 8405SOL    HW126114   1.052   5.959   5.872 -0.6033  0.1528 -1.2903
 8405SOL    HW226115   0.889   5.969   5.865 -0.8590 -1.0862  1.4034
 8406SOL     OW26116   5.835   5.012   3.889 -0.1747 -0.9297 -0.0037
 8406SOL    HW126117   5.753   5.011   3.947 -0.1135 -0.0208  0.0997
 8406SOL    HW226118   5.900   5.079   3.924 -0.3352 -0.0215 -1.4004
 8407SOL     OW26119   2.210   6.953   1.869  0.7291  0.4446  0.1003
 8407SOL    HW126120   2.113   6.961   1.893  0.2832 -2.2339 -0.4177
 8407SOL    HW226121   2.227   6.862   1.831  3.5240  0.7584  0.3843
 8408SOL     OW26122   6.610   1.909   5.046 -0.5789 -0.2165 -0.0667
 8408SOL    HW126123   6.537   1.942   5.107 -1.0889 -0.3681 -0.5830
 8408SOL    HW226124   6.623   1.974   4.971 -1.9381 -1.3735 -1.3713
 8409SOL     OW26125   0.092   0.991   3.632  0.1700  0.0667 -0.4356
 8409SOL    HW126126   0.016   0.933   3.602  1.2828 -1.4884 -0.3550
 8409SOL    HW226127   0.103   0.984   3.731  0.4804  0.2009 -0.4589
 8410SOL     OW26128   0.215   2.285   4.800 -0.0906 -0.2737 -0.2981
 8410SOL    HW126129   0.175   2.194   4.798  0.8223 -0.7012  0.4903
 8410SOL    HW226130   0.271   2.296   4.882 -0.4805  1.1276 -0.1894
 8411SOL     OW26131   4.573   3.283   1.292  0.3392  0.3593  0.0182
 8411SOL    HW126132   4.628   3.325   1.221  0.9903  1.3366  1.0583
 8411SOL    HW226133   4.598   3.322   1.381 -1.1230 -0.1093  0.6719
 8412SOL     OW26134   2.767   1.529   7.017 -0.1247 -0.7684 -0.0667
 8412SOL    HW126135   2.853   1.504   6.974  0.0029  0.6087 -0.6877
 8412SOL    HW226136   2.760   1.629   7.020 -2.0269 -0.8410 -0.7200
 8413SOL     OW26137   0.584   2.339   0.182  0.0097  0.4112 -0.1122
 8413SOL    HW126138   0.667   2.301   0.142 -0.1316  1.2660 -1.3007
 8413SOL    HW226139   0.538   2.269   0.237  0.5577 -0.6403 -0.9494
 8414SOL     OW26140   5.966   2.172   1.035 -0.5884  0.0821 -0.4101
 8414SOL    HW126141   5.905   2.178   1.114  0.2948 -0.5405  0.3344
 8414SOL    HW226142   6.048   2.226   1.052 -0.7282  0.5673 -1.2286
 8415SOL     OW26143   6.269   4.309   0.850  0.2019  0.2988 -0.4624
 8415SOL    HW126144   6.309   4.356   0.929  0.5169 -0.0045 -0.4386
 8415SOL    HW226145   6.341   4.263   0.799 -0.1214 -0.2526 -0.4257
 8416SOL     OW26146   6.674   1.707   5.606 -0.2391 -0.2935 -0.4287
 8416SOL    HW126147   6.612   1.697   5.684  1.0853 -0.2559  0.6700
 8416SOL    HW226148   6.629   1.674   5.523 -1.1117 -1.9037  0.6208
 8417SOL     OW26149   5.557   0.122   1.367  0.6613 -0.6115 -0.7215
 8417SOL    HW126150   5.606   0.151   1.450  0.6045 -1.7730 -0.2699
 8417SOL    HW226151   5.459   0.119   1.386  0.6582 -0.9896 -0.7881
 8418SOL     OW26152   0.759   0.379   3.136  0.1364  0.1609  0.3908
 8418SOL    HW126153   0.767   0.475   3.110 -1.8845  0.5550  1.0157
 8418SOL    HW226154   0.752   0.372   3.236  0.6110 -0.6744  0.3747
 8419SOL     OW26155   1.914   2.958   1.428 -0.2933  0.1494 -0.4001
 8419SOL    HW126156   1.992   2.903   1.458  0.4515  1.2377 -0.2715
 8419SOL    HW226157   1.923   2.978   1.331 -0.1826  0.6247 -0.2953
 8420SOL     OW26158   0.948   2.563   5.556  0.2459 -0.3995 -0.1058
 8420SOL    HW126159   0.937   2.550   5.655  0.1227  0.6785  0.0274
 8420SOL    HW226160   1.043   2.544   5.530 -0.3245 -3.5937 -0.2732
 8421SOL     OW26161   2.773   5.538   2.864 -0.2327 -0.7347  0.5564
 8421SOL    HW126162   2.819   5.604   2.804  0.4510 -1.4048  0.3389
 8421SOL    HW226163   2.835   5.464   2.887 -0.6926 -0.8096  1.6068
 8422SOL     OW26164   3.297   1.430   5.224  0.5729 -0.0916 -0.9336
 8422SOL    HW126165   3.243   1.349   5.198 -1.5484  0.1678  2.0893
 8422SOL    HW226166   3.390   1.402   5.247 -0.3903 -1.9554  1.0626
 8423SOL     OW26167   0.637   5.363   0.220  0.3248  0.5617 -0.3369
 8423SOL    HW126168   0.731   5.396   0.216  0.2165  1.0013  0.4046
 8423SOL    HW226169   0.576   5.438   0.245 -0.1234  0.1243 -0.0775
 8424SOL     OW26170   4.761   3.136   6.711  0.4452 -0.1962 -0.0982
 8424SOL    HW126171   4.688   3.085   6.664  0.6668 -1.0462  0.4420
 8424SOL    HW226172   4.837   3.073   6.732  1.3097  0.6619 -0.5963
 8425SOL     OW26173   3.255   5.738   4.216  0.1734  0.1722  0.2543
 8425SOL    HW126174   3.174   5.782   4.255  1.2407  1.4637  1.1106
 8425SOL    HW226175   3.257   5.642   4.242 -1.6270 -0.1655 -0.6907
 8426SOL     OW26176   4.427   2.472   3.382  0.4056  0.1469 -0.3858
 8426SOL    HW126177   4.395   2.526   3.304 -1.2215 -0.6548 -0.3136
 8426SOL    HW226178   4.520   2.500   3.406  0.5446  1.1388 -1.9342
 8427SOL     OW26179   4.329   3.223   6.783 -0.2450 -0.5968  0.7168
 8427SOL    HW126180   4.304   3.135   6.744 -2.2823  0.6801 -1.0936
 8427SOL    HW226181   4.258   3.253   6.846 -0.2394  0.3074  0.3101
 8428SOL     OW26182   0.084   4.492   3.393 -0.1162  0.7309 -0.5902
 8428SOL    HW126183   0.145   4.417   3.369  0.0485  0.3976  0.7427
 8428SOL    HW226184   0.136   4.577   3.396  0.0481  0.6303 -0.5571
 8429SOL     OW26185   0.951   2.741   4.175  0.1599  0.8239  0.5846
 8429SOL    HW126186   0.963   2.838   4.154  0.8853  0.6346  0.1154
 8429SOL    HW226187   0.961   2.727   4.274  1.6713  1.0068  0.4864
 8430SOL     OW26188   1.901   6.295   0.071  0.6356  0.0227 -0.3290
 8430SOL    HW126189   1.827   6.352   0.035  1.5421  0.4031 -1.6542
 8430SOL    HW226190   1.885   6.200   0.045 -0.3648 -0.2192  1.0457
 8431SOL     OW26191   6.502   3.449   0.185 -0.1586  0.0548 -0.1442
 8431SOL    HW126192   6.539   3.458   0.093  2.7696 -0.2089  0.8971
 8431SOL    HW226193   6.481   3.539   0.222 -0.2776  0.2386 -0.6569
 8432SOL     OW26194   6.153   4.655   4.340  0.0020  0.8574 -0.0433
 8432SOL    HW126195   6.204   4.654   4.426 -0.7217 -1.4528  0.4150
 8432SOL    HW226196   6.200   4.598   4.272 -0.4786  1.0383 -0.5354
 8433SOL     OW26197   2.874   4.770   2.771  0.5363  0.4925 -0.0548
 8433SOL    HW126198   2.807   4.713   2.721  0.7507  0.6752 -0.5577
 8433SOL    HW226199   2.864   4.865   2.743  0.8517  0.5549  0.0424
 8434SOL     OW26200   6.907   4.086   1.184  0.5554  0.2368 -0.0768
 8434SOL    HW126201   6.982   4.081   1.250 -0.1343 -0.2142  0.6855
 8434SOL    HW226202   6.850   4.005   1.192  0.4924  0.1357 -1.2872
 8435SOL     OW26203   6.878   3.312   6.178 -0.4652  0.1323 -0.3393
 8435SOL    HW126204   6.810   3.378   6.148 -0.3997  0.1291 -0.4960
 8435SOL    HW226205   6.884   3.314   6.278  0.2618  1.0970 -0.3843
 8436SOL     OW26206   0.665   2.185   2.946 -0.3482  0.2871  0.0018
 8436SOL    HW126207   0.727   2.225   3.013 -0.4957  0.5061  0.0076
 8436SOL    HW226208   0.710   2.107   2.902 -0.8232 -0.8798  1.4914
 8437SOL     OW26209   6.433   6.709   0.552 -0.4337  0.1829 -0.3363
 8437SOL    HW126210   6.343   6.749   0.569  0.3377  1.1816  1.7779
 8437SOL    HW226211   6.443   6.625   0.605  0.1125  0.4374 -0.0312
 8438SOL     OW26212   1.793   3.991   0.713  0.0786 -0.0908 -0.6448
 8438SOL    HW126213   1.712   4.047   0.698 -0.1748  1.4550  4.7033
 8438SOL    HW226214   1.875   4.047   0.706 -0.0938  0.9229  3.2660
 8439SOL     OW26215   0.417   5.806   1.473 -0.7587 -0.2807 -0.0213
 8439SOL    HW126216   0.352   5.752   1.420  1.0674 -0.8088 -1.8259
 8439SOL    HW226217   0.457   5.750   1.546  0.8286 -1.3422 -1.6356
 8440SOL     OW26218   3.088   4.866   5.178  0.8091  0.0577  0.1134
 8440SOL    HW126219   3.023   4.800   5.215  0.2112  0.1671 -0.7044
 8440SOL    HW226220   3.074   4.955   5.222 -0.6138  0.4622 -1.0427
 8441SOL     OW26221   2.908   4.841   6.820  0.1989 -0.0350 -0.3471
 8441SOL    HW126222   2.881   4.751   6.852  1.8107 -0.1286  0.8838
 8441SOL    HW226223   2.880   4.853   6.725 -1.6030 -1.1301  0.0152
 8442SOL     OW26224   1.292   5.336   0.598  0.2023  0.2813  0.2693
 8442SOL    HW126225   1.268   5.433   0.596  0.1198  0.2611  0.2485
 8442SOL    HW226226   1.391   5.326   0.610  0.1626  0.3647  0.6801
 8443SOL     OW26227   6.950   1.148   4.960  0.6297  0.1723  0.2573
 8443SOL    HW126228   6.908   1.203   4.887  2.1585  1.7045  0.4615
 8443SOL    HW226229   6.993   1.067   4.920  1.6300  1.1015 -0.6009
 8444SOL     OW26230   6.071   5.735   1.082  0.1240  0.4732 -0.4250
 8444SOL    HW126231   6.030   5.646   1.100  2.4062 -0.7645 -0.9035
 8444SOL    HW226232   6.018   5.784   1.014 -0.1406 -1.3673 -1.6084
 8445SOL     OW26233   6.811   0.318   4.572  0.4491 -0.1319 -0.3933
 8445SOL    HW126234   6.801   0.414   4.546  1.3374 -0.3856 -1.7406
 8445SOL    HW226235   6.720   0.280   4.590  0.1873  1.4595  2.2076
 8446SOL     OW26236   6.639   1.015   5.817  0.4615 -0.2084 -0.1476
 8446SOL    HW126237   6.592   1.101   5.796  2.4637  0.9527 -0.0654
 8446SOL    HW226238   6.607   0.944   5.754  0.7821  1.3019 -2.1093
 8447SOL     OW26239   0.142   1.871   6.873  0.1678 -0.9206 -0.1746
 8447SOL    HW126240   0.152   1.889   6.971 -0.3635 -0.5351 -0.1837
 8447SOL    HW226241   0.145   1.958   6.823 -1.9911 -0.8500 -0.2714
 8448SOL     OW26242   3.947   5.891   3.185  0.2801 -0.3993  0.5649
 8448SOL    HW126243   4.043   5.889   3.157  1.1740  0.6546  3.2880
 8448SOL    HW226244   3.904   5.974   3.147  1.0726  0.2829  1.1206
 8449SOL     OW26245   6.473   0.067   0.270  0.1647  0.2729 -0.1072
 8449SOL    HW126246   6.402   0.004   0.240 -0.0793  0.6296 -0.2849
 8449SOL    HW226247   6.469   0.078   0.370 -1.4343  1.9377 -0.3035
 8450SOL     OW26248   3.566   0.691   4.865  0.1199 -0.4866 -0.3638
 8450SOL    HW126249   3.535   0.646   4.948  1.6046 -0.6627  0.1195
 8450SOL    HW226250   3.532   0.641   4.785  1.6408 -2.4362  0.1634
 8451SOL     OW26251   2.319   6.241   6.288 -1.0031  0.1547 -0.4956
 8451SOL    HW126252   2.375   6.164   6.319  0.1667  1.2520  0.2093
 8451SOL    HW226253   2.365   6.327   6.309 -2.0239  1.0596 -1.7634
 8452SOL     OW26254   4.137   1.437   5.958 -0.2036  0.5670  0.2197
 8452SOL    HW126255   4.236   1.435   5.965 -0.1757  1.7835  0.3691
 8452SOL    HW226256   4.107   1.371   5.889  0.8177  1.1699 -0.8335
 8453SOL     OW26257   5.294   3.274   4.848 -0.6223  0.6058 -0.1262
 8453SOL    HW126258   5.206   3.230   4.833 -0.8660  1.3799 -1.0237
 8453SOL    HW226259   5.283   3.374   4.846  0.2773  0.7139 -0.2984
 8454SOL     OW26260   2.900   1.606   5.380  0.6907 -0.1442 -0.0788
 8454SOL    HW126261   2.816   1.657   5.402  1.0015  0.2625  0.1891
 8454SOL    HW226262   2.967   1.620   5.453  3.1524  4.2092 -2.6951
 8455SOL     OW26263   4.233   0.911   5.381  0.6043  0.2750 -0.1951
 8455SOL    HW126264   4.331   0.894   5.384  0.5160 -0.2526 -0.0500
 8455SOL    HW226265   4.189   0.841   5.325  0.1968 -0.1253  0.6000
 8456SOL     OW26266   2.314   0.349   4.917  0.2160 -0.0490  0.3285
 8456SOL    HW126267   2.291   0.336   5.014 -1.2622 -0.0698  0.0000
 8456SOL    HW226268   2.292   0.265   4.867  1.8678 -0.3817  0.0958
 8457SOL     OW26269   0.820   6.966   1.566 -0.2333  0.3321 -0.0197
 8457SOL    HW126270   0.785   6.897   1.503  0.2116 -0.3464  0.4602
 8457SOL    HW226271   0.814   7.057   1.523 -0.7749 -0.0041 -0.6752
 8458SOL     OW26272   2.779   4.731   3.039  0.8125 -0.2358  0.5134
 8458SOL    HW126273   2.718   4.804   3.006 -1.4467 -1.4142  1.8527
 8458SOL    HW226274   2.828   4.692   2.962  0.1497  1.0083 -0.5862
 8459SOL     OW26275   0.251   5.889   3.229  0.2493  0.3619  0.0443
 8459SOL    HW126276   0.217   5.856   3.141 -0.6637 -0.2922  0.6291
 8459SOL    HW226277   0.339   5.935   3.215  0.0853  0.3344 -1.2124
 8460SOL     OW26278   3.489   4.120   2.649  0.2543  0.4319  0.4950
 8460SOL    HW126279   3.503   4.084   2.557  0.8448  1.8583  0.0055
 8460SOL    HW226280   3.574   4.116   2.700  0.3797  1.2961  0.3652
 8461SOL     OW26281   4.452   5.577   2.526 -1.1905 -0.1785  0.3453
 8461SOL    HW126282   4.464   5.672   2.497 -0.9763 -0.3033  0.0171
 8461SOL    HW226283   4.455   5.517   2.446  0.3683 -0.6217  0.6877
 8462SOL     OW26284   5.627   5.342   4.380 -0.0892  0.2123  0.0114
 8462SOL    HW126285   5.716   5.383   4.396  0.5279 -0.2553 -1.9376
 8462SOL    HW226286   5.566   5.409   4.337  0.2204 -0.2356 -1.1604
 8463SOL     OW26287   3.674   6.426   3.149 -0.1898  0.3370  0.2471
 8463SOL    HW126288   3.670   6.350   3.215  0.6883 -0.5107 -0.6385
 8463SOL    HW226289   3.616   6.405   3.071 -2.0238  1.7858  1.1219
 8464SOL     OW26290   1.084   5.327   3.572 -0.1911  0.1294  0.2673
 8464SOL    HW126291   1.046   5.334   3.480 -0.8008  0.9176  0.5676
 8464SOL    HW226292   1.010   5.336   3.640  0.3443  0.2798  0.8433
 8465SOL     OW26293   5.622   3.632   0.556 -0.0368 -0.1280  0.3182
 8465SOL    HW126294   5.598   3.550   0.608  2.2469 -0.1703  1.4401
 8465SOL    HW226295   5.613   3.712   0.615 -0.4100  0.2013 -0.1808
 8466SOL     OW26296   5.979   6.198   6.422  0.3734  0.8745  0.5393
 8466SOL    HW126297   5.997   6.207   6.520  0.4208 -0.6942  0.6962
 8466SOL    HW226298   5.956   6.103   6.400 -0.1772  1.3010 -0.8934
 8467SOL     OW26299   6.539   0.527   1.202 -0.0295 -0.5920  0.3981
 8467SOL    HW126300   6.452   0.565   1.232  0.0379  0.0301 -0.1785
 8467SOL    HW226301   6.588   0.490   1.280 -2.1536 -3.8237  0.3855
 8468SOL     OW26302   2.578   0.629   3.306 -0.3494  0.1058 -0.0964
 8468SOL    HW126303   2.557   0.680   3.389  0.6343  0.8313 -0.2749
 8468SOL    HW226304   2.604   0.535   3.329  2.2137  0.9232  0.6764
 8469SOL     OW26305   6.577   2.832   1.981  0.0672 -0.4686 -0.7291
 8469SOL    HW126306   6.536   2.745   1.955  0.9418 -1.4628  1.0117
 8469SOL    HW226307   6.521   2.908   1.946 -1.6669 -1.7285 -0.8045
 8470SOL     OW26308   3.327   3.497   4.278 -0.1447  0.2048 -0.3072
 8470SOL    HW126309   3.290   3.480   4.370  2.2051  0.8852  0.8301
 8470SOL    HW226310   3.251   3.512   4.214 -1.9179 -1.8661  1.1391
 8471SOL     OW26311   2.652   2.205   3.576 -0.4905 -0.3899  0.6871
 8471SOL    HW126312   2.590   2.164   3.642 -0.4291  1.3762  1.9145
 8471SOL    HW226313   2.602   2.228   3.493 -0.8392 -1.5211  0.5693
 8472SOL     OW26314   5.073   1.366   5.141 -0.5318  0.4123  0.8290
 8472SOL    HW126315   5.050   1.454   5.183 -1.1226  0.6734 -0.0212
 8472SOL    HW226316   5.143   1.380   5.071 -1.4617  0.4035 -0.1304
 8473SOL     OW26317   2.464   5.240   1.202  0.0245 -0.0860 -0.2963
 8473SOL    HW126318   2.526   5.170   1.168  0.3971 -0.4552  1.0921
 8473SOL    HW226319   2.408   5.203   1.276  0.8899  1.2955  1.1226
 8474SOL     OW26320   2.410   6.450   4.906 -0.0663 -0.2523 -0.5281
 8474SOL    HW126321   2.359   6.505   4.841 -0.7038 -0.8264 -0.5213
 8474SOL    HW226322   2.402   6.490   4.998  3.9388  2.7871 -1.2551
 8475SOL     OW26323   2.555   5.227   5.279 -0.0225 -0.6533  0.3311
 8475SOL    HW126324   2.601   5.159   5.337  1.5711 -1.0764 -1.3320
 8475SOL    HW226325   2.484   5.182   5.226 -0.0704 -0.6875  0.4234
 8476SOL     OW26326   2.790   5.013   1.400 -0.4707 -0.1927  0.0851
 8476SOL    HW126327   2.829   4.943   1.342  0.3225  0.2482  0.0751
 8476SOL    HW226328   2.852   5.092   1.405  0.2013 -0.7654  2.6408
 8477SOL     OW26329   4.113   6.935   0.726 -0.5434 -0.4100 -0.1194
 8477SOL    HW126330   4.034   6.875   0.740 -1.4842  0.4362 -1.5362
 8477SOL    HW226331   4.134   6.939   0.628 -0.4267  1.4662 -0.0373
 8478SOL     OW26332   3.418   4.891   1.120  0.1165 -0.2082 -0.2652
 8478SOL    HW126333   3.343   4.841   1.164 -1.5507  1.4450 -1.1010
 8478SOL    HW226334   3.457   4.835   1.047 -0.9549 -0.7169 -0.4630
 8479SOL     OW26335   6.793   4.556   2.014 -0.4064  0.1063 -0.4320
 8479SOL    HW126336   6.824   4.649   1.992 -0.6085  0.6490  1.3498
 8479SOL    HW226337   6.843   4.490   1.959  2.5874  1.0524  0.9252
 8480SOL     OW26338   4.752   6.526   4.928 -0.2632  0.0392  0.0848
 8480SOL    HW126339   4.838   6.573   4.909 -0.3017  0.2250  0.3719
 8480SOL    HW226340   4.678   6.593   4.935 -0.8916 -0.2630 -2.5752
 8481SOL     OW26341   0.546   2.062   4.071 -0.2115 -0.1381  0.2849
 8481SOL    HW126342   0.447   2.075   4.068 -0.1056  1.2317  1.6414
 8481SOL    HW226343   0.592   2.150   4.058  0.7108 -0.0227  3.4702
 8482SOL     OW26344   1.206   2.566   5.474 -0.3774  0.4234  0.5522
 8482SOL    HW126345   1.305   2.567   5.490 -0.3058  1.0120  0.0939
 8482SOL    HW226346   1.188   2.537   5.380 -0.6331  0.6051  0.5463
 8483SOL     OW26347   5.573   1.254   0.490 -0.6731 -0.1171  0.1205
 8483SOL    HW126348   5.635   1.241   0.412 -0.4969 -1.1348  0.4189
 8483SOL    HW226349   5.627   1.279   0.571 -0.7384 -0.2348  0.1993
 8484SOL     OW26350   5.620   0.369   5.176 -0.0322 -0.2269  0.4487
 8484SOL    HW126351   5.590   0.371   5.081  2.5314 -1.1338 -0.4884
 8484SOL    HW226352   5.599   0.456   5.220 -0.0926  0.7078 -1.3587
 8485SOL     OW26353   6.404   0.871   4.930  0.0279 -0.2258  0.0008
 8485SOL    HW126354   6.419   0.808   5.006  0.0175  1.1517  1.1757
 8485SOL    HW226355   6.430   0.964   4.957 -0.4527  0.3885 -1.5105
 8486SOL     OW26356   0.803   6.107   5.218  0.0840  0.3127 -0.3824
 8486SOL    HW126357   0.811   6.008   5.229 -0.3408  0.2623 -0.4986
 8486SOL    HW226358   0.889   6.143   5.180 -0.0048 -0.1124 -1.0133
 8487SOL     OW26359   5.726   6.796   3.953  0.3366  0.0843 -0.2332
 8487SOL    HW126360   5.819   6.762   3.936 -0.1623 -1.2857 -0.3490
 8487SOL    HW226361   5.678   6.804   3.865 -0.4173 -1.5435  0.0012
 8488SOL     OW26362   4.568   0.297   4.525 -0.1363 -0.5933 -0.0014
 8488SOL    HW126363   4.544   0.383   4.569  0.2314 -0.4743 -0.0262
 8488SOL    HW226364   4.485   0.245   4.504 -0.5364  0.8185 -2.1354
 8489SOL     OW26365   3.228   1.128   4.546 -0.7560  0.4280 -0.2216
 8489SOL    HW126366   3.216   1.150   4.449 -0.9601 -0.1631 -0.3361
 8489SOL    HW226367   3.255   1.032   4.555  0.3202  0.7726  0.2558
 8490SOL     OW26368   4.760   5.695   0.401 -0.5625 -0.5617 -0.2222
 8490SOL    HW126369   4.809   5.614   0.435 -1.1628 -0.5514  0.7191
 8490SOL    HW226370   4.823   5.773   0.398 -0.9260  0.0088  3.0846
 8491SOL     OW26371   5.904   2.886   2.984 -0.3863  0.1509 -0.1464
 8491SOL    HW126372   5.889   2.961   2.920 -1.1438 -0.3925 -0.6164
 8491SOL    HW226373   5.899   2.799   2.935  0.9697 -0.2121  0.2953
 8492SOL     OW26374   2.551   3.235   0.757 -0.1334 -0.1000  0.9121
 8492SOL    HW126375   2.618   3.308   0.768  0.4571 -0.7413  1.7608
 8492SOL    HW226376   2.558   3.197   0.665  0.0957  0.3960  0.7224
 8493SOL     OW26377   2.232   6.405   1.446  0.3628  0.1714 -0.7400
 8493SOL    HW126378   2.205   6.314   1.416 -0.0455  0.2361 -0.5737
 8493SOL    HW226379   2.319   6.430   1.403  1.6129 -1.1742  0.8757
 8494SOL     OW26380   6.904   1.576   1.258 -0.2246  0.6959 -0.0110
 8494SOL    HW126381   6.824   1.599   1.314 -0.6493  0.1680 -0.3913
 8494SOL    HW226382   6.925   1.479   1.268 -0.9204  0.3592 -1.5164
 8495SOL     OW26383   0.291   5.652   7.021 -0.7899  0.3882 -0.1215
 8495SOL    HW126384   0.388   5.678   7.022 -0.6266 -0.1750  1.3218
 8495SOL    HW226385   0.240   5.710   7.085 -2.1567  3.0919 -3.3368
 8496SOL     OW26386   3.782   3.610   2.526 -0.3873 -0.1851  0.3466
 8496SOL    HW126387   3.787   3.522   2.573  1.4643 -1.7387 -2.5529
 8496SOL    HW226388   3.705   3.609   2.462  1.1837 -0.8121 -1.6252
 8497SOL     OW26389   0.521   1.372   4.904 -0.6123 -0.2516 -0.3200
 8497SOL    HW126390   0.505   1.454   4.849 -0.4595  0.1590  0.2358
 8497SOL    HW226391   0.619   1.352   4.905 -0.6332 -0.3537 -0.3283
 8498SOL     OW26392   2.385   2.549   3.131  0.5119  0.5683  0.5018
 8498SOL    HW126393   2.408   2.547   3.228 -0.1014  0.9697  0.6623
 8498SOL    HW226394   2.307   2.611   3.116 -0.0650 -0.2786 -0.1023
 8499SOL     OW26395   5.421   2.339   4.673 -0.1086 -0.3468 -0.1029
 8499SOL    HW126396   5.331   2.383   4.668 -0.5484 -1.2356 -0.1653
 8499SOL    HW226397   5.433   2.277   4.596  0.8263  0.2410 -0.4426
 8500SOL     OW26398   3.773   1.921   0.801 -0.3565 -0.3659 -0.3859
 8500SOL    HW126399   3.813   1.987   0.737  1.3399 -2.6521 -1.8549
 8500SOL    HW226400   3.674   1.921   0.792 -0.2391  0.3494 -2.0350
 8501SOL     OW26401   3.100   6.149   6.559  0.2039 -0.2088  0.0996
 8501SOL    HW126402   3.068   6.138   6.653 -1.9231 -0.6897 -0.6121
 8501SOL    HW226403   3.163   6.226   6.554  0.0357  0.0873  1.8402
 8502SOL     OW26404   0.849   2.777   1.579 -0.4858 -0.3652  0.4118
 8502SOL    HW126405   0.781   2.705   1.590 -0.1639 -0.8806 -0.8082
 8502SOL    HW226406   0.884   2.776   1.485  0.6941  0.3516  0.8253
 8503SOL     OW26407   1.733   4.875   6.311 -0.2720  0.9454  0.2174
 8503SOL    HW126408   1.693   4.931   6.384  0.7271  0.4043  1.2097
 8503SOL    HW226409   1.821   4.913   6.285 -0.7066  1.2396 -0.8591
 8504SOL     OW26410   5.190   2.276   1.009 -0.0749  1.1419  0.1527
 8504SOL    HW126411   5.188   2.376   1.019  1.3331  1.0618  1.7995
 8504SOL    HW226412   5.285   2.246   1.004 -0.5010 -0.0896 -0.8630
 8505SOL     OW26413   2.373   2.061   3.677  0.2514 -0.2707 -0.2151
 8505SOL    HW126414   2.291   2.075   3.733 -0.2168  1.4313 -1.2227
 8505SOL    HW226415   2.401   1.966   3.682 -2.3033 -1.1298 -0.5161
 8506SOL     OW26416   6.048   4.637   1.945  0.1764  0.1211 -0.6429
 8506SOL    HW126417   6.125   4.662   1.886  0.3938  1.1737  0.0472
 8506SOL    HW226418   6.082   4.596   2.029  0.0003  0.5406 -0.3582
 8507SOL     OW26419   6.221   1.076   5.643  0.3033  0.0646  0.9014
 8507SOL    HW126420   6.280   1.025   5.580  1.7760  0.1871  2.1163
 8507SOL    HW226421   6.140   1.109   5.594 -0.5951 -3.1634 -0.0204
 8508SOL     OW26422   4.495   2.958   1.074 -0.1958  0.0110  0.3364
 8508SOL    HW126423   4.440   2.909   1.142 -0.1582 -0.8900 -0.2647
 8508SOL    HW226424   4.553   3.025   1.120 -0.1431 -0.6082  1.1995
 8509SOL     OW26425   1.516   4.004   0.018  0.2059  0.0631 -0.1155
 8509SOL    HW126426   1.463   4.058   0.084  0.7465  2.0661 -1.2479
 8509SOL    HW226427   1.613   4.024   0.029  0.3744 -0.2668 -0.9459
 8510SOL     OW26428   6.239   4.959   6.505 -0.0096  0.1683 -0.3465
 8510SOL    HW126429   6.327   5.004   6.487  0.4387 -0.1448  0.9562
 8510SOL    HW226430   6.255   4.875   6.557 -1.1209  0.3985  0.3868
 8511SOL     OW26431   3.729   1.294   0.938 -0.0102 -0.1550  0.4637
 8511SOL    HW126432   3.823   1.306   0.970 -0.2514 -0.5229  1.3540
 8511SOL    HW226433   3.695   1.206   0.971 -0.4924 -0.2619 -0.3036
 8512SOL     OW26434   2.476   1.280   6.713  0.2351 -0.1362  0.4232
 8512SOL    HW126435   2.391   1.228   6.717 -0.3830  0.8990  1.0758
 8512SOL    HW226436   2.479   1.346   6.788  1.5077  0.0051  0.2702
 8513SOL     OW26437   6.138   0.158   4.794  0.4138  0.0478  0.2887
 8513SOL    HW126438   6.199   0.227   4.831  0.3033 -0.7769  2.1514
 8513SOL    HW226439   6.104   0.187   4.704  2.4515  1.1275 -0.1830
 8514SOL     OW26440   6.658   3.803   4.581  0.5662 -0.4639  0.6742
 8514SOL    HW126441   6.641   3.863   4.659 -0.9117  0.6277 -0.4305
 8514SOL    HW226442   6.604   3.720   4.590 -0.0106 -0.1039  0.5739
 8515SOL     OW26443   3.484   6.259   5.985 -0.7382 -0.4874 -0.7843
 8515SOL    HW126444   3.556   6.302   5.932  1.4594 -0.6925  1.8474
 8515SOL    HW226445   3.451   6.177   5.936 -0.3132  0.4256 -2.7047
 8516SOL     OW26446   6.596   5.375   4.220  0.9101  0.1891  0.2327
 8516SOL    HW126447   6.530   5.364   4.295 -0.0180  1.5015 -0.3427
 8516SOL    HW226448   6.577   5.307   4.149  0.5815  0.1426  0.3621
 8517SOL     OW26449   1.513   1.976   6.630  0.5968 -0.2900 -0.1240
 8517SOL    HW126450   1.480   1.961   6.723 -0.2523 -0.9373 -0.5115
 8517SOL    HW226451   1.590   2.040   6.631 -0.2764  0.7765  0.8814
 8518SOL     OW26452   5.887   3.234   0.637 -0.5383 -0.1719  0.4307
 8518SOL    HW126453   5.969   3.284   0.664 -0.2066 -0.1844 -0.5452
 8518SOL    HW226454   5.827   3.294   0.584 -0.2486 -0.7290 -0.5397
 8519SOL     OW26455   2.808   0.187   0.447  0.1851  0.2663 -0.3875
 8519SOL    HW126456   2.828   0.265   0.507 -0.4087 -0.1650  0.3939
 8519SOL    HW226457   2.823   0.214   0.352  1.6737  0.7939 -0.0248
 8520SOL     OW26458   4.384   4.266   6.084 -0.9822  0.1573  0.3703
 8520SOL    HW126459   4.430   4.347   6.121 -0.9060  1.1109 -1.6313
 8520SOL    HW226460   4.342   4.290   5.996  0.7138 -2.4492 -1.2788
 8521SOL     OW26461   6.763   6.576   3.012 -0.1999 -0.6960 -0.3097
 8521SOL    HW126462   6.823   6.525   2.949 -2.0992 -0.2913 -2.5710
 8521SOL    HW226463   6.694   6.514   3.049 -0.3692 -0.5000 -0.2955
 8522SOL     OW26464   5.695   2.386   2.484 -0.0008  0.2045  0.5767
 8522SOL    HW126465   5.652   2.437   2.559 -0.0829  0.1693  0.5533
 8522SOL    HW226466   5.671   2.290   2.490  0.7021  0.0483  1.0127
 8523SOL     OW26467   4.801   5.851   6.682  0.1265 -0.0315 -0.2165
 8523SOL    HW126468   4.873   5.896   6.629  0.7856  0.1174  0.7791
 8523SOL    HW226469   4.820   5.862   6.779 -2.2416  1.6416  0.1381
 8524SOL     OW26470   0.750   2.306   5.165 -0.0333 -0.3248 -0.1404
 8524SOL    HW126471   0.743   2.382   5.230 -0.5566 -1.1962  0.8595
 8524SOL    HW226472   0.666   2.252   5.168 -1.4285  1.3627 -3.8466
 8525SOL     OW26473   6.017   3.173   3.583 -0.9632 -0.0643 -0.0613
 8525SOL    HW126474   6.108   3.171   3.623 -0.3225 -2.2697 -1.4051
 8525SOL    HW226475   5.954   3.221   3.644  0.1060 -2.3816  3.1764
 8526SOL     OW26476   1.541   4.676   5.633  0.1320 -0.2622 -0.3177
 8526SOL    HW126477   1.593   4.596   5.603  0.4895 -0.5626  1.0272
 8526SOL    HW226478   1.481   4.651   5.709  1.6098  1.0869  1.3967
 8527SOL     OW26479   2.681   6.329   5.267 -0.0071  0.2856 -0.3559
 8527SOL    HW126480   2.753   6.378   5.317  0.7508  1.1051 -2.1500
 8527SOL    HW226481   2.597   6.328   5.322  1.5363 -1.4664  2.2026
 8528SOL     OW26482   0.446   4.456   3.127 -0.1158 -0.5401 -0.2907
 8528SOL    HW126483   0.362   4.510   3.136 -0.3722 -0.9578 -0.1299
 8528SOL    HW226484   0.513   4.507   3.072  0.3680  0.7934  1.4345
 8529SOL     OW26485   5.078   3.833   5.440 -0.2542  0.1134  0.3652
 8529SOL    HW126486   5.170   3.795   5.442 -0.5163 -0.7916 -1.7817
 8529SOL    HW226487   5.081   3.929   5.412  0.0433  0.1434  0.5008
 8530SOL     OW26488   4.581   4.318   6.801 -0.5631  0.0218 -0.3019
 8530SOL    HW126489   4.636   4.327   6.884 -2.7357  1.1099  1.1008
 8530SOL    HW226490   4.505   4.255   6.817 -1.3218  0.6577 -1.2739
 8531SOL     OW26491   3.010   3.730   1.976 -0.0942 -0.3465  0.0255
 8531SOL    HW126492   2.938   3.686   2.030 -0.6170  1.1823  0.6411
 8531SOL    HW226493   3.099   3.693   2.002 -0.5246 -1.1482  0.3930
 8532SOL     OW26494   3.468   4.219   6.190  0.0084 -0.1199 -0.0193
 8532SOL    HW126495   3.512   4.287   6.248  1.2346 -1.0778  0.2030
 8532SOL    HW226496   3.481   4.243   6.094  1.3718 -0.5876  0.0343
 8533SOL     OW26497   1.710   3.782   2.724 -0.0194 -0.0901 -0.1269
 8533SOL    HW126498   1.737   3.693   2.760 -0.0258  0.2264  0.6618
 8533SOL    HW226499   1.656   3.831   2.792  1.0362  1.0352 -0.0627
 8534SOL     OW26500   4.042   5.197   4.527  0.2297 -0.0260 -0.0582
 8534SOL    HW126501   3.990   5.113   4.508  0.7614 -0.7860  1.7015
 8534SOL    HW226502   4.108   5.180   4.600  2.0405  1.2926 -1.2896
 8535SOL     OW26503   0.724   4.084   6.291  0.0204  0.1004 -1.2131
 8535SOL    HW126504   0.643   4.128   6.250 -0.6605 -1.1873 -1.2865
 8535SOL    HW226505   0.735   4.117   6.384 -0.2622  0.7047 -1.3833
 8536SOL     OW26506   2.597   2.486   1.050 -0.2877  0.2706  0.0992
 8536SOL    HW126507   2.517   2.522   1.098 -1.2080 -0.4624 -0.8148
 8536SOL    HW226508   2.678   2.493   1.108 -0.6112  2.7964  0.3402
 8537SOL     OW26509   6.114   1.705   6.906 -0.1286  0.0746  0.5094
 8537SOL    HW126510   6.107   1.715   6.807  1.1251 -1.3441  0.2407
 8537SOL    HW226511   6.062   1.625   6.935 -0.4140  0.4314  0.9975
 8538SOL     OW26512   5.746   4.925   1.111  0.5127  0.3183 -0.5599
 8538SOL    HW126513   5.686   4.871   1.052  0.7127 -1.2977  0.6406
 8538SOL    HW226514   5.828   4.871   1.133 -0.8321 -0.4036  3.4913
 8539SOL     OW26515   6.489   0.999   0.993  0.0026 -0.1321  0.3367
 8539SOL    HW126516   6.512   1.086   0.950  1.0052 -0.0116  1.0801
 8539SOL    HW226517   6.563   0.933   0.976 -0.4090 -0.6189  0.4034
 8540SOL     OW26518   1.417   4.511   2.490  0.6469  0.4923 -0.5958
 8540SOL    HW126519   1.339   4.473   2.442  2.3591 -2.0580 -1.5753
 8540SOL    HW226520   1.500   4.460   2.466  2.3100  1.7707  1.9070
 8541SOL     OW26521   4.124   1.919   5.440 -0.2859 -0.0818 -0.2812
 8541SOL    HW126522   4.152   1.823   5.453  1.4601  0.5500  1.0282
 8541SOL    HW226523   4.168   1.954   5.357 -1.3476 -0.5247 -1.0591
 8542SOL     OW26524   3.116   6.022   0.264  0.3550 -0.0183  0.5287
 8542SOL    HW126525   3.113   5.926   0.293  0.2147  0.5896  2.6757
 8542SOL    HW226526   3.198   6.037   0.210 -0.4722 -1.6993 -1.3260
 8543SOL     OW26527   4.353   5.697   2.141  0.0666  0.3761 -0.4502
 8543SOL    HW126528   4.432   5.648   2.179 -0.9332 -1.6899 -0.9282
 8543SOL    HW226529   4.323   5.767   2.206  3.9051  3.1800 -1.3578
 8544SOL     OW26530   0.627   1.817   4.327 -0.3718 -0.5661 -0.0477
 8544SOL    HW126531   0.688   1.896   4.328  1.4848 -1.9319  1.8218
 8544SOL    HW226532   0.606   1.790   4.421 -1.6648 -1.8125 -0.6533
 8545SOL     OW26533   0.249   3.212   3.650 -0.0795 -0.6070 -0.1196
 8545SOL    HW126534   0.349   3.214   3.652 -0.0650  0.2035 -1.0457
 8545SOL    HW226535   0.218   3.182   3.560 -0.6749 -0.1790 -0.0632
 8546SOL     OW26536   4.237   5.678   5.837  0.0777  0.0245  0.5857
 8546SOL    HW126537   4.175   5.749   5.871 -2.4861 -2.1107  0.7333
 8546SOL    HW226538   4.185   5.612   5.783  2.2863 -1.8544  0.6095
 8547SOL     OW26539   6.359   4.193   4.348  0.1436 -0.6357  0.4817
 8547SOL    HW126540   6.280   4.229   4.298 -0.4620 -2.4559  0.0487
 8547SOL    HW226541   6.391   4.110   4.303  0.6438 -1.4014  2.1927
 8548SOL     OW26542   3.578   4.556   5.302  0.4012  0.0753 -0.6097
 8548SOL    HW126543   3.512   4.626   5.276  0.6447  0.0059 -1.4239
 8548SOL    HW226544   3.530   4.470   5.319  0.0196  0.5696  1.0309
 8549SOL     OW26545   1.789   2.768   6.614  0.3890  0.2150 -0.1887
 8549SOL    HW126546   1.864   2.818   6.571  1.1312 -0.0056  0.8080
 8549SOL    HW226547   1.777   2.800   6.708 -0.3150 -0.2420 -0.1117
 8550SOL     OW26548   5.033   0.585   2.806  0.2140 -0.4249  0.1606
 8550SOL    HW126549   5.126   0.548   2.812  1.4782  2.1893 -1.0468
 8550SOL    HW226550   5.022   0.657   2.874 -1.9697 -2.4538  2.1166
 8551SOL     OW26551   3.822   0.767   5.217  0.0652  0.1901  0.2563
 8551SOL    HW126552   3.762   0.698   5.178 -1.5189  0.3331  2.2874
 8551SOL    HW226553   3.788   0.858   5.195  1.9843  0.4448 -2.1622
 8552SOL     OW26554   4.072   1.587   4.182  0.0763  0.6136  0.0673
 8552SOL    HW126555   4.049   1.616   4.275  0.6658  1.2415  0.0198
 8552SOL    HW226556   4.014   1.635   4.117  0.8725  1.5178  0.0056
 8553SOL     OW26557   6.240   2.938   6.340  0.9496 -0.0087  0.3800
 8553SOL    HW126558   6.334   2.954   6.308  1.1149  0.7737  1.2220
 8553SOL    HW226559   6.190   3.024   6.340 -0.1441 -0.6067 -1.1701
 8554SOL     OW26560   0.203   4.592   3.089 -0.1065 -0.3048  0.2622
 8554SOL    HW126561   0.192   4.667   3.154  1.5818 -0.1957  0.4692
 8554SOL    HW226562   0.150   4.611   3.006 -0.2388  0.7881  0.5861
 8555SOL     OW26563   0.783   0.404   3.450  0.0796 -0.0166 -0.6262
 8555SOL    HW126564   0.760   0.501   3.442  0.8749  0.0870 -2.0406
 8555SOL    HW226565   0.880   0.395   3.473 -0.6729 -0.4760  2.9026
 8556SOL     OW26566   0.529   1.569   0.650 -0.8250  0.5462 -0.4420
 8556SOL    HW126567   0.609   1.519   0.615 -1.6210 -0.3352 -1.0854
 8556SOL    HW226568   0.558   1.636   0.718  0.6824  1.5819 -2.0100
 8557SOL     OW26569   6.954   5.663   3.302  0.4105 -0.2311  0.1181
 8557SOL    HW126570   7.051   5.642   3.290  0.6292  0.9422 -0.3639
 8557SOL    HW226571   6.901   5.578   3.308  1.4436 -0.8794  0.2306
 8558SOL     OW26572   2.173   0.885   0.992 -0.1081 -0.3455  0.3990
 8558SOL    HW126573   2.186   0.788   0.970  3.2296  0.4109 -1.6022
 8558SOL    HW226574   2.172   0.897   1.091  1.6472 -2.2315  0.7085
 8559SOL     OW26575   1.730   0.796   0.651 -0.0365 -0.2848  0.2008
 8559SOL    HW126576   1.695   0.817   0.742 -0.0504 -0.0448  0.1403
 8559SOL    HW226577   1.829   0.784   0.655  1.0201  5.3804 -0.6421
 8560SOL     OW26578   3.586   4.403   1.719  0.1750 -0.0778  0.4870
 8560SOL    HW126579   3.591   4.493   1.762 -1.1226  0.5399 -0.6031
 8560SOL    HW226580   3.507   4.399   1.658  1.1670 -1.3796 -0.7853
 8561SOL     OW26581   1.564   6.308   5.555 -0.5198 -0.7638 -0.3743
 8561SOL    HW126582   1.600   6.328   5.464 -0.3945 -0.0544 -0.1784
 8561SOL    HW226583   1.477   6.357   5.568 -0.3975 -0.6413 -0.0132
 8562SOL     OW26584   1.707   6.951   0.354  0.1733  0.1821  0.1725
 8562SOL    HW126585   1.651   7.031   0.377 -1.6397 -0.8089 -0.6597
 8562SOL    HW226586   1.674   6.871   0.404  0.3169 -0.6027 -0.9477
 8563SOL     OW26587   0.192   6.344   1.786 -0.3605  0.2768 -0.2584
 8563SOL    HW126588   0.268   6.393   1.827 -0.8741  0.6023  0.3217
 8563SOL    HW226589   0.210   6.246   1.787 -0.2213  0.3075  0.4521
 8564SOL     OW26590   6.028   1.515   4.337 -0.0231 -0.1378  0.0478
 8564SOL    HW126591   5.931   1.531   4.354 -0.3490 -1.4084 -0.5113
 8564SOL    HW226592   6.074   1.497   4.424 -0.6084 -1.0788  0.1800
 8565SOL     OW26593   0.418   2.126   1.853  0.9771  0.0647 -0.2335
 8565SOL    HW126594   0.321   2.130   1.830  1.2566  0.2970 -1.4573
 8565SOL    HW226595   0.462   2.055   1.799  1.3643 -0.5351  0.8459
 8566SOL     OW26596   6.015   0.919   3.201 -0.3785 -0.1775  0.1263
 8566SOL    HW126597   6.098   0.973   3.204 -0.5091  0.0106  0.3720
 8566SOL    HW226598   6.020   0.854   3.125  0.6179 -1.1744  1.0166
 8567SOL     OW26599   3.225   5.788   6.465 -0.2257 -0.2200  0.3133
 8567SOL    HW126600   3.225   5.710   6.401 -0.9230 -2.0998  2.4711
 8567SOL    HW226601   3.296   5.852   6.438 -0.1501 -1.1576 -2.0336
 8568SOL     OW26602   1.486   6.361   1.613  0.4982 -0.2761  0.0840
 8568SOL    HW126603   1.570   6.310   1.630  0.1627 -0.8080  0.1757
 8568SOL    HW226604   1.410   6.297   1.600  0.1743  0.1855 -0.3678
 8569SOL     OW26605   1.188   3.219   3.624 -0.0784 -0.2939 -0.4951
 8569SOL    HW126606   1.123   3.156   3.581  0.3394 -0.6018 -0.6914
 8569SOL    HW226607   1.179   3.213   3.723  0.4695 -1.2395 -0.4850
 8570SOL     OW26608   0.576   1.845   3.904  0.3622 -0.4828  0.2060
 8570SOL    HW126609   0.490   1.794   3.907 -0.9822  1.5994 -1.0612
 8570SOL    HW226610   0.571   1.922   3.968  0.5537  0.6736 -1.1265
 8571SOL     OW26611   2.860   1.982   3.551 -0.1550 -0.0085 -0.4743
 8571SOL    HW126612   2.834   1.977   3.647  0.8744 -1.4264 -0.2388
 8571SOL    HW226613   2.779   1.966   3.494 -0.6314  0.1061  0.1560
 8572SOL     OW26614   4.791   1.189   6.728  0.1682  0.1214  0.2064
 8572SOL    HW126615   4.834   1.167   6.640  1.9915  0.6698  0.9309
 8572SOL    HW226616   4.765   1.286   6.728  0.0342  0.0860  0.2373
 8573SOL     OW26617   4.142   3.619   1.230 -0.7283  0.4937  0.3610
 8573SOL    HW126618   4.183   3.527   1.228 -1.6036  0.0438  1.7065
 8573SOL    HW226619   4.146   3.659   1.138 -1.3874 -1.3632 -0.5233
 8574SOL     OW26620   6.935   1.795   3.046 -0.9811  0.3800  0.2925
 8574SOL    HW126621   6.909   1.880   3.092 -2.9826  0.5701 -1.0563
 8574SOL    HW226622   6.950   1.813   2.949 -0.2010 -0.5999  0.2204
 8575SOL     OW26623   3.877   6.514   5.399  0.8290 -0.7066 -0.1702
 8575SOL    HW126624   3.933   6.546   5.475  1.0875 -1.7404  0.0900
 8575SOL    HW226625   3.928   6.523   5.313  0.4414  0.7029 -0.2804
 8576SOL     OW26626   3.115   5.087   3.703 -0.3352  0.2376 -0.3140
 8576SOL    HW126627   3.146   5.147   3.630  1.2491 -1.4060 -1.0501
 8576SOL    HW226628   3.153   4.996   3.690 -0.5130 -0.2698  2.2290
 8577SOL     OW26629   2.486   6.930   1.944 -0.0849 -0.0850 -0.6299
 8577SOL    HW126630   2.387   6.940   1.937 -0.3804 -0.4086  2.0831
 8577SOL    HW226631   2.526   7.012   1.986  0.5296 -0.6826 -0.0082
 8578SOL     OW26632   3.702   0.172   5.133  0.0471 -0.1398  0.0007
 8578SOL    HW126633   3.725   0.080   5.100  0.6520  0.2749 -0.7684
 8578SOL    HW226634   3.637   0.215   5.070 -0.8476 -0.3286  0.7812
 8579SOL     OW26635   1.002   1.614   1.894  0.2076 -0.2241  0.4366
 8579SOL    HW126636   0.925   1.550   1.894 -0.4459  0.5198  1.9938
 8579SOL    HW226637   1.066   1.588   1.967 -0.0875  0.9006  1.1148
 8580SOL     OW26638   0.586   6.377   4.372  0.4852  0.6303  0.5623
 8580SOL    HW126639   0.636   6.443   4.429 -1.4013  0.1960  2.8778
 8580SOL    HW226640   0.596   6.285   4.410 -0.6099  0.2822  0.0539
 8581SOL     OW26641   5.636   5.579   1.788 -0.2339  0.2185 -0.2797
 8581SOL    HW126642   5.684   5.554   1.872 -1.8537  0.9599  0.9373
 8581SOL    HW226643   5.642   5.504   1.722  0.2449 -0.7866  0.8619
 8582SOL     OW26644   1.431   4.324   6.769  0.0912  0.2388 -0.3748
 8582SOL    HW126645   1.469   4.367   6.687  1.0712  2.8368  1.2892
 8582SOL    HW226646   1.436   4.389   6.845  0.0786 -2.3376  1.9789
 8583SOL     OW26647   0.252   3.502   6.826  0.2940  0.3871 -0.2858
 8583SOL    HW126648   0.272   3.444   6.747  0.1468  0.4112 -0.3421
 8583SOL    HW226649   0.214   3.445   6.899 -0.8983  0.5707 -0.7351
 8584SOL     OW26650   4.636   6.666   1.738  0.4458 -0.3643  0.1145
 8584SOL    HW126651   4.600   6.587   1.687  4.2698 -2.4399  0.2915
 8584SOL    HW226652   4.623   6.650   1.836 -3.4048  1.8266  0.1407
 8585SOL     OW26653   3.750   1.650   3.289  0.7670  0.3054  0.6899
 8585SOL    HW126654   3.678   1.600   3.336  0.4709  0.6450  0.5978
 8585SOL    HW226655   3.839   1.609   3.312  0.6584  0.6793  1.8151
 8586SOL     OW26656   4.418   0.627   5.440 -0.4482  0.3898 -0.3779
 8586SOL    HW126657   4.448   0.577   5.359 -0.0217 -0.6870  0.4293
 8586SOL    HW226658   4.467   0.715   5.444  0.7030 -0.2262 -0.4517
 8587SOL     OW26659   2.691   6.652   4.919  0.1115  0.0371  0.7793
 8587SOL    HW126660   2.640   6.570   4.946 -1.1534  1.2930  2.4240
 8587SOL    HW226661   2.789   6.635   4.926 -0.1029 -1.6046  0.1884
 8588SOL     OW26662   4.744   0.330   5.424 -0.2373  0.3787  0.5928
 8588SOL    HW126663   4.726   0.415   5.475  0.2301  1.3992 -0.8747
 8588SOL    HW226664   4.706   0.339   5.331 -3.0386 -2.2614  1.3162
 8589SOL     OW26665   6.878   1.400   5.707  0.1243  0.6862  0.5018
 8589SOL    HW126666   6.932   1.484   5.708 -1.3114  1.6332  1.7972
 8589SOL    HW226667   6.846   1.379   5.799  0.4001 -1.2916  0.2083
 8590SOL     OW26668   4.856   2.230   2.526 -0.0622  0.4030 -0.5530
 8590SOL    HW126669   4.819   2.178   2.449 -0.1808 -0.2956 -0.0354
 8590SOL    HW226670   4.798   2.310   2.543 -0.2297  0.3750 -0.9736
 8591SOL     OW26671   4.990   4.949   4.936  0.4416  0.2849  0.5043
 8591SOL    HW126672   5.035   4.860   4.937 -1.0268 -0.4958  0.5902
 8591SOL    HW226673   5.057   5.021   4.953  1.6241 -0.8125  0.6327
 8592SOL     OW26674   4.479   6.922   5.642 -0.6703  0.6145  0.2767
 8592SOL    HW126675   4.524   6.987   5.702  2.1555 -0.2373 -0.7771
 8592SOL    HW226676   4.472   6.960   5.550  0.6139 -0.3453 -0.2445
 8593SOL     OW26677   5.714   4.386   3.652  0.0687  0.5386 -0.6920
 8593SOL    HW126678   5.731   4.404   3.749  0.3981  0.9767 -0.8308
 8593SOL    HW226679   5.618   4.362   3.639 -0.2331  1.5457 -0.4037
 8594SOL     OW26680   3.564   3.469   6.678 -0.3332 -0.4357  0.1571
 8594SOL    HW126681   3.522   3.482   6.768 -1.1054  0.5850 -0.3325
 8594SOL    HW226682   3.553   3.552   6.624 -1.2299 -1.5202 -1.4300
 8595SOL     OW26683   6.547   4.122   1.162 -0.0665 -0.3697 -0.0759
 8595SOL    HW126684   6.547   4.080   1.252  1.2938  1.8201  1.0261
 8595SOL    HW226685   6.479   4.196   1.160 -0.7909 -1.0329 -1.2085
 8596SOL     OW26686   0.760   0.473   1.402  0.6735 -0.2146  1.3866
 8596SOL    HW126687   0.774   0.566   1.366 -1.7721 -0.2955  0.0427
 8596SOL    HW226688   0.714   0.478   1.491 -1.3893 -0.0972  0.3677
 8597SOL     OW26689   4.736   4.570   4.573  0.1674 -0.5339 -0.5018
 8597SOL    HW126690   4.721   4.507   4.649  1.9355  0.8900  1.1252
 8597SOL    HW226691   4.817   4.626   4.591 -0.2904  0.9815 -2.7090
 8598SOL     OW26692   2.154   2.618   3.719 -0.4040 -0.0483 -0.3129
 8598SOL    HW126693   2.117   2.642   3.629 -1.0479  0.3797  0.0547
 8598SOL    HW226694   2.247   2.653   3.728  0.7205 -2.3614 -1.8026
 8599SOL     OW26695   5.243   3.107   0.894 -0.2206 -0.1945 -0.2527
 8599SOL    HW126696   5.302   3.187   0.894 -0.7000  0.1643  0.1025
 8599SOL    HW226697   5.241   3.067   0.802  2.4412 -1.6251  0.2185
 8600SOL     OW26698   6.454   1.589   4.550 -0.6661 -0.3111  0.0697
 8600SOL    HW126699   6.447   1.498   4.591 -0.7182  0.0886  0.9781
 8600SOL    HW226700   6.434   1.658   4.620 -2.5694  0.3507 -1.0547
 8601SOL     OW26701   1.171   0.953   3.614 -0.2120 -0.3497  0.9164
 8601SOL    HW126702   1.132   0.895   3.543  2.1002  0.2999 -1.0453
 8601SOL    HW226703   1.108   1.028   3.635 -1.3392 -1.0864  0.2481
 8602SOL     OW26704   2.158   6.158   5.261  0.7600 -0.3909 -0.3427
 8602SOL    HW126705   2.180   6.232   5.326 -0.8384 -0.3369  0.1843
 8602SOL    HW226706   2.124   6.198   5.176 -0.1340 -0.4864 -0.0461
 8603SOL     OW26707   4.582   2.035   6.629  0.4790  0.5806  0.1799
 8603SOL    HW126708   4.672   2.001   6.658  0.2781 -1.2291 -1.1695
 8603SOL    HW226709   4.594   2.108   6.561  0.9375 -0.0117 -0.3817
 8604SOL     OW26710   0.113   5.345   5.744 -0.1061 -0.2408  0.0270
 8604SOL    HW126711   0.206   5.327   5.710 -0.8794 -3.2360 -0.7610
 8604SOL    HW226712   0.047   5.325   5.673 -1.4709 -0.5166  1.3156
 8605SOL     OW26713   6.369   1.979   0.996 -0.4580 -0.0756 -0.4666
 8605SOL    HW126714   6.400   1.885   1.013 -1.5830 -0.5285 -0.8034
 8605SOL    HW226715   6.282   1.977   0.946 -0.8429  1.1464  0.1186
 8606SOL     OW26716   6.696   3.125   1.093 -0.7499 -0.1830 -0.2992
 8606SOL    HW126717   6.679   3.057   1.165  0.1046 -0.8704 -0.7350
 8606SOL    HW226718   6.790   3.159   1.101 -1.3927  1.5616  0.4045
 8607SOL     OW26719   3.122   0.579   4.351  0.5790 -0.2214 -0.3719
 8607SOL    HW126720   3.096   0.610   4.260 -0.4811 -0.2196 -0.0727
 8607SOL    HW226721   3.061   0.619   4.420 -1.4804 -3.5634 -0.0207
 8608SOL     OW26722   1.764   6.639   0.850  0.4192  0.2559 -0.1663
 8608SOL    HW126723   1.846   6.634   0.794 -0.2008  1.3055 -1.2054
 8608SOL    HW226724   1.695   6.575   0.814  0.8165 -0.7730  0.8222
 8609SOL     OW26725   6.466   3.077   1.957  0.8765 -0.2745 -0.6039
 8609SOL    HW126726   6.527   3.147   1.994  1.0689 -0.5484 -0.3992
 8609SOL    HW226727   6.430   3.107   1.869  1.7664 -0.3599 -1.0137
 8610SOL     OW26728   3.055   3.779   1.085 -0.1735 -0.0265  0.2947
 8610SOL    HW126729   3.107   3.859   1.114 -2.0554  0.4320  2.8329
 8610SOL    HW226730   3.069   3.705   1.151  0.1772 -1.2188 -1.0650
 8611SOL     OW26731   0.468   0.904   2.282  0.0983 -0.0643  0.1179
 8611SOL    HW126732   0.422   0.879   2.367  2.2716 -1.3572  0.9869
 8611SOL    HW226733   0.399   0.927   2.212 -1.7450  0.2323  1.9462
 8612SOL     OW26734   5.649   5.868   6.672 -0.4952 -0.2008  0.0455
 8612SOL    HW126735   5.663   5.776   6.710  2.4815 -0.1083 -0.5399
 8612SOL    HW226736   5.712   5.932   6.716 -0.5529  0.9647 -1.4990
 8613SOL     OW26737   1.310   2.662   5.133 -0.3854 -0.2305 -0.4907
 8613SOL    HW126738   1.383   2.599   5.108 -0.6820  0.1038 -2.3375
 8613SOL    HW226739   1.223   2.613   5.135 -0.6192  0.0597 -1.9469
 8614SOL     OW26740   0.742   0.540   6.656  0.0044  0.9412  0.3665
 8614SOL    HW126741   0.683   0.556   6.577  0.8641 -0.3825 -0.5854
 8614SOL    HW226742   0.687   0.506   6.732 -0.6429  0.8732 -0.1202
 8615SOL     OW26743   3.632   3.004   6.619  0.0854  0.9115  0.2742
 8615SOL    HW126744   3.694   3.072   6.658  0.7788  0.1720  0.4854
 8615SOL    HW226745   3.617   2.930   6.684 -1.4019  1.2972  0.4064
 8616SOL     OW26746   3.740   5.668   3.258  0.7002 -0.3886 -0.1158
 8616SOL    HW126747   3.794   5.744   3.222  0.5536 -0.9815 -1.6812
 8616SOL    HW226748   3.708   5.611   3.182  0.7916 -2.0178  1.0117
 8617SOL     OW26749   1.164   6.328   0.999  0.1711  0.2488 -0.2851
 8617SOL    HW126750   1.147   6.339   1.097  2.2499 -0.6944  0.2358
 8617SOL    HW226751   1.242   6.266   0.985  1.3387  2.0662 -2.4606
 8618SOL     OW26752   1.453   1.731   0.300  0.0050  0.4048 -0.4245
 8618SOL    HW126753   1.507   1.652   0.330  2.3751  1.8832 -0.4925
 8618SOL    HW226754   1.377   1.745   0.363  0.7252 -0.7550  0.7649
 8619SOL     OW26755   5.570   4.330   2.750 -0.0576  0.0317 -0.5688
 8619SOL    HW126756   5.594   4.235   2.774 -1.0011 -0.3164 -0.9692
 8619SOL    HW226757   5.541   4.333   2.655 -0.8579  0.5838 -0.3090
 8620SOL     OW26758   6.096   0.979   6.147 -0.0308 -0.4634  0.3964
 8620SOL    HW126759   6.125   1.010   6.056 -1.5129 -1.5237 -0.4898
 8620SOL    HW226760   6.044   0.894   6.138 -0.8581 -0.1877  2.1787
 8621SOL     OW26761   6.196   4.888   6.972 -0.1298 -0.2162  0.7562
 8621SOL    HW126762   6.126   4.830   6.931  0.4110 -0.0917 -0.3890
 8621SOL    HW226763   6.170   4.984   6.962 -0.1206 -0.1936  0.9454
 8622SOL     OW26764   6.161   3.957   6.229  0.3238  0.1792 -0.2925
 8622SOL    HW126765   6.064   3.959   6.206  0.0063  0.0484  0.9913
 8622SOL    HW226766   6.181   3.875   6.283  0.6971  1.3095  1.3386
 8623SOL     OW26767   6.002   3.007   5.211  0.3884 -0.9787  0.0128
 8623SOL    HW126768   5.929   2.940   5.204  0.3104 -0.8555 -0.3627
 8623SOL    HW226769   5.966   3.091   5.251  0.1555 -0.6679 -0.8419
 8624SOL     OW26770   5.532   0.423   4.924 -0.4250  0.4560 -0.0003
 8624SOL    HW126771   5.490   0.508   4.891 -2.8713 -1.2312 -1.5573
 8624SOL    HW226772   5.542   0.359   4.848  1.4570 -0.6465  1.1135
 8625SOL     OW26773   1.388   0.664   6.862  0.5442  0.7340  0.2932
 8625SOL    HW126774   1.326   0.740   6.882 -0.4834 -0.3547  1.4467
 8625SOL    HW226775   1.446   0.647   6.941  0.7911  0.3562  0.0348
 8626SOL     OW26776   4.322   0.603   4.349  0.2277  0.3356  0.4053
 8626SOL    HW126777   4.417   0.577   4.332  0.2665  0.1200  0.9328
 8626SOL    HW226778   4.309   0.622   4.446 -0.1283  0.9543  0.2391
 8627SOL     OW26779   6.224   1.176   6.881 -0.0701  0.3395 -0.3747
 8627SOL    HW126780   6.257   1.148   6.971 -1.2507  0.5650  0.1364
 8627SOL    HW226781   6.292   1.236   6.838  0.9880 -0.6383 -0.1019
 8628SOL     OW26782   2.960   1.391   4.550  0.2405 -0.0470 -0.1555
 8628SOL    HW126783   2.913   1.478   4.555  0.4482  0.0661 -0.1517
 8628SOL    HW226784   3.032   1.388   4.619 -1.3616 -1.1912  1.5697
 8629SOL     OW26785   5.574   0.955   0.631 -0.1053 -0.4724  0.2285
 8629SOL    HW126786   5.530   0.868   0.655 -1.1035  0.0026  0.1943
 8629SOL    HW226787   5.530   0.992   0.549  0.0653  0.2381  0.4553
 8630SOL     OW26788   2.974   4.289   5.316 -0.4916  0.7114 -0.1763
 8630SOL    HW126789   2.931   4.361   5.261 -1.7379  0.5384  0.5569
 8630SOL    HW226790   2.937   4.200   5.291  0.3694  0.4077 -0.4179
 8631SOL     OW26791   1.217   5.273   2.996 -0.4515  0.3531 -0.1671
 8631SOL    HW126792   1.272   5.316   2.924  1.3390 -0.8665  0.4061
 8631SOL    HW226793   1.160   5.343   3.040 -0.0484  1.5045 -1.3833
 8632SOL     OW26794   4.844   2.423   3.822 -0.1642 -0.4871 -0.3321
 8632SOL    HW126795   4.803   2.346   3.773 -0.0618 -0.4729 -0.4399
 8632SOL    HW226796   4.894   2.481   3.758  0.1391 -0.5774 -0.1827
 8633SOL     OW26797   6.741   0.481   1.404 -0.0739  0.2630 -0.3752
 8633SOL    HW126798   6.772   0.396   1.446 -1.0569  1.0504  2.1270
 8633SOL    HW226799   6.800   0.556   1.433  0.5294  0.5436 -2.2231
 8634SOL     OW26800   2.638   5.575   4.485 -0.5730  0.0917  0.0046
 8634SOL    HW126801   2.640   5.476   4.474 -1.5579 -0.0034  0.5533
 8634SOL    HW226802   2.630   5.619   4.395 -5.5814 -0.5527 -0.1393
 8635SOL     OW26803   1.900   5.719   0.747  0.2421 -0.4864 -0.4304
 8635SOL    HW126804   1.826   5.727   0.814 -0.1824 -0.2238 -0.9244
 8635SOL    HW226805   1.921   5.809   0.710  1.4999 -0.4026  0.4281
 8636SOL     OW26806   5.651   4.312   6.364  0.0049 -0.3067 -0.5127
 8636SOL    HW126807   5.748   4.318   6.389  0.1334 -0.9277 -0.8630
 8636SOL    HW226808   5.597   4.297   6.447  0.0829  1.1700 -0.1574
 8637SOL     OW26809   2.942   0.679   3.680 -0.2893  0.7069 -0.2827
 8637SOL    HW126810   3.026   0.733   3.668  0.3899  0.0222  1.0534
 8637SOL    HW226811   2.905   0.654   3.591  1.2813  0.5148 -0.9205
 8638SOL     OW26812   4.555   5.921   6.370  0.2767  0.5316  0.0574
 8638SOL    HW126813   4.484   5.874   6.421 -0.0799  0.3673 -0.5785
 8638SOL    HW226814   4.583   5.865   6.293  0.0066  1.2544 -0.5839
 8639SOL     OW26815   6.970   2.775   0.151 -0.8374  0.7764  0.0916
 8639SOL    HW126816   6.986   2.772   0.249  0.5428 -1.3387 -0.1350
 8639SOL    HW226817   6.883   2.730   0.130 -0.7816  0.5789  0.2861
 8640SOL     OW26818   0.096   3.163   5.174 -0.6184 -0.1403 -0.5038
 8640SOL    HW126819   0.052   3.252   5.162  0.8477  0.4194 -2.0875
 8640SOL    HW226820   0.027   3.094   5.196 -1.7192  1.4750  1.5451
 8641SOL     OW26821   3.357   3.186   3.650 -0.4130  0.3289 -0.6849
 8641SOL    HW126822   3.341   3.284   3.661  2.2703  1.1397 -2.7421
 8641SOL    HW226823   3.434   3.172   3.586 -0.5439 -3.1230 -0.2743
 8642SOL     OW26824   3.372   5.462   2.884  0.0921 -0.2462  0.3843
 8642SOL    HW126825   3.317   5.406   2.946 -1.8780  0.2366 -0.8399
 8642SOL    HW226826   3.453   5.496   2.932 -0.8100 -0.7599  2.3554
 8643SOL     OW26827   2.838   0.358   3.568 -0.0263 -0.5064  0.1796
 8643SOL    HW126828   2.840   0.425   3.493  0.9010 -1.6987 -0.9118
 8643SOL    HW226829   2.893   0.392   3.644  0.5296 -0.0616 -0.4021
 8644SOL     OW26830   3.885   6.156   2.324  0.3295 -0.3002  0.3710
 8644SOL    HW126831   3.966   6.205   2.290  1.2013 -2.0896 -0.2509
 8644SOL    HW226832   3.816   6.153   2.252 -0.8858  2.2820  1.2850
 8645SOL     OW26833   6.381   0.389   0.016  0.7333 -0.2759 -0.2872
 8645SOL    HW126834   6.406   0.307  -0.035  0.8814 -0.7011  0.4555
 8645SOL    HW226835   6.429   0.468  -0.023 -1.4006 -0.0366 -2.6860
 8646SOL     OW26836   0.651   5.835   2.709  0.2311  0.5711 -0.3321
 8646SOL    HW126837   0.612   5.837   2.617  3.1510 -0.1371 -1.7055
 8646SOL    HW226838   0.689   5.924   2.731  0.9658  0.3027 -0.4976
 8647SOL     OW26839   0.465   6.936   5.794  0.1057 -0.2517 -0.2482
 8647SOL    HW126840   0.562   6.916   5.800  0.2472  0.7009  0.9313
 8647SOL    HW226841   0.425   6.940   5.886 -0.3523  2.5643 -0.4779
 8648SOL     OW26842   5.760   0.212   5.481  0.1641  0.2328  0.5451
 8648SOL    HW126843   5.829   0.169   5.540 -0.3225 -0.2426  0.7677
 8648SOL    HW226844   5.785   0.308   5.467  2.3493 -0.5353 -1.5588
 8649SOL     OW26845   4.385   2.267   5.373  0.2566 -0.4300 -0.3251
 8649SOL    HW126846   4.394   2.171   5.397  0.2188 -0.3370  0.0728
 8649SOL    HW226847   4.348   2.318   5.451  0.1435 -0.1170 -0.5777
 8650SOL     OW26848   6.413   6.295   3.879 -0.1894  0.2840  0.2638
 8650SOL    HW126849   6.361   6.332   3.956  0.7578  1.6470  0.2928
 8650SOL    HW226850   6.484   6.361   3.853  1.1360 -1.2476 -0.1466
 8651SOL     OW26851   6.330   5.160   5.895 -0.2522 -0.0339  0.3465
 8651SOL    HW126852   6.392   5.084   5.909  0.2234  0.6272  2.2098
 8651SOL    HW226853   6.240   5.138   5.934 -0.7111 -0.3480 -0.8415
 8652SOL     OW26854   0.570   5.568   0.492 -0.3032  0.6528 -0.3037
 8652SOL    HW126855   0.537   5.613   0.409  0.2601  1.0713 -0.3032
 8652SOL    HW226856   0.550   5.470   0.486  2.3295  0.1159 -2.3111
 8653SOL     OW26857   3.455   0.920   3.960  0.0965 -0.7240 -0.5690
 8653SOL    HW126858   3.494   0.836   3.997 -0.3491 -1.0779 -0.9024
 8653SOL    HW226859   3.359   0.905   3.937  0.2014 -0.3244 -1.2832
 8654SOL     OW26860   0.732   5.764   0.899  0.2012  0.4840 -0.3056
 8654SOL    HW126861   0.666   5.691   0.886 -0.0948  1.1203 -2.8519
 8654SOL    HW226862   0.693   5.835   0.958 -0.3023 -0.4007  0.4460
 8655SOL     OW26863   1.069   6.728   0.109 -0.1560 -0.0263  0.5158
 8655SOL    HW126864   1.099   6.694   0.198 -1.0307 -1.5121  0.2796
 8655SOL    HW226865   1.019   6.656   0.060 -0.2253  0.9455 -0.9330
 8656SOL     OW26866   4.083   5.599   2.380 -0.0542  0.4862 -0.8050
 8656SOL    HW126867   4.114   5.506   2.359 -2.4896 -0.6782  0.3272
 8656SOL    HW226868   4.138   5.635   2.455  0.5493 -0.2827 -0.8581
 8657SOL     OW26869   5.613   6.518   2.355  0.4543 -0.5466 -0.4995
 8657SOL    HW126870   5.614   6.586   2.282  0.7927 -0.5503 -0.4991
 8657SOL    HW226871   5.690   6.534   2.417 -0.8130  0.5731  0.8797
 8658SOL     OW26872   5.408   4.805   2.875  0.2267 -0.4307 -0.4294
 8658SOL    HW126873   5.438   4.868   2.803 -2.5273  1.5312 -0.0113
 8658SOL    HW226874   5.367   4.724   2.833  1.5169 -0.7947 -1.0117
 8659SOL     OW26875   2.343   0.030   3.178 -0.1357  0.4815 -0.0740
 8659SOL    HW126876   2.305  -0.019   3.099  0.7675  0.2084 -0.3441
 8659SOL    HW226877   2.427   0.077   3.151  0.4845 -0.0666  0.8713
 8660SOL     OW26878   5.052   4.638   5.645 -0.2506 -0.0928  0.0185
 8660SOL    HW126879   5.077   4.729   5.676  1.5488 -0.6878  0.4158
 8660SOL    HW226880   5.076   4.628   5.548  1.5514 -0.7914  0.4977
 8661SOL     OW26881   1.170   5.109   1.116  0.4565 -0.5278  0.5325
 8661SOL    HW126882   1.101   5.141   1.181  0.1726 -1.2943  0.6205
 8661SOL    HW226883   1.176   5.009   1.120 -0.1624 -0.6759 -1.2098
 8662SOL     OW26884   6.125   4.114   2.768  0.3991 -0.2198 -0.4090
 8662SOL    HW126885   6.109   4.209   2.796  2.0250  0.7504 -2.4567
 8662SOL    HW226886   6.156   4.061   2.846 -1.5416  0.6168  1.0187
 8663SOL     OW26887   4.254   5.649   3.948  0.2899 -0.1094 -0.1416
 8663SOL    HW126888   4.160   5.621   3.927  0.9032 -2.5260  0.0016
 8663SOL    HW226889   4.289   5.706   3.874 -0.6270 -0.8994 -1.2246
 8664SOL     OW26890   5.600   5.444   3.429 -0.2663  0.1540 -0.3880
 8664SOL    HW126891   5.698   5.436   3.447 -0.3434 -1.8231 -0.6534
 8664SOL    HW226892   5.562   5.354   3.409 -1.5916  1.2493 -3.2890
 8665SOL     OW26893   0.276   1.963   3.412  0.2094  0.4676  0.1648
 8665SOL    HW126894   0.226   1.954   3.499  2.4898  1.3060  1.6573
 8665SOL    HW226895   0.235   2.036   3.357 -1.2235 -0.0177  0.5469
 8666SOL     OW26896   4.417   6.573   2.578  0.5563 -0.1231 -0.4085
 8666SOL    HW126897   4.347   6.508   2.550 -0.5130  1.4108 -1.4299
 8666SOL    HW226898   4.388   6.620   2.661  0.2658  0.6603 -0.9457
 8667SOL     OW26899   5.018   5.795   4.663  0.0871  0.0729  0.4054
 8667SOL    HW126900   5.096   5.812   4.724 -0.0713 -3.0090  1.6570
 8667SOL    HW226901   5.045   5.812   4.568  2.4527 -1.2306  0.7592
 8668SOL     OW26902   1.374   0.413   1.450 -0.0327  0.0414  0.3323
 8668SOL    HW126903   1.436   0.391   1.526 -1.7848 -0.5238  1.6637
 8668SOL    HW226904   1.427   0.451   1.374  1.9830 -0.8029  1.2400
 8669SOL     OW26905   6.977   6.134   3.050 -0.1564  0.6383  0.1007
 8669SOL    HW126906   7.051   6.103   2.990  0.4435  1.3751  0.4349
 8669SOL    HW226907   7.015   6.155   3.140 -0.8062  0.8710  0.3246
 8670SOL     OW26908   0.250   5.044   1.631 -0.4706  0.4805 -0.0461
 8670SOL    HW126909   0.249   5.090   1.543 -0.1294 -0.7394 -0.7224
 8670SOL    HW226910   0.345   5.028   1.659 -0.5699 -0.2822 -0.1040
 8671SOL     OW26911   0.011   6.074   1.015  0.4675 -0.0778 -0.0226
 8671SOL    HW126912   0.010   6.164   0.971 -0.1833 -0.2723 -0.4171
 8671SOL    HW226913   0.073   6.076   1.093 -0.5459  1.0861  0.7765
 8672SOL     OW26914   1.108   5.437   4.183  0.3142  0.0768 -0.6420
 8672SOL    HW126915   1.015   5.431   4.146 -0.0171 -0.6172  0.2778
 8672SOL    HW226916   1.140   5.532   4.179 -0.6922  0.4373 -0.3325
 8673SOL     OW26917   5.658   6.065   2.181  0.1642 -0.2961  0.2165
 8673SOL    HW126918   5.705   5.980   2.203  0.3068  0.1002  1.5524
 8673SOL    HW226919   5.582   6.078   2.245  0.3466  0.7401  0.2445
 8674SOL     OW26920   5.568   1.182   6.673 -0.4288  0.2145 -0.4388
 8674SOL    HW126921   5.572   1.200   6.772 -1.5388 -0.3484 -0.2695
 8674SOL    HW226922   5.563   1.084   6.657 -1.8766  0.3477 -0.9581
 8675SOL     OW26923   5.834   0.988   3.813 -0.5240  0.4279  0.6699
 8675SOL    HW126924   5.865   1.069   3.762  0.7393  1.8790  3.5126
 8675SOL    HW226925   5.735   0.994   3.826 -0.5658  1.1085  0.1353
 8676SOL     OW26926   4.715   2.636   3.141 -0.2183  0.3558 -0.0706
 8676SOL    HW126927   4.719   2.698   3.220  0.9923  0.1078  0.0709
 8676SOL    HW226928   4.790   2.570   3.145 -1.7705 -1.4814  0.0455
 8677SOL     OW26929   0.966   1.944   0.194  0.4026  0.7060 -0.1990
 8677SOL    HW126930   0.901   2.007   0.238 -0.8241  1.0183 -2.2999
 8677SOL    HW226931   0.915   1.875   0.143  1.7348  0.3787 -1.1235
 8678SOL     OW26932   0.343   0.086   0.769 -0.3961 -0.1984  0.2983
 8678SOL    HW126933   0.383   0.171   0.804 -1.6289  0.5563 -0.0516
 8678SOL    HW226934   0.244   0.088   0.784 -0.1900 -2.7680  2.7414
 8679SOL     OW26935   2.931   3.757   0.090 -0.3339  0.1233  0.1807
 8679SOL    HW126936   2.859   3.762   0.159 -0.3473 -0.7814  0.2442
 8679SOL    HW226937   2.902   3.696   0.016  0.1964  0.0748  0.0085
 8680SOL     OW26938   4.105   5.763   6.892  0.0501 -0.4848  0.6323
 8680SOL    HW126939   4.075   5.737   6.984 -2.9458  0.3571 -0.0081
 8680SOL    HW226940   4.204   5.754   6.886  0.3464 -0.6623  3.8933
 8681SOL     OW26941   4.404   4.048   0.053  0.3397  0.1514  0.4739
 8681SOL    HW126942   4.355   3.982   0.110 -0.1273  0.7258  0.7493
 8681SOL    HW226943   4.493   4.010   0.027  0.6369 -0.0648  1.7197
 8682SOL     OW26944   3.939   0.661   1.187  0.6269 -0.3009  0.0798
 8682SOL    HW126945   3.968   0.616   1.103 -0.1632  0.0165 -0.3722
 8682SOL    HW226946   3.863   0.722   1.168 -0.4586 -1.2200  1.2324
 8683SOL     OW26947   3.055   0.997   3.690 -0.2471 -0.0734 -0.1871
 8683SOL    HW126948   2.979   1.049   3.650  0.2732  0.0603 -1.0147
 8683SOL    HW226949   3.077   1.034   3.780 -0.2861  0.7371 -0.5084
 8684SOL     OW26950   5.357   2.024   0.516 -0.0198 -0.8895 -0.3819
 8684SOL    HW126951   5.352   1.928   0.489  0.5096 -0.6898 -1.1967
 8684SOL    HW226952   5.448   2.060   0.496 -0.3075 -0.1343 -0.3560
 8685SOL     OW26953   3.906   5.794   6.691  0.0580  0.0035 -0.1142
 8685SOL    HW126954   3.912   5.722   6.622  0.8281  0.7292 -0.8272
 8685SOL    HW226955   3.981   5.784   6.756  0.3507  0.3326 -0.3950
 8686SOL     OW26956   4.521   6.733   0.084 -0.4317 -0.1060 -0.1150
 8686SOL    HW126957   4.614   6.703   0.106 -0.4519 -0.1883 -0.1434
 8686SOL    HW226958   4.511   6.830   0.108 -0.3510 -0.1078 -0.0738
 8687SOL     OW26959   0.757   3.812   2.146 -0.0227 -0.1401  0.4376
 8687SOL    HW126960   0.777   3.902   2.107 -0.1823 -0.6976 -0.9763
 8687SOL    HW226961   0.831   3.749   2.122 -2.4308 -1.8101 -3.4180
 8688SOL     OW26962   1.407   3.439   3.774  0.0393  0.1991  0.5884
 8688SOL    HW126963   1.405   3.537   3.794 -0.5873  0.3360 -0.1105
 8688SOL    HW226964   1.400   3.388   3.860  0.4246  0.7566  0.9635
 8689SOL     OW26965   3.899   6.169   5.947  0.0536  0.3722  0.4781
 8689SOL    HW126966   3.824   6.233   5.928 -2.5834 -2.1157  1.7035
 8689SOL    HW226967   3.941   6.141   5.861 -2.5247 -0.4475 -0.5938
 8690SOL     OW26968   4.693   2.239   0.077 -0.1423 -0.8928 -0.6445
 8690SOL    HW126969   4.615   2.231   0.140  0.1828  1.3139  0.1372
 8690SOL    HW226970   4.660   2.274  -0.011 -0.0477  0.1722 -0.2698
 8691SOL     OW26971   2.116   6.139   3.669  0.3024 -0.1755 -0.4981
 8691SOL    HW126972   2.183   6.105   3.603  0.2288  0.2431 -0.7875
 8691SOL    HW226973   2.090   6.064   3.731  2.3827  0.0826  0.7755
 8692SOL     OW26974   5.766   6.486   0.326 -0.4004 -0.1581  0.5501
 8692SOL    HW126975   5.739   6.408   0.270  1.8853  0.0046 -0.8810
 8692SOL    HW226976   5.730   6.570   0.287  0.5272 -0.1245 -0.2571
 8693SOL     OW26977   1.523   2.953   6.101 -0.5501 -0.1917  0.1532
 8693SOL    HW126978   1.592   3.024   6.109 -1.3923  1.1076 -2.7164
 8693SOL    HW226979   1.432   2.995   6.097 -1.2938 -1.6396  0.8565
 8694SOL     OW26980   4.238   4.771   6.753 -0.7217  0.1292  0.0256
 8694SOL    HW126981   4.188   4.810   6.831  0.4783 -1.3199  1.5942
 8694SOL    HW226982   4.234   4.671   6.758  1.5627 -0.0235 -0.2848
 8695SOL     OW26983   0.322   0.066   6.233  0.4797  0.2799 -0.1340
 8695SOL    HW126984   0.317   0.039   6.329 -1.0700 -0.3136 -0.3462
 8695SOL    HW226985   0.251   0.135   6.214  2.2753  2.1635 -0.3474
 8696SOL     OW26986   6.227   0.852   4.735  0.5167 -0.1676  0.4308
 8696SOL    HW126987   6.259   0.854   4.830  1.3359  0.5290  0.1552
 8696SOL    HW226988   6.127   0.849   4.733  0.5008 -0.3572  1.3151
 8697SOL     OW26989   3.977   4.334   5.752  0.4950 -0.1212 -0.0027
 8697SOL    HW126990   4.069   4.353   5.719  0.1981  0.1087 -0.7181
 8697SOL    HW226991   3.982   4.295   5.844  1.3648 -1.1003 -0.4374
 8698SOL     OW26992   6.835   1.325   3.759 -0.2497 -0.7343  0.2773
 8698SOL    HW126993   6.918   1.363   3.719 -0.2470 -0.7716  0.2472
 8698SOL    HW226994   6.846   1.226   3.772  0.5089 -0.4421  2.1725
 8699SOL     OW26995   3.982   0.393   5.643  0.1071 -0.2196 -0.6127
 8699SOL    HW126996   3.906   0.421   5.585 -0.3080  1.7371  0.7666
 8699SOL    HW226997   4.035   0.474   5.670 -1.0652 -0.6215  3.5238
 8700SOL     OW26998   6.129   5.139   6.065 -0.2265 -0.1211 -0.9286
 8700SOL    HW126999   6.052   5.184   6.110  1.2777  1.3094  0.3394
 8700SOL    HW227000   6.112   5.040   6.061 -1.7637  0.0658  0.0221
 8701SOL     OW27001   6.792   4.216   3.601 -0.6598 -0.4820 -0.0462
 8701SOL    HW127002   6.873   4.274   3.589 -0.8098 -0.2577  0.0222
 8701SOL    HW227003   6.814   4.141   3.664 -0.1329 -1.1557 -1.0033
 8702SOL     OW27004   6.008   5.907   6.377 -0.2328  0.7034  0.2010
 8702SOL    HW127005   5.951   5.829   6.404 -1.5358  0.9995 -1.5312
 8702SOL    HW227006   5.989   5.931   6.282  1.4044  2.0681  0.1711
 8703SOL     OW27007   1.748   2.598   4.272 -0.2198  0.4424  0.0063
 8703SOL    HW127008   1.662   2.623   4.316  0.1440 -0.1295  1.0763
 8703SOL    HW227009   1.730   2.535   4.196 -0.8071  0.9848 -0.3114
 8704SOL     OW27010   4.729   4.049   5.232  0.3785 -0.3669  0.3474
 8704SOL    HW127011   4.689   3.963   5.264  1.2660 -0.3927  1.4709
 8704SOL    HW227012   4.663   4.123   5.244  0.1586 -0.6391  0.8463
 8705SOL     OW27013   0.109   2.606   5.531  0.2357 -0.0726 -0.3712
 8705SOL    HW127014   0.120   2.579   5.435  0.5589  0.6023 -0.5331
 8705SOL    HW227015   0.149   2.536   5.590 -1.3231 -1.2453 -0.6431
 8706SOL     OW27016   6.663   1.178   6.844 -0.6003 -0.5513  0.2665
 8706SOL    HW127017   6.708   1.256   6.889  0.2841  0.5608 -2.3636
 8706SOL    HW227018   6.568   1.202   6.823 -0.5614 -0.4884  0.1635
 8707SOL     OW27019   3.654   6.819   3.396  0.5098  0.2434  0.1139
 8707SOL    HW127020   3.625   6.824   3.301 -1.6761 -1.4209  0.6131
 8707SOL    HW227021   3.709   6.736   3.410 -0.6644 -0.4738  0.6137
 8708SOL     OW27022   0.122   3.788   4.225 -0.2957 -0.2637  0.0622
 8708SOL    HW127023   0.072   3.704   4.248 -0.6105 -0.5286 -1.4940
 8708SOL    HW227024   0.216   3.764   4.200 -0.1974 -0.0809  0.2620
 8709SOL     OW27025   5.601   3.026   4.485  0.1414 -0.0904 -0.0885
 8709SOL    HW127026   5.639   2.941   4.520  0.0441 -0.4336 -0.7877
 8709SOL    HW227027   5.505   3.034   4.512  0.4271  0.2969  0.8376
 8710SOL     OW27028   3.189   6.954   6.164 -0.3261 -0.3147  0.2991
 8710SOL    HW127029   3.271   6.969   6.110  0.1775  1.4395  1.4857
 8710SOL    HW227030   3.211   6.899   6.245 -0.9571 -2.4031 -0.8751
 8711SOL     OW27031   4.382   2.389   4.592  0.0898  0.5575 -0.5418
 8711SOL    HW127032   4.319   2.312   4.595  1.1087 -0.2724  0.2947
 8711SOL    HW227033   4.393   2.420   4.497  0.0250 -0.6372 -0.9573
 8712SOL     OW27034   4.976   6.249   3.609  1.1642 -0.2639 -0.5159
 8712SOL    HW127035   5.031   6.173   3.645  0.0384 -1.2457 -0.8153
 8712SOL    HW227036   4.986   6.328   3.669  2.5741 -0.5431 -0.3437
 8713SOL     OW27037   2.333   2.719   5.645  0.2018  0.4806 -0.1815
 8713SOL    HW127038   2.419   2.669   5.636  0.5667  0.9242  0.6822
 8713SOL    HW227039   2.261   2.656   5.675  0.9669  0.6622  2.3041
 8714SOL     OW27040   5.336   3.896   0.721  0.9390 -0.3917  0.0977
 8714SOL    HW127041   5.317   3.853   0.633 -1.1090 -0.0245  0.3140
 8714SOL    HW227042   5.279   3.854   0.791  1.6744  0.1324  1.0305
 8715SOL     OW27043   2.403   6.337   2.301 -0.6555  0.5852  0.1755
 8715SOL    HW127044   2.317   6.320   2.348 -0.7097 -0.4225 -0.2627
 8715SOL    HW227045   2.479   6.310   2.360 -0.7513 -2.2227 -0.8072
 8716SOL     OW27046   3.888   4.847   1.257  0.0143 -0.1828  0.2378
 8716SOL    HW127047   3.858   4.754   1.235 -0.7676  0.2967 -0.8165
 8716SOL    HW227048   3.894   4.901   1.173 -1.0716  1.1597  0.9855
 8717SOL     OW27049   6.861   6.402   3.874  0.1839 -0.7295  0.1613
 8717SOL    HW127050   6.843   6.484   3.821  1.5797  0.4365  1.4151
 8717SOL    HW227051   6.783   6.384   3.935  0.2514  0.2312  0.5557
 8718SOL     OW27052   2.281   2.118   0.525  0.4126 -0.1181 -0.2655
 8718SOL    HW127053   2.191   2.163   0.525 -0.0371 -0.9912 -0.1895
 8718SOL    HW227054   2.347   2.175   0.573 -0.4367 -0.0938  0.9222
 8719SOL     OW27055   3.463   2.606   5.832 -0.3354  0.6774  0.1428
 8719SOL    HW127056   3.392   2.596   5.762  0.1886  1.2677 -0.4835
 8719SOL    HW227057   3.553   2.599   5.789  0.0840  4.3230  0.1454
 8720SOL     OW27058   3.642   0.998   6.427 -0.1625  0.4864 -0.2784
 8720SOL    HW127059   3.616   1.046   6.343 -0.2715  0.3026 -0.3518
 8720SOL    HW227060   3.666   0.904   6.405  0.2720  0.5710 -0.1651
 8721SOL     OW27061   4.261   0.013   6.838  0.1926 -0.3112 -0.2958
 8721SOL    HW127062   4.286  -0.064   6.897 -2.5676 -0.3033  1.0238
 8721SOL    HW227063   4.166   0.039   6.855  0.2918  1.8414 -2.4686
 8722SOL     OW27064   0.758   5.457   1.047 -0.1502  0.9066  0.1423
 8722SOL    HW127065   0.700   5.500   1.116 -1.4272 -0.3370 -0.0935
 8722SOL    HW227066   0.800   5.528   0.990 -0.1845  1.8958  1.3033
 8723SOL     OW27067   6.168   2.652   0.757 -0.1195  0.1705  0.2452
 8723SOL    HW127068   6.178   2.559   0.794 -0.3311 -0.5555 -1.4580
 8723SOL    HW227069   6.086   2.694   0.795 -0.3828 -0.5817  0.5204
 8724SOL     OW27070   4.308   1.084   0.897  0.3346 -0.5920  0.1237
 8724SOL    HW127071   4.292   1.120   0.989 -0.2052  1.0648 -0.5744
 8724SOL    HW227072   4.223   1.046   0.861  0.5165 -1.1312  0.2534
 8725SOL     OW27073   6.820   3.177   1.954 -0.4802 -0.4405 -0.0657
 8725SOL    HW127074   6.796   3.083   1.979 -2.4151  0.5510  2.2510
 8725SOL    HW227075   6.768   3.204   1.873 -0.7479 -1.0206 -0.0931
 8726SOL     OW27076   5.165   4.843   0.091  0.5380 -0.1978 -0.6370
 8726SOL    HW127077   5.263   4.826   0.095  0.9335  1.3722 -2.4202
 8726SOL    HW227078   5.148   4.938   0.065 -1.4929  0.0736  1.3032
 8727SOL     OW27079   0.272   1.260   4.258 -0.6151 -0.2185  0.7029
 8727SOL    HW127080   0.366   1.245   4.291 -0.0632  1.0082 -0.2393
 8727SOL    HW227081   0.274   1.276   4.159 -2.0246 -1.9174  0.3448
 8728SOL     OW27082   1.133   0.787   1.691 -0.0145  0.5277 -0.4567
 8728SOL    HW127083   1.124   0.834   1.779  3.8692  2.3722 -0.8570
 8728SOL    HW227084   1.083   0.838   1.621 -1.8837 -0.1250  0.3385
 8729SOL     OW27085   5.100   4.906   5.750  0.0994  0.0846  0.0476
 8729SOL    HW127086   5.172   4.912   5.681 -0.0073 -1.8672 -0.2788
 8729SOL    HW227087   5.105   4.986   5.810  0.8100  1.3389 -1.5993
 8730SOL     OW27088   5.949   3.856   0.509 -0.4449  0.1647  0.0213
 8730SOL    HW127089   6.044   3.825   0.522 -0.4280  0.7440  1.3857
 8730SOL    HW227090   5.887   3.779   0.521 -0.1080 -0.5929 -2.4736
 8731SOL     OW27091   6.287   4.203   3.983 -0.7069  0.0353  0.5127
 8731SOL    HW127092   6.282   4.152   3.897 -0.8266  1.0211 -0.0778
 8731SOL    HW227093   6.383   4.217   4.008 -0.5812 -3.0826  2.3018
 8732SOL     OW27094   6.052   0.419   3.675 -0.1401  0.1842 -0.0443
 8732SOL    HW127095   6.104   0.458   3.599  0.2270  2.5810  1.3382
 8732SOL    HW227096   5.954   0.427   3.655 -0.1002 -2.1558 -1.5948
 8733SOL     OW27097   2.570   2.274   3.194 -0.1289 -0.3783 -0.0685
 8733SOL    HW127098   2.669   2.277   3.178 -0.1299 -0.1633 -0.0394
 8733SOL    HW227099   2.522   2.298   3.110 -0.1316  0.9357  0.2934
 8734SOL     OW27100   1.689   3.678   1.111  0.0710 -0.6984 -0.0842
 8734SOL    HW127101   1.708   3.717   1.021  1.1912 -1.5844 -0.2541
 8734SOL    HW227102   1.690   3.751   1.180 -1.3115  0.0686 -0.8298
 8735SOL     OW27103   3.399   0.405   2.528 -0.1655 -0.0692  0.5783
 8735SOL    HW127104   3.428   0.452   2.612 -0.0110  1.5484 -0.3543
 8735SOL    HW227105   3.386   0.471   2.455 -0.2156 -1.4657 -0.7282
 8736SOL     OW27106   1.664   2.086   1.274  0.2460 -0.3648 -0.8472
 8736SOL    HW127107   1.753   2.042   1.289  0.2274  0.0108  0.5630
 8736SOL    HW227108   1.669   2.145   1.194  0.7366 -1.6824 -1.8225
 8737SOL     OW27109   0.556   3.134   3.422 -0.5773  0.1069 -0.0940
 8737SOL    HW127110   0.525   3.043   3.397  0.8171 -0.3478 -0.2529
 8737SOL    HW227111   0.492   3.202   3.388 -1.3735 -0.7872 -0.4032
 8738SOL     OW27112   1.767   1.825   0.133  0.3340  0.1635  0.2413
 8738SOL    HW127113   1.679   1.802   0.091  0.2844  0.6154  0.0952
 8738SOL    HW227114   1.767   1.922   0.159  1.2352  0.4844 -0.8829
 8739SOL     OW27115   4.341   4.124   6.806  0.0572  0.4173 -0.2181
 8739SOL    HW127116   4.324   4.122   6.905  1.4107 -0.3401  0.0319
 8739SOL    HW227117   4.277   4.062   6.761  1.0998 -1.2952  0.5227
 8740SOL     OW27118   4.672   2.197   1.273  0.5066  0.5486  0.0094
 8740SOL    HW127119   4.577   2.180   1.247  0.1706  0.3586  1.3316
 8740SOL    HW227120   4.719   2.242   1.197 -0.3726 -0.2201 -1.0239
 8741SOL     OW27121   2.419   4.413   2.273 -0.3143 -0.4462 -0.6557
 8741SOL    HW127122   2.435   4.471   2.193 -1.1821 -0.1115 -0.5909
 8741SOL    HW227123   2.361   4.336   2.247  2.5928 -2.6107 -1.3015
 8742SOL     OW27124   1.749   2.116   0.206 -0.4492 -0.5399  0.0466
 8742SOL    HW127125   1.828   2.139   0.149  0.7567 -0.5880  1.6217
 8742SOL    HW227126   1.733   2.191   0.271  0.2165 -1.7884  1.7215
 8743SOL     OW27127   0.115   2.881   0.388  0.0310 -0.0652  0.0558
 8743SOL    HW127128   0.089   2.977   0.396  2.2968  0.4797  1.7380
 8743SOL    HW227129   0.053   2.824   0.443  0.6923  0.8844  1.8666
 8744SOL     OW27130   3.865   6.565   6.074  0.0346 -0.0648  0.2337
 8744SOL    HW127131   3.943   6.504   6.088 -0.2699 -0.6246 -0.4420
 8744SOL    HW227132   3.878   6.649   6.127  1.1665 -0.0787 -0.0041
 8745SOL     OW27133   5.314   5.157   6.531 -0.3422 -0.0739 -0.4093
 8745SOL    HW127134   5.302   5.167   6.630  0.2410 -0.4936 -0.2925
 8745SOL    HW227135   5.253   5.085   6.497 -1.0325  0.5250 -0.4724
 8746SOL     OW27136   1.987   0.811   0.730  0.1845 -0.0530  0.1495
 8746SOL    HW127137   1.963   0.902   0.762  1.2787  0.0604  0.6906
 8746SOL    HW227138   2.037   0.762   0.802 -1.5991 -1.6106  0.4084
 8747SOL     OW27139   3.073   3.750   2.534  0.6171  0.2522  0.3177
 8747SOL    HW127140   3.036   3.839   2.561 -0.3059 -0.1512  0.4089
 8747SOL    HW227141   3.157   3.733   2.586  1.9916  1.9690 -1.1951
 8748SOL     OW27142   2.215   4.165   6.435 -0.0274  0.4637 -0.3058
 8748SOL    HW127143   2.261   4.080   6.410 -1.7402 -0.1119 -1.6930
 8748SOL    HW227144   2.180   4.157   6.529 -0.3604 -0.4628 -0.4936
 8749SOL     OW27145   2.323   6.866   4.736 -0.1869  0.2959  0.1387
 8749SOL    HW127146   2.256   6.909   4.675 -1.2051 -1.5127 -0.0819
 8749SOL    HW227147   2.408   6.850   4.687 -0.4794  0.2550 -0.3657
 8750SOL     OW27148   7.016   6.140   3.496  0.0499 -0.2641  0.4650
 8750SOL    HW127149   7.005   6.229   3.540 -0.0646 -0.8052  1.5862
 8750SOL    HW227150   6.928   6.108   3.463 -0.2557 -0.7321  1.6608
 8751SOL     OW27151   4.273   0.876   2.173 -0.2985 -0.7377 -0.3806
 8751SOL    HW127152   4.312   0.962   2.205 -0.5545 -0.4638 -0.7967
 8751SOL    HW227153   4.344   0.806   2.171 -0.4642 -1.0121  1.6433
 8752SOL     OW27154   6.264   0.574   3.384  0.2703 -0.1356 -0.5998
 8752SOL    HW127155   6.212   0.655   3.411  3.2691  1.2682  1.5551
 8752SOL    HW227156   6.202   0.497   3.371 -2.5013  1.9873 -0.7340
 8753SOL     OW27157   2.486   3.427   1.293  0.0526 -0.4747 -0.5805
 8753SOL    HW127158   2.404   3.484   1.290  1.4223  1.6273 -0.5657
 8753SOL    HW227159   2.525   3.421   1.201  0.6417 -0.2529 -0.3486
 8754SOL     OW27160   2.321   3.373   0.574 -0.0470 -0.6414  0.0872
 8754SOL    HW127161   2.234   3.325   0.581 -1.4167  1.6491 -0.0896
 8754SOL    HW227162   2.366   3.374   0.663 -0.4413 -1.4336  0.3017
 8755SOL     OW27163   3.407   1.952   1.864 -0.2861 -0.3792 -0.6181
 8755SOL    HW127164   3.456   1.942   1.778 -1.0448 -0.0489 -1.1001
 8755SOL    HW227165   3.336   2.022   1.854 -1.0640 -1.0586 -0.0441
 8756SOL     OW27166   0.816   1.529   0.119 -0.4004 -0.3527  0.0035
 8756SOL    HW127167   0.788   1.622   0.096  0.6335  0.4460  1.8211
 8756SOL    HW227168   0.810   1.472   0.037 -0.3424  1.4782 -1.3417
 8757SOL     OW27169   4.353   1.695   6.033 -0.2735 -0.5758  0.3026
 8757SOL    HW127170   4.419   1.620   6.035 -0.4730 -0.7957 -0.8820
 8757SOL    HW227171   4.279   1.673   5.970  0.0398  0.9181 -0.6447
 8758SOL     OW27172   1.067   2.903   4.557 -0.1190  0.4969  0.0102
 8758SOL    HW127173   1.068   2.998   4.526 -0.2395  0.4998  0.0140
 8758SOL    HW227174   1.088   2.900   4.655  1.5369  0.3841 -0.3287
 8759SOL     OW27175   2.920   3.608   3.220  0.0327  0.1312  0.0518
 8759SOL    HW127176   2.999   3.581   3.276  1.2379  2.3254 -0.4769
 8759SOL    HW227177   2.936   3.699   3.182 -2.8619  0.7241  0.0531
 8760SOL     OW27178   3.578   0.334   3.833 -0.3875 -0.2866  0.0457
 8760SOL    HW127179   3.531   0.278   3.902 -0.1265 -0.8180 -0.1971
 8760SOL    HW227180   3.553   0.430   3.845 -0.0424 -0.3175  1.1371
 8761SOL     OW27181   5.248   6.905   2.115  0.2222  0.4966 -0.1178
 8761SOL    HW127182   5.234   6.832   2.049  0.1090  0.3393  0.0791
 8761SOL    HW227183   5.164   6.919   2.168  0.7408 -0.3695  0.9919
 8762SOL     OW27184   6.297   3.401   1.167 -0.4332  0.2091  0.5563
 8762SOL    HW127185   6.294   3.453   1.252 -0.8479  0.8361  0.1602
 8762SOL    HW227186   6.295   3.463   1.089  0.1931 -0.3463  0.0806
 8763SOL     OW27187   1.858   2.426   4.465  0.8353 -0.1257 -0.4517
 8763SOL    HW127188   1.865   2.492   4.540 -0.4796  0.3248 -0.6948
 8763SOL    HW227189   1.833   2.474   4.381 -0.8172 -0.9911 -0.4915
 8764SOL     OW27190   1.599   4.627   0.348  0.0154 -0.3801 -0.2905
 8764SOL    HW127191   1.670   4.588   0.407 -0.5885  0.5415  1.0951
 8764SOL    HW227192   1.598   4.726   0.359 -1.6256 -0.3983 -0.1150
 8765SOL     OW27193   3.489   6.575   3.857  0.7648  0.5462 -0.6988
 8765SOL    HW127194   3.507   6.480   3.881  0.2781  0.2503 -1.4379
 8765SOL    HW227195   3.464   6.627   3.939  1.0786  0.0505 -0.2866
 8766SOL     OW27196   1.650   1.200   2.740 -1.2765 -0.3443 -0.0481
 8766SOL    HW127197   1.607   1.110   2.753  0.2445 -0.9193  1.2769
 8766SOL    HW227198   1.705   1.199   2.656 -1.3023 -0.6232 -0.0630
 8767SOL     OW27199   0.799   6.537   2.537 -0.4158 -0.3672  0.2433
 8767SOL    HW127200   0.830   6.620   2.584  1.2580 -1.5844  1.4003
 8767SOL    HW227201   0.740   6.484   2.598  0.3249 -1.0918  0.3451
 8768SOL     OW27202   2.001   0.022   4.486 -0.3989 -0.2188  0.6382
 8768SOL    HW127203   1.953  -0.016   4.407  0.0605  1.0429 -0.2789
 8768SOL    HW227204   1.934   0.059   4.551 -0.7455  1.4845 -0.6041
 8769SOL     OW27205   4.483   1.453   0.526 -0.4498 -0.2532  0.2847
 8769SOL    HW127206   4.583   1.465   0.532 -0.6774  2.0338  0.7071
 8769SOL    HW227207   4.454   1.384   0.592  0.8141 -0.7518  0.3560
 8770SOL     OW27208   2.535   5.432   3.713  0.4557 -0.2913 -0.6500
 8770SOL    HW127209   2.497   5.347   3.676  2.1069 -1.5714  0.4901
 8770SOL    HW227210   2.597   5.412   3.788 -0.2344  2.0496  0.6434
 8771SOL     OW27211   1.848   6.978   1.045  0.0254 -0.3397 -0.1848
 8771SOL    HW127212   1.799   7.061   1.073 -0.1976 -0.6787  0.4702
 8771SOL    HW227213   1.819   6.902   1.104  1.3607 -0.5486  0.2319
 8772SOL     OW27214   4.017   0.456   1.956  0.1420 -0.6324 -0.2653
 8772SOL    HW127215   3.963   0.536   1.933  1.0946  0.0648 -0.1585
 8772SOL    HW227216   3.960   0.388   2.002 -1.1162 -0.8287 -2.0090
 8773SOL     OW27217   0.748   4.738   6.392 -0.0244 -0.4447 -0.1224
 8773SOL    HW127218   0.817   4.708   6.458  1.5312 -0.2663 -1.5870
 8773SOL    HW227219   0.760   4.688   6.306  0.6115  2.0796 -1.5867
 8774SOL     OW27220   4.244   5.882   2.811  0.0159 -0.1072  0.8077
 8774SOL    HW127221   4.326   5.935   2.832 -0.3000  0.5984  0.3342
 8774SOL    HW227222   4.166   5.945   2.801 -0.7541 -0.8250  2.0556
 8775SOL     OW27223   3.153   4.072   3.179 -0.5413  0.6084 -0.3683
 8775SOL    HW127224   3.140   4.112   3.089 -0.4182  1.0987 -0.1708
 8775SOL    HW227225   3.238   4.107   3.219 -0.6297  0.4484 -0.0335
 8776SOL     OW27226   3.031   3.244   3.959 -0.1939  0.0274  0.0624
 8776SOL    HW127227   3.067   3.162   3.914  1.5338  1.9101 -2.2291
 8776SOL    HW227228   3.105   3.292   4.006 -1.2255  0.1886  1.5829
 8777SOL     OW27229   0.508   3.343   7.006  0.4869 -0.2798  0.7367
 8777SOL    HW127230   0.435   3.295   6.957 -0.0019 -0.0036  1.1870
 8777SOL    HW227231   0.469   3.421   7.055  0.9929 -0.4932  1.4832
 8778SOL     OW27232   5.766   0.697   4.609 -0.1500  0.4076  0.8269
 8778SOL    HW127233   5.788   0.628   4.541 -0.7706  1.0227 -0.0136
 8778SOL    HW227234   5.851   0.739   4.643  0.1320  1.7282 -1.3010
 8779SOL     OW27235   3.006   5.642   0.072  0.8499 -0.5929  0.3116
 8779SOL    HW127236   3.028   5.691   0.156  2.2261  0.4227 -0.5805
 8779SOL    HW227237   2.909   5.651   0.052  0.9046  1.0849  0.6390
 8780SOL     OW27238   4.830   3.427   5.317 -0.0243  0.1396  0.0370
 8780SOL    HW127239   4.925   3.451   5.337  0.7368 -0.9004 -2.0545
 8780SOL    HW227240   4.790   3.495   5.255 -0.7790  0.7317  1.1324
 8781SOL     OW27241   5.148   1.143   2.978  0.0095  0.2125 -0.4100
 8781SOL    HW127242   5.158   1.126   2.880 -0.6103  1.6549 -0.7519
 8781SOL    HW227243   5.082   1.217   2.992 -1.2743 -1.1789  1.1834
 8782SOL     OW27244   0.004   3.151   0.394 -1.4162 -0.2524  0.6328
 8782SOL    HW127245  -0.037   3.162   0.304 -2.2573 -1.2821  0.8707
 8782SOL    HW227246  -0.033   3.220   0.456 -1.6073 -0.1869  0.4462
 8783SOL     OW27247   1.450   0.580   0.443  0.2136  0.6454 -0.0282
 8783SOL    HW127248   1.386   0.644   0.400 -3.1588 -2.9531 -1.0011
 8783SOL    HW227249   1.433   0.578   0.541 -0.7420  0.2002 -0.1934
 8784SOL     OW27250   3.166   3.674   5.566  1.0006  0.1991  0.3343
 8784SOL    HW127251   3.247   3.678   5.624  0.7618 -0.0122  0.6889
 8784SOL    HW227252   3.095   3.734   5.604  0.9314  0.2600  0.1138
 8785SOL     OW27253   3.795   3.723   2.154  0.2107 -0.3257 -0.0518
 8785SOL    HW127254   3.781   3.803   2.096 -0.7993  0.9978  1.8991
 8785SOL    HW227255   3.890   3.694   2.148  1.1548  2.3276  0.7326
 8786SOL     OW27256   5.264   0.066   4.369  0.4383 -0.7696 -0.1175
 8786SOL    HW127257   5.276   0.062   4.468  2.4184 -0.2805 -0.2861
 8786SOL    HW227258   5.272   0.161   4.338  2.1775 -1.1295 -0.9373
 8787SOL     OW27259   3.323   4.470   6.281  0.0342  0.2676 -0.3546
 8787SOL    HW127260   3.304   4.568   6.282  1.6433  0.6246 -0.6624
 8787SOL    HW227261   3.412   4.454   6.237 -0.8518 -1.4691 -1.6134
 8788SOL     OW27262   4.397   2.443   4.867  0.0901  0.4009 -0.2110
 8788SOL    HW127263   4.303   2.436   4.900 -0.4817  1.2987 -1.5661
 8788SOL    HW227264   4.398   2.432   4.767  1.8718 -3.3266  0.0554
 8789SOL     OW27265   5.698   4.603   1.256  0.0738 -0.6458  0.1378
 8789SOL    HW127266   5.662   4.606   1.163 -0.5215  1.1931  0.3916
 8789SOL    HW227267   5.781   4.658   1.262 -2.6023  3.7895  1.6687
 8790SOL     OW27268   4.845   6.297   1.168 -0.4334  0.2194 -0.3691
 8790SOL    HW127269   4.860   6.201   1.146 -0.6857  0.4821 -1.8486
 8790SOL    HW227270   4.933   6.341   1.187  0.0946  0.3155 -2.6464
 8791SOL     OW27271   5.477   2.846   1.588 -0.1571  0.1780 -0.1729
 8791SOL    HW127272   5.576   2.843   1.605 -0.0997 -0.1092 -0.5438
 8791SOL    HW227273   5.458   2.807   1.498 -0.5253  1.0269 -0.4719
 8792SOL     OW27274   1.927   4.690   3.737 -0.0922 -0.4652  0.9876
 8792SOL    HW127275   1.841   4.656   3.702 -0.4478 -0.7919  2.1344
 8792SOL    HW227276   2.003   4.649   3.687 -0.5994  0.1364 -0.3003
 8793SOL     OW27277   0.493   0.330   2.962 -0.6175 -1.4103 -1.1867
 8793SOL    HW127278   0.517   0.370   2.873  0.1867 -3.4678 -1.9641
 8793SOL    HW227279   0.577   0.316   3.015 -0.9831 -1.2775 -0.5678
 8794SOL     OW27280   3.571   2.413   5.387 -0.3161  0.0925 -0.4296
 8794SOL    HW127281   3.522   2.359   5.318 -0.7337  0.1397 -0.1699
 8794SOL    HW227282   3.511   2.482   5.425 -0.8728 -1.4749  1.7349
 8795SOL     OW27283   5.933   4.022   5.944  0.1609  0.1370  0.0195
 8795SOL    HW127284   5.885   3.938   5.921 -0.1505  0.2915  0.0987
 8795SOL    HW227285   6.012   4.032   5.884  0.1866 -0.1994 -0.0053
 8796SOL     OW27286   0.771   1.935   3.384  0.1898  0.2617  0.0433
 8796SOL    HW127287   0.707   2.008   3.361  0.1041  0.1322 -0.1282
 8796SOL    HW227288   0.791   1.881   3.302 -0.4745 -0.4814  0.3563
 8797SOL     OW27289   5.442   1.472   1.273 -0.0988 -0.1894  0.5542
 8797SOL    HW127290   5.426   1.570   1.258 -2.1237 -0.6719 -0.8050
 8797SOL    HW227291   5.540   1.453   1.267  0.3708  1.7708  1.1595
 8798SOL     OW27292   3.145   5.397   6.869 -0.0533 -0.9789 -0.3788
 8798SOL    HW127293   3.185   5.488   6.880  1.6770 -1.5993 -1.1569
 8798SOL    HW227294   3.062   5.403   6.813 -1.5342  0.4262  1.8141
 8799SOL     OW27295   2.107   1.426   5.648  0.6383  0.6209  0.0387
 8799SOL    HW127296   2.093   1.392   5.741 -0.5339  2.0312  0.4152
 8799SOL    HW227297   2.039   1.496   5.627  1.1051  0.5884 -1.7700
 8800SOL     OW27298   1.049   1.547   0.217  0.0378  0.2220  0.7987
 8800SOL    HW127299   0.959   1.555   0.176 -0.2841 -0.1417  1.4255
 8800SOL    HW227300   1.116   1.525   0.147 -0.4200  0.1323  0.3903
 8801SOL     OW27301   0.131   0.275   5.675  0.2897  0.4699  0.0891
 8801SOL    HW127302   0.211   0.296   5.619  1.0104 -0.9796  0.5395
 8801SOL    HW227303   0.095   0.186   5.649 -0.7090  0.7620  0.4417
 8802SOL     OW27304   6.918   3.228   5.465 -0.2469  0.4707  0.1594
 8802SOL    HW127305   6.935   3.143   5.414 -1.5911 -0.5759  1.3515
 8802SOL    HW227306   6.968   3.225   5.551 -1.3560  0.2456  0.8145
 8803SOL     OW27307   5.997   3.130   2.097 -0.1773  0.8890  0.1945
 8803SOL    HW127308   5.937   3.052   2.081 -0.2649  1.0738 -0.3895
 8803SOL    HW227309   5.955   3.213   2.061  0.6061  0.9587 -0.6058
 8804SOL     OW27310   1.560   5.947   0.300  0.3206 -0.3909 -0.3915
 8804SOL    HW127311   1.473   5.911   0.331 -0.4966  1.3805 -0.5052
 8804SOL    HW227312   1.561   5.951   0.200  0.8990 -1.2429 -0.4284
 8805SOL     OW27313   0.082   0.764   2.960 -0.0943 -0.1803 -0.7864
 8805SOL    HW127314   0.037   0.841   2.914 -0.4296  0.4096  0.4674
 8805SOL    HW227315   0.178   0.760   2.931  0.2208  1.3995 -0.0896
 8806SOL     OW27316   4.609   2.281   3.161  0.2148  0.1190  1.1179
 8806SOL    HW127317   4.636   2.364   3.112  0.2244  0.7711  2.1960
 8806SOL    HW227318   4.517   2.253   3.132  0.2675  0.4164  0.6513
 8807SOL     OW27319   0.715   3.418   2.071 -0.0054 -0.0631  0.9265
 8807SOL    HW127320   0.675   3.350   2.009  1.7070 -0.4350  0.1535
 8807SOL    HW227321   0.643   3.467   2.119 -1.3826 -0.1608 -0.9547
 8808SOL     OW27322   4.789   2.696   4.323  0.1016 -0.2987  0.3787
 8808SOL    HW127323   4.713   2.675   4.262 -0.7789  0.8663  1.0239
 8808SOL    HW227324   4.763   2.674   4.417  0.2163  0.9302  0.7147
 8809SOL     OW27325   0.234   3.929   0.828  0.1146  0.2199 -0.3961
 8809SOL    HW127326   0.166   3.901   0.760  1.0083 -1.6280 -0.6120
 8809SOL    HW227327   0.281   4.012   0.796  1.9817 -1.6993 -3.2382
 8810SOL     OW27328   0.423   1.178   0.699 -0.7549 -0.3604 -0.1632
 8810SOL    HW127329   0.439   1.182   0.798  1.4208 -0.1280 -0.4817
 8810SOL    HW227330   0.417   1.083   0.670  0.7649 -0.5161 -0.0678
 8811SOL     OW27331   6.901   0.405   4.954  0.1093  0.0595  0.2287
 8811SOL    HW127332   6.826   0.467   4.974  0.5602 -0.3329  3.8876
 8811SOL    HW227333   6.986   0.456   4.948  0.5323 -0.0282  3.5749
 8812SOL     OW27334   4.997   6.976   5.351  0.4550 -0.8710 -0.7254
 8812SOL    HW127335   5.041   6.891   5.379  0.0872 -1.0045 -0.5428
 8812SOL    HW227336   4.907   6.956   5.313 -0.1659 -0.4768  0.4652
 8813SOL     OW27337   6.136   3.802   3.492 -0.3965  0.5571  0.2213
 8813SOL    HW127338   6.090   3.885   3.460  0.7513  1.6528  1.2927
 8813SOL    HW227339   6.138   3.802   3.592  0.0383 -0.5283  0.2209
 8814SOL     OW27340   0.348   6.931   3.862 -0.1893  0.0082 -0.5597
 8814SOL    HW127341   0.328   6.844   3.908 -3.9801  1.2167  0.3870
 8814SOL    HW227342   0.330   6.921   3.764 -0.8131 -0.2388 -0.4259
 8815SOL     OW27343   6.321   6.710   4.665  0.2328 -0.3552  0.0734
 8815SOL    HW127344   6.274   6.772   4.727  1.2351  0.3943  0.1237
 8815SOL    HW227345   6.420   6.717   4.680  0.3573 -2.6713  0.7298
 8816SOL     OW27346   4.354   2.121   4.102  0.4209  0.3067 -0.1140
 8816SOL    HW127347   4.366   2.036   4.050  0.3555  0.2526 -0.0407
 8816SOL    HW227348   4.257   2.145   4.103  0.3860  0.1520  0.2320
 8817SOL     OW27349   6.614   3.381   0.823 -0.4805 -0.6624 -0.5460
 8817SOL    HW127350   6.535   3.333   0.786 -1.0659 -1.1503  1.2550
 8817SOL    HW227351   6.588   3.474   0.849 -0.2125 -0.5007 -0.8507
 8818SOL     OW27352   1.107   5.251   4.368  0.0544  0.5442  1.2918
 8818SOL    HW127353   1.124   5.318   4.296 -0.3427 -0.2796  0.4087
 8818SOL    HW227354   1.033   5.283   4.427 -2.3893 -0.4441 -0.9974
 8819SOL     OW27355   4.903   0.613   3.140  0.3407 -0.6052  0.2864
 8819SOL    HW127356   4.968   0.679   3.102 -1.0673 -0.1432 -1.5007
 8819SOL    HW227357   4.821   0.612   3.083  0.3888 -4.1069  0.1139
 8820SOL     OW27358   6.989   5.282   5.510  0.3501 -0.6577 -0.2240
 8820SOL    HW127359   6.965   5.185   5.509  0.7736 -0.7828  0.8016
 8820SOL    HW227360   6.909   5.337   5.484  0.6553 -1.3443 -2.9656
 8821SOL     OW27361   4.093   4.693   5.727  0.0854  0.2537 -0.2901
 8821SOL    HW127362   4.116   4.690   5.824 -0.3326  1.9317 -0.1038
 8821SOL    HW227363   3.994   4.688   5.716  0.0767  0.9476 -0.5602
 8822SOL     OW27364   1.303   4.612   1.050  1.0168 -0.2271 -0.2263
 8822SOL    HW127365   1.298   4.644   0.955  1.8536 -0.9266 -0.5194
 8822SOL    HW227366   1.399   4.600   1.076  0.8254  0.6552  0.9642
 8823SOL     OW27367   4.439   2.540   5.187  0.1088 -0.2269  0.2616
 8823SOL    HW127368   4.442   2.514   5.091 -0.5214 -1.4948  0.5561
 8823SOL    HW227369   4.346   2.525   5.222  0.1575  0.8537  0.9091
 8824SOL     OW27370   0.187   1.100   0.392 -0.1361 -0.0164 -0.0697
 8824SOL    HW127371   0.234   1.179   0.352 -0.1707 -0.4972 -1.0935
 8824SOL    HW227372   0.255   1.040   0.435 -0.1614  0.8018  1.1725
 8825SOL     OW27373   2.044   5.450   3.288 -0.2110  0.2715  0.0009
 8825SOL    HW127374   2.051   5.550   3.297 -1.0191  0.5009 -1.6597
 8825SOL    HW227375   1.951   5.426   3.260 -0.1714 -1.0170  0.8915
 8826SOL     OW27376   1.596   4.154   3.192  0.0799  0.0290  0.4472
 8826SOL    HW127377   1.605   4.252   3.210 -0.0258  0.0789  0.2312
 8826SOL    HW227378   1.638   4.132   3.104  0.3980 -0.1765  0.6507
 8827SOL     OW27379   0.516   1.886   5.443  0.5752  0.0885  0.5171
 8827SOL    HW127380   0.505   1.834   5.359 -0.6435 -0.1264  0.7897
 8827SOL    HW227381   0.536   1.824   5.519  0.9091  0.2007  0.5206
 8828SOL     OW27382   6.001   2.879   0.508 -0.1945  0.2617  0.2712
 8828SOL    HW127383   5.957   2.802   0.555  2.8296 -1.9617 -0.2236
 8828SOL    HW227384   6.076   2.914   0.564  0.6896  0.4897 -1.0062
 8829SOL     OW27385   5.957   2.020   0.299 -0.1200  0.0810 -0.0722
 8829SOL    HW127386   5.911   2.099   0.257  1.4667  0.9162 -0.3182
 8829SOL    HW227387   5.986   1.957   0.227  0.7817  0.5024 -0.0932
 8830SOL     OW27388   5.080   6.086   0.743  0.5137 -0.2285 -0.3343
 8830SOL    HW127389   5.157   6.150   0.754  0.1873  0.1757 -0.3535
 8830SOL    HW227390   5.063   6.039   0.829 -1.0827  1.8278  0.5578
 8831SOL     OW27391   5.735   1.127   5.424  0.3527  0.1321 -0.5417
 8831SOL    HW127392   5.714   1.050   5.485 -0.4268  0.3621 -0.5030
 8831SOL    HW227393   5.672   1.203   5.444 -0.2859  0.0157 -2.0011
 8832SOL     OW27394   2.651   2.036   1.211  0.5052 -0.2160 -0.1065
 8832SOL    HW127395   2.659   2.115   1.151 -0.0589 -0.9608 -1.2026
 8832SOL    HW227396   2.577   2.050   1.276  2.2313  1.3364  1.6302
 8833SOL     OW27397   6.573   2.682   3.326  0.1485  0.2447 -0.1068
 8833SOL    HW127398   6.567   2.781   3.324  0.1544  0.2467 -0.0045
 8833SOL    HW227399   6.669   2.654   3.328  0.1756  0.2214 -1.0044
 8834SOL     OW27400   3.245   3.190   0.205  0.6614  0.0842  0.0866
 8834SOL    HW127401   3.242   3.098   0.166  1.5816 -0.2903  0.8734
 8834SOL    HW227402   3.203   3.189   0.296  0.0695  0.5897 -0.1733
 8835SOL     OW27403   0.091   2.106   1.386 -0.5880  0.1344 -0.2362
 8835SOL    HW127404   0.151   2.073   1.313  0.0438 -0.4703  0.5416
 8835SOL    HW227405   0.137   2.178   1.437 -1.0217  0.5417 -0.4150
 8836SOL     OW27406   6.891   0.962   1.421  0.3829 -0.1329 -0.8684
 8836SOL    HW127407   6.925   0.903   1.348 -0.1393  0.0106 -1.2331
 8836SOL    HW227408   6.839   1.037   1.381 -0.6369 -0.5239 -0.3194
 8837SOL     OW27409   4.390   4.798   5.089 -0.0118  0.0436  0.0930
 8837SOL    HW127410   4.371   4.702   5.073  0.5648 -0.4737  2.2175
 8837SOL    HW227411   4.480   4.808   5.130 -1.6768  0.9777  3.9759
 8838SOL     OW27412   3.276   2.421   1.637 -0.5686  0.1286 -0.4194
 8838SOL    HW127413   3.343   2.390   1.570  1.0694  0.3421  1.0464
 8838SOL    HW227414   3.259   2.519   1.625 -0.0630  0.2259 -0.3470
 8839SOL     OW27415   5.360   4.197   1.108  0.4920  0.0707 -0.1209
 8839SOL    HW127416   5.363   4.121   1.173  1.0828 -0.8034 -1.1476
 8839SOL    HW227417   5.298   4.174   1.033 -1.5747  1.7731  0.9344
 8840SOL     OW27418   3.918   4.697   0.305 -0.1945 -0.2540 -0.7068
 8840SOL    HW127419   3.950   4.712   0.399 -1.5188 -0.1393 -0.2433
 8840SOL    HW227420   3.846   4.763   0.284 -1.3503 -1.5651 -1.0571
 8841SOL     OW27421   1.137   4.676   0.047  0.0067 -0.0188  0.8181
 8841SOL    HW127422   1.157   4.749  -0.018 -0.0735 -1.5963 -1.0664
 8841SOL    HW227423   1.102   4.716   0.132 -0.3169  2.0971 -0.2322
 8842SOL     OW27424   6.495   5.412   6.881  0.6875  0.0674 -0.2947
 8842SOL    HW127425   6.499   5.468   6.963 -1.4379  0.1027 -0.1702
 8842SOL    HW227426   6.546   5.456   6.808  1.3952  0.7444  0.5818
 8843SOL     OW27427   1.902   4.650   0.533 -0.0102  0.2523  0.5794
 8843SOL    HW127428   1.877   4.734   0.485  0.1533 -0.3221 -0.5467
 8843SOL    HW227429   1.971   4.601   0.479  0.3126 -0.3264  1.5017
 8844SOL     OW27430   6.979   0.141   4.068  0.5310 -0.4522  0.7622
 8844SOL    HW127431   7.067   0.142   4.020  0.2889 -3.5619  0.0119
 8844SOL    HW227432   6.995   0.133   4.166  1.1230 -1.2844  0.6119
 8845SOL     OW27433   0.246   0.361   1.930  0.0626  0.4186 -0.5114
 8845SOL    HW127434   0.257   0.446   1.878 -0.0804  0.4320 -0.5196
 8845SOL    HW227435   0.312   0.293   1.898  1.5511  1.1704  0.8370
 8846SOL     OW27436   1.189   4.461   2.363 -0.3621  0.5445 -0.2108
 8846SOL    HW127437   1.185   4.393   2.436 -1.2129  0.0375 -0.7213
 8846SOL    HW227438   1.097   4.487   2.335 -0.0659  0.3483 -1.4615
 8847SOL     OW27439   5.346   6.815   4.344  0.2365  0.8225 -0.0894
 8847SOL    HW127440   5.347   6.783   4.250 -0.8466 -0.3048  0.2520
 8847SOL    HW227441   5.333   6.914   4.346 -0.5914  0.7429 -1.1050
 8848SOL     OW27442   2.728   2.389   5.714  0.0362  0.1153 -0.4191
 8848SOL    HW127443   2.788   2.461   5.679 -1.3827  1.8152  0.4881
 8848SOL    HW227444   2.686   2.419   5.800  0.1344 -2.2084  0.5131
 8849SOL     OW27445   4.003   5.325   0.482  0.4054  0.7627  0.8416
 8849SOL    HW127446   4.008   5.295   0.386  1.6874 -1.9865  1.6627
 8849SOL    HW227447   4.095   5.329   0.520 -0.1295  1.1210  2.1460
 8850SOL     OW27448   0.229   4.967   3.341  0.4407  0.0842 -0.1115
 8850SOL    HW127449   0.148   4.918   3.309  0.7482  0.6015 -1.8046
 8850SOL    HW227450   0.205   5.060   3.367  0.6699  0.7891 -2.1821
 8851SOL     OW27451   2.040   3.679   5.175  0.5204 -0.1707 -0.1017
 8851SOL    HW127452   1.972   3.617   5.137  0.2929 -0.4494  0.7400
 8851SOL    HW227453   2.061   3.750   5.109  0.6914 -1.0667 -1.0376
 8852SOL     OW27454   6.585   3.971   0.720 -0.1314 -0.2934 -1.6213
 8852SOL    HW127455   6.666   3.970   0.779  0.6431 -0.9086 -2.6605
 8852SOL    HW227456   6.594   3.899   0.650 -2.0218 -1.0220 -1.1695
 8853SOL     OW27457   4.543   6.985   1.228  0.1291 -0.4290 -0.2304
 8853SOL    HW127458   4.527   7.069   1.280  0.0584 -0.9769  0.6685
 8853SOL    HW227459   4.456   6.937   1.216  0.3923 -1.1905  0.7367
 8854SOL     OW27460   5.218   4.783   4.060 -0.1296 -0.1857  0.2818
 8854SOL    HW127461   5.140   4.724   4.080 -1.2339  0.3424 -2.1686
 8854SOL    HW227462   5.273   4.794   4.143 -3.4569  0.6560  2.5685
 8855SOL     OW27463   6.603   5.757   1.137  0.0545 -0.6328 -0.1975
 8855SOL    HW127464   6.637   5.670   1.103  1.1957 -0.4345  0.4168
 8855SOL    HW227465   6.668   5.830   1.114 -0.0400 -0.2144  0.8103
 8856SOL     OW27466   3.363   6.586   4.854 -0.0836 -0.0691  0.4235
 8856SOL    HW127467   3.457   6.608   4.883 -0.6815 -0.0645  2.5090
 8856SOL    HW227468   3.347   6.489   4.866 -1.0270  0.2729  2.3664
 8857SOL     OW27469   1.366   2.811   3.586  0.2776 -0.0864  0.4341
 8857SOL    HW127470   1.420   2.887   3.621 -0.8654  0.7977  0.3160
 8857SOL    HW227471   1.398   2.786   3.494  1.8305 -0.9633  1.1646
 8858SOL     OW27472   0.724   3.668   3.421 -0.2365  0.5078  0.2596
 8858SOL    HW127473   0.793   3.616   3.370 -0.5485 -1.0817  1.3771
 8858SOL    HW227474   0.761   3.757   3.447 -0.2088  1.5893 -3.0486
 8859SOL     OW27475   1.933   0.306   1.846  0.5297 -0.3870  0.2050
 8859SOL    HW127476   1.898   0.234   1.787 -0.3747 -0.4086  0.7302
 8859SOL    HW227477   2.007   0.270   1.903 -0.3175 -1.1078  0.9039
 8860SOL     OW27478   6.903   4.159   0.263  0.4198  0.1087  0.1969
 8860SOL    HW127479   6.872   4.120   0.350 -1.9803 -0.2526 -0.7298
 8860SOL    HW227480   7.000   4.180   0.269  0.9097 -2.2146  2.1105
 8861SOL     OW27481   4.575   1.094   5.529 -0.1224 -0.0795  0.3713
 8861SOL    HW127482   4.556   1.098   5.627  2.3403 -0.7005  0.9602
 8861SOL    HW227483   4.614   1.182   5.499  0.4782 -0.3613  0.3025
 8862SOL     OW27484   3.895   6.821   0.227 -0.5524 -0.3535  0.7066
 8862SOL    HW127485   3.911   6.807   0.325 -0.4748  1.6847  1.0317
 8862SOL    HW227486   3.804   6.860   0.214  0.1632  1.2121  0.1743
 8863SOL     OW27487   0.404   1.446   4.051 -0.1746 -0.0092  0.4660
 8863SOL    HW127488   0.402   1.538   4.089  1.7107  0.0308  0.5777
 8863SOL    HW227489   0.498   1.412   4.050 -0.7322 -1.6736 -0.2182
 8864SOL     OW27490   0.649   0.163   3.500 -0.1971  0.7109 -0.5561
 8864SOL    HW127491   0.680   0.257   3.484 -0.9977  1.1154  0.1931
 8864SOL    HW227492   0.599   0.159   3.586 -0.3915 -0.3614 -0.7114
 8865SOL     OW27493   3.935   3.320   0.209  0.3082 -0.2587 -0.0224
 8865SOL    HW127494   3.841   3.339   0.183  0.1750 -0.1593  0.5196
 8865SOL    HW227495   3.995   3.391   0.173  0.2431 -0.5658 -0.7596
 8866SOL     OW27496   1.675   6.541   2.105  0.1766  0.4142  0.3157
 8866SOL    HW127497   1.724   6.608   2.049  0.6550 -0.5151 -0.4027
 8866SOL    HW227498   1.695   6.558   2.201  1.6196  0.3016  0.0628
 8867SOL     OW27499   4.774   0.688   2.608  0.1233  0.0879 -0.2520
 8867SOL    HW127500   4.754   0.762   2.543  1.0764  1.6817  1.1876
 8867SOL    HW227501   4.869   0.660   2.598  0.2825  0.3634  0.4748
 8868SOL     OW27502   1.434   2.646   3.823 -0.1093  0.4724 -0.1630
 8868SOL    HW127503   1.447   2.677   3.917 -0.2987 -0.2469  0.1070
 8868SOL    HW227504   1.370   2.707   3.777 -0.3164  0.6116  0.2964
 8869SOL     OW27505   3.689   5.308   3.937  0.3746  0.0392 -0.6362
 8869SOL    HW127506   3.612   5.362   3.971  0.2860 -0.2694 -0.3385
 8869SOL    HW227507   3.707   5.232   4.000  2.0810  1.1419  0.2777
 8870SOL     OW27508   5.205   4.283   0.264  0.4107 -0.3018 -0.5676
 8870SOL    HW127509   5.239   4.330   0.346  0.6468  0.4292 -1.0769
 8870SOL    HW227510   5.221   4.184   0.274  1.6599 -0.0950 -0.2965
 8871SOL     OW27511   4.156   0.654   4.985 -0.2116  0.0762  0.3850
 8871SOL    HW127512   4.130   0.688   5.076  0.3153  2.9648 -0.4499
 8871SOL    HW227513   4.077   0.612   4.942 -0.5591 -1.0365  2.0264
 8872SOL     OW27514   5.727   4.564   2.789 -0.0689  0.0781  0.3559
 8872SOL    HW127515   5.672   4.604   2.863  2.7625  0.5569  2.3667
 8872SOL    HW227516   5.715   4.465   2.789 -2.7858  0.3088 -0.9605
 8873SOL     OW27517   2.190   0.024   6.733  0.1339 -0.3045  0.3029
 8873SOL    HW127518   2.216   0.113   6.696  0.7660 -0.0947  1.2194
 8873SOL    HW227519   2.157  -0.034   6.659 -0.2156  0.6633 -0.3175
 8874SOL     OW27520   2.511   6.867   3.343 -0.0893  0.0876  0.2404
 8874SOL    HW127521   2.466   6.844   3.429  1.8254  1.0230  1.5729
 8874SOL    HW227522   2.461   6.941   3.298 -1.1756 -0.4846  0.4761
 8875SOL     OW27523   4.662   5.551   2.023  0.2004  0.5201 -0.3812
 8875SOL    HW127524   4.586   5.486   2.023  1.4071 -0.9552  0.3578
 8875SOL    HW227525   4.647   5.619   1.951 -2.2441  0.8346  0.3184
 8876SOL     OW27526   5.720   6.062   4.683  0.0656  0.2727  0.5846
 8876SOL    HW127527   5.702   6.156   4.653  0.7884  0.5435  0.9764
 8876SOL    HW227528   5.663   6.040   4.762  0.7679  0.8152  1.2600
 8877SOL     OW27529   3.155   3.810   1.551 -1.0124 -0.2934 -0.1237
 8877SOL    HW127530   3.080   3.757   1.512 -1.2180 -0.2068  0.1444
 8877SOL    HW227531   3.223   3.748   1.590 -0.8934 -0.3742 -0.4595
 8878SOL     OW27532   1.514   5.985   2.612  0.7825  0.1190 -0.1792
 8878SOL    HW127533   1.483   5.893   2.636 -1.8478  0.5666 -1.5075
 8878SOL    HW227534   1.552   6.029   2.694  0.9003 -1.6586  0.7838
 8879SOL     OW27535   1.023   5.590   0.638  0.5155  0.1297 -0.1172
 8879SOL    HW127536   0.939   5.595   0.692  0.0600 -0.2319 -0.7878
 8879SOL    HW227537   1.011   5.526   0.562  1.4349 -0.0171 -0.1537
 8880SOL     OW27538   2.816   5.368   4.194  0.8123  0.0160 -0.1936
 8880SOL    HW127539   2.780   5.358   4.286  0.7047  3.0907  0.2142
 8880SOL    HW227540   2.741   5.365   4.128  0.6064 -0.0116  0.0400
 8881SOL     OW27541   5.954   3.984   3.345  0.0584  0.1057 -0.3081
 8881SOL    HW127542   6.020   4.054   3.320  1.0130 -0.0668  1.5287
 8881SOL    HW227543   5.890   3.969   3.270  0.4077  2.2592 -1.0936
 8882SOL     OW27544   3.580   2.942   4.319 -0.3399 -0.0911 -0.4655
 8882SOL    HW127545   3.667   2.899   4.346 -0.6076  0.5513  1.5634
 8882SOL    HW227546   3.597   3.035   4.289 -0.2717 -0.1227 -0.5249
 8883SOL     OW27547   4.002   0.969   3.161 -0.1757 -0.2933 -0.3830
 8883SOL    HW127548   4.083   0.961   3.103 -0.2132 -0.6634 -0.3871
 8883SOL    HW227549   3.932   0.904   3.130  0.5610 -2.0149  1.3117
 8884SOL     OW27550   4.069   6.497   1.447 -0.0215  0.3021  0.8206
 8884SOL    HW127551   3.979   6.531   1.422  0.7299  0.0021 -2.7180
 8884SOL    HW227552   4.139   6.560   1.412  1.2083 -0.7688  1.2658
 8885SOL     OW27553   3.094   6.258   6.297  0.5104 -0.0239 -0.0861
 8885SOL    HW127554   3.177   6.268   6.243  0.6884  0.2710  0.2430
 8885SOL    HW227555   3.102   6.176   6.354  0.1595 -0.5670 -0.7836
 8886SOL     OW27556   2.209   3.975   6.121 -0.1847 -0.3063  0.1187
 8886SOL    HW127557   2.151   4.009   6.195  1.1454 -1.0312  1.5571
 8886SOL    HW227558   2.155   3.915   6.061 -1.1557 -0.1522  0.8100
 8887SOL     OW27559   4.590   1.403   2.731 -0.1272  1.0105 -0.0760
 8887SOL    HW127560   4.666   1.420   2.667 -0.9373  0.7537 -1.1374
 8887SOL    HW227561   4.504   1.426   2.686 -0.6647  1.7204  1.2675
 8888SOL     OW27562   3.318   0.359   3.341 -0.6348  0.0390  0.4323
 8888SOL    HW127563   3.365   0.288   3.290 -1.6812  0.8192 -1.7428
 8888SOL    HW227564   3.321   0.337   3.439 -0.2553 -2.5505 -0.0803
 8889SOL     OW27565   6.940   1.460   6.360 -0.0801  0.1528 -0.2581
 8889SOL    HW127566   6.971   1.453   6.455  1.8177 -0.6998 -0.8868
 8889SOL    HW227567   7.002   1.520   6.309 -1.3440  0.9798 -0.8732
 8890SOL     OW27568   2.245   0.067   4.203 -0.4073  0.4661 -0.1279
 8890SOL    HW127569   2.301   0.125   4.144  0.1342  2.0785  1.8760
 8890SOL    HW227570   2.295  -0.018   4.224 -0.7245 -0.2643 -2.1266
 8891SOL     OW27571   4.594   2.197   2.023  0.1018  0.3839  0.3915
 8891SOL    HW127572   4.497   2.201   2.050 -0.3953 -2.0525 -0.7601
 8891SOL    HW227573   4.604   2.136   1.944  2.8170 -1.0004  1.6632
 8892SOL     OW27574   0.402   4.882   0.914  0.4120  0.1314 -0.4605
 8892SOL    HW127575   0.458   4.936   0.852 -0.7575  0.7733 -0.9953
 8892SOL    HW227576   0.389   4.931   1.000  0.4104  0.1309 -0.4604
 8893SOL     OW27577   6.815   6.950   3.409  0.3538  0.2747 -0.4410
 8893SOL    HW127578   6.733   6.899   3.434 -0.5448  1.3788 -1.0643
 8893SOL    HW227579   6.824   6.954   3.310  1.9154 -0.9546 -0.4033
 8894SOL     OW27580   3.208   6.823   2.984 -0.2550 -1.2144 -0.2263
 8894SOL    HW127581   3.289   6.767   3.001 -0.4398 -1.1977  0.7747
 8894SOL    HW227582   3.226   6.917   3.014 -0.6375 -1.2039 -0.0286
 8895SOL     OW27583   0.480   2.788   1.302 -0.3513  0.0263 -0.6522
 8895SOL    HW127584   0.432   2.703   1.324  0.2589 -0.4854 -1.2498
 8895SOL    HW227585   0.479   2.849   1.381 -0.0355 -0.8902  0.0652
 8896SOL     OW27586   5.447   0.695   5.500 -0.2059 -0.0097 -0.2704
 8896SOL    HW127587   5.440   0.794   5.510  0.9989  0.1191 -0.5401
 8896SOL    HW227588   5.509   0.659   5.570 -2.4138 -0.9067  1.3275
 8897SOL     OW27589   5.700   0.075   0.790  0.0637 -0.2712 -0.2415
 8897SOL    HW127590   5.756   0.029   0.859  0.8305  0.9125 -0.0418
 8897SOL    HW227591   5.709   0.027   0.703 -0.2715 -1.3056  0.2815
 8898SOL     OW27592   0.592   4.975   3.591  0.2810 -0.3047 -0.4384
 8898SOL    HW127593   0.568   5.009   3.501 -1.7415 -0.6463 -0.0813
 8898SOL    HW227594   0.622   5.051   3.649 -0.9925  0.3734 -0.6312
 8899SOL     OW27595   1.930   4.183   3.162 -0.0560 -0.0270  0.2994
 8899SOL    HW127596   1.903   4.217   3.252 -0.2135 -0.0291  0.2541
 8899SOL    HW227597   1.964   4.258   3.106  0.7784 -0.1519  0.6231
 8900SOL     OW27598   6.553   6.671   4.321  0.2510  0.0184  0.0541
 8900SOL    HW127599   6.485   6.721   4.375  1.3651  1.5499  0.1044
 8900SOL    HW227600   6.548   6.700   4.225  1.3316  0.7522  0.1981
 8901SOL     OW27601   0.771   4.273   0.320 -0.0558  0.0313 -0.1904
 8901SOL    HW127602   0.733   4.202   0.261 -0.2850 -0.0530  0.0571
 8901SOL    HW227603   0.747   4.363   0.284  2.0416  0.0534 -1.7342
 8902SOL     OW27604   1.628   5.254   0.094  0.1915 -0.1006  0.1619
 8902SOL    HW127605   1.682   5.170   0.096 -0.5757 -0.6384 -0.6798
 8902SOL    HW227606   1.579   5.260   0.007  0.2194  1.2162  0.2190
 8903SOL     OW27607   4.653   2.575   1.433 -0.2921  0.1368 -0.6951
 8903SOL    HW127608   4.646   2.581   1.334 -1.2091  1.5175 -0.5772
 8903SOL    HW227609   4.679   2.664   1.470 -0.9560 -0.0820  0.3595
 8904SOL     OW27610   5.361   2.804   1.327  0.7876  0.1860  0.0839
 8904SOL    HW127611   5.407   2.739   1.267  0.7902  0.5897 -0.3555
 8904SOL    HW227612   5.320   2.877   1.273 -0.2393 -0.0785  0.4795
 8905SOL     OW27613   5.669   0.582   1.558 -0.2618  0.1552 -0.2110
 8905SOL    HW127614   5.636   0.598   1.465 -1.0890 -0.4712 -0.0314
 8905SOL    HW227615   5.599   0.611   1.624  0.0868  0.0635  0.2071
 8906SOL     OW27616   6.701   1.486   2.301  0.1263 -0.3282 -0.9802
 8906SOL    HW127617   6.615   1.537   2.309 -0.0467 -0.8436  1.4793
 8906SOL    HW227618   6.772   1.545   2.263 -0.0986  1.7895  1.5804
 8907SOL     OW27619   5.230   5.597   3.182 -0.0715 -0.1837 -0.8973
 8907SOL    HW127620   5.235   5.513   3.238  0.8166  0.8356  0.6320
 8907SOL    HW227621   5.316   5.609   3.133  0.3807  0.5476  0.0291
 8908SOL     OW27622   5.650   5.569   0.233  0.0430 -0.4528  0.0812
 8908SOL    HW127623   5.718   5.528   0.174  1.1609  2.1084 -0.5560
 8908SOL    HW227624   5.695   5.607   0.314 -0.7236  0.4569  0.1008
 8909SOL     OW27625   0.893   4.012   1.016  0.1174 -0.1611 -0.1291
 8909SOL    HW127626   0.794   4.016   1.027  0.1346  0.5885 -0.2133
 8909SOL    HW227627   0.923   4.087   0.957  0.7003 -0.5721 -0.3675
 8910SOL     OW27628   1.208   2.105   6.747  0.1601 -0.1872 -0.7538
 8910SOL    HW127629   1.231   2.201   6.733 -0.0202 -0.1846 -1.0259
 8910SOL    HW227630   1.282   2.061   6.799  0.0521  0.1907 -0.2761
 8911SOL     OW27631   3.532   3.863   3.931 -0.8925  0.0781 -0.8726
 8911SOL    HW127632   3.480   3.824   4.007  1.2174  1.3440  1.3436
 8911SOL    HW227633   3.510   3.960   3.921  0.8736  0.6201  0.0610
 8912SOL     OW27634   3.554   3.053   2.740  0.5501  0.1512  0.0738
 8912SOL    HW127635   3.496   2.977   2.769 -1.8059  1.7020 -0.2270
 8912SOL    HW227636   3.569   3.115   2.818 -1.0144  1.4132 -0.5726
 8913SOL     OW27637   4.886   6.942   6.794 -0.1014 -1.2597 -0.6471
 8913SOL    HW127638   4.925   6.953   6.702  2.0333  0.1696  0.3438
 8913SOL    HW227639   4.919   6.857   6.834  4.5521  0.9914  1.1272
 8914SOL     OW27640   4.680   1.180   3.133  0.1507 -0.5742 -0.3127
 8914SOL    HW127641   4.759   1.120   3.139  0.1056 -0.5281  1.6163
 8914SOL    HW227642   4.611   1.151   3.200  0.0979  1.5126  0.6427
 8915SOL     OW27643   6.824   1.224   4.736 -0.6586  0.1107 -0.1588
 8915SOL    HW127644   6.736   1.204   4.693 -0.2431 -0.8072 -0.6197
 8915SOL    HW227645   6.878   1.282   4.675 -1.6393  2.2529  0.9282
 8916SOL     OW27646   4.778   1.877   4.678 -0.0628  0.6614 -0.1862
 8916SOL    HW127647   4.730   1.927   4.606  1.0235  1.4063 -0.4076
 8916SOL    HW227648   4.784   1.934   4.759 -1.1217 -0.1097  0.4677
 8917SOL     OW27649   2.781   2.039   1.444 -0.2670  0.5756  0.3097
 8917SOL    HW127650   2.809   1.944   1.459 -3.2189 -0.4442 -0.0942
 8917SOL    HW227651   2.732   2.046   1.357  1.8558  2.9997 -0.8297
 8918SOL     OW27652   1.188   1.748   0.426  0.0894  0.2852  1.0169
 8918SOL    HW127653   1.139   1.665   0.401  1.3543 -0.6825  1.6052
 8918SOL    HW227654   1.126   1.812   0.472 -0.8771 -0.3824  0.6601
 8919SOL     OW27655   1.714   2.362   5.606  0.1063 -1.0939 -0.2191
 8919SOL    HW127656   1.727   2.333   5.701 -1.2669 -0.3426  0.2168
 8919SOL    HW227657   1.640   2.309   5.565 -0.5570 -0.1430 -0.2776
 8920SOL     OW27658   1.544   6.233   0.336 -0.0389  0.1048 -0.2689
 8920SOL    HW127659   1.548   6.319   0.387  0.1228 -0.2843  0.3858
 8920SOL    HW227660   1.598   6.164   0.383 -0.7224 -0.5488 -0.4237
 8921SOL     OW27661   2.568   6.654   3.159 -0.1438  0.1324 -0.1338
 8921SOL    HW127662   2.522   6.605   3.233 -2.4552  0.6782 -1.1385
 8921SOL    HW227663   2.587   6.748   3.188  1.6284 -0.4478  0.7445
 8922SOL     OW27664   3.789   2.989   0.159 -0.2934  0.1132 -0.0888
 8922SOL    HW127665   3.865   3.018   0.217 -0.4188 -0.7853  0.5472
 8922SOL    HW227666   3.781   2.890   0.161 -1.4517  0.1872 -0.1936
 8923SOL     OW27667   4.071   6.350   1.122  0.4650  0.2992  0.2078
 8923SOL    HW127668   4.149   6.306   1.077 -0.8307 -0.4230 -1.3992
 8923SOL    HW227669   4.088   6.448   1.130  2.0536 -0.0024  1.0343
 8924SOL     OW27670   1.186   6.241   3.340  0.3212  0.0036  0.5494
 8924SOL    HW127671   1.122   6.184   3.288  0.4847 -1.1090  1.5308
 8924SOL    HW227672   1.269   6.188   3.360 -0.2424 -0.0565  2.9949
 8925SOL     OW27673   6.392   6.433   1.341  0.2006 -0.1866  0.0279
 8925SOL    HW127674   6.341   6.356   1.304  0.5484  0.8746 -2.8985
 8925SOL    HW227675   6.361   6.451   1.435 -0.1597 -3.5446  0.6831
 8926SOL     OW27676   5.925   5.375   2.137 -0.7575 -0.4835 -0.1185
 8926SOL    HW127677   5.959   5.389   2.230 -1.8070  0.5106  0.1226
 8926SOL    HW227678   5.884   5.284   2.130 -0.8548 -0.4829  0.4441
 8927SOL     OW27679   4.516   3.678   0.836  0.0152  0.8457  0.4856
 8927SOL    HW127680   4.536   3.627   0.752  1.9453 -0.3581  1.5966
 8927SOL    HW227681   4.459   3.758   0.814 -0.5327 -0.0827 -1.7582
 8928SOL     OW27682   0.275   6.459   1.189 -0.1429 -0.1321  0.2716
 8928SOL    HW127683   0.221   6.542   1.206 -0.4130 -0.1280 -0.5626
 8928SOL    HW227684   0.302   6.419   1.276 -0.2320  0.6901  0.6914
 8929SOL     OW27685   2.590   4.926   4.599 -0.0231 -0.2904 -0.1227
 8929SOL    HW127686   2.655   4.993   4.635 -0.1235  0.0225 -0.5239
 8929SOL    HW227687   2.508   4.972   4.568 -0.2492 -0.6403 -0.0584
 8930SOL     OW27688   6.603   6.339   1.504  0.1508  0.5882 -0.1736
 8930SOL    HW127689   6.637   6.261   1.452 -0.9948  0.0452 -0.1510
 8930SOL    HW227690   6.513   6.365   1.469  0.1029  1.2939  0.4427
 8931SOL     OW27691   6.123   1.629   5.205 -0.1830  1.0830 -0.6636
 8931SOL    HW127692   6.098   1.721   5.236 -1.1312 -0.0720  2.2597
 8931SOL    HW227693   6.044   1.586   5.162 -0.3558  0.8794 -0.1401
 8932SOL     OW27694   0.911   3.452   7.011  0.9604  0.0436  0.4374
 8932SOL    HW127695   0.827   3.432   7.061  0.2408 -0.4657 -0.9203
 8932SOL    HW227696   0.988   3.455   7.074 -0.0927  0.6350  1.7202
 8933SOL     OW27697   0.732   2.016   0.624 -0.1452 -0.3234 -0.0276
 8933SOL    HW127698   0.758   2.096   0.677 -0.3668  0.7457 -1.4788
 8933SOL    HW227699   0.634   2.016   0.608  0.2000  0.8726 -2.6713
 8934SOL     OW27700   5.217   5.930   1.997 -0.2453  0.3499  0.0272
 8934SOL    HW127701   5.238   5.837   1.968  2.5328 -0.0262  2.6911
 8934SOL    HW227702   5.121   5.935   2.028 -0.9422 -1.0993 -1.7537
 8935SOL     OW27703   4.510   3.257   0.160 -0.1012  0.1135  0.5926
 8935SOL    HW127704   4.602   3.218   0.164 -0.5556 -1.0827 -0.1203
 8935SOL    HW227705   4.452   3.199   0.103 -1.8859 -0.3774  2.7549
 8936SOL     OW27706   1.770   6.443   2.931 -0.3991 -0.1074 -0.4784
 8936SOL    HW127707   1.818   6.360   2.901  0.7797  0.4060 -0.0848
 8936SOL    HW227708   1.749   6.436   3.029  0.1552  0.2484 -0.3255
 8937SOL     OW27709   2.984   1.558   2.022  0.2363  0.6577 -0.0819
 8937SOL    HW127710   2.935   1.602   1.948 -0.6031  0.1985  0.1840
 8937SOL    HW227711   3.043   1.625   2.068 -2.0572  1.9188  1.2262
 8938SOL     OW27712   5.094   1.815   5.473  0.4004 -0.3334  0.1597
 8938SOL    HW127713   5.139   1.856   5.553  0.7122  1.4437 -0.8832
 8938SOL    HW227714   4.995   1.824   5.482  0.4850  2.0824 -0.7156
 8939SOL     OW27715   3.653   3.896   5.128 -0.2332 -0.3959  0.0616
 8939SOL    HW127716   3.662   3.812   5.073  1.8586 -0.2647  0.1231
 8939SOL    HW227717   3.657   3.872   5.225  0.3119 -0.2418  0.0796
 8940SOL     OW27718   1.851   6.746   6.404 -0.0759 -0.1292  0.0829
 8940SOL    HW127719   1.771   6.715   6.351  1.8652  0.2272 -3.3904
 8940SOL    HW227720   1.915   6.670   6.413  1.2480  0.7464 -1.4894
 8941SOL     OW27721   0.559   5.293   6.963 -0.5852  0.3769 -0.3164
 8941SOL    HW127722   0.592   5.354   6.892  0.4339  1.0766  0.7290
 8941SOL    HW227723   0.574   5.335   7.053 -1.0792 -0.8439  0.3587
 8942SOL     OW27724   3.386   6.516   1.238 -0.4524  1.0257  0.7524
 8942SOL    HW127725   3.334   6.431   1.239 -0.3800  0.9142 -0.9445
 8942SOL    HW227726   3.325   6.592   1.213  0.0653  0.9400 -0.9560
 8943SOL     OW27727   6.439   0.990   2.002 -0.0801  0.2193  0.0028
 8943SOL    HW127728   6.351   0.983   1.955  0.9383 -1.8345 -1.7530
 8943SOL    HW227729   6.499   1.054   1.953 -0.6229  1.8657  1.3763
 8944SOL     OW27730   3.116   7.002   6.523  0.2540 -0.4831 -0.0399
 8944SOL    HW127731   3.210   7.035   6.513 -0.2275  0.8462 -0.3780
 8944SOL    HW227732   3.117   6.906   6.551  1.7284 -0.1628  1.1567
 8945SOL     OW27733   3.720   2.122   1.734 -0.0502 -0.3677 -0.2566
 8945SOL    HW127734   3.680   2.209   1.764 -1.3509 -1.0519  0.0958
 8945SOL    HW227735   3.755   2.072   1.813  3.1160  0.9250 -0.7193
 8946SOL     OW27736   0.566   2.581   4.881  0.4512 -0.1570  0.8242
 8946SOL    HW127737   0.507   2.508   4.915  1.9663 -0.6234  2.5764
 8946SOL    HW227738   0.538   2.605   4.788 -1.8066 -1.0575  1.2021
 8947SOL     OW27739   0.931   0.823   3.933 -0.0537  0.6088 -0.3473
 8947SOL    HW127740   0.843   0.781   3.914 -0.2445  0.9442 -0.2120
 8947SOL    HW227741   1.001   0.752   3.941 -0.2469  0.3673 -0.8028
 8948SOL     OW27742   4.397   6.992   5.353  0.7069  0.4634 -1.0128
 8948SOL    HW127743   4.301   6.966   5.340  0.9369 -0.0389 -1.7337
 8948SOL    HW227744   4.423   7.058   5.284  0.3684  2.0398  0.3051
 8949SOL     OW27745   1.795   3.563   3.860 -0.0732  0.3380  0.5634
 8949SOL    HW127746   1.767   3.467   3.872 -1.9690  0.6968 -0.6062
 8949SOL    HW227747   1.753   3.619   3.931  2.0884  0.1884  2.0589
 8950SOL     OW27748   3.784   3.282   2.614 -0.4174  0.3232 -0.0947
 8950SOL    HW127749   3.870   3.236   2.634 -0.8573 -0.5878 -0.2730
 8950SOL    HW227750   3.744   3.317   2.699 -0.3537 -0.1155  0.1185
 8951SOL     OW27751   2.495   5.230   3.340 -0.3360 -0.3795  0.1782
 8951SOL    HW127752   2.515   5.323   3.310 -0.1799 -0.2032  0.8173
 8951SOL    HW227753   2.405   5.202   3.305  0.6415 -0.9101 -2.0954
 8952SOL     OW27754   6.881   4.422   4.104 -0.0676  0.4938 -0.2609
 8952SOL    HW127755   6.857   4.374   4.188 -0.7369 -0.0896 -0.7744
 8952SOL    HW227756   6.905   4.356   4.033  0.2928  0.9740 -0.5955
 8953SOL     OW27757   1.692   6.186   2.548 -0.4934 -0.3760  0.1696
 8953SOL    HW127758   1.664   6.098   2.585  1.4208 -1.6927 -1.2904
 8953SOL    HW227759   1.767   6.224   2.603  0.6358 -1.1126 -0.8011
 8954SOL     OW27760   5.893   4.044   6.452 -0.2439  0.5170 -0.3423
 8954SOL    HW127761   5.946   3.972   6.497  0.2876  0.9304 -0.2969
 8954SOL    HW227762   5.865   4.013   6.361 -1.2858 -0.3091  0.2292
 8955SOL     OW27763   5.985   2.122   6.118  0.2775  0.0638  0.2633
 8955SOL    HW127764   5.902   2.176   6.128 -0.1082 -0.8378  2.6520
 8955SOL    HW227765   5.962   2.025   6.120  1.1108 -0.2593 -2.3916
 8956SOL     OW27766   4.749   3.153   0.204  0.4945 -0.5801  0.0648
 8956SOL    HW127767   4.810   3.189   0.274 -1.4745  1.4658  0.8959
 8956SOL    HW227768   4.759   3.207   0.120 -1.5533  1.2787  0.9000
 8957SOL     OW27769   0.276   2.580   1.182 -0.3099 -0.0538 -0.0935
 8957SOL    HW127770   0.254   2.676   1.164 -0.1926  0.5881  2.6733
 8957SOL    HW227771   0.366   2.559   1.143  0.1649  1.2970  0.1968
 8958SOL     OW27772   0.315   4.278   3.324  0.3444 -0.0792 -0.2316
 8958SOL    HW127773   0.398   4.308   3.277  0.0205  2.2873  0.5844
 8958SOL    HW227774   0.332   4.276   3.423 -0.4796  0.1195 -0.0824
 8959SOL     OW27775   3.271   6.388   0.903 -0.0773  0.3458  0.1640
 8959SOL    HW127776   3.249   6.310   0.845  0.5645 -0.5550  1.0897
 8959SOL    HW227777   3.347   6.363   0.964  1.4791  2.3237 -0.8487
 8960SOL     OW27778   0.807   1.570   0.582 -0.3238  0.0777  0.3484
 8960SOL    HW127779   0.858   1.498   0.630 -0.9466  0.2502  1.2816
 8960SOL    HW227780   0.792   1.542   0.487 -0.9173 -1.2210  0.7970
 8961SOL     OW27781   2.329   1.962   1.121 -0.0816  0.5861  0.5257
 8961SOL    HW127782   2.379   1.886   1.164 -0.4317  0.3890  0.5872
 8961SOL    HW227783   2.360   1.973   1.027 -1.4912 -1.0020 -0.1788
 8962SOL     OW27784   3.210   2.315   1.290  0.5021  0.1188  0.5529
 8962SOL    HW127785   3.128   2.307   1.346 -0.3303 -1.2596 -0.7830
 8962SOL    HW227786   3.279   2.249   1.321 -0.1462 -0.9952 -0.3004
 8963SOL     OW27787   0.456   5.735   2.927  0.0568 -0.4282  0.3379
 8963SOL    HW127788   0.514   5.804   2.882 -1.1919 -0.3323 -1.2371
 8963SOL    HW227789   0.367   5.775   2.947 -0.2298 -1.2116  0.6514
 8964SOL     OW27790   1.509   2.526   1.517 -0.2713  0.4857  0.3223
 8964SOL    HW127791   1.529   2.464   1.441  0.6342  1.5527 -0.3416
 8964SOL    HW227792   1.456   2.604   1.484  0.6442  1.2616  0.6354
 8965SOL     OW27793   5.445   6.941   5.494 -0.0825 -0.4099 -0.0887
 8965SOL    HW127794   5.465   7.029   5.537 -1.2702 -1.1449  2.0813
 8965SOL    HW227795   5.352   6.913   5.516  0.7210 -2.8833  0.4855
 8966SOL     OW27796   3.271   4.933   1.552 -0.0755 -0.1263 -0.4459
 8966SOL    HW127797   3.236   4.908   1.642  1.1564 -0.8093 -0.1317
 8966SOL    HW227798   3.215   5.007   1.514 -0.4614  0.3519  0.9779
 8967SOL     OW27799   5.641   3.511   3.363  0.6238 -0.4950 -0.0982
 8967SOL    HW127800   5.715   3.502   3.429 -0.3397  0.1425  1.1029
 8967SOL    HW227801   5.630   3.424   3.314  2.4612 -0.4536 -0.6774
 8968SOL     OW27802   3.186   1.322   6.306 -0.2985 -0.5679  0.0859
 8968SOL    HW127803   3.188   1.373   6.220  1.4038  0.0307  0.4412
 8968SOL    HW227804   3.279   1.302   6.334 -0.8858 -1.9985  1.0851
 8969SOL     OW27805   6.376   5.031   2.504  0.2593 -0.1582 -0.0749
 8969SOL    HW127806   6.365   5.099   2.432  0.9622  0.0295 -0.0097
 8969SOL    HW227807   6.457   4.975   2.486  0.3614 -0.2013  0.4941
 8970SOL     OW27808   5.958   4.099   4.945  0.3361 -0.2955  0.1805
 8970SOL    HW127809   6.049   4.109   4.905  0.7670 -2.3799  0.5140
 8970SOL    HW227810   5.947   4.164   5.020  1.5164  0.0314  0.0834
 8971SOL     OW27811   5.585   2.019   0.172  0.4949  0.3665 -0.4679
 8971SOL    HW127812   5.663   2.057   0.223  0.0445 -0.4961  0.9361
 8971SOL    HW227813   5.533   2.093   0.130  1.1122  1.0947  0.0148
 8972SOL     OW27814   3.008   4.834   3.211 -0.0249  0.1007  0.3493
 8972SOL    HW127815   2.926   4.785   3.182 -1.1227  1.4896  0.9370
 8972SOL    HW227816   3.037   4.895   3.137  0.2056 -0.0553  0.3120
 8973SOL     OW27817   2.977   4.980   0.371  0.1028  0.1701 -0.0844
 8973SOL    HW127818   2.985   5.036   0.289  0.1037 -0.9773 -0.8857
 8973SOL    HW227819   2.923   4.899   0.351  0.9082 -0.6091  0.7804
 8974SOL     OW27820   4.045   3.921   6.371 -0.3556 -0.1511  0.3255
 8974SOL    HW127821   3.946   3.918   6.386  0.0467 -1.5668  3.5756
 8974SOL    HW227822   4.073   4.015   6.353 -2.0850  0.5742  1.1664
 8975SOL     OW27823   0.532   6.400   4.082 -0.5399  0.5416  0.6120
 8975SOL    HW127824   0.439   6.370   4.059 -0.0619 -0.9190  0.4857
 8975SOL    HW227825   0.553   6.373   4.176  0.8944 -2.2248 -0.3772
 8976SOL     OW27826   1.629   5.626   2.800  0.1257  0.3162 -0.3526
 8976SOL    HW127827   1.715   5.653   2.757  0.0039 -0.6519 -1.2480
 8976SOL    HW227828   1.553   5.659   2.745 -0.1243  1.7320  0.7737
 8977SOL     OW27829   6.100   4.382   1.265  0.0823 -0.0233  0.1631
 8977SOL    HW127830   6.076   4.290   1.234 -2.2919  0.6298 -0.1688
 8977SOL    HW227831   6.079   4.392   1.362 -3.1544  1.1123 -0.5270
 8978SOL     OW27832   1.792   0.130   4.684 -0.6527 -0.0487  0.4874
 8978SOL    HW127833   1.697   0.100   4.675 -0.4109 -1.0572  1.1765
 8978SOL    HW227834   1.795   0.221   4.724 -1.3885  0.8094 -1.3086
 8979SOL     OW27835   0.274   2.802   5.677 -0.3316 -0.1234 -0.1031
 8979SOL    HW127836   0.237   2.729   5.621 -0.6930 -0.3409  0.4043
 8979SOL    HW227837   0.373   2.806   5.667 -0.3189 -0.6437 -0.1772
 8980SOL     OW27838   3.592   0.635   3.854  0.4109  0.3275  0.6712
 8980SOL    HW127839   3.608   0.656   3.950  1.7762  1.9952  0.1210
 8980SOL    HW227840   3.651   0.691   3.797  0.1443 -1.1362 -1.1470
 8981SOL     OW27841   3.513   2.046   2.362 -0.1001  0.7723 -0.3409
 8981SOL    HW127842   3.594   1.991   2.338  0.0691  0.0290  1.7057
 8981SOL    HW227843   3.472   2.083   2.279  0.5349 -1.4025 -1.7179
 8982SOL     OW27844   3.022   6.507   6.762  0.3260  0.5826 -0.8910
 8982SOL    HW127845   3.105   6.466   6.798 -1.7157 -3.0634  0.2500
 8982SOL    HW227846   3.003   6.469   6.672 -0.7333  0.3708 -0.5908
 8983SOL     OW27847   3.155   4.164   6.941  0.1892 -0.3270  0.7559
 8983SOL    HW127848   3.127   4.074   6.906 -2.0532  1.1116 -1.4565
 8983SOL    HW227849   3.243   4.189   6.900 -0.5138 -0.3825 -0.8806
 8984SOL     OW27850   1.725   0.818   2.887  0.2097 -0.3840  0.5856
 8984SOL    HW127851   1.795   0.805   2.957  0.7525 -2.1392 -0.2109
 8984SOL    HW227852   1.769   0.840   2.800  0.4374 -5.9463 -1.0928
 8985SOL     OW27853   1.318   3.992   1.264 -0.2017  0.5334 -0.4145
 8985SOL    HW127854   1.311   4.092   1.258 -0.7005  0.5119 -0.2813
 8985SOL    HW227855   1.362   3.957   1.181 -2.3418  0.6611 -1.6924
 8986SOL     OW27856   6.822   3.836   2.648 -0.2534 -0.0463  0.3146
 8986SOL    HW127857   6.820   3.758   2.584 -0.0427  0.3224 -0.1505
 8986SOL    HW227858   6.740   3.836   2.703  0.2906 -1.3129  1.1759
 8987SOL     OW27859   5.434   3.303   0.877 -0.1355  0.1336 -0.1607
 8987SOL    HW127860   5.419   3.382   0.817  0.5402 -0.8363 -1.6978
 8987SOL    HW227861   5.530   3.275   0.869  0.5855  1.2524  3.0802
 8988SOL     OW27862   0.646   1.298   4.026 -0.2157  0.2406 -0.5292
 8988SOL    HW127863   0.716   1.347   3.973  0.0368 -0.4576 -0.8623
 8988SOL    HW227864   0.689   1.254   4.105  0.1667 -1.8926 -1.8215
 8989SOL     OW27865   5.890   6.916   6.046 -0.5364  0.2252  0.0292
 8989SOL    HW127866   5.793   6.902   6.066 -0.2671 -0.3780  0.9703
 8989SOL    HW227867   5.941   6.832   6.065  0.2182  0.6321 -0.1436
 8990SOL     OW27868   3.400   2.104   5.889  0.0426 -0.3465  0.6035
 8990SOL    HW127869   3.306   2.075   5.907 -0.6100  2.0496  1.5003
 8990SOL    HW227870   3.417   2.104   5.791 -1.4116  0.5255  0.3146
 8991SOL     OW27871   2.667   1.046   2.523 -0.3900  0.2419  0.3324
 8991SOL    HW127872   2.742   0.984   2.544  0.6632 -0.6677 -4.8361
 8991SOL    HW227873   2.705   1.133   2.489 -1.7033  0.6597 -0.1085
 8992SOL     OW27874   5.688   5.086   6.226  0.2358 -0.5385  0.2159
 8992SOL    HW127875   5.599   5.121   6.258  1.8701  0.2823  4.5146
 8992SOL    HW227876   5.683   4.987   6.218 -1.7313 -0.3391 -2.4352
 8993SOL     OW27877   0.098   5.215   1.759 -0.0389  0.2956 -0.3645
 8993SOL    HW127878   0.147   5.261   1.833  2.4880 -0.0089 -1.7155
 8993SOL    HW227879   0.161   5.153   1.712 -0.4353  2.8621 -4.8107
 8994SOL     OW27880   2.291   5.656   6.825 -0.0900  0.1922  1.1376
 8994SOL    HW127881   2.193   5.643   6.841 -0.9750  0.6012 -2.8813
 8994SOL    HW227882   2.319   5.746   6.860 -1.8734  1.2598 -0.0276
 8995SOL     OW27883   6.254   3.846   5.166 -0.1351  0.2238  0.0197
 8995SOL    HW127884   6.235   3.761   5.215  1.7194 -0.4650 -0.3826
 8995SOL    HW227885   6.231   3.835   5.069 -0.7706  0.5143  0.1300
 8996SOL     OW27886   3.452   6.158   2.801  1.0762 -0.4384  0.2291
 8996SOL    HW127887   3.508   6.099   2.742  1.2223  0.8093 -0.9138
 8996SOL    HW227888   3.355   6.145   2.779  1.1225 -0.0762 -0.1866
 8997SOL     OW27889   4.366   3.985   5.800 -0.3962 -0.0550 -0.6380
 8997SOL    HW127890   4.386   3.891   5.831 -0.4205  0.0678 -0.2425
 8997SOL    HW227891   4.426   4.008   5.724  2.0042  0.7690  1.3580
 8998SOL     OW27892   4.974   0.633   5.259 -0.0479 -0.8599  0.0030
 8998SOL    HW127893   4.891   0.637   5.315 -0.3651 -2.9600 -0.2395
 8998SOL    HW227894   5.007   0.726   5.242 -2.0642  0.0090  0.5018
 8999SOL     OW27895   4.246   3.132   0.803  0.1047 -0.2411  0.8127
 8999SOL    HW127896   4.293   3.045   0.820 -1.3414 -1.0194  0.9776
 8999SOL    HW227897   4.193   3.158   0.884 -0.7258 -0.0132  0.2072
 9000SOL     OW27898   1.638   4.778   5.415  0.4066 -0.3484  0.2351
 9000SOL    HW127899   1.698   4.716   5.364 -0.7559 -0.4157 -1.1254
 9000SOL    HW227900   1.587   4.725   5.483  0.1334 -0.7333 -0.2571
 9001SOL     OW27901   6.862   2.187   4.031  0.6654 -0.0310  0.0148
 9001SOL    HW127902   6.846   2.234   4.118  0.1757 -0.2372  0.0412
 9001SOL    HW227903   6.947   2.220   3.990  1.7528 -1.0655  1.3310
 9002SOL     OW27904   1.051   2.104   1.210  0.2654 -0.1885 -0.0887
 9002SOL    HW127905   1.074   2.012   1.182 -1.0503 -0.5524 -0.0318
 9002SOL    HW227906   1.060   2.167   1.133 -1.5156 -0.8587 -0.8909
 9003SOL     OW27907   1.755   0.956   6.473 -0.2583  0.4358  0.0918
 9003SOL    HW127908   1.797   0.982   6.560 -1.8498  0.1072  0.9855
 9003SOL    HW227909   1.725   1.038   6.425 -0.6767  0.5329  0.5218
 9004SOL     OW27910   6.569   0.782   5.692  0.0903  0.1557 -0.2291
 9004SOL    HW127911   6.526   0.837   5.621 -1.2751 -2.0456 -1.2245
 9004SOL    HW227912   6.501   0.720   5.732  1.5695 -1.0154  0.6121
 9005SOL     OW27913   3.450   4.125   3.517 -0.4866 -0.5950  0.1444
 9005SOL    HW127914   3.417   4.093   3.428 -1.2089  0.0437  0.1724
 9005SOL    HW227915   3.376   4.172   3.565 -0.0300 -0.7225  0.9837
 9006SOL     OW27916   2.846   6.324   0.672  0.5017  0.5892  0.1292
 9006SOL    HW127917   2.891   6.302   0.758 -0.5067  0.8672  0.7447
 9006SOL    HW227918   2.759   6.370   0.691  0.5374  1.1755 -1.0449
 9007SOL     OW27919   4.125   6.489   1.985  0.2923 -0.4118  0.4086
 9007SOL    HW127920   4.213   6.537   1.993  0.2527 -0.4400  1.0926
 9007SOL    HW227921   4.051   6.552   2.009 -0.1635  0.5030 -2.9138
 9008SOL     OW27922   1.191   5.486   6.267  0.6517 -0.4277  0.0754
 9008SOL    HW127923   1.123   5.445   6.328  1.0436 -0.9523  0.1714
 9008SOL    HW227924   1.223   5.573   6.306 -0.1028 -0.0771 -0.0725
 9009SOL     OW27925   5.413   2.347   4.095  0.2486  0.0892 -0.2954
 9009SOL    HW127926   5.399   2.442   4.123  0.3198  0.2443 -0.7747
 9009SOL    HW227927   5.328   2.296   4.107 -0.2025  0.5553 -1.3526
 9010SOL     OW27928   0.344   5.603   5.335 -0.6433  0.3874 -0.5525
 9010SOL    HW127929   0.437   5.577   5.310 -1.2238 -0.1528 -2.3007
 9010SOL    HW227930   0.324   5.569   5.427  0.4705 -0.5769 -0.6380
 9011SOL     OW27931   4.149   2.110   3.063  0.2138 -0.1134  0.1202
 9011SOL    HW127932   4.224   2.077   3.006 -1.1497 -0.0685 -1.8277
 9011SOL    HW227933   4.181   2.185   3.121  2.7585 -3.0168  2.8368
 9012SOL     OW27934   3.683   6.663   1.880 -0.0143 -0.1659  0.6286
 9012SOL    HW127935   3.647   6.740   1.931 -0.3543 -0.4664  0.8454
 9012SOL    HW227936   3.619   6.586   1.885  1.0674 -1.0341  1.8290
 9013SOL     OW27937   3.302   6.320   6.889 -0.1778  0.7915 -0.2867
 9013SOL    HW127938   3.225   6.257   6.879  0.8447 -0.6100  0.3600
 9013SOL    HW227939   3.326   6.327   6.986  1.5482 -0.1061 -0.6224
 9014SOL     OW27940   5.305   4.435   2.407  0.4283  0.1675 -0.4321
 9014SOL    HW127941   5.274   4.530   2.404 -2.1837 -0.6303 -1.4103
 9014SOL    HW227942   5.255   4.386   2.478  1.3877 -0.6087 -0.2724
 9015SOL     OW27943   0.535   0.005   5.271 -0.3801  0.1304  0.5050
 9015SOL    HW127944   0.499   0.084   5.221 -0.7926  0.5346  1.4065
 9015SOL    HW227945   0.589   0.037   5.349  1.5029 -0.4754 -0.4963
 9016SOL     OW27946   2.789   2.239   2.280 -0.6593  0.3294 -0.1715
 9016SOL    HW127947   2.834   2.286   2.204  0.8224 -3.4277 -1.8850
 9016SOL    HW227948   2.714   2.183   2.245  0.2674 -1.7500  0.9779
 9017SOL     OW27949   4.802   2.468   0.184 -0.5919 -0.0508 -0.2425
 9017SOL    HW127950   4.902   2.469   0.174 -0.7903  2.6569 -3.1683
 9017SOL    HW227951   4.766   2.383   0.144  0.3554  0.6443 -2.7544
 9018SOL     OW27952   6.684   2.593   6.859  0.1733  0.2639  0.1216
 9018SOL    HW127953   6.730   2.506   6.874  0.0822  0.3185  0.7763
 9018SOL    HW227954   6.623   2.586   6.780 -1.4343 -0.9245  1.3923
 9019SOL     OW27955   0.884   4.111   4.413  0.1113 -0.4597  0.5346
 9019SOL    HW127956   0.873   4.018   4.447 -2.1381 -0.7534 -0.7938
 9019SOL    HW227957   0.816   4.171   4.455 -1.4683 -0.4421 -1.8456
 9020SOL     OW27958   1.487   0.062   1.215  0.2384  0.1454  0.2085
 9020SOL    HW127959   1.406   0.119   1.206  0.2746  0.1591 -0.0547
 9020SOL    HW227960   1.567   0.114   1.184 -0.1488 -1.1287 -3.4395
 9021SOL     OW27961   4.891   6.625   1.047  0.6408  0.2593  0.5583
 9021SOL    HW127962   4.825   6.696   1.069 -2.1062 -2.5305  2.2136
 9021SOL    HW227963   4.896   6.612   0.948 -2.4439 -0.2995  0.3749
 9022SOL     OW27964   3.873   3.054   5.125  0.2705  0.4204  0.1212
 9022SOL    HW127965   3.938   3.002   5.182 -0.7200 -1.1483 -0.1193
 9022SOL    HW227966   3.923   3.099   5.051  1.2285  0.1549  0.5859
 9023SOL     OW27967   1.659   1.702   5.563 -0.1683 -0.4910 -0.6147
 9023SOL    HW127968   1.608   1.754   5.495  0.8316 -0.1618 -1.1231
 9023SOL    HW227969   1.597   1.675   5.637 -0.7808  1.1440 -0.4875
 9024SOL     OW27970   1.373   0.752   6.223 -0.0518  0.1835  0.3189
 9024SOL    HW127971   1.314   0.808   6.280  0.6283 -0.9942  2.2652
 9024SOL    HW227972   1.463   0.742   6.266  0.4578 -0.8318 -0.9009
 9025SOL     OW27973   4.738   5.753   5.149  1.1098  0.0018 -0.7003
 9025SOL    HW127974   4.784   5.665   5.159  2.0913  0.6347  0.6834
 9025SOL    HW227975   4.639   5.738   5.143  1.0099 -1.1176  2.0515
 9026SOL     OW27976   3.266   4.743   6.293 -0.1666 -0.0755 -0.0750
 9026SOL    HW127977   3.318   4.811   6.241  0.5699 -1.7646 -1.6694
 9026SOL    HW227978   3.216   4.788   6.367 -0.1152  2.2435 -1.3691
 9027SOL     OW27979   5.653   0.416   6.783 -0.6582 -0.2189  0.1471
 9027SOL    HW127980   5.692   0.327   6.805 -0.6974 -0.4419 -0.6657
 9027SOL    HW227981   5.660   0.432   6.685  0.9846  1.4413  0.4716
 9028SOL     OW27982   6.875   1.724   1.710 -0.4914 -0.5896 -0.0121
 9028SOL    HW127983   6.954   1.764   1.664 -2.0567  3.7286  0.4937
 9028SOL    HW227984   6.803   1.704   1.642 -0.1097 -1.5228 -0.1517
 9029SOL     OW27985   5.648   6.357   4.697 -0.6822 -0.4595 -0.0790
 9029SOL    HW127986   5.740   6.380   4.665 -1.0424  2.5624  0.6977
 9029SOL    HW227987   5.583   6.369   4.622 -0.9507  2.0775  0.4701
 9030SOL     OW27988   3.782   6.297   1.002  0.7641 -0.0946 -1.0603
 9030SOL    HW127989   3.873   6.307   1.040 -0.4256  0.0454  2.0236
 9030SOL    HW227990   3.761   6.200   0.990  0.7654 -0.2066 -0.2245
 9031SOL     OW27991   6.965   2.689   2.043 -0.1679 -0.7733 -0.2567
 9031SOL    HW127992   6.875   2.649   2.027 -0.0061 -2.2432  1.9881
 9031SOL    HW227993   7.023   2.622   2.090  1.8162  0.4453 -0.8731
 9032SOL     OW27994   5.319   5.011   3.708  0.0191  0.6200  0.2977
 9032SOL    HW127995   5.414   5.017   3.739 -0.0256  2.1597  0.1769
 9032SOL    HW227996   5.297   5.090   3.651 -1.6620  0.8572  1.2304
 9033SOL     OW27997   2.005   2.975   4.899  0.1479  0.4716  0.0168
 9033SOL    HW127998   2.073   2.961   4.827 -1.6878  2.6066 -2.2779
 9033SOL    HW227999   2.053   2.997   4.985  2.3921 -2.2859 -0.3677
 9034SOL     OW28000   0.820   0.029   4.961 -0.4051  0.3155 -0.5826
 9034SOL    HW128001   0.850  -0.036   5.031 -1.8316 -0.5058 -0.6952
 9034SOL    HW228002   0.812  -0.017   4.873 -0.2309  0.9514 -0.9394
 9035SOL     OW28003   6.381   1.740   6.960  0.0879  0.2936 -0.0697
 9035SOL    HW128004   6.385   1.714   7.057  1.0743 -1.8055 -0.6006
 9035SOL    HW228005   6.287   1.731   6.927  0.1719 -1.5861  0.0930
 9036SOL     OW28006   2.547   5.632   2.540  0.6363  0.5012 -0.3426
 9036SOL    HW128007   2.579   5.721   2.573 -0.4978  0.9687 -0.4807
 9036SOL    HW228008   2.621   5.588   2.488  1.1568  1.4174 -0.4032
 9037SOL     OW28009   2.969   3.068   0.040 -0.6322  0.1415 -0.0950
 9037SOL    HW128010   2.975   2.998   0.112 -0.1519  0.7148  0.4347
 9037SOL    HW228011   2.922   3.148   0.076  0.3315  0.7476 -0.1501
 9038SOL     OW28012   2.297   1.688   2.234  0.1804  0.5308 -0.0222
 9038SOL    HW128013   2.224   1.625   2.260 -0.1050  0.3138 -1.2747
 9038SOL    HW228014   2.296   1.768   2.294 -1.1850  0.6016 -0.0993
 9039SOL     OW28015   3.549   2.102   0.693  0.1308  0.1044 -0.5872
 9039SOL    HW128016   3.617   2.129   0.624  1.3778 -2.3513 -0.4440
 9039SOL    HW228017   3.468   2.159   0.683  1.7464  2.4396 -1.4989
 9040SOL     OW28018   0.517   3.679   5.753  0.5435 -0.3728 -0.0668
 9040SOL    HW128019   0.569   3.682   5.838  0.1989 -1.6535  0.2246
 9040SOL    HW228020   0.461   3.761   5.745  0.1611 -0.4689  1.2421
 9041SOL     OW28021   5.389   1.475   6.757  0.0521  0.5811  0.2836
 9041SOL    HW128022   5.372   1.559   6.808 -1.1289 -0.4497  1.6948
 9041SOL    HW228023   5.431   1.407   6.817 -0.4469 -0.3477 -0.3824
 9042SOL     OW28024   4.237   0.024   6.221  0.1764  0.8449 -0.1743
 9042SOL    HW128025   4.241   0.115   6.264  1.3091 -0.5269  2.9313
 9042SOL    HW228026   4.284   0.027   6.133  2.4487  2.7720  0.9932
 9043SOL     OW28027   4.416   0.662   0.185  0.1383 -0.1992  0.2567
 9043SOL    HW128028   4.473   0.594   0.138 -2.9582 -2.5081 -0.4532
 9043SOL    HW228029   4.437   0.660   0.283  2.1946  0.0855 -0.1211
 9044SOL     OW28030   0.283   4.596   1.134  0.1514  0.4616  0.1193
 9044SOL    HW128031   0.340   4.527   1.179  0.7831  1.8855  1.5737
 9044SOL    HW228032   0.342   4.664   1.090 -0.4645  0.6048 -0.5011
 9045SOL     OW28033   6.284   0.940   5.253  0.2888 -0.4424 -0.2872
 9045SOL    HW128034   6.228   0.999   5.195 -0.9733 -0.9262  0.3986
 9045SOL    HW228035   6.274   0.845   5.224  0.3405 -0.5932  0.1798
 9046SOL     OW28036   3.029   1.955   1.779 -0.1693  0.7592 -0.0888
 9046SOL    HW128037   3.027   2.012   1.861  0.2617  1.2539 -0.4082
 9046SOL    HW228038   3.044   2.014   1.699  0.7271  0.1519 -0.3813
 9047SOL     OW28039   4.818   1.634   4.220 -0.0207 -0.7850  0.4490
 9047SOL    HW128040   4.823   1.614   4.318 -2.2820 -1.2675  0.5305
 9047SOL    HW228041   4.734   1.595   4.183  0.6505 -0.3550 -1.6406
 9048SOL     OW28042   1.660   5.138   4.767 -0.1291  0.6265 -0.8013
 9048SOL    HW128043   1.625   5.229   4.791 -0.9758  0.5193 -1.5843
 9048SOL    HW228044   1.592   5.089   4.714  0.5874 -0.2214 -0.9599
 9049SOL     OW28045   0.106   1.567   5.264 -0.4155 -0.0116 -0.1180
 9049SOL    HW128046   0.156   1.504   5.204 -2.0726 -0.2874 -1.2963
 9049SOL    HW228047   0.078   1.647   5.211  0.2547  0.9541  0.9566
 9050SOL     OW28048   4.535   5.597   5.529  0.5892 -0.0353  0.7664
 9050SOL    HW128049   4.620   5.638   5.562  0.0010  0.1937  2.0698
 9050SOL    HW228050   4.475   5.668   5.493  0.6768 -0.1121  0.4650
 9051SOL     OW28051   4.968   6.154   0.519 -0.0336  0.1845  0.3848
 9051SOL    HW128052   5.015   6.124   0.602 -1.6535  1.0553  1.6880
 9051SOL    HW228053   4.871   6.127   0.525 -0.8653  2.8353  0.2237
 9052SOL     OW28054   6.079   4.248   2.356 -0.4155  0.3889 -0.1724
 9052SOL    HW128055   6.033   4.222   2.271 -2.4169 -3.4280  1.8328
 9052SOL    HW228056   6.170   4.207   2.357  0.0851  1.4199 -0.8650
 9053SOL     OW28057   6.026   2.172   6.522  0.1631  0.2430 -0.1465
 9053SOL    HW128058   6.065   2.122   6.600 -2.2272  1.1441  1.7521
 9053SOL    HW228059   6.065   2.264   6.519 -1.8645  1.2770  1.9848
 9054SOL     OW28060   5.042   0.429   3.788  0.0268  0.0363 -0.7854
 9054SOL    HW128061   4.992   0.347   3.761 -0.5946  1.0729 -3.0188
 9054SOL    HW228062   5.139   0.406   3.797 -0.4917 -1.6307  2.0297
 9055SOL     OW28063   6.202   0.844   1.037  0.0658  0.1873  0.3565
 9055SOL    HW128064   6.251   0.902   1.102 -0.6771  0.7858  0.3899
 9055SOL    HW228065   6.264   0.816   0.963 -0.0912  2.8523 -0.8725
 9056SOL     OW28066   0.634   5.811   6.142 -0.7017  0.2265 -0.0959
 9056SOL    HW128067   0.707   5.877   6.126 -2.0631  1.9964  0.5565
 9056SOL    HW228068   0.630   5.790   6.240  2.1657 -3.9398 -0.6284
 9057SOL     OW28069   1.872   1.147   6.993  0.2552  0.1195  0.3977
 9057SOL    HW128070   1.862   1.246   6.997 -0.3194  0.1952 -1.6523
 9057SOL    HW228071   1.791   1.104   7.033 -0.9567  0.5619 -1.4431
 9058SOL     OW28072   4.057   6.064   0.190  0.5716 -0.0123 -0.3561
 9058SOL    HW128073   4.088   6.059   0.095 -2.4089 -1.0179 -1.4094
 9058SOL    HW228074   4.046   5.972   0.227 -3.1427  0.0500 -0.9339
 9059SOL     OW28075   1.011   5.879   2.947 -0.1460  0.5152 -0.3748
 9059SOL    HW128076   0.956   5.809   2.902 -0.0810  1.8322 -2.6587
 9059SOL    HW228077   1.029   5.852   3.042 -1.0273 -1.9917 -0.8530
 9060SOL     OW28078   4.209   1.424   0.480  0.2758 -0.1068 -0.6590
 9060SOL    HW128079   4.304   1.454   0.494  0.5688 -0.3271 -2.0068
 9060SOL    HW228080   4.156   1.442   0.563  1.5612 -0.2742  0.2411
 9061SOL     OW28081   0.846   2.844   6.487  0.0897 -0.2593  0.2105
 9061SOL    HW128082   0.823   2.779   6.415 -1.6667 -1.3032  1.6096
 9061SOL    HW228083   0.902   2.798   6.556  0.1854  0.1645  0.4151
 9062SOL     OW28084   2.072   5.267   0.660  0.0599 -0.2704 -0.4986
 9062SOL    HW128085   1.986   5.255   0.709 -0.8037 -2.6334 -2.4002
 9062SOL    HW228086   2.087   5.364   0.642 -2.2739  0.1907 -0.2440
 9063SOL     OW28087   2.198   5.144   6.562 -0.4430 -0.1941  0.0397
 9063SOL    HW128088   2.183   5.243   6.567  1.0526  0.1563 -1.4448
 9063SOL    HW228089   2.210   5.117   6.466  0.1336 -1.6634  0.4976
 9064SOL     OW28090   2.811   5.148   6.230  0.0585  0.1815  0.1435
 9064SOL    HW128091   2.907   5.137   6.257 -0.0107  2.6011  1.7752
 9064SOL    HW228092   2.791   5.089   6.152  3.4822  1.1400 -1.6961
 9065SOL     OW28093   3.875   6.906   6.426  0.1210  0.0642 -0.4671
 9065SOL    HW128094   3.857   7.003   6.409 -1.2675 -0.2011 -0.6413
 9065SOL    HW228095   3.788   6.858   6.437  0.7682 -1.2643 -0.9879
 9066SOL     OW28096   6.539   0.252   4.347 -0.3244 -0.1732  0.0345
 9066SOL    HW128097   6.465   0.293   4.293 -0.0579  2.0165  1.2001
 9066SOL    HW228098   6.526   0.273   4.443  0.4495 -2.0138  0.5824
 9067SOL     OW28099   0.942   5.844   6.175  0.6750 -0.3934  0.3687
 9067SOL    HW128100   0.968   5.863   6.080 -0.0570  0.1925  0.2751
 9067SOL    HW228101   0.973   5.920   6.233 -0.4018  0.0964  0.3240
 9068SOL     OW28102   1.980   0.268   2.478  0.0860 -0.2784 -0.0129
 9068SOL    HW128103   2.072   0.303   2.462  0.1176 -0.0117  0.7228
 9068SOL    HW228104   1.977   0.219   2.565 -0.5683  0.0893  0.1784
 9069SOL     OW28105   0.679   2.397   0.702 -0.2177  0.0910 -0.5837
 9069SOL    HW128106   0.722   2.467   0.646 -1.2337  1.0762 -0.1831
 9069SOL    HW228107   0.748   2.335   0.738  0.7198  0.9571 -0.8637
 9070SOL     OW28108   3.032   4.421   6.111 -0.7312  0.1387  0.0057
 9070SOL    HW128109   3.050   4.496   6.174  1.3905  1.6648 -2.1921
 9070SOL    HW228110   3.002   4.341   6.162 -1.0739  1.8355  2.6798
 9071SOL     OW28111   6.673   4.891   5.338 -0.0213 -0.7514  0.0093
 9071SOL    HW128112   6.703   4.860   5.428  0.7169 -0.4522 -0.1290
 9071SOL    HW228113   6.575   4.873   5.328 -0.1495 -0.6252  0.9386
 9072SOL     OW28114   0.319   5.854   6.219 -0.5144  0.3119  0.4912
 9072SOL    HW128115   0.270   5.914   6.281 -0.4253  0.7074  0.1849
 9072SOL    HW228116   0.296   5.759   6.239 -1.8754  0.5061 -0.0238
 9073SOL     OW28117   1.392   3.669   6.819  0.4758  0.0405 -0.4370
 9073SOL    HW128118   1.426   3.631   6.905 -0.2411 -0.3315 -0.3042
 9073SOL    HW228119   1.300   3.633   6.801 -1.0118  2.9532  0.5788
 9074SOL     OW28120   1.000   4.014   5.443 -0.0971 -0.1879 -0.4317
 9074SOL    HW128121   1.093   4.047   5.460 -0.8744  0.7367  2.6767
 9074SOL    HW228122   0.946   4.088   5.402  0.2542 -0.4063 -1.3131
 9075SOL     OW28123   3.803   5.961   3.448  0.7283  0.5028 -0.0586
 9075SOL    HW128124   3.712   5.919   3.455  0.6128  0.8891  0.8256
 9075SOL    HW228125   3.858   5.909   3.383 -0.9504  1.7511 -2.6480
 9076SOL     OW28126   6.660   3.206   4.731  0.6196 -0.1378 -0.0111
 9076SOL    HW128127   6.678   3.123   4.679  0.6605  0.8775 -1.7130
 9076SOL    HW228128   6.746   3.242   4.767  0.6391 -0.6849  0.4840
 9077SOL     OW28129   3.238   4.127   3.702 -0.4215 -0.7167  0.3430
 9077SOL    HW128130   3.244   4.040   3.653 -1.2543 -1.4199  1.4341
 9077SOL    HW228131   3.185   4.114   3.786  0.5810  0.5493  1.2020
 9078SOL     OW28132   2.933   6.809   2.632 -0.2451  0.2278 -0.1035
 9078SOL    HW128133   3.005   6.858   2.582 -0.1439 -0.8385 -1.0593
 9078SOL    HW228134   2.965   6.789   2.724 -0.3899  2.1553  0.4167
 9079SOL     OW28135   1.446   0.357   5.385  0.4777  0.0014  0.3258
 9079SOL    HW128136   1.426   0.263   5.412  3.4684 -0.5493  1.0723
 9079SOL    HW228137   1.545   0.369   5.380  0.1835  3.1344  0.2251
 9080SOL     OW28138   2.519   0.582   6.261 -0.1749  0.1741  0.6558
 9080SOL    HW128139   2.563   0.536   6.184  1.4237  0.4816  1.3308
 9080SOL    HW228140   2.503   0.516   6.334 -2.5052 -0.3069 -0.2167
 9081SOL     OW28141   6.567   1.709   6.095  0.0510  0.0378 -0.5454
 9081SOL    HW128142   6.664   1.721   6.112  0.0439  0.3639 -0.7110
 9081SOL    HW228143   6.515   1.773   6.152 -0.0139  0.5299 -1.1332
 9082SOL     OW28144   2.161   6.525   2.934 -0.1329  0.5662  0.3492
 9082SOL    HW128145   2.080   6.567   2.975 -0.3761  0.5794 -0.1392
 9082SOL    HW228146   2.236   6.591   2.932 -0.7365  1.2388 -1.1131
 9083SOL     OW28147   6.234   5.853   4.449  0.2115  0.1797  0.6950
 9083SOL    HW128148   6.227   5.946   4.413 -0.5224 -0.8541 -2.0648
 9083SOL    HW228149   6.331   5.827   4.456  0.4356  1.2298  1.8371
 9084SOL     OW28150   1.955   0.359   0.528  0.2091  0.5110 -0.4977
 9084SOL    HW128151   1.871   0.409   0.552 -0.4059 -1.0113  0.7651
 9084SOL    HW228152   1.936   0.261   0.529  1.7973  0.1641 -1.1625
 9085SOL     OW28153   0.779   0.292   5.629  0.5079 -0.2456 -0.1958
 9085SOL    HW128154   0.759   0.377   5.678 -0.5852 -0.3086 -0.5112
 9085SOL    HW228155   0.814   0.224   5.694  0.4135  0.1149  0.2378
 9086SOL     OW28156   0.958   6.697   1.720  0.1661 -0.3986 -0.3376
 9086SOL    HW128157   0.883   6.686   1.655 -0.3063  1.3013 -0.1278
 9086SOL    HW228158   0.924   6.681   1.813 -0.3005  1.5845 -0.1195
 9087SOL     OW28159   5.107   4.296   5.924 -0.0414  0.4755 -0.2068
 9087SOL    HW128160   5.034   4.320   5.859 -0.5724  1.2249  0.6492
 9087SOL    HW228161   5.083   4.211   5.971 -0.4985  0.8425  0.2438
 9088SOL     OW28162   6.991   2.195   4.377 -0.2822  0.7144  0.0326
 9088SOL    HW128163   6.934   2.124   4.336 -0.5636  1.9214 -1.7463
 9088SOL    HW228164   6.976   2.195   4.476 -0.7133 -1.2869  0.0184
 9089SOL     OW28165   2.511   0.858   5.260 -0.1886 -1.3390 -0.7502
 9089SOL    HW128166   2.505   0.892   5.354 -0.1260 -0.3328 -1.0994
 9089SOL    HW228167   2.434   0.796   5.242 -1.0112 -0.4131 -0.4763
 9090SOL     OW28168   1.022   4.430   7.004 -0.0594 -0.3455  0.4137
 9090SOL    HW128169   1.064   4.520   7.017 -0.8755  0.9028 -3.9906
 9090SOL    HW228170   1.092   4.359   7.014  1.1227  0.9191  1.6339
 9091SOL     OW28171   5.919   4.242   2.122  0.2983 -0.1686  0.5015
 9091SOL    HW128172   5.845   4.174   2.123 -0.0097  0.1097  3.0499
 9091SOL    HW228173   5.880   4.334   2.123  0.6841 -0.0056  0.6547
 9092SOL     OW28174   6.618   6.899   1.294  0.2413  0.5046  0.3379
 9092SOL    HW128175   6.620   6.814   1.242  2.0599 -0.0359  1.1866
 9092SOL    HW228176   6.704   6.909   1.344 -1.4718  0.8665  3.4511
 9093SOL     OW28177   5.491   6.122   1.646 -0.0383  0.2679  0.3260
 9093SOL    HW128178   5.500   6.204   1.702  1.1742  0.8677 -0.7111
 9093SOL    HW228179   5.464   6.045   1.704  0.3413  1.0477  1.5701
 9094SOL     OW28180   2.714   0.469   6.805  0.3249  0.7576  0.4676
 9094SOL    HW128181   2.721   0.488   6.707  0.3010 -0.9076  0.1161
 9094SOL    HW228182   2.626   0.425   6.824  1.4643 -1.5517  0.7233
 9095SOL     OW28183   1.134   0.922   5.931 -0.7402  0.2363  0.6259
 9095SOL    HW128184   1.051   0.870   5.914 -0.7939  1.1330 -2.3867
 9095SOL    HW228185   1.111   1.013   5.967 -1.1320  0.6432 -0.6149
 9096SOL     OW28186   1.492   0.765   0.102  0.1678 -0.1407 -0.2507
 9096SOL    HW128187   1.516   0.857   0.072  0.7460 -0.2850 -0.2285
 9096SOL    HW228188   1.410   0.769   0.160  0.7066  0.4595  0.4692
 9097SOL     OW28189   0.015   4.332   1.155  0.1368  0.3672 -0.4050
 9097SOL    HW128190  -0.032   4.244   1.146  0.1494  0.2524  0.5171
 9097SOL    HW228191   0.090   4.322   1.221  0.4420  0.9483 -0.6643
 9098SOL     OW28192   1.770   6.426   4.998  0.2468  0.2232 -0.0130
 9098SOL    HW128193   1.842   6.400   4.933  2.5418 -1.0286  2.8067
 9098SOL    HW228194   1.794   6.512   5.042 -0.3799  0.1965  0.3927
 9099SOL     OW28195   2.236   2.925   3.931 -0.3191  0.0468  0.3992
 9099SOL    HW128196   2.307   2.869   3.888 -0.1697  1.2310 -1.0130
 9099SOL    HW228197   2.146   2.891   3.903 -0.2787 -0.4358  0.8364
 9100SOL     OW28198   1.276   2.926   4.146  0.5923  0.1621 -0.5972
 9100SOL    HW128199   1.224   2.905   4.062  0.1434  0.1462 -0.3214
 9100SOL    HW228200   1.287   3.025   4.154  0.6133  0.1651 -0.6629
 9101SOL     OW28201   1.273   6.222   4.221  0.4535 -0.1357 -0.1159
 9101SOL    HW128202   1.234   6.290   4.284 -0.9794 -1.2249  0.2467
 9101SOL    HW228203   1.200   6.185   4.164  1.5544  0.0342 -1.6833
 9102SOL     OW28204   4.158   0.762   0.395  0.8469  0.2648  0.4691
 9102SOL    HW128205   4.213   0.845   0.383  1.4280 -0.2392 -0.4772
 9102SOL    HW228206   4.061   0.787   0.401  0.8658  0.9107 -1.3278
 9103SOL     OW28207   6.790   5.945   4.704  0.2557  0.2862  0.0162
 9103SOL    HW128208   6.889   5.962   4.709  0.2968 -0.0612  0.4206
 9103SOL    HW228209   6.748   5.970   4.792  0.1224 -0.4742  0.1686
 9104SOL     OW28210   4.193   2.294   2.718  0.8115 -0.2114  0.2664
 9104SOL    HW128211   4.154   2.358   2.784 -0.3066 -0.9038  0.3073
 9104SOL    HW228212   4.182   2.330   2.626 -0.4868 -0.6321  0.2268
 9105SOL     OW28213   2.042   4.078   0.488 -0.2205 -0.5255 -0.3940
 9105SOL    HW128214   2.070   3.998   0.541 -0.7107 -0.2445  0.3031
 9105SOL    HW228215   2.114   4.147   0.491  0.7228 -1.3652 -1.9710
 9106SOL     OW28216   2.040   0.114   6.971  0.1505  0.0484 -0.0512
 9106SOL    HW128217   2.077   0.205   6.990 -2.3202  1.1669 -0.2211
 9106SOL    HW228218   2.084   0.077   6.889 -0.3143  2.0761 -1.3062
 9107SOL     OW28219   0.499   2.435   6.936  0.0649 -0.1908  0.4273
 9107SOL    HW128220   0.412   2.481   6.918  0.2557 -0.2905 -0.8849
 9107SOL    HW228221   0.527   2.452   7.030 -0.9108  0.6227  0.5891
 9108SOL     OW28222   0.993   5.457   5.216  0.0339  0.5044  0.1213
 9108SOL    HW128223   1.025   5.370   5.177  2.2198  0.9626  0.7790
 9108SOL    HW228224   0.934   5.502   5.149 -2.9373 -2.3749  0.5486
 9109SOL     OW28225   3.943   5.176   2.183  0.2787 -0.4297 -0.2416
 9109SOL    HW128226   4.018   5.113   2.203  0.0908 -0.7285 -0.4690
 9109SOL    HW228227   3.897   5.201   2.268  0.0172 -1.0291 -0.1973
 9110SOL     OW28228   1.118   2.976   5.141  0.4280 -0.1400 -0.3425
 9110SOL    HW128229   1.177   2.950   5.218  1.5685  1.0459 -0.7800
 9110SOL    HW228230   1.137   3.071   5.116 -2.0707  0.4755 -0.1599
 9111SOL     OW28231   6.310   0.335   2.067 -0.1411  0.6815 -0.5382
 9111SOL    HW128232   6.389   0.276   2.085 -0.7627  0.6709  2.8270
 9111SOL    HW228233   6.235   0.310   2.129 -1.5645  2.9405 -1.2348
 9112SOL     OW28234   0.492   2.713   6.617 -0.4995 -0.7139 -0.0823
 9112SOL    HW128235   0.431   2.779   6.662 -0.4848 -0.2180 -0.7686
 9112SOL    HW228236   0.520   2.749   6.528  2.1225 -0.1859  0.8718
 9113SOL     OW28237   0.902   1.026   5.026 -0.5995 -0.1144 -0.1187
 9113SOL    HW128238   0.900   1.069   5.116 -0.9903  1.7837 -0.9976
 9113SOL    HW228239   0.819   0.972   5.013  0.0664 -1.5197  1.1383
 9114SOL     OW28240   1.281   2.682   0.091  0.5309 -0.5666  0.1617
 9114SOL    HW128241   1.217   2.649   0.022 -0.5080  2.3879 -0.4112
 9114SOL    HW228242   1.368   2.633   0.081 -1.2488 -4.0399  0.3892
 9115SOL     OW28243   1.349   3.155   7.013  0.3000 -0.0572 -0.5676
 9115SOL    HW128244   1.287   3.095   7.064  2.1299  0.5740  2.7013
 9115SOL    HW228245   1.307   3.245   7.001 -0.5896 -0.5465 -1.2054
 9116SOL     OW28246   3.594   5.053   5.139 -0.1090 -0.1490 -0.3646
 9116SOL    HW128247   3.687   5.018   5.146 -0.7268 -1.7418  0.4520
 9116SOL    HW228248   3.563   5.051   5.044  0.1218 -1.1903 -0.4216
 9117SOL     OW28249   4.436   6.906   3.857  0.6217  0.0576 -0.0171
 9117SOL    HW128250   4.403   6.812   3.859 -0.1562  0.3278  1.1420
 9117SOL    HW228251   4.440   6.939   3.763 -0.0168 -0.8161 -0.3544
 9118SOL     OW28252   2.802   0.008   2.476 -0.1615  0.5982 -0.0298
 9118SOL    HW128253   2.869  -0.050   2.522 -1.1724 -0.1117  0.5778
 9118SOL    HW228254   2.725  -0.047   2.445 -1.5722  1.6753  1.3375
 9119SOL     OW28255   6.608   2.800   0.643 -0.1969 -0.2894  0.7402
 9119SOL    HW128256   6.528   2.784   0.702 -1.4321 -3.5269 -1.5536
 9119SOL    HW228257   6.689   2.761   0.686 -0.6728 -0.7614  1.2343
 9120SOL     OW28258   2.277   2.303   6.849 -0.3169  0.2209 -0.2660
 9120SOL    HW128259   2.342   2.253   6.907 -0.3570 -1.1437 -1.3490
 9120SOL    HW228260   2.294   2.401   6.857  1.2020 -0.0573  0.2601
 9121SOL     OW28261   3.140   6.428   1.677  0.1676  0.3122  0.2305
 9121SOL    HW128262   3.210   6.469   1.734 -0.5372  3.0632 -0.7309
 9121SOL    HW228263   3.050   6.459   1.707 -0.3872 -0.2970 -0.7451
 9122SOL     OW28264   1.926   6.957   6.235 -0.3116  0.2089 -0.6125
 9122SOL    HW128265   1.955   6.905   6.155  1.3955  1.0033 -0.5598
 9122SOL    HW228266   1.894   6.895   6.306 -2.2049 -0.4901 -1.9918
 9123SOL     OW28267   3.533   3.143   1.079  0.2899 -0.5622  0.1369
 9123SOL    HW128268   3.466   3.215   1.062 -0.1575 -1.0830 -0.3485
 9123SOL    HW228269   3.548   3.091   0.995 -0.5260 -1.9765  0.8236
 9124SOL     OW28270   3.722   2.144   0.457 -0.4645 -0.4538 -0.0715
 9124SOL    HW128271   3.699   2.058   0.413 -0.7827  0.4026 -1.6543
 9124SOL    HW228272   3.761   2.207   0.390  1.6511 -0.0267  1.4722
 9125SOL     OW28273   2.839   5.419   6.162  0.4592 -0.1228 -0.3611
 9125SOL    HW128274   2.835   5.322   6.185  0.1266 -0.5631 -2.1505
 9125SOL    HW228275   2.774   5.439   6.089  0.9680  1.3331 -0.4522
 9126SOL     OW28276   1.717   5.735   6.695 -0.0585  0.3307  0.0510
 9126SOL    HW128277   1.671   5.739   6.783 -0.1742  0.6978 -0.0270
 9126SOL    HW228278   1.729   5.827   6.659 -0.1185  0.1755 -0.3735
 9127SOL     OW28279   2.442   0.061   6.527  0.2026 -0.8705 -0.2484
 9127SOL    HW128280   2.525   0.075   6.582 -0.3195 -2.1205  0.9077
 9127SOL    HW228281   2.434  -0.035   6.502 -0.0053 -0.4593 -1.8805
 9128SOL     OW28282   6.789   4.710   2.580  0.5253 -0.4411 -0.1664
 9128SOL    HW128283   6.721   4.741   2.513  0.0710  0.7634  0.8315
 9128SOL    HW228284   6.742   4.671   2.659  1.0510 -1.1039 -0.1714
 9129SOL     OW28285   5.468   3.654   3.544  0.0895 -0.7522  0.2766
 9129SOL    HW128286   5.519   3.590   3.486  0.9612  0.0947  0.0735
 9129SOL    HW228287   5.502   3.746   3.529  0.9538 -0.5917  2.7628
 9130SOL     OW28288   6.467   1.107   2.518  0.6383  0.0625  0.4440
 9130SOL    HW128289   6.417   1.168   2.455  1.1034  1.3829  1.3090
 9130SOL    HW228290   6.523   1.043   2.465 -1.5920 -1.1815 -0.5523
 9131SOL     OW28291   3.105   1.622   6.719 -0.0104 -0.1313  0.2589
 9131SOL    HW128292   3.017   1.667   6.736  1.3306  2.5332  0.6127
 9131SOL    HW228293   3.126   1.625   6.622  0.2018  0.2902  0.3147
 9132SOL     OW28294   3.264   6.700   2.733 -0.2913 -1.0364 -0.1063
 9132SOL    HW128295   3.222   6.763   2.799 -0.1929 -0.2282 -0.7986
 9132SOL    HW228296   3.193   6.645   2.689 -0.6072  0.0116 -0.9507
 9133SOL     OW28297   6.101   2.385   5.057  0.1422 -0.2488  0.3615
 9133SOL    HW128298   6.159   2.460   5.090 -0.6588 -0.1393  1.5571
 9133SOL    HW228299   6.032   2.363   5.126  0.3485 -2.0838  0.0152
 9134SOL     OW28300   1.637   4.094   0.465  0.6157  0.0488 -0.5597
 9134SOL    HW128301   1.723   4.064   0.424  1.0199 -0.2857  0.4982
 9134SOL    HW228302   1.655   4.169   0.529  0.4613 -1.3557  1.2319
 9135SOL     OW28303   5.817   6.620   2.480  0.5104 -0.0443  0.8505
 9135SOL    HW128304   5.810   6.661   2.571 -0.5334  2.5140 -0.2793
 9135SOL    HW228305   5.892   6.664   2.430 -1.4338  1.5732 -0.8395
 9136SOL     OW28306   2.066   6.793   5.025  0.1124 -0.1752 -0.2783
 9136SOL    HW128307   2.019   6.856   4.962  1.0298  0.4691 -0.3414
 9136SOL    HW228308   2.148   6.838   5.060 -0.0144 -0.7982  0.8320
 9137SOL     OW28309   1.333   3.566   0.986 -0.2134 -0.2468 -0.2063
 9137SOL    HW128310   1.333   3.480   1.036 -0.4626 -0.3504 -0.3814
 9137SOL    HW228311   1.241   3.585   0.953 -0.1879  0.1565 -0.0505
 9138SOL     OW28312   2.651   3.634   5.619 -0.1462 -0.2195 -0.0782
 9138SOL    HW128313   2.622   3.729   5.611 -0.1965 -0.3525 -1.9241
 9138SOL    HW228314   2.664   3.611   5.715 -3.4925  0.6278  0.7051
 9139SOL     OW28315   1.848   0.656   4.061 -0.3221  0.0529  0.6232
 9139SOL    HW128316   1.761   0.620   4.029  0.2846 -1.6455  0.7997
 9139SOL    HW228317   1.922   0.593   4.036  0.9825  1.8460 -0.2508
 9140SOL     OW28318   6.587   4.475   6.721 -0.4249 -0.0628  0.3828
 9140SOL    HW128319   6.649   4.411   6.676 -1.4837 -1.2598  0.5847
 9140SOL    HW228320   6.590   4.563   6.673  0.7927 -0.3467 -0.1040
 9141SOL     OW28321   5.990   2.859   3.636 -0.1757 -0.3514  0.0673
 9141SOL    HW128322   6.047   2.812   3.704 -1.3154  0.1395  1.3995
 9141SOL    HW228323   6.050   2.902   3.568  1.0282 -0.4885  0.9935
 9142SOL     OW28324   1.194   1.865   1.114  0.1893 -0.1926  0.0588
 9142SOL    HW128325   1.153   1.803   1.047 -2.8232  0.3353  1.2411
 9142SOL    HW228326   1.215   1.952   1.071 -0.7043 -0.2161 -0.4394
 9143SOL     OW28327   1.943   1.813   2.372  0.0668 -0.3306  0.0606
 9143SOL    HW128328   1.978   1.747   2.438 -1.0187 -0.4591  0.5212
 9143SOL    HW228329   2.002   1.894   2.372 -0.2083 -0.1014  1.5867
 9144SOL     OW28330   2.968   3.293   2.411 -0.2136  0.5772 -0.2540
 9144SOL    HW128331   3.046   3.312   2.351 -1.2862  0.2255 -1.8217
 9144SOL    HW228332   2.933   3.378   2.449 -0.8913  1.0744 -1.9294
 9145SOL     OW28333   5.445   5.057   5.801 -0.4189 -0.3100  0.7369
 9145SOL    HW128334   5.448   5.124   5.875  1.0176  0.4003  0.0711
 9145SOL    HW228335   5.538   5.033   5.774 -0.7917 -3.9764  2.1517
 9146SOL     OW28336   4.884   5.322   5.884  0.0678 -0.3987  0.3854
 9146SOL    HW128337   4.855   5.414   5.914  1.0881  0.5684 -1.4547
 9146SOL    HW228338   4.867   5.312   5.786 -0.0868 -2.2468  0.5625
 9147SOL     OW28339   2.581   0.801   6.919  0.6549  0.5558 -0.1739
 9147SOL    HW128340   2.649   0.775   6.988  1.2789  0.5052 -0.7949
 9147SOL    HW228341   2.552   0.895   6.935 -2.9498 -0.8751  3.1966
 9148SOL     OW28342   0.449   6.510   0.992  0.4853 -0.5435 -0.2589
 9148SOL    HW128343   0.496   6.589   1.032  0.9325 -0.8204 -0.2219
 9148SOL    HW228344   0.383   6.474   1.057  1.1572 -0.9475  0.2211
 9149SOL     OW28345   0.483   3.715   3.290 -0.1596 -0.3820  0.2214
 9149SOL    HW128346   0.452   3.634   3.241  0.2984 -0.6821  0.4112
 9149SOL    HW228347   0.536   3.687   3.370 -1.5941  0.0824  1.3663
 9150SOL     OW28348   2.757   5.549   2.348  0.2597  0.3576 -0.1777
 9150SOL    HW128349   2.792   5.566   2.256  0.2967 -1.1021 -0.4638
 9150SOL    HW228350   2.831   5.557   2.415  1.5170 -3.3758 -0.8443
 9151SOL     OW28351   5.623   4.484   0.432  0.0732 -0.2565 -0.0699
 9151SOL    HW128352   5.625   4.527   0.522 -0.6323 -1.3013  0.4579
 9151SOL    HW228353   5.595   4.389   0.441  0.4160 -0.4945 -1.3537
 9152SOL     OW28354   4.835   2.793   6.811 -0.0870 -0.8322 -0.2300
 9152SOL    HW128355   4.830   2.795   6.911  0.0529 -0.1073 -0.2358
 9152SOL    HW228356   4.814   2.700   6.779  2.5808 -1.8402  0.6268
 9153SOL     OW28357   3.417   3.793   0.680  0.0181  0.3848 -0.1614
 9153SOL    HW128358   3.364   3.876   0.665 -1.7054 -0.8054 -0.9584
 9153SOL    HW228359   3.371   3.716   0.637  1.3732 -1.0754  0.8954
 9154SOL     OW28360   1.978   0.323   6.012 -0.2799 -0.3409  0.1088
 9154SOL    HW128361   2.040   0.248   5.989  0.9260  0.9066 -0.8686
 9154SOL    HW228362   1.903   0.288   6.069  0.4100 -2.2041 -0.0574
 9155SOL     OW28363   5.895   2.276   2.317 -0.3020  0.1918 -0.0063
 9155SOL    HW128364   5.823   2.331   2.361 -0.3475  0.1915 -0.0816
 9155SOL    HW228365   5.978   2.330   2.311  0.0533 -0.1882  1.1330
 9156SOL     OW28366   7.009   6.315   5.212 -0.0053  0.1273  0.2388
 9156SOL    HW128367   7.040   6.318   5.307 -0.1895 -1.6900  0.3897
 9156SOL    HW228368   7.085   6.339   5.152  0.1147  1.2910  0.8076
 9157SOL     OW28369   4.288   5.881   4.861 -0.3293  0.3188 -0.0454
 9157SOL    HW128370   4.358   5.921   4.921  1.0009 -0.2859 -1.1263
 9157SOL    HW228371   4.301   5.781   4.857 -0.7267  0.2905 -0.8921
 9158SOL     OW28372   5.451   3.118   6.626 -0.0398  0.3717 -0.1331
 9158SOL    HW128373   5.390   3.197   6.621 -1.1690 -0.5229 -1.1804
 9158SOL    HW228374   5.400   3.035   6.602  1.2953 -0.5800  0.1985
 9159SOL     OW28375   4.974   1.914   3.129  0.1002  0.3766  0.0224
 9159SOL    HW128376   4.932   1.953   3.211 -0.0567 -2.8744  1.6211
 9159SOL    HW228377   4.922   1.835   3.099  2.6636 -1.2380 -0.4638
 9160SOL     OW28378   6.593   2.072   4.268 -0.1240  0.1218  0.2874
 9160SOL    HW128379   6.617   2.044   4.175  1.2537 -0.2919  0.7461
 9160SOL    HW228380   6.525   2.009   4.306 -0.0072 -0.2510 -0.1162
 9161SOL     OW28381   2.617   4.639   3.317 -0.3787 -0.6481  0.0849
 9161SOL    HW128382   2.690   4.678   3.372 -1.0591  1.4262 -0.3838
 9161SOL    HW228383   2.633   4.660   3.220 -0.9245 -1.2998 -0.1584
 9162SOL     OW28384   4.890   4.797   0.202  0.0570 -0.1267 -0.0809
 9162SOL    HW128385   4.854   4.707   0.229 -1.0190  0.3978  0.2912
 9162SOL    HW228386   4.988   4.800   0.219 -0.0304 -0.9495  0.6617
 9163SOL     OW28387   4.780   5.337   3.499  0.1146  0.3852  0.2952
 9163SOL    HW128388   4.698   5.377   3.541 -0.8282  0.8862 -1.8693
 9163SOL    HW228389   4.759   5.311   3.405  2.1690 -0.5242  0.0508
 9164SOL     OW28390   3.350   2.803   6.904  0.2046  0.1922 -0.4789
 9164SOL    HW128391   3.300   2.791   6.989 -1.1934  0.0743 -1.2889
 9164SOL    HW228392   3.422   2.872   6.916  0.2421 -0.0667  0.8660
 9165SOL     OW28393   3.521   1.416   1.806 -0.1513  1.0472  0.2741
 9165SOL    HW128394   3.614   1.452   1.795  0.0607  0.4069 -0.0847
 9165SOL    HW228395   3.487   1.385   1.717 -1.2237  2.4904  0.1504
 9166SOL     OW28396   2.291   2.596   1.935 -0.1188 -0.2343  0.3154
 9166SOL    HW128397   2.345   2.674   1.902 -2.6497  0.9359 -1.3921
 9166SOL    HW228398   2.253   2.618   2.025  2.4356 -1.2593  1.7646
 9167SOL     OW28399   3.229   5.721   2.116  0.2028  0.0469 -0.0355
 9167SOL    HW128400   3.252   5.708   2.019 -1.4064  0.1478 -0.4590
 9167SOL    HW228401   3.309   5.699   2.172  1.2059  0.1080 -1.3832
 9168SOL     OW28402   1.228   4.188   6.377  0.1573  0.0368  0.1543
 9168SOL    HW128403   1.297   4.257   6.399 -0.8406  1.3335 -0.6361
 9168SOL    HW228404   1.212   4.130   6.457 -1.0430  2.5574  1.8887
 9169SOL     OW28405   5.667   2.625   4.219 -1.0917  0.1027  0.3979
 9169SOL    HW128406   5.696   2.696   4.155 -0.9100 -0.0673  0.2906
 9169SOL    HW228407   5.570   2.606   4.206 -0.4776 -2.0238 -1.8987
 9170SOL     OW28408   5.056   5.321   2.382 -0.5751  0.3389 -0.2408
 9170SOL    HW128409   5.027   5.291   2.291  0.5281 -0.5402 -0.3274
 9170SOL    HW228410   5.144   5.366   2.376 -0.7142  0.6974  0.3374
 9171SOL     OW28411   0.853   1.122   4.709 -0.5263 -0.2245 -0.3108
 9171SOL    HW128412   0.796   1.042   4.725  0.3096 -0.4772  1.7456
 9171SOL    HW228413   0.929   1.097   4.649 -0.3321 -0.9601  0.2273
 9172SOL     OW28414   2.600   1.151   2.776 -0.4222 -0.5907 -0.0088
 9172SOL    HW128415   2.643   1.115   2.693  0.9808  1.5036 -0.2861
 9172SOL    HW228416   2.657   1.129   2.855 -0.1110  0.0777 -0.0405
 9173SOL     OW28417   2.158   2.418   3.925  0.4169  0.0959 -0.3450
 9173SOL    HW128418   2.151   2.492   3.857  0.4817  1.3213  0.9289
 9173SOL    HW228419   2.195   2.455   4.010  0.8681 -1.5314  0.1905
 9174SOL     OW28420   5.528   3.742   0.312  0.5968 -0.4221 -0.2923
 9174SOL    HW128421   5.588   3.710   0.386 -0.6600  0.3237  1.0885
 9174SOL    HW228422   5.573   3.817   0.264  1.1900 -0.5402  0.0549
 9175SOL     OW28423   6.307   1.562   2.734  0.2047  0.1373 -0.1694
 9175SOL    HW128424   6.229   1.573   2.796  0.0976  0.2773 -0.3324
 9175SOL    HW228425   6.331   1.465   2.729  0.7944  0.2152  0.8104
 9176SOL     OW28426   0.589   3.531   0.351 -1.3016  0.1445 -0.1761
 9176SOL    HW128427   0.646   3.554   0.429 -1.9842  2.2970 -0.2421
 9176SOL    HW228428   0.515   3.471   0.380  0.2322 -1.6910  0.1437
 9177SOL     OW28429   2.641   4.223   6.245 -0.5197 -0.2918 -0.2370
 9177SOL    HW128430   2.654   4.322   6.238  1.0755 -0.4959 -0.7153
 9177SOL    HW228431   2.573   4.193   6.178 -1.0841  0.4812 -0.0214
 9178SOL     OW28432   4.523   3.552   6.999 -0.3138 -0.5164  0.5530
 9178SOL    HW128433   4.540   3.490   6.922  0.3645 -0.9146  1.0185
 9178SOL    HW228434   4.474   3.503   7.071 -0.9264 -0.1503  0.3852
 9179SOL     OW28435   6.561   5.366   2.948  0.8469  0.2263  0.2066
 9179SOL    HW128436   6.583   5.326   2.859 -0.3754 -1.3754  0.5811
 9179SOL    HW228437   6.528   5.294   3.010  1.1281  1.4007  1.7864
 9180SOL     OW28438   3.309   0.850   4.631 -0.1780 -0.0331  0.2253
 9180SOL    HW128439   3.402   0.815   4.622 -0.8998 -1.7357 -1.0522
 9180SOL    HW228440   3.252   0.784   4.680 -1.1787  0.0566 -0.7632
 9181SOL     OW28441   5.020   0.773   1.086  0.4106  0.0518  0.2822
 9181SOL    HW128442   5.085   0.847   1.070 -1.0653  1.2516 -0.5209
 9181SOL    HW228443   4.982   0.780   1.178  0.3486  0.2512  0.2419
 9182SOL     OW28444   2.874   3.832   0.901  0.2071  0.0521  0.4939
 9182SOL    HW128445   2.955   3.828   0.960  1.1434 -0.5444 -0.7689
 9182SOL    HW228446   2.799   3.875   0.950  1.2317  0.4510  1.7790
 9183SOL     OW28447   3.890   3.874   2.564  0.1575  0.1061 -0.4551
 9183SOL    HW128448   3.813   3.810   2.561 -1.5756  1.6319  3.4558
 9183SOL    HW228449   3.867   3.956   2.511 -0.2588 -0.0777 -0.5640
 9184SOL     OW28450   2.113   4.020   3.508  0.0621  0.2717 -0.2797
 9184SOL    HW128451   2.079   3.935   3.549 -0.3676  0.4949 -0.1717
 9184SOL    HW228452   2.112   4.011   3.408  0.3403  0.0288 -0.2644
 9185SOL     OW28453   1.311   3.956   2.579 -0.3585  0.0611  0.2817
 9185SOL    HW128454   1.411   3.946   2.583 -0.2087 -0.4599 -2.5710
 9185SOL    HW228455   1.288   4.050   2.555 -0.5057 -0.0235  0.0890
 9186SOL     OW28456   3.994   2.079   4.351  0.0193 -0.1424  0.4282
 9186SOL    HW128457   4.033   2.157   4.400 -0.3952 -0.0470  0.6099
 9186SOL    HW228458   3.895   2.076   4.366  0.2428 -1.7725  1.9601
 9187SOL     OW28459   1.789   1.761   6.856  0.3688  0.7647 -0.0732
 9187SOL    HW128460   1.838   1.846   6.876  0.2366  0.2475  2.7809
 9187SOL    HW228461   1.739   1.732   6.936 -1.5637 -0.7847 -1.7478
 9188SOL     OW28462   6.938   0.437   2.703  0.0069 -0.7737 -0.1771
 9188SOL    HW128463   7.036   0.419   2.702 -0.0521 -1.0830 -0.4764
 9188SOL    HW228464   6.914   0.487   2.786  0.3310 -1.1659  0.1551
 9189SOL     OW28465   4.432   3.878   0.279  0.1478 -0.1486 -0.0306
 9189SOL    HW128466   4.524   3.877   0.241  0.4058 -1.5496  0.5657
 9189SOL    HW228467   4.435   3.912   0.373 -0.2023  1.3733 -0.5403
 9190SOL     OW28468   6.401   6.103   6.465  0.2507 -0.1507 -0.1837
 9190SOL    HW128469   6.392   6.191   6.419  0.7272 -0.2747 -0.5187
 9190SOL    HW228470   6.397   6.029   6.398 -1.8533 -0.5001  0.2421
 9191SOL     OW28471   3.905   5.563   2.659 -0.2376 -0.4941  0.4830
 9191SOL    HW128472   3.952   5.645   2.625  0.0872 -1.2689 -1.0431
 9191SOL    HW228473   3.969   5.487   2.664 -1.1653 -1.4740 -1.2757
 9192SOL     OW28474   6.679   0.816   6.653 -0.0274  0.3666  0.2553
 9192SOL    HW128475   6.691   0.868   6.568  1.5750  0.6564  0.6211
 9192SOL    HW228476   6.612   0.743   6.638  0.1855  0.4426 -1.2433
 9193SOL     OW28477   5.849   6.914   5.282  0.1777  0.5902 -0.1870
 9193SOL    HW128478   5.821   7.002   5.243  0.3145  0.5319 -0.4171
 9193SOL    HW228479   5.818   6.840   5.223 -0.1656  0.4664  0.1411
 9194SOL     OW28480   1.231   4.142   5.186 -0.7991  0.1333  0.0199
 9194SOL    HW128481   1.152   4.094   5.148 -1.4227  0.2534  1.1286
 9194SOL    HW228482   1.226   4.239   5.161  0.7469 -0.3976 -2.6845
 9195SOL     OW28483   1.462   3.700   3.866  0.3512 -0.2796  0.3286
 9195SOL    HW128484   1.385   3.669   3.921  0.2521  0.9984  0.9402
 9195SOL    HW228485   1.543   3.708   3.923  1.5348 -3.5025 -0.6735
 9196SOL     OW28486   1.455   1.444   1.135  0.1244 -0.8682  0.2621
 9196SOL    HW128487   1.489   1.530   1.174  0.8437 -1.5512  1.2056
 9196SOL    HW228488   1.359   1.454   1.110  0.3843  0.4125 -0.3028
 9197SOL     OW28489   3.638   0.306   6.572 -0.3714 -0.2479  0.9164
 9197SOL    HW128490   3.584   0.295   6.655 -0.0749 -0.1537  1.1225
 9197SOL    HW228491   3.663   0.402   6.560 -1.9536  0.0605 -0.2523
 9198SOL     OW28492   2.642   6.632   2.769 -0.1119  0.0233  0.5606
 9198SOL    HW128493   2.702   6.680   2.834 -0.6455 -1.7811  2.4896
 9198SOL    HW228494   2.694   6.610   2.687  2.1656 -1.9858  2.3912
 9199SOL     OW28495   0.213   5.101   6.654 -0.4761  0.2525 -0.3558
 9199SOL    HW128496   0.136   5.059   6.702 -0.7032  2.6328  1.5943
 9199SOL    HW228497   0.296   5.092   6.709  0.0522  0.0830 -1.1574
 9200SOL     OW28498   4.943   0.011   0.035  0.3168  0.0134  0.2756
 9200SOL    HW128499   4.982  -0.065   0.086  1.4598 -0.8289 -1.7156
 9200SOL    HW228500   4.919  -0.020  -0.057  1.9222  2.2750 -1.0020
 9201SOL     OW28501   1.028   3.775   1.568 -0.6085 -0.2086 -0.2376
 9201SOL    HW128502   1.052   3.871   1.552 -1.1236 -0.1837 -0.9047
 9201SOL    HW228503   1.093   3.715   1.523 -0.7263 -0.1618 -0.4708
 9202SOL     OW28504   1.997   1.335   0.904 -0.0985 -0.3876  0.8835
 9202SOL    HW128505   2.074   1.273   0.892 -1.7751 -2.4884  0.4288
 9202SOL    HW228506   1.961   1.362   0.815  0.1568  0.6929  1.0902
 9203SOL     OW28507   1.125   0.592   5.788 -0.3775 -0.3615  0.0631
 9203SOL    HW128508   1.207   0.648   5.787 -1.4311  1.2626 -0.5684
 9203SOL    HW228509   1.138   0.512   5.730  0.9485 -0.4766  0.4879
 9204SOL     OW28510   5.290   2.299   2.585 -0.0913  0.3375  0.1035
 9204SOL    HW128511   5.284   2.372   2.654  0.2496  0.8706 -0.4217
 9204SOL    HW228512   5.365   2.238   2.607  1.7853  2.0496 -1.2229
 9205SOL     OW28513   1.733   5.059   0.631  0.2689  0.2264  0.5131
 9205SOL    HW128514   1.662   4.988   0.632 -0.1849  0.6698  0.0667
 9205SOL    HW228515   1.761   5.079   0.724 -1.2662  1.1145  0.8151
 9206SOL     OW28516   1.174   5.023   1.885 -0.4837  0.0041 -0.0898
 9206SOL    HW128517   1.077   5.007   1.867 -0.2648  0.1416 -1.4539
 9206SOL    HW228518   1.222   4.936   1.890 -0.9345 -0.1935  2.4098
 9207SOL     OW28519   6.399   3.562   0.704  0.2950 -0.1027  0.4543
 9207SOL    HW128520   6.410   3.467   0.672  0.7886  0.0527  0.1454
 9207SOL    HW228521   6.367   3.562   0.798  0.9228 -0.5853  0.6760
 9208SOL     OW28522   2.712   1.790   6.954  0.2873  0.5717 -0.1538
 9208SOL    HW128523   2.742   1.861   7.017  0.1916  0.4421  0.0374
 9208SOL    HW228524   2.618   1.808   6.925 -0.2157 -0.2020  0.9417
 9209SOL     OW28525   3.433   3.273   2.140 -0.2003 -0.2551  0.5225
 9209SOL    HW128526   3.450   3.232   2.050  1.8793  4.4097 -1.5574
 9209SOL    HW228527   3.507   3.247   2.202 -0.0287 -1.2356 -0.0687
 9210SOL     OW28528   1.121   5.248   6.747  0.1558  0.0784 -0.5611
 9210SOL    HW128529   1.171   5.205   6.822  1.7701  1.9431 -0.4956
 9210SOL    HW228530   1.184   5.271   6.673 -0.7149  1.7050 -0.8579
 9211SOL     OW28531   1.245   3.893   6.235  0.2206  0.0986  0.1101
 9211SOL    HW128532   1.301   3.973   6.215  1.9326 -0.7950  1.0897
 9211SOL    HW228533   1.265   3.861   6.328 -3.5312  0.9841  1.3968
 9212SOL     OW28534   6.827   1.391   3.431  0.0962  0.4684 -0.3954
 9212SOL    HW128535   6.886   1.315   3.461 -0.3912  0.2792  0.0956
 9212SOL    HW228536   6.884   1.461   3.388  0.4213 -0.7107 -1.9930
 9213SOL     OW28537   6.614   5.598   1.999 -0.1338 -0.3824 -1.0308
 9213SOL    HW128538   6.641   5.694   1.990  0.8603 -0.5818 -0.3105
 9213SOL    HW228539   6.569   5.585   2.088 -0.5407 -0.5320 -1.2550
 9214SOL     OW28540   2.949   0.425   5.498 -0.4149 -0.0407 -0.9105
 9214SOL    HW128541   3.043   0.457   5.496 -0.3309 -0.2786 -0.7540
 9214SOL    HW228542   2.929   0.383   5.586 -1.0644  1.1873 -0.4422
 9215SOL     OW28543   5.030   1.535   4.482 -0.0500 -0.5033  0.0894
 9215SOL    HW128544   5.012   1.510   4.578 -0.1662 -1.4875 -0.1768
 9215SOL    HW228545   4.945   1.528   4.430  0.8187 -4.8381 -1.1071
 9216SOL     OW28546   0.691   5.712   5.382 -0.3504  0.5192  1.1195
 9216SOL    HW128547   0.776   5.689   5.429 -1.2680  0.6620  2.9331
 9216SOL    HW228548   0.658   5.632   5.331  0.7723  0.4304  0.5032
 9217SOL     OW28549   3.376   5.566   6.583 -0.0139  0.6180  0.1287
 9217SOL    HW128550   3.330   5.645   6.542  0.5087  1.6665  1.4796
 9217SOL    HW228551   3.374   5.575   6.682 -2.4328 -2.5249  0.5004
 9218SOL     OW28552   6.216   2.460   3.437 -0.7778 -0.1802 -0.5582
 9218SOL    HW128553   6.194   2.430   3.344  1.4434 -0.4086 -1.0467
 9218SOL    HW228554   6.151   2.418   3.501 -2.3161 -0.0554 -1.9620
 9219SOL     OW28555   3.963   2.195   3.506 -0.0642 -0.4256 -0.0733
 9219SOL    HW128556   3.876   2.226   3.545 -0.0225 -1.8859  1.2492
 9219SOL    HW228557   3.953   2.186   3.407 -0.6306  1.8828 -0.2981
 9220SOL     OW28558   0.396   2.853   0.400 -0.3209  0.1067 -0.2438
 9220SOL    HW128559   0.420   2.931   0.343  0.1680 -0.7108 -1.2027
 9220SOL    HW228560   0.298   2.834   0.391  0.0038 -0.9536 -2.1025
 9221SOL     OW28561   0.820   5.673   1.443 -0.6426 -0.3437 -0.7108
 9221SOL    HW128562   0.828   5.706   1.537 -1.3410 -2.6078  0.2200
 9221SOL    HW228563   0.886   5.722   1.385 -0.1222  1.0371  0.9458
 9222SOL     OW28564   4.383   0.099   4.448  0.1482  0.1185 -0.1438
 9222SOL    HW128565   4.285   0.082   4.437  0.1023  1.0726 -1.5105
 9222SOL    HW228566   4.430   0.014   4.472 -1.1089 -0.1700  1.4504
 9223SOL     OW28567   5.301   4.457   0.447  0.1633 -0.3164 -0.1723
 9223SOL    HW128568   5.317   4.407   0.532 -0.7468 -2.5463 -1.2306
 9223SOL    HW228569   5.285   4.553   0.468  1.1298 -0.5736  2.0496
 9224SOL     OW28570   3.159   2.733   0.914  0.3406 -0.3273 -0.5162
 9224SOL    HW128571   3.249   2.697   0.937  0.3715 -0.4740 -0.8545
 9224SOL    HW228572   3.101   2.735   0.996  0.6859 -0.1251 -0.2760
 9225SOL     OW28573   3.833   5.091   5.503  0.5693 -0.0436  0.1954
 9225SOL    HW128574   3.766   5.092   5.577  0.8243  0.4090  0.4201
 9225SOL    HW228575   3.817   5.010   5.446 -0.3573  0.2198  0.0667
 9226SOL     OW28576   6.732   4.835   5.033 -0.0812  0.2392  0.5371
 9226SOL    HW128577   6.740   4.843   5.132 -0.7580 -0.6832  0.6787
 9226SOL    HW228578   6.674   4.910   4.998 -1.3979 -0.4907  1.0864
 9227SOL     OW28579   3.125   6.871   0.314  0.7204  0.5516  0.0009
 9227SOL    HW128580   3.201   6.914   0.363  2.3639 -3.9255  1.9634
 9227SOL    HW228581   3.153   6.849   0.220  0.5144  2.0242 -0.4189
 9228SOL     OW28582   4.619   6.178   2.459 -0.1675 -0.7835  0.4087
 9228SOL    HW128583   4.658   6.088   2.437 -1.4314 -1.5364  1.1088
 9228SOL    HW228584   4.545   6.167   2.526 -1.4544  0.5703 -0.6981
 9229SOL     OW28585   5.289   6.160   1.205  0.6659 -0.0833  0.1158
 9229SOL    HW128586   5.346   6.243   1.203 -0.6600  0.8589 -1.2839
 9229SOL    HW228587   5.236   6.158   1.289 -0.0380  1.0657 -0.2736
 9230SOL     OW28588   4.541   0.640   1.933 -0.2500 -0.1580 -0.3024
 9230SOL    HW128589   4.542   0.735   1.899  0.8857  0.2194  0.6965
 9230SOL    HW228590   4.450   0.601   1.919 -0.8193  1.1656 -0.5147
 9231SOL     OW28591   2.031   7.005   4.044  0.0441 -0.5071  0.3581
 9231SOL    HW128592   2.055   6.936   3.975 -1.1755 -1.9601  1.3108
 9231SOL    HW228593   2.110   7.020   4.104  0.8332  0.1299 -0.7920
 9232SOL     OW28594   0.682   5.249   5.843 -0.3564  0.3100 -0.3596
 9232SOL    HW128595   0.588   5.214   5.842 -0.3023  0.0549  1.4981
 9232SOL    HW228596   0.702   5.289   5.932  1.5115 -0.2044 -0.5205
 9233SOL     OW28597   2.866   5.384   5.739  0.1418 -0.1352 -0.2507
 9233SOL    HW128598   2.818   5.413   5.822  1.8768 -2.2032  1.5753
 9233SOL    HW228599   2.830   5.296   5.709  0.9416 -0.4027 -0.4427
 9234SOL     OW28600   1.974   6.656   3.813 -0.2378  0.0235 -0.3799
 9234SOL    HW128601   2.026   6.611   3.740 -0.1397 -1.5705  0.6346
 9234SOL    HW228602   1.920   6.588   3.863  0.1326  0.9656  1.3910
 9235SOL     OW28603   5.909   4.318   6.467  0.5596 -0.0690  0.4747
 9235SOL    HW128604   5.900   4.220   6.449 -1.4721  0.1965 -0.1857
 9235SOL    HW228605   5.984   4.355   6.411  0.0521 -0.8903 -0.7877
 9236SOL     OW28606   1.557   3.534   6.443 -0.4494  0.6302  0.3287
 9236SOL    HW128607   1.634   3.478   6.413 -0.5289 -0.6334  2.2647
 9236SOL    HW228608   1.532   3.508   6.536 -1.7223  2.6468  0.6068
 9237SOL     OW28609   0.575   2.302   2.042 -0.0555 -0.5808 -0.0364
 9237SOL    HW128610   0.612   2.235   2.105  2.5657  0.9863  0.2531
 9237SOL    HW228611   0.556   2.259   1.954  1.7754 -1.6533  0.0627
 9238SOL     OW28612   5.473   0.373   5.990  0.0882  0.4119 -0.6364
 9238SOL    HW128613   5.378   0.344   6.007 -0.3641  1.7717 -0.7026
 9238SOL    HW228614   5.506   0.331   5.906  0.4499 -2.0854  0.6638
 9239SOL     OW28615   0.570   4.367   0.905 -0.5544  0.2500  0.0588
 9239SOL    HW128616   0.543   4.287   0.957  0.4602 -0.6743 -0.7845
 9239SOL    HW228617   0.630   4.425   0.962  0.1257 -0.4846  0.1097
 9240SOL     OW28618   0.820   4.859   2.859  0.3879 -0.2896 -0.0276
 9240SOL    HW128619   0.807   4.765   2.828  2.3075 -0.5030 -0.3262
 9240SOL    HW228620   0.844   4.917   2.781 -0.3392  0.3738  0.2264
 9241SOL     OW28621   5.726   1.127   1.007  0.0211  0.2446 -0.0530
 9241SOL    HW128622   5.676   1.042   1.022 -0.4341  0.4072 -0.6543
 9241SOL    HW228623   5.820   1.106   0.980  0.5464 -0.0644  1.8464
 9242SOL     OW28624   3.900   1.826   5.790  0.1651  0.6105 -0.7282
 9242SOL    HW128625   3.845   1.833   5.707 -0.3882  2.3330 -0.2618
 9242SOL    HW228626   3.857   1.763   5.854  0.2419 -0.2055 -1.4676
 9243SOL     OW28627   0.395   2.331   6.252  0.4746 -0.0038  0.2312
 9243SOL    HW128628   0.411   2.311   6.156 -0.4894 -0.3719  0.1327
 9243SOL    HW228629   0.320   2.396   6.261 -0.2773 -0.9157  0.7593
 9244SOL     OW28630   6.337   3.130   3.936  0.0403  0.0701 -0.2248
 9244SOL    HW128631   6.285   3.165   4.013 -0.2794  1.0236 -0.8530
 9244SOL    HW228632   6.298   3.165   3.850  2.3168  1.7713 -0.6840
 9245SOL     OW28633   3.423   1.560   2.265  0.0040  0.1028  0.4000
 9245SOL    HW128634   3.395   1.653   2.288  0.4225  0.1719  0.6416
 9245SOL    HW228635   3.401   1.541   2.169 -0.9060  0.1354  0.5921
 9246SOL     OW28636   2.795   0.626   2.069  0.0564  0.7314  0.9856
 9246SOL    HW128637   2.822   0.714   2.029 -0.7370  0.2387 -0.7108
 9246SOL    HW228638   2.710   0.637   2.120 -0.9277  0.6576 -0.5903
 9247SOL     OW28639   5.298   0.536   2.830  0.7238 -0.5964  0.0493
 9247SOL    HW128640   5.341   0.595   2.762  0.6251  0.0476  0.5388
 9247SOL    HW228641   5.368   0.475   2.869  0.4915 -2.1167 -1.7581
 9248SOL     OW28642   4.092   2.181   6.781  0.0446 -0.5671 -0.6079
 9248SOL    HW128643   4.179   2.134   6.769  0.0548 -0.3777 -1.3317
 9248SOL    HW228644   4.057   2.210   6.691  0.0021  0.7307 -0.1900
 9249SOL     OW28645   2.159   5.007   4.712  0.5359 -0.0033  0.1553
 9249SOL    HW128646   2.127   4.927   4.762 -1.1557  0.7813  0.3886
 9249SOL    HW228647   2.135   5.090   4.763  0.5708  0.7220 -0.9765
 9250SOL     OW28648   6.747   0.654   4.854  0.0728 -0.2341 -0.1217
 9250SOL    HW128649   6.793   0.726   4.907 -0.9362 -0.4558  1.1047
 9250SOL    HW228650   6.678   0.610   4.911 -1.2527 -0.3148 -1.7166
 9251SOL     OW28651   6.565   4.718   4.680 -0.1414  0.6614  0.2908
 9251SOL    HW128652   6.484   4.765   4.715 -0.9171 -0.3805 -0.0475
 9251SOL    HW228653   6.643   4.781   4.679 -0.5761  1.2670  2.0050
 9252SOL     OW28654   5.956   0.398   5.187 -0.0506 -0.6402 -0.3962
 9252SOL    HW128655   6.055   0.393   5.182  0.2159  0.8653  1.8322
 9252SOL    HW228656   5.917   0.397   5.095  2.0501 -0.6867 -1.3193
 9253SOL     OW28657   2.973   0.856   5.267 -0.0544 -0.1326  0.6500
 9253SOL    HW128658   3.019   0.815   5.188 -2.9511 -1.4242 -0.5341
 9253SOL    HW228659   2.876   0.830   5.266 -0.8321  2.2003  3.0650
 9254SOL     OW28660   6.286   2.986   6.674  0.6887 -0.2936 -0.0901
 9254SOL    HW128661   6.382   2.958   6.666  0.8940  0.3090  0.1832
 9254SOL    HW228662   6.240   2.973   6.587  0.3687 -2.8666  0.3579
 9255SOL     OW28663   1.815   0.248   0.042 -0.4522 -0.2519  0.2364
 9255SOL    HW128664   1.862   0.318   0.095 -0.2956  1.0187 -1.5067
 9255SOL    HW228665   1.881   0.196  -0.012 -0.5205 -2.0570  1.7592
 9256SOL     OW28666   0.453   6.863   0.838  0.5395  0.0761  0.2995
 9256SOL    HW128667   0.407   6.950   0.819  0.7733  0.4540  1.3819
 9256SOL    HW228668   0.397   6.787   0.805  0.3304  0.6393 -0.6504
 9257SOL     OW28669   0.142   5.229   5.261  0.4955 -0.1079 -0.1563
 9257SOL    HW128670   0.105   5.227   5.354 -0.8011  1.0295 -0.6105
 9257SOL    HW228671   0.165   5.323   5.235 -1.4188 -0.0048 -1.7763
 9258SOL     OW28672   5.973   5.491   1.128  0.0751 -0.0922  0.0035
 9258SOL    HW128673   5.895   5.479   1.189  0.6714  1.8618  1.2521
 9258SOL    HW228674   6.013   5.401   1.107 -2.0565 -1.0768 -0.1509
 9259SOL     OW28675   3.058   1.609   2.979  0.4399 -0.1062  0.0473
 9259SOL    HW128676   3.147   1.654   2.978  0.4383 -0.0422 -1.6972
 9259SOL    HW228677   3.059   1.531   2.916  0.0809 -1.8728  2.1270
 9260SOL     OW28678   2.906   4.412   5.615  0.1665 -0.1564  0.3459
 9260SOL    HW128679   2.988   4.408   5.671  0.2183 -0.5342  0.2428
 9260SOL    HW228680   2.916   4.352   5.535 -0.7327 -1.2580  1.0300
 9261SOL     OW28681   0.326   5.369   1.401 -0.0941 -0.3349 -0.0591
 9261SOL    HW128682   0.250   5.305   1.390  0.7352 -1.5527  1.0867
 9261SOL    HW228683   0.335   5.394   1.497  2.2368 -1.8572  0.1924
 9262SOL     OW28684   1.319   5.343   2.743 -0.2138 -0.6396 -0.1046
 9262SOL    HW128685   1.278   5.434   2.739 -0.6885 -0.7332  1.6477
 9262SOL    HW228686   1.279   5.285   2.672 -0.9377  0.1190 -0.3334
 9263SOL     OW28687   0.958   1.838   0.573  0.3616  0.5593 -0.2387
 9263SOL    HW128688   0.891   1.910   0.556  0.5274  0.3484 -1.9726
 9263SOL    HW228689   0.911   1.756   0.604  0.2335  1.5560  2.5018
 9264SOL     OW28690   2.249   0.316   3.229  0.1974 -0.6004  0.3214
 9264SOL    HW128691   2.196   0.232   3.229  0.9433 -1.0780 -0.3899
 9264SOL    HW228692   2.255   0.353   3.136 -0.0210  0.1724  0.6059
 9265SOL     OW28693   0.044   2.437   1.862 -0.2826  0.4465  0.3572
 9265SOL    HW128694   0.059   2.461   1.958  1.0831 -0.8913  0.5253
 9265SOL    HW228695   0.099   2.497   1.804  1.2230 -0.6337  0.6211
 9266SOL     OW28696   2.281   0.007   4.521  0.0094  0.1298  0.1938
 9266SOL    HW128697   2.318  -0.062   4.458 -2.1063 -0.7985 -0.1213
 9266SOL    HW228698   2.184   0.022   4.500 -0.4075  0.7823  2.3941
 9267SOL     OW28699   4.427   5.722   3.483 -0.5427  0.5458  0.0916
 9267SOL    HW128700   4.507   5.682   3.438 -0.1667  3.5403 -2.1906
 9267SOL    HW228701   4.349   5.660   3.475  0.0804 -0.0042 -2.8571
 9268SOL     OW28702   1.334   6.510   1.174 -0.2004  0.0091  0.0679
 9268SOL    HW128703   1.259   6.448   1.198 -0.1372  0.7929  2.5607
 9268SOL    HW228704   1.405   6.459   1.125 -2.0155 -0.8732 -1.8142
 9269SOL     OW28705   0.750   5.335   5.583 -0.1499  0.4719  0.1860
 9269SOL    HW128706   0.848   5.347   5.565  0.0470 -1.9377 -0.6722
 9269SOL    HW228707   0.737   5.316   5.680  0.4888 -0.9709  0.0223
 9270SOL     OW28708   6.740   2.837   0.356 -0.0507 -0.2412  0.0291
 9270SOL    HW128709   6.815   2.777   0.384 -0.2227  0.3066  1.7621
 9270SOL    HW228710   6.655   2.807   0.399 -1.2054 -1.6711 -2.9346
 9271SOL     OW28711   6.462   5.225   4.003 -0.5734  0.8378 -0.0929
 9271SOL    HW128712   6.473   5.267   3.913  0.5529 -2.0221 -1.3824
 9271SOL    HW228713   6.382   5.166   4.003 -0.5330  0.7640  0.7870
 9272SOL     OW28714   4.154   0.771   1.326  0.0967 -0.3831  0.1060
 9272SOL    HW128715   4.249   0.746   1.307  0.5511  0.1642  1.5785
 9272SOL    HW228716   4.093   0.704   1.283  1.1188 -0.5639 -1.1293
 9273SOL     OW28717   0.951   4.055   6.641  0.4206 -0.4787  0.4353
 9273SOL    HW128718   1.047   4.061   6.617 -0.2148 -0.6272 -2.5283
 9273SOL    HW228719   0.918   3.961   6.627 -0.9466  0.3183 -2.4031
 9274SOL     OW28720   3.350   5.366   2.388 -0.1482 -0.4937  0.0374
 9274SOL    HW128721   3.428   5.352   2.327 -0.6373  1.2499 -1.0801
 9274SOL    HW228722   3.377   5.346   2.482  1.3731 -0.8118 -0.4331
 9275SOL     OW28723   4.950   6.140   4.779 -0.3263 -0.2937  0.1329
 9275SOL    HW128724   5.016   6.212   4.754  0.4486 -1.5464 -1.6285
 9275SOL    HW228725   4.858   6.179   4.780 -0.1105  0.4377 -2.3798
 9276SOL     OW28726   3.806   0.241   0.803 -0.4649 -0.8484  0.7745
 9276SOL    HW128727   3.729   0.179   0.788  0.0359 -0.9025 -2.1339
 9276SOL    HW228728   3.790   0.326   0.752 -0.1755  0.6209  3.0202
 9277SOL     OW28729   3.742   0.898   6.019  0.4248  0.0724  0.0770
 9277SOL    HW128730   3.804   0.969   6.049  0.2675  1.7773 -3.1576
 9277SOL    HW228731   3.684   0.933   5.945 -0.6310 -3.0223 -0.7367
 9278SOL     OW28732   1.357   4.443   3.159  0.4411  1.1870 -0.2585
 9278SOL    HW128733   1.301   4.513   3.202  0.0440  0.2664  0.7596
 9278SOL    HW228734   1.323   4.352   3.184  1.3901  0.6166 -0.9510
 9279SOL     OW28735   3.997   5.401   3.428 -0.5460  0.3533 -0.4210
 9279SOL    HW128736   3.983   5.397   3.329  0.6705  1.4373 -0.6679
 9279SOL    HW228737   3.977   5.312   3.468 -0.9264 -0.1425 -1.6604
 9280SOL     OW28738   0.077   3.936   4.455  0.2139 -0.3456  0.0771
 9280SOL    HW128739   0.090   3.871   4.380 -1.9303  0.8546 -1.4484
 9280SOL    HW228740   0.156   3.996   4.462  0.9891 -1.2892 -0.3552
 9281SOL     OW28741   6.819   1.047   3.779 -0.2052  0.1392  0.2997
 9281SOL    HW128742   6.841   0.979   3.710  1.4223  1.8725 -1.0126
 9281SOL    HW228743   6.738   1.018   3.831 -0.9754 -1.6178 -1.7473
 9282SOL     OW28744   3.721   5.106   6.478  0.7545 -0.0707  0.2098
 9282SOL    HW128745   3.796   5.040   6.479  0.3025 -0.6074 -0.3152
 9282SOL    HW228746   3.728   5.164   6.397  0.5723 -0.1652  0.1250
 9283SOL     OW28747   1.690   3.187   3.174 -0.0053  0.6471  0.3339
 9283SOL    HW128748   1.592   3.174   3.162  0.1546 -0.7101  0.3535
 9283SOL    HW228749   1.712   3.284   3.164 -1.0983  0.7569 -1.5239
 9284SOL     OW28750   5.164   3.068   6.034 -0.8677 -0.2132  0.4115
 9284SOL    HW128751   5.252   3.022   6.042 -1.9253 -2.2637  0.8016
 9284SOL    HW228752   5.155   3.136   6.107  0.7893  0.8347 -0.2902
 9285SOL     OW28753   1.609   0.635   3.048 -0.3086  0.2957 -0.1808
 9285SOL    HW128754   1.513   0.662   3.057  0.4145  2.8031  0.8264
 9285SOL    HW228755   1.650   0.686   2.972  0.0735 -1.3941 -1.1666
 9286SOL     OW28756   3.733   1.005   2.213  0.2749  0.2438 -0.0114
 9286SOL    HW128757   3.734   0.958   2.125 -0.1166 -0.2886  0.2604
 9286SOL    HW228758   3.751   1.103   2.199 -1.8767  0.5737 -0.9398
 9287SOL     OW28759   6.709   4.995   3.516 -0.1730 -0.4770 -0.1756
 9287SOL    HW128760   6.637   4.993   3.585 -0.5434  0.8819 -0.4870
 9287SOL    HW228761   6.782   4.932   3.542 -0.8235 -0.8294  0.8629
 9288SOL     OW28762   3.541   5.842   1.810  0.2950 -0.1078 -0.2078
 9288SOL    HW128763   3.498   5.837   1.720  0.4441  0.4530 -0.3140
 9288SOL    HW228764   3.626   5.894   1.803  0.0768  0.3350  0.3385
 9289SOL     OW28765   0.850   3.431   6.370  0.4626  0.3045  0.2509
 9289SOL    HW128766   0.767   3.397   6.415  0.3351  0.2794 -0.0022
 9289SOL    HW228767   0.826   3.478   6.286  0.7769 -0.5808 -0.3452
 9290SOL     OW28768   6.737   6.468   2.639 -0.0520  0.4934  0.1134
 9290SOL    HW128769   6.811   6.437   2.699 -0.0188  0.2514 -0.0511
 9290SOL    HW228770   6.766   6.460   2.544 -0.3641  0.2096  0.0402
 9291SOL     OW28771   1.690   4.096   5.306 -0.1990 -0.4525  0.1846
 9291SOL    HW128772   1.690   4.039   5.223 -0.9214  0.7414 -0.6656
 9291SOL    HW228773   1.765   4.068   5.365  0.8225 -0.8213 -1.2288
 9292SOL     OW28774   1.950   6.630   4.728  0.3166  0.5289  0.1245
 9292SOL    HW128775   1.918   6.663   4.817  0.1139  0.9500 -0.1037
 9292SOL    HW228776   1.958   6.530   4.731  0.1526  0.5254  0.5635
 9293SOL     OW28777   2.013   2.674   4.144 -0.3197 -0.4711 -0.5417
 9293SOL    HW128778   1.921   2.635   4.153 -0.2085 -0.8079 -0.8454
 9293SOL    HW228779   2.022   2.752   4.206 -0.7637 -0.5219 -0.4077
 9294SOL     OW28780   4.864   1.678   3.060  0.4581  0.4884  0.0685
 9294SOL    HW128781   4.779   1.664   3.111  0.3798  1.8886  0.3586
 9294SOL    HW228782   4.865   1.617   2.981 -0.8445  0.4885  0.0181
 9295SOL     OW28783   1.915   1.294   1.576  0.5839  0.5844  0.2034
 9295SOL    HW128784   1.822   1.259   1.565  0.9859  0.0513 -1.8160
 9295SOL    HW228785   1.966   1.233   1.637 -0.3285  0.8127  1.2239
 9296SOL     OW28786   3.782   6.113   4.004 -0.1589  0.3375 -0.6110
 9296SOL    HW128787   3.834   6.061   4.072 -0.8831  0.2255 -0.1238
 9296SOL    HW228788   3.758   6.054   3.927  1.5166  0.7206 -1.4535
 9297SOL     OW28789   5.911   4.836   4.827 -0.2067  0.4430  0.3127
 9297SOL    HW128790   5.918   4.906   4.898  1.4689  0.2344  0.3863
 9297SOL    HW228791   5.816   4.829   4.797 -0.3279  3.4154 -0.3795
 9298SOL     OW28792   0.356   6.670   2.758  0.0137  0.0339  0.1588
 9298SOL    HW128793   0.422   6.741   2.731 -1.3097  0.4739 -2.0999
 9298SOL    HW228794   0.362   6.656   2.857 -0.4445  4.1506  0.9594
 9299SOL     OW28795   3.378   2.329   5.659  0.0683 -0.0094 -0.0039
 9299SOL    HW128796   3.474   2.316   5.682 -0.3461 -2.2243  0.7323
 9299SOL    HW228797   3.347   2.255   5.600 -0.7446  1.7187 -1.8641
 9300SOL     OW28798   3.617   5.700   5.506 -0.0260  0.3264  0.0917
 9300SOL    HW128799   3.627   5.746   5.418  2.3086 -1.2185 -0.5774
 9300SOL    HW228800   3.667   5.751   5.577  1.9036 -0.6439 -0.4867
 9301SOL     OW28801   4.576   0.547   2.741  0.1716  0.1372 -0.3339
 9301SOL    HW128802   4.528   0.472   2.695 -0.1533  0.5304 -0.6287
 9301SOL    HW228803   4.642   0.588   2.678 -0.8440  1.2108 -0.7351
 9302SOL     OW28804   5.584   0.626   5.264 -0.7318 -0.5391  0.5136
 9302SOL    HW128805   5.564   0.687   5.188  1.6495  0.7651  0.8411
 9302SOL    HW228806   5.515   0.639   5.336 -1.0592  0.7353 -0.0007
 9303SOL     OW28807   2.597   0.505   3.837  0.1733 -0.1107  0.4317
 9303SOL    HW128808   2.527   0.504   3.765 -0.1691 -0.8507  0.7531
 9303SOL    HW228809   2.579   0.429   3.900  0.1068  0.8850  1.6413
 9304SOL     OW28810   1.577   3.903   2.934 -0.3353 -0.1149  0.1465
 9304SOL    HW128811   1.523   3.888   3.018  0.5282  0.9894  0.9333
 9304SOL    HW228812   1.559   3.995   2.900  1.5491  0.5556  0.8401
 9305SOL     OW28813   6.688   4.296   1.822 -0.1702 -0.5892  0.0836
 9305SOL    HW128814   6.761   4.228   1.813 -0.8480 -1.1459 -1.5783
 9305SOL    HW228815   6.628   4.270   1.898  2.1110  0.6923  2.5307
 9306SOL     OW28816   3.185   1.263   4.302  0.2423 -0.5866 -0.4904
 9306SOL    HW128817   3.106   1.315   4.270 -1.9228 -2.1126  1.9087
 9306SOL    HW228818   3.244   1.322   4.356 -1.3655 -0.1661  0.9186
 9307SOL     OW28819   1.326   6.099   1.277 -0.1823  0.5105  0.5522
 9307SOL    HW128820   1.385   6.121   1.356  0.3083 -3.5940  1.5244
 9307SOL    HW228821   1.378   6.113   1.193  0.8807  0.5470  1.1914
 9308SOL     OW28822   5.088   2.186   3.305 -0.0461 -0.0826 -0.0440
 9308SOL    HW128823   5.164   2.126   3.332 -0.0970  0.1503  0.6533
 9308SOL    HW228824   5.063   2.244   3.383 -0.6296  0.1701 -0.4154
 9309SOL     OW28825   5.436   2.373   1.300  0.3080  0.3361  0.0399
 9309SOL    HW128826   5.525   2.415   1.319 -0.1207  1.5765 -0.6230
 9309SOL    HW228827   5.363   2.437   1.322 -0.3332  0.3011 -1.8036
 9310SOL     OW28828   1.296   4.141   4.631  0.1984  0.2403  0.2341
 9310SOL    HW128829   1.250   4.168   4.547  0.7581  2.3273  0.5236
 9310SOL    HW228830   1.230   4.140   4.706  0.0267  0.1276  0.0802
 9311SOL     OW28831   4.053   0.104   3.456 -0.1624 -0.0791 -0.0150
 9311SOL    HW128832   4.080   0.061   3.370 -1.1110  0.9385 -0.8584
 9311SOL    HW228833   3.975   0.054   3.495 -1.0844  0.6747 -0.8497
 9312SOL     OW28834   5.751   1.625   0.722  0.3134  0.1303  0.2092
 9312SOL    HW128835   5.702   1.691   0.665  1.5578 -0.4628 -1.6426
 9312SOL    HW228836   5.686   1.567   0.771 -0.7950  0.9298 -0.3019
 9313SOL     OW28837   6.885   4.184   1.542 -0.0810  0.4219  0.5440
 9313SOL    HW128838   6.969   4.132   1.524  0.1560  1.1266 -0.4737
 9313SOL    HW228839   6.809   4.120   1.551  0.1403 -0.1156 -1.0557
 9314SOL     OW28840   0.912   5.459   6.933 -0.1306  0.3762  0.0373
 9314SOL    HW128841   0.832   5.444   6.874  0.0674 -2.2711  0.2846
 9314SOL    HW228842   0.995   5.448   6.879  0.0419 -1.0254  0.5365
 9315SOL     OW28843   2.060   3.013   0.570 -0.1467  0.3047  0.4134
 9315SOL    HW128844   2.118   2.937   0.598  0.0102  0.1534 -0.3127
 9315SOL    HW228845   1.995   3.034   0.644 -0.4067 -0.7425  0.5000
 9316SOL     OW28846   2.348   2.055   4.160  0.0223  0.6747  0.3316
 9316SOL    HW128847   2.442   2.062   4.126 -0.0780  0.0766 -0.0767
 9316SOL    HW228848   2.321   1.959   4.164 -0.4420  0.8200  0.8154
 9317SOL     OW28849   4.419   6.175   6.347  0.0476 -0.1863  0.0638
 9317SOL    HW128850   4.470   6.089   6.347 -0.9355 -0.7978  0.6194
 9317SOL    HW228851   4.395   6.200   6.441  0.8022  1.0122 -0.0339
 9318SOL     OW28852   4.157   0.710   0.023  0.3606 -0.1266 -0.1499
 9318SOL    HW128853   4.237   0.661   0.058  0.8381  1.1373  0.5871
 9318SOL    HW228854   4.167   0.808   0.041 -1.2386  0.0859 -0.2629
 9319SOL     OW28855   3.738   4.372   6.880 -1.0128 -0.4831  0.2197
 9319SOL    HW128856   3.783   4.424   6.952 -0.0759 -1.8698  0.6619
 9319SOL    HW228857   3.675   4.306   6.920 -1.6810 -0.1801 -0.3071
 9320SOL     OW28858   3.915   3.371   6.701 -0.3347  0.0884  0.3697
 9320SOL    HW128859   3.982   3.424   6.650  0.6060 -0.2908  1.1637
 9320SOL    HW228860   3.853   3.325   6.638  0.1713  0.4250 -0.3847
 9321SOL     OW28861   5.820   4.559   5.263 -0.2640 -0.1513 -0.1421
 9321SOL    HW128862   5.903   4.608   5.238 -0.8614  0.1324 -1.6320
 9321SOL    HW228863   5.800   4.489   5.194 -1.6568  0.2736 -0.1956
 9322SOL     OW28864   1.515   3.395   6.689  0.6745  0.2661  0.4964
 9322SOL    HW128865   1.487   3.307   6.728 -1.8532 -0.0080 -1.6351
 9322SOL    HW228866   1.496   3.468   6.754 -1.4634 -0.3600  0.6353
 9323SOL     OW28867   2.718   5.295   0.726  0.2154 -0.4151 -0.0348
 9323SOL    HW128868   2.739   5.249   0.640  1.8262 -1.0042  0.6416
 9323SOL    HW228869   2.623   5.325   0.725  0.1726 -0.4844 -1.9786
 9324SOL     OW28870   0.091   1.781   0.435  0.8953 -0.0389  0.3257
 9324SOL    HW128871   0.036   1.703   0.464  2.1678 -1.1137 -0.0847
 9324SOL    HW228872   0.182   1.776   0.477  0.4462  2.2333  1.7982
 9325SOL     OW28873   2.466   1.160   6.186 -0.9369  0.1045 -0.2589
 9325SOL    HW128874   2.403   1.091   6.222 -0.7498  1.2096  2.4356
 9325SOL    HW228875   2.529   1.188   6.259  0.2632  1.7204 -1.8386
 9326SOL     OW28876   5.701   4.841   5.125 -0.3741 -0.7262  0.2561
 9326SOL    HW128877   5.669   4.773   5.059  1.2605 -0.8773 -0.4287
 9326SOL    HW228878   5.749   4.795   5.199 -0.8148 -0.4370  0.7275
 9327SOL     OW28879   2.768   3.908   6.114  0.2792 -0.2725 -0.0697
 9327SOL    HW128880   2.838   3.973   6.084  0.1835 -0.9049 -1.7994
 9327SOL    HW228881   2.685   3.957   6.139  0.9996  0.4156  1.0407
 9328SOL     OW28882   1.378   4.316   4.366  0.5015  1.1489  0.5338
 9328SOL    HW128883   1.280   4.323   4.383  0.1321 -0.0095 -0.8261
 9328SOL    HW228884   1.399   4.224   4.330  2.1655  1.1879  1.3003
 9329SOL     OW28885   1.979   2.191   0.436 -0.0581 -0.3362  0.3893
 9329SOL    HW128886   1.978   2.247   0.353  0.1760  1.0112  1.2599
 9329SOL    HW228887   1.982   2.095   0.411  2.5826  0.0646 -1.1778
 9330SOL     OW28888   2.233   6.703   1.746 -0.7407 -0.0668  0.6202
 9330SOL    HW128889   2.239   6.664   1.838 -1.8128 -1.8171 -0.0072
 9330SOL    HW228890   2.321   6.694   1.700 -0.0975  1.1413  1.5728
 9331SOL     OW28891   0.338   4.282   3.628 -0.4899  0.1182  0.2374
 9331SOL    HW128892   0.255   4.236   3.661 -1.0722 -1.2278 -2.7713
 9331SOL    HW228893   0.418   4.242   3.673 -1.2958 -0.2547  1.4088
 9332SOL     OW28894   4.820   0.025   0.612  0.4078  0.0094 -0.0641
 9332SOL    HW128895   4.920   0.024   0.624  0.2999 -0.1246  0.8885
 9332SOL    HW228896   4.794   0.103   0.556  0.9559  0.7202  0.6465
 9333SOL     OW28897   3.351   4.939   0.339  1.0956 -0.0160 -0.8136
 9333SOL    HW128898   3.438   4.891   0.348  1.4740  0.8658  0.4793
 9333SOL    HW228899   3.325   4.943   0.242  2.8471  0.3098 -1.3069
 9334SOL     OW28900   6.354   1.376   0.500 -0.2040 -0.0432  0.0661
 9334SOL    HW128901   6.436   1.386   0.444 -1.3712  1.0225 -1.5763
 9334SOL    HW228902   6.279   1.342   0.442 -1.2026  0.0782  1.2511
 9335SOL     OW28903   5.604   4.975   0.214 -0.4129  0.0236 -0.3328
 9335SOL    HW128904   5.665   4.896   0.209  1.4469  1.4876 -3.2400
 9335SOL    HW228905   5.658   5.058   0.228 -1.9740  1.1604 -0.7687
 9336SOL     OW28906   5.661   6.482   1.071 -0.0972 -0.1442 -0.3852
 9336SOL    HW128907   5.688   6.578   1.081 -3.2338  0.7663  0.6784
 9336SOL    HW228908   5.641   6.464   0.974 -0.7125  0.6756 -0.4213
 9337SOL     OW28909   0.945   1.836   5.139  0.3418 -0.2510  0.5210
 9337SOL    HW128910   1.038   1.844   5.102  0.0923  0.9797  0.1165
 9337SOL    HW228911   0.927   1.914   5.199 -1.1510  0.6532 -1.0473
 9338SOL     OW28912   6.595   0.748   4.065  0.3835  0.1548  0.3134
 9338SOL    HW128913   6.595   0.837   4.021  0.7307  0.9724  1.9018
 9338SOL    HW228914   6.667   0.691   4.024  0.2766  0.6494 -0.5883
 9339SOL     OW28915   4.072   4.191   1.666  0.1217  0.7472  0.0141
 9339SOL    HW128916   4.064   4.091   1.663 -0.6910  0.7800  0.6349
 9339SOL    HW228917   3.989   4.229   1.707  1.5955  1.4796  2.5624
 9340SOL     OW28918   0.974   3.018   4.237 -0.5594  0.2729 -0.4861
 9340SOL    HW128919   0.951   3.107   4.199  0.0427  0.1462 -1.1869
 9340SOL    HW228920   1.014   3.029   4.328 -0.1499  0.7505 -0.7187
 9341SOL     OW28921   3.441   5.100   5.913 -0.2143  0.0270 -0.5029
 9341SOL    HW128922   3.526   5.150   5.928 -0.1963 -0.1680  0.0462
 9341SOL    HW228923   3.365   5.153   5.951 -0.1713 -0.4558  0.2680
 9342SOL     OW28924   6.178   6.829   2.719  0.0802  0.7762 -0.4857
 9342SOL    HW128925   6.177   6.744   2.666  1.0334 -0.0817  0.8044
 9342SOL    HW228926   6.257   6.829   2.780  0.7167  3.0992 -1.2085
 9343SOL     OW28927   2.037   0.462   3.965 -0.3282 -0.2987  0.5081
 9343SOL    HW128928   2.127   0.499   3.984  0.2449 -2.0048  1.3179
 9343SOL    HW228929   2.022   0.380   4.020 -2.6191  0.2619  0.8488
 9344SOL     OW28930   4.562   4.754   5.411  0.1398  0.1007 -0.3627
 9344SOL    HW128931   4.604   4.671   5.374  1.1903  0.3469  0.2544
 9344SOL    HW228932   4.633   4.817   5.442 -0.5715  1.7689 -1.8934
 9345SOL     OW28933   0.376   6.536   3.461  0.7458 -0.2882  0.1739
 9345SOL    HW128934   0.281   6.567   3.466  1.6131  2.4252  2.0652
 9345SOL    HW228935   0.437   6.614   3.475  3.2262 -2.4190  2.2402
 9346SOL     OW28936   0.682   2.794   5.300  0.5013 -0.7310  0.1681
 9346SOL    HW128937   0.753   2.838   5.245 -0.1840 -1.1585 -1.1062
 9346SOL    HW228938   0.608   2.860   5.316  0.6006 -0.6731  0.3885
 9347SOL     OW28939   0.180   5.441   2.771 -0.4059  0.2363 -0.3196
 9347SOL    HW128940   0.116   5.455   2.846 -0.4075 -1.4905  0.0534
 9347SOL    HW228941   0.241   5.520   2.763 -1.0945  0.9038  0.7922
 9348SOL     OW28942   0.695   5.874   0.318 -0.2174  0.0055 -0.2334
 9348SOL    HW128943   0.698   5.840   0.224  0.4340 -2.1280  0.4913
 9348SOL    HW228944   0.739   5.807   0.379  6.2820  4.3582  0.8262
 9349SOL     OW28945   1.426   4.870   3.113 -0.0665 -0.2705  0.7992
 9349SOL    HW128946   1.365   4.949   3.124  0.3084  0.0877  0.3416
 9349SOL    HW228947   1.427   4.817   3.198  0.3700  0.7122  1.4299
 9350SOL     OW28948   2.485   4.354   1.673  0.0818 -0.1823 -0.9739
 9350SOL    HW128949   2.411   4.369   1.738 -0.0845 -0.3580 -1.1230
 9350SOL    HW228950   2.560   4.417   1.694 -0.7143  1.0628 -1.7682
 9351SOL     OW28951   2.333   0.867   4.564 -0.2183  0.2543 -0.1835
 9351SOL    HW128952   2.362   0.924   4.641 -1.4865 -0.3176  0.7481
 9351SOL    HW228953   2.255   0.812   4.591  1.5432 -2.7175 -0.7031
 9352SOL     OW28954   5.050   3.529   6.165  0.1140  0.0438 -0.0797
 9352SOL    HW128955   5.075   3.446   6.116  0.9628  0.2747 -0.0586
 9352SOL    HW228956   5.011   3.595   6.101  1.3868  0.4135 -0.5023
 9353SOL     OW28957   1.779   5.796   3.539 -0.1016 -0.0023  0.3476
 9353SOL    HW128958   1.766   5.722   3.472  0.8459  0.5053 -0.4241
 9353SOL    HW228959   1.697   5.804   3.595 -0.4548 -1.2501  0.0580
 9354SOL     OW28960   4.706   6.324   3.666 -0.2521  0.1358  0.4032
 9354SOL    HW128961   4.791   6.365   3.630  0.0385  1.0320  2.0180
 9354SOL    HW228962   4.722   6.228   3.686  0.8823  0.6050  2.0293
 9355SOL     OW28963   5.524   3.411   0.108 -0.7074  0.0687  0.1094
 9355SOL    HW128964   5.498   3.320   0.077 -1.4111  0.3634 -0.1851
 9355SOL    HW228965   5.443   3.470   0.109 -0.8339 -0.0162  2.8637
 9356SOL     OW28966   2.883   1.493   4.997  0.8728  0.5386 -0.2529
 9356SOL    HW128967   2.947   1.479   5.073  0.2956  0.7102  0.2691
 9356SOL    HW228968   2.813   1.422   4.999 -0.5265  1.8954  0.8153
 9357SOL     OW28969   6.553   1.952   1.939  0.0462 -0.1950  0.2641
 9357SOL    HW128970   6.486   2.019   1.906  0.9924  0.2976 -0.7193
 9357SOL    HW228971   6.522   1.914   2.026 -0.6750  1.2942  0.6873
 9358SOL     OW28972   5.273   4.396   6.226  0.1505  0.2141  0.4242
 9358SOL    HW128973   5.211   4.317   6.221  0.6432 -0.1291 -0.6856
 9358SOL    HW228974   5.302   4.420   6.134  2.2834 -0.1276  0.9613
 9359SOL     OW28975   4.150   1.456   3.796  0.1550 -0.4857  0.2855
 9359SOL    HW128976   4.149   1.409   3.884 -2.5240  0.5490  0.9174
 9359SOL    HW228977   4.057   1.461   3.761  1.2131 -1.4697 -3.0057
 9360SOL     OW28978   0.915   4.698   1.276 -0.3157 -0.3926 -0.1300
 9360SOL    HW128979   0.996   4.718   1.331 -0.1335 -0.9639 -0.1936
 9360SOL    HW228980   0.896   4.600   1.276  0.0486 -0.4968 -1.5747
 9361SOL     OW28981   6.671   1.237   2.149 -0.1455 -0.0291 -0.0962
 9361SOL    HW128982   6.652   1.298   2.226 -0.5423 -0.0707 -0.1598
 9361SOL    HW228983   6.717   1.288   2.076 -2.0400  0.6479 -0.8805
 9362SOL     OW28984   6.249   4.124   4.800  0.1441  0.1499 -0.0426
 9362SOL    HW128985   6.298   4.198   4.754  2.6899  1.0264  3.5972
 9362SOL    HW228986   6.237   4.048   4.736  2.8303  1.4308 -2.3150
 9363SOL     OW28987   6.769   2.614   6.535 -0.6660 -0.6845  0.1943
 9363SOL    HW128988   6.735   2.527   6.572 -2.5242 -0.2273 -0.3719
 9363SOL    HW228989   6.867   2.622   6.555 -0.5711 -2.6528  0.7330
 9364SOL     OW28990   2.671   2.825   0.278  0.3183  0.0729  0.2145
 9364SOL    HW128991   2.735   2.795   0.348  0.6893  2.0422  0.7943
 9364SOL    HW228992   2.587   2.770   0.283  0.0901  0.5495  2.6393
 9365SOL     OW28993   4.983   6.427   7.012  0.2101  0.5698 -0.0297
 9365SOL    HW128994   5.057   6.494   7.011 -0.3235  1.2018  0.9594
 9365SOL    HW228995   4.937   6.426   6.922 -2.0077  4.1429  0.8673
 9366SOL     OW28996   0.756   1.467   6.872 -0.8237  0.2410  0.3804
 9366SOL    HW128997   0.779   1.562   6.852  0.7228  0.2949  2.2149
 9366SOL    HW228998   0.669   1.444   6.827  0.2468  1.5659 -2.5947
 9367SOL     OW28999   6.342   6.603   3.645  0.1023 -0.1076 -0.7858
 9367SOL    HW129000   6.320   6.507   3.628 -0.0882 -0.1530 -0.3180
 9367SOL    HW229001   6.316   6.658   3.566  0.2778 -0.4534 -1.0837
 9368SOL     OW29002   6.320   2.261   5.284  0.4558 -0.3030  0.3516
 9368SOL    HW129003   6.298   2.358   5.298  0.5641 -0.3039  0.5337
 9368SOL    HW229004   6.417   2.246   5.304  0.1747 -0.6719  1.4788
 9369SOL     OW29005   0.672   0.965   5.328 -0.0097  0.2800 -0.8046
 9369SOL    HW129006   0.576   0.990   5.339  0.1597  1.1151 -1.1354
 9369SOL    HW229007   0.681   0.895   5.257 -0.4993 -0.7959  0.1648
 9370SOL     OW29008   0.481   5.869   1.835  0.0494  0.2302 -0.4965
 9370SOL    HW129009   0.509   5.957   1.796 -1.8153 -0.1990 -3.0607
 9370SOL    HW229010   0.501   5.796   1.770 -0.4363 -0.9719  0.6646
 9371SOL     OW29011   3.464   6.569   0.033 -0.3421  0.5827 -0.5027
 9371SOL    HW129012   3.402   6.500   0.071  0.0830  0.0308 -0.7907
 9371SOL    HW229013   3.538   6.587   0.098 -0.8410  1.2994 -0.1257
 9372SOL     OW29014   3.956   2.070   5.916 -0.2182 -0.2658 -0.3175
 9372SOL    HW129015   3.926   1.986   5.872 -0.9494  0.1585 -0.6386
 9372SOL    HW229016   4.056   2.073   5.919 -0.1435 -2.2685  1.8376
 9373SOL     OW29017   6.186   5.720   3.658 -0.1450 -0.4427 -0.4318
 9373SOL    HW129018   6.255   5.726   3.731 -0.6452  1.5843 -0.0556
 9373SOL    HW229019   6.123   5.797   3.666 -1.2561 -1.1487 -1.9878
 9374SOL     OW29020   3.197   0.556   5.479  1.0893  0.7240 -0.0190
 9374SOL    HW129021   3.297   0.565   5.482  0.9899  1.9132  1.5954
 9374SOL    HW229022   3.156   0.643   5.507 -0.4450  0.7377 -2.1570
 9375SOL     OW29023   0.656   1.043   1.914  0.3185 -0.1032 -0.1082
 9375SOL    HW129024   0.740   1.088   1.886  0.0994  0.1412 -0.3794
 9375SOL    HW229025   0.587   1.112   1.937  0.1386 -0.3006 -0.0427
 9376SOL     OW29026   1.181   0.069   5.823 -0.4215 -0.5438  0.4058
 9376SOL    HW129027   1.272   0.042   5.792 -0.2924  0.9616 -0.6167
 9376SOL    HW229028   1.189   0.142   5.890 -0.8549 -1.1350  1.1118
 9377SOL     OW29029   1.077   2.371   4.583  0.0255  0.1482  0.0305
 9377SOL    HW129030   1.133   2.288   4.574  1.3354  0.8509  1.2401
 9377SOL    HW229031   1.117   2.430   4.652 -1.0639  1.6767 -0.5966
 9378SOL     OW29032   1.329   5.663   3.209  0.1132 -0.4132  0.4151
 9378SOL    HW129033   1.391   5.585   3.197 -1.9853 -2.1482  0.3836
 9378SOL    HW229034   1.359   5.737   3.149  2.2870 -1.0753  0.5814
 9379SOL     OW29035   1.308   4.874   4.790 -0.2077  0.2048  0.1485
 9379SOL    HW129036   1.258   4.809   4.733  0.4876  0.8496 -1.2352
 9379SOL    HW229037   1.300   4.847   4.886 -0.1025 -1.7977 -0.3644
 9380SOL     OW29038   1.143   2.123   5.437 -0.0924 -0.2041  0.2808
 9380SOL    HW129039   1.215   2.158   5.377  1.8609 -2.4145  1.1923
 9380SOL    HW229040   1.149   2.167   5.526 -1.1119  0.9341 -0.1783
 9381SOL     OW29041   0.711   4.629   4.916  0.2838  0.9340  0.2156
 9381SOL    HW129042   0.633   4.688   4.936  0.9095  1.8887 -0.0735
 9381SOL    HW229043   0.795   4.684   4.916  0.8590  0.0773 -0.2829
 9382SOL     OW29044   2.178   1.699   5.117 -0.2934  0.2529 -0.4433
 9382SOL    HW129045   2.219   1.659   5.199 -0.9047  1.1692  0.3191
 9382SOL    HW229046   2.099   1.644   5.090 -0.0173 -0.1222 -0.5063
 9383SOL     OW29047   6.666   5.157   6.795 -0.1798 -0.0746 -0.4319
 9383SOL    HW129048   6.688   5.142   6.699 -0.2772  1.1384 -0.6576
 9383SOL    HW229049   6.582   5.211   6.802  0.9009  1.5772  0.2853
 9384SOL     OW29050   0.310   5.843   3.526  0.1887  0.2307  0.2876
 9384SOL    HW129051   0.257   5.872   3.446 -0.5096 -0.4934  0.4759
 9384SOL    HW229052   0.373   5.770   3.499 -1.2139 -1.1760  0.7128
 9385SOL     OW29053   5.263   1.599   3.458  0.4566 -0.3852 -0.2908
 9385SOL    HW129054   5.351   1.554   3.444  0.5331 -0.2813 -0.1480
 9385SOL    HW229055   5.221   1.619   3.370  1.0606  0.5085 -0.3901
 9386SOL     OW29056   1.896   5.442   4.372  0.6636 -0.2174 -0.3077
 9386SOL    HW129057   1.915   5.344   4.369 -1.2670 -0.6492  0.0670
 9386SOL    HW229058   1.891   5.472   4.468  0.9883  0.1950 -0.4168
 9387SOL     OW29059   4.313   2.587   0.317 -0.0787  0.3992 -0.2587
 9387SOL    HW129060   4.411   2.574   0.329  0.1215  1.5934 -0.4922
 9387SOL    HW229061   4.278   2.523   0.249  0.1281 -1.4654  1.3050
 9388SOL     OW29062   4.451   0.386   0.339 -0.4598  0.5166 -0.1682
 9388SOL    HW129063   4.509   0.387   0.258 -0.9681 -0.2456 -0.5568
 9388SOL    HW229064   4.445   0.478   0.377  0.7614  0.6541 -0.2845
 9389SOL     OW29065   6.377   3.977   4.186 -0.6368  0.5782 -0.2456
 9389SOL    HW129066   6.280   3.963   4.204 -0.4004 -0.9211 -0.0549
 9389SOL    HW229067   6.395   3.967   4.088 -0.5001 -0.3397 -0.1347
 9390SOL     OW29068   4.990   6.390   5.465 -0.4070  0.0563 -0.6022
 9390SOL    HW129069   4.998   6.488   5.444 -0.0620  0.1662 -0.0043
 9390SOL    HW229070   5.066   6.341   5.423  1.2247  0.5049  1.5976
 9391SOL     OW29071   5.791   3.441   0.169 -0.0859 -0.7125  0.2364
 9391SOL    HW129072   5.699   3.404   0.157  0.2393 -1.1143 -1.0957
 9391SOL    HW229073   5.829   3.465   0.080  1.9484 -2.6261  0.5105
 9392SOL     OW29074   2.221   4.708   3.215 -0.5632 -0.1805 -0.2121
 9392SOL    HW129075   2.297   4.652   3.184 -0.2210  0.0421  0.2103
 9392SOL    HW229076   2.209   4.697   3.313 -0.1343  0.8930 -0.0221
 9393SOL     OW29077   1.031   2.519   0.873 -0.2509  0.2905 -0.2950
 9393SOL    HW129078   0.974   2.601   0.874  1.5626  1.6670 -1.8516
 9393SOL    HW229079   1.089   2.520   0.792  0.0717 -2.4166 -0.1971
 9394SOL     OW29080   2.741   1.088   2.989  0.2972 -0.1973 -0.3313
 9394SOL    HW129081   2.801   1.022   2.943 -0.2334  0.1678 -1.6011
 9394SOL    HW229082   2.745   1.074   3.088  2.4064 -0.2360 -0.3755
 9395SOL     OW29083   2.033   0.411   1.497 -0.1835  0.4811  0.5744
 9395SOL    HW129084   2.050   0.450   1.588  2.2330  0.4893  0.1634
 9395SOL    HW229085   2.017   0.313   1.506  0.0530  0.4777  0.9985
 9396SOL     OW29086   3.485   5.105   4.516 -0.3625  0.4263 -0.2441
 9396SOL    HW129087   3.414   5.036   4.530 -1.1473  0.9778 -1.3020
 9396SOL    HW229088   3.454   5.192   4.553 -0.2664  0.6901 -0.7807
 9397SOL     OW29089   6.499   3.102   1.386  0.4555  0.0472  0.7919
 9397SOL    HW129090   6.533   3.020   1.341 -0.7575  0.0674 -0.2218
 9397SOL    HW229091   6.399   3.100   1.390  0.1268  2.7476 -1.9664
 9398SOL     OW29092   0.871   2.980   5.241  0.2586 -0.4784  0.1977
 9398SOL    HW129093   0.865   3.049   5.314  0.1876  0.0530 -0.3024
 9398SOL    HW229094   0.964   2.977   5.205  0.6240 -1.6567  1.1726
 9399SOL     OW29095   6.559   2.839   5.180 -0.2757 -0.0914  0.8803
 9399SOL    HW129096   6.489   2.894   5.134  0.2941  0.9751  1.2663
 9399SOL    HW229097   6.650   2.870   5.151  0.0658 -0.3689  1.6297
 9400SOL     OW29098   6.904   6.676   1.556  0.5147  0.0447 -0.3535
 9400SOL    HW129099   6.839   6.730   1.610  1.3791  0.3050  0.4705
 9400SOL    HW229100   6.939   6.602   1.613 -0.2654 -1.0831 -1.3156
 9401SOL     OW29101   3.439   0.040   6.491  0.3551 -0.0025  0.0906
 9401SOL    HW129102   3.503   0.097   6.440 -1.1519  0.4746 -1.3474
 9401SOL    HW229103   3.431  -0.048   6.446  0.0264 -0.0707  0.2872
 9402SOL     OW29104   0.186   2.875   0.044  0.1198 -0.0063 -0.8995
 9402SOL    HW129105   0.096   2.836   0.063  0.2955 -0.1804 -0.4109
 9402SOL    HW229106   0.192   2.967   0.084  0.3698 -0.2380 -0.3863
 9403SOL     OW29107   1.293   0.119   4.517  0.5328 -0.4761  0.3175
 9403SOL    HW129108   1.335   0.130   4.607 -0.2343 -1.4467  0.8059
 9403SOL    HW229109   1.285   0.209   4.474  0.7386  0.0279  1.2922
 9404SOL     OW29110   6.436   3.186   2.340 -0.3760  0.2738  0.2752
 9404SOL    HW129111   6.391   3.273   2.324 -1.5553 -0.1799  1.0431
 9404SOL    HW229112   6.412   3.122   2.268 -0.2738  0.2902  0.2262
 9405SOL     OW29113   6.553   6.395   6.821 -0.0066  0.0412 -0.2798
 9405SOL    HW129114   6.646   6.415   6.854 -0.4020  1.4539  0.0283
 9405SOL    HW229115   6.536   6.449   6.738 -0.6306 -0.0498 -0.2088
 9406SOL     OW29116   3.030   1.076   4.718 -0.1793 -0.1178 -0.4346
 9406SOL    HW129117   3.105   1.097   4.656  0.4032 -3.2219 -0.9220
 9406SOL    HW229118   2.947   1.056   4.665 -0.5452  0.3225 -0.0381
 9407SOL     OW29119   5.165   0.470   6.242  0.1174  0.5447  0.1439
 9407SOL    HW129120   5.160   0.447   6.339 -1.6667 -1.4069 -0.3487
 9407SOL    HW229121   5.179   0.569   6.233 -0.9621  0.9719  2.3797
 9408SOL     OW29122   2.066   5.443   6.501 -0.1357  1.0842 -0.4790
 9408SOL    HW129123   2.028   5.528   6.536 -1.4686 -0.2156  1.4358
 9408SOL    HW229124   2.001   5.400   6.438  0.2398  1.1175 -0.9016
 9409SOL     OW29125   6.063   1.234   2.591 -0.3343  0.6915  0.2069
 9409SOL    HW129126   6.079   1.288   2.508  1.5576 -0.1410 -0.0270
 9409SOL    HW229127   5.964   1.228   2.608 -0.7541  1.3102 -1.7020
 9410SOL     OW29128   1.397   4.070   3.491 -0.0741  0.1257  0.1940
 9410SOL    HW129129   1.472   4.004   3.484  1.1471  1.3970  0.9439
 9410SOL    HW229130   1.337   4.045   3.566  1.4573  0.8643  1.7278
 9411SOL     OW29131   4.135   6.400   5.461  0.2719 -0.4873 -0.4888
 9411SOL    HW129132   4.044   6.383   5.422  0.4654  2.0080 -2.2124
 9411SOL    HW229133   4.183   6.313   5.472 -1.3926 -1.6526 -1.8534
 9412SOL     OW29134   2.518   6.975   1.500  0.4056 -0.3726  0.0199
 9412SOL    HW129135   2.600   7.017   1.462 -0.2566  0.7332 -0.2526
 9412SOL    HW229136   2.461   7.046   1.543  1.0028 -1.4998  2.9287
 9413SOL     OW29137   3.873   4.986   0.480 -0.3380  0.5062  0.3898
 9413SOL    HW129138   3.932   4.990   0.561 -0.1888  1.1347  0.2466
 9413SOL    HW229139   3.816   4.904   0.486  0.5895 -0.1457  0.4954
 9414SOL     OW29140   1.178   5.702   4.273  0.1695  0.1988 -0.0742
 9414SOL    HW129141   1.240   5.762   4.324 -2.4099  2.7624  0.3310
 9414SOL    HW229142   1.149   5.748   4.189 -2.1060 -0.3111  0.3617
 9415SOL     OW29143   0.045   3.304   2.781  0.1893 -0.5594 -0.1238
 9415SOL    HW129144   0.078   3.375   2.843  0.8280 -1.4526  0.5831
 9415SOL    HW229145  -0.049   3.281   2.804 -0.5969  1.1479 -1.3785
 9416SOL     OW29146   4.499   1.935   4.381  0.1184 -0.2835  0.5223
 9416SOL    HW129147   4.569   1.909   4.314  1.9303  1.6792  1.5065
 9416SOL    HW229148   4.474   2.031   4.368 -1.3037 -0.5412  1.1578
 9417SOL     OW29149   5.556   1.782   2.371 -0.5701 -0.4751  0.2205
 9417SOL    HW129150   5.478   1.764   2.431 -1.6088 -0.1424 -0.9862
 9417SOL    HW229151   5.524   1.794   2.277  0.7650  1.2745 -0.0578
 9418SOL     OW29152   5.076   2.987   0.424 -0.2949  0.0357 -0.0958
 9418SOL    HW129153   5.165   3.012   0.463  0.7213 -2.3435 -0.6911
 9418SOL    HW229154   5.036   3.067   0.380  1.7486  1.1185 -0.1433
 9419SOL     OW29155   5.843   0.792   2.330 -0.6231  0.0095 -0.3321
 9419SOL    HW129156   5.907   0.823   2.400 -0.0499 -0.5461 -0.6006
 9419SOL    HW229157   5.826   0.694   2.342 -1.4497  0.1610 -0.2456
 9420SOL     OW29158   4.457   1.064   5.782 -0.3381 -0.0581  0.1578
 9420SOL    HW129159   4.384   1.010   5.740  0.0127 -1.2372  0.9957
 9420SOL    HW229160   4.459   1.046   5.881 -0.5601  1.9533  0.5672
 9421SOL     OW29161   2.155   3.250   4.307 -0.0163 -0.2675 -0.1634
 9421SOL    HW129162   2.159   3.178   4.237 -0.8043  0.5063 -1.0294
 9421SOL    HW229163   2.149   3.339   4.263  0.2555  0.2916  0.9050
 9422SOL     OW29164   6.816   0.870   5.022 -0.1070 -0.3050 -0.4867
 9422SOL    HW129165   6.890   0.935   5.003  0.2276 -0.6529 -0.3776
 9422SOL    HW229166   6.728   0.916   5.010  0.1274  0.2888 -0.0225
 9423SOL     OW29167   6.039   5.201   4.227  0.1303 -0.0337  0.2493
 9423SOL    HW129168   6.020   5.102   4.230  1.3864 -0.5931 -3.7589
 9423SOL    HW229169   6.119   5.221   4.283 -0.4939 -1.1203  1.6110
 9424SOL     OW29170   6.905   5.544   1.612 -0.0393 -0.3719  0.1559
 9424SOL    HW129171   6.843   5.622   1.607  0.1813 -0.1707  0.5161
 9424SOL    HW229172   6.944   5.538   1.704 -0.4611 -1.2214  0.2856
 9425SOL     OW29173   1.324   4.865   6.588  0.0126  0.7316 -0.4963
 9425SOL    HW129174   1.400   4.800   6.585  1.1923  2.1214 -1.7494
 9425SOL    HW229175   1.256   4.839   6.520  0.9934  1.3873 -1.7569
 9426SOL     OW29176   5.763   5.660   4.911  0.5206 -0.1054 -0.0815
 9426SOL    HW129177   5.782   5.710   4.826  2.0767 -1.5770 -0.6709
 9426SOL    HW229178   5.832   5.685   4.980  0.3338 -0.2313  0.1514
 9427SOL     OW29179   1.635   6.909   6.836 -0.2945 -0.2669  0.4092
 9427SOL    HW129180   1.640   6.974   6.760  1.0147  0.8179  1.3637
 9427SOL    HW229181   1.651   6.958   6.922  0.9313 -1.8780  1.1493
 9428SOL     OW29182   6.571   5.221   2.042 -0.0390 -0.0584  0.0459
 9428SOL    HW129183   6.545   5.129   2.013 -0.7996 -0.0470  0.6482
 9428SOL    HW229184   6.632   5.262   1.974  0.9175 -1.2821  0.1319
 9429SOL     OW29185   1.022   3.562   2.904  0.3436 -0.1213  0.2644
 9429SOL    HW129186   1.084   3.627   2.949  1.2392 -0.0228 -1.0409
 9429SOL    HW229187   0.933   3.563   2.949  0.4871  1.6633  0.5803
 9430SOL     OW29188   4.004   6.595   0.084  0.6172  0.3209 -0.6113
 9430SOL    HW129189   4.099   6.584   0.054  1.2750 -0.5059  1.6028
 9430SOL    HW229190   3.996   6.675   0.142  0.1638 -0.1466 -0.0216
 9431SOL     OW29191   2.699   5.395   1.290 -0.7291 -0.4413  0.0635
 9431SOL    HW129192   2.650   5.328   1.234  0.7984 -0.9915 -0.6637
 9431SOL    HW229193   2.790   5.411   1.251 -1.2281  2.5265 -0.1387
 9432SOL     OW29194   6.709   5.148   6.248 -0.5386  0.3559  0.1558
 9432SOL    HW129195   6.707   5.248   6.244  0.7320  0.5232  2.5324
 9432SOL    HW229196   6.615   5.113   6.241 -0.9407  1.6285 -1.4031
 9433SOL     OW29197   1.398   0.299   2.962 -0.0401 -0.2221  0.6036
 9433SOL    HW129198   1.439   0.340   2.880  1.1911  0.4565  1.5219
 9433SOL    HW229199   1.298   0.301   2.954  0.0084  1.6899 -0.0081
 9434SOL     OW29200   4.226   1.079   0.454  0.2076 -0.0499 -0.0612
 9434SOL    HW129201   4.234   1.126   0.542  0.2095 -1.1086  0.5220
 9434SOL    HW229202   4.303   1.104   0.395  1.2627 -0.7934  0.9554
 9435SOL     OW29203   2.425   3.782   5.376 -0.0478 -0.3962 -0.2209
 9435SOL    HW129204   2.358   3.708   5.368 -1.7655  0.9298  1.0194
 9435SOL    HW229205   2.418   3.842   5.296 -0.7916  0.0602  0.1741
 9436SOL     OW29206   1.587   1.054   3.334  0.0326 -0.4314  0.2758
 9436SOL    HW129207   1.561   0.958   3.342  0.7702 -0.5967  0.8065
 9436SOL    HW229208   1.518   1.103   3.281 -0.4575 -1.2066  0.1815
 9437SOL     OW29209   2.017   3.723   1.221  0.1990  0.8961  0.3838
 9437SOL    HW129210   2.023   3.634   1.175 -1.8721 -0.3691  2.3675
 9437SOL    HW229211   1.967   3.787   1.163  0.5635  0.3801 -0.5192
 9438SOL     OW29212   1.177   6.800   1.357 -0.0001 -0.5170 -0.6704
 9438SOL    HW129213   1.166   6.850   1.443 -0.6439  1.1240 -1.6756
 9438SOL    HW229214   1.271   6.766   1.351  0.6648  1.1413 -0.2324
 9439SOL     OW29215   0.624   0.639   0.925  0.2536 -0.5140 -0.1442
 9439SOL    HW129216   0.589   0.680   1.009  1.9312 -1.9831  1.3500
 9439SOL    HW229217   0.547   0.610   0.867 -0.9590 -0.7818  1.5384
 9440SOL     OW29218   5.138   1.764   4.307 -0.4249  0.4814 -0.5210
 9440SOL    HW129219   5.158   1.674   4.347 -0.1538  1.1353  0.8770
 9440SOL    HW229220   5.083   1.752   4.224 -3.3785 -0.8952  1.4388
 9441SOL     OW29221   5.014   0.459   5.983 -0.4828  0.4761  0.2689
 9441SOL    HW129222   5.060   0.437   6.070 -0.8479 -0.1853  0.2995
 9441SOL    HW229223   5.019   0.380   5.922 -0.5049  0.8320 -0.1954
 9442SOL     OW29224   5.933   5.872   3.681  0.2330  0.0205 -0.5029
 9442SOL    HW129225   5.984   5.949   3.643  0.5134  0.0960  0.0161
 9442SOL    HW229226   5.836   5.894   3.684  0.0387 -0.4411 -2.2912
 9443SOL     OW29227   5.975   0.730   2.982  0.9358  0.4025 -0.2058
 9443SOL    HW129228   5.939   0.675   2.907  1.3016  0.3638 -0.3515
 9443SOL    HW229229   6.074   0.719   2.987  0.6293 -3.3332  3.1368
 9444SOL     OW29230   4.551   4.518   1.853  0.0810  0.2902  0.1674
 9444SOL    HW129231   4.628   4.579   1.868 -0.5172  1.0573  0.1627
 9444SOL    HW229232   4.562   4.436   1.910  1.3328 -0.0246 -0.5020
 9445SOL     OW29233   5.895   0.955   4.066 -0.1538 -0.3604  0.7883
 9445SOL    HW129234   5.877   0.954   3.968 -3.1743 -1.2066  1.2430
 9445SOL    HW229235   5.993   0.968   4.082  0.4321 -0.2208 -2.2980
 9446SOL     OW29236   5.012   4.589   4.140  0.7182 -0.1320 -0.4963
 9446SOL    HW129237   5.024   4.533   4.222  0.4491 -1.5800 -1.4110
 9446SOL    HW229238   4.989   4.531   4.063 -0.6173  1.3586 -1.2905
 9447SOL     OW29239   6.397   0.524   1.546  0.1932 -0.7829  0.3658
 9447SOL    HW129240   6.313   0.530   1.599  1.1823 -0.1780  1.9433
 9447SOL    HW229241   6.392   0.586   1.468 -0.9540 -1.0322  0.2272
 9448SOL     OW29242   2.240   2.007   6.497  0.0692 -0.6083  0.2719
 9448SOL    HW129243   2.241   2.067   6.417  2.0694 -1.8237 -0.7220
 9448SOL    HW229244   2.210   1.916   6.470  0.4151 -0.9415  0.9649
 9449SOL     OW29245   4.498   0.066   2.392  0.1047  0.0668  0.2092
 9449SOL    HW129246   4.492   0.165   2.405  1.2182  0.1980 -0.1395
 9449SOL    HW229247   4.533   0.046   2.301 -2.3863 -0.7239 -0.6347
 9450SOL     OW29248   5.136   1.019   1.284  0.3111 -0.0215 -0.1787
 9450SOL    HW129249   5.186   1.093   1.330  0.7277 -1.2961  1.5303
 9450SOL    HW229250   5.201   0.950   1.252 -0.1950 -0.5456 -0.0903
 9451SOL     OW29251   1.848   3.497   5.855 -0.5223  0.0449 -0.4637
 9451SOL    HW129252   1.781   3.441   5.904  1.1321 -1.4770  0.1652
 9451SOL    HW229253   1.910   3.540   5.920 -1.0750  1.7675 -1.0164
 9452SOL     OW29254   1.205   4.794   0.793  0.0964 -0.1506 -0.0606
 9452SOL    HW129255   1.118   4.820   0.834 -0.0079 -0.5049 -0.0542
 9452SOL    HW229256   1.275   4.860   0.820 -0.2833  0.4494 -0.5214
 9453SOL     OW29257   3.066   4.022   2.587 -0.1486 -0.1488 -0.2519
 9453SOL    HW129258   3.165   4.013   2.600 -0.3184  0.0086  1.2424
 9453SOL    HW229259   3.048   4.074   2.503  1.0309 -0.0071 -0.4308
 9454SOL     OW29260   1.309   3.567   4.065  0.2344  0.6552  0.0201
 9454SOL    HW129261   1.264   3.610   4.143 -1.0264  0.2772 -0.4735
 9454SOL    HW229262   1.382   3.506   4.097  0.6276  1.5130  0.8171
 9455SOL     OW29263   3.576   4.285   0.040 -0.3797  0.1637  0.0262
 9455SOL    HW129264   3.501   4.336   0.083 -0.8338  0.5554 -1.1922
 9455SOL    HW229265   3.643   4.259   0.110 -1.0870  0.7812  0.9607
 9456SOL     OW29266   4.268   5.365   3.022 -0.2652 -0.0833  0.6232
 9456SOL    HW129267   4.296   5.432   3.091 -2.2993 -0.6662  2.1431
 9456SOL    HW229268   4.345   5.305   3.000  1.0835  1.5929  0.5669
 9457SOL     OW29269   5.238   1.341   6.000 -0.3070  0.3877  0.1734
 9457SOL    HW129270   5.207   1.313   5.909  0.8453  0.4562 -0.2591
 9457SOL    HW229271   5.171   1.311   6.068 -1.3476  0.6202 -0.7162
 9458SOL     OW29272   1.816   0.271   3.375  0.8684 -0.3524 -0.6930
 9458SOL    HW129273   1.882   0.239   3.443 -0.9284 -1.9318  0.4095
 9458SOL    HW229274   1.794   0.367   3.393  3.1697  0.3727 -1.4066
 9459SOL     OW29275   5.790   4.355   3.934  0.2533  0.2233 -0.2571
 9459SOL    HW129276   5.708   4.309   3.967  0.4816 -0.2416 -0.3220
 9459SOL    HW229277   5.835   4.400   4.011  0.5849 -0.5480  0.0171
 9460SOL     OW29278   1.267   5.695   1.108  0.5238  0.0573 -0.3587
 9460SOL    HW129279   1.252   5.627   1.179 -0.0600 -0.2794 -0.7948
 9460SOL    HW229280   1.314   5.652   1.030  2.2728  0.6997  0.2951
 9461SOL     OW29281   1.749   6.857   3.157 -0.0284  0.2076  0.1545
 9461SOL    HW129282   1.740   6.785   3.226 -0.6722  0.5851  0.4706
 9461SOL    HW229283   1.708   6.941   3.191  2.0262  1.1823  0.4031
 9462SOL     OW29284   5.289   4.519   1.401  0.2472  0.4294 -0.2230
 9462SOL    HW129285   5.382   4.482   1.411  1.1966  2.1194 -2.1352
 9462SOL    HW229286   5.223   4.445   1.414  1.9199 -1.2063 -0.4946
 9463SOL     OW29287   0.191   6.223   0.377 -0.0660  0.3350 -0.8597
 9463SOL    HW129288   0.144   6.174   0.451  1.1209  0.3937 -0.0460
 9463SOL    HW229289   0.224   6.158   0.309  1.3571 -0.0168  0.1307
 9464SOL     OW29290   3.370   6.205   3.109 -0.0215 -0.2091 -0.5298
 9464SOL    HW129291   3.453   6.150   3.120  0.1788  0.2175  0.1327
 9464SOL    HW229292   3.352   6.219   3.012  0.9308  0.0737 -0.6702
 9465SOL     OW29293   4.921   4.361   1.263 -0.1096 -0.5087  0.3980
 9465SOL    HW129294   4.836   4.359   1.210  0.7960  0.0822 -1.1510
 9465SOL    HW229295   4.948   4.456   1.279 -0.5438 -0.6637  2.2882
 9466SOL     OW29296   6.724   0.541   5.556  0.2482 -0.3124 -0.4265
 9466SOL    HW129297   6.743   0.636   5.583 -0.9595 -0.2701  0.3422
 9466SOL    HW229298   6.806   0.502   5.514  0.6504  1.1861 -1.1106
 9467SOL     OW29299   4.636   0.590   3.042 -0.0015 -0.0593 -0.6218
 9467SOL    HW129300   4.561   0.604   3.106 -0.1047  1.3579 -1.0113
 9467SOL    HW229301   4.665   0.494   3.044 -1.4562 -0.5124 -0.0809
 9468SOL     OW29302   6.398   3.910   0.445 -0.2190 -0.1677  0.5934
 9468SOL    HW129303   6.354   3.876   0.362 -0.6036  0.7276  0.4188
 9468SOL    HW229304   6.328   3.946   0.507  0.1793  0.3530  0.7473
 9469SOL     OW29305   1.096   6.971   0.945  0.2907  0.0496 -0.1306
 9469SOL    HW129306   0.999   6.970   0.921  0.2149  0.9426  0.0884
 9469SOL    HW229307   1.106   6.956   1.044  0.4368 -1.0044 -0.3027
 9470SOL     OW29308   5.615   2.002   3.309  0.4562  0.1704  0.2685
 9470SOL    HW129309   5.679   2.030   3.381  0.8498 -0.0920  0.0251
 9470SOL    HW229310   5.529   2.051   3.320  1.8974  3.4177 -1.6451
 9471SOL     OW29311   2.670   1.933   4.741  0.1109  0.5850 -0.0944
 9471SOL    HW129312   2.700   1.963   4.651 -0.5169  3.1590  0.4522
 9471SOL    HW229313   2.571   1.950   4.750 -0.4228 -2.2298  0.1580
 9472SOL     OW29314   6.537   0.461   6.502 -0.0273  0.4230  0.2580
 9472SOL    HW129315   6.506   0.368   6.481 -2.3781  1.1472  0.2067
 9472SOL    HW229316   6.633   0.471   6.476  0.2214 -1.9024  0.0526
 9473SOL     OW29317   2.845   3.283   2.140  0.0079  0.5395 -0.2169
 9473SOL    HW129318   2.762   3.248   2.097  0.8747 -1.5951 -0.3243
 9473SOL    HW229319   2.852   3.246   2.233  1.2869 -0.1481 -0.5570
 9474SOL     OW29320   3.769   2.573   6.968  0.3982  0.0859 -0.4552
 9474SOL    HW129321   3.719   2.505   7.022  1.0647 -1.0251 -1.2074
 9474SOL    HW229322   3.853   2.533   6.933  1.6107  1.7880  0.3775
 9475SOL     OW29323   6.324   6.848   5.521 -0.2230  0.9140 -0.2803
 9475SOL    HW129324   6.355   6.935   5.558 -0.2490  1.0926 -0.6693
 9475SOL    HW229325   6.272   6.864   5.437  1.6489  0.4256 -1.6169
 9476SOL     OW29326   1.840   2.768   2.450  0.0546 -0.3672 -0.1756
 9476SOL    HW129327   1.856   2.749   2.353  0.7151 -0.0275 -0.1349
 9476SOL    HW229328   1.759   2.826   2.460 -0.4226 -0.9776 -0.4751
 9477SOL     OW29329   4.363   3.140   1.412 -0.1788 -0.0429  0.1512
 9477SOL    HW129330   4.441   3.200   1.390  0.5081 -0.5355  1.1445
 9477SOL    HW229331   4.367   3.115   1.509 -0.7481 -1.2791 -0.1251
 9478SOL     OW29332   6.245   3.522   2.570  0.1325 -0.0072 -0.4753
 9478SOL    HW129333   6.297   3.480   2.645 -1.1754 -1.1034 -0.1351
 9478SOL    HW229334   6.162   3.563   2.606  0.0030  0.3878 -1.2044
 9479SOL     OW29335   6.327   1.134   0.092  0.4018  0.0340  0.3211
 9479SOL    HW129336   6.398   1.070   0.119  0.9952  0.2288 -0.7270
 9479SOL    HW229337   6.242   1.113   0.140  1.5035  0.6597  2.6930
 9480SOL     OW29338   1.218   6.935   0.340 -0.5833 -0.2152  0.5880
 9480SOL    HW129339   1.158   7.015   0.351  0.5002  0.6392  0.5038
 9480SOL    HW229340   1.241   6.925   0.243  0.1127  0.0025  0.7290
 9481SOL     OW29341   4.743   6.537   4.383  0.0842 -0.8000  0.1453
 9481SOL    HW129342   4.665   6.594   4.359 -0.2453 -1.7924 -1.2728
 9481SOL    HW229343   4.716   6.474   4.456  0.3567  0.5744  1.4853
 9482SOL     OW29344   1.309   1.894   5.438 -0.2798  0.2346 -0.0779
 9482SOL    HW129345   1.315   1.879   5.339 -0.2178 -1.0204  0.1031
 9482SOL    HW229346   1.262   1.980   5.455  0.7992  1.0997 -1.2157
 9483SOL     OW29347   2.249   6.093   2.545  0.6974 -0.4887 -0.1889
 9483SOL    HW129348   2.227   6.190   2.536  1.0457 -0.4270 -0.4098
 9483SOL    HW229349   2.347   6.080   2.528  0.4048 -1.0556 -1.4956
 9484SOL     OW29350   0.743   6.149   0.727 -0.4339 -0.5558  0.0726
 9484SOL    HW129351   0.838   6.117   0.725 -0.2249  0.0149 -2.1722
 9484SOL    HW229352   0.707   6.150   0.634 -1.8310  1.5707  0.5768
 9485SOL     OW29353   5.698   3.205   6.234  0.6982 -0.2478  0.1864
 9485SOL    HW129354   5.600   3.208   6.213  0.5455 -1.2646  0.7135
 9485SOL    HW229355   5.711   3.197   6.332  1.2206 -2.9736 -0.0369
 9486SOL     OW29356   5.148   1.055   6.402 -0.0187 -0.0737 -0.1177
 9486SOL    HW129357   5.245   1.079   6.407 -0.1264  0.5148 -0.6825
 9486SOL    HW229358   5.137   0.972   6.347  0.2601 -0.8434  0.9473
 9487SOL     OW29359   1.875   1.162   1.232 -0.3474  0.2690  0.1289
 9487SOL    HW129360   1.792   1.186   1.182 -0.0956  0.4639 -0.1973
 9487SOL    HW229361   1.913   1.245   1.274  0.5650  0.4779 -1.0559
 9488SOL     OW29362   4.250   1.547   3.086 -0.0590 -0.7637  0.2966
 9488SOL    HW129363   4.299   1.490   3.152  0.3579  0.5302  1.1411
 9488SOL    HW229364   4.306   1.626   3.062 -0.5025 -0.8448 -1.0781
 9489SOL     OW29365   2.109   6.654   1.462 -0.5993  0.4975  0.0930
 9489SOL    HW129366   2.126   6.704   1.547 -0.0654  0.3257  0.0958
 9489SOL    HW229367   2.143   6.560   1.472  2.3648  1.2994 -1.3226
 9490SOL     OW29368   5.535   1.105   4.686 -0.1930 -0.6135  0.2813
 9490SOL    HW129369   5.598   1.039   4.726  0.1182  0.1994  1.1703
 9490SOL    HW229370   5.492   1.159   4.758 -1.1250 -0.4521 -0.3776
 9491SOL     OW29371   6.279   5.068   1.679 -0.9620 -0.4333 -0.6154
 9491SOL    HW129372   6.185   5.038   1.667 -0.8242 -0.5769 -1.4227
 9491SOL    HW229373   6.340   5.005   1.630 -0.3672 -0.8870  0.6806
 9492SOL     OW29374   1.804   0.134   4.072 -0.4806 -0.3409 -0.3557
 9492SOL    HW129375   1.808   0.169   4.166 -1.2926 -0.4500 -0.2730
 9492SOL    HW229376   1.884   0.075   4.056  0.0244  0.2192  0.0368
 9493SOL     OW29377   1.886   5.170   6.932 -0.2838  0.2676  0.3041
 9493SOL    HW129378   1.946   5.223   6.872  0.3956 -0.2809  0.4851
 9493SOL    HW229379   1.791   5.185   6.905 -0.0936  1.3399  0.1647
 9494SOL     OW29380   3.977   0.308   6.266 -0.3112  0.7987  0.4759
 9494SOL    HW129381   4.077   0.301   6.269 -0.1924  2.3494  2.3640
 9494SOL    HW229382   3.937   0.243   6.330 -0.4887  0.4945  0.0561
 9495SOL     OW29383   1.297   0.465   1.919 -0.1062  0.4518  0.0299
 9495SOL    HW129384   1.262   0.471   1.826 -1.0778  3.0468  0.4862
 9495SOL    HW229385   1.225   0.433   1.980  0.1976 -0.1496  0.0842
 9496SOL     OW29386   0.076   6.608   5.350  0.0328  0.0123  0.1535
 9496SOL    HW129387   0.015   6.567   5.418  0.2681  2.5377  2.0601
 9496SOL    HW229388   0.022   6.664   5.287  0.1664  0.8780  0.7870
 9497SOL     OW29389   6.972   6.228   1.393  0.0238  0.0223  0.0595
 9497SOL    HW129390   7.018   6.143   1.368 -0.1298 -0.2145  0.5609
 9497SOL    HW229391   6.924   6.266   1.313  0.7112  0.0346 -0.3480
 9498SOL     OW29392   4.114   3.411   6.124  0.1460  0.2087 -0.4854
 9498SOL    HW129393   4.015   3.417   6.122  0.0229 -1.3450 -0.4475
 9498SOL    HW229394   4.153   3.473   6.055 -0.9427 -0.6918 -1.9621
 9499SOL     OW29395   4.833   5.188   2.504 -0.4842  0.0330  0.1119
 9499SOL    HW129396   4.885   5.255   2.451 -2.0186  0.7103 -0.6033
 9499SOL    HW229397   4.869   5.184   2.597 -0.2527  1.7625  0.1389
 9500SOL     OW29398   6.128   2.898   0.265 -0.0281  0.0735  0.1285
 9500SOL    HW129399   6.083   2.828   0.210 -1.6817  0.3796  1.0247
 9500SOL    HW229400   6.089   2.899   0.357  0.9873  1.1861  0.5781
 9501SOL     OW29401   5.307   1.648   5.577 -1.5490 -0.3205  0.0475
 9501SOL    HW129402   5.219   1.628   5.619 -2.1678 -0.6739 -1.3475
 9501SOL    HW229403   5.297   1.726   5.515 -0.6769  0.1605  0.4959
 9502SOL     OW29404   2.605   0.870   0.784 -0.6768  0.1044  0.5265
 9502SOL    HW129405   2.685   0.870   0.844 -0.0437 -1.4002 -0.2655
 9502SOL    HW229406   2.580   0.776   0.762 -0.1688  0.5802 -2.4838
 9503SOL     OW29407   6.881   1.067   1.673  0.1533 -0.4731 -0.8775
 9503SOL    HW129408   6.821   1.147   1.673  1.6482  0.6959 -0.9014
 9503SOL    HW229409   6.898   1.038   1.579 -1.5966 -1.8026 -0.8230
 9504SOL     OW29410   5.255   2.702   3.725  0.2954  0.3332  0.7404
 9504SOL    HW129411   5.294   2.773   3.667  1.8255 -0.3875  0.8444
 9504SOL    HW229412   5.184   2.742   3.783  1.4825  1.8769  1.1753
 9505SOL     OW29413   0.110   6.163   0.081 -0.1456  0.1758 -0.0003
 9505SOL    HW129414   0.152   6.183  -0.008 -0.5541  1.2885  0.0418
 9505SOL    HW229415   0.178   6.121   0.141  0.7590  1.3405 -0.1556
 9506SOL     OW29416   1.286   5.974   4.814 -0.3113 -0.0397 -0.2525
 9506SOL    HW129417   1.231   5.905   4.861 -1.5681  2.2772  1.9725
 9506SOL    HW229418   1.264   6.065   4.851  1.8103  1.5106 -2.4567
 9507SOL     OW29419   2.935   6.091   3.023 -0.0802 -0.0644 -0.6317
 9507SOL    HW129420   2.945   6.015   3.088  1.4805 -1.1247 -2.0352
 9507SOL    HW229421   2.884   6.165   3.066 -2.1281 -2.0770  0.6491
 9508SOL     OW29422   1.833   6.232   3.194  0.3243 -0.0502 -0.3994
 9508SOL    HW129423   1.884   6.224   3.280 -0.4219 -1.5040 -0.0485
 9508SOL    HW229424   1.768   6.308   3.200  0.3117 -0.1075  0.3102
 9509SOL     OW29425   1.129   0.736   0.866  0.2132  0.1480  0.0335
 9509SOL    HW129426   1.055   0.757   0.803  1.4827  1.9025 -0.9822
 9509SOL    HW229427   1.129   0.802   0.940  2.0512  1.6420 -1.2017
 9510SOL     OW29428   1.479   1.836   4.631  0.2453 -0.2434  0.4345
 9510SOL    HW129429   1.482   1.748   4.678 -0.5732 -1.0184 -0.9082
 9510SOL    HW229430   1.386   1.873   4.636 -0.4245 -1.3539 -2.2855
 9511SOL     OW29431   5.885   5.781   0.331  0.4795 -0.5881  0.1584
 9511SOL    HW129432   5.894   5.698   0.384  0.3397  1.0182  2.8769
 9511SOL    HW229433   5.926   5.858   0.381 -1.3675  1.3868 -1.1555
 9512SOL     OW29434   2.481   5.270   2.218 -0.1979  0.2539  0.0611
 9512SOL    HW129435   2.542   5.298   2.292 -2.4127  1.5560  1.5178
 9512SOL    HW229436   2.423   5.194   2.249 -0.0878 -0.2464 -0.9111
 9513SOL     OW29437   6.289   2.751   4.308  0.5812 -0.3494 -0.2576
 9513SOL    HW129438   6.202   2.724   4.350  0.9106 -1.6368 -0.3731
 9513SOL    HW229439   6.290   2.850   4.296 -0.3953 -0.1870  0.8028
 9514SOL     OW29440   4.110   5.366   1.439  0.4885 -0.7156  0.2657
 9514SOL    HW129441   4.035   5.315   1.397  0.0547 -0.6427  0.9229
 9514SOL    HW229442   4.097   5.368   1.538  1.5076 -0.9176  0.4154
 9515SOL     OW29443   4.303   0.495   1.909 -0.0501 -0.0146 -0.4794
 9515SOL    HW129444   4.205   0.503   1.929 -0.2645  0.4814 -1.6589
 9515SOL    HW229445   4.336   0.406   1.940 -1.1938 -0.7543 -1.2781
 9516SOL     OW29446   1.051   6.676   4.683 -0.2983  0.0884  0.3725
 9516SOL    HW129447   1.083   6.729   4.605 -0.9571 -1.6677 -1.1348
 9516SOL    HW229448   1.028   6.738   4.758 -1.3237  1.9639 -1.4070
 9517SOL     OW29449   2.350   0.422   1.804 -0.2150  0.2559  0.4081
 9517SOL    HW129450   2.396   0.497   1.853 -0.3202  1.3896 -1.1728
 9517SOL    HW229451   2.345   0.342   1.865 -1.1654  1.8572  2.5783
 9518SOL     OW29452   6.625   2.131   2.433 -0.1220  0.4552  0.0007
 9518SOL    HW129453   6.618   2.217   2.482  0.4611  0.4472  0.0969
 9518SOL    HW229454   6.703   2.078   2.467 -0.7393 -0.3127  0.2556
 9519SOL     OW29455   3.292   4.256   1.685  0.3438  0.2901 -0.2053
 9519SOL    HW129456   3.351   4.219   1.757  1.3680  0.1031 -1.1057
 9519SOL    HW229457   3.320   4.350   1.664 -0.0443  0.3948 -0.2522
 9520SOL     OW29458   2.416   4.890   5.883  0.1832  0.2087 -0.0558
 9520SOL    HW129459   2.375   4.869   5.972  1.2230 -0.5988  0.2521
 9520SOL    HW229460   2.437   4.805   5.835  0.9100  0.6092 -0.4740
 9521SOL     OW29461   0.779   1.479   1.881  1.0677 -0.9955  0.2720
 9521SOL    HW129462   0.777   1.497   1.980  0.9822  2.2030 -0.1996
 9521SOL    HW229463   0.694   1.511   1.840  1.3933 -1.6355 -0.9591
 9522SOL     OW29464   2.013   3.549   0.554  0.0941 -0.1040  0.3729
 9522SOL    HW129465   2.022   3.457   0.515 -0.2317 -0.3504  0.8638
 9522SOL    HW229466   1.946   3.601   0.501  1.6117  0.5012 -1.0533
 9523SOL     OW29467   4.768   1.361   1.381 -0.2424  0.5056 -0.6358
 9523SOL    HW129468   4.680   1.327   1.348 -1.4808  2.2149  0.7264
 9523SOL    HW229469   4.758   1.456   1.410  1.4031  0.0082  1.9059
 9524SOL     OW29470   2.440   1.228   3.167 -0.4052 -0.0430 -0.2401
 9524SOL    HW129471   2.433   1.129   3.150 -0.2867  0.2012 -1.8531
 9524SOL    HW229472   2.522   1.247   3.220 -1.1074 -0.9286  1.2233
 9525SOL     OW29473   6.157   0.196   2.418 -0.3450  0.1810  0.6186
 9525SOL    HW129474   6.078   0.175   2.476  0.9944 -0.2330  2.4003
 9525SOL    HW229475   6.145   0.286   2.377 -2.5161 -0.5855 -0.6068
 9526SOL     OW29476   2.710   5.876   0.927  0.9410 -0.3883 -0.1210
 9526SOL    HW129477   2.651   5.945   0.970  0.5069  0.3319 -1.8122
 9526SOL    HW229478   2.678   5.785   0.954  0.3706  0.0265  0.6585
 9527SOL     OW29479   2.370   5.949   6.850  0.2370 -0.3616 -0.0049
 9527SOL    HW129480   2.311   6.030   6.851 -3.7318 -2.9337  1.4188
 9527SOL    HW229481   2.412   5.939   6.760 -2.8061  0.9588 -1.7183
 9528SOL     OW29482   5.810   0.319   0.840 -0.1421  0.1944  0.3725
 9528SOL    HW129483   5.754   0.251   0.793 -0.5058 -1.0085  2.4260
 9528SOL    HW229484   5.907   0.301   0.824 -0.2739  0.7849 -1.1869
 9529SOL     OW29485   3.803   3.100   6.811 -0.2789  0.1479  0.4402
 9529SOL    HW129486   3.881   3.045   6.779 -0.4612 -0.5824  1.2165
 9529SOL    HW229487   3.827   3.197   6.806  0.5480 -0.0495  0.3172
 9530SOL     OW29488   0.385   3.675   4.188  0.9487 -0.3959  0.6782
 9530SOL    HW129489   0.470   3.721   4.165  1.3829 -1.3161  0.3926
 9530SOL    HW229490   0.367   3.603   4.121 -2.4443  2.6482 -2.0993
 9531SOL     OW29491   1.387   1.441   2.270  0.0524 -0.1423  0.2190
 9531SOL    HW129492   1.368   1.469   2.364 -0.4255  1.3455 -0.2809
 9531SOL    HW229493   1.389   1.342   2.264 -1.6035 -0.2956  1.4786
 9532SOL     OW29494   2.410   2.288   1.756  0.2807 -0.1088 -0.1795
 9532SOL    HW129495   2.382   2.287   1.852  1.7268 -2.6613  0.3328
 9532SOL    HW229496   2.504   2.320   1.749  1.0347 -2.1859 -0.3511
 9533SOL     OW29497   3.622   4.870   5.429  1.1431  0.3487  0.3894
 9533SOL    HW129498   3.695   4.804   5.447  0.8286  0.1460  0.9493
 9533SOL    HW229499   3.644   4.922   5.346  0.2476 -2.1184 -1.5280
 9534SOL     OW29500   1.062   1.462   4.758  0.5484 -0.4378  0.0627
 9534SOL    HW129501   0.974   1.418   4.739  1.5117 -2.9728  1.0641
 9534SOL    HW229502   1.084   1.452   4.855  1.0999  1.9108  0.2568
 9535SOL     OW29503   5.499   0.918   1.459 -0.1642 -0.1903 -0.4069
 9535SOL    HW129504   5.430   0.917   1.387 -0.7504  0.5513  0.1225
 9535SOL    HW229505   5.465   0.871   1.540  0.3411 -0.6878 -0.4770
 9536SOL     OW29506   1.416   6.766   5.930 -0.2411  0.2911 -0.0707
 9536SOL    HW129507   1.318   6.746   5.928 -0.4765  1.3421  0.3168
 9536SOL    HW229508   1.436   6.828   6.005  0.5738  0.8027 -0.6891
 9537SOL     OW29509   1.942   4.419   2.001 -0.0102  0.2564  0.0643
 9537SOL    HW129510   1.959   4.322   2.018  1.6665  0.2101 -1.5623
 9537SOL    HW229511   2.010   4.474   2.049 -1.6609  0.7649  1.9588
 9538SOL     OW29512   6.974   3.047   4.841  0.0347 -0.0525 -0.0704
 9538SOL    HW129513   7.053   2.991   4.867 -0.3993 -0.9589 -0.6419
 9538SOL    HW229514   6.961   3.043   4.742  1.4901  3.1105 -0.5041
 9539SOL     OW29515   5.600   1.364   1.847 -0.1437  0.1150  0.2970
 9539SOL    HW129516   5.577   1.268   1.830  1.0064  0.0539 -1.0813
 9539SOL    HW229517   5.633   1.373   1.941  0.8805 -1.0925  0.0921
 9540SOL     OW29518   5.870   2.445   4.868  0.6305 -0.1149 -0.2816
 9540SOL    HW129519   5.887   2.374   4.936  1.8480 -0.2221 -0.6801
 9540SOL    HW229520   5.830   2.404   4.786  0.2617 -0.1609 -0.0808
 9541SOL     OW29521   4.915   5.674   4.265  0.2315 -0.1487  0.5378
 9541SOL    HW129522   4.861   5.699   4.184 -1.2128 -1.5613  1.0171
 9541SOL    HW229523   4.942   5.757   4.313  0.6744  0.7014 -1.0774
 9542SOL     OW29524   4.170   6.774   6.267 -0.2084 -0.1380  0.1165
 9542SOL    HW129525   4.153   6.715   6.346  0.1114  0.8449  0.9306
 9542SOL    HW229526   4.167   6.870   6.295  0.1636  0.2207 -1.0156
 9543SOL     OW29527   1.732   1.694   6.563  0.7087  0.3389 -0.0779
 9543SOL    HW129528   1.723   1.727   6.658  0.2594  3.0417 -0.9496
 9543SOL    HW229529   1.646   1.650   6.536  0.1437  1.1917  0.2450
 9544SOL     OW29530   6.436   2.307   6.288 -0.4120 -0.5126 -0.3102
 9544SOL    HW129531   6.494   2.378   6.328  0.5124 -0.6587 -1.3454
 9544SOL    HW229532   6.380   2.265   6.360  0.1471  0.2112  0.5655
 9545SOL     OW29533   6.082   0.233   0.772 -0.3697 -0.2596  0.2433
 9545SOL    HW129534   6.109   0.250   0.867  0.6278 -0.3943 -0.0066
 9545SOL    HW229535   6.115   0.143   0.744 -1.1750 -0.4673 -0.0474
 9546SOL     OW29536   2.671   3.807   0.212  0.3312  0.1730  0.4402
 9546SOL    HW129537   2.594   3.865   0.188  1.1986  0.3658 -2.2851
 9546SOL    HW229538   2.639   3.713   0.225 -0.7474  0.7816  2.5456
 9547SOL     OW29539   0.929   3.097   1.377 -0.0277  0.1428  0.0469
 9547SOL    HW129540   0.962   3.158   1.305 -1.8972  0.4183 -0.6378
 9547SOL    HW229541   0.861   3.145   1.432 -2.8618 -1.7046 -1.5698
 9548SOL     OW29542   0.291   1.346   3.473 -0.6531  0.0490 -0.3656
 9548SOL    HW129543   0.356   1.421   3.482  0.3691 -0.8449 -0.1268
 9548SOL    HW229544   0.282   1.321   3.376 -2.9751  2.1433 -0.7851
 9549SOL     OW29545   1.741   0.323   2.336 -0.0717  0.0159 -0.2226
 9549SOL    HW129546   1.718   0.253   2.268 -0.4718 -0.1043  0.0331
 9549SOL    HW229547   1.831   0.304   2.375  0.3383  0.3004 -0.9908
 9550SOL     OW29548   2.613   4.160   0.013  0.7859 -0.1189 -0.2502
 9550SOL    HW129549   2.694   4.204  -0.025  1.7301  0.1480  1.9234
 9550SOL    HW229550   2.637   4.111   0.097 -1.2988  0.0826  0.5432
 9551SOL     OW29551   3.419   5.196   0.455  0.1473 -0.3382  0.2376
 9551SOL    HW129552   3.366   5.144   0.388 -0.1278 -0.8046  0.8120
 9551SOL    HW229553   3.372   5.283   0.473  0.6960  0.2110 -0.8500
 9552SOL     OW29554   5.276   3.848   6.722  0.4509  0.5350  0.5816
 9552SOL    HW129555   5.229   3.784   6.662 -0.7127  0.4888  1.5147
 9552SOL    HW229556   5.368   3.866   6.686  1.0038 -2.0050  0.5242
 9553SOL     OW29557   0.516   6.609   3.886  0.4941  0.1104 -0.1232
 9553SOL    HW129558   0.486   6.542   3.954 -0.8596 -0.7588 -1.5142
 9553SOL    HW229559   0.591   6.571   3.832  0.6245  0.2495 -0.0418
 9554SOL     OW29560   2.818   2.432   1.235  0.4974  0.4289 -0.1777
 9554SOL    HW129561   2.771   2.355   1.279 -2.1933  0.5311 -2.5627
 9554SOL    HW229562   2.875   2.479   1.302  0.4114 -2.2317  1.9163
 9555SOL     OW29563   2.505   6.928   2.240 -0.6015  0.5839 -0.1596
 9555SOL    HW129564   2.531   7.014   2.197 -0.0201  0.6338  0.2819
 9555SOL    HW229565   2.500   6.940   2.339  0.4184 -0.1057 -0.0024
 9556SOL     OW29566   0.029   4.933   6.798  0.2621 -0.0788  0.2776
 9556SOL    HW129567   0.025   4.880   6.882 -0.1263 -1.7063 -0.7245
 9556SOL    HW229568  -0.024   5.017   6.809 -0.8953 -0.9038  1.2326
 9557SOL     OW29569   2.318   2.236   2.811  0.4740  0.5403 -0.4555
 9557SOL    HW129570   2.379   2.160   2.790 -0.7624 -0.0036 -2.3830
 9557SOL    HW229571   2.366   2.303   2.867  1.7865 -1.3474  0.8302
 9558SOL     OW29572   4.430   5.871   5.930 -0.9132 -0.4891 -0.6194
 9558SOL    HW129573   4.361   5.809   5.893 -2.2006  0.6514 -0.2250
 9558SOL    HW229574   4.405   5.896   6.024  0.0792 -0.0956 -0.4464
 9559SOL     OW29575   5.161   0.674   5.519  0.1718 -0.0049  0.3088
 9559SOL    HW129576   5.163   0.765   5.477 -0.3090  0.0681  0.4368
 9559SOL    HW229577   5.243   0.623   5.493  0.3911  0.4284  0.1501
 9560SOL     OW29578   6.922   3.355   0.530  0.1043 -0.3382  0.0599
 9560SOL    HW129579   6.848   3.383   0.469  0.2868  1.2599  0.5246
 9560SOL    HW229580   6.886   3.336   0.621  0.4255  2.4792  0.8793
 9561SOL     OW29581   5.699   5.658   6.178  0.3080 -0.3297  0.2679
 9561SOL    HW129582   5.651   5.621   6.258 -0.3048  0.2423  0.1754
 9561SOL    HW229583   5.632   5.688   6.110  0.8213 -2.4792 -1.2709
 9562SOL     OW29584   4.783   2.889   5.718  0.5190  0.7255 -0.4432
 9562SOL    HW129585   4.780   2.790   5.729 -1.9135  0.9990  2.5468
 9562SOL    HW229586   4.869   2.924   5.754  1.4966 -0.2255 -1.7242
 9563SOL     OW29587   2.669   6.781   0.665 -0.1327  0.8146 -0.4816
 9563SOL    HW129588   2.756   6.732   0.659  0.1894  1.4701 -1.4786
 9563SOL    HW229589   2.662   6.845   0.589 -0.5464  2.3098  0.7606
 9564SOL     OW29590   0.259   2.934   2.356 -0.1612  0.0728  0.0426
 9564SOL    HW129591   0.336   2.880   2.321 -1.1008 -0.2984 -1.5352
 9564SOL    HW229592   0.255   3.022   2.307 -0.9227 -0.0447 -0.1160
 9565SOL     OW29593   4.078   5.754   0.144 -0.4110  0.5080  0.0155
 9565SOL    HW129594   4.103   5.779   0.238  0.9962 -0.9452  0.0894
 9565SOL    HW229595   4.003   5.687   0.146  0.0037  0.0359  0.1643
 9566SOL     OW29596   2.552   3.212   5.660  0.0844 -0.6480  0.6053
 9566SOL    HW129597   2.496   3.214   5.577 -0.5991 -1.4533  1.0265
 9566SOL    HW229598   2.514   3.276   5.727 -1.0015 -1.9311  1.2754
 9567SOL     OW29599   6.703   0.816   0.955  0.1714 -0.5193  0.1664
 9567SOL    HW129600   6.734   0.815   1.050 -0.1397 -0.0288  0.2772
 9567SOL    HW229601   6.675   0.724   0.928 -0.6444 -0.4941  0.8597
 9568SOL     OW29602   2.866   1.739   6.706  0.1269  0.3472 -0.3995
 9568SOL    HW129603   2.840   1.747   6.802 -0.5323 -1.2995 -0.4069
 9568SOL    HW229604   2.787   1.757   6.648 -0.0868 -1.0197 -0.5471
 9569SOL     OW29605   3.639   5.792   1.328 -0.1195 -0.2772  0.5628
 9569SOL    HW129606   3.680   5.713   1.374  0.2843  0.7419  2.0228
 9569SOL    HW229607   3.580   5.841   1.392 -2.0130 -0.5108 -0.8982
 9570SOL     OW29608   3.910   6.824   6.155  0.4452 -0.0422 -0.0357
 9570SOL    HW129609   3.899   6.879   6.238  0.1462  2.5092 -1.6688
 9570SOL    HW229610   4.006   6.821   6.129  0.6706 -1.6418  0.8563
 9571SOL     OW29611   1.612   6.045   3.619 -0.2255 -0.3680  0.2265
 9571SOL    HW129612   1.552   6.126   3.612 -1.0836 -0.9615  0.5888
 9571SOL    HW229613   1.679   6.048   3.544 -0.1484  0.7491  0.3099
 9572SOL     OW29614   3.618   2.211   6.544 -0.2037  0.1303  0.4751
 9572SOL    HW129615   3.543   2.165   6.497  1.4225 -0.0283 -2.2023
 9572SOL    HW229616   3.657   2.281   6.485  1.5078  0.4936  1.9315
 9573SOL     OW29617   0.538   4.132   5.700 -0.4740 -0.0154  0.1523
 9573SOL    HW129618   0.634   4.105   5.710 -0.7735 -1.3263 -0.3601
 9573SOL    HW229619   0.520   4.210   5.760  0.5633 -0.6378  1.3310
 9574SOL     OW29620   6.780   4.100   6.830 -0.4485  0.6306  0.0644
 9574SOL    HW129621   6.767   4.110   6.731  2.3796  0.7005 -0.3712
 9574SOL    HW229622   6.779   4.003   6.854 -0.5209  0.5850 -0.1208
 9575SOL     OW29623   6.029   5.909   6.688  0.0186  1.3225 -0.2244
 9575SOL    HW129624   5.949   5.918   6.747 -0.7047 -1.2252 -0.6797
 9575SOL    HW229625   5.999   5.894   6.594  1.0080  0.4975 -0.4225
 9576SOL     OW29626   1.370   3.500   0.284 -0.1062 -0.0911 -0.2725
 9576SOL    HW129627   1.274   3.524   0.272 -0.3318 -0.9045 -0.1683
 9576SOL    HW229628   1.426   3.549   0.217 -0.8069 -0.9821 -1.5394
 9577SOL     OW29629   4.121   2.328   1.588  0.1707 -0.2239 -0.1056
 9577SOL    HW129630   4.092   2.277   1.669 -0.0870  1.2829  0.7913
 9577SOL    HW229631   4.155   2.418   1.616 -0.2971  0.4766 -1.7099
 9578SOL     OW29632   5.674   4.075   2.171 -0.2544 -0.0732 -0.0742
 9578SOL    HW129633   5.584   4.066   2.130  0.2327  2.2313 -1.8690
 9578SOL    HW229634   5.666   4.118   2.261 -0.9005  1.4451 -0.8215
 9579SOL     OW29635   5.953   6.233   3.370 -0.3580 -0.2453  1.0397
 9579SOL    HW129636   6.021   6.173   3.410  0.3956  0.8480  1.4417
 9579SOL    HW229637   5.924   6.301   3.438 -1.4851 -0.3897  0.7221
 9580SOL     OW29638   1.728   2.338   3.036  0.2154  0.1805 -0.2335
 9580SOL    HW129639   1.757   2.416   2.980  0.7202  0.4272  0.3730
 9580SOL    HW229640   1.720   2.366   3.131  0.2328 -0.4744 -0.0360
 9581SOL     OW29641   3.573   0.097   0.706 -0.1341 -0.2899 -0.3145
 9581SOL    HW129642   3.599   0.095   0.610  2.1259  0.4101  0.2213
 9581SOL    HW229643   3.497   0.162   0.719 -0.0215  0.1024 -1.5268
 9582SOL     OW29644   2.821   2.626   6.047  0.4351 -0.3544 -0.2573
 9582SOL    HW129645   2.748   2.569   6.012  0.6956 -0.5988 -0.4071
 9582SOL    HW229646   2.874   2.575   6.116  0.4510 -0.1731 -0.1330
 9583SOL     OW29647   4.068   2.164   0.886 -0.0524  0.4187 -0.1609
 9583SOL    HW129648   4.145   2.212   0.845  0.4260  2.1714  2.5510
 9583SOL    HW229649   3.988   2.173   0.826  0.5771  2.8443 -0.7596
 9584SOL     OW29650   6.061   4.890   0.982  0.7869  0.0522 -0.8394
 9584SOL    HW129651   6.053   4.845   1.071  0.7527 -2.6150 -2.0930
 9584SOL    HW229652   5.995   4.851   0.919  2.3106  0.2568 -2.6519
 9585SOL     OW29653   3.717   5.919   5.669  0.3533 -0.8250 -0.3910
 9585SOL    HW129654   3.685   5.881   5.755 -2.4206 -0.4251 -1.1489
 9585SOL    HW229655   3.774   6.000   5.687 -0.4815 -0.5282  1.0659
 9586SOL     OW29656   6.197   2.413   4.589 -0.5621 -0.2965 -0.3612
 9586SOL    HW129657   6.177   2.375   4.498 -0.9959  0.1469 -0.4483
 9586SOL    HW229658   6.275   2.476   4.582  1.1533 -2.2618  0.0327
 9587SOL     OW29659   1.480   4.229   5.822  0.0664 -0.0146  0.0249
 9587SOL    HW129660   1.384   4.200   5.828  0.0521 -0.7294 -2.4463
 9587SOL    HW229661   1.520   4.230   5.913 -1.4872 -2.5891  0.8573
 9588SOL     OW29662   6.310   6.737   6.122 -0.0017  0.3908 -0.0155
 9588SOL    HW129663   6.402   6.701   6.138 -0.5697 -0.8638  0.5471
 9588SOL    HW229664   6.281   6.790   6.202 -0.0955  0.0467  0.1834
 9589SOL     OW29665   6.922   4.661   6.560 -0.0577 -0.3414 -0.0859
 9589SOL    HW129666   6.998   4.716   6.593  0.2396 -1.7592  1.8143
 9589SOL    HW229667   6.907   4.678   6.463  2.5952  0.0888 -0.4898
 9590SOL     OW29668   1.103   5.516   3.872 -0.1056  0.0440 -0.3839
 9590SOL    HW129669   1.024   5.518   3.932 -0.6388  1.6339 -1.0835
 9590SOL    HW229670   1.162   5.439   3.897 -0.0268  0.9465  2.4794
 9591SOL     OW29671   0.475   3.103   0.928  0.1784 -0.4044 -0.0495
 9591SOL    HW129672   0.536   3.120   1.005 -2.2671  0.1080  1.8924
 9591SOL    HW229673   0.469   3.005   0.911  0.7449 -0.5269  0.4332
 9592SOL     OW29674   0.471   6.500   6.492 -0.0192  0.2767 -0.1762
 9592SOL    HW129675   0.457   6.563   6.416  0.5315 -0.2486 -0.7243
 9592SOL    HW229676   0.452   6.406   6.462 -1.3621  0.2148  0.7782
 9593SOL     OW29677   1.759   1.047   0.546 -0.1021  0.9541 -0.2332
 9593SOL    HW129678   1.851   1.079   0.568  1.2799 -0.3901 -3.3963
 9593SOL    HW229679   1.743   0.959   0.590  0.8756  0.3522 -1.0305
 9594SOL     OW29680   0.039   0.694   0.321 -0.2842 -0.0045  0.5072
 9594SOL    HW129681  -0.059   0.711   0.308 -0.1337  0.8996  0.4709
 9594SOL    HW229682   0.071   0.745   0.401  0.4031  0.7076 -0.2010
 9595SOL     OW29683   4.033   5.720   5.455  0.4024  0.1883 -0.1290
 9595SOL    HW129684   4.051   5.789   5.386  1.4114  0.1352  0.0670
 9595SOL    HW229685   4.017   5.764   5.543 -0.1656  0.2199 -0.2424
 9596SOL     OW29686   3.315   6.504   5.233  0.2528 -0.2623 -0.1675
 9596SOL    HW129687   3.377   6.565   5.184  0.6287  0.0609  0.6785
 9596SOL    HW229688   3.325   6.519   5.331 -0.6415 -0.7336  0.0058
 9597SOL     OW29689   2.491   5.855   2.236 -0.2188 -0.7625 -0.3077
 9597SOL    HW129690   2.421   5.786   2.215 -0.2374 -0.7411 -0.3162
 9597SOL    HW229691   2.478   5.934   2.175 -0.7196 -0.3970  0.2606
 9598SOL     OW29692   6.050   4.771   3.906  0.1410 -0.2527 -0.0451
 9598SOL    HW129693   5.973   4.712   3.881  0.7300 -0.8956 -0.3684
 9598SOL    HW229694   6.136   4.725   3.885  0.6220  0.4889  0.2426
 9599SOL     OW29695   3.206   4.220   1.247  0.6704 -0.2367  0.0980
 9599SOL    HW129696   3.118   4.183   1.216 -0.2233  1.3908  0.5673
 9599SOL    HW229697   3.240   4.164   1.323 -0.1378 -0.6847  0.1417
 9600SOL     OW29698   1.927   6.139   4.398 -0.5818 -0.3689 -0.2828
 9600SOL    HW129699   1.855   6.209   4.401  0.5523  0.7913  1.1483
 9600SOL    HW229700   1.977   6.147   4.312  0.6639  1.8200  0.5623
 9601SOL     OW29701   2.874   0.598   6.166  0.5694 -0.7710  0.5657
 9601SOL    HW129702   2.832   0.521   6.120  0.9793 -0.3920 -0.4613
 9601SOL    HW229703   2.803   0.657   6.205  0.1377 -0.3635 -0.7839
 9602SOL     OW29704   0.628   5.579   6.409  0.2686  0.6422 -0.2315
 9602SOL    HW129705   0.600   5.672   6.429 -0.4348 -0.0204  2.1399
 9602SOL    HW229706   0.713   5.558   6.458 -0.0519 -0.2246 -0.0222
 9603SOL     OW29707   5.104   5.824   3.299 -0.3285  0.3487  0.0691
 9603SOL    HW129708   5.083   5.862   3.209 -2.5835  1.7055  1.0886
 9603SOL    HW229709   5.133   5.729   3.289 -0.6450  0.4322 -2.0630
 9604SOL     OW29710   4.371   5.192   3.411 -0.2078  0.7064  0.6738
 9604SOL    HW129711   4.334   5.171   3.320 -0.7986  0.8747  0.8761
 9604SOL    HW229712   4.337   5.125   3.477  0.7879  0.1560  0.6456
 9605SOL     OW29713   1.852   1.747   1.608 -0.3550  0.6580  0.5045
 9605SOL    HW129714   1.854   1.714   1.703  1.3901 -1.0308 -0.0592
 9605SOL    HW229715   1.795   1.686   1.553  1.9218 -0.8185 -0.3076
 9606SOL     OW29716   2.563   6.255   6.053  0.7243 -0.4289  0.1123
 9606SOL    HW129717   2.620   6.181   6.089  1.3346  0.0730  0.2021
 9606SOL    HW229718   2.584   6.340   6.101 -0.4008 -0.3133  0.4208
 9607SOL     OW29719   3.271   1.788   3.011  0.2522  0.0537 -0.2257
 9607SOL    HW129720   3.367   1.772   3.034  0.0701 -1.3140 -0.3306
 9607SOL    HW229721   3.265   1.838   2.924  0.8698 -0.8116 -0.7822
 9608SOL     OW29722   3.063   0.341   6.959 -0.3162 -0.3285  0.2232
 9608SOL    HW129723   3.005   0.303   6.887 -0.4169 -0.9538  0.6282
 9608SOL    HW229724   3.042   0.438   6.971 -0.6555 -0.3431 -0.2383
 9609SOL     OW29725   3.533   2.958   2.193  0.1305 -0.3406 -0.3662
 9609SOL    HW129726   3.460   2.951   2.260  0.6403  1.9726  0.5144
 9609SOL    HW229727   3.496   2.990   2.106  0.1775  1.8471  0.3704
 9610SOL     OW29728   6.509   6.394   5.853  0.4632  0.1045  0.4461
 9610SOL    HW129729   6.449   6.444   5.915  1.0242  1.4438 -0.0566
 9610SOL    HW229730   6.470   6.395   5.761  1.2208  0.9733  0.1187
 9611SOL     OW29731   1.839   2.936   1.048 -0.2768 -0.6484  0.6752
 9611SOL    HW129732   1.831   3.029   1.084 -0.4363 -0.7368  0.8652
 9611SOL    HW229733   1.901   2.883   1.105  0.5640 -0.3904  0.0335
 9612SOL     OW29734   2.048   0.666   5.851  0.3435  0.4132 -0.1326
 9612SOL    HW129735   2.078   0.736   5.787 -0.1409  0.6203 -0.1444
 9612SOL    HW229736   2.004   0.591   5.802  1.1364 -0.0488 -0.1446
 9613SOL     OW29737   5.155   3.747   1.667 -0.2432 -0.0640  0.0535
 9613SOL    HW129738   5.135   3.775   1.761 -1.0684 -0.1994 -0.0746
 9613SOL    HW229739   5.070   3.729   1.618  0.0631  1.7769 -1.2724
 9614SOL     OW29740   2.671   1.337   5.665 -0.6899  1.0376  0.7545
 9614SOL    HW129741   2.601   1.321   5.734  1.2977 -1.7815  2.3261
 9614SOL    HW229742   2.735   1.407   5.697  0.3496 -0.4117  2.0137
 9615SOL     OW29743   3.838   5.539   5.500  0.3226  0.2250  0.1311
 9615SOL    HW129744   3.754   5.539   5.446  1.3148  0.4266 -1.4671
 9615SOL    HW229745   3.908   5.593   5.453  2.0025 -1.6453  0.3523
 9616SOL     OW29746   0.761   2.230   2.570 -0.4042  0.3835 -0.3589
 9616SOL    HW129747   0.825   2.244   2.646  0.0295 -0.9121 -0.4647
 9616SOL    HW229748   0.675   2.194   2.604  0.4016 -1.9238 -0.6128
 9617SOL     OW29749   0.335   1.329   2.577  0.3389  0.2212  0.6832
 9617SOL    HW129750   0.433   1.348   2.584  0.0885  1.2478  1.5345
 9617SOL    HW229751   0.283   1.399   2.626 -0.8688  0.0952 -0.3639
 9618SOL     OW29752   5.309   3.472   5.194 -0.1333 -0.8176  0.0234
 9618SOL    HW129753   5.336   3.565   5.218 -0.5754 -0.9616  1.1257
 9618SOL    HW229754   5.370   3.407   5.240 -1.8236 -1.1332  1.9729
 9619SOL     OW29755   3.881   4.713   5.985  0.1142 -0.1518 -0.1377
 9619SOL    HW129756   3.805   4.692   5.923 -1.4669  0.4759  1.4959
 9619SOL    HW229757   3.914   4.628   6.026 -0.3902 -0.3421 -0.1131
 9620SOL     OW29758   2.220   0.036   3.630 -0.0562 -0.6746 -0.1876
 9620SOL    HW129759   2.141   0.009   3.686 -0.0322  1.0734  0.7627
 9620SOL    HW229760   2.276   0.101   3.681  1.0457 -0.5264 -1.5309
 9621SOL     OW29761   3.011   4.595   6.305  0.3717 -0.3714  0.3825
 9621SOL    HW129762   2.995   4.613   6.402 -0.5356 -1.0613  0.3748
 9621SOL    HW229763   3.103   4.625   6.280  0.8100 -0.6584  1.5806
 9622SOL     OW29764   4.157   5.999   4.390  0.3259 -0.1188  0.2584
 9622SOL    HW129765   4.228   6.009   4.459  0.6869 -1.0833  0.0407
 9622SOL    HW229766   4.083   5.942   4.426 -0.2808  0.7383  0.4238
 9623SOL     OW29767   1.570   5.999   6.327  0.0761 -0.4462  0.5152
 9623SOL    HW129768   1.637   5.929   6.300 -0.5781 -0.2322 -1.9316
 9623SOL    HW229769   1.615   6.088   6.332  0.1085 -0.3824 -0.6327
 9624SOL     OW29770   5.803   3.081   2.815  0.1792  0.3591 -0.1577
 9624SOL    HW129771   5.827   3.160   2.758 -2.3203  1.9927  0.8783
 9624SOL    HW229772   5.726   3.105   2.874 -0.9302 -2.9830 -0.0349
 9625SOL     OW29773   2.958   6.561   0.554  0.3477 -0.5392 -0.0924
 9625SOL    HW129774   2.969   6.462   0.565 -0.2107 -0.8524 -1.8989
 9625SOL    HW229775   2.902   6.579   0.473  1.1407  1.2848 -0.2853
 9626SOL     OW29776   3.978   4.746   5.289  0.0972  0.1544 -0.3867
 9626SOL    HW129777   4.008   4.790   5.374  1.0327  0.5468 -0.9050
 9626SOL    HW229778   4.054   4.694   5.250 -0.2881  0.0788 -1.0489
 9627SOL     OW29779   4.036   6.770   4.815  0.3385 -0.2730 -0.2812
 9627SOL    HW129780   3.992   6.825   4.745  0.9266  1.9477  1.0055
 9627SOL    HW229781   4.054   6.826   4.896  1.1959 -2.3105  1.0362
 9628SOL     OW29782   3.124   0.034   0.754  0.2218  0.4089  0.0589
 9628SOL    HW129783   3.097   0.026   0.658  0.3091  0.9418 -0.0150
 9628SOL    HW229784   3.044   0.020   0.812 -0.6264  3.3636 -0.1897
 9629SOL     OW29785   3.359   4.759   5.284 -0.1883  0.7281 -0.3046
 9629SOL    HW129786   3.266   4.783   5.257 -0.0823  0.9460 -0.4690
 9629SOL    HW229787   3.365   4.756   5.384 -0.3518  0.7936 -0.2936
 9630SOL     OW29788   4.491   6.436   1.602 -0.2393 -0.3697 -0.4400
 9630SOL    HW129789   4.475   6.382   1.519 -3.1907 -0.9600  0.3967
 9630SOL    HW229790   4.416   6.502   1.614  0.8634  0.6820  1.0269
 9631SOL     OW29791   6.577   4.235   3.971  0.3595  0.0351 -0.7775
 9631SOL    HW129792   6.647   4.207   4.037  0.0136  0.0559 -0.4058
 9631SOL    HW229793   6.566   4.334   3.973 -0.4583 -0.0606 -0.0522
 9632SOL     OW29794   2.833   3.113   1.070  0.0044  0.2219 -0.1961
 9632SOL    HW129795   2.751   3.150   1.114 -1.4407 -0.6620 -2.0044
 9632SOL    HW229796   2.828   3.014   1.067  1.0938  0.1583 -0.4456
 9633SOL     OW29797   1.972   4.976   0.103 -0.2178 -0.4611  0.4090
 9633SOL    HW129798   2.065   4.998   0.133  0.4086 -0.4708 -1.4295
 9633SOL    HW229799   1.942   5.042   0.035  0.0078 -2.6429 -1.9470
 9634SOL     OW29800   4.910   6.169   3.365  0.3641 -0.6122 -0.3672
 9634SOL    HW129801   4.971   6.178   3.285  0.2622 -0.7904 -0.4651
 9634SOL    HW229802   4.958   6.201   3.446  0.0935  0.6202 -0.6692
 9635SOL     OW29803   5.771   6.559   5.689  0.3444  1.0994 -0.0896
 9635SOL    HW129804   5.772   6.541   5.590  0.6049 -1.5375  0.3267
 9635SOL    HW229805   5.802   6.478   5.738  0.3071  2.3855  2.1908
 9636SOL     OW29806   0.150   4.033   6.336 -0.1005 -0.2007 -0.2116
 9636SOL    HW129807   0.052   4.035   6.359 -0.1391  1.1227 -0.3707
 9636SOL    HW229808   0.166   3.964   6.266 -0.7505 -1.1115  0.5056
 9637SOL     OW29809   3.586   5.333   6.765  0.1579  0.0409  0.1169
 9637SOL    HW129810   3.498   5.328   6.812  0.3979 -0.8321  0.5169
 9637SOL    HW229811   3.649   5.267   6.807  1.0321  0.7169 -0.0975
 9638SOL     OW29812   0.866   0.241   4.451  0.2922 -0.6257 -0.4226
 9638SOL    HW129813   0.785   0.191   4.423  0.1858 -0.4286 -0.4705
 9638SOL    HW229814   0.871   0.328   4.401  1.0478 -1.0598 -1.1314
 9639SOL     OW29815   6.008   5.993   0.448 -0.4437  0.3475  0.2308
 9639SOL    HW129816   6.021   6.015   0.545 -0.4648 -1.5151  0.6907
 9639SOL    HW229817   6.097   5.986   0.403 -0.4055  0.4533  0.2893
 9640SOL     OW29818   5.363   1.968   6.915  0.0117 -0.0598  0.7162
 9640SOL    HW129819   5.463   1.972   6.919  0.0351  0.4171 -0.1703
 9640SOL    HW229820   5.325   2.026   6.987  0.3783  0.0254  0.8449
 9641SOL     OW29821   2.275   1.574   5.339  0.2785 -0.2286 -0.2232
 9641SOL    HW129822   2.201   1.507   5.349  0.4907 -0.2813  1.2107
 9641SOL    HW229823   2.361   1.533   5.367  1.1183 -0.5316 -2.9316
 9642SOL     OW29824   2.938   6.166   2.630 -0.0092 -0.2005  0.3750
 9642SOL    HW129825   2.915   6.183   2.534  2.6087  2.3014  0.0861
 9642SOL    HW229826   2.899   6.238   2.687  1.4279  0.3470  0.6981
 9643SOL     OW29827   4.757   5.152   3.899  0.6955  0.1866  0.1233
 9643SOL    HW129828   4.699   5.169   3.820  1.7393 -0.2793 -0.7688
 9643SOL    HW229829   4.725   5.069   3.947  1.6464 -1.1057 -1.3875
 9644SOL     OW29830   4.985   2.306   1.918  0.7353 -0.5261 -0.4011
 9644SOL    HW129831   4.912   2.357   1.871  1.8095  0.6248 -0.8552
 9644SOL    HW229832   4.943   2.237   1.977 -0.7352  0.2759 -0.4488
 9645SOL     OW29833   6.316   4.357   4.979 -0.1456 -0.0709 -0.2426
 9645SOL    HW129834   6.282   4.333   5.070  0.0016 -1.5297 -0.5592
 9645SOL    HW229835   6.322   4.275   4.922  0.8738  0.6425 -1.2068
 9646SOL     OW29836   2.525   4.883   3.520 -0.0297  0.8581 -0.4646
 9646SOL    HW129837   2.457   4.861   3.589 -1.2024  1.2038 -1.4670
 9646SOL    HW229838   2.586   4.804   3.507 -0.7868  0.2115 -0.1636
 9647SOL     OW29839   1.576   1.175   1.888  0.1416  0.3484  0.1759
 9647SOL    HW129840   1.590   1.143   1.981  1.4562  1.8170  0.5148
 9647SOL    HW229841   1.503   1.121   1.845  1.5611 -2.4539  0.9923
 9648SOL     OW29842   3.277   5.433   0.482  0.4168  0.0328 -0.1311
 9648SOL    HW129843   3.319   5.456   0.394  3.9066  2.1704  1.8822
 9648SOL    HW229844   3.290   5.508   0.546 -4.5408 -0.1808  1.5823
 9649SOL     OW29845   1.356   5.871   2.315  0.0964  0.4565 -0.4671
 9649SOL    HW129846   1.425   5.943   2.318  0.4301  0.1427 -0.6168
 9649SOL    HW229847   1.321   5.863   2.221 -0.4729  0.9193 -0.3060
 9650SOL     OW29848   3.609   6.058   3.081  0.3645 -0.1910 -0.2890
 9650SOL    HW129849   3.632   6.081   3.175  0.6500  0.1741 -0.4432
 9650SOL    HW229850   3.683   6.088   3.020 -0.9817  2.0772 -0.9342
 9651SOL     OW29851   4.849   1.209   2.006 -0.0771  0.0980  0.1750
 9651SOL    HW129852   4.877   1.115   1.984 -0.7259 -0.5862  2.0597
 9651SOL    HW229853   4.828   1.215   2.104 -1.2748  1.9030 -0.1495
 9652SOL     OW29854   1.738   2.926   2.168  0.3693 -0.8787  0.2774
 9652SOL    HW129855   1.790   3.002   2.208 -1.1473 -0.4157  1.4721
 9652SOL    HW229856   1.798   2.873   2.109  1.2646  1.7803 -1.3886
 9653SOL     OW29857   6.801   5.584   0.354  0.3871 -0.2201  0.7045
 9653SOL    HW129858   6.870   5.617   0.290  0.6878 -1.6828  0.2544
 9653SOL    HW229859   6.843   5.524   0.421 -0.2644 -0.2556  1.0893
 9654SOL     OW29860   4.676   0.675   6.761  0.4153 -0.4283  0.0685
 9654SOL    HW129861   4.605   0.632   6.817 -0.2645 -0.0883 -0.5190
 9654SOL    HW229862   4.673   0.637   6.669 -0.1859  0.8349 -0.4620
 9655SOL     OW29863   6.575   1.000   3.906 -0.0460 -0.2734 -0.3238
 9655SOL    HW129864   6.562   1.056   3.988  2.4918  0.1655 -0.1143
 9655SOL    HW229865   6.494   1.005   3.848 -0.7285  1.8788  0.7137
 9656SOL     OW29866   5.817   2.123   1.303 -0.3579 -0.0096  0.1411
 9656SOL    HW129867   5.907   2.092   1.334 -0.1806  1.0053  0.6683
 9656SOL    HW229868   5.751   2.114   1.378 -0.2605  1.0375  0.3689
 9657SOL     OW29869   1.307   1.184   3.981 -0.0677 -0.0040 -0.1514
 9657SOL    HW129870   1.384   1.208   4.040 -0.7046  0.6288  0.4297
 9657SOL    HW229871   1.341   1.164   3.889  0.8157  0.0111  0.1633
 9658SOL     OW29872   3.304   6.770   2.353  0.1395 -0.0225 -0.2371
 9658SOL    HW129873   3.388   6.726   2.385  0.3657  0.6508  0.1131
 9658SOL    HW229874   3.227   6.707   2.367  0.4105 -0.1932  0.5451
 9659SOL     OW29875   0.127   0.520   6.996 -0.2575 -0.0141 -0.3829
 9659SOL    HW129876   0.057   0.496   7.063  0.3889 -0.5308  0.1225
 9659SOL    HW229877   0.101   0.486   6.906 -1.1821  0.7748 -0.4311
 9660SOL     OW29878   6.751   3.819   0.427 -0.0456 -0.3892  0.1143
 9660SOL    HW129879   6.662   3.796   0.464 -0.6392  0.0865 -0.9573
 9660SOL    HW229880   6.782   3.906   0.466 -0.0490 -0.5466  0.4727
 9661SOL     OW29881   5.023   2.856   1.648  0.4319 -0.3791 -0.3610
 9661SOL    HW129882   4.989   2.876   1.740  1.0144  0.3148 -0.2926
 9661SOL    HW229883   4.946   2.857   1.584  0.4077  2.3601 -0.4104
 9662SOL     OW29884   2.544   6.384   1.975 -0.2038  0.0313 -0.4648
 9662SOL    HW129885   2.597   6.305   2.007 -0.1334  0.3837  0.3166
 9662SOL    HW229886   2.572   6.407   1.882  1.1126  0.2703 -0.0318
 9663SOL     OW29887   1.816   2.171   6.372 -0.1635 -0.4562  0.1466
 9663SOL    HW129888   1.912   2.197   6.362 -0.5518  0.9012 -0.1939
 9663SOL    HW229889   1.790   2.111   6.296 -0.2394  1.2235 -1.2231
 9664SOL     OW29890   5.450   3.368   3.657 -0.6702 -0.1188 -0.0481
 9664SOL    HW129891   5.457   3.467   3.647  0.4348 -0.0703  0.8684
 9664SOL    HW229892   5.368   3.335   3.612 -0.5083  1.0773 -1.2870
 9665SOL     OW29893   4.096   4.464   1.521  0.0946  0.1275 -0.2815
 9665SOL    HW129894   4.022   4.506   1.574 -0.1381  0.8649 -1.1705
 9665SOL    HW229895   4.178   4.458   1.578 -0.5063 -0.2926  0.5740
 9666SOL     OW29896   0.948   2.460   4.887  0.1462  0.2340  0.3524
 9666SOL    HW129897   1.031   2.484   4.837 -0.7891  0.6089 -1.0706
 9666SOL    HW229898   0.901   2.544   4.915 -1.7486  0.1698 -2.2927
 9667SOL     OW29899   3.057   6.993   4.137  0.1208  0.2373  0.0375
 9667SOL    HW129900   2.970   7.042   4.140  0.3089  0.5648  0.1621
 9667SOL    HW229901   3.043   6.898   4.165 -0.8466 -0.6677 -3.1006
 9668SOL     OW29902   1.768   4.745   0.966  0.1708 -0.5370  0.2739
 9668SOL    HW129903   1.705   4.703   1.032 -1.9245 -1.4814 -2.1665
 9668SOL    HW229904   1.756   4.702   0.877  1.1400  2.2893 -1.3492
 9669SOL     OW29905   3.146   1.356   0.754  0.1370 -0.4622 -0.3106
 9669SOL    HW129906   3.062   1.346   0.700 -0.0777 -0.3980  0.0100
 9669SOL    HW229907   3.124   1.398   0.842  0.3143 -1.5599  0.2726
 9670SOL     OW29908   1.367   0.543   3.644  1.1358  0.3493  0.0720
 9670SOL    HW129909   1.417   0.629   3.654 -0.5962  1.2450  1.3922
 9670SOL    HW229910   1.292   0.555   3.578 -2.1834  1.4315  3.7116
 9671SOL     OW29911   0.526   2.119   3.375 -0.0692 -0.0260 -0.3098
 9671SOL    HW129912   0.503   2.147   3.282  1.4681  0.0927 -0.6923
 9671SOL    HW229913   0.462   2.048   3.406 -2.2766  1.8269 -0.3988
 9672SOL     OW29914   1.854   5.101   6.059  0.3668  0.2655  0.0084
 9672SOL    HW129915   1.852   5.058   5.968 -3.0241 -1.9667  0.9466
 9672SOL    HW229916   1.921   5.055   6.116 -1.5400 -2.4387  0.2583
 9673SOL     OW29917   1.276   0.785   0.309 -0.7104  0.3975  0.3517
 9673SOL    HW129918   1.290   0.884   0.303 -0.9377  0.3640 -1.4094
 9673SOL    HW229919   1.178   0.765   0.315 -0.7263  0.2762 -0.1993
 9674SOL     OW29920   6.736   6.798   1.748 -0.0255  0.7085  0.3335
 9674SOL    HW129921   6.737   6.820   1.846  0.8859  1.4245  0.1804
 9674SOL    HW229922   6.642   6.779   1.719 -0.3594  0.8866  1.2561
 9675SOL     OW29923   6.578   1.447   3.704  0.3271 -0.3418 -0.7093
 9675SOL    HW129924   6.509   1.381   3.733 -1.3815  1.3711 -0.6237
 9675SOL    HW229925   6.668   1.418   3.736 -0.7996 -0.9571  2.2055
 9676SOL     OW29926   3.082   6.591   2.399 -0.2664  0.6273  0.2899
 9676SOL    HW129927   3.035   6.572   2.313 -0.2490  0.9410  0.2075
 9676SOL    HW229928   3.014   6.607   2.471 -0.2844 -0.7640  0.6035
 9677SOL     OW29929   6.322   3.415   4.249 -0.3301 -0.2860  0.4766
 9677SOL    HW129930   6.390   3.351   4.213 -0.7895 -0.5452  0.0548
 9677SOL    HW229931   6.358   3.508   4.245 -0.4392 -0.2940 -0.8175
 9678SOL     OW29932   3.269   3.255   4.100  0.6250  0.2296 -0.6754
 9678SOL    HW129933   3.291   3.158   4.083  0.8088 -0.1192  1.3758
 9678SOL    HW229934   3.265   3.272   4.198 -1.2842  1.8949 -0.9746
 9679SOL     OW29935   0.335   1.068   1.071  0.1143 -0.0437 -0.5105
 9679SOL    HW129936   0.290   1.010   1.003 -0.6198  0.2304 -0.2711
 9679SOL    HW229937   0.392   1.136   1.025 -0.3502  0.1167 -0.8590
 9680SOL     OW29938   6.309   5.630   5.537 -0.3605  0.1219  0.1905
 9680SOL    HW129939   6.242   5.638   5.610  0.5321 -0.1996  1.0572
 9680SOL    HW229940   6.400   5.615   5.576 -0.1057 -1.7588 -1.0170
 9681SOL     OW29941   1.087   4.403   6.494 -0.2378 -0.1908 -0.1281
 9681SOL    HW129942   1.112   4.312   6.462  0.4701 -0.1713  0.3612
 9681SOL    HW229943   1.164   4.466   6.481 -1.5105  1.0177 -2.9144
 9682SOL     OW29944   5.602   2.558   4.594  0.8131  0.2493  0.8257
 9682SOL    HW129945   5.530   2.514   4.647 -0.1629  0.8597  0.0444
 9682SOL    HW229946   5.634   2.496   4.522  1.1394 -0.0515  1.2240
 9683SOL     OW29947   3.636   0.672   4.133  0.3255 -0.0677 -0.8919
 9683SOL    HW129948   3.553   0.632   4.173 -0.4637  0.4247 -1.9988
 9683SOL    HW229949   3.699   0.695   4.206 -1.1222  0.8988  0.1177
 9684SOL     OW29950   2.497   5.035   2.512  0.4977  0.1142 -0.1699
 9684SOL    HW129951   2.574   5.017   2.451  0.2672 -0.4531 -0.3039
 9684SOL    HW229952   2.504   5.127   2.548  2.5773 -0.6898  1.7251
 9685SOL     OW29953   2.526   5.282   4.090  0.0214 -0.5319  0.4498
 9685SOL    HW129954   2.531   5.239   4.000  1.0104  1.3272 -0.4463
 9685SOL    HW229955   2.518   5.211   4.161 -0.2100 -2.0556 -1.0414
 9686SOL     OW29956   2.361   6.762   5.813 -0.4040 -0.7516  0.4845
 9686SOL    HW129957   2.284   6.781   5.873 -0.5653 -1.4504  0.5135
 9686SOL    HW229958   2.369   6.663   5.799  0.1954 -0.6582  0.0988
 9687SOL     OW29959   2.208   5.969   2.829 -0.3088 -0.0740 -0.5767
 9687SOL    HW129960   2.238   5.874   2.826 -0.4386 -0.1349 -0.1282
 9687SOL    HW229961   2.204   6.007   2.737 -0.0938 -0.4532 -0.7409
 9688SOL     OW29962   0.211   0.022   5.347 -0.0616 -0.4084 -0.1223
 9688SOL    HW129963   0.216  -0.062   5.292 -2.0578 -0.6815  0.0541
 9688SOL    HW229964   0.289   0.024   5.410  1.4756 -0.8054 -1.8932
 9689SOL     OW29965   0.625   1.932   1.457  0.0186  0.5955 -0.2770
 9689SOL    HW129966   0.600   2.015   1.508 -0.0598  0.8503 -0.7254
 9689SOL    HW229967   0.686   1.957   1.382  0.5768  0.1471  0.0160
 9690SOL     OW29968   3.261   0.197   5.570  0.2194 -0.7942  0.0964
 9690SOL    HW129969   3.242   0.295   5.562 -1.4406 -1.1553 -0.8835
 9690SOL    HW229970   3.327   0.170   5.500  0.9777 -0.3374  0.6110
 9691SOL     OW29971   4.095   3.738   1.478  0.1736  0.7443 -0.0287
 9691SOL    HW129972   4.147   3.823   1.465  2.1248 -0.6319 -2.0593
 9691SOL    HW229973   4.079   3.696   1.388 -1.5869 -0.5764  0.8585
 9692SOL     OW29974   6.399   2.524   0.089  0.4695 -0.4689 -0.2625
 9692SOL    HW129975   6.447   2.449   0.135 -2.2634 -0.7569  2.3831
 9692SOL    HW229976   6.421   2.610   0.134  1.7451  0.0443 -1.7867
 9693SOL     OW29977   1.099   1.398   5.205  0.5451 -0.4225 -0.2098
 9693SOL    HW129978   1.172   1.461   5.180 -0.7896  1.1110 -0.3761
 9693SOL    HW229979   1.045   1.374   5.125 -1.2688  1.2914  0.4341
 9694SOL     OW29980   0.807   3.536   3.092  0.6618  0.1781  0.9195
 9694SOL    HW129981   0.854   3.522   3.179  0.8315  2.4863  1.2636
 9694SOL    HW229982   0.718   3.492   3.094 -0.4308  2.2620  3.2912
 9695SOL     OW29983   1.111   6.390   6.902  0.0931 -0.0819  0.0114
 9695SOL    HW129984   1.119   6.318   6.971 -0.6559 -0.6495 -0.4706
 9695SOL    HW229985   1.070   6.472   6.943  1.9049  0.4703  0.8176
 9696SOL     OW29986   6.765   4.607   3.640 -0.1887 -0.4286  0.0392
 9696SOL    HW129987   6.704   4.642   3.711  1.6519  1.4127  0.8236
 9696SOL    HW229988   6.858   4.599   3.677  0.4949 -1.0901 -1.6961
 9697SOL     OW29989   5.361   5.738   2.773  0.6953 -0.4309 -0.0598
 9697SOL    HW129990   5.273   5.776   2.745  1.7847  1.4119 -1.1544
 9697SOL    HW229991   5.409   5.804   2.829  1.9987 -0.8073 -0.7037
 9698SOL     OW29992   0.633   3.024   2.704  0.3554  0.7072 -0.4510
 9698SOL    HW129993   0.696   3.097   2.731 -0.2737  0.8101  0.7862
 9698SOL    HW229994   0.678   2.964   2.638  0.7115  2.5015 -1.9104
 9699SOL     OW29995   0.992   4.101   0.100  0.6077 -0.0325 -0.6121
 9699SOL    HW129996   1.066   4.139   0.044  2.3165 -0.2255  1.3656
 9699SOL    HW229997   0.921   4.171   0.113 -0.2394 -0.2156 -3.5186
 9700SOL     OW29998   1.725   0.390   5.410 -0.3013 -0.1563 -0.2083
 9700SOL    HW129999   1.749   0.431   5.322 -0.7047 -2.2220 -1.3423
 9700SOL    HW230000   1.742   0.455   5.483  2.2509  0.8437 -1.5889
 9701SOL     OW30001   3.453   3.892   6.986  0.3168  0.2595  0.5438
 9701SOL    HW130002   3.371   3.858   6.940  0.6394  0.6565 -0.3441
 9701SOL    HW230003   3.457   3.991   6.980  2.1944  0.1220 -1.8145
 9702SOL     OW30004   6.712   6.719   0.540  0.3938  0.2131 -0.3672
 9702SOL    HW130005   6.759   6.800   0.504  2.3299 -1.4450 -1.7615
 9702SOL    HW230006   6.614   6.726   0.520  0.8023  1.3017 -2.2559
 9703SOL     OW30007   4.862   0.301   1.038  0.2955  0.1080  0.2617
 9703SOL    HW130008   4.841   0.216   1.086  3.1654  0.6543  2.7896
 9703SOL    HW230009   4.945   0.289   0.984  0.7696  1.2708  0.7021
 9704SOL     OW30010   6.942   5.438   2.062 -0.0754  0.2423  0.3305
 9704SOL    HW130011   6.854   5.409   2.024 -0.4482  2.5296 -0.7160
 9704SOL    HW230012   6.935   5.445   2.161 -0.6218 -0.9419  0.3950
 9705SOL     OW30013   6.912   1.074   4.068 -0.1648  0.4242 -0.6639
 9705SOL    HW130014   6.908   0.975   4.054  2.1060  0.1786  0.1242
 9705SOL    HW230015   6.955   1.117   3.989 -0.4578  0.7158 -0.6681
 9706SOL     OW30016   4.493   0.174   2.779 -0.6550 -0.0861  0.0349
 9706SOL    HW130017   4.586   0.146   2.760 -1.1951 -0.1337 -3.0047
 9706SOL    HW230018   4.442   0.097   2.818 -0.2178 -1.0580 -1.2523
 9707SOL     OW30019   3.003   3.758   5.800 -0.4168 -0.2858 -0.2455
 9707SOL    HW130020   2.912   3.735   5.834 -0.4712  0.1529 -0.0912
 9707SOL    HW230021   3.065   3.770   5.878 -0.3833  0.0651 -0.3254
 9708SOL     OW30022   1.315   1.085   2.865 -0.1304  0.5217 -0.1627
 9708SOL    HW130023   1.279   1.044   2.949  0.0571 -0.4865 -0.5570
 9708SOL    HW230024   1.395   1.033   2.834 -0.5690  0.4830 -1.2997
 9709SOL     OW30025   1.438   1.031   5.540 -0.6136  0.1899  0.1231
 9709SOL    HW130026   1.484   1.104   5.592  1.7316 -2.3753  1.9595
 9709SOL    HW230027   1.359   0.998   5.592  0.5668 -1.0413  1.2121
 9710SOL     OW30028   3.223   0.994   4.922 -0.2135 -0.0373 -0.0977
 9710SOL    HW130029   3.322   0.996   4.904  0.0987  0.8901  1.5749
 9710SOL    HW230030   3.174   1.027   4.841  0.9706  1.5053 -0.2229
 9711SOL     OW30031   5.703   3.793   3.265 -0.7695  0.2680 -0.3936
 9711SOL    HW130032   5.677   3.697   3.271  0.2653 -0.2381 -2.8022
 9711SOL    HW230033   5.657   3.845   3.338  0.1970 -2.3154  2.2530
 9712SOL     OW30034   6.504   2.563   5.228  0.3164 -0.2623 -0.4439
 9712SOL    HW130035   6.528   2.659   5.217  1.0668 -0.4113 -0.1768
 9712SOL    HW230036   6.557   2.524   5.303 -0.7635 -0.6205  0.1517
 9713SOL     OW30037   0.053   4.787   0.005  0.1677 -0.1091 -0.2642
 9713SOL    HW130038   0.024   4.834   0.088  1.8774  1.7934 -0.6441
 9713SOL    HW230039   0.150   4.808  -0.013 -0.3219  0.1388 -3.0790
 9714SOL     OW30040   4.915   1.356   5.850  0.0696  0.4052 -0.0644
 9714SOL    HW130041   4.836   1.302   5.822  0.4284 -0.3824  0.4212
 9714SOL    HW230042   4.893   1.406   5.934 -0.6230  1.8880 -1.0700
 9715SOL     OW30043   6.555   6.249   5.111  0.4280  0.2172  0.3156
 9715SOL    HW130044   6.531   6.152   5.116  1.8610 -0.5130 -3.4908
 9715SOL    HW230045   6.644   6.259   5.067  0.3223  3.3046  0.6012
 9716SOL     OW30046   6.289   1.227   2.361  0.4217  0.2507  0.4143
 9716SOL    HW130047   6.249   1.289   2.293  2.6334  1.3348  0.0041
 9716SOL    HW230048   6.297   1.135   2.322  1.0329  0.7079 -0.5752
 9717SOL     OW30049   4.014   0.611   3.794 -0.6272 -0.3633  0.3485
 9717SOL    HW130050   4.097   0.637   3.744  0.4412 -1.5870  1.4144
 9717SOL    HW230051   4.020   0.514   3.819 -2.4082 -0.4762  0.4219
 9718SOL     OW30052   6.832   0.163   0.852 -0.5127  0.4026 -0.3062
 9718SOL    HW130053   6.909   0.211   0.894  0.4127 -0.4618 -0.9667
 9718SOL    HW230054   6.752   0.170   0.912  0.4555  0.1483  1.0613
 9719SOL     OW30055   6.876   6.953   1.429  0.5868  0.0663  0.0964
 9719SOL    HW130056   6.965   6.973   1.389  0.3286  1.1197  0.0183
 9719SOL    HW230057   6.883   6.873   1.489  1.3578 -0.4572 -0.6780
 9720SOL     OW30058   4.022   2.461   6.894 -0.4639 -0.2094  0.4106
 9720SOL    HW130059   4.022   2.383   6.956 -0.5985 -1.7425 -1.4224
 9720SOL    HW230060   4.116   2.491   6.877 -0.2011 -1.4978 -0.6210
 9721SOL     OW30061   1.141   1.182   6.084  0.5656  0.1243  0.4427
 9721SOL    HW130062   1.182   1.249   6.022  1.2595 -0.6534  0.0449
 9721SOL    HW230063   1.042   1.197   6.088  0.5921  0.5656 -0.3934
 9722SOL     OW30064   4.761   4.759   5.741 -0.3167 -0.1321  0.0838
 9722SOL    HW130065   4.789   4.837   5.686 -0.6563  1.1648  1.6647
 9722SOL    HW230066   4.702   4.699   5.687  1.7207 -0.5088 -1.8667
 9723SOL     OW30067   2.502   4.267   5.588 -0.4461  0.0663 -0.2470
 9723SOL    HW130068   2.521   4.256   5.491  0.1176  2.0513 -0.4009
 9723SOL    HW230069   2.582   4.241   5.641 -0.2831  0.2627 -0.3970
 9724SOL     OW30070   2.727   6.140   2.037  0.0577 -0.3690 -0.0940
 9724SOL    HW130071   2.816   6.173   2.004  0.6919 -0.6443  1.2660
 9724SOL    HW230072   2.741   6.065   2.102 -1.1843 -0.5522 -0.0087
 9725SOL     OW30073   2.469   2.279   6.186 -0.2168  0.6707  0.6379
 9725SOL    HW130074   2.526   2.211   6.138 -0.3699  0.4330  0.7884
 9725SOL    HW230075   2.505   2.293   6.278 -0.7138  0.1167  0.9231
 9726SOL     OW30076   2.345   1.801   0.794 -0.1941  0.3445 -0.4727
 9726SOL    HW130077   2.374   1.870   0.860 -0.0912  0.9181 -1.0936
 9726SOL    HW230078   2.258   1.761   0.822  1.1589 -1.4585  1.4742
 9727SOL     OW30079   4.989   2.655   2.016 -0.4624  0.2331 -0.3294
 9727SOL    HW130080   4.983   2.729   1.950  2.1838  2.2984  1.5589
 9727SOL    HW230081   5.084   2.626   2.025 -1.0109 -1.2189  1.2910
 9728SOL     OW30082   6.286   0.914   1.356 -0.0860  0.6188 -0.0000
 9728SOL    HW130083   6.232   0.998   1.345  0.0413  0.6403 -0.5162
 9728SOL    HW230084   6.243   0.855   1.424 -0.0637  1.1917  0.5159
 9729SOL     OW30085   1.440   3.126   3.905  0.4692  0.0557 -0.0437
 9729SOL    HW130086   1.444   3.097   3.810  1.3270  0.0728 -0.0202
 9729SOL    HW230087   1.495   3.065   3.962 -0.7411 -0.4794  0.5882
 9730SOL     OW30088   3.970   1.171   6.445  0.7560 -0.7520  0.3756
 9730SOL    HW130089   3.970   1.180   6.544 -2.7230 -4.2599  0.9298
 9730SOL    HW230090   3.890   1.217   6.407 -0.1519 -2.6976 -0.2233
 9731SOL     OW30091   6.829   4.390   6.548 -0.6489 -0.3144 -0.2942
 9731SOL    HW130092   6.871   4.471   6.589  1.1812 -0.9664 -0.7842
 9731SOL    HW230093   6.880   4.364   6.466 -1.4008 -1.7810 -0.3306
 9732SOL     OW30094   0.602   6.081   4.520 -0.4135  0.2777 -0.0168
 9732SOL    HW130095   0.601   6.066   4.422  0.5101 -1.9434  0.2573
 9732SOL    HW230096   0.692   6.113   4.548 -0.1210 -0.7791  0.2937
 9733SOL     OW30097   2.162   2.274   1.610 -0.0674 -0.2713 -0.1791
 9733SOL    HW130098   2.254   2.265   1.649 -1.2240  1.6202  3.3936
 9733SOL    HW230099   2.127   2.183   1.587  1.8898 -1.2069  0.2732
 9734SOL     OW30100   5.773   5.368   1.276 -0.0782  0.5421  0.5919
 9734SOL    HW130101   5.683   5.359   1.232  0.4283  0.3535 -0.4429
 9734SOL    HW230102   5.819   5.279   1.276 -0.2967  0.4062  2.0612
 9735SOL     OW30103   3.256   6.447   3.061  0.3632 -0.6872 -0.7185
 9735SOL    HW130104   3.253   6.348   3.072 -0.7520 -0.7148 -1.1789
 9735SOL    HW230105   3.164   6.484   3.063  0.8524  0.6196  1.6266
 9736SOL     OW30106   2.792   4.540   5.971  0.3832 -0.6333  0.3731
 9736SOL    HW130107   2.873   4.504   6.018  0.2810  0.5154  1.5041
 9736SOL    HW230108   2.717   4.475   5.979  1.0574 -1.5206 -0.3159
 9737SOL     OW30109   5.301   1.995   3.320 -0.1241  0.2825  0.0660
 9737SOL    HW130110   5.278   1.922   3.256  0.5040  0.4090 -0.3165
 9737SOL    HW230111   5.300   1.959   3.414  2.5692 -0.9176 -0.2444
 9738SOL     OW30112   0.452   2.892   6.414 -0.8719 -0.5065 -0.4875
 9738SOL    HW130113   0.374   2.918   6.472 -0.7672 -0.4461 -0.3736
 9738SOL    HW230114   0.419   2.867   6.323 -1.2907 -2.6677  0.1993
 9739SOL     OW30115   4.013   0.703   0.657  0.1032 -0.1787  0.3352
 9739SOL    HW130116   4.042   0.676   0.749 -0.6911 -1.7149  0.1525
 9739SOL    HW230117   4.094   0.711   0.598  0.4267 -1.6671  0.5433
 9740SOL     OW30118   5.441   0.854   0.310 -0.5016  0.0609 -0.0541
 9740SOL    HW130119   5.418   0.951   0.322  1.5169  0.9177 -2.3226
 9740SOL    HW230120   5.377   0.812   0.246 -0.5607  0.2484 -0.1167
 9741SOL     OW30121   6.424   1.405   3.992  0.1802 -0.0928  0.1213
 9741SOL    HW130122   6.488   1.473   3.959  0.1891 -0.5609 -0.8587
 9741SOL    HW230123   6.441   1.387   4.089 -1.1751  2.8086  0.9950
 9742SOL     OW30124   1.096   0.830   3.358 -0.3038 -0.1603 -0.2985
 9742SOL    HW130125   1.101   0.883   3.273  2.8586 -2.3893 -1.7109
 9742SOL    HW230126   1.074   0.735   3.337 -0.6926 -0.5161  1.5602
 9743SOL     OW30127   0.462   1.966   0.554  0.3586 -0.3477  0.0306
 9743SOL    HW130128   0.455   2.018   0.468 -0.5909 -0.1078  0.2480
 9743SOL    HW230129   0.422   1.876   0.542  0.6264 -0.4791  0.1029
 9744SOL     OW30130   4.509   5.417   0.051 -0.7069 -0.6237  0.4171
 9744SOL    HW130131   4.483   5.472   0.130  0.1379  2.1664 -1.1138
 9744SOL    HW230132   4.541   5.327   0.082 -1.8886 -0.2192  3.0649
 9745SOL     OW30133   5.124   0.038   1.751  0.1093  0.1365  0.0128
 9745SOL    HW130134   5.026   0.026   1.769 -0.4399  0.7888 -2.1791
 9745SOL    HW230135   5.152  -0.025   1.678  1.3578 -0.0845  0.6540
 9746SOL     OW30136   4.581   6.746   6.034  0.2164 -0.2287 -0.0720
 9746SOL    HW130137   4.589   6.845   6.037 -1.4854  0.0509 -2.2018
 9746SOL    HW230138   4.660   6.708   5.986  0.1681  0.2661 -0.5601
 9747SOL     OW30139   0.459   6.227   3.091 -0.1204 -0.0945 -0.0790
 9747SOL    HW130140   0.409   6.307   3.124  1.7877  0.6530  1.2118
 9747SOL    HW230141   0.463   6.158   3.163 -1.4706 -1.2783 -1.0729
 9748SOL     OW30142   4.824   2.513   1.692 -0.4524 -0.1181  0.7259
 9748SOL    HW130143   4.746   2.477   1.640 -0.6497  2.9088 -1.3270
 9748SOL    HW230144   4.795   2.531   1.786 -2.2595  0.8578  0.0374
 9749SOL     OW30145   0.938   0.982   2.593  0.6004  0.4724 -0.6739
 9749SOL    HW130146   0.956   1.079   2.613  1.2038  0.5665 -1.6004
 9749SOL    HW230147   0.925   0.971   2.494 -1.4279 -0.0912 -0.3886
 9750SOL     OW30148   2.997   7.009   0.508 -0.7961 -0.3692  0.0247
 9750SOL    HW130149   2.929   7.074   0.474 -0.4923  0.0714  0.2480
 9750SOL    HW230150   3.042   6.964   0.430  1.2854  2.0493 -0.3055
 9751SOL     OW30151   6.691   2.657   3.655 -0.0861 -0.5096 -0.2814
 9751SOL    HW130152   6.720   2.658   3.559  1.4321 -1.4712  0.1243
 9751SOL    HW230153   6.747   2.721   3.707  0.3231 -1.2896  0.2600
 9752SOL     OW30154   5.450   0.879   5.776 -0.2421 -0.0457  0.2153
 9752SOL    HW130155   5.463   0.800   5.836  0.9952  0.1396  0.2267
 9752SOL    HW230156   5.472   0.962   5.827  2.4461  0.0171 -0.8701
 9753SOL     OW30157   4.166   1.718   5.190 -0.0952  0.1851 -0.2985
 9753SOL    HW130158   4.079   1.677   5.219  0.1319  0.4350  0.7519
 9753SOL    HW230159   4.162   1.817   5.205  0.9402  0.0194  1.2794
 9754SOL     OW30160   6.112   4.764   5.749 -0.1303 -0.2598  0.0125
 9754SOL    HW130161   6.163   4.726   5.827 -0.5033  0.0946  0.4315
 9754SOL    HW230162   6.097   4.692   5.682 -1.4095 -1.0656  1.0995
 9755SOL     OW30163   2.604   1.875   3.046 -0.4310 -0.0793  0.4133
 9755SOL    HW130164   2.655   1.931   3.112 -2.4551  1.1761  1.0164
 9755SOL    HW230165   2.665   1.809   3.004  1.3830  0.4749  2.0341
 9756SOL     OW30166   3.558   6.426   1.782  0.3178  0.2911  0.3811
 9756SOL    HW130167   3.461   6.444   1.803  0.2987 -0.1681  0.6989
 9756SOL    HW230168   3.570   6.420   1.683  0.1946  1.3117  0.2929
 9757SOL     OW30169   6.497   0.984   1.695  0.4314 -0.0347  0.4271
 9757SOL    HW130170   6.487   0.895   1.740  0.8400  0.2870  1.1741
 9757SOL    HW230171   6.513   0.970   1.598  1.3412 -0.8188  0.6726
 9758SOL     OW30172   5.077   6.514   6.410  0.2447  0.7464 -0.3197
 9758SOL    HW130173   5.001   6.557   6.361 -0.8056  0.0768  0.6897
 9758SOL    HW230174   5.102   6.571   6.489 -0.1435  0.2677  0.1516
 9759SOL     OW30175   0.000   1.171   2.928  0.2786  0.2113 -0.3505
 9759SOL    HW130176  -0.030   1.184   3.022 -1.8245  0.8335 -1.0621
 9759SOL    HW230177  -0.078   1.179   2.866  1.7525  0.7134 -2.2419
 9760SOL     OW30178   1.397   6.040   3.333  0.0394 -0.2095 -0.4736
 9760SOL    HW130179   1.354   5.959   3.371 -0.8608 -0.0161 -1.0675
 9760SOL    HW230180   1.486   6.054   3.377 -0.1015 -1.1178  0.1181
 9761SOL     OW30181   1.958   2.265   2.439  0.1516 -0.3181 -0.2516
 9761SOL    HW130182   1.918   2.354   2.460 -0.7032 -0.6421 -0.4562
 9761SOL    HW230183   2.002   2.228   2.520  1.2055  0.6402 -0.3742
 9762SOL     OW30184   5.967   0.326   1.615 -0.0458  1.1078  0.1890
 9762SOL    HW130185   6.044   0.272   1.580  1.1691  1.6518  1.8379
 9762SOL    HW230186   5.884   0.304   1.565  0.9266 -0.4539 -0.8120
 9763SOL     OW30187   5.950   1.167   3.629  0.1732 -0.3511 -0.0162
 9763SOL    HW130188   5.952   1.109   3.548 -0.9135  1.2346 -1.2273
 9763SOL    HW230189   5.964   1.262   3.603  0.6931  0.0979  1.7785
 9764SOL     OW30190   0.562   2.432   2.916 -0.1375 -1.0649 -0.0022
 9764SOL    HW130191   0.496   2.464   2.849  1.3451 -0.2331 -1.1267
 9764SOL    HW230192   0.595   2.341   2.891 -0.0368 -1.0122 -0.0615
 9765SOL     OW30193   0.997   6.964   2.242 -0.1465  0.8130 -0.0993
 9765SOL    HW130194   0.906   6.959   2.283  0.5692  1.7546  1.7129
 9765SOL    HW230195   0.988   6.978   2.143 -1.9551  0.4257 -0.0252
 9766SOL     OW30196   6.779   5.972   6.858 -0.4197  0.0849  0.1621
 9766SOL    HW130197   6.747   6.054   6.904 -2.1419 -0.8864  0.7761
 9766SOL    HW230198   6.710   5.941   6.792  0.7149 -0.2249 -0.9241
 9767SOL     OW30199   6.095   0.472   4.586 -0.0066  0.5678 -0.9036
 9767SOL    HW130200   6.078   0.522   4.671 -0.6777  0.0807 -0.7503
 9767SOL    HW230201   6.041   0.513   4.513 -0.7175 -0.0538 -0.7341
 9768SOL     OW30202   5.689   1.578   6.048  0.0283 -0.0093 -0.6076
 9768SOL    HW130203   5.617   1.531   5.997 -1.3722 -0.7730  1.8893
 9768SOL    HW230204   5.729   1.515   6.116  1.5390  1.0442 -0.4580
 9769SOL     OW30205   5.246   0.364   3.512  0.4919 -0.2085  0.1403
 9769SOL    HW130206   5.238   0.440   3.448 -0.9477  0.8923  1.5157
 9769SOL    HW230207   5.154   0.333   3.537  1.0428 -1.4566  0.6794
 9770SOL     OW30208   1.626   6.615   3.346  0.2605 -0.2474 -0.2577
 9770SOL    HW130209   1.603   6.621   3.443  0.1307 -0.2026 -0.2902
 9770SOL    HW230210   1.557   6.665   3.293  0.1923 -0.4797 -0.3908
 9771SOL     OW30211   5.323   3.976   0.084  0.0264 -0.0380 -0.1269
 9771SOL    HW130212   5.389   3.913   0.042 -1.4583 -1.4515 -0.4346
 9771SOL    HW230213   5.253   4.000   0.017  0.7801  2.3363 -0.1378
 9772SOL     OW30214   0.957   6.843   4.243  0.0421  0.2993 -0.1865
 9772SOL    HW130215   0.997   6.866   4.154  0.7499  0.5910  0.1966
 9772SOL    HW230216   1.030   6.831   4.310 -0.5025  0.4827  0.4487
 9773SOL     OW30217   6.555   4.397   0.285  0.1991  0.7338  0.0486
 9773SOL    HW130218   6.649   4.404   0.251  0.7209  0.2117  1.3092
 9773SOL    HW230219   6.525   4.486   0.320  0.3101  0.8539 -0.1641
 9774SOL     OW30220   5.118   4.349   2.976 -0.5221  0.0381  0.4305
 9774SOL    HW130221   5.211   4.371   2.946 -1.1079  0.9627 -0.8128
 9774SOL    HW230222   5.109   4.366   3.074  0.7714 -0.6343  0.6794
 9775SOL     OW30223   2.948   2.813   0.160  0.2680 -0.3870 -0.1983
 9775SOL    HW130224   2.863   2.842   0.203  0.1261 -0.4927 -0.4045
 9775SOL    HW230225   2.927   2.758   0.079  0.5171  0.9499 -1.1952
 9776SOL     OW30226   3.202   5.217   5.011  0.0458  0.4593 -0.5987
 9776SOL    HW130227   3.228   5.121   4.997 -0.2218  0.1241  1.0750
 9776SOL    HW230228   3.284   5.270   5.032  0.0066  0.2983 -0.0197
 9777SOL     OW30229   6.320   2.305   2.467 -0.3048 -0.6611 -0.1238
 9777SOL    HW130230   6.303   2.344   2.557 -0.9529 -2.5880  0.6274
 9777SOL    HW230231   6.419   2.292   2.454 -0.1305  0.5765 -0.1373
 9778SOL     OW30232   6.654   5.667   4.263 -0.7111  0.1118  0.3263
 9778SOL    HW130233   6.662   5.567   4.267  2.0371  0.2715  0.8001
 9778SOL    HW230234   6.663   5.697   4.169  1.7183  0.0278  0.4717
 9779SOL     OW30235   5.012   2.668   5.979 -0.0204  0.0737 -0.1032
 9779SOL    HW130236   5.052   2.740   5.923  0.4217  0.5646  0.8275
 9779SOL    HW230237   4.966   2.709   6.058 -1.3479 -0.5560 -0.5168
 9780SOL     OW30238   6.599   3.904   3.573 -0.3760  0.2838  0.3451
 9780SOL    HW130239   6.584   3.813   3.613  3.5301 -0.5838  0.2954
 9780SOL    HW230240   6.579   3.974   3.642 -1.6757 -0.6945  1.0052
 9781SOL     OW30241   3.575   1.122   4.674  0.5873  0.3050  0.4219
 9781SOL    HW130242   3.668   1.156   4.690  0.5637 -0.5270  2.5026
 9781SOL    HW230243   3.578   1.045   4.611  1.3389  0.1180  0.6810
 9782SOL     OW30244   2.140   1.159   4.708 -0.0603  0.4075 -0.0395
 9782SOL    HW130245   2.057   1.103   4.700 -0.5636  1.2160 -0.7740
 9782SOL    HW230246   2.145   1.198   4.800 -0.2354 -0.0223  0.1575
 9783SOL     OW30247   5.768   5.202   0.273 -0.3180 -0.6086 -0.0989
 9783SOL    HW130248   5.796   5.286   0.225 -0.8600  0.2707  1.0555
 9783SOL    HW230249   5.848   5.145   0.291  0.1819  0.0568 -0.1677
 9784SOL     OW30250   2.930   6.678   6.965  0.3363 -0.6485  0.7582
 9784SOL    HW130251   2.834   6.705   6.951  1.3175  2.2019 -1.3474
 9784SOL    HW230252   2.951   6.600   6.907 -0.0690  0.4121 -0.8818
 9785SOL     OW30253   1.189   2.185   1.420  0.3957 -0.0060  0.0917
 9785SOL    HW130254   1.268   2.124   1.412  1.3125  1.0338  0.8805
 9785SOL    HW230255   1.126   2.168   1.345 -1.8799 -5.3664  2.6554
 9786SOL     OW30256   0.322   0.630   2.372  0.0232  0.1462 -0.0197
 9786SOL    HW130257   0.250   0.655   2.307  0.2548 -0.2562 -0.4380
 9786SOL    HW230258   0.288   0.643   2.465 -0.5033  0.2129 -0.2150
 9787SOL     OW30259   5.897   1.224   1.603  0.0113  0.2655 -0.0995
 9787SOL    HW130260   5.901   1.190   1.697 -1.2175  3.8273  1.4131
 9787SOL    HW230261   5.802   1.238   1.577  0.3794  0.0349 -1.6397
 9788SOL     OW30262   3.970   4.938   4.960 -0.1299  0.0438  0.3537
 9788SOL    HW130263   4.008   4.846   4.951  3.6804  1.5160 -0.4380
 9788SOL    HW230264   3.988   4.973   5.052 -1.3493  0.1194  0.5776
 9789SOL     OW30265   4.844   2.369   1.096 -0.1162 -0.5192 -0.2490
 9789SOL    HW130266   4.877   2.280   1.064  1.8134  0.4316 -1.0732
 9789SOL    HW230267   4.793   2.414   1.023  1.1673  0.1300 -0.7637
 9790SOL     OW30268   3.488   4.862   2.542  0.9339 -0.2571 -0.1120
 9790SOL    HW130269   3.544   4.812   2.476 -0.4899 -1.1755 -0.6644
 9790SOL    HW230270   3.453   4.946   2.499  2.1518  0.5250  0.3591
 9791SOL     OW30271   4.901   3.754   2.530 -0.1889  0.0372 -0.6544
 9791SOL    HW130272   4.926   3.817   2.603  1.8948  0.4325 -1.6318
 9791SOL    HW230273   4.898   3.660   2.566  0.5446  0.2571 -0.0003
 9792SOL     OW30274   3.157   6.519   4.119  0.4565 -0.7768  0.0043
 9792SOL    HW130275   3.127   6.557   4.032 -1.1105 -2.0497 -0.0490
 9792SOL    HW230276   3.255   6.537   4.131  0.7730 -0.7894 -2.1276
 9793SOL     OW30277   5.233   2.967   1.160  0.8231  0.4344 -0.4235
 9793SOL    HW130278   5.139   2.939   1.182  1.0164  0.2405  0.1708
 9793SOL    HW230279   5.234   3.011   1.070  0.0273  1.1769 -0.0819
 9794SOL     OW30280   0.834   4.012   1.954 -0.2515 -0.0672  0.1748
 9794SOL    HW130281   0.838   4.099   1.904  0.7648 -0.2306 -0.0461
 9794SOL    HW230282   0.924   3.969   1.953 -0.2328 -0.1424  2.0679
 9795SOL     OW30283   1.347   6.809   5.161 -0.5266  0.5227  0.1601
 9795SOL    HW130284   1.443   6.804   5.132  0.1074  1.6412  1.8780
 9795SOL    HW230285   1.300   6.879   5.107 -0.1853  0.4784 -0.1991
 9796SOL     OW30286   0.583   6.813   1.672 -0.7169  0.0834 -0.4150
 9796SOL    HW130287   0.553   6.750   1.601  1.8529 -1.4775 -0.2369
 9796SOL    HW230288   0.641   6.884   1.632  0.2655 -0.4665 -0.0107
 9797SOL     OW30289   6.434   4.771   3.232  0.3523  0.0212 -0.2973
 9797SOL    HW130290   6.366   4.722   3.178  0.8700 -0.0508 -0.8938
 9797SOL    HW230291   6.511   4.710   3.251  1.5180  0.8947 -1.9854
 9798SOL     OW30292   5.839   6.384   5.893 -0.2384  0.0853 -0.3582
 9798SOL    HW130293   5.910   6.386   5.963 -0.4407  0.0994 -0.1511
 9798SOL    HW230294   5.809   6.290   5.879  0.3150 -0.0108 -0.9522
 9799SOL     OW30295   5.751   5.048   0.682  0.2688 -0.1381  0.2338
 9799SOL    HW130296   5.701   5.056   0.596  2.0364  1.4966 -0.7188
 9799SOL    HW230297   5.755   5.137   0.727 -0.0473 -0.8328  1.6960
 9800SOL     OW30298   3.110   1.628   0.098  0.3326  0.2140 -0.0222
 9800SOL    HW130299   3.037   1.572   0.135  0.4737 -0.5297 -0.8547
 9800SOL    HW230300   3.094   1.644   0.000 -0.4848  2.8472  0.4549
 9801SOL     OW30301   6.373   5.950   4.062 -0.3560  0.0647 -0.2277
 9801SOL    HW130302   6.451   5.979   4.008  0.3066 -0.0233  0.6555
 9801SOL    HW230303   6.403   5.931   4.156 -1.6534  1.3045  0.4777
 9802SOL     OW30304   3.748   6.834   0.567 -0.4616  0.2751 -0.1004
 9802SOL    HW130305   3.792   6.923   0.555 -0.6733  0.2858 -0.9101
 9802SOL    HW230306   3.650   6.842   0.545 -0.1981 -0.4566 -1.6676
 9803SOL     OW30307   3.111   2.941   5.665 -0.5515 -0.0585  0.5139
 9803SOL    HW130308   3.019   2.951   5.625  0.0901 -1.2047 -1.3704
 9803SOL    HW230309   3.104   2.896   5.754 -1.7437 -1.3242 -0.1810
 9804SOL     OW30310   3.799   6.056   6.676 -0.1154 -0.4810 -0.3099
 9804SOL    HW130311   3.714   6.091   6.638 -1.3431 -2.0836  0.8079
 9804SOL    HW230312   3.793   5.956   6.686  0.6246 -0.3448  2.6889
 9805SOL     OW30313   6.653   1.814   1.110  0.0847 -0.0443  0.0091
 9805SOL    HW130314   6.740   1.861   1.125 -0.0878 -0.2377  1.8486
 9805SOL    HW230315   6.593   1.828   1.188 -1.1614 -0.7714 -0.7746
 9806SOL     OW30316   5.654   1.960   6.830 -0.7353 -0.4055 -0.2803
 9806SOL    HW130317   5.663   1.888   6.898  2.2704 -0.2572 -0.3817
 9806SOL    HW230318   5.628   1.920   6.742  1.4669 -1.5512 -0.4854
 9807SOL     OW30319   1.465   3.477   4.908  0.0994 -0.2271 -0.3001
 9807SOL    HW130320   1.417   3.390   4.898  1.4464 -0.9503 -0.7888
 9807SOL    HW230321   1.521   3.493   4.827  1.2942  0.1792  0.5802
 9808SOL     OW30322   5.381   3.718   6.141 -0.5586 -0.1953  0.5241
 9808SOL    HW130323   5.468   3.694   6.183 -0.5728  0.5556  1.0013
 9808SOL    HW230324   5.333   3.784   6.200 -1.3043 -0.3640  0.1155
 9809SOL     OW30325   4.408   7.000   3.526  0.8762  0.1610  0.0923
 9809SOL    HW130326   4.372   6.945   3.450  0.0202 -0.2329  0.7747
 9809SOL    HW230327   4.349   7.079   3.541  1.0906  0.2840  0.3016
 9810SOL     OW30328   1.666   0.231   5.945 -0.1875  0.2510 -0.0815
 9810SOL    HW130329   1.726   0.171   5.892 -3.1980 -2.4678 -0.7257
 9810SOL    HW230330   1.683   0.218   6.043  1.5784  1.0861 -0.2437
 9811SOL     OW30331   0.173   1.051   3.883  0.6215 -0.1283 -0.1494
 9811SOL    HW130332   0.187   1.001   3.968  3.2509 -0.7641 -0.8655
 9811SOL    HW230333   0.187   1.149   3.898  2.2070 -0.3491 -0.0141
 9812SOL     OW30334   4.546   0.136   6.918  0.9965 -0.3568  0.1078
 9812SOL    HW130335   4.451   0.117   6.943  0.5617  1.4675 -0.0398
 9812SOL    HW230336   4.605   0.123   6.998  0.1412  1.7173  1.1417
 9813SOL     OW30337   6.953   1.579   0.501  0.4746  0.5106  0.4679
 9813SOL    HW130338   6.855   1.589   0.519  0.4193  2.1618 -0.5349
 9813SOL    HW230339   6.987   1.497   0.547 -1.3027  0.0737  1.0913
 9814SOL     OW30340   6.268   0.550   6.416  0.4161  0.0258 -0.0599
 9814SOL    HW130341   6.338   0.515   6.479 -1.0817 -0.9135  1.1627
 9814SOL    HW230342   6.248   0.481   6.347  1.8970  0.9718 -1.5049
 9815SOL     OW30343   4.336   1.101   5.195 -0.1520 -0.0792 -0.4971
 9815SOL    HW130344   4.293   1.031   5.252  0.6688  0.1169  0.4061
 9815SOL    HW230345   4.284   1.186   5.200  0.2822  0.1453  0.5525
 9816SOL     OW30346   5.823   0.699   6.627  0.8016  0.2151 -0.4884
 9816SOL    HW130347   5.757   0.628   6.602  0.2827  0.6738 -0.4404
 9816SOL    HW230348   5.875   0.726   6.546  1.9302 -1.1488 -0.2500
 9817SOL     OW30349   6.788   2.337   5.617 -0.2297  0.0246 -0.5370
 9817SOL    HW130350   6.814   2.408   5.683 -1.0740  0.7917 -1.0141
 9817SOL    HW230351   6.860   2.329   5.547 -0.1516  0.4442 -0.5082
 9818SOL     OW30352   1.224   0.970   3.103 -0.4204  0.0154 -0.2078
 9818SOL    HW130353   1.132   0.997   3.075 -0.8247  1.6817  2.3813
 9818SOL    HW230354   1.245   1.010   3.192  2.7764 -0.4548 -0.6233
 9819SOL     OW30355   6.134   0.796   1.557  0.2955  0.1303  0.5568
 9819SOL    HW130356   6.066   0.724   1.566 -0.3651  0.7440  0.6183
 9819SOL    HW230357   6.136   0.850   1.641 -0.4333  1.2098 -0.0924
 9820SOL     OW30358   4.164   0.937   3.837  0.0806  0.4278  0.1537
 9820SOL    HW130359   4.201   0.844   3.829  3.5099  1.5514  1.1557
 9820SOL    HW230360   4.164   0.980   3.747 -1.0123 -0.3380 -0.2270
 9821SOL     OW30361   6.933   0.209   1.203  0.1067 -0.4402 -0.2683
 9821SOL    HW130362   6.939   0.308   1.208  0.7690 -0.4769 -0.2451
 9821SOL    HW230363   6.838   0.180   1.218 -0.2583  0.2369 -1.1412
 9822SOL     OW30364   0.971   3.399   0.869  0.0977  0.6557  0.1795
 9822SOL    HW130365   0.871   3.398   0.870  0.0617  0.5108 -1.1104
 9822SOL    HW230366   1.005   3.491   0.889 -0.3451  1.0251 -0.7181
 9823SOL     OW30367   6.470   2.823   5.914 -0.3884 -0.0451 -0.0751
 9823SOL    HW130368   6.518   2.787   5.834 -1.1701 -2.9820  0.6599
 9823SOL    HW230369   6.373   2.835   5.893 -0.4191  0.0785  0.1310
 9824SOL     OW30370   0.254   6.665   3.867  0.1960 -0.2225 -0.6828
 9824SOL    HW130371   0.350   6.638   3.854  0.6213 -1.5467  3.6361
 9824SOL    HW230372   0.195   6.587   3.846  0.2544 -0.1209 -1.2277
 9825SOL     OW30373   4.227   3.948   1.475 -0.4999 -0.2300  0.0873
 9825SOL    HW130374   4.220   4.006   1.393 -1.3816 -0.0870  0.2565
 9825SOL    HW230375   4.295   3.987   1.537 -2.0897  1.4847  0.8598
 9826SOL     OW30376   2.745   3.701   5.900  0.1107  0.6724  0.3430
 9826SOL    HW130377   2.745   3.771   5.972 -0.9995  1.3646 -0.3124
 9826SOL    HW230378   2.700   3.619   5.935 -1.6918  1.4804  0.0319
 9827SOL     OW30379   4.700   5.716   1.788  0.3381 -0.4284 -0.3945
 9827SOL    HW130380   4.757   5.788   1.828  0.8228 -1.0169 -0.0075
 9827SOL    HW230381   4.720   5.708   1.690  0.1501  0.0764 -0.4801
 9828SOL     OW30382   5.604   4.290   6.775 -0.3474 -0.1521 -0.0366
 9828SOL    HW130383   5.640   4.381   6.759  2.0182 -1.3679 -2.4487
 9828SOL    HW230384   5.588   4.277   6.873  0.0252  2.5235  0.4486
 9829SOL     OW30385   6.490   3.709   6.910  0.4143 -0.2915  0.0652
 9829SOL    HW130386   6.575   3.695   6.859  0.1288 -1.2441 -0.1795
 9829SOL    HW230387   6.510   3.748   6.999  0.8918  1.8814 -0.9408
 9830SOL     OW30388   1.805   6.311   5.933 -0.5809  0.0890 -0.6060
 9830SOL    HW130389   1.816   6.327   6.031 -0.9310 -0.1864 -0.5161
 9830SOL    HW230390   1.819   6.214   5.914 -3.0998 -0.3896 -0.4126
 9831SOL     OW30391   3.796   2.137   2.266  0.0910  0.2822  0.7877
 9831SOL    HW130392   3.757   2.196   2.336 -1.9776 -0.7625  0.6108
 9831SOL    HW230393   3.785   2.179   2.176  0.0507  0.3048  0.8035
 9832SOL     OW30394   6.497   6.061   0.697 -0.7704 -0.3374  0.0379
 9832SOL    HW130395   6.554   6.070   0.615  0.0079 -0.2956  0.5778
 9832SOL    HW230396   6.544   6.101   0.775 -0.9201 -1.5722  0.7824
 9833SOL     OW30397   2.826   2.063   5.111  0.2242 -0.3547  0.8301
 9833SOL    HW130398   2.755   2.126   5.077  0.7392  0.6651  1.6039
 9833SOL    HW230399   2.831   1.984   5.050 -1.8470 -0.6581  0.9555
 9834SOL     OW30400   2.995   5.662   2.481  0.6619  0.1837 -0.5060
 9834SOL    HW130401   2.986   5.746   2.428 -0.3600 -0.9683 -2.2457
 9834SOL    HW230402   3.084   5.620   2.464 -0.3110 -1.1179 -2.8894
 9835SOL     OW30403   4.307   4.687   4.717 -0.2792 -0.3511 -0.1964
 9835SOL    HW130404   4.237   4.732   4.662  0.3373  1.5481  0.4801
 9835SOL    HW230405   4.280   4.688   4.813  0.6064  0.3256  0.0591
 9836SOL     OW30406   0.548   5.894   5.526 -0.2348  0.1814 -0.1249
 9836SOL    HW130407   0.585   5.834   5.455  0.9289  1.4992 -0.6859
 9836SOL    HW230408   0.535   5.843   5.610  1.1385 -0.7581 -0.4573
 9837SOL     OW30409   0.819   2.311   3.123  0.1472 -0.3147 -0.2823
 9837SOL    HW130410   0.876   2.393   3.114  1.2097 -0.8187  1.4255
 9837SOL    HW230411   0.876   2.232   3.144 -0.9777 -1.2942 -0.7928
 9838SOL     OW30412   2.221   5.347   2.504  0.5413 -0.3820  0.4771
 9838SOL    HW130413   2.218   5.363   2.602  1.4577 -0.0802  0.4587
 9838SOL    HW230414   2.190   5.429   2.456 -1.3186 -0.9970  0.5156
 9839SOL     OW30415   1.382   0.022   0.534 -0.2735 -0.6243 -0.4609
 9839SOL    HW130416   1.341  -0.029   0.459 -0.5860 -0.6934 -0.2449
 9839SOL    HW230417   1.467   0.064   0.503 -0.2992 -0.8159 -0.7963
 9840SOL     OW30418   0.782   0.279   0.606 -0.7724  0.0774 -0.6294
 9840SOL    HW130419   0.865   0.237   0.571 -1.4785 -2.3136  0.3369
 9840SOL    HW230420   0.705   0.255   0.547 -0.7499  2.8655 -1.9264
 9841SOL     OW30421   5.168   3.763   1.181  0.0950 -0.8875 -0.1965
 9841SOL    HW130422   5.245   3.739   1.241  0.7190 -2.0464 -1.3786
 9841SOL    HW230423   5.126   3.679   1.146 -0.2269 -0.2632 -1.3840
 9842SOL     OW30424   5.746   2.811   4.043 -0.5932  0.1166  0.3760
 9842SOL    HW130425   5.798   2.854   3.969 -0.9105 -1.3613 -0.7464
 9842SOL    HW230426   5.648   2.826   4.027 -0.6816 -0.5596  0.2520
 9843SOL     OW30427   1.191   5.763   3.997  0.1091 -0.3032 -0.2012
 9843SOL    HW130428   1.285   5.797   4.009  0.2476 -0.6124 -0.4018
 9843SOL    HW230429   1.187   5.704   3.917  0.1681 -1.8299  0.8877
 9844SOL     OW30430   1.829   2.898   6.870 -0.6514  0.3413  0.1814
 9844SOL    HW130431   1.882   2.971   6.914 -0.1747  0.1755 -0.1030
 9844SOL    HW230432   1.842   2.813   6.920 -1.4446  0.5167  0.6835
 9845SOL     OW30433   6.963   0.409   5.468  0.2651  0.8537 -0.1398
 9845SOL    HW130434   6.952   0.371   5.377  0.2785 -1.0003  0.5979
 9845SOL    HW230435   7.053   0.385   5.504 -0.3960  0.0485  1.0298
 9846SOL     OW30436   0.458   3.678   4.960  0.1737 -0.2278  0.1384
 9846SOL    HW130437   0.553   3.697   4.938  0.0491  0.2669  0.0258
 9846SOL    HW230438   0.410   3.763   4.982 -0.4102 -0.3898 -0.4639
 9847SOL     OW30439   4.222   1.655   0.907  0.4132  0.9030  0.2938
 9847SOL    HW130440   4.251   1.560   0.900  0.8295  0.9126  1.6880
 9847SOL    HW230441   4.128   1.665   0.874  0.1006 -0.1214  0.8687
 9848SOL     OW30442   0.887   0.167   1.772 -0.1657 -0.9447 -0.0037
 9848SOL    HW130443   0.898   0.262   1.743 -0.4499 -0.2455  2.0289
 9848SOL    HW230444   0.850   0.113   1.696 -0.2079  0.6043 -1.1299
 9849SOL     OW30445   4.371   6.229   4.438  0.0066  0.1079 -0.6870
 9849SOL    HW130446   4.351   6.164   4.511  1.6289  0.7474  0.3693
 9849SOL    HW230447   4.326   6.199   4.354 -1.0891 -1.1734  0.3070
 9850SOL     OW30448   3.102   6.572   1.442 -0.4079 -0.2062  0.1080
 9850SOL    HW130449   3.132   6.521   1.523  0.3541 -1.5795 -0.9903
 9850SOL    HW230450   3.162   6.650   1.427  1.2604 -1.5880 -0.7236
 9851SOL     OW30451   6.976   0.369   1.913 -0.1495  1.0803 -0.2604
 9851SOL    HW130452   6.950   0.276   1.939 -1.3844  0.4491 -3.3157
 9851SOL    HW230453   7.070   0.387   1.942 -0.1509 -0.8121  1.0680
 9852SOL     OW30454   6.346   2.112   1.806  0.0959 -0.7377 -0.0379
 9852SOL    HW130455   6.352   2.211   1.794  1.0803 -0.5407  1.6649
 9852SOL    HW230456   6.251   2.083   1.797  0.0397  0.0085 -2.7063
 9853SOL     OW30457   3.155   1.508   1.625  0.8358  0.1894 -0.0578
 9853SOL    HW130458   3.175   1.587   1.684  0.3729  0.6415 -0.4955
 9853SOL    HW230459   3.074   1.528   1.570 -0.2376 -1.2079  0.9593
 9854SOL     OW30460   0.699   3.337   0.154  0.4591 -0.4298  0.0753
 9854SOL    HW130461   0.656   3.357   0.066  2.0640  1.2720 -0.3684
 9854SOL    HW230462   0.671   3.404   0.222  1.7229  0.1996 -0.0025
 9855SOL     OW30463   5.514   6.812   4.809  0.0464 -0.2997 -0.1463
 9855SOL    HW130464   5.534   6.785   4.714 -0.0446 -0.5961 -0.0824
 9855SOL    HW230465   5.516   6.731   4.867  0.8559 -0.0109  0.2366
 9856SOL     OW30466   3.544   5.752   1.075  0.2204 -0.0347 -0.1370
 9856SOL    HW130467   3.561   5.775   1.171 -0.9132  0.1992  0.0248
 9856SOL    HW230468   3.446   5.756   1.057  0.1270 -2.8232 -0.6098
 9857SOL     OW30469   5.203   0.358   2.571 -0.2632  0.3885  0.1397
 9857SOL    HW130470   5.231   0.348   2.667 -1.4039 -0.0510  0.4412
 9857SOL    HW230471   5.181   0.268   2.533  0.4587  0.5257 -0.6379
 9858SOL     OW30472   4.220   6.091   3.283  0.3209  0.3823  0.5766
 9858SOL    HW130473   4.253   6.053   3.369  0.9285 -1.3775 -0.3853
 9858SOL    HW230474   4.268   6.047   3.206 -1.7456  0.3018 -0.7464
 9859SOL     OW30475   4.941   1.170   5.295  0.1301 -0.1447 -0.3545
 9859SOL    HW130476   4.999   1.247   5.267  0.0216  0.0472 -0.0621
 9859SOL    HW230477   4.853   1.175   5.247 -0.7656  1.2261  1.3397
 9860SOL     OW30478   3.762   4.025   5.923  0.4121  0.3494 -0.0862
 9860SOL    HW130479   3.682   3.967   5.908  0.1407  1.0880 -1.7690
 9860SOL    HW230480   3.837   3.970   5.959 -0.2234 -0.7798 -0.4350
 9861SOL     OW30481   1.249   5.724   6.398  0.5796 -0.3494  0.4329
 9861SOL    HW130482   1.254   5.760   6.492  0.7976 -0.1002  0.3262
 9861SOL    HW230483   1.305   5.781   6.338 -1.0009  0.6121 -0.1900
 9862SOL     OW30484   5.942   3.976   3.974  0.0605 -0.0719  1.0399
 9862SOL    HW130485   5.933   4.063   3.926 -1.3905 -0.0009  1.3942
 9862SOL    HW230486   5.970   3.905   3.909  0.3555  0.4699  0.5652
 9863SOL     OW30487   3.567   4.681   0.280  0.4078  0.1683  0.3565
 9863SOL    HW130488   3.488   4.620   0.279 -0.6758  1.5378  0.8567
 9863SOL    HW230489   3.618   4.671   0.194 -1.4836  0.7568 -0.8833
 9864SOL     OW30490   1.405   0.346   0.141  0.3929  0.2582 -0.1352
 9864SOL    HW130491   1.442   0.271   0.086  0.6220 -0.3312  0.7954
 9864SOL    HW230492   1.470   0.423   0.141  0.6465  0.0449 -0.2373
 9865SOL     OW30493   0.387   5.456   4.981 -1.0008  0.2349 -0.1069
 9865SOL    HW130494   0.327   5.468   5.060 -1.1491  0.9682 -0.3200
 9865SOL    HW230495   0.361   5.521   4.910 -0.7859 -0.3303 -0.7108
 9866SOL     OW30496   6.161   0.435   5.774 -0.2243  0.9714 -0.1541
 9866SOL    HW130497   6.089   0.402   5.834  0.3811 -0.9747 -0.4114
 9866SOL    HW230498   6.217   0.358   5.744  0.5468  2.1158 -1.8265
 9867SOL     OW30499   1.163   2.536   4.114  0.9279  0.5792  0.3096
 9867SOL    HW130500   1.122   2.505   4.028 -0.2574 -1.3647  1.4954
 9867SOL    HW230501   1.124   2.624   4.139 -0.3322  0.1686 -0.1159
 9868SOL     OW30502   2.053   6.265   1.647 -0.4157 -0.0663  0.3391
 9868SOL    HW130503   2.119   6.304   1.711  0.0786  0.0988 -0.2622
 9868SOL    HW230504   1.974   6.326   1.639 -0.8171 -0.4390  1.3332
 9869SOL     OW30505   1.195   5.217   2.138 -0.0408 -0.5682  0.2007
 9869SOL    HW130506   1.220   5.158   2.061 -0.2447  0.1463 -0.4355
 9869SOL    HW230507   1.258   5.295   2.141  0.7846 -1.2671  1.5787
 9870SOL     OW30508   0.778   1.410   5.339  0.1414 -0.3076 -0.3602
 9870SOL    HW130509   0.759   1.495   5.388 -0.2048  1.2799 -3.0878
 9870SOL    HW230510   0.693   1.375   5.299  0.3020 -1.9225  0.6162
 9871SOL     OW30511   5.840   6.022   1.641  0.4728 -0.0267 -0.2280
 9871SOL    HW130512   5.808   5.942   1.590 -1.9685 -0.0218  1.1517
 9871SOL    HW230513   5.787   6.103   1.615  1.4244  0.6748 -0.0390
 9872SOL     OW30514   6.578   2.261   6.874  0.2534  0.4135  0.3639
 9872SOL    HW130515   6.487   2.225   6.890  0.4436 -0.3585 -0.2299
 9872SOL    HW230516   6.647   2.195   6.902  0.6164  0.5693 -0.1210
 9873SOL     OW30517   2.238   3.537   1.159  0.5436  0.2180 -0.3679
 9873SOL    HW130518   2.210   3.444   1.135  0.2995 -0.1364  1.1867
 9873SOL    HW230519   2.269   3.584   1.076 -0.8432 -0.6889 -1.4651
 9874SOL     OW30520   0.597   0.046   6.306  0.0709  0.1223  0.0289
 9874SOL    HW130521   0.587   0.043   6.405  0.9621  1.5536  0.1943
 9874SOL    HW230522   0.508   0.059   6.263 -0.2072  0.4610  0.7050
 9875SOL     OW30523   5.521   6.755   1.709 -0.0157  0.1119 -0.1101
 9875SOL    HW130524   5.569   6.830   1.755  2.0439 -0.8225 -0.6416
 9875SOL    HW230525   5.483   6.693   1.777 -1.0415  1.1740  0.3237
 9876SOL     OW30526   3.744   6.764   5.687  0.0296  0.1185  0.0146
 9876SOL    HW130527   3.675   6.738   5.754 -1.9990  0.4890 -1.8323
 9876SOL    HW230528   3.742   6.863   5.675 -0.2636 -0.0281 -1.2267
 9877SOL     OW30529   5.525   4.665   5.548  0.1765  0.0352 -0.2538
 9877SOL    HW130530   5.539   4.627   5.457  1.7715 -0.1878  0.0492
 9877SOL    HW230531   5.614   4.686   5.590 -0.4605 -0.7292  1.6047
 9878SOL     OW30532   5.429   3.165   6.179  0.1401 -0.3509 -0.7099
 9878SOL    HW130533   5.394   3.082   6.222 -1.8381  0.1777 -1.1921
 9878SOL    HW230534   5.395   3.245   6.230  0.8918  0.1971 -1.0507
 9879SOL     OW30535   3.738   4.212   0.982  0.1122  0.1520  0.2182
 9879SOL    HW130536   3.753   4.134   0.921 -0.7299 -0.2540  0.5042
 9879SOL    HW230537   3.663   4.190   1.045 -2.4690  2.4076 -1.8065
 9880SOL     OW30538   5.673   6.530   4.357 -0.0706  0.2282  1.0911
 9880SOL    HW130539   5.639   6.583   4.278 -0.0356 -0.1221  0.8404
 9880SOL    HW230540   5.596   6.498   4.410 -0.1253 -0.2673  0.7178
 9881SOL     OW30541   1.379   0.952   6.625 -0.6219  0.5576  0.7267
 9881SOL    HW130542   1.290   0.922   6.591 -1.1168  0.3820  2.0799
 9881SOL    HW230543   1.442   0.875   6.628 -0.3793  0.7080 -0.3477
 9882SOL     OW30544   3.034   2.134   1.489 -0.3643 -0.5006 -0.2158
 9882SOL    HW130545   3.035   2.200   1.565 -2.3039  1.2351 -1.6000
 9882SOL    HW230546   2.942   2.098   1.477  0.0907 -1.3685 -1.2655
 9883SOL     OW30547   5.214   5.294   3.263 -0.4753 -0.4388 -0.1351
 9883SOL    HW130548   5.278   5.263   3.192 -0.2198 -0.3718  0.0647
 9883SOL    HW230549   5.131   5.239   3.258 -0.6763 -0.0867 -0.8333
 9884SOL     OW30550   4.627   1.551   4.015  0.5245 -0.2170 -0.6335
 9884SOL    HW130551   4.529   1.569   4.013  0.6360  0.3487 -1.7990
 9884SOL    HW230552   4.643   1.452   4.021 -0.1193 -0.3503 -1.0781
 9885SOL     OW30553   5.480   1.359   2.268 -0.3263 -0.1472  0.4021
 9885SOL    HW130554   5.537   1.398   2.340  0.9298 -0.4684 -0.4031
 9885SOL    HW230555   5.430   1.281   2.305  1.2618 -1.0967  0.6295
 9886SOL     OW30556   1.365   6.472   5.663 -0.2395 -0.2939 -0.0547
 9886SOL    HW130557   1.279   6.489   5.711 -0.6413 -0.8962 -0.5327
 9886SOL    HW230558   1.403   6.559   5.631  0.6326  0.2477  2.2803
 9887SOL     OW30559   1.857   5.160   0.851 -0.7240  0.1787  0.6496
 9887SOL    HW130560   1.819   5.219   0.922 -0.1084 -0.2857  1.3917
 9887SOL    HW230561   1.937   5.112   0.888 -0.4193 -0.1055 -0.3532
 9888SOL     OW30562   0.551   1.275   0.192 -0.4740 -0.0866 -0.3050
 9888SOL    HW130563   0.613   1.197   0.190 -2.5806 -1.9101  0.5525
 9888SOL    HW230564   0.535   1.303   0.287  2.0533  3.0671 -0.6218
 9889SOL     OW30565   0.276   0.095   3.402 -0.4076 -0.0801 -0.4565
 9889SOL    HW130566   0.198   0.155   3.389  0.1224  0.6233 -0.4564
 9889SOL    HW230567   0.305   0.096   3.497  0.4178  0.7076 -0.7012
 9890SOL     OW30568   5.770   6.326   5.498  0.3533 -0.3185  0.0007
 9890SOL    HW130569   5.699   6.302   5.564 -0.5863 -0.9447 -1.1857
 9890SOL    HW230570   5.848   6.265   5.510  0.8940  0.6455  1.5916
 9891SOL     OW30571   2.193   1.282   6.007 -0.5957 -0.0562 -0.2572
 9891SOL    HW130572   2.211   1.292   6.105  1.4012  0.5003 -0.6407
 9891SOL    HW230573   2.277   1.300   5.955 -1.5846 -0.4274 -2.0802
 9892SOL     OW30574   2.693   2.031   3.245 -0.6574 -0.6696  0.8335
 9892SOL    HW130575   2.781   2.075   3.226 -0.4732 -1.6938 -0.9226
 9892SOL    HW230576   2.620   2.098   3.239 -0.1426 -0.0993  0.8431
 9893SOL     OW30577   0.835   1.187   6.080  0.1476 -0.2298  0.1275
 9893SOL    HW130578   0.754   1.219   6.031  0.4298  0.6670  0.2255
 9893SOL    HW230579   0.815   1.099   6.123 -2.0055  1.5327  3.1467
 9894SOL     OW30580   3.444   5.145   3.050  0.7944  0.2419 -0.6120
 9894SOL    HW130581   3.457   5.118   2.954  0.6917 -0.1072 -0.5285
 9894SOL    HW230582   3.533   5.144   3.097  0.8329  0.3369 -0.6811
 9895SOL     OW30583   4.148   0.986   7.004  0.6336  0.6581  0.4676
 9895SOL    HW130584   4.144   1.072   7.054 -1.4684  1.6895 -1.3024
 9895SOL    HW230585   4.237   0.976   6.961  0.7410  2.2574  0.2607
 9896SOL     OW30586   3.682   3.208   4.116 -0.0740 -0.3735  0.2359
 9896SOL    HW130587   3.615   3.216   4.042  0.9925  1.8207 -0.5829
 9896SOL    HW230588   3.746   3.135   4.094  0.4681  0.4974 -1.2774
 9897SOL     OW30589   3.515   1.206   3.962  0.0627 -0.4614  0.2147
 9897SOL    HW130590   3.610   1.202   3.929  0.0623  0.1909  0.1213
 9897SOL    HW230591   3.479   1.114   3.969  0.4789 -0.6837 -0.4182
 9898SOL     OW30592   3.728   6.646   4.212 -0.0924 -0.5348 -0.1250
 9898SOL    HW130593   3.807   6.612   4.162 -0.1035 -2.5622  1.1431
 9898SOL    HW230594   3.694   6.576   4.274 -0.4865  1.5954  2.2529
 9899SOL     OW30595   5.147   6.057   3.712  0.0763 -0.7724 -0.4386
 9899SOL    HW130596   5.114   5.962   3.709  1.6617 -1.3880  0.4919
 9899SOL    HW230597   5.243   6.060   3.686  0.6552  0.2603  1.6137
 9900SOL     OW30598   2.267   6.859   5.192  0.2664  0.0688  0.1160
 9900SOL    HW130599   2.311   6.941   5.155 -0.0369  0.9832  1.6891
 9900SOL    HW230600   2.196   6.886   5.256  1.0154 -1.4258  1.6447
 9901SOL     OW30601   3.250   6.779   1.204 -0.5154  0.0183 -0.3206
 9901SOL    HW130602   3.167   6.793   1.150  0.0698  1.4318 -0.9164
 9901SOL    HW230603   3.330   6.798   1.147  0.1620  0.1722  0.6570
 9902SOL     OW30604   5.739   1.106   5.150 -1.2735 -0.4097 -0.4236
 9902SOL    HW130605   5.704   1.199   5.140 -1.3935 -0.2469  1.2850
 9902SOL    HW230606   5.758   1.087   5.246 -0.3367 -1.8351 -0.8518
 9903SOL     OW30607   4.793   2.699   0.506  0.1939 -0.0858 -0.3794
 9903SOL    HW130608   4.801   2.667   0.601  0.9606 -1.8804 -1.0024
 9903SOL    HW230609   4.800   2.798   0.504  1.7712 -0.0977  1.3161
 9904SOL     OW30610   4.407   0.568   3.204 -0.0902 -0.6093 -0.1752
 9904SOL    HW130611   4.386   0.476   3.237  0.2750 -0.9626 -0.9034
 9904SOL    HW230612   4.332   0.601   3.147 -0.2160 -0.4590  0.0768
 9905SOL     OW30613   5.145   0.128   6.574 -0.4135 -0.2961 -0.1352
 9905SOL    HW130614   5.120   0.220   6.547  0.8132  0.3784  0.9059
 9905SOL    HW230615   5.245   0.119   6.574 -0.5100 -1.6507 -0.3011
 9906SOL     OW30616   2.513   4.925   2.030  0.2315  0.6186 -0.3934
 9906SOL    HW130617   2.540   4.858   1.960  2.0158  1.5753 -0.6958
 9906SOL    HW230618   2.414   4.923   2.041  0.0089 -0.4317 -2.0654
 9907SOL     OW30619   4.959   6.434   2.317  0.1854 -0.3461  0.5678
 9907SOL    HW130620   4.986   6.496   2.243 -0.2892  0.4855  1.0688
 9907SOL    HW230621   4.860   6.442   2.332  0.2513 -0.6251  1.1877
 9908SOL     OW30622   4.205   2.115   3.598 -0.2268  0.4572  0.9538
 9908SOL    HW130623   4.180   2.091   3.692 -2.1971  0.3848  0.4664
 9908SOL    HW230624   4.126   2.156   3.552  0.4494 -0.2050 -0.9107
 9909SOL     OW30625   0.207   0.302   5.374 -0.4394 -0.3841 -0.5718
 9909SOL    HW130626   0.284   0.331   5.317  0.1116 -2.9118 -1.2677
 9909SOL    HW230627   0.177   0.210   5.345 -1.1470 -1.1223  2.2230
 9910SOL     OW30628   0.637   5.403   3.904 -0.2810 -0.1880 -0.6462
 9910SOL    HW130629   0.664   5.394   4.000 -2.6067 -1.8837 -0.0739
 9910SOL    HW230630   0.551   5.453   3.898 -0.9193 -1.3695 -1.7066
 9911SOL     OW30631   3.305   1.003   1.038  0.5827 -0.2290 -0.1603
 9911SOL    HW130632   3.284   1.038   1.129  1.5524  1.7815 -0.6433
 9911SOL    HW230633   3.228   1.020   0.977 -0.0850 -1.6189  0.2706
 9912SOL     OW30634   3.375   1.266   6.500 -0.1816 -0.1409  0.1837
 9912SOL    HW130635   3.286   1.223   6.482 -0.2643  0.2047 -0.2733
 9912SOL    HW230636   3.448   1.207   6.466 -0.2416 -0.4111  0.5306
 9913SOL     OW30637   0.840   5.167   0.624  0.1257  0.4698  0.5005
 9913SOL    HW130638   0.937   5.144   0.622  0.4655  1.8807  0.1941
 9913SOL    HW230639   0.801   5.153   0.533  0.3059  0.9857  0.3420
 9914SOL     OW30640   2.431   4.394   4.509  0.2231 -0.2710 -0.0129
 9914SOL    HW130641   2.503   4.462   4.495  0.0056 -0.0277  0.0340
 9914SOL    HW230642   2.373   4.422   4.585 -0.5126  0.0450 -0.6700
 9915SOL     OW30643   2.384   0.583   3.080 -0.6750 -0.0350  0.0873
 9915SOL    HW130644   2.440   0.589   3.163 -0.3945 -2.0543  0.0929
 9915SOL    HW230645   2.311   0.651   3.085  1.6158  2.6240  0.1299
 9916SOL     OW30646   4.643   3.963   6.669 -0.0569  0.3572  0.3071
 9916SOL    HW130647   4.695   3.883   6.700 -2.4827 -1.2856  0.4512
 9916SOL    HW230648   4.629   3.957   6.570 -3.4871 -1.6527  0.7440
 9917SOL     OW30649   3.313   6.828   6.372 -0.4703  0.2338 -0.6795
 9917SOL    HW130650   3.263   6.780   6.444 -0.2047  1.4290  0.3349
 9917SOL    HW230651   3.388   6.770   6.339  0.3752  0.2363  1.1076
 9918SOL     OW30652   0.638   4.736   3.959 -0.1327  0.2906  0.0829
 9918SOL    HW130653   0.617   4.644   3.993 -0.0222  1.1367  2.6748
 9918SOL    HW230654   0.736   4.752   3.964 -0.2186  0.7738  0.2969
 9919SOL     OW30655   6.460   5.276   3.745  0.0509 -0.4854 -0.4313
 9919SOL    HW130656   6.474   5.228   3.659  0.9822  1.6660 -1.5768
 9919SOL    HW230657   6.373   5.325   3.742  0.6605  0.6146 -0.7068
 9920SOL     OW30658   0.526   4.247   6.178 -0.1207 -0.7385 -0.3291
 9920SOL    HW130659   0.428   4.232   6.187 -0.1700 -0.1528  0.1869
 9920SOL    HW230660   0.545   4.346   6.181  0.5195 -0.8702 -0.0141
 9921SOL     OW30661   3.860   4.839   3.049  0.0353  0.9748  0.3595
 9921SOL    HW130662   3.924   4.776   3.093 -1.7928 -1.2579 -0.0135
 9921SOL    HW230663   3.787   4.863   3.113 -2.2318 -1.6979 -1.0425
 9922SOL     OW30664   7.010   5.722   4.139 -0.5418  0.1617 -0.2050
 9922SOL    HW130665   6.963   5.634   4.145  0.0942 -0.1538  0.3559
 9922SOL    HW230666   7.089   5.713   4.078  1.0471 -0.4079  1.8068
 9923SOL     OW30667   4.150   4.461   6.381 -0.0147 -0.2462  0.5486
 9923SOL    HW130668   4.162   4.446   6.479  0.4842 -1.3138  0.3344
 9923SOL    HW230669   4.150   4.374   6.333  1.0094  0.3201 -0.5394
 9924SOL     OW30670   1.748   3.118   6.013  0.4765  0.1662  0.4110
 9924SOL    HW130671   1.679   3.191   6.011  0.5209  0.2053  0.2433
 9924SOL    HW230672   1.799   3.119   5.927 -0.2474 -0.7628 -0.0513
 9925SOL     OW30673   1.161   4.314   0.653  0.8075 -0.0302 -0.5037
 9925SOL    HW130674   1.092   4.359   0.597 -0.9713 -0.9302  0.8561
 9925SOL    HW230675   1.165   4.217   0.628  1.5637  0.0098 -0.5478
 9926SOL     OW30676   1.391   0.925   5.982  0.0722 -0.1489  0.4874
 9926SOL    HW130677   1.296   0.920   5.952 -0.1203 -0.6804  1.1605
 9926SOL    HW230678   1.408   0.856   6.052  1.0030 -0.1660  0.2580
 9927SOL     OW30679   3.575   0.725   0.158  0.9126 -0.3158 -0.0018
 9927SOL    HW130680   3.578   0.732   0.258  1.8184 -1.5313  0.0900
 9927SOL    HW230681   3.482   0.738   0.126  0.2031 -2.0290  1.2177
 9928SOL     OW30682   1.329   0.084   0.770  0.1646  0.0174  0.2621
 9928SOL    HW130683   1.360   0.008   0.827  0.4998  0.8600  1.2462
 9928SOL    HW230684   1.335   0.059   0.674 -0.5229 -1.4837  0.5925
 9929SOL     OW30685   2.645   5.217   6.753  0.6626  0.8508  0.3150
 9929SOL    HW130686   2.688   5.250   6.669 -0.2882  0.4119 -0.3646
 9929SOL    HW230687   2.600   5.293   6.799  0.0330  0.8680 -0.2985
 9930SOL     OW30688   2.328   4.989   6.989 -0.1887  0.4720  0.3267
 9930SOL    HW130689   2.415   5.006   7.035 -0.7369  1.8507  0.9187
 9930SOL    HW230690   2.327   5.036   6.900 -0.0487 -0.1783 -0.0248
 9931SOL     OW30691   3.452   0.330   0.489 -0.2044  0.2572  0.4021
 9931SOL    HW130692   3.363   0.330   0.444 -0.1237  0.8763  0.2275
 9931SOL    HW230693   3.456   0.405   0.555 -0.3251 -0.6540  1.4575
 9932SOL     OW30694   2.432   5.804   6.111  0.6032  0.0608  0.1863
 9932SOL    HW130695   2.337   5.804   6.081  1.5245  0.5711 -3.1252
 9932SOL    HW230696   2.446   5.731   6.179 -2.1503  0.1597  0.9592
 9933SOL     OW30697   5.950   6.577   0.531 -0.0978 -0.3831  0.0734
 9933SOL    HW130698   5.915   6.537   0.446 -1.6753 -1.3496  1.1372
 9933SOL    HW230699   6.032   6.527   0.559 -1.2482 -2.0078  0.6426
 9934SOL     OW30700   2.046   1.270   3.533 -0.4379  0.5960 -0.2087
 9934SOL    HW130701   2.096   1.323   3.465  0.5694  0.0957  0.1134
 9934SOL    HW230702   2.093   1.182   3.548 -1.7647 -0.1621 -0.3430
 9935SOL     OW30703   2.582   3.912   5.588 -0.4611  0.0078 -0.4085
 9935SOL    HW130704   2.644   3.988   5.568 -1.4188  1.1924  0.9503
 9935SOL    HW230705   2.507   3.911   5.521 -0.6538  0.5145 -0.2035
 9936SOL     OW30706   4.567   0.162   1.642  0.3221 -0.1182 -0.1909
 9936SOL    HW130707   4.553   0.161   1.741 -4.6570 -1.0821 -0.6119
 9936SOL    HW230708   4.549   0.071   1.605 -1.1240  0.8975 -2.1720
 9937SOL     OW30709   6.275   2.534   6.619 -0.3219  0.4289  0.2300
 9937SOL    HW130710   6.235   2.483   6.695  0.3005  0.9188  0.9048
 9937SOL    HW230711   6.218   2.614   6.599  0.5125  1.3782  1.4909
 9938SOL     OW30712   6.567   1.238   6.344 -0.0760  0.1189  0.2796
 9938SOL    HW130713   6.503   1.208   6.415  0.8560  3.4662  2.8200
 9938SOL    HW230714   6.553   1.335   6.326  1.9980  0.1340 -1.6774
 9939SOL     OW30715   6.416   4.305   4.689 -0.0421 -0.2534  0.5876
 9939SOL    HW130716   6.470   4.353   4.758 -0.4095 -0.1100  0.7781
 9939SOL    HW230717   6.475   4.277   4.614 -0.0947  2.0812 -0.4172
 9940SOL     OW30718   6.393   1.233   1.685  0.2300 -0.0106  0.1193
 9940SOL    HW130719   6.438   1.145   1.696  2.6363  1.1480  0.2287
 9940SOL    HW230720   6.360   1.243   1.591  0.6746 -0.6782 -0.1103
 9941SOL     OW30721   1.094   6.129   4.036  0.5543 -0.0551  0.3922
 9941SOL    HW130722   1.093   6.030   4.045  1.2520 -0.1192 -0.1508
 9941SOL    HW230723   1.002   6.161   4.012  0.3334 -0.5658  0.5448
 9942SOL     OW30724   4.774   1.631   1.378  0.0076 -0.5775 -0.4904
 9942SOL    HW130725   4.706   1.654   1.308  0.0551 -1.1030 -0.7175
 9942SOL    HW230726   4.854   1.691   1.367 -0.5280  0.2289 -0.0413
 9943SOL     OW30727   4.392   6.869   0.605 -0.0349 -0.1657 -0.2347
 9943SOL    HW130728   4.310   6.905   0.561 -0.8683 -0.5654  0.9460
 9943SOL    HW230729   4.388   6.886   0.704  0.9100 -0.9190 -0.0453
 9944SOL     OW30730   0.711   6.179   6.403 -0.6666  0.3051 -0.1044
 9944SOL    HW130731   0.799   6.173   6.355 -0.2237 -2.2348  0.8647
 9944SOL    HW230732   0.637   6.184   6.337  0.0858  0.3850 -0.9681
 9945SOL     OW30733   6.876   1.103   6.654 -0.1768 -0.5980 -0.2661
 9945SOL    HW130734   6.791   1.091   6.706  0.4535 -0.3142  0.8533
 9945SOL    HW230735   6.950   1.128   6.716  0.5049  0.1947 -1.3647
 9946SOL     OW30736   4.966   6.348   6.025  0.1785  0.4090 -0.2042
 9946SOL    HW130737   4.928   6.274   5.970  0.3917 -1.1666  1.6664
 9946SOL    HW230738   4.933   6.341   6.119  1.8335  1.4673  0.5108
 9947SOL     OW30739   3.832   1.405   6.337  0.6350 -0.2047 -0.2260
 9947SOL    HW130740   3.871   1.497   6.343  1.9825 -0.5943 -2.0728
 9947SOL    HW230741   3.732   1.410   6.343  0.7788  1.1651  1.4852
 9948SOL     OW30742   0.524   1.507   3.640 -0.5978  0.6373 -0.3704
 9948SOL    HW130743   0.442   1.558   3.662 -0.2194  0.4032  1.7660
 9948SOL    HW230744   0.604   1.552   3.681  0.5289  1.3473 -3.1036
 9949SOL     OW30745   2.592   4.146   0.918 -0.1817 -0.3618 -0.3389
 9949SOL    HW130746   2.629   4.089   0.991  0.2046 -0.5366 -0.6674
 9949SOL    HW230747   2.498   4.172   0.940 -0.0942 -0.4763  0.1814
 9950SOL     OW30748   0.802   1.703   6.760  0.4757 -0.2927 -0.1471
 9950SOL    HW130749   0.709   1.736   6.744 -0.3048 -2.2065  0.1607
 9950SOL    HW230750   0.859   1.723   6.681 -0.7163 -0.7946 -1.1548
 9951SOL     OW30751   0.722   3.236   1.512 -0.0061 -0.7215 -0.0604
 9951SOL    HW130752   0.648   3.273   1.456  0.3177  0.0269 -0.0030
 9951SOL    HW230753   0.687   3.159   1.566 -0.7481 -0.3585 -0.0067
 9952SOL     OW30754   1.878   3.938   1.032  0.4401  0.3902 -0.0279
 9952SOL    HW130755   1.916   3.991   1.108  0.9032 -0.0958  0.0796
 9952SOL    HW230756   1.794   3.982   1.001  1.0322  1.4313 -0.2148
 9953SOL     OW30757   5.335   5.417   2.350 -0.3898 -0.4626  0.1850
 9953SOL    HW130758   5.414   5.434   2.292 -1.0279 -1.9627 -1.1950
 9953SOL    HW230759   5.331   5.486   2.423  1.7728  0.0279 -0.1145
 9954SOL     OW30760   5.093   0.860   5.097  0.3626  0.2456  0.2730
 9954SOL    HW130761   5.063   0.819   5.011  0.8745 -0.2055  0.3018
 9954SOL    HW230762   5.153   0.796   5.145 -2.2686 -0.7942  2.4327
 9955SOL     OW30763   0.152   2.672   2.610 -0.4960 -0.0450  0.3212
 9955SOL    HW130764   0.137   2.759   2.657 -0.4799 -0.3066  0.8184
 9955SOL    HW230765   0.239   2.675   2.562 -1.1644  0.7393 -0.8753
 9956SOL     OW30766   6.369   0.986   2.757  0.5920 -0.1590 -0.4626
 9956SOL    HW130767   6.439   0.943   2.813  0.7107  0.5222 -0.0801
 9956SOL    HW230768   6.412   1.028   2.677  0.4026 -1.2887 -1.1810
 9957SOL     OW30769   6.400   5.158   4.665 -0.4077  0.7182  0.5454
 9957SOL    HW130770   6.305   5.187   4.657 -0.3323  1.0045  0.6738
 9957SOL    HW230771   6.443   5.206   4.741 -0.1552  0.6038  0.4760
 9958SOL     OW30772   1.936   1.998   6.811 -0.3952  0.2576 -0.0611
 9958SOL    HW130773   2.032   2.025   6.801  0.0969 -1.8412 -1.7659
 9958SOL    HW230774   1.885   2.028   6.731 -1.1291  1.1375  0.7239
 9959SOL     OW30775   4.390   5.758   6.553  0.3360 -0.6497 -0.2490
 9959SOL    HW130776   4.347   5.824   6.616 -2.4334 -2.0646 -0.5330
 9959SOL    HW230777   4.388   5.667   6.594 -0.3683 -1.3822 -1.8390
 9960SOL     OW30778   1.347   6.404   5.100  0.0971  0.1800 -0.1420
 9960SOL    HW130779   1.317   6.346   5.176 -0.8987  0.9314  0.0603
 9960SOL    HW230780   1.296   6.490   5.101  0.0074  0.1804 -1.7162
 9961SOL     OW30781   2.990   5.712   3.618 -0.4264 -0.5801 -0.1763
 9961SOL    HW130782   3.071   5.713   3.676 -0.3349  1.4646 -0.2411
 9961SOL    HW230783   3.013   5.678   3.527  0.1272 -0.9656  0.1093
 9962SOL     OW30784   6.968   0.167   4.802 -0.1114  0.2087  0.1790
 9962SOL    HW130785   6.883   0.139   4.757  0.1919 -0.1561 -0.1810
 9962SOL    HW230786   6.952   0.248   4.857 -0.6092  0.3617 -0.1842
 9963SOL     OW30787   5.882   2.580   3.590  0.3632 -0.3434  0.4001
 9963SOL    HW130788   5.893   2.672   3.552 -1.1499 -0.7317 -1.0845
 9963SOL    HW230789   5.866   2.586   3.689 -0.9631  1.0946  0.1328
 9964SOL     OW30790   4.324   5.791   3.708 -0.1761  0.3745  0.0120
 9964SOL    HW130791   4.250   5.847   3.670 -0.7986 -1.4790 -1.6569
 9964SOL    HW230792   4.388   5.766   3.635  0.5760 -0.3679  0.9011
 9965SOL     OW30793   3.515   3.277   2.906  1.0720  0.1277  0.1019
 9965SOL    HW130794   3.576   3.347   2.944  2.4283 -0.5698 -0.6987
 9965SOL    HW230795   3.425   3.317   2.890  1.9166  1.8302 -0.7312
 9966SOL     OW30796   1.177   6.610   5.091  0.5701 -0.1090 -0.0357
 9966SOL    HW130797   1.078   6.611   5.098  0.5766 -1.4800  0.5294
 9966SOL    HW230798   1.214   6.696   5.126 -0.3718  0.0517  0.5914
 9967SOL     OW30799   0.282   2.597   7.001 -0.4961  0.2806 -0.5087
 9967SOL    HW130800   0.236   2.684   6.985 -1.3286  0.0855  0.6642
 9967SOL    HW230801   0.357   2.610   7.066 -0.4871  0.1623 -0.4955
 9968SOL     OW30802   5.276   1.877   3.887  0.1015 -0.1363  0.0723
 9968SOL    HW130803   5.366   1.918   3.871  0.8522 -2.0825 -0.9996
 9968SOL    HW230804   5.252   1.818   3.810 -1.8427 -0.1231  0.6186
 9969SOL     OW30805   0.571   3.219   0.686 -0.1640  0.4217 -0.2803
 9969SOL    HW130806   0.501   3.179   0.746 -1.9468  1.1918 -1.7488
 9969SOL    HW230807   0.646   3.154   0.675 -1.7610 -1.4833 -0.5683
 9970SOL     OW30808   0.104   0.236   6.189  0.1557 -0.1546  0.3465
 9970SOL    HW130809   0.082   0.205   6.097  0.1221  0.5414  0.1156
 9970SOL    HW230810   0.058   0.324   6.207 -0.6533 -0.7565  1.3784
 9971SOL     OW30811   4.708   0.829   4.616 -0.7919 -0.2106 -0.5965
 9971SOL    HW130812   4.733   0.733   4.600 -0.8328 -0.1165 -1.2516
 9971SOL    HW230813   4.681   0.841   4.711 -2.4388 -1.2134 -0.9072
 9972SOL     OW30814   1.687   1.796   6.002 -0.1765  0.7291 -0.2874
 9972SOL    HW130815   1.643   1.875   6.045 -0.4819 -0.6282  2.0942
 9972SOL    HW230816   1.753   1.756   6.067 -0.7422 -1.5274 -1.0245
 9973SOL     OW30817   3.287   1.254   3.620  0.1149  0.2773 -0.7033
 9973SOL    HW130818   3.247   1.315   3.552  0.1318  1.3606  0.2357
 9973SOL    HW230819   3.342   1.184   3.574 -2.0942 -0.7303 -1.9769
 9974SOL     OW30820   6.494   4.540   1.271 -0.4803  0.0530  0.1725
 9974SOL    HW130821   6.573   4.509   1.323 -1.0046 -0.9473  0.3972
 9974SOL    HW230822   6.503   4.638   1.252  1.1057 -0.1737 -0.3684
 9975SOL     OW30823   5.055   6.601   2.708  0.4667  0.3320 -0.5860
 9975SOL    HW130824   5.075   6.520   2.653 -1.1709  0.4320 -1.3640
 9975SOL    HW230825   4.981   6.581   2.772  2.8354 -0.0327  2.2570
 9976SOL     OW30826   2.299   0.343   2.181  0.3070  1.0264 -0.4367
 9976SOL    HW130827   2.227   0.409   2.160  0.2123  0.7453 -1.0130
 9976SOL    HW230828   2.321   0.348   2.278 -2.0505 -0.4316  0.2546
 9977SOL     OW30829   3.412   6.846   3.969  0.4849 -0.1833 -0.1154
 9977SOL    HW130830   3.321   6.875   3.941  0.7145  0.7387  0.0760
 9977SOL    HW230831   3.406   6.799   4.057  0.1006 -0.8167 -0.4708
 9978SOL     OW30832   4.984   3.422   2.102  0.1297 -0.1468  0.4621
 9978SOL    HW130833   5.041   3.405   2.021  1.0311 -0.4395  1.1467
 9978SOL    HW230834   4.929   3.341   2.121  0.8266 -0.5328  0.8596
 9979SOL     OW30835   5.132   5.682   0.916 -0.1898 -0.5496  0.4679
 9979SOL    HW130836   5.118   5.606   0.979 -0.6120 -0.2110  0.7976
 9979SOL    HW230837   5.161   5.648   0.827 -1.6705 -1.1994  0.2100
 9980SOL     OW30838   1.582   4.875   0.054  0.0573  0.2904 -0.1416
 9980SOL    HW130839   1.525   4.893   0.134 -1.2678 -1.8516 -0.5211
 9980SOL    HW230840   1.568   4.946  -0.014 -1.3148  0.3998  0.2284
 9981SOL     OW30841   2.766   1.377   6.119 -0.2700 -0.4509  0.3514
 9981SOL    HW130842   2.714   1.393   6.035 -1.0556 -0.0486  0.9006
 9981SOL    HW230843   2.730   1.436   6.192  3.5529  3.0015 -0.2178
 9982SOL     OW30844   6.569   6.689   6.174 -0.7214 -0.1136  0.3890
 9982SOL    HW130845   6.607   6.754   6.241 -2.8498  0.7817  0.8177
 9982SOL    HW230846   6.613   6.704   6.086 -0.6212  1.4222  0.6629
 9983SOL     OW30847   4.721   4.903   1.821 -0.2945  0.0175  0.6105
 9983SOL    HW130848   4.731   4.810   1.785 -3.3947  0.1516 -0.8732
 9983SOL    HW230849   4.667   4.900   1.905  3.4302  0.1601  3.2706
 9984SOL     OW30850   2.651   1.253   1.943  0.6177 -0.1645 -0.4024
 9984SOL    HW130851   2.682   1.334   1.893  1.3213 -0.8926 -1.1918
 9984SOL    HW230852   2.578   1.278   2.006 -0.5141  0.7373 -2.0233
 9985SOL     OW30853   2.551   1.229   4.440  0.6850 -0.3773 -0.2881
 9985SOL    HW130854   2.473   1.249   4.499  0.5743 -1.1713 -0.1547
 9985SOL    HW230855   2.585   1.314   4.399  0.3025  0.0821  0.3387
 9986SOL     OW30856   6.637   4.537   0.995  0.2802  0.1459 -0.2060
 9986SOL    HW130857   6.669   4.567   1.085 -0.4057  1.5241 -0.3980
 9986SOL    HW230858   6.685   4.454   0.969  2.1014  0.9386  0.4630
 9987SOL     OW30859   0.579   2.632   0.821 -0.0866 -0.6262  0.4275
 9987SOL    HW130860   0.555   2.679   0.737  1.2816  0.0826  0.4044
 9987SOL    HW230861   0.611   2.540   0.800  2.1765  0.2219 -0.0764
 9988SOL     OW30862   2.569   2.578   5.554 -0.6338 -0.1910 -0.1193
 9988SOL    HW130863   2.656   2.529   5.561  0.9332  2.5419  1.0015
 9988SOL    HW230864   2.569   2.633   5.470 -0.2562  1.5431  0.9708
 9989SOL     OW30865   3.679   6.214   4.892 -0.3211 -0.4688  0.7219
 9989SOL    HW130866   3.659   6.136   4.833  1.3405 -0.5332  0.2083
 9989SOL    HW230867   3.738   6.185   4.968 -2.4768 -0.4060  2.5315
 9990SOL     OW30868   6.011   6.306   2.112  0.5993 -0.0063  0.2513
 9990SOL    HW130869   6.051   6.215   2.124 -2.4401 -1.9916 -2.7448
 9990SOL    HW230870   5.941   6.321   2.181  1.7922  0.5812  1.3746
 9991SOL     OW30871   3.572   1.358   5.546 -0.5107 -0.1706  0.0370
 9991SOL    HW130872   3.486   1.382   5.592  0.3436  0.9904  1.1029
 9991SOL    HW230873   3.621   1.290   5.601  1.0417  2.0427  1.5501
 9992SOL     OW30874   5.520   0.169   4.076  0.0496  0.5491 -0.6665
 9992SOL    HW130875   5.446   0.146   4.014  0.3360 -2.8683  0.0342
 9992SOL    HW230876   5.483   0.187   4.167 -0.0642  1.3334 -0.8612
 9993SOL     OW30877   5.460   2.117   2.714  0.3246  0.8515 -0.2314
 9993SOL    HW130878   5.381   2.124   2.775 -1.4998 -0.9319 -2.2310
 9993SOL    HW230879   5.541   2.095   2.768 -1.2795 -1.1944  1.5413
 9994SOL     OW30880   3.500   5.360   6.480  1.0674  0.0365 -0.2228
 9994SOL    HW130881   3.445   5.434   6.518  3.8682  2.3307 -0.3121
 9994SOL    HW230882   3.510   5.287   6.548  1.1514  1.3668  1.2214
 9995SOL     OW30883   0.289   1.713   1.436 -0.0686  0.6706 -0.4868
 9995SOL    HW130884   0.283   1.614   1.450  0.2844  0.5191 -1.3968
 9995SOL    HW230885   0.359   1.734   1.369  0.1072  1.5721 -0.0469
 9996SOL     OW30886   4.666   6.055   6.992  0.5599  0.1599 -0.1136
 9996SOL    HW130887   4.739   6.120   6.970  0.6166  1.1239  2.6378
 9996SOL    HW230888   4.589   6.103   7.034 -0.3969 -1.2578 -0.1848
 9997SOL     OW30889   4.571   5.069   5.395 -0.0573  0.9222 -0.5043
 9997SOL    HW130890   4.552   5.094   5.490 -2.8007 -2.1809 -0.0414
 9997SOL    HW230891   4.665   5.035   5.387 -0.1008  0.2600  1.3866
 9998SOL     OW30892   4.972   6.577   5.711 -0.2460  0.3710  0.1373
 9998SOL    HW130893   4.908   6.505   5.682  0.3033  0.2711 -0.8789
 9998SOL    HW230894   5.045   6.586   5.643 -0.9432  2.7245 -0.3804
 9999SOL     OW30895   0.122   2.149   6.287 -0.0577 -0.0887  0.2780
 9999SOL    HW130896   0.164   2.064   6.254 -1.0195 -0.0399 -1.1993
 9999SOL    HW230897   0.162   2.174   6.375  0.6856 -1.7393  0.4578
10000SOL     OW30898   2.067   2.959   6.534  0.5438  0.0784 -0.5712
10000SOL    HW130899   2.054   3.014   6.617 -1.8257  0.9959 -1.4750
10000SOL    HW230900   2.139   2.999   6.478 -1.6910  2.9317 -1.6184
10001SOL     OW30901   5.576   4.164   5.847 -0.5015  0.0530  0.7433
10001SOL    HW130902   5.604   4.186   5.940 -0.0345 -1.3023  0.9357
10001SOL    HW230903   5.509   4.090   5.849  0.7983 -1.1843 -0.0698
10002SOL     OW30904   6.297   6.818   6.385 -0.6141  0.0415 -0.0646
10002SOL    HW130905   6.361   6.778   6.450  1.5570  2.0944 -0.8019
10002SOL    HW230906   6.236   6.881   6.432 -0.8785 -0.5350  0.3733
10003SOL     OW30907   6.832   5.668   2.795 -0.0201  0.2115  0.1829
10003SOL    HW130908   6.785   5.753   2.820  0.4974  0.3815  0.5915
10003SOL    HW230909   6.844   5.612   2.877 -2.1796 -1.1981 -0.3803
10004SOL     OW30910   3.407   1.624   1.310  0.3839  0.0736 -0.5010
10004SOL    HW130911   3.465   1.697   1.346  0.8503  1.1639 -3.2511
10004SOL    HW230912   3.464   1.552   1.272 -0.0989 -1.1306  0.9533
10005SOL     OW30913   3.323   5.263   0.917  0.3296 -0.0260 -0.2385
10005SOL    HW130914   3.253   5.236   0.851  0.3159  0.6709 -0.5213
10005SOL    HW230915   3.329   5.363   0.919  0.1927 -0.0260  0.9534
10006SOL     OW30916   6.705   6.459   1.713  0.0430 -0.1822 -0.3284
10006SOL    HW130917   6.804   6.446   1.724  0.0609 -0.7276 -1.0469
10006SOL    HW230918   6.677   6.428   1.622 -0.9602 -1.0645  0.2491
10007SOL     OW30919   1.474   2.298   4.550 -0.3031  0.2730 -0.2596
10007SOL    HW130920   1.474   2.212   4.499 -0.3415 -0.7860  1.4265
10007SOL    HW230921   1.439   2.371   4.492 -3.0482 -1.4039 -0.9133
10008SOL     OW30922   0.219   5.924   4.990 -0.4024 -0.5027 -0.1082
10008SOL    HW130923   0.300   5.983   4.995 -0.5494 -0.2170 -0.9603
10008SOL    HW230924   0.243   5.838   4.945 -0.3417 -0.8399  0.5541
10009SOL     OW30925   1.788   0.774   0.972  0.6784 -0.1403  0.0856
10009SOL    HW130926   1.834   0.862   0.981 -0.5082  0.6312 -1.1782
10009SOL    HW230927   1.691   0.785   0.994  0.5047 -1.1278 -0.1616
10010SOL     OW30928   3.598   6.081   1.119  0.1787 -0.3736  0.2527
10010SOL    HW130929   3.662   6.017   1.163 -0.0525 -1.3991 -0.8538
10010SOL    HW230930   3.557   6.037   1.039 -1.5025  0.4720  0.6103
10011SOL     OW30931   1.603   0.966   2.490  0.3086 -0.1566  0.1098
10011SOL    HW130932   1.615   0.873   2.455  3.5784 -0.2187  0.9996
10011SOL    HW230933   1.679   1.023   2.459  0.3911  1.2065  2.5281
10012SOL     OW30934   2.151   5.650   4.512 -0.5828  0.6298  0.5488
10012SOL    HW130935   2.087   5.669   4.438  0.4175  2.3714  0.0715
10012SOL    HW230936   2.245   5.649   4.476  0.0243  2.5513  1.8751
10013SOL     OW30937   0.304   2.434   3.268  0.1102 -0.0684  0.1038
10013SOL    HW130938   0.258   2.365   3.324 -0.0825 -0.7682 -0.8820
10013SOL    HW230939   0.399   2.442   3.298 -0.2132  0.2015  1.0835
10014SOL     OW30940   6.453   1.180   0.632  0.3119 -0.2341  0.1830
10014SOL    HW130941   6.544   1.199   0.594 -0.1990  3.2401  0.3995
10014SOL    HW230942   6.386   1.242   0.591 -1.0622  0.6213  3.4375
10015SOL     OW30943   2.236   4.098   0.813  0.1779 -0.2461  0.1646
10015SOL    HW130944   2.322   4.095   0.763  0.2159 -0.4704  0.2420
10015SOL    HW230945   2.254   4.131   0.906 -0.0821  1.5004 -0.3604
10016SOL     OW30946   3.004   6.532   1.023 -0.2278  0.7738 -0.1059
10016SOL    HW130947   3.088   6.533   0.969 -0.2709 -0.5516 -0.2306
10016SOL    HW230948   2.981   6.625   1.051  1.2100  1.1621 -0.1734
10017SOL     OW30949   4.049   3.101   2.410 -0.0231  0.0416 -0.1294
10017SOL    HW130950   4.086   3.064   2.325  0.2536 -0.9175  0.3932
10017SOL    HW230951   3.975   3.042   2.442  0.6624 -0.2750  0.9095
10018SOL     OW30952   0.153   2.866   4.899 -0.3732  0.9145 -0.2874
10018SOL    HW130953   0.251   2.883   4.902  0.0646 -1.3501  0.0124
10018SOL    HW230954   0.132   2.804   4.823 -1.2904 -0.0423  0.7052
10019SOL     OW30955   4.686   5.072   2.806 -0.0707  0.0686  0.0804
10019SOL    HW130956   4.686   4.972   2.806  1.3822  0.0405  0.6186
10019SOL    HW230957   4.773   5.105   2.770 -0.1902  1.1311  0.7137
10020SOL     OW30958   4.491   3.716   6.478  0.3003 -0.8268  0.0668
10020SOL    HW130959   4.408   3.710   6.424 -0.2901  0.0042  0.8631
10020SOL    HW230960   4.522   3.624   6.502  0.8790 -1.2547 -2.0855
10021SOL     OW30961   5.250   6.505   0.741 -0.2128 -0.4096  0.6531
10021SOL    HW130962   5.265   6.537   0.647 -1.4637 -0.0265  0.5633
10021SOL    HW230963   5.249   6.584   0.803  1.7014 -0.7434  1.1811
10022SOL     OW30964   4.882   1.304   4.109 -0.0636 -0.3194  0.1833
10022SOL    HW130965   4.976   1.269   4.113 -0.3348 -1.1848 -0.5226
10022SOL    HW230966   4.822   1.232   4.073 -1.2404 -0.2320  1.8706
10023SOL     OW30967   3.694   4.975   1.805  0.6924 -0.1661  0.0237
10023SOL    HW130968   3.666   4.914   1.879 -0.6689  0.5479  0.1257
10023SOL    HW230969   3.620   4.983   1.738  1.5468 -0.0637 -0.9386
10024SOL     OW30970   1.934   3.962   2.747  0.0211 -0.5935 -0.1234
10024SOL    HW130971   1.951   3.960   2.846  0.9363 -0.6692 -0.2767
10024SOL    HW230972   1.866   3.892   2.724 -0.6929 -0.1395  0.5321
10025SOL     OW30973   3.939   4.087   4.961  0.1422 -0.9104  0.2946
10025SOL    HW130974   3.990   4.145   4.897 -0.2659  0.6724  1.3447
10025SOL    HW230975   3.952   4.121   5.054 -1.2150 -1.7027  0.8036
10026SOL     OW30976   1.395   5.734   6.917  0.1942 -0.6592  0.5837
10026SOL    HW130977   1.386   5.802   6.843  0.4673 -2.1951 -0.9271
10026SOL    HW230978   1.306   5.695   6.938  0.1753 -0.4996  0.8058
10027SOL     OW30979   5.544   5.804   3.933 -0.0414  0.3531 -0.2158
10027SOL    HW130980   5.608   5.857   3.988  0.5088  0.7817 -1.2325
10027SOL    HW230981   5.592   5.769   3.852 -0.6793 -0.7500 -0.1372
10028SOL     OW30982   1.496   5.273   2.424 -0.3025 -0.4585 -0.2362
10028SOL    HW130983   1.560   5.274   2.347 -0.7109 -2.1019 -0.6115
10028SOL    HW230984   1.547   5.254   2.508 -0.2379 -1.4750 -0.4948
10029SOL     OW30985   5.412   3.954   5.908  0.4831  0.0679  0.8640
10029SOL    HW130986   5.418   3.948   6.008  0.4709  1.4677  0.9646
10029SOL    HW230987   5.384   3.865   5.871  1.4857 -0.7547  2.0070
10030SOL     OW30988   4.440   5.488   0.717 -0.0099 -0.1014  0.1454
10030SOL    HW130989   4.453   5.585   0.696 -1.7363 -0.1757 -1.6128
10030SOL    HW230990   4.451   5.474   0.815  0.0004  1.9358  0.4955
10031SOL     OW30991   6.477   5.875   4.310  0.6262 -0.0529 -0.3608
10031SOL    HW130992   6.533   5.940   4.363 -1.0409  1.2054 -0.0720
10031SOL    HW230993   6.525   5.787   4.305  2.6084  0.9422 -0.1040
10032SOL     OW30994   3.222   0.272   0.341 -0.2517  0.0361 -0.1331
10032SOL    HW130995   3.218   0.219   0.256  1.5767  0.7064 -0.6892
10032SOL    HW230996   3.145   0.335   0.345 -1.2527 -1.1247 -0.4982
10033SOL     OW30997   2.248   1.919   2.401  0.5354  0.4000 -0.2206
10033SOL    HW130998   2.195   1.930   2.485 -0.4811 -1.2443 -0.6144
10033SOL    HW230999   2.248   2.006   2.350 -2.0892  0.3972 -0.3708
10034SOL     OW31000   3.142   6.714   6.584 -0.0132 -0.2460 -0.3331
10034SOL    HW131001   3.154   6.679   6.677 -1.0488  0.7579  0.2001
10034SOL    HW231002   3.091   6.646   6.530 -0.2950 -0.4093  0.1260
10035SOL     OW31003   3.654   5.430   4.872 -0.3171  0.4087 -0.7224
10035SOL    HW131004   3.681   5.523   4.848 -2.0454  0.9669 -0.6371
10035SOL    HW231005   3.691   5.366   4.804  1.5271  1.0212 -0.3678
10036SOL     OW31006   1.013   2.335   1.057 -0.5131  0.1378  0.4043
10036SOL    HW131007   1.037   2.412   0.999 -1.1388  0.7370  0.9299
10036SOL    HW231008   0.989   2.368   1.148  1.4985 -0.8465  1.3563
10037SOL     OW31009   0.195   4.282   3.065  0.0239 -0.1084  0.0804
10037SOL    HW131010   0.196   4.382   3.068 -0.0289 -0.0890 -0.5375
10037SOL    HW231011   0.272   4.247   3.118  0.1918  0.2650  0.0881
10038SOL     OW31012   0.852   0.511   6.149 -0.2411 -0.1385  0.8955
10038SOL    HW131013   0.908   0.455   6.088 -0.4771 -0.3384  0.8604
10038SOL    HW231014   0.835   0.461   6.235  0.6290  0.4006  1.3871
10039SOL     OW31015   0.601   4.463   3.439 -0.0681 -1.0163  0.7940
10039SOL    HW131016   0.516   4.417   3.465 -0.9090  0.9595  1.7520
10039SOL    HW231017   0.643   4.505   3.519  0.0920  0.7544 -0.1707
10040SOL     OW31018   0.103   3.987   2.076  0.4998 -0.5347 -0.3168
10040SOL    HW131019   0.090   4.081   2.109 -0.0236 -0.9875  0.8047
10040SOL    HW231020   0.156   3.935   2.143 -1.3232 -1.7158  0.2948
10041SOL     OW31021   0.971   0.625   6.810  0.0582 -0.3661 -0.0844
10041SOL    HW131022   0.891   0.615   6.751  1.0478  1.4408 -1.8545
10041SOL    HW231023   1.031   0.545   6.798  0.0737 -0.1979 -1.3018
10042SOL     OW31024   6.183   2.323   6.148  0.0054 -0.2729 -0.5230
10042SOL    HW131025   6.115   2.251   6.131  0.2079 -0.5013 -0.3703
10042SOL    HW231026   6.159   2.372   6.232  0.2173 -0.5777 -0.2823
10043SOL     OW31027   3.841   2.453   6.213 -0.8170 -0.5787  0.1205
10043SOL    HW131028   3.868   2.360   6.189  0.8553  0.1489 -1.0232
10043SOL    HW231029   3.763   2.480   6.157  1.3709  0.1379 -2.8567
10044SOL     OW31030   0.007   5.673   4.728  0.2381 -0.1836  0.9959
10044SOL    HW131031  -0.083   5.652   4.767 -1.0771  4.0944  0.7805
10044SOL    HW231032  -0.001   5.682   4.629  1.2722 -1.2542  0.8104
10045SOL     OW31033   5.588   3.280   3.870 -0.2894  0.3803  0.1570
10045SOL    HW131034   5.533   3.211   3.917  1.1565 -1.8513 -1.2141
10045SOL    HW231035   5.530   3.335   3.810 -1.5050  0.4648  1.3728
10046SOL     OW31036   1.825   2.650   1.305  0.2950 -0.1188 -0.3049
10046SOL    HW131037   1.771   2.703   1.370  0.6144 -1.6319  1.2562
10046SOL    HW231038   1.909   2.619   1.349  0.6586 -0.9511 -1.5357
10047SOL     OW31039   4.169   0.137   2.444  0.2384 -0.2208 -0.0394
10047SOL    HW131040   4.253   0.184   2.471  1.2997 -2.0420 -0.0118
10047SOL    HW231041   4.139   0.171   2.355  1.2229  0.1829 -0.2261
10048SOL     OW31042   3.573   3.600   2.294  0.1230  0.3786 -0.2691
10048SOL    HW131043   3.621   3.682   2.262 -0.3884  0.7742 -0.0366
10048SOL    HW231044   3.603   3.521   2.242  1.2096  0.5771  0.0328
10049SOL     OW31045   0.921   6.953   2.937 -0.5692  0.5042  0.1286
10049SOL    HW131046   1.020   6.938   2.936 -0.6813 -0.2442 -0.6917
10049SOL    HW231047   0.901   7.046   2.907 -0.0932  0.8262  0.7895
10050SOL     OW31048   1.842   6.476   3.464  0.4356  0.1439  0.0964
10050SOL    HW131049   1.756   6.459   3.416  0.4537 -1.2295  0.4977
10050SOL    HW231050   1.852   6.574   3.482 -0.8231  0.3688 -0.3375
10051SOL     OW31051   0.252   2.044   5.523  0.1665 -0.3749  0.3511
10051SOL    HW131052   0.331   1.992   5.491  0.7725  0.4822  0.3972
10051SOL    HW231053   0.176   1.982   5.541  0.4801 -1.1076 -0.7198
10052SOL     OW31054   2.906   5.739   5.144  0.2355  0.5958 -0.0395
10052SOL    HW131055   2.845   5.806   5.101 -0.1374  0.6018  0.4842
10052SOL    HW231056   2.913   5.759   5.242  1.7309  1.0947 -0.2232
10053SOL     OW31057   1.294   1.439   2.557  0.0216 -0.6700  0.0147
10053SOL    HW131058   1.297   1.400   2.650  0.6408  0.4533  0.4734
10053SOL    HW231059   1.201   1.470   2.538 -0.1206 -0.9501  0.2358
10054SOL     OW31060   3.473   6.306   1.060 -0.3979  0.6243  0.0664
10054SOL    HW131061   3.520   6.225   1.093 -1.4782  0.3283  0.9178
10054SOL    HW231062   3.509   6.387   1.106  0.6696  0.6562 -0.7740
10055SOL     OW31063   1.130   2.753   2.872 -0.1868  0.3281  0.4650
10055SOL    HW131064   1.206   2.740   2.935 -0.2237 -0.1057  0.4202
10055SOL    HW231065   1.076   2.670   2.867 -1.4425  1.0451  1.5018
10056SOL     OW31066   0.604   3.220   1.852  0.0194  0.3462  0.3073
10056SOL    HW131067   0.642   3.157   1.784 -1.4415 -0.8842  0.5656
10056SOL    HW231068   0.558   3.296   1.806  0.0902  0.1733 -0.0541
10057SOL     OW31069   1.872   3.002   3.236 -0.0285  0.0641  0.2034
10057SOL    HW131070   1.791   3.053   3.209  0.3581  0.6929  0.2065
10057SOL    HW231071   1.856   2.904   3.223 -0.8486  0.1692  0.3903
10058SOL     OW31072   2.904   0.276   5.716  0.0865 -0.0745 -0.3563
10058SOL    HW131073   2.805   0.289   5.702  0.2118  1.8894  0.2452
10058SOL    HW231074   2.924   0.178   5.723 -1.8946 -0.4997  0.0867
10059SOL     OW31075   1.748   6.250   6.402 -0.5459 -0.4038  0.3557
10059SOL    HW131076   1.818   6.203   6.349 -1.8899 -0.9560 -0.9898
10059SOL    HW231077   1.791   6.299   6.478  1.2472 -0.9624 -0.2546
10060SOL     OW31078   2.090   1.050   3.078 -0.0162 -0.7165 -0.0152
10060SOL    HW131079   1.994   1.069   3.099 -0.1733 -0.7263 -0.7010
10060SOL    HW231080   2.139   1.137   3.068 -0.2398 -0.6873 -0.9275
10061SOL     OW31081   5.886   4.409   0.448 -0.4201 -0.2171 -0.3143
10061SOL    HW131082   5.893   4.309   0.456  0.0639 -0.3143 -1.6847
10061SOL    HW231083   5.790   4.436   0.455 -0.5232 -0.7346  0.4402
10062SOL     OW31084   6.066   3.778   3.755 -0.2866 -0.1533 -1.0228
10062SOL    HW131085   6.111   3.731   3.832 -1.0719  2.7779  1.4303
10062SOL    HW231086   5.977   3.736   3.738 -0.8573  0.1333  0.9292
10063SOL     OW31087   0.499   5.573   0.880 -0.5285  0.4775  0.7897
10063SOL    HW131088   0.400   5.582   0.898 -0.6577  1.4895 -0.3714
10063SOL    HW231089   0.515   5.489   0.828 -1.0512  1.3625 -0.8565
10064SOL     OW31090   3.065   0.951   0.193  0.0865  0.2942  0.2051
10064SOL    HW131091   3.071   0.893   0.111 -2.7253  0.6175 -0.3139
10064SOL    HW231092   3.041   0.896   0.272 -1.8334  0.5837 -0.1411
10065SOL     OW31093   5.138   2.162   0.605 -0.2994 -0.2980 -0.6477
10065SOL    HW131094   5.216   2.117   0.562  1.6236 -0.3343  2.6098
10065SOL    HW231095   5.075   2.193   0.534  2.1407 -1.1446 -3.3824
10066SOL     OW31096   2.903   6.289   0.943 -0.0753 -0.0836  0.2205
10066SOL    HW131097   2.936   6.215   1.002 -2.0902  0.1736  1.7852
10066SOL    HW231098   2.943   6.375   0.972  0.5408 -0.2407 -0.1498
10067SOL     OW31099   1.978   0.018   4.933  0.0044 -0.2469  0.3710
10067SOL    HW131100   1.942   0.061   5.016 -0.3870 -0.7779  0.4826
10067SOL    HW231101   1.921   0.043   4.855  0.6192  0.5945  0.1830
10068SOL     OW31102   1.240   4.806   6.032 -0.4303 -0.5606  0.3431
10068SOL    HW131103   1.259   4.770   6.123 -1.4426  1.1813  1.2959
10068SOL    HW231104   1.325   4.807   5.979 -0.0052 -2.4708  0.9054
10069SOL     OW31105   2.759   4.989   1.918 -0.5667 -0.5281 -0.2417
10069SOL    HW131106   2.699   4.955   1.990  1.0360 -0.1438  1.3527
10069SOL    HW231107   2.816   4.914   1.883  0.0125 -0.3483  0.2928
10070SOL     OW31108   2.770   0.231   4.896  0.0534 -0.3119  0.2826
10070SOL    HW131109   2.784   0.172   4.816  1.0939 -0.3748  0.4974
10070SOL    HW231110   2.728   0.317   4.868 -0.1245 -0.5684 -0.2453
10071SOL     OW31111   5.383   5.077   4.682 -0.0506 -0.1726 -0.5900
10071SOL    HW131112   5.393   5.154   4.618  0.2978  2.2666  2.1749
10071SOL    HW231113   5.336   5.109   4.765  2.3428 -2.2746  1.7528
10072SOL     OW31114   6.689   5.372   3.518 -0.1137 -0.0357  0.5597
10072SOL    HW131115   6.627   5.298   3.493 -0.8128  0.2370  1.4419
10072SOL    HW231116   6.718   5.361   3.613 -0.7675  1.1647  0.9239
10073SOL     OW31117   0.150   0.196   0.219 -0.0881  0.0188 -0.3870
10073SOL    HW131118   0.192   0.146   0.294  0.1284 -0.2357 -0.6738
10073SOL    HW231119   0.109   0.280   0.253 -1.1968 -0.7540  0.2425
10074SOL     OW31120   2.714   0.051   6.597  0.5693 -0.0845  0.0191
10074SOL    HW131121   2.771   0.089   6.524  1.3710 -2.7383 -0.8665
10074SOL    HW231122   2.688  -0.042   6.573 -0.4893 -0.4824  2.4447
10075SOL     OW31123   5.329   3.392   6.307  1.0093  0.5635  0.2927
10075SOL    HW131124   5.290   3.484   6.306 -1.6654 -0.4911 -0.4892
10075SOL    HW231125   5.348   3.365   6.401 -0.5842  0.9894  0.7635
10076SOL     OW31126   5.343   1.433   0.682 -0.0969 -0.4849  0.0259
10076SOL    HW131127   5.290   1.464   0.603  1.6370  0.9533 -0.6256
10076SOL    HW231128   5.342   1.503   0.753 -1.2952 -1.5952  1.1713
10077SOL     OW31129   0.036   3.551   3.294 -0.2868  0.2867 -0.0456
10077SOL    HW131130  -0.062   3.550   3.314 -0.1733  2.8169  0.9739
10077SOL    HW231131   0.087   3.531   3.377  0.0981 -0.0327 -0.3530
10078SOL     OW31132   0.504   4.426   6.456 -0.1501  0.5839  0.1782
10078SOL    HW131133   0.512   4.493   6.382 -1.2936 -2.0500 -2.5354
10078SOL    HW231134   0.596   4.399   6.486  0.3422  1.6106 -0.3524
10079SOL     OW31135   2.484   5.728   4.675 -0.0425 -0.1045 -0.7621
10079SOL    HW131136   2.544   5.794   4.720 -1.6193 -0.1067  1.4787
10079SOL    HW231137   2.538   5.668   4.616  2.0456  0.2822  0.6691
10080SOL     OW31138   3.343   5.969   0.577  0.1519  0.7198  0.1240
10080SOL    HW131139   3.437   5.996   0.557  0.0592  1.4984  0.7190
10080SOL    HW231140   3.285   6.050   0.583 -0.6893  0.2180 -0.8513
10081SOL     OW31141   4.390   4.720   3.658  0.4717  0.0977  0.1061
10081SOL    HW131142   4.484   4.753   3.649 -0.2927  1.9522 -1.8364
10081SOL    HW231143   4.362   4.725   3.754  1.5236  2.0327  0.3602
10082SOL     OW31144   2.884   4.758   5.857  0.3257 -0.2271  0.1417
10082SOL    HW131145   2.846   4.687   5.917 -2.2963  1.6456  0.8773
10082SOL    HW231146   2.834   4.758   5.770  3.2087 -2.0244 -1.6700
10083SOL     OW31147   2.517   0.811   2.793  0.2214 -0.1317 -0.2442
10083SOL    HW131148   2.456   0.891   2.799  2.0623  1.3613 -0.7431
10083SOL    HW231149   2.539   0.780   2.886 -0.7367 -0.2785 -0.0503
10084SOL     OW31150   5.920   3.925   2.144 -0.2073 -0.1424  0.2117
10084SOL    HW131151   5.840   3.978   2.174  0.6674  1.2297  0.1758
10084SOL    HW231152   5.896   3.872   2.063 -1.3775 -0.5777  0.8180
10085SOL     OW31153   2.429   1.785   3.250  0.2697  0.3530  0.3909
10085SOL    HW131154   2.449   1.695   3.290  1.4287  0.2221 -0.4211
10085SOL    HW231155   2.492   1.802   3.174 -0.8497  1.2626 -0.3619
10086SOL     OW31156   6.454   1.687   0.961 -0.2484  0.0118 -0.1201
10086SOL    HW131157   6.528   1.738   1.003 -0.7094 -0.5511  1.4248
10086SOL    HW231158   6.459   1.698   0.861  1.4042  0.6324 -0.0041
10087SOL     OW31159   5.332   0.813   1.241  0.5512  0.4125 -0.0348
10087SOL    HW131160   5.307   0.717   1.231 -0.3427  0.6400 -0.1088
10087SOL    HW231161   5.315   0.861   1.154 -0.3265  0.9087  0.3901
10088SOL     OW31162   6.789   0.487   4.160  0.4695 -0.2142  0.1855
10088SOL    HW131163   6.750   0.531   4.241 -0.0837 -0.5333  0.1022
10088SOL    HW231164   6.811   0.557   4.092 -0.0700 -0.0316  0.1918
10089SOL     OW31165   4.256   4.142   0.886 -0.0576 -0.3067  0.1834
10089SOL    HW131166   4.165   4.104   0.868  0.2939 -1.3331  0.4933
10089SOL    HW231167   4.255   4.192   0.973  0.2068 -2.3153  1.4066
10090SOL     OW31168   0.310   0.923   2.049 -0.4286 -0.1236  0.0951
10090SOL    HW131169   0.237   0.897   1.986 -1.9698  1.5433  1.0802
10090SOL    HW231170   0.382   0.854   2.048  0.1720  0.2947 -4.2355
10091SOL     OW31171   4.486   4.779   0.221 -0.6428 -0.0307 -0.1598
10091SOL    HW131172   4.394   4.751   0.195 -0.6318 -0.7132  0.5143
10091SOL    HW231173   4.483   4.830   0.307 -0.0578 -3.2793  1.9428
10092SOL     OW31174   3.874   2.353   1.487  0.1875 -0.6063  0.5460
10092SOL    HW131175   3.812   2.418   1.531  0.7807  0.0578  0.4119
10092SOL    HW231176   3.966   2.365   1.524  0.5952 -0.3773 -0.5128
10093SOL     OW31177   0.570   5.873   5.866  0.8423  0.1681  0.4139
10093SOL    HW131178   0.598   5.823   5.948 -0.6619 -2.0805 -0.3422
10093SOL    HW231179   0.473   5.897   5.873  0.5585 -0.5232 -0.9061
10094SOL     OW31180   2.465   5.296   0.052 -0.2357 -0.1257 -0.2590
10094SOL    HW131181   2.377   5.266   0.088 -0.0924 -0.5748 -0.2821
10094SOL    HW231182   2.451   5.349  -0.032 -0.4021 -1.3390 -1.0181
10095SOL     OW31183   1.875   1.043   6.697 -0.1388 -0.1022 -0.3486
10095SOL    HW131184   1.854   1.138   6.720  0.9130 -0.0611  0.5656
10095SOL    HW231185   1.925   1.001   6.773 -0.2095 -1.2553 -0.9216
10096SOL     OW31186   4.185   1.562   2.815 -0.2808  0.2179 -0.8943
10096SOL    HW131187   4.213   1.521   2.902 -1.9574 -0.3873 -0.5951
10096SOL    HW231188   4.217   1.656   2.810  0.1619  0.1374  0.2151
10097SOL     OW31189   5.187   5.572   4.982  0.2726 -0.5032 -0.0643
10097SOL    HW131190   5.136   5.505   4.929  0.1301 -0.1336 -0.4026
10097SOL    HW231191   5.245   5.526   5.049  1.2529 -1.0365 -1.2437
10098SOL     OW31192   5.305   6.230   0.720  0.3463 -0.6592  0.1148
10098SOL    HW131193   5.386   6.224   0.662 -0.6940 -0.3205 -1.4302
10098SOL    HW231194   5.279   6.326   0.733  1.3229 -0.6188  2.3088
10099SOL     OW31195   5.987   3.195   3.960 -0.8839  0.4334  0.4745
10099SOL    HW131196   5.990   3.189   4.060 -3.2663  0.9425  0.6306
10099SOL    HW231197   5.961   3.106   3.922 -2.6107  0.9011  0.5122
10100SOL     OW31198   6.252   3.565   1.889  0.2662  0.2157 -0.1704
10100SOL    HW131199   6.164   3.582   1.932 -0.1855  0.3910 -1.1579
10100SOL    HW231200   6.274   3.467   1.895 -0.3930  0.0358 -0.6857
10101SOL     OW31201   6.117   2.433   6.416  0.1803  0.1677  0.2104
10101SOL    HW131202   6.201   2.462   6.462 -0.3271 -0.0340  1.2820
10101SOL    HW231203   6.044   2.499   6.433  0.4733  1.1560 -1.9776
10102SOL     OW31204   1.730   1.984   5.408  0.1223  0.3776 -0.3271
10102SOL    HW131205   1.747   1.908   5.345  1.1015  1.5511 -1.5540
10102SOL    HW231206   1.785   1.973   5.490  1.4450  0.5164 -1.1719
10103SOL     OW31207   5.498   5.582   4.960 -0.0546  0.4944  1.0359
10103SOL    HW131208   5.435   5.658   4.971 -0.0803  0.2598  2.9077
10103SOL    HW231209   5.587   5.616   4.931 -0.9853  0.8215 -1.7008
10104SOL     OW31210   2.731   1.118   6.821 -0.3433  0.2233 -0.5309
10104SOL    HW131211   2.646   1.169   6.811 -0.6643  0.0285  0.9526
10104SOL    HW231212   2.761   1.122   6.917  0.6550 -0.7594 -0.7827
10105SOL     OW31213   0.806   6.174   5.991  0.0652  0.4409  0.1710
10105SOL    HW131214   0.849   6.202   5.905 -0.4116 -0.0896 -0.2512
10105SOL    HW231215   0.710   6.200   5.990  0.2415  1.1513  0.8924
10106SOL     OW31216   5.337   5.988   3.380  0.4206  0.8831  0.2666
10106SOL    HW131217   5.362   6.062   3.319 -1.5372  0.8934 -0.6021
10106SOL    HW231218   5.267   5.931   3.337  0.9681 -0.7412  1.4159
10107SOL     OW31219   5.283   1.449   3.120 -0.3668  0.4622 -0.5945
10107SOL    HW131220   5.223   1.519   3.157 -1.7514 -0.4713 -0.9765
10107SOL    HW231221   5.247   1.418   3.031  0.4292 -0.4356 -0.6162
10108SOL     OW31222   1.189   2.593   0.643  0.0257 -0.1955  0.3477
10108SOL    HW131223   1.206   2.579   0.546  2.3621 -1.2058  0.8280
10108SOL    HW231224   1.192   2.691   0.664  3.2486 -0.0825 -0.1085
10109SOL     OW31225   3.825   6.097   5.368  0.3666 -0.2704  0.1803
10109SOL    HW131226   3.831   6.126   5.272  0.1658 -0.4778  0.1039
10109SOL    HW231227   3.827   5.997   5.373  2.9836 -0.2667  0.5750
10110SOL     OW31228   0.838   5.901   3.496  0.0068  0.0051  0.4342
10110SOL    HW131229   0.893   5.913   3.578  2.0389 -0.1862 -0.8453
10110SOL    HW231230   0.847   5.807   3.463  0.3933  0.4621 -0.8123
10111SOL     OW31231   1.418   5.739   2.663 -0.6510  0.1001  1.1119
10111SOL    HW131232   1.374   5.675   2.599  1.2524 -1.9488  1.7449
10111SOL    HW231233   1.359   5.751   2.743 -0.7072 -1.5594  1.3549
10112SOL     OW31234   4.964   6.713   4.927  0.4557  0.2929 -0.8222
10112SOL    HW131235   5.030   6.683   4.996  0.0746 -0.6026 -0.8376
10112SOL    HW231236   4.951   6.812   4.934  0.2129  0.1777  0.5860
10113SOL     OW31237   4.423   6.636   3.736 -0.3237 -0.3425  0.4911
10113SOL    HW131238   4.424   6.589   3.648  0.4984 -2.5658  1.5925
10113SOL    HW231239   4.334   6.621   3.780 -0.2547 -0.4158  0.6075
10114SOL     OW31240   0.723   3.751   1.823 -0.1714 -0.0790 -0.3997
10114SOL    HW131241   0.625   3.737   1.837  0.0475 -0.7248  0.5951
10114SOL    HW231242   0.752   3.834   1.871 -0.1383 -0.1750 -0.2525
10115SOL     OW31243   3.253   6.396   0.135  0.1908  0.4258 -0.4128
10115SOL    HW131244   3.193   6.474   0.153 -0.8112  0.3700 -3.0929
10115SOL    HW231245   3.249   6.333   0.213 -1.4668  1.5262  0.4599
10116SOL     OW31246   4.185   3.611   5.086 -0.7223  0.5570 -0.5456
10116SOL    HW131247   4.144   3.685   5.032 -0.5321  1.1771  0.1384
10116SOL    HW231248   4.257   3.567   5.032 -0.5243  1.1772 -0.7993
10117SOL     OW31249   6.237   0.241   6.357  0.0515  0.0506 -0.9918
10117SOL    HW131250   6.190   0.184   6.290 -0.9078  0.2408 -0.4913
10117SOL    HW231251   6.250   0.189   6.441 -0.2267  0.3519 -0.7609
10118SOL     OW31252   4.492   2.028   6.250  0.0211  0.1283 -0.1517
10118SOL    HW131253   4.423   1.956   6.236  0.3773  0.0225 -1.5032
10118SOL    HW231254   4.558   2.025   6.176 -0.4053  2.3642 -0.6808
10119SOL     OW31255   0.469   0.094   1.550 -0.3237 -0.5516 -0.2186
10119SOL    HW131256   0.499   0.017   1.493  0.4258  0.7162 -1.6212
10119SOL    HW231257   0.497   0.180   1.507 -1.3198  0.5310  1.1962
10120SOL     OW31258   3.292   4.959   0.069 -0.3461 -0.0659 -0.0183
10120SOL    HW131259   3.310   5.055   0.045 -0.3361 -0.0163  0.1844
10120SOL    HW231260   3.277   4.906  -0.015 -0.4668  0.1355 -0.1269
10121SOL     OW31261   0.528   1.627   1.798 -0.2136  0.4265 -0.3348
10121SOL    HW131262   0.510   1.724   1.785  0.2697  0.4316 -1.0164
10121SOL    HW231263   0.443   1.575   1.785 -0.4598  0.7470 -0.0203
10122SOL     OW31264   0.959   6.189   0.440 -0.5019 -0.2612  0.2456
10122SOL    HW131265   1.017   6.271   0.442 -0.3230 -0.3619 -0.5418
10122SOL    HW231266   1.016   6.108   0.435 -0.6903 -0.4234  0.6891
10123SOL     OW31267   2.352   6.344   5.901 -0.2913  0.2033  0.0465
10123SOL    HW131268   2.273   6.293   5.934  0.4173 -1.1171 -0.2301
10123SOL    HW231269   2.433   6.315   5.951  0.3262  0.1815 -0.9505
10124SOL     OW31270   4.674   5.733   3.718  0.4309 -0.0151 -0.3161
10124SOL    HW131271   4.632   5.699   3.802  1.9891 -1.6903 -0.1467
10124SOL    HW231272   4.768   5.760   3.737  0.7821 -0.3514 -1.4961
10125SOL     OW31273   4.077   0.042   3.181  0.5362 -0.4042 -0.6429
10125SOL    HW131274   4.022   0.099   3.119 -0.5256 -0.3893  0.2706
10125SOL    HW231275   4.081  -0.051   3.146  1.2786 -0.0415 -1.5394
10126SOL     OW31276   6.970   1.449   2.790  0.1050  0.0656  0.2330
10126SOL    HW131277   6.923   1.535   2.772  0.9071  0.5682  0.4946
10126SOL    HW231278   6.946   1.416   2.881 -0.7036 -0.3346 -0.1087
10127SOL     OW31279   5.691   1.578   3.897  0.0307  0.2749 -0.1376
10127SOL    HW131280   5.601   1.573   3.938 -0.0410  0.5121 -0.2590
10127SOL    HW231281   5.733   1.488   3.896 -0.5338  0.0131 -0.8129
10128SOL     OW31282   4.214   0.437   6.024  0.6906  0.2501  0.0785
10128SOL    HW131283   4.300   0.435   6.074 -0.2470  1.1218  1.8350
10128SOL    HW231284   4.143   0.479   6.081 -0.1794  2.4723 -2.4257
10129SOL     OW31285   0.659   3.743   6.403  0.6337 -0.3785  0.4693
10129SOL    HW131286   0.649   3.645   6.417  3.8479 -1.0139 -0.9614
10129SOL    HW231287   0.756   3.767   6.402 -0.0202  2.6279 -0.4701
10130SOL     OW31288   5.680   4.077   2.873 -0.5481  0.5210  0.3695
10130SOL    HW131289   5.630   3.992   2.888  0.4043  0.2913  2.5229
10130SOL    HW231290   5.735   4.098   2.953  0.1906  2.5479 -0.6070
10131SOL     OW31291   2.097   4.644   1.794  0.0111  0.0259  0.3727
10131SOL    HW131292   2.172   4.684   1.741  0.4074 -0.9763  0.1632
10131SOL    HW231293   2.052   4.716   1.847  2.0452  0.4335  1.6487
10132SOL     OW31294   1.966   2.662   3.134  0.2771 -0.5108  0.2092
10132SOL    HW131295   1.938   2.623   3.047  1.2536 -1.4243  0.2860
10132SOL    HW231296   2.048   2.718   3.121  0.3778 -0.5821  0.5209
10133SOL     OW31297   6.542   3.759   5.231 -0.5533  0.4443  0.2055
10133SOL    HW131298   6.623   3.706   5.206 -0.8088 -0.2005  0.6922
10133SOL    HW231299   6.461   3.701   5.221 -1.3374  1.9127 -3.1328
10134SOL     OW31300   3.892   2.691   5.532 -0.2522  0.0530 -0.1579
10134SOL    HW131301   3.861   2.731   5.446  0.1816 -0.0461 -0.3627
10134SOL    HW231302   3.933   2.762   5.589 -0.4214  0.0941 -0.0870
10135SOL     OW31303   0.857   5.087   5.760  0.4381  0.0488 -0.4308
10135SOL    HW131304   0.787   5.153   5.785 -0.2931  0.0499 -2.2980
10135SOL    HW231305   0.948   5.129   5.768 -0.0167  1.2937 -1.5443
10136SOL     OW31306   6.099   5.774   0.633 -0.1497 -0.4208  0.6408
10136SOL    HW131307   6.132   5.757   0.540 -0.8739  1.5915 -0.0142
10136SOL    HW231308   6.159   5.840   0.678 -0.8000 -0.0737  0.9999
10137SOL     OW31309   1.636   4.961   2.958  0.2046  0.5906  0.4924
10137SOL    HW131310   1.680   5.041   3.000 -1.6223  2.1459 -0.3960
10137SOL    HW231311   1.558   4.933   3.014 -0.0037  0.3257  0.0748
10138SOL     OW31312   1.822   1.083   3.198  0.2447 -0.2280 -0.3973
10138SOL    HW131313   1.867   1.014   3.256  0.0095 -0.3004 -0.2985
10138SOL    HW231314   1.728   1.096   3.230  0.5220  0.6990  0.0623
10139SOL     OW31315   1.064   4.356   1.978  0.4242  0.3585 -0.2848
10139SOL    HW131316   1.045   4.447   2.014 -0.2447  0.1744 -0.1615
10139SOL    HW231317   0.989   4.328   1.917  0.0507 -0.5801  0.5842
10140SOL     OW31318   6.341   2.681   3.485  0.1041 -0.0228 -0.4356
10140SOL    HW131319   6.278   2.606   3.466 -0.4857  0.4847 -0.5429
10140SOL    HW231320   6.423   2.671   3.430  0.5063 -1.1650  0.3347
10141SOL     OW31321   5.608   6.186   5.165  0.4801 -0.0381 -0.1210
10141SOL    HW131322   5.650   6.277   5.169  2.9046 -1.1258  2.4519
10141SOL    HW231323   5.632   6.143   5.078 -1.9213  2.1652 -2.0551
10142SOL     OW31324   0.615   3.838   0.686  0.5439  0.0044  0.4768
10142SOL    HW131325   0.712   3.826   0.663  0.7397  1.1496  0.6712
10142SOL    HW231326   0.576   3.911   0.630  0.1911  0.6044  1.4862
10143SOL     OW31327   5.194   0.885   3.903  0.3374 -0.3769  0.1367
10143SOL    HW131328   5.267   0.874   3.971 -0.2511  0.0105  0.8514
10143SOL    HW231329   5.130   0.956   3.935 -0.5516 -0.9702 -0.3047
10144SOL     OW31330   6.012   6.207   3.798  0.3470 -0.5259  0.0113
10144SOL    HW131331   6.041   6.185   3.891  0.3252 -0.3781  0.0535
10144SOL    HW231332   6.074   6.276   3.759 -0.6816  0.7606  0.5659
10145SOL     OW31333   2.112   3.372   6.382  0.5741  0.2423  0.3749
10145SOL    HW131334   2.181   3.443   6.367 -0.0422  0.8383  0.3515
10145SOL    HW231335   2.099   3.320   6.297  0.6028  0.4782  0.2245
10146SOL     OW31336   4.960   4.469   3.893  0.4376  0.4261 -0.5112
10146SOL    HW131337   4.860   4.477   3.893  0.3977  0.1120 -2.0219
10146SOL    HW231338   4.999   4.534   3.827  1.1419 -0.4199 -0.9371
10147SOL     OW31339   1.093   4.397   1.048  0.6070 -0.5938  0.1885
10147SOL    HW131340   1.074   4.330   0.976  1.8263 -0.9904  0.2164
10147SOL    HW231341   1.158   4.466   1.013  0.0258  0.0912  0.4317
10148SOL     OW31342   2.991   1.066   6.389 -0.5207 -0.1629 -0.4142
10148SOL    HW131343   3.079   1.021   6.403 -1.5119 -1.6111  1.8249
10148SOL    HW231344   2.996   1.160   6.421  0.0043 -0.5072  0.5698
10149SOL     OW31345   0.663   4.268   2.170 -0.0284  0.5069 -0.4619
10149SOL    HW131346   0.756   4.232   2.180  0.2258  1.0217 -0.9462
10149SOL    HW231347   0.652   4.309   2.080 -0.6525  0.6801 -0.3163
10150SOL     OW31348   6.001   0.710   0.614  0.0530  0.0096 -0.8772
10150SOL    HW131349   5.933   0.700   0.686  0.4736  0.7831 -0.3640
10150SOL    HW231350   6.036   0.619   0.588  0.7637 -0.2169  0.7393
10151SOL     OW31351   1.892   6.159   2.915 -0.1079 -0.0997 -1.0772
10151SOL    HW131352   1.876   6.196   3.006 -0.8278  0.4479 -1.4222
10151SOL    HW231353   1.903   6.059   2.921 -1.1483 -0.1871 -0.5220
10152SOL     OW31354   6.672   3.818   6.294 -0.2485 -0.0497  0.6200
10152SOL    HW131355   6.628   3.836   6.382 -3.3806 -1.7908 -0.4362
10152SOL    HW231356   6.670   3.901   6.238  0.7312  0.7386  1.6857
10153SOL     OW31357   5.461   0.598   0.989  0.5461  0.0120  0.0881
10153SOL    HW131358   5.554   0.604   1.025  0.0310  0.1326  1.4745
10153SOL    HW231359   5.396   0.597   1.066 -0.8175  3.5706 -0.8307
10154SOL     OW31360   0.751   2.508   5.360 -0.5856  0.6340  0.4826
10154SOL    HW131361   0.828   2.528   5.421  1.9980 -0.4192 -2.1712
10154SOL    HW231362   0.719   2.592   5.317  2.9097  0.6886 -2.4603
10155SOL     OW31363   4.345   6.028   4.618 -0.2802 -0.4913 -0.0620
10155SOL    HW131364   4.437   5.993   4.637 -0.7629 -2.0425 -0.3940
10155SOL    HW231365   4.289   6.022   4.701 -0.2532 -0.1667 -0.0229
10156SOL     OW31366   3.176   5.259   2.953 -0.1403 -0.1005  0.4266
10156SOL    HW131367   3.245   5.217   3.012  0.5038  1.0331  0.5270
10156SOL    HW231368   3.085   5.226   2.979  0.1017  0.4987  2.2108
10157SOL     OW31369   2.810   0.905   1.498  0.1519  0.1239  0.2257
10157SOL    HW131370   2.763   0.832   1.449 -0.9803  1.0244 -0.0926
10157SOL    HW231371   2.749   0.943   1.567  0.2843  1.5238 -0.3920
10158SOL     OW31372   2.073   0.078   6.424  0.7502 -0.2419  0.3686
10158SOL    HW131373   2.170   0.078   6.399  0.8110  6.1763 -1.0760
10158SOL    HW231374   2.019   0.044   6.347  1.7376  0.1653 -0.5229
10159SOL     OW31375   1.053   1.537   2.502 -0.3134 -0.0466 -0.5030
10159SOL    HW131376   1.079   1.625   2.461 -0.6709 -0.2894 -1.2706
10159SOL    HW231377   0.954   1.534   2.514 -0.2526 -0.1546 -0.0220
10160SOL     OW31378   1.975   4.516   4.620  0.2310  0.0784  0.2827
10160SOL    HW131379   2.053   4.556   4.572  0.3014 -1.4694 -0.9818
10160SOL    HW231380   1.945   4.578   4.692  1.4324  1.5549 -0.4261
10161SOL     OW31381   1.639   6.246   1.008 -0.9408  0.4055  0.6734
10161SOL    HW131382   1.600   6.328   0.966  0.7470 -0.3339 -2.6770
10161SOL    HW231383   1.738   6.260   1.021  0.1660 -2.0858 -3.3103
10162SOL     OW31384   5.798   0.187   2.198 -0.3111 -0.1364  0.2630
10162SOL    HW131385   5.888   0.222   2.173  1.0001 -2.1886  1.7208
10162SOL    HW231386   5.803   0.087   2.210 -2.3181 -0.0947  2.2207
10163SOL     OW31387   0.802   2.776   5.804 -0.4783 -0.6107  0.2214
10163SOL    HW131388   0.897   2.750   5.788 -0.5374 -1.2593  0.8485
10163SOL    HW231389   0.799   2.855   5.866 -0.2803  1.3850 -2.1604
10164SOL     OW31390   6.844   5.494   4.063 -0.2483 -0.1556  0.3988
10164SOL    HW131391   6.897   5.427   4.010 -0.3782  0.0441  0.0148
10164SOL    HW231392   6.773   5.447   4.115  1.4736 -0.6717  2.4045
10165SOL     OW31393   3.813   3.840   1.890 -0.4809 -0.5905  0.0813
10165SOL    HW131394   3.821   3.928   1.937 -0.1732  0.1552 -1.3239
10165SOL    HW231395   3.895   3.825   1.835 -1.0181 -1.2478 -0.5458
10166SOL     OW31396   0.546   3.927   6.642 -0.4266  0.1371  0.3419
10166SOL    HW131397   0.477   3.983   6.597 -0.0470  0.2947 -0.0529
10166SOL    HW231398   0.599   3.877   6.573 -0.6130 -0.5377  0.6792
10167SOL     OW31399   0.158   4.320   2.742 -0.1051 -0.7497 -0.3305
10167SOL    HW131400   0.203   4.402   2.776 -0.2138 -0.8217 -0.0091
10167SOL    HW231401   0.091   4.346   2.672 -0.2777 -0.5412 -0.0936
10168SOL     OW31402   4.466   1.912   4.896  0.3664  0.4375  0.3475
10168SOL    HW131403   4.376   1.953   4.884  0.4176  0.7679  1.0112
10168SOL    HW231404   4.537   1.978   4.871  0.4260  0.2165 -0.0687
10169SOL     OW31405   2.996   1.782   5.575  0.0934 -0.3091 -0.7548
10169SOL    HW131406   3.077   1.755   5.524 -0.0863 -1.4464 -0.4635
10169SOL    HW231407   2.992   1.733   5.662 -1.3077 -0.8980 -1.1115
10170SOL     OW31408   2.166   1.019   3.527  0.2305 -0.4329  0.4085
10170SOL    HW131409   2.254   1.007   3.480 -0.4759  1.7800 -1.6800
10170SOL    HW231410   2.174   0.987   3.622  2.5057 -2.6287 -0.4292
10171SOL     OW31411   1.211   0.980   6.323  0.1747  0.2623 -0.0725
10171SOL    HW131412   1.118   1.006   6.350  0.9189  2.2387  0.7444
10171SOL    HW231413   1.249   1.050   6.263  2.1012  0.9097  1.8011
10172SOL     OW31414   1.523   2.582   1.085 -0.2555  0.1502 -0.4846
10172SOL    HW131415   1.439   2.632   1.062 -0.4699 -0.5239 -1.2194
10172SOL    HW231416   1.518   2.551   1.181 -0.6619  0.4789 -0.3965
10173SOL     OW31417   3.794   5.450   5.106 -0.1772 -0.4707  0.3915
10173SOL    HW131418   3.737   5.407   5.177 -1.1763 -2.2782 -1.4086
10173SOL    HW231419   3.748   5.443   5.018  2.3087 -0.9246 -0.9524
10174SOL     OW31420   4.518   5.095   5.685  0.4476  0.6281  0.0600
10174SOL    HW131421   4.541   5.042   5.766 -1.0656  2.3231  1.6860
10174SOL    HW231422   4.518   5.193   5.707 -1.2226  1.0831 -1.6448
10175SOL     OW31423   2.725   6.918   3.505 -0.3187  0.2414  0.2586
10175SOL    HW131424   2.674   6.869   3.434 -1.3361  0.2012  0.9972
10175SOL    HW231425   2.712   6.872   3.593  1.1413  0.1369  0.4392
10176SOL     OW31426   6.075   0.721   5.751  0.0257  0.0746 -0.0366
10176SOL    HW131427   6.115   0.630   5.737  1.1995  0.7707 -1.5982
10176SOL    HW231428   6.062   0.765   5.662  1.1060  2.1040  0.7370
10177SOL     OW31429   1.233   4.161   3.294 -0.1865 -0.4228  0.4081
10177SOL    HW131430   1.286   4.114   3.365 -0.9498 -1.2549  0.4464
10177SOL    HW231431   1.137   4.166   3.322  0.0372  2.2840  0.9840
10178SOL     OW31432   4.240   5.043   2.819 -0.4680 -0.1070  0.0816
10178SOL    HW131433   4.289   5.126   2.792  0.0990 -0.3533  0.3349
10178SOL    HW231434   4.166   5.067   2.882 -1.4984  0.4157 -1.2962
10179SOL     OW31435   4.663   2.464   2.055 -0.2490  0.0716 -0.6815
10179SOL    HW131436   4.664   2.369   2.024 -2.6275  0.4568 -2.1818
10179SOL    HW231437   4.748   2.484   2.105  0.6414 -2.5821 -0.9904
10180SOL     OW31438   6.386   4.023   2.908 -0.2203  0.0742  0.3302
10180SOL    HW131439   6.372   4.010   3.006  3.3833  0.8728  1.0993
10180SOL    HW231440   6.419   4.116   2.890  2.3192 -0.9703 -1.0794
10181SOL     OW31441   6.000   5.751   3.927  0.5009  0.0979 -0.8313
10181SOL    HW131442   5.996   5.819   4.001 -2.5873  1.8417 -2.4372
10181SOL    HW231443   5.984   5.796   3.840  0.5645 -2.4477 -2.2411
10182SOL     OW31444   5.207   5.881   0.079  0.0950 -0.0070  0.2909
10182SOL    HW131445   5.272   5.823   0.127  0.3257  0.6003  0.7312
10182SOL    HW231446   5.124   5.892   0.135  0.3162  0.6043  0.5124
10183SOL     OW31447   4.969   5.571   3.036 -0.2863 -0.1278 -0.5713
10183SOL    HW131448   5.036   5.600   3.104 -0.8816  0.2634 -0.1342
10183SOL    HW231449   4.966   5.637   2.962 -1.5435  0.9189  0.3573
10184SOL     OW31450   1.416   4.568   6.944  0.7348 -0.2122  0.1154
10184SOL    HW131451   1.447   4.506   7.016 -0.0803 -1.3000 -0.4401
10184SOL    HW231452   1.382   4.652   6.985 -0.0930 -0.9721  1.0485
10185SOL     OW31453   0.940   1.517   1.323  0.1325 -0.2811 -0.2544
10185SOL    HW131454   0.863   1.573   1.353 -0.6906 -0.9656 -1.0476
10185SOL    HW231455   0.936   1.427   1.366  0.1142 -0.5440 -0.7966
10186SOL     OW31456   0.336   1.438   3.011  0.2538  0.4487 -0.1402
10186SOL    HW131457   0.349   1.375   2.935  0.5410  1.2903 -0.7984
10186SOL    HW231458   0.314   1.529   2.976 -0.0171  0.7553  0.7924
10187SOL     OW31459   6.780   5.584   4.830  0.0524 -0.8212  0.0687
10187SOL    HW131460   6.746   5.612   4.741  1.0697 -2.1577 -0.7959
10187SOL    HW231461   6.706   5.587   4.898 -0.7670  0.0668 -0.8470
10188SOL     OW31462   3.305   6.331   4.884 -1.1951 -0.3178 -0.0003
10188SOL    HW131463   3.320   6.276   4.802 -0.6534  0.4598 -0.4291
10188SOL    HW231464   3.208   6.326   4.909 -1.2312 -1.1429 -0.2564
10189SOL     OW31465   6.898   0.124   4.343  0.9902 -0.3202  0.1605
10189SOL    HW131466   6.861   0.187   4.411 -0.5555  1.8109 -2.4408
10189SOL    HW231467   6.829   0.054   4.322  0.9018 -0.1321 -0.1855
10190SOL     OW31468   0.037   4.419   1.496  0.1855  0.4627 -0.1066
10190SOL    HW131469  -0.021   4.338   1.508  1.9585 -0.9347 -0.3663
10190SOL    HW231470  -0.019   4.498   1.474 -1.5459 -0.9767 -1.1583
10191SOL     OW31471   1.131   2.144   4.054 -0.0376  0.3223  0.3622
10191SOL    HW131472   1.170   2.193   4.132  0.6387 -0.2579  0.3964
10191SOL    HW231473   1.033   2.163   4.049  0.0012  0.7517  1.0642
10192SOL     OW31474   1.166   3.661   4.305 -0.2344  0.1640  0.3815
10192SOL    HW131475   1.228   3.591   4.341 -2.1379 -1.2989  1.0043
10192SOL    HW231476   1.158   3.736   4.370 -0.2188 -0.3308  0.9642
10193SOL     OW31477   2.176   6.884   6.113  0.3220 -0.2422 -0.1670
10193SOL    HW131478   2.125   6.844   6.037 -0.4311 -0.2348  0.3212
10193SOL    HW231479   2.198   6.980   6.092 -2.0801  0.5626  0.6067
10194SOL     OW31480   1.150   0.245   1.544  0.0584 -0.3776 -0.2680
10194SOL    HW131481   1.249   0.242   1.531  0.3634 -0.3821  1.7426
10194SOL    HW231482   1.110   0.313   1.482  0.8945 -2.2851 -3.1451
10195SOL     OW31483   1.699   0.086   6.637  0.2141  0.0447  0.0110
10195SOL    HW131484   1.781   0.140   6.620 -0.1098  1.0168  1.3749
10195SOL    HW231485   1.618   0.143   6.626 -0.1007  0.2234  2.5272
10196SOL     OW31486   6.549   0.591   2.507 -0.1629 -0.0892  0.1446
10196SOL    HW131487   6.578   0.685   2.520 -0.6702  0.0474  0.3206
10196SOL    HW231488   6.481   0.586   2.434  0.3330 -0.4108 -0.3034
10197SOL     OW31489   0.116   3.825   6.174  0.1625  0.3106  0.1848
10197SOL    HW131490   0.179   3.870   6.111  1.5968 -0.3163  1.1223
10197SOL    HW231491   0.040   3.785   6.122 -0.3957  2.5072 -0.7938
10198SOL     OW31492   2.263   0.705   2.683  0.1629  0.5554  0.6876
10198SOL    HW131493   2.347   0.759   2.681  0.3096  0.4487  2.5177
10198SOL    HW231494   2.185   0.765   2.702  0.0390  0.4031  0.6699
10199SOL     OW31495   2.542   2.805   5.338  0.4690 -0.0878 -0.0251
10199SOL    HW131496   2.504   2.887   5.295  0.5874 -0.8718 -1.7227
10199SOL    HW231497   2.633   2.826   5.374 -0.9605  1.5002  3.0814
10200SOL     OW31498   6.522   6.423   3.033 -1.0827  0.0258  0.5391
10200SOL    HW131499   6.437   6.461   3.069 -0.6185  1.3636  0.2668
10200SOL    HW231500   6.516   6.323   3.033 -3.7510  0.0251 -2.0140
10201SOL     OW31501   1.552   4.590   1.155 -0.4484  0.5163  0.3084
10201SOL    HW131502   1.648   4.562   1.164 -1.1776 -2.2050  0.5963
10201SOL    HW231503   1.498   4.547   1.227 -2.4295 -0.9860 -1.9296
10202SOL     OW31504   6.710   3.092   6.703 -0.5454  0.6300  0.3374
10202SOL    HW131505   6.690   3.027   6.777 -1.3151  0.3805 -0.0800
10202SOL    HW231506   6.697   3.185   6.736 -2.2102  0.4906  0.1650
10203SOL     OW31507   0.135   1.077   0.050  1.0421 -0.2372  0.1117
10203SOL    HW131508   0.130   1.119   0.140 -1.7739 -0.2534  0.0490
10203SOL    HW231509   0.150   0.978   0.060  1.9489 -0.0716  0.4828
10204SOL     OW31510   5.180   2.827   5.500  0.3875  0.4157 -0.1767
10204SOL    HW131511   5.086   2.858   5.487  0.5421  1.1051  0.2636
10204SOL    HW231512   5.185   2.728   5.486 -0.3859  0.3828 -0.2727
10205SOL     OW31513   1.345   2.768   4.769  0.0101  0.9404 -0.6664
10205SOL    HW131514   1.399   2.811   4.696  0.1880  0.5168 -0.7841
10205SOL    HW231515   1.394   2.777   4.856  1.4482 -1.5290 -1.1412
10206SOL     OW31516   3.295   3.777   6.398 -0.1303 -0.7498  0.5337
10206SOL    HW131517   3.288   3.844   6.472  0.3868  1.6006 -1.4129
10206SOL    HW231518   3.204   3.760   6.359 -0.5954 -2.9347  2.3940
10207SOL     OW31519   0.908   0.452   4.784  0.4709  0.1587 -0.1957
10207SOL    HW131520   0.989   0.399   4.758  0.3172 -1.0329  1.5636
10207SOL    HW231521   0.845   0.393   4.835  0.6188  2.1785  2.5328
10208SOL     OW31522   4.027   3.614   2.413 -0.1741 -0.0896 -0.7122
10208SOL    HW131523   4.044   3.644   2.319  0.8179  2.9989  0.3619
10208SOL    HW231524   3.945   3.659   2.448  0.5304  0.2493  0.5205
10209SOL     OW31525   2.083   2.720   4.706 -0.3446  0.5867  0.3908
10209SOL    HW131526   2.156   2.783   4.734 -0.5990  0.1190  2.1877
10209SOL    HW231527   2.007   2.725   4.770 -0.1809 -1.8857  0.9005
10210SOL     OW31528   5.543   6.490   4.941  0.6045 -1.0055  0.3155
10210SOL    HW131529   5.602   6.427   4.891 -1.0720 -0.5211 -2.4921
10210SOL    HW231530   5.465   6.515   4.883 -1.1420  0.1733  2.9914
10211SOL     OW31531   4.988   1.479   4.741  0.2707 -0.0852  0.5175
10211SOL    HW131532   5.057   1.447   4.806  0.7139  0.7887  0.4865
10211SOL    HW231533   4.933   1.551   4.783 -1.8736 -2.0160  1.2065
10212SOL     OW31534   6.513   2.286   5.660  0.5197 -0.0527 -0.2645
10212SOL    HW131535   6.511   2.188   5.679 -0.1650 -0.7527 -3.4306
10212SOL    HW231536   6.606   2.313   5.632  0.3370 -0.1538 -0.9740
10213SOL     OW31537   2.625   1.640   5.139 -0.2163  0.2184 -0.0557
10213SOL    HW131538   2.678   1.568   5.095 -2.2562 -0.7519 -1.0590
10213SOL    HW231539   2.528   1.627   5.120 -0.8328  2.1219  1.4031
10214SOL     OW31540   4.726   2.161   5.758  0.3257  0.7295  0.2124
10214SOL    HW131541   4.816   2.152   5.715  0.4730  1.4101  0.3668
10214SOL    HW231542   4.685   2.248   5.731 -0.4628  0.2481 -0.1748
10215SOL     OW31543   2.739   4.659   6.242  0.1185 -0.2008  0.1913
10215SOL    HW131544   2.831   4.620   6.242 -0.0169 -0.5248 -0.7312
10215SOL    HW231545   2.718   4.695   6.152 -0.7633 -0.3619  0.3290
10216SOL     OW31546   0.032   4.297   6.879 -0.2162  0.0388 -0.4305
10216SOL    HW131547   0.035   4.218   6.940 -1.1124  1.2679  1.2719
10216SOL    HW231548  -0.063   4.318   6.856 -0.0067  0.8045 -0.6272
10217SOL     OW31549   5.067   6.584   4.723 -0.1219  0.4525  0.3931
10217SOL    HW131550   5.008   6.627   4.792 -1.7195  1.5003 -1.5260
10217SOL    HW231551   5.087   6.650   4.651  1.7649 -0.5227 -0.0463
10218SOL     OW31552   2.454   1.637   0.047 -0.2898  0.5674 -0.0767
10218SOL    HW131553   2.447   1.734   0.024 -0.0081  0.2016 -1.8708
10218SOL    HW231554   2.512   1.591  -0.021 -0.9061 -0.9718  0.3964
10219SOL     OW31555   5.688   2.868   5.678 -0.3418 -0.4296  0.5074
10219SOL    HW131556   5.649   2.959   5.666 -0.9005 -0.4826  1.8067
10219SOL    HW231557   5.659   2.809   5.601 -0.2988  0.3694 -0.1287
10220SOL     OW31558   4.486   0.436   5.220 -0.5790  0.4139  0.1885
10220SOL    HW131559   4.404   0.388   5.253  0.0911 -1.7567 -1.0536
10220SOL    HW231560   4.467   0.475   5.130 -0.3497  0.1731  0.0352
10221SOL     OW31561   4.576   1.955   0.924  0.8965  0.2096  0.4867
10221SOL    HW131562   4.537   2.044   0.898 -0.2830 -0.0103  1.3838
10221SOL    HW231563   4.531   1.923   1.008  0.2939 -1.9001 -0.5732
10222SOL     OW31564   0.294   4.452   4.476 -0.5204  0.5121  0.2413
10222SOL    HW131565   0.197   4.476   4.467 -0.1094  2.0220 -0.4947
10222SOL    HW231566   0.303   4.354   4.494 -2.1096  0.0667 -1.1785
10223SOL     OW31567   4.902   3.406   2.868 -0.2249 -0.5784 -0.0897
10223SOL    HW131568   4.904   3.391   2.967 -0.7977 -1.9634 -0.2583
10223SOL    HW231569   4.929   3.500   2.848 -0.6682 -0.0947  1.4196
10224SOL     OW31570   2.634   3.516   0.239 -0.2458  0.6659 -0.7712
10224SOL    HW131571   2.540   3.524   0.273  0.1989  1.5453  0.3227
10224SOL    HW231572   2.636   3.530   0.140 -1.1203  1.9484 -0.6256
10225SOL     OW31573   5.126   0.645   0.472 -0.3581  0.0945 -0.1777
10225SOL    HW131574   5.090   0.560   0.433 -2.6922  1.0444 -0.2271
10225SOL    HW231575   5.081   0.663   0.559  1.0782  0.6437  0.4844
10226SOL     OW31576   6.051   6.722   2.367 -0.4349  0.3705  0.3317
10226SOL    HW131577   6.104   6.801   2.398  0.0857  1.3187 -2.6881
10226SOL    HW231578   6.090   6.687   2.283 -1.2062 -2.6261  1.1200
10227SOL     OW31579   1.684   4.025   2.002 -0.1610  0.2744 -0.5410
10227SOL    HW131580   1.591   4.057   1.984 -0.4591 -0.6519 -0.7453
10227SOL    HW231581   1.681   3.955   2.074  0.5001  0.9123  0.1188
10228SOL     OW31582   4.151   6.290   4.778  0.3556 -0.3583  0.4527
10228SOL    HW131583   4.226   6.264   4.839 -1.0752  0.7515  2.8365
10228SOL    HW231584   4.150   6.390   4.769 -0.7784 -0.3626  0.4143
10229SOL     OW31585   6.530   1.276   2.934 -0.4316  0.0826  0.2431
10229SOL    HW131586   6.552   1.222   3.014 -0.8587 -0.3362  0.0812
10229SOL    HW231587   6.445   1.243   2.893 -1.3965  1.6600  0.8583
10230SOL     OW31588   4.350   5.286   2.733  0.4595 -0.6119  0.2784
10230SOL    HW131589   4.436   5.248   2.701 -0.0402 -1.3462 -0.2203
10230SOL    HW231590   4.365   5.379   2.767  1.3868 -0.6242 -0.0741
10231SOL     OW31591   4.803   3.012   3.999  0.2687 -0.6029  0.2579
10231SOL    HW131592   4.807   3.106   3.965 -0.8485 -0.7576 -0.3513
10231SOL    HW231593   4.829   3.010   4.095  2.6582 -0.0177 -0.2974
10232SOL     OW31594   2.667   0.213   2.766 -0.1151 -0.9190  0.1083
10232SOL    HW131595   2.595   0.282   2.764 -0.7616 -1.5551  0.7302
10232SOL    HW231596   2.625   0.122   2.768  0.7099 -1.4082 -2.0820
10233SOL     OW31597   3.207   5.664   6.893 -0.1977  0.7613  0.6092
10233SOL    HW131598   3.159   5.648   6.979  0.3756  0.4624  0.8847
10233SOL    HW231599   3.161   5.736   6.841 -1.2002  0.1543  0.6423
10234SOL     OW31600   7.022   5.547   1.327 -0.4842  0.4500 -0.6494
10234SOL    HW131601   6.969   5.541   1.412  0.6990 -2.0719 -0.0038
10234SOL    HW231602   7.116   5.574   1.347  0.9080 -3.8454 -0.4825
10235SOL     OW31603   1.204   3.747   3.033 -0.1493  0.0283 -0.0119
10235SOL    HW131604   1.167   3.756   3.125 -0.4883 -1.5740  0.0275
10235SOL    HW231605   1.291   3.698   3.036  0.8179  1.6147 -0.3774
10236SOL     OW31606   4.161   2.128   2.451 -0.0492 -0.2111 -0.1567
10236SOL    HW131607   4.095   2.147   2.524  1.0131  1.5271  0.4299
10236SOL    HW231608   4.117   2.076   2.378 -1.1326 -2.1295  1.7493
10237SOL     OW31609   2.072   1.470   3.104 -0.7534 -0.0851  0.0743
10237SOL    HW131610   2.130   1.392   3.081 -1.4861 -0.4264 -0.6441
10237SOL    HW231611   2.125   1.554   3.096 -0.3612 -0.3884 -0.5896
10238SOL     OW31612   4.916   0.981   3.660 -0.0200 -0.3250  0.1059
10238SOL    HW131613   4.828   0.984   3.612  1.0038 -0.3608 -1.8902
10238SOL    HW231614   4.968   1.064   3.641  1.5066 -1.4923 -1.1321
10239SOL     OW31615   3.213   0.234   1.629  0.2995  0.5007 -0.3283
10239SOL    HW131616   3.237   0.160   1.567 -1.2533 -0.8526  0.6225
10239SOL    HW231617   3.271   0.314   1.609  1.6630 -0.7646 -1.7003
10240SOL     OW31618   0.245   5.384   6.680  0.1072  0.1380  0.0115
10240SOL    HW131619   0.244   5.285   6.664  1.0802  0.1464 -0.1464
10240SOL    HW231620   0.198   5.404   6.766  1.6598 -0.6655  1.0780
10241SOL     OW31621   4.888   2.457   2.207  0.2764 -0.1420 -0.3944
10241SOL    HW131622   4.954   2.443   2.281 -1.3910 -3.1442  0.6933
10241SOL    HW231623   4.929   2.515   2.137  3.2947 -0.2047  1.1528
10242SOL     OW31624   0.416   6.936   0.091  0.2324 -0.0560  0.6764
10242SOL    HW131625   0.490   6.961   0.028  1.6789 -0.7681  2.0416
10242SOL    HW231626   0.444   6.954   0.185 -1.0636 -1.0069  1.2780
10243SOL     OW31627   3.005   0.468   0.288  0.0556 -0.1154  0.1635
10243SOL    HW131628   2.948   0.543   0.323 -1.0544  0.4011 -2.5612
10243SOL    HW231629   2.948   0.401   0.242  1.4795 -0.2129 -1.5894
10244SOL     OW31630   5.796   6.745   1.115 -0.4000  0.0178 -0.1245
10244SOL    HW131631   5.849   6.789   1.186 -0.1933 -1.4891  0.7031
10244SOL    HW231632   5.857   6.714   1.042 -0.4062  0.0837 -0.1582
10245SOL     OW31633   4.273   3.586   1.586 -0.3274 -0.3201 -0.5065
10245SOL    HW131634   4.204   3.635   1.533  0.3677 -1.7220 -2.8162
10245SOL    HW231635   4.228   3.520   1.646 -1.3194  3.1760  3.0053
10246SOL     OW31636   1.617   2.298   3.845 -0.2073 -0.3141 -0.3241
10246SOL    HW131637   1.609   2.325   3.749  1.4910  1.1933 -0.0959
10246SOL    HW231638   1.527   2.272   3.880 -1.1019  0.4442 -1.9434
10247SOL     OW31639   5.202   6.212   1.475  0.3845 -0.1703  0.0228
10247SOL    HW131640   5.239   6.304   1.483 -1.6317  0.5963  1.5604
10247SOL    HW231641   5.245   6.152   1.543 -1.0015  0.6833  1.7281
10248SOL     OW31642   0.687   5.722   3.235 -0.7699  0.0835  0.3206
10248SOL    HW131643   0.654   5.629   3.219 -0.7170  0.0841  0.2079
10248SOL    HW231644   0.701   5.768   3.147  0.6445 -0.2952  0.3334
10249SOL     OW31645   2.078   3.397   3.175  0.0329 -0.1151 -0.5088
10249SOL    HW131646   2.125   3.313   3.148 -1.8139 -1.3576  0.0167
10249SOL    HW231647   2.048   3.446   3.094 -1.0445 -1.2475 -0.8148
10250SOL     OW31648   4.584   4.386   0.646 -0.1871 -0.0008  0.2843
10250SOL    HW131649   4.601   4.374   0.744 -0.0413  0.3191  0.2974
10250SOL    HW231650   4.636   4.463   0.612 -2.4291  1.7402  0.5656
10251SOL     OW31651   2.020   6.667   2.497  0.5389  0.1960 -0.3111
10251SOL    HW131652   1.987   6.589   2.444 -0.1750 -0.0700  0.4958
10251SOL    HW231653   1.954   6.741   2.492 -0.1585 -0.2759  1.1753
10252SOL     OW31654   4.636   5.269   3.280  0.5129 -0.0645 -0.0974
10252SOL    HW131655   4.650   5.357   3.233 -1.8737 -0.5873 -1.9993
10252SOL    HW231656   4.559   5.277   3.342  0.3306 -0.8040 -0.2254
10253SOL     OW31657   1.925   2.797   2.009 -0.4741 -0.1522  0.3692
10253SOL    HW131658   1.994   2.864   1.982  1.5090 -2.6135 -1.0687
10253SOL    HW231659   1.874   2.767   1.928 -1.0730 -0.6680  0.9267
10254SOL     OW31660   3.351   1.740   4.072  0.3117 -0.2501  0.0660
10254SOL    HW131661   3.287   1.663   4.080 -0.0960  0.0948  0.1753
10254SOL    HW231662   3.415   1.738   4.149 -0.8569  0.5573  1.1157
10255SOL     OW31663   4.375   1.459   3.593 -0.5059  0.2121  0.0914
10255SOL    HW131664   4.331   1.455   3.683  0.9853 -3.1941  0.8038
10255SOL    HW231665   4.473   1.474   3.603 -0.2145 -0.8444 -0.8985
10256SOL     OW31666   4.656   2.680   3.441 -0.2013 -0.1591  0.3083
10256SOL    HW131667   4.615   2.662   3.530 -0.3081  1.2797  0.5747
10256SOL    HW231668   4.700   2.770   3.442 -0.3360 -0.0505 -1.1358
10257SOL     OW31669   0.719   0.264   7.009 -0.0082 -0.0171  0.3451
10257SOL    HW131670   0.623   0.273   7.037  0.2521  0.9418  0.9749
10257SOL    HW231671   0.772   0.340   7.046  0.1450  2.2279 -3.8547
10258SOL     OW31672   3.999   5.188   1.648 -0.1054  0.1021 -0.1873
10258SOL    HW131673   3.970   5.199   1.743 -1.0931  0.1600 -0.4753
10258SOL    HW231674   3.949   5.112   1.606 -2.0288  1.9563 -1.4973
10259SOL     OW31675   1.481   1.182   6.022 -0.4786  0.4282  0.3458
10259SOL    HW131676   1.436   1.110   5.969 -0.0921  0.8391 -0.5766
10259SOL    HW231677   1.502   1.149   6.114 -1.6777 -0.1223  0.4383
10260SOL     OW31678   4.237   0.701   3.682 -0.2890  0.4974 -0.0858
10260SOL    HW131679   4.337   0.692   3.688 -0.2614 -0.1612 -1.1762
10260SOL    HW231680   4.212   0.722   3.587 -1.3552 -1.9072 -0.3921
10261SOL     OW31681   6.772   3.605   4.316  0.0201  0.3988 -0.2628
10261SOL    HW131682   6.717   3.671   4.265  0.4263  1.6114  0.8239
10261SOL    HW231683   6.713   3.536   4.356 -0.4349  0.2127 -1.2253
10262SOL     OW31684   0.980   0.512   2.006 -0.2594  0.6023 -0.2981
10262SOL    HW131685   0.983   0.602   2.049  0.0031  0.7874 -0.6994
10262SOL    HW231686   1.045   0.451   2.052 -0.8613  0.4453  0.3529
10263SOL     OW31687   1.671   2.866   1.460 -0.5771 -0.4179  0.2990
10263SOL    HW131688   1.619   2.920   1.526  0.1712  1.4755 -0.5624
10263SOL    HW231689   1.766   2.898   1.459 -0.2403 -1.3751 -0.6862
10264SOL     OW31690   2.235   1.713   6.375 -0.2885  0.3435  0.3922
10264SOL    HW131691   2.230   1.679   6.282 -0.6456  2.8195 -0.5696
10264SOL    HW231692   2.144   1.715   6.416 -0.3842  0.9006  0.1535
10265SOL     OW31693   4.401   7.018   4.929 -0.0293  0.1127 -0.7576
10265SOL    HW131694   4.443   7.070   5.004 -0.0908 -1.5808  0.4958
10265SOL    HW231695   4.355   6.938   4.965  1.4325 -1.7474 -2.7382
10266SOL     OW31696   3.519   0.543   0.643  0.1436 -0.2419  0.1116
10266SOL    HW131697   3.598   0.602   0.633 -1.1483  1.5590  0.0649
10266SOL    HW231698   3.479   0.554   0.734  0.1064 -1.3726  0.2572
10267SOL     OW31699   6.571   3.078   0.641 -0.1443 -0.1151  0.0983
10267SOL    HW131700   6.631   3.090   0.720 -1.4946  1.6113  0.9343
10267SOL    HW231701   6.570   2.982   0.614 -0.3976 -0.9573  2.8313
10268SOL     OW31702   1.590   4.974   1.312  0.6540 -0.5983 -0.1773
10268SOL    HW131703   1.545   4.962   1.223  0.1858 -1.8977  0.2178
10268SOL    HW231704   1.618   5.070   1.322 -0.8006 -0.0450 -1.0158
10269SOL     OW31705   6.289   3.029   4.325 -0.4177 -0.6481  0.7393
10269SOL    HW131706   6.246   3.049   4.413  0.4516 -0.4058  1.1183
10269SOL    HW231707   6.370   3.087   4.313 -0.8937 -0.1883 -0.5180
10270SOL     OW31708   6.288   4.658   3.828 -0.3639 -0.1026 -0.0113
10270SOL    HW131709   6.364   4.677   3.890  0.3730 -1.2024 -0.5340
10270SOL    HW231710   6.324   4.626   3.740 -1.4345 -1.5976  0.0517
10271SOL     OW31711   3.380   3.094   5.221 -0.3150  0.4892 -0.6638
10271SOL    HW131712   3.399   3.001   5.190 -1.5939  0.0134 -0.1012
10271SOL    HW231713   3.318   3.138   5.156  0.3551  0.9933 -0.9731
10272SOL     OW31714   4.319   3.639   0.185  0.1019  0.3939  0.1758
10272SOL    HW131715   4.338   3.721   0.240  0.6490  0.4272 -0.0559
10272SOL    HW231716   4.333   3.660   0.088 -0.5090  0.2365  0.0479
10273SOL     OW31717   5.391   6.399   1.191  0.6583  0.1010  0.2787
10273SOL    HW131718   5.392   6.472   1.259  2.3503 -0.0217  0.4414
10273SOL    HW231719   5.471   6.408   1.131  0.8403 -1.5425  0.2265
10274SOL     OW31720   6.382   3.710   6.078  0.2371  0.5374  0.3617
10274SOL    HW131721   6.423   3.708   5.987  1.5112 -0.1667  0.9340
10274SOL    HW231722   6.397   3.800   6.120  0.7865  0.4303  0.3908
10275SOL     OW31723   4.021   5.460   5.726  0.2053  0.1012  0.6665
10275SOL    HW131724   4.076   5.378   5.740  0.0521  0.0159  0.7637
10275SOL    HW231725   3.982   5.459   5.634  0.1370  0.0281  0.6971
10276SOL     OW31726   2.818   5.747   6.686  0.5732  0.1766 -0.1093
10276SOL    HW131727   2.804   5.738   6.784 -0.1900 -2.1160 -0.3617
10276SOL    HW231728   2.734   5.783   6.644  0.4743  0.0047 -0.0583
10277SOL     OW31729   1.266   0.347   4.325 -0.2470 -0.7628  1.0599
10277SOL    HW131730   1.206   0.377   4.250 -0.7842 -0.5994  1.5470
10277SOL    HW231731   1.358   0.333   4.290 -0.1488  0.7414  0.6527
10278SOL     OW31732   1.531   5.776   3.648  0.2248  0.5941 -0.0212
10278SOL    HW131733   1.523   5.871   3.677  0.0639  1.3353 -2.3418
10278SOL    HW231734   1.521   5.716   3.728  0.8576  2.5089  1.5648
10279SOL     OW31735   5.543   6.055   0.023 -0.2964 -0.0121 -0.2315
10279SOL    HW131736   5.546   5.970   0.076 -1.0071  1.7043  2.8389
10279SOL    HW231737   5.458   6.059  -0.030 -0.0395 -1.3703 -0.7799
10280SOL     OW31738   2.831   3.180   5.588 -0.1652  0.2135  0.0293
10280SOL    HW131739   2.733   3.167   5.607  0.3705 -2.2257  1.5241
10280SOL    HW231740   2.862   3.109   5.525  0.5578  1.3410 -0.9220
10281SOL     OW31741   0.934   3.992   3.021  0.1130  0.0177 -0.1123
10281SOL    HW131742   0.907   4.087   3.011 -0.6236 -0.1862 -0.0991
10281SOL    HW231743   1.033   3.983   3.005  0.1344  0.7330 -0.3943
10282SOL     OW31744   3.498   4.131   0.356 -0.5675 -0.5103 -0.5182
10282SOL    HW131745   3.438   4.137   0.276 -0.1702 -2.1787 -0.9681
10282SOL    HW231746   3.445   4.149   0.439 -0.8753  1.8186 -1.1434
10283SOL     OW31747   5.834   4.813   0.548 -0.0923 -0.2384  0.2551
10283SOL    HW131748   5.860   4.820   0.451 -1.8241 -0.9977 -0.3125
10283SOL    HW231749   5.811   4.904   0.582  0.7108  0.0622  0.0141
10284SOL     OW31750   2.100   2.871   5.365 -0.2243 -0.0502 -0.2546
10284SOL    HW131751   2.095   2.779   5.328 -1.3109 -0.1597  0.1460
10284SOL    HW231752   2.138   2.869   5.457 -1.2709 -0.2320  0.1831
10285SOL     OW31753   5.838   6.217   1.902  0.1493 -0.2930  0.5697
10285SOL    HW131754   5.893   6.251   1.978 -0.9763 -1.4968  1.9812
10285SOL    HW231755   5.899   6.188   1.828  1.2227  2.0976  0.4320
10286SOL     OW31756   4.273   1.412   0.833  0.0817 -0.1494  0.4619
10286SOL    HW131757   4.197   1.352   0.860  0.5151 -0.2660  1.4777
10286SOL    HW231758   4.338   1.359   0.779 -0.4555 -0.0959 -0.2580
10287SOL     OW31759   0.858   3.991   1.378  0.0183 -0.2771  0.0857
10287SOL    HW131760   0.835   4.051   1.301  0.7021 -0.5434 -0.3403
10287SOL    HW231761   0.926   3.924   1.348  1.0484  0.2331  1.1805
10288SOL     OW31762   4.028   5.951   2.102  0.2176 -0.3818 -0.3549
10288SOL    HW131763   3.966   6.024   2.074  0.2865 -0.4514 -0.6875
10288SOL    HW231764   4.122   5.985   2.100  0.1964 -0.2928  0.0956
10289SOL     OW31765   1.358   0.223   2.256 -0.5859 -0.4840  0.9957
10289SOL    HW131766   1.453   0.234   2.226 -0.6927  0.8844  1.1107
10289SOL    HW231767   1.319   0.142   2.213  0.8249 -1.4442  1.4495
10290SOL     OW31768   4.054   1.985   1.920  0.1729  0.2196 -0.0047
10290SOL    HW131769   4.143   1.939   1.923 -0.2864 -0.7544 -0.9103
10290SOL    HW231770   3.981   1.918   1.931 -0.4770  1.2388  3.1010
10291SOL     OW31771   2.867   5.641   3.841  0.4792  0.1371 -0.1692
10291SOL    HW131772   2.961   5.620   3.871  0.8116  2.0124  0.2411
10291SOL    HW231773   2.871   5.696   3.758 -0.2939 -0.3212 -0.5133
10292SOL     OW31774   6.405   3.149   1.089 -0.2695  0.1961 -0.5664
10292SOL    HW131775   6.504   3.156   1.101 -0.5532  0.7626  2.0284
10292SOL    HW231776   6.361   3.232   1.124 -1.7135 -0.3641 -0.9727
10293SOL     OW31777   0.815   0.996   1.612 -0.6074 -0.0325  0.3772
10293SOL    HW131778   0.906   0.955   1.603 -0.6004 -0.1680  1.0517
10293SOL    HW231779   0.823   1.085   1.656 -0.8340 -0.1962  0.7539
10294SOL     OW31780   0.367   1.004   4.618 -0.6844  0.4416 -0.1704
10294SOL    HW131781   0.300   1.069   4.582 -0.5973 -0.5050 -2.2291
10294SOL    HW231782   0.448   1.004   4.559  0.7677  0.8624  1.7201
10295SOL     OW31783   3.556   1.530   3.598  0.1124  0.3294 -0.6454
10295SOL    HW131784   3.607   1.602   3.646  0.4972 -0.4741  0.1723
10295SOL    HW231785   3.460   1.532   3.629  0.2074  0.2462 -0.3424
10296SOL     OW31786   0.261   2.395   0.571 -0.1361 -0.4805  0.3506
10296SOL    HW131787   0.250   2.300   0.542 -1.2451 -0.0913 -0.5603
10296SOL    HW231788   0.254   2.455   0.492 -0.1867  0.4262  1.0240
10297SOL     OW31789   4.846   3.158   3.354  0.1090 -0.7913  0.3442
10297SOL    HW131790   4.792   3.086   3.399  0.3228 -1.4759 -0.4821
10297SOL    HW231791   4.943   3.138   3.363  0.3041  0.6943  2.2546
10298SOL     OW31792   3.137   1.107   2.817 -0.0469  0.0119 -0.1245
10298SOL    HW131793   3.134   1.097   2.916  0.4790 -0.1924 -0.1232
10298SOL    HW231794   3.229   1.136   2.789 -0.7979  2.3367 -0.3704
10299SOL     OW31795   1.352   1.994   6.938 -0.4769  0.4588  0.1138
10299SOL    HW131796   1.424   2.037   6.992 -1.3517 -0.5117  2.1735
10299SOL    HW231797   1.281   1.958   6.999 -0.6402 -2.3781 -1.5270
10300SOL     OW31798   6.995   4.419   3.623  0.2686  0.3918 -0.1473
10300SOL    HW131799   7.031   4.432   3.531  1.7104 -1.2027  0.1141
10300SOL    HW231800   7.032   4.489   3.684 -0.7860  1.5234 -0.7730
10301SOL     OW31801   5.174   4.093   6.326 -0.1772  0.1063 -0.8165
10301SOL    HW131802   5.272   4.079   6.337 -0.0731 -1.0409 -2.7524
10301SOL    HW231803   5.124   4.042   6.396  0.5803 -0.4651 -0.6845
10302SOL     OW31804   0.267   4.144   4.465  0.3974 -0.0473  0.1341
10302SOL    HW131805   0.282   4.107   4.557 -0.7261 -2.8591 -0.7254
10302SOL    HW231806   0.350   4.130   4.410  0.5663  0.3069  0.2958
10303SOL     OW31807   0.264   3.805   2.976 -0.4018  0.1660 -0.4145
10303SOL    HW131808   0.296   3.884   3.029 -0.2914  0.1107 -0.3984
10303SOL    HW231809   0.225   3.836   2.890 -1.0314  0.2974 -0.0868
10304SOL     OW31810   3.710   4.516   6.648 -0.3396  0.2776  0.3416
10304SOL    HW131811   3.618   4.537   6.615 -0.2654  0.1203  0.0353
10304SOL    HW231812   3.704   4.464   6.733 -0.6354 -3.3249 -1.6934
10305SOL     OW31813   3.057   6.395   1.253 -0.8536 -0.0785 -0.5332
10305SOL    HW131814   3.066   6.451   1.336 -1.1809  1.1313 -1.2884
10305SOL    HW231815   3.045   6.455   1.174  2.6048 -1.0087 -1.9442
10306SOL     OW31816   2.976   6.793   0.692  0.2708 -0.9270 -0.2935
10306SOL    HW131817   2.995   6.862   0.622  1.7645 -1.9603 -0.9788
10306SOL    HW231818   2.978   6.702   0.650 -1.3677 -1.4365  0.6410
10307SOL     OW31819   6.545   2.299   0.156  0.3927  0.0403 -0.6698
10307SOL    HW131820   6.585   2.317   0.066  0.2447  3.1714 -0.2074
10307SOL    HW231821   6.481   2.222   0.149  2.2353 -1.4326 -2.6225
10308SOL     OW31822   0.325   3.801   4.661  0.3131  0.1290 -0.2510
10308SOL    HW131823   0.266   3.748   4.600  0.0440 -0.7543  0.7271
10308SOL    HW231824   0.321   3.761   4.753  0.6278  1.4800  0.3682
10309SOL     OW31825   5.714   0.682   3.691 -0.1600 -0.4550  0.4491
10309SOL    HW131826   5.697   0.746   3.617 -0.7611 -0.7149  0.3564
10309SOL    HW231827   5.798   0.707   3.739 -0.5653  0.5856  0.6240
10310SOL     OW31828   3.868   6.044   6.199 -0.4817  0.2314 -0.2089
10310SOL    HW131829   3.902   6.078   6.112  1.9650 -1.2864  0.0738
10310SOL    HW231830   3.890   6.110   6.272 -3.0292  1.7791 -0.6804
10311SOL     OW31831   0.422   1.579   4.496 -0.2961 -0.4693  0.0532
10311SOL    HW131832   0.383   1.542   4.412 -1.4765 -1.2680  0.9088
10311SOL    HW231833   0.508   1.532   4.517 -0.7705 -1.3523  0.0711
10312SOL     OW31834   1.755   2.892   4.369  0.0754  0.5056  0.0347
10312SOL    HW131835   1.852   2.870   4.384  0.1232 -0.3146 -1.2516
10312SOL    HW231836   1.699   2.813   4.394 -0.1251  0.4378 -0.6031
10313SOL     OW31837   5.891   5.467   0.120 -0.8161  0.1575 -0.3277
10313SOL    HW131838   5.960   5.540   0.125 -1.0138  0.3746 -0.7173
10313SOL    HW231839   5.917   5.402   0.049  0.4275 -1.2843  1.3571
10314SOL     OW31840   7.017   0.253   1.661 -0.3780 -0.3571 -0.0747
10314SOL    HW131841   7.008   0.296   1.751  2.4787  1.5585 -0.5737
10314SOL    HW231842   7.082   0.176   1.667  1.9845  1.4415 -0.8454
10315SOL     OW31843   4.970   3.843   5.988 -0.0679 -0.3852 -0.0672
10315SOL    HW131844   4.980   3.925   6.044 -1.3084  0.4643 -1.0469
10315SOL    HW231845   5.044   3.841   5.920 -0.2627  0.1532 -0.3058
10316SOL     OW31846   2.613   0.125   1.792  0.6825 -0.0984  0.1047
10316SOL    HW131847   2.575   0.033   1.805  2.5389 -1.2562 -1.7685
10316SOL    HW231848   2.574   0.166   1.709  2.2349 -0.6795 -0.9807
10317SOL     OW31849   5.382   5.440   0.460  0.0691 -1.1628  0.1398
10317SOL    HW131850   5.321   5.377   0.507  0.2956 -1.3212  0.2196
10317SOL    HW231851   5.410   5.401   0.372  1.7143 -2.0152  1.0090
10318SOL     OW31852   6.018   2.241   4.709  0.0671  0.4815 -0.1064
10318SOL    HW131853   6.030   2.185   4.791  0.6982  0.4731 -0.1991
10318SOL    HW231854   6.107   2.279   4.681 -0.0804  0.1863 -0.9972
10319SOL     OW31855   3.847   0.077   1.309  0.1719 -0.1543 -0.4538
10319SOL    HW131856   3.853   0.098   1.406 -0.6348 -0.8242 -0.2443
10319SOL    HW231857   3.939   0.065   1.272  0.4773 -1.9903  0.7266
10320SOL     OW31858   6.143   6.964   5.306  0.1396  0.4580 -0.1106
10320SOL    HW131859   6.046   6.945   5.315 -0.0185  1.9429  1.6622
10320SOL    HW231860   6.168   6.962   5.209 -0.9585 -2.9985 -0.4498
10321SOL     OW31861   1.486   2.002   0.191  0.1981  0.0846 -0.5118
10321SOL    HW131862   1.479   1.920   0.247 -1.3165  0.3242 -0.2993
10321SOL    HW231863   1.577   2.042   0.200 -0.4589  1.0563  3.1000
10322SOL     OW31864   2.937   3.402   3.559  0.7806  0.3626  0.2120
10322SOL    HW131865   2.955   3.470   3.487 -0.2092  1.3767  0.8936
10322SOL    HW231866   2.869   3.438   3.623  0.1370 -1.3298  0.5373
10323SOL     OW31867   0.718   3.828   1.540  0.0591 -0.0119 -0.1332
10323SOL    HW131868   0.759   3.893   1.475 -0.6854 -1.5145 -2.2312
10323SOL    HW231869   0.764   3.836   1.628  1.7217  1.5461 -1.0653
10324SOL     OW31870   3.147   5.389   4.796  0.0967 -0.4988  0.4441
10324SOL    HW131871   3.119   5.480   4.824  1.9350 -0.0429  0.8916
10324SOL    HW231872   3.133   5.325   4.872  0.7778 -0.1708  0.8495
10325SOL     OW31873   0.900   2.105   6.450 -0.0266 -0.0116 -0.2669
10325SOL    HW131874   0.810   2.129   6.487 -0.6807  0.4563 -2.0425
10325SOL    HW231875   0.955   2.188   6.440  1.5238 -0.5228  2.8921
10326SOL     OW31876   0.543   1.721   6.628 -0.8886  0.0613 -0.3230
10326SOL    HW131877   0.581   1.751   6.540  0.8204 -0.6148  0.1327
10326SOL    HW231878   0.547   1.621   6.633 -0.6485  0.1122  0.6535
10327SOL     OW31879   4.479   5.608   5.122  0.2050  0.4390  0.4305
10327SOL    HW131880   4.519   5.519   5.142 -0.7157 -0.2027 -0.5234
10327SOL    HW231881   4.420   5.602   5.042 -1.1445  1.5453  1.2883
10328SOL     OW31882   0.816   5.833   5.174  0.0131  0.4556 -0.8320
10328SOL    HW131883   0.872   5.759   5.137  2.6278  1.8124  0.1807
10328SOL    HW231884   0.766   5.800   5.254  2.5424  0.1372  0.7166
10329SOL     OW31885   3.618   4.423   6.324 -0.6361 -0.0380  0.1371
10329SOL    HW131886   3.601   4.482   6.403 -2.2991 -1.4423  0.8803
10329SOL    HW231887   3.682   4.351   6.350 -0.5917 -0.0617 -0.0361
10330SOL     OW31888   0.841   3.564   4.717  0.0661 -0.2587 -0.0815
10330SOL    HW131889   0.776   3.536   4.645 -1.4812  0.6498  0.8951
10330SOL    HW231890   0.917   3.613   4.676 -0.3450 -0.5125 -1.1889
10331SOL     OW31891   2.735   2.011   5.343 -0.0954  0.4511 -0.1439
10331SOL    HW131892   2.770   2.011   5.250 -2.5938  2.3839 -1.1892
10331SOL    HW231893   2.658   2.074   5.350  0.4616  0.9416  3.4412
10332SOL     OW31894   0.628   6.389   5.578 -0.1578 -0.2192 -0.2212
10332SOL    HW131895   0.619   6.465   5.642  0.4796 -0.5886  0.3166
10332SOL    HW231896   0.612   6.422   5.484  2.5592  1.1303 -0.2855
10333SOL     OW31897   3.922   2.542   0.585 -0.4274  0.5603  0.6200
10333SOL    HW131898   3.844   2.603   0.572  0.8711  2.4328  1.1494
10333SOL    HW231899   3.928   2.478   0.509 -1.4011  1.6180 -0.3754
10334SOL     OW31900   1.418   1.012   0.837  0.1427  1.0155  0.0825
10334SOL    HW131901   1.345   1.070   0.874 -1.0123  1.3877 -2.5398
10334SOL    HW231902   1.506   1.059   0.846 -0.4642  2.2040 -0.0090
10335SOL     OW31903   1.091   6.506   1.466  0.3791 -0.5507  0.3425
10335SOL    HW131904   1.158   6.565   1.419  0.7936 -0.1076  1.4558
10335SOL    HW231905   1.060   6.551   1.550  0.0628 -1.5566  0.7807
10336SOL     OW31906   1.168   6.362   4.445 -0.1478 -0.2510  0.1647
10336SOL    HW131907   1.214   6.428   4.503 -1.6342 -0.6719  1.9188
10336SOL    HW231908   1.087   6.403   4.404  0.7568 -0.0271 -1.5223
10337SOL     OW31909   6.350   4.358   1.132  0.8827  0.1941 -0.1929
10337SOL    HW131910   6.257   4.355   1.168  0.0155  0.2726 -2.2540
10337SOL    HW231911   6.403   4.428   1.180 -0.5940  1.2351 -0.0333
10338SOL     OW31912   3.294   5.169   4.709 -0.3515  0.7386 -0.0526
10338SOL    HW131913   3.249   5.258   4.709 -0.9529  0.4643  1.9253
10338SOL    HW231914   3.228   5.098   4.731  0.4341 -0.0399 -0.1445
10339SOL     OW31915   0.403   0.945   0.503 -0.2620  0.1956  0.0266
10339SOL    HW131916   0.443   0.914   0.417  2.3552  1.7857  0.5576
10339SOL    HW231917   0.449   0.899   0.579 -1.6321 -0.2090  0.6316
10340SOL     OW31918   5.584   3.595   2.239  0.0509  0.4474 -1.0797
10340SOL    HW131919   5.488   3.615   2.261 -0.0999 -1.7369  0.5928
10340SOL    HW231920   5.643   3.658   2.290 -0.4714  0.8958 -1.0114
10341SOL     OW31921   5.182   5.031   0.749 -0.9842  0.3815  0.2306
10341SOL    HW131922   5.184   5.108   0.814 -2.3942  0.5889  0.0621
10341SOL    HW231923   5.148   5.063   0.661 -1.8981 -0.4890  0.2530
10342SOL     OW31924   1.923   5.787   1.056  0.9683 -0.1426 -0.3835
10342SOL    HW131925   1.963   5.703   1.092 -0.4301  0.0077  1.6494
10342SOL    HW231926   1.989   5.831   0.995  1.9244 -2.4167 -1.1066
10343SOL     OW31927   6.621   5.799   2.323 -0.7482 -0.0282  0.4184
10343SOL    HW131928   6.648   5.763   2.413  1.6730 -0.2056 -0.2958
10343SOL    HW231929   6.703   5.827   2.273 -2.1144  0.9202 -1.4074
10344SOL     OW31930   2.457   5.178   3.634 -0.0694 -0.2736  0.1845
10344SOL    HW131931   2.496   5.175   3.542  0.4179 -1.4440  0.4094
10344SOL    HW231932   2.436   5.085   3.664 -0.9119  0.1577  0.9782
10345SOL     OW31933   0.582   2.869   3.874  0.4136 -0.2829  0.2541
10345SOL    HW131934   0.552   2.886   3.967  2.1622 -0.2079  0.8509
10345SOL    HW231935   0.616   2.775   3.867 -1.3815 -0.9001 -0.8141
10346SOL     OW31936   0.893   0.722   1.297 -0.8312  0.1515 -0.1423
10346SOL    HW131937   0.971   0.765   1.342 -0.6470  0.5752 -0.8499
10346SOL    HW231938   0.913   0.709   1.200 -1.4582 -0.1792 -0.2337
10347SOL     OW31939   0.180   0.675   1.017  0.4806  0.6615  0.6158
10347SOL    HW131940   0.192   0.581   1.049 -3.3717  0.2013  1.2822
10347SOL    HW231941   0.182   0.737   1.095  0.7811  0.8384  0.4688
10348SOL     OW31942   4.788   4.177   1.624  0.5071  0.3072 -0.2207
10348SOL    HW131943   4.831   4.267   1.613  1.2762 -0.2062 -1.7377
10348SOL    HW231944   4.821   4.116   1.552  0.3596 -1.3427  1.0569
10349SOL     OW31945   3.374   1.369   4.460 -0.1554 -0.2019  0.2397
10349SOL    HW131946   3.375   1.291   4.523  0.7820 -0.5778 -0.2119
10349SOL    HW231947   3.336   1.449   4.506  0.4288 -0.4966  1.2683
10350SOL     OW31948   6.492   2.586   0.951 -0.0106  0.7131 -0.0995
10350SOL    HW131949   6.404   2.609   0.910  0.0498  0.5800 -0.3062
10350SOL    HW231950   6.529   2.665   0.999 -0.0273  0.9055 -0.4018
10351SOL     OW31951   5.088   0.234   0.882  0.2636 -0.5461 -0.7148
10351SOL    HW131952   5.123   0.166   0.947  1.2075  0.3255 -0.2740
10351SOL    HW231953   5.157   0.304   0.868 -1.3800  1.4029  0.3893
10352SOL     OW31954   1.484   5.390   0.288  0.1763  0.0165  0.2140
10352SOL    HW131955   1.558   5.371   0.223 -1.3499 -1.4771 -1.1685
10352SOL    HW231956   1.517   5.377   0.381  2.1034  1.1009 -0.2567
10353SOL     OW31957   5.843   3.281   4.782 -0.0352  0.4968  0.0616
10353SOL    HW131958   5.942   3.272   4.779 -0.1368 -1.0857  0.7055
10353SOL    HW231959   5.806   3.265   4.690  0.2532  0.2089 -0.0088
10354SOL     OW31960   5.362   3.527   0.712 -0.3766  0.2372 -0.4350
10354SOL    HW131961   5.297   3.533   0.788 -0.2146 -0.0200 -0.2790
10354SOL    HW231962   5.345   3.603   0.649  0.5570  1.4219  0.6892
10355SOL     OW31963   2.919   1.824   3.988 -0.3083  0.0244 -0.8354
10355SOL    HW131964   3.010   1.823   3.947  0.1033 -4.8056 -0.3662
10355SOL    HW231965   2.856   1.874   3.928  1.9440  0.4877 -2.9588
10356SOL     OW31966   0.130   3.965   1.338 -0.3995  0.2540  0.1343
10356SOL    HW131967   0.177   3.905   1.273  2.3571 -0.6473  2.7395
10356SOL    HW231968   0.077   3.909   1.402  1.3710  0.5377  1.9589
10357SOL     OW31969   1.172   4.887   5.590  0.3036  0.4703  0.1836
10357SOL    HW131970   1.271   4.882   5.604  0.2281  1.5188  1.2108
10357SOL    HW231971   1.126   4.882   5.678 -0.6075 -0.5992 -0.3340
10358SOL     OW31972   1.297   6.548   2.492 -0.5739  0.0698  0.0854
10358SOL    HW131973   1.344   6.466   2.525  0.9213 -0.3376 -2.7946
10358SOL    HW231974   1.229   6.522   2.424 -0.2266  1.2136 -0.7184
10359SOL     OW31975   1.788   1.363   3.977 -0.4372 -0.0907  0.5476
10359SOL    HW131976   1.821   1.441   4.030 -1.2478  0.5389  0.1521
10359SOL    HW231977   1.792   1.386   3.879 -1.4128 -0.2418  0.4633
10360SOL     OW31978   6.370   0.044   5.661  0.8677  0.6686  0.2390
10360SOL    HW131979   6.437   0.109   5.698  0.9080  0.4369  0.5744
10360SOL    HW231980   6.329  -0.008   5.736  2.4323 -1.2484 -0.1603
10361SOL     OW31981   0.074   5.547   1.844 -0.3289  0.2576 -0.2573
10361SOL    HW131982   0.009   5.522   1.917 -1.0047 -0.3261 -1.0404
10361SOL    HW231983   0.161   5.500   1.860  0.1072  1.4461  1.0868
10362SOL     OW31984   3.027   5.862   4.358 -0.3143  0.3910 -0.0569
10362SOL    HW131985   2.966   5.783   4.351 -0.4154  0.6046 -2.6474
10362SOL    HW231986   3.066   5.866   4.450 -1.7720 -1.5513  0.7186
10363SOL     OW31987   0.195   1.990   1.171 -0.1605 -0.3306 -0.3326
10363SOL    HW131988   0.189   2.068   1.107 -1.5011  0.8605  1.1575
10363SOL    HW231989   0.149   1.911   1.130  1.1727 -0.3742 -1.8558
10364SOL     OW31990   6.254   6.502   3.117  0.0740  0.0466  0.2378
10364SOL    HW131991   6.187   6.465   3.053 -0.0635  0.3594  0.1973
10364SOL    HW231992   6.226   6.595   3.144 -1.3103 -1.0025  2.7890
10365SOL     OW31993   0.136   2.228   3.372 -0.8687 -0.3382 -0.0365
10365SOL    HW131994   0.139   2.229   3.472 -0.7127 -1.8685  0.0039
10365SOL    HW231995   0.055   2.278   3.341 -0.1232  1.4532  0.7593
10366SOL     OW31996   0.548   4.797   4.403 -0.1863  0.3792  0.3459
10366SOL    HW131997   0.640   4.787   4.365 -0.9244  1.8077 -2.0033
10366SOL    HW231998   0.490   4.723   4.371  0.1364 -0.6223  1.9728
10367SOL     OW31999   3.204   2.075   2.178 -0.0634 -0.2061 -0.1519
10367SOL    HW132000   3.177   2.103   2.270 -0.7112 -1.6137  0.1055
10367SOL    HW232001   3.299   2.044   2.179 -0.8552 -2.8997  0.7136
10368SOL     OW32002   2.973   6.748   4.273  0.1883  0.1626 -0.2116
10368SOL    HW132003   2.886   6.722   4.232  0.7302 -0.3620 -1.0608
10368SOL    HW232004   3.000   6.679   4.340  0.7327 -0.5494 -1.1386
10369SOL     OW32005   4.667   1.136   2.683 -0.1110 -0.3676  0.4173
10369SOL    HW132006   4.612   1.074   2.627  0.1970 -0.3013  0.0349
10369SOL    HW232007   4.620   1.224   2.691  0.1674 -0.1418 -0.3332
10370SOL     OW32008   1.744   3.507   1.498 -0.5528  0.3825  0.6329
10370SOL    HW132009   1.754   3.601   1.530 -1.9236  0.7515  0.0723
10370SOL    HW232010   1.649   3.479   1.508 -0.7439  0.0189 -1.6640
10371SOL     OW32011   5.508   3.880   2.889  0.2458 -0.1590  0.3871
10371SOL    HW132012   5.557   3.798   2.858 -1.6042 -0.2827 -2.6123
10371SOL    HW232013   5.472   3.865   2.981 -0.5990 -3.0175 -0.3207
10372SOL     OW32014   1.432   3.312   5.422  0.0551 -0.6438 -0.3338
10372SOL    HW132015   1.459   3.398   5.465 -1.8176 -0.3485  0.3268
10372SOL    HW232016   1.505   3.245   5.434  0.2941 -0.0766  1.9034
10373SOL     OW32017   4.613   1.403   5.523 -0.1158  0.2735  0.1360
10373SOL    HW132018   4.703   1.363   5.505 -0.5246  0.0164 -1.4240
10373SOL    HW232019   4.602   1.487   5.471 -2.1675 -1.6407 -2.8868
10374SOL     OW32020   1.253   3.250   5.738  0.3935  0.9379 -0.0751
10374SOL    HW132021   1.221   3.328   5.791  1.0235  0.6977  0.6791
10374SOL    HW232022   1.349   3.231   5.760  0.3848  0.2364 -0.5881
10375SOL     OW32023   5.071   6.951   3.695  0.2992 -0.0592 -0.1223
10375SOL    HW132024   5.065   6.912   3.787 -0.7904  0.7658  0.1615
10375SOL    HW232025   5.131   7.031   3.697  1.7424 -1.0689 -0.5176
10376SOL     OW32026   3.287   2.921   0.366 -0.2990  0.1997  0.3725
10376SOL    HW132027   3.348   2.950   0.440 -2.4194  1.5996  1.6695
10376SOL    HW232028   3.214   2.863   0.403 -1.0801  0.4534 -0.7189
10377SOL     OW32029   2.417   4.375   5.823 -0.1890 -0.1568  0.4632
10377SOL    HW132030   2.341   4.321   5.860 -0.5558 -0.6428 -0.9372
10377SOL    HW232031   2.437   4.344   5.730  0.2470  1.4843 -0.0137
10378SOL     OW32032   4.911   2.329   4.265  0.0650  0.0187 -0.4659
10378SOL    HW132033   4.862   2.318   4.351 -1.7257  2.9753 -0.9810
10378SOL    HW232034   4.845   2.341   4.190  1.5792  0.2981 -1.8191
10379SOL     OW32035   3.067   2.175   3.846  0.3175  0.4092  0.2811
10379SOL    HW132036   3.003   2.098   3.845 -0.8748  1.3630  0.0431
10379SOL    HW232037   3.048   2.235   3.768 -0.5576  2.3231  1.8744
10380SOL     OW32038   3.655   3.682   4.155  0.3905  0.1100  0.2500
10380SOL    HW132039   3.609   3.609   4.104  0.8700 -0.3055  0.4024
10380SOL    HW232040   3.626   3.680   4.250 -0.8224  1.1490 -0.0650
10381SOL     OW32041   2.452   0.200   4.006 -0.3009 -0.1585  0.0856
10381SOL    HW132042   2.441   0.288   4.053 -1.4665  0.5809 -1.4779
10381SOL    HW232043   2.549   0.175   4.004  0.1190  1.3772  0.0877
10382SOL     OW32044   2.066   3.588   5.655  0.0910 -0.5818  0.2399
10382SOL    HW132045   1.997   3.600   5.726 -0.0061  2.2341 -0.1962
10382SOL    HW232046   2.153   3.627   5.686  0.3319 -0.2788 -0.7553
10383SOL     OW32047   1.676   4.968   1.566  0.8039  0.1621  0.6485
10383SOL    HW132048   1.621   4.970   1.483  1.7235  3.2247 -0.0163
10383SOL    HW232049   1.618   4.986   1.645  0.1719 -1.2649  0.5390
10384SOL     OW32050   2.452   4.289   0.280  0.3303 -0.0398  0.1654
10384SOL    HW132051   2.509   4.225   0.227 -1.2179 -1.6354  0.3298
10384SOL    HW232052   2.510   4.341   0.343  1.8171 -0.2928 -0.9306
10385SOL     OW32053   0.933   1.323   0.663  0.9102 -0.2985  0.2658
10385SOL    HW132054   0.962   1.323   0.567  2.2772  0.1454  0.6712
10385SOL    HW232055   0.956   1.236   0.705  0.3576 -0.4729  0.2237
10386SOL     OW32056   2.844   3.385   5.399  0.1719 -0.3841 -0.3612
10386SOL    HW132057   2.783   3.366   5.322 -0.0102 -0.2586 -0.2490
10386SOL    HW232058   2.827   3.319   5.472  0.4144 -0.5645 -0.4699
10387SOL     OW32059   4.306   1.742   4.439 -0.2562  0.1951 -0.0361
10387SOL    HW132060   4.213   1.776   4.457  0.1884  1.1168  0.6394
10387SOL    HW232061   4.364   1.819   4.414  1.0675  0.1588  2.6652
10388SOL     OW32062   1.616   4.424   4.287  0.3535 -0.5428  0.3512
10388SOL    HW132063   1.523   4.394   4.308  0.5750 -1.8712 -0.4383
10388SOL    HW232064   1.681   4.354   4.315  0.9168 -0.7406 -1.3326
10389SOL     OW32065   0.100   5.721   5.826  0.3084 -0.1745 -0.1636
10389SOL    HW132066   0.007   5.741   5.795 -0.5431 -2.2229  0.8475
10389SOL    HW232067   0.097   5.645   5.892  2.5662  0.5711  0.8953
10390SOL     OW32068   4.782   4.587   5.970 -0.3536 -0.1613 -0.0472
10390SOL    HW132069   4.768   4.626   5.879 -0.5067 -1.0037 -0.3958
10390SOL    HW232070   4.719   4.510   5.983 -0.6313  0.2194  0.9376
10391SOL     OW32071   0.492   2.395   5.734  0.3123  0.0705  0.0042
10391SOL    HW132072   0.565   2.340   5.694 -0.0574 -0.2330 -0.2575
10391SOL    HW232073   0.531   2.475   5.779  0.7461  0.3750 -0.8916
10392SOL     OW32074   5.356   3.067   1.747  0.1222 -0.4216  0.5939
10392SOL    HW132075   5.373   2.985   1.693  0.5873 -0.4461  0.7693
10392SOL    HW232076   5.355   3.147   1.688 -2.0254 -0.6979  0.1546
10393SOL     OW32077   3.872   6.173   3.601  0.0267  0.2713 -0.0437
10393SOL    HW132078   3.838   6.099   3.543 -0.5315  0.7490 -0.3307
10393SOL    HW232079   3.795   6.217   3.648  0.1169  1.8724 -1.3069
10394SOL     OW32080   2.013   4.900   2.657 -0.2174  0.0345 -0.0494
10394SOL    HW132081   2.038   4.934   2.566 -0.9424  0.4166 -0.1119
10394SOL    HW232082   2.009   4.800   2.655 -1.0842  0.0731 -0.6726
10395SOL     OW32083   0.427   1.863   1.216  0.5718 -0.0129  0.1660
10395SOL    HW132084   0.478   1.915   1.284  0.8574 -0.7388  0.5067
10395SOL    HW232085   0.337   1.905   1.203  0.0804 -0.4907  1.7897
10396SOL     OW32086   6.969   5.094   4.400 -0.1361  0.3828  0.2099
10396SOL    HW132087   6.989   4.998   4.421  0.4192  0.6832  1.0950
10396SOL    HW232088   6.871   5.109   4.408 -0.3064 -0.2492 -0.5394
10397SOL     OW32089   3.472   2.055   2.112 -0.5723  0.1025 -0.0015
10397SOL    HW132090   3.419   2.033   2.030 -1.3820  0.1415  0.4983
10397SOL    HW232091   3.542   2.122   2.090  1.4932 -2.3621 -1.4235
10398SOL     OW32092   5.765   1.254   3.341  0.5529 -0.4398  0.7262
10398SOL    HW132093   5.805   1.342   3.367  0.0891 -0.2985  0.9779
10398SOL    HW232094   5.683   1.270   3.285  1.6138 -0.7374 -0.9929
10399SOL     OW32095   5.209   2.538   1.349  0.1121 -0.4068 -0.0745
10399SOL    HW132096   5.142   2.546   1.275  2.0015 -1.7050 -2.0162
10399SOL    HW232097   5.252   2.627   1.364 -0.1528 -0.1733 -0.6600
10400SOL     OW32098   5.982   6.655   0.944  0.0736  0.0487 -0.2241
10400SOL    HW132099   6.074   6.681   0.915 -0.2153  0.2609 -0.9678
10400SOL    HW232100   5.923   6.646   0.864 -0.2486 -1.3124  0.1448
10401SOL     OW32101   0.299   6.862   4.798 -0.7713 -0.0953  0.4527
10401SOL    HW132102   0.330   6.783   4.744  1.5014  1.7040 -1.0480
10401SOL    HW232103   0.366   6.881   4.870 -1.0219  0.7768  0.4593
10402SOL     OW32104   0.619   5.722   3.775  0.1933 -0.0546  0.3630
10402SOL    HW132105   0.643   5.628   3.751 -0.4457 -0.3418  0.8157
10402SOL    HW232106   0.697   5.782   3.756  0.5774 -0.6573 -0.0137
10403SOL     OW32107   3.008   5.608   4.875 -0.3446 -0.6140  0.3626
10403SOL    HW132108   2.974   5.647   4.960 -1.2500  0.2980 -0.3900
10403SOL    HW232109   2.931   5.578   4.819  0.1571  0.0212 -0.6969
10404SOL     OW32110   0.408   3.895   3.928  0.5353  0.3060 -0.1671
10404SOL    HW132111   0.397   3.935   3.837 -1.7629  1.5323  0.5756
10404SOL    HW232112   0.346   3.818   3.939  2.0545 -0.9896 -0.1685
10405SOL     OW32113   6.151   6.430   5.784  0.2640 -0.1857 -0.3487
10405SOL    HW132114   6.188   6.515   5.745 -1.8289  1.1534  0.3951
10405SOL    HW232115   6.214   6.396   5.854  1.2619  0.6106 -0.8290
10406SOL     OW32116   0.480   3.658   1.199 -0.4450 -0.4738 -0.3681
10406SOL    HW132117   0.472   3.665   1.298  2.4114 -0.6414 -0.0474
10406SOL    HW232118   0.445   3.569   1.169 -1.5647 -0.3165  0.4228
10407SOL     OW32119   5.669   4.211   1.162 -0.0371 -0.2043  0.4877
10407SOL    HW132120   5.589   4.262   1.130 -0.6716 -0.3878  1.7008
10407SOL    HW232121   5.751   4.268   1.153 -0.6232  0.7667  1.1048
10408SOL     OW32122   1.291   5.495   0.053 -0.0749  0.4112  0.5266
10408SOL    HW132123   1.207   5.522   0.100 -1.0755 -0.3002 -0.7812
10408SOL    HW232124   1.366   5.490   0.118 -1.0998  0.8195  1.7736
10409SOL     OW32125   4.829   2.956   4.288  0.4975  0.3019  0.5565
10409SOL    HW132126   4.810   2.994   4.379  0.8539 -0.5210  0.9928
10409SOL    HW232127   4.806   2.859   4.287  0.8104  0.2268 -0.1347
10410SOL     OW32128   2.745   5.656   7.021  0.2281 -0.3970 -0.1277
10410SOL    HW132129   2.711   5.750   7.016  0.2825 -0.3887 -0.3671
10410SOL    HW232130   2.694   5.606   7.091  0.2984 -0.1499  0.1021
10411SOL     OW32131   1.276   5.632   0.610 -0.5339 -0.7806 -0.5949
10411SOL    HW132132   1.180   5.617   0.632 -0.2585 -0.5452  0.9267
10411SOL    HW232133   1.285   5.665   0.516 -1.8805 -1.3364 -0.9332
10412SOL     OW32134   0.839   2.761   1.877 -0.3546 -0.3258  0.5436
10412SOL    HW132135   0.836   2.665   1.904 -0.7336 -0.4596  0.0402
10412SOL    HW232136   0.821   2.769   1.779  1.3098  0.1196  0.2287
10413SOL     OW32137   5.197   5.249   0.499  0.7625 -0.3178 -0.0632
10413SOL    HW132138   5.101   5.220   0.495  0.8241 -0.4671 -0.4825
10413SOL    HW232139   5.246   5.215   0.419  1.2448 -0.5077  0.3049
10414SOL     OW32140   3.443   4.172   4.592 -0.2992 -0.5120 -0.0555
10414SOL    HW132141   3.384   4.204   4.518  2.1906 -0.4064 -2.1149
10414SOL    HW232142   3.394   4.104   4.646 -2.2575 -0.5270 -1.7245
10415SOL     OW32143   3.123   3.033   2.439  0.1362 -0.0550  0.0804
10415SOL    HW132144   3.026   3.052   2.420  0.4843  0.2049 -1.6451
10415SOL    HW232145   3.131   2.987   2.527 -1.6374 -0.9145 -0.1537
10416SOL     OW32146   2.262   6.099   1.699 -0.0556  0.3895  0.4864
10416SOL    HW132147   2.179   6.149   1.675 -1.2879 -1.9002 -0.3608
10416SOL    HW232148   2.237   6.006   1.727  2.0104  0.4937  3.0457
10417SOL     OW32149   2.238   1.387   1.329 -0.4309  0.1734  0.1864
10417SOL    HW132150   2.264   1.444   1.407 -0.4200 -2.1103  1.9644
10417SOL    HW232151   2.279   1.297   1.339 -3.5839 -1.4605 -0.3951
10418SOL     OW32152   4.949   1.863   6.224 -0.1134  0.3859  0.2411
10418SOL    HW132153   5.026   1.853   6.160  1.4352  1.2188  1.8760
10418SOL    HW232154   4.947   1.785   6.286 -1.3468 -0.2075 -0.5038
10419SOL     OW32155   5.116   3.423   4.307  0.7129 -0.5730  0.3497
10419SOL    HW132156   5.073   3.437   4.395  1.7868 -0.3309  0.8585
10419SOL    HW232157   5.072   3.482   4.238  1.5689  1.2715  1.2976
10420SOL     OW32158   3.435   1.310   2.353  0.2213 -0.1881 -0.1955
10420SOL    HW132159   3.531   1.303   2.379  0.6670  1.9861 -0.9998
10420SOL    HW232160   3.414   1.405   2.330 -1.8289 -0.8186 -1.1915
10421SOL     OW32161   4.649   2.648   0.981 -0.8441  0.3351  0.1284
10421SOL    HW132162   4.584   2.717   0.950 -0.6328  0.7367  0.5666
10421SOL    HW232163   4.611   2.601   1.061  0.0438  1.6473  1.3705
10422SOL     OW32164   5.495   4.726   3.358 -0.2175 -0.3839 -0.1757
10422SOL    HW132165   5.435   4.752   3.434 -0.0475  1.7880 -0.7186
10422SOL    HW232166   5.575   4.676   3.394  0.4363  1.5824  1.2587
10423SOL     OW32167   1.075   3.658   0.913 -0.5411 -0.1450  0.3173
10423SOL    HW132168   1.011   3.702   0.977  1.6300  0.1727  2.4151
10423SOL    HW232169   1.131   3.728   0.869 -0.9820 -0.4795 -0.8046
10424SOL     OW32170   6.147   1.378   3.981 -0.2947 -0.3922  0.7514
10424SOL    HW132171   6.162   1.451   4.048  0.3348 -0.2309  0.4383
10424SOL    HW232172   6.235   1.340   3.953 -0.6160 -1.3284  0.9648
10425SOL     OW32173   3.733   3.153   0.739  0.0566  0.7830 -0.4810
10425SOL    HW132174   3.777   3.230   0.785  0.6556  0.4593 -0.5065
10425SOL    HW232175   3.733   3.169   0.640  2.8351 -0.5391 -0.7954
10426SOL     OW32176   2.700   4.775   0.683 -0.3368  0.2980 -0.4144
10426SOL    HW132177   2.616   4.829   0.683  0.2723  1.2861 -1.4413
10426SOL    HW232178   2.772   4.824   0.733 -0.0896 -0.0835 -0.3867
10427SOL     OW32179   1.535   2.042   0.586  0.1426 -0.2501  0.6043
10427SOL    HW132180   1.465   2.105   0.621  0.3397  0.8125 -0.8220
10427SOL    HW232181   1.586   2.086   0.512  0.4466 -2.0177 -0.2982
10428SOL     OW32182   4.959   5.714   5.469 -0.3963 -0.4100 -0.0489
10428SOL    HW132183   4.996   5.721   5.376 -0.8442 -0.8861 -0.2690
10428SOL    HW232184   4.894   5.788   5.484  0.0018 -0.0757  0.0392
10429SOL     OW32185   1.424   0.670   5.751  0.1305  0.0383 -0.0551
10429SOL    HW132186   1.477   0.748   5.785 -0.9064  0.9141 -0.3810
10429SOL    HW232187   1.445   0.589   5.805  0.0874  0.9102  1.3097
10430SOL     OW32188   5.673   6.269   0.194 -0.1208  0.0745 -0.1657
10430SOL    HW132189   5.619   6.186   0.180  0.2026 -0.0297 -0.8381
10430SOL    HW232190   5.770   6.247   0.191 -0.0043  0.0291  2.4272
10431SOL     OW32191   0.845   6.169   4.556 -0.4147  0.0651  0.1667
10431SOL    HW132192   0.937   6.145   4.524  0.1899  0.2755  1.6417
10431SOL    HW232193   0.853   6.236   4.630 -1.6931 -0.7226  1.0416
10432SOL     OW32194   1.145   6.310   1.274  0.0480  0.4182  0.4401
10432SOL    HW132195   1.209   6.233   1.280 -0.2789  0.0905 -0.1345
10432SOL    HW232196   1.104   6.327   1.363 -2.0913 -2.0071  0.0407
10433SOL     OW32197   5.479   1.829   5.394 -0.1724 -0.0088  0.4599
10433SOL    HW132198   5.520   1.791   5.311 -0.4498 -0.8049  0.6813
10433SOL    HW232199   5.446   1.921   5.376  1.9734  0.8059  0.3366
10434SOL     OW32200   4.061   4.914   2.236 -0.6506  0.1012  0.7050
10434SOL    HW132201   4.096   4.832   2.190 -0.0810  0.1962  0.9622
10434SOL    HW232202   4.067   4.902   2.335 -1.3054  0.1430  0.7551
10435SOL     OW32203   1.137   4.661   5.286  0.1657 -0.2370  0.2285
10435SOL    HW132204   1.150   4.601   5.206 -0.8854 -1.5664  1.0045
10435SOL    HW232205   1.201   4.635   5.358  0.3463  0.2048  0.2269
10436SOL     OW32206   0.287   2.124   2.442 -0.2700  0.5300  0.1185
10436SOL    HW132207   0.208   2.183   2.456 -1.4548 -1.0730  0.5532
10436SOL    HW232208   0.306   2.115   2.344 -1.2483  0.1778 -0.0449
10437SOL     OW32209   0.376   3.376   2.572 -0.2433 -0.0495 -0.1116
10437SOL    HW132210   0.377   3.348   2.668  1.1944 -0.5776 -0.2574
10437SOL    HW232211   0.348   3.298   2.515 -1.0770  0.2577 -0.1300
10438SOL     OW32212   5.943   6.908   3.175  0.0435 -0.2805  0.2188
10438SOL    HW132213   6.004   6.967   3.228 -0.8853 -0.1694  1.1847
10438SOL    HW232214   5.969   6.912   3.079  4.1476 -3.3316  0.9695
10439SOL     OW32215   6.865   2.508   6.117 -0.0737 -0.2120  0.4627
10439SOL    HW132216   6.771   2.538   6.102 -0.4543 -0.4568  2.2032
10439SOL    HW232217   6.908   2.566   6.186  1.0224 -0.2112 -0.1938
10440SOL     OW32218   1.815   1.688   4.940 -0.2421  0.1054  0.2418
10440SOL    HW132219   1.752   1.620   4.902 -0.0527  1.2144 -2.2546
10440SOL    HW232220   1.784   1.779   4.915  1.5720  0.7579  0.2474
10441SOL     OW32221   0.534   0.869   1.128 -0.0416 -0.4142 -0.3421
10441SOL    HW132222   0.497   0.962   1.118 -1.0124 -0.7443  0.1286
10441SOL    HW232223   0.478   0.817   1.193  1.0217 -1.0570  0.0784
10442SOL     OW32224   3.805   1.715   0.372  0.1348 -0.4873  0.0742
10442SOL    HW132225   3.779   1.807   0.400  1.1151 -0.5464  1.2897
10442SOL    HW232226   3.733   1.676   0.315 -0.6828  0.7120  0.2455
10443SOL     OW32227   3.180   5.932   2.979  0.2637  0.2202  0.1123
10443SOL    HW132228   3.098   5.983   3.004 -0.1477  0.2686 -1.2758
10443SOL    HW232229   3.156   5.835   2.967  0.4540  0.2012 -0.1043
10444SOL     OW32230   3.249   6.675   6.850 -0.1852 -0.0210 -0.1688
10444SOL    HW132231   3.322   6.622   6.893 -1.3640 -1.4147  0.1934
10444SOL    HW232232   3.192   6.717   6.921  0.9010  2.0433 -0.4486
10445SOL     OW32233   3.674   3.861   5.405  0.0105 -0.3042  0.4866
10445SOL    HW132234   3.583   3.867   5.446  0.2546  0.3249  0.9388
10445SOL    HW232235   3.739   3.823   5.471 -0.3844 -3.1493 -0.5977
10446SOL     OW32236   5.911   0.280   6.273  0.3811 -0.0328 -0.5208
10446SOL    HW132237   5.819   0.248   6.293 -0.3751  1.1063 -2.0099
10446SOL    HW232238   5.962   0.208   6.226  0.5711 -0.9602  1.0278
10447SOL     OW32239   0.830   6.933   0.189  0.5083 -0.0102  0.0851
10447SOL    HW132240   0.889   6.854   0.203  1.1212 -0.1324 -2.5461
10447SOL    HW232241   0.882   7.007   0.147 -0.1895  1.6394  1.9720
10448SOL     OW32242   4.201   1.792   2.182 -1.2900 -0.1667 -0.0205
10448SOL    HW132243   4.123   1.852   2.196 -0.6133  1.7468 -3.4132
10448SOL    HW232244   4.177   1.699   2.212 -3.9755  0.8085  1.1808
10449SOL     OW32245   2.359   1.846   4.447  0.2059  0.2188 -0.3804
10449SOL    HW132246   2.267   1.854   4.485 -0.4994 -0.8233 -1.7776
10449SOL    HW232247   2.418   1.798   4.512 -0.7109 -0.6904 -0.1940
10450SOL     OW32248   5.788   0.407   1.105 -0.0918 -0.3029  0.6111
10450SOL    HW132249   5.802   0.388   1.008  0.4443 -1.2678  0.8587
10450SOL    HW232250   5.860   0.362   1.158 -0.8847 -0.5174  1.5255
10451SOL     OW32251   6.174   1.954   3.734  0.1626  0.0432  0.1713
10451SOL    HW132252   6.141   1.908   3.817 -0.5861  0.8166  0.3216
10451SOL    HW232253   6.236   2.028   3.760  1.8492 -1.2113 -0.0987
10452SOL     OW32254   1.572   6.300   6.682  0.1388  0.6012  0.0355
10452SOL    HW132255   1.529   6.388   6.700  1.2777  1.0543  0.6460
10452SOL    HW232256   1.511   6.244   6.625 -1.2220  1.2021  0.8614
10453SOL     OW32257   5.649   3.600   5.326  0.0343 -0.8247  0.4232
10453SOL    HW132258   5.699   3.617   5.410 -1.5506 -2.8312  1.8832
10453SOL    HW232259   5.598   3.683   5.300  0.5687 -0.1696  1.4210
10454SOL     OW32260   3.691   4.774   0.524 -0.0898  0.4473  0.5854
10454SOL    HW132261   3.667   4.723   0.441  0.9480 -0.0994  0.6126
10454SOL    HW232262   3.734   4.713   0.590  1.8657  1.4906  0.3361
10455SOL     OW32263   3.486   2.062   4.126  0.0260 -0.2925 -0.2803
10455SOL    HW132264   3.398   2.098   4.094 -0.1867  0.0096  0.6163
10455SOL    HW232265   3.523   2.000   4.057 -1.9898 -2.2407  0.2462
10456SOL     OW32266   0.822   0.922   6.184 -0.3236  0.2803 -0.0910
10456SOL    HW132267   0.839   0.930   6.283 -1.5599  0.9993  0.0884
10456SOL    HW232268   0.782   0.833   6.164  1.9910 -0.7626 -0.2867
10457SOL     OW32269   4.967   3.072   1.240  0.2121  0.1624  0.1240
10457SOL    HW132270   4.927   3.164   1.242  2.3719  1.2527 -1.5052
10457SOL    HW232271   4.896   3.005   1.217 -0.9100  1.8314 -1.6768
10458SOL     OW32272   6.581   6.203   2.408  0.2112  0.3265 -0.2358
10458SOL    HW132273   6.642   6.138   2.454  0.5624  1.7089  1.3235
10458SOL    HW232274   6.626   6.292   2.400 -1.0029  0.9434 -0.5070
10459SOL     OW32275   0.353   1.731   0.502 -0.3709  0.6321 -0.1563
10459SOL    HW132276   0.421   1.686   0.561 -0.3997  0.5066 -0.2191
10459SOL    HW232277   0.380   1.720   0.406  0.2432  1.7459 -0.1230
10460SOL     OW32278   5.884   3.762   5.456  0.0931  0.3415  0.3316
10460SOL    HW132279   5.975   3.739   5.491  0.2239 -2.4754 -1.5254
10460SOL    HW232280   5.819   3.766   5.533  1.3959  0.2838  1.4756
10461SOL     OW32281   5.142   4.986   6.369  0.2720  0.2294 -0.9347
10461SOL    HW132282   5.044   4.967   6.373  0.4900 -1.1962 -1.9099
10461SOL    HW232283   5.186   4.924   6.305  1.8551  0.7474 -0.3978
10462SOL     OW32284   5.605   2.289   3.879 -0.2192  0.3012  0.0614
10462SOL    HW132285   5.685   2.280   3.939  0.7704  0.4567 -1.1929
10462SOL    HW232286   5.537   2.347   3.923  1.9447  3.4051 -0.3681
10463SOL     OW32287   0.970   6.904   5.928 -0.1636  0.3344  0.2545
10463SOL    HW132288   0.938   6.880   5.837 -2.0425  0.7711  0.7508
10463SOL    HW232289   1.006   6.998   5.928  1.0354 -0.1089 -0.2805
10464SOL     OW32290   1.418   3.156   1.950 -0.7310 -0.2644 -0.2473
10464SOL    HW132291   1.328   3.129   1.917 -0.6314  0.5805 -1.2917
10464SOL    HW232292   1.412   3.247   1.992 -0.2057  0.2604 -1.2637
10465SOL     OW32293   6.962   5.851   6.119 -0.0118  0.3206  0.0465
10465SOL    HW132294   7.015   5.788   6.063 -0.1323 -0.0167  0.3147
10465SOL    HW232295   7.016   5.934   6.136  0.9644 -0.5701  1.4523
10466SOL     OW32296   1.428   4.127   0.251  0.0377 -0.0206 -0.7004
10466SOL    HW132297   1.495   4.105   0.321 -0.8198  1.0944  0.5189
10466SOL    HW232298   1.344   4.074   0.267 -0.3136  0.5530 -0.6080
10467SOL     OW32299   3.841   0.441   0.627 -0.8724  0.2979  0.2106
10467SOL    HW132300   3.855   0.532   0.666 -2.3162  0.7272 -0.2288
10467SOL    HW232301   3.777   0.446   0.551 -2.7509 -1.3755  1.5687
10468SOL     OW32302   1.332   4.852   5.069 -0.1381 -0.0238  0.0959
10468SOL    HW132303   1.238   4.875   5.094 -0.4829 -0.3779 -0.8583
10468SOL    HW232304   1.392   4.873   5.146 -1.2101 -1.4308  1.3843
10469SOL     OW32305   2.225   2.481   4.203 -0.7567 -0.4867  0.6499
10469SOL    HW132306   2.213   2.382   4.193 -1.2889 -0.2802 -1.3760
10469SOL    HW232307   2.148   2.519   4.253 -2.0983 -0.7976 -1.0614
10470SOL     OW32308   5.054   2.490   6.385 -0.1579  0.2225 -0.0350
10470SOL    HW132309   5.125   2.534   6.329 -0.0801 -1.0222 -0.9603
10470SOL    HW232310   4.967   2.495   6.336 -0.4310  0.5244  0.4753
10471SOL     OW32311   3.287   3.712   2.904 -0.0133 -0.5191 -0.0095
10471SOL    HW132312   3.273   3.613   2.907 -0.7022 -0.4127  1.8870
10471SOL    HW232313   3.353   3.738   2.974 -0.2069  0.4219 -0.1616
10472SOL     OW32314   0.918   3.612   1.326  0.2855 -0.8235  0.7171
10472SOL    HW132315   0.969   3.678   1.270  0.5446 -1.8306 -0.2886
10472SOL    HW232316   0.877   3.659   1.404 -1.1791  0.9207 -0.9765
10473SOL     OW32317   7.008   1.872   4.048  0.2744 -0.2344 -0.0587
10473SOL    HW132318   7.030   1.777   4.027 -1.5919 -0.4522 -1.2387
10473SOL    HW232319   6.934   1.904   3.988  0.9198  2.0000  0.2410
10474SOL     OW32320   1.033   3.744   5.466 -0.1467  0.5236 -0.2452
10474SOL    HW132321   1.130   3.720   5.462 -0.6046 -1.5336 -0.3179
10474SOL    HW232322   1.021   3.840   5.443  1.9649  1.0875  0.7527
10475SOL     OW32323   4.959   0.376   5.129 -0.6112  0.1836 -0.2702
10475SOL    HW132324   5.045   0.331   5.104 -1.1452 -0.3589 -1.1891
10475SOL    HW232325   4.979   0.452   5.190  0.4332 -0.5088  0.2940
10476SOL     OW32326   1.982   3.510   1.889  0.8656 -1.0491  0.2041
10476SOL    HW132327   2.073   3.516   1.930  1.8714  2.5029 -2.0586
10476SOL    HW232328   1.929   3.592   1.914 -0.0246 -0.8813 -1.9754
10477SOL     OW32329   3.249   5.546   5.833 -0.3724  0.3763  0.1375
10477SOL    HW132330   3.233   5.592   5.746 -2.0827 -1.6910 -0.7226
10477SOL    HW232331   3.162   5.532   5.880 -0.2417 -3.2648 -0.3980
10478SOL     OW32332   2.860   5.729   1.429  0.2511 -0.0235  0.0545
10478SOL    HW132333   2.907   5.654   1.477  4.6898  2.5684  0.3606
10478SOL    HW232334   2.899   5.738   1.338 -1.3364  0.9733 -0.5538
10479SOL     OW32335   4.808   0.094   1.205  0.6767  0.5486  0.6651
10479SOL    HW132336   4.715   0.064   1.225  0.4385  1.0964  0.4178
10479SOL    HW232337   4.864   0.089   1.288  1.3944 -3.0298  0.1469
10480SOL     OW32338   4.786   2.653   5.452 -0.4837 -0.0430 -0.1567
10480SOL    HW132339   4.777   2.657   5.551 -0.0336 -0.7451 -0.0829
10480SOL    HW232340   4.813   2.743   5.417  0.1332  0.0075  0.4386
10481SOL     OW32341   1.917   3.502   5.024 -0.6667  0.1269 -0.0365
10481SOL    HW132342   1.859   3.421   5.021 -1.2998  0.5879 -1.5279
10481SOL    HW232343   1.966   3.511   4.937 -0.2235  1.0610  0.2970
10482SOL     OW32344   0.946   6.866   5.157 -0.1672  0.3503  0.4561
10482SOL    HW132345   0.982   6.932   5.223  0.2963 -0.7033  1.2798
10482SOL    HW232346   0.891   6.797   5.204  1.2150 -1.1533 -0.0434
10483SOL     OW32347   0.285   3.278   0.913 -0.5899  0.1179  0.0221
10483SOL    HW132348   0.297   3.345   0.839 -0.0369 -0.0724 -0.0646
10483SOL    HW232349   0.367   3.221   0.920 -0.8476 -0.2054  0.4446
10484SOL     OW32350   5.715   2.421   4.395 -0.1758 -0.6178 -0.4115
10484SOL    HW132351   5.709   2.503   4.338 -1.1087  0.0808  0.6682
10484SOL    HW232352   5.672   2.344   4.348  0.7370 -0.5192 -1.4450
10485SOL     OW32353   5.427   1.117   0.311 -0.5311 -0.1124 -0.8161
10485SOL    HW132354   5.334   1.155   0.310 -1.0251 -1.2809 -1.1879
10485SOL    HW232355   5.482   1.167   0.377 -0.7289  2.1650 -2.2518
10486SOL     OW32356   2.181   4.092   0.115 -0.7028 -0.0217 -0.1285
10486SOL    HW132357   2.218   4.124   0.202 -1.0293 -1.1453  0.4394
10486SOL    HW232358   2.159   4.170   0.057 -1.1806  0.7668  1.0895
10487SOL     OW32359   1.955   2.446   6.394 -0.0655 -0.0167  0.3114
10487SOL    HW132360   1.947   2.385   6.315 -0.1353 -0.7212  0.8506
10487SOL    HW232361   1.993   2.534   6.365  1.1932 -0.7279 -0.2763
10488SOL     OW32362   2.702   0.782   6.653  0.4583 -0.2473 -0.0279
10488SOL    HW132363   2.659   0.759   6.741  4.0249 -0.4486  1.9023
10488SOL    HW232364   2.690   0.879   6.634  0.4899  0.0308  1.2730
10489SOL     OW32365   6.123   2.089   1.534 -0.3479  0.0935  0.4480
10489SOL    HW132366   6.040   2.074   1.588 -0.0204  2.1431  1.6479
10489SOL    HW232367   6.125   2.184   1.502  0.5213 -0.5113 -1.3971
10490SOL     OW32368   4.999   1.925   4.494 -0.9424  0.3828  0.1659
10490SOL    HW132369   5.021   1.857   4.424 -1.1026  1.0566 -0.5474
10490SOL    HW232370   4.922   1.892   4.549  0.2432 -0.9077  1.1437
10491SOL     OW32371   2.668   6.327   5.001  0.4992 -0.0028  0.4952
10491SOL    HW132372   2.656   6.338   5.100 -2.0193 -0.3516  0.3071
10491SOL    HW232373   2.589   6.366   4.954  1.9917  0.8357 -1.4756
10492SOL     OW32374   4.160   5.470   5.322  0.2481  0.7463  0.1086
10492SOL    HW132375   4.116   5.388   5.358  1.6178  0.3134  0.9081
10492SOL    HW232376   4.152   5.544   5.388  0.5968  0.7026  0.2017
10493SOL     OW32377   6.561   5.718   0.831 -0.4107 -0.0261  0.6037
10493SOL    HW132378   6.586   5.769   0.749 -0.2937 -2.5340 -1.0182
10493SOL    HW232379   6.494   5.770   0.884 -1.0870  1.3346 -1.4927
10494SOL     OW32380   0.884   1.097   0.330  0.1084 -0.1011  0.0980
10494SOL    HW132381   0.937   1.181   0.341  0.9510 -0.5033 -0.7341
10494SOL    HW232382   0.829   1.081   0.412  1.3832  0.2617  1.0586
10495SOL     OW32383   4.289   6.600   1.625 -0.0648  0.2490  0.4791
10495SOL    HW132384   4.228   6.526   1.597 -0.3383  0.9098 -0.7815
10495SOL    HW232385   4.238   6.666   1.680 -0.5292  0.8252 -0.6148
10496SOL     OW32386   6.205   5.392   3.689 -0.4005 -0.0273  0.2215
10496SOL    HW132387   6.142   5.443   3.748 -0.2802  0.0281  0.3021
10496SOL    HW232388   6.157   5.364   3.606 -0.7327 -0.6169  0.6067
10497SOL     OW32389   2.400   3.438   6.543 -0.0401  0.5632 -0.6208
10497SOL    HW132390   2.411   3.406   6.449  0.0405 -0.9231 -0.1209
10497SOL    HW232391   2.362   3.365   6.599  1.3547  0.9174  0.8443
10498SOL     OW32392   5.845   0.085   1.312 -0.3479 -0.4242  0.6371
10498SOL    HW132393   5.746   0.096   1.308 -0.4543 -1.4856 -2.6789
10498SOL    HW232394   5.867  -0.011   1.332 -0.1670 -1.0109 -1.9876
10499SOL     OW32395   3.705   5.580   6.177  0.2474  0.0482  0.3372
10499SOL    HW132396   3.721   5.671   6.215 -2.4808  0.5767  0.4387
10499SOL    HW232397   3.788   5.548   6.131  1.6221  2.0884  1.2453
10500SOL     OW32398   5.901   1.182   0.501 -0.1030 -0.0275 -0.0976
10500SOL    HW132399   5.823   1.155   0.557  0.5325 -1.0989  0.2942
10500SOL    HW232400   5.978   1.120   0.519  0.1143 -0.4170 -2.1467
10501SOL     OW32401   3.784   5.009   4.783 -0.4513  0.5884 -0.3203
10501SOL    HW132402   3.687   5.007   4.808 -0.7682 -0.8984 -1.5143
10501SOL    HW232403   3.839   4.970   4.857 -0.8921  0.4041 -0.0881
10502SOL     OW32404   3.325   2.930   1.215  0.5440  0.0471 -0.3871
10502SOL    HW132405   3.403   2.969   1.168  1.3214  3.4720  3.2246
10502SOL    HW232406   3.240   2.962   1.172  1.1284 -0.1889 -1.7558
10503SOL     OW32407   6.340   2.117   4.481  0.5686 -0.5199 -0.0728
10503SOL    HW132408   6.427   2.155   4.513  1.0277  1.0828 -2.8460
10503SOL    HW232409   6.281   2.191   4.450 -0.7735 -1.7595 -0.5843
10504SOL     OW32410   5.592   4.844   0.897 -0.2948  0.0060  0.1181
10504SOL    HW132411   5.510   4.837   0.842  0.3392 -1.8218 -0.6755
10504SOL    HW232412   5.671   4.862   0.838  0.2887 -1.2975  0.4493
10505SOL     OW32413   6.229   6.085   2.429 -0.0754 -0.0792 -0.0035
10505SOL    HW132414   6.294   6.010   2.439  1.0493  1.1016  2.4186
10505SOL    HW232415   6.273   6.171   2.455 -1.7180  1.2513 -1.3815
10506SOL     OW32416   4.272   5.039   3.161  0.1818  0.2228  0.5021
10506SOL    HW132417   4.339   5.110   3.136  2.2406 -1.5190  0.8014
10506SOL    HW232418   4.198   5.039   3.095  0.5578  2.0914  0.0228
10507SOL     OW32419   1.202   6.926   2.944  0.7121 -0.0642  0.5397
10507SOL    HW132420   1.262   6.996   2.982  1.0990 -0.9750  1.6651
10507SOL    HW232421   1.256   6.856   2.899  0.2281  1.4359 -2.6282
10508SOL     OW32422   4.608   4.214   1.198 -0.5323 -0.0795  0.1132
10508SOL    HW132423   4.640   4.145   1.262 -0.7346 -0.2854 -0.0046
10508SOL    HW232424   4.510   4.230   1.212 -0.2226  1.1279  1.0141
10509SOL     OW32425   3.100   2.182   4.510  0.0853  0.2785 -0.0008
10509SOL    HW132426   3.182   2.212   4.462 -0.2004  0.1620 -0.5653
10509SOL    HW232427   3.119   2.176   4.608  0.9367 -0.3637 -0.1968
10510SOL     OW32428   5.134   2.661   4.820 -0.1887 -0.3047 -0.3067
10510SOL    HW132429   5.205   2.600   4.854  0.3059  0.4094 -0.0428
10510SOL    HW232430   5.129   2.654   4.720  0.1168 -0.5041 -0.3099
10511SOL     OW32431   0.054   4.505   1.880  0.0278  0.4327  0.7898
10511SOL    HW132432   0.145   4.546   1.884  1.2623 -2.0255 -0.1171
10511SOL    HW232433   0.018   4.515   1.787 -1.1073  2.2090  1.3639
10512SOL     OW32434   4.072   0.732   5.223  0.4447 -0.2622 -0.4660
10512SOL    HW132435   3.973   0.744   5.232  0.7085  1.0018  1.4782
10512SOL    HW232436   4.100   0.649   5.271  0.1092 -1.8980 -2.9715
10513SOL     OW32437   0.431   0.065   4.062  0.2983 -0.2645  0.3166
10513SOL    HW132438   0.526   0.096   4.065 -0.0185  0.7926 -0.0269
10513SOL    HW232439   0.420  -0.003   3.990  0.6118  0.2780 -0.2502
10514SOL     OW32440   5.057   4.197   5.561  0.1159 -0.0194 -0.2416
10514SOL    HW132441   5.144   4.239   5.587  1.4847 -0.9584 -2.8372
10514SOL    HW232442   4.981   4.248   5.601  1.8199  1.8341  0.7884
10515SOL     OW32443   1.623   2.325   4.788  0.1188 -0.5113 -0.3252
10515SOL    HW132444   1.576   2.335   4.701 -1.4883  0.6821  0.6298
10515SOL    HW232445   1.682   2.404   4.804  0.6381 -0.8670 -0.4405
10516SOL     OW32446   0.833   0.575   4.228 -0.5682 -0.4629 -0.0252
10516SOL    HW132447   0.842   0.674   4.216  0.3648 -0.4001  1.0901
10516SOL    HW232448   0.786   0.556   4.314  1.5447 -0.9970  1.0725
10517SOL     OW32449   3.617   2.526   6.078  0.2120  0.7385 -0.4348
10517SOL    HW132450   3.674   2.455   6.037 -0.4662  0.4675 -0.9413
10517SOL    HW232451   3.558   2.565   6.008 -0.6725  0.5655  0.1961
10518SOL     OW32452   3.743   1.922   6.925  0.4639  0.5174  0.2867
10518SOL    HW132453   3.686   2.002   6.945 -0.4543  0.0277 -0.2835
10518SOL    HW232454   3.796   1.939   6.842  0.0178  0.4211 -0.0239
10519SOL     OW32455   6.154   3.382   0.147 -0.0331 -0.3865  0.5138
10519SOL    HW132456   6.176   3.470   0.105 -0.8331 -0.3287  0.1940
10519SOL    HW232457   6.105   3.326   0.080 -2.3426  0.1185  1.6796
10520SOL     OW32458   5.742   3.195   5.651 -0.2388  0.5531  0.3200
10520SOL    HW132459   5.662   3.176   5.709 -0.9159  1.4485 -0.2957
10520SOL    HW232460   5.824   3.161   5.696 -1.1783 -2.5357 -0.0572
10521SOL     OW32461   2.716   0.235   2.330  0.1534  0.8134 -0.0070
10521SOL    HW132462   2.646   0.302   2.354 -2.4283 -1.3922 -0.9676
10521SOL    HW232463   2.741   0.182   2.412  0.1478  1.0977  0.1802
10522SOL     OW32464   4.619   4.848   2.976 -0.1111 -0.1840 -0.3883
10522SOL    HW132465   4.581   4.835   3.068 -0.0870  0.4083 -0.2937
10522SOL    HW232466   4.589   4.773   2.917  1.6018 -1.7520  0.6285
10523SOL     OW32467   1.860   3.619   2.490  0.3454  0.2980 -0.0026
10523SOL    HW132468   1.835   3.571   2.406 -1.3248  0.8968  0.1240
10523SOL    HW232469   1.778   3.637   2.545  1.4814 -1.0073  2.3010
10524SOL     OW32470   4.168   2.033   3.854  0.0677  0.2533 -0.3871
10524SOL    HW132471   4.127   2.070   3.937  0.1039 -0.0169 -0.2461
10524SOL    HW232472   4.186   1.935   3.866 -1.5846 -0.2131 -1.3395
10525SOL     OW32473   0.594   0.451   3.836 -0.4648 -0.7191 -0.4435
10525SOL    HW132474   0.532   0.376   3.860 -1.0876 -0.4303 -1.1081
10525SOL    HW232475   0.547   0.515   3.776 -0.2495  0.7337  0.8901
10526SOL     OW32476   6.355   3.996   6.001 -0.5293 -0.1443 -0.1065
10526SOL    HW132477   6.390   4.090   6.005  1.3369 -0.7773 -0.2966
10526SOL    HW232478   6.291   3.981   6.076 -1.4707  1.4789 -0.5230
10527SOL     OW32479   1.862   0.953   3.722  0.2920 -0.1399  0.0452
10527SOL    HW132480   1.852   1.024   3.653  1.1617  0.0977  0.1543
10527SOL    HW232481   1.900   0.992   3.805 -3.2143  0.1787  1.7095
10528SOL     OW32482   5.113   1.402   0.469  0.3755 -0.1330  0.1628
10528SOL    HW132483   5.100   1.470   0.396  1.4629  0.2072  0.2669
10528SOL    HW232484   5.125   1.312   0.428  0.2133 -0.0663 -0.0392
10529SOL     OW32485   6.144   5.794   2.765 -0.1440 -0.4792  0.3589
10529SOL    HW132486   6.208   5.744   2.708  2.0694  2.0984  0.3531
10529SOL    HW232487   6.179   5.797   2.859 -0.2418  0.9262  0.3713
10530SOL     OW32488   4.133   1.062   3.592  0.1397  0.3692 -0.2904
10530SOL    HW132489   4.158   1.143   3.539  1.2652 -0.4012 -0.9689
10530SOL    HW232490   4.033   1.052   3.590  0.1595 -0.3476 -3.4284
10531SOL     OW32491   5.331   4.098   2.603 -0.1977  0.1660  0.1212
10531SOL    HW132492   5.403   4.037   2.572 -0.4261 -0.2765  0.4451
10531SOL    HW232493   5.276   4.052   2.673 -0.4836  0.6773  0.2406
10532SOL     OW32494   6.480   5.857   6.903 -0.1587  0.4585 -0.2006
10532SOL    HW132495   6.392   5.824   6.937 -0.7084 -0.4818 -2.3829
10532SOL    HW232496   6.471   5.953   6.877 -0.5644  0.3545 -0.4537
10533SOL     OW32497   5.202   5.812   1.520 -0.0366 -0.0143  0.0955
10533SOL    HW132498   5.111   5.853   1.519 -1.1531 -2.3527 -0.9998
10533SOL    HW232499   5.243   5.820   1.429 -0.2735 -1.2643 -0.1371
10534SOL     OW32500   4.795   6.329   6.265  0.1268 -0.2015  0.0732
10534SOL    HW132501   4.706   6.372   6.251  0.9139  1.1826 -0.8802
10534SOL    HW232502   4.785   6.254   6.330 -1.8052 -0.3532 -0.3363
10535SOL     OW32503   6.536   1.628   6.790 -0.0893  0.4335  0.4766
10535SOL    HW132504   6.490   1.692   6.851 -1.9876 -1.0020  0.6433
10535SOL    HW232505   6.510   1.649   6.695 -0.0942  0.3897  0.4684
10536SOL     OW32506   6.296   6.380   0.294  0.3447  0.4682  0.0285
10536SOL    HW132507   6.209   6.413   0.258 -0.1324  0.0465  0.7568
10536SOL    HW232508   6.371   6.429   0.251 -0.3185  2.4023  0.9542
10537SOL     OW32509   6.176   6.788   0.574  0.3693 -0.0031  0.0081
10537SOL    HW132510   6.161   6.754   0.667 -1.2204  2.1747  0.6275
10537SOL    HW232511   6.119   6.737   0.511 -0.4893  0.1775  0.6208
10538SOL     OW32512   1.642   1.368   2.966  0.1091  0.1502  0.4706
10538SOL    HW132513   1.657   1.310   2.885 -1.0781  0.1409  0.2390
10538SOL    HW232514   1.718   1.355   3.031  1.4134  0.6315 -0.8912
10539SOL     OW32515   6.996   0.526   3.438 -0.2459  0.1429 -0.0348
10539SOL    HW132516   7.035   0.445   3.482 -0.2662 -1.0561 -2.0894
10539SOL    HW232517   7.038   0.538   3.348 -0.4457  2.2879  0.1050
10540SOL     OW32518   3.047   6.577   3.408 -0.6056 -0.0282 -0.1764
10540SOL    HW132519   2.981   6.618   3.345 -1.3208  1.1237  1.2732
10540SOL    HW232520   3.138   6.581   3.367 -1.2681 -0.9772 -1.8971
10541SOL     OW32521   2.344   0.833   0.446 -0.5045  1.1413 -0.4111
10541SOL    HW132522   2.275   0.772   0.407 -2.0690  2.5779 -0.0231
10541SOL    HW232523   2.435   0.800   0.422 -1.2569 -1.4572 -0.0077
10542SOL     OW32524   1.369   1.689   5.627  0.5648 -0.1230  0.1180
10542SOL    HW132525   1.360   1.753   5.551 -3.0916  0.1787  0.6466
10542SOL    HW232526   1.346   1.597   5.597  1.1055 -0.3625  0.4274
10543SOL     OW32527   5.412   3.408   6.582 -0.1800  0.1894 -0.0555
10543SOL    HW132528   5.356   3.486   6.611  0.3249  0.3538  0.5116
10543SOL    HW232529   5.499   3.441   6.546 -0.6614 -0.0333 -1.5003
10544SOL     OW32530   2.646   2.264   0.371  0.3098  0.3226  0.3918
10544SOL    HW132531   2.685   2.256   0.279  0.4210  0.6986  0.4054
10544SOL    HW232532   2.713   2.303   0.433  0.3228 -0.1769  0.6977
10545SOL     OW32533   6.247   5.460   0.208 -0.3881  0.1176 -0.3856
10545SOL    HW132534   6.230   5.416   0.296 -1.2583 -0.9503 -1.0589
10545SOL    HW232535   6.286   5.393   0.144  2.2584  1.3943 -0.2318
10546SOL     OW32536   6.560   4.278   6.354 -0.0798 -0.1389 -0.2909
10546SOL    HW132537   6.482   4.219   6.371  0.1934 -0.8978 -1.5656
10546SOL    HW232538   6.634   4.256   6.419 -0.4820 -0.2242  0.1428
10547SOL     OW32539   3.366   4.307   6.595 -0.3823  0.2061 -0.0678
10547SOL    HW132540   3.303   4.280   6.523 -0.8327  0.7476  0.1151
10547SOL    HW232541   3.457   4.271   6.576 -0.3352  0.9282 -1.2607
10548SOL     OW32542   6.409   4.607   5.315 -0.1701 -0.4137 -0.4002
10548SOL    HW132543   6.498   4.561   5.306  0.8144  1.2720  0.1886
10548SOL    HW232544   6.338   4.539   5.332  1.2104 -1.6933  0.5246
10549SOL     OW32545   0.969   6.405   6.118  0.0842  0.2147 -0.9082
10549SOL    HW132546   0.945   6.316   6.156  0.7572  0.6308  0.5590
10549SOL    HW232547   1.056   6.398   6.069  0.7064  0.2683  0.1506
10550SOL     OW32548   4.001   3.117   4.069  0.2006  0.1003 -0.2173
10550SOL    HW132549   4.035   3.129   4.161  0.9381 -0.9553 -0.3351
10550SOL    HW232550   3.926   3.050   4.070  0.7586 -0.5480 -0.4718
10551SOL     OW32551   5.059   5.377   4.814 -0.5285 -0.3785 -0.6705
10551SOL    HW132552   4.981   5.315   4.803 -1.6268  0.5505  1.3621
10551SOL    HW232553   5.143   5.324   4.825 -0.9530 -1.4090 -2.0814
10552SOL     OW32554   3.775   0.498   6.176 -0.2403  0.0550 -0.0748
10552SOL    HW132555   3.685   0.457   6.193 -0.3582  0.1275 -0.5055
10552SOL    HW232556   3.845   0.427   6.186 -0.1714  0.3586  1.9110
10553SOL     OW32557   1.958   2.668   6.194 -0.2271  0.0487  0.1296
10553SOL    HW132558   1.909   2.610   6.128 -0.4926  0.5626 -0.1355
10553SOL    HW232559   1.905   2.752   6.209  0.2492  0.3092  0.3519
10554SOL     OW32560   5.934   0.906   1.061  0.6454  0.2897  0.1411
10554SOL    HW132561   6.028   0.873   1.047  0.8944  1.1325 -0.2755
10554SOL    HW232562   5.925   0.942   1.154  1.2392  1.7121 -0.3123
10555SOL     OW32563   4.149   1.579   6.368  0.6651 -0.0686 -0.3314
10555SOL    HW132564   4.057   1.603   6.337  0.3106 -1.1596 -0.1686
10555SOL    HW232565   4.146   1.553   6.464  1.4293  1.4184  0.1134
10556SOL     OW32566   7.007   2.081   6.593 -0.2260  0.1545  0.4482
10556SOL    HW132567   7.098   2.122   6.596 -0.2654  0.2105  2.3695
10556SOL    HW232568   6.939   2.152   6.576  0.0483  0.1745 -0.5981
10557SOL     OW32569   2.706   1.700   3.374 -0.4492 -0.0919 -0.0016
10557SOL    HW132570   2.654   1.643   3.310  1.5114 -2.8063  0.6362
10557SOL    HW232571   2.711   1.793   3.339 -3.0952 -0.4230 -1.5511
10558SOL     OW32572   4.812   5.290   5.605 -0.2184 -0.2201  0.1903
10558SOL    HW132573   4.821   5.192   5.589  1.4997  0.0298 -0.4907
10558SOL    HW232574   4.721   5.320   5.575 -0.3187 -1.3826 -0.7294
10559SOL     OW32575   5.397   1.690   3.685  0.3160  0.4960 -0.3347
10559SOL    HW132576   5.395   1.781   3.643  1.1731 -0.1561 -1.8363
10559SOL    HW232577   5.350   1.625   3.626  0.6059 -0.2515  0.2464
10560SOL     OW32578   0.153   1.549   2.647  0.2575 -0.2916 -0.2208
10560SOL    HW132579   0.084   1.511   2.709  0.6380  0.2368  0.5560
10560SOL    HW232580   0.109   1.586   2.566 -0.5020  0.9068  0.6990
10561SOL     OW32581   0.519   6.877   1.388  0.0499  0.4329  0.0500
10561SOL    HW132582   0.514   6.777   1.377 -2.9981  0.4976 -0.1294
10561SOL    HW232583   0.506   6.920   1.298 -0.6777  0.9639  0.4034
10562SOL     OW32584   5.843   6.844   1.420 -0.1692 -0.5792 -0.3436
10562SOL    HW132585   5.895   6.821   1.503 -1.9729  0.4060  1.1344
10562SOL    HW232586   5.758   6.791   1.419 -1.2142  1.0374 -0.3515
10563SOL     OW32587   3.925   1.559   4.473  0.4969  0.4283 -0.0905
10563SOL    HW132588   3.858   1.492   4.442  0.1100  0.1364  1.3011
10563SOL    HW232589   3.982   1.518   4.545  1.6435  0.9382 -0.6749
10564SOL     OW32590   0.263   3.501   5.641  0.1494 -0.6182 -0.2836
10564SOL    HW132591   0.201   3.423   5.635 -1.8893  0.7438  1.4442
10564SOL    HW232592   0.342   3.477   5.697 -1.1522 -1.1036  1.4419
10565SOL     OW32593   2.593   0.819   5.957  0.3201 -0.4702  0.3001
10565SOL    HW132594   2.672   0.838   6.014  0.5965  0.1147 -0.2705
10565SOL    HW232595   2.623   0.789   5.866 -0.1054 -2.3914  0.7442
10566SOL     OW32596   4.531   3.558   1.541 -0.3328  0.1532 -0.0709
10566SOL    HW132597   4.552   3.462   1.560 -1.4960  0.0862  1.0138
10566SOL    HW232598   4.434   3.575   1.555 -0.1025  1.5545  0.0481
10567SOL     OW32599   0.315   3.502   5.926 -0.2636  0.5436  0.1191
10567SOL    HW132600   0.312   3.565   5.849 -0.6920 -1.1937 -1.3518
10567SOL    HW232601   0.386   3.434   5.911 -0.2656  0.2506  1.3435
10568SOL     OW32602   2.082   3.238   6.909  0.9378 -0.8344  0.6939
10568SOL    HW132603   2.037   3.271   6.826  3.4109 -0.4630 -0.5939
10568SOL    HW232604   2.020   3.248   6.987 -1.9167 -2.2882 -1.2278
10569SOL     OW32605   3.305   3.587   0.563 -0.0063 -0.8396  0.0376
10569SOL    HW132606   3.319   3.499   0.518  0.6482  0.4520 -2.4969
10569SOL    HW232607   3.218   3.586   0.612 -0.6312 -2.4854 -1.0282
10570SOL     OW32608   6.028   1.313   1.054  0.6856  0.1413  0.1826
10570SOL    HW132609   6.060   1.248   1.123  1.6288 -0.6969 -0.9936
10570SOL    HW232610   5.999   1.263   0.973 -3.2001  0.8740  0.9115
10571SOL     OW32611   5.365   2.079   2.378 -0.3105 -0.0758  0.0226
10571SOL    HW132612   5.280   2.132   2.382 -0.1814  0.1826 -0.6666
10571SOL    HW232613   5.347   1.987   2.413 -0.8233  0.0452  0.0927
10572SOL     OW32614   2.869   6.769   4.637  0.0970 -0.3912 -0.6706
10572SOL    HW132615   2.819   6.809   4.714  1.4454  0.3850 -0.1666
10572SOL    HW232616   2.904   6.842   4.578  2.4836 -0.7391  0.1966
10573SOL     OW32617   5.817   2.602   0.548 -0.3219 -0.1728 -0.5157
10573SOL    HW132618   5.729   2.649   0.546 -1.6586 -2.5264 -0.7526
10573SOL    HW232619   5.823   2.548   0.632  0.7968 -0.2743 -0.6476
10574SOL     OW32620   3.353   1.071   5.993  0.0503  0.2999 -0.4180
10574SOL    HW132621   3.299   0.994   6.027 -0.7267  0.2634 -1.6464
10574SOL    HW232622   3.298   1.155   5.997  0.0707  0.3617 -1.1893
10575SOL     OW32623   0.337   4.574   4.209  0.4851 -0.4292  0.8427
10575SOL    HW132624   0.316   4.548   4.303 -4.2743  1.1404  0.4639
10575SOL    HW232625   0.261   4.547   4.149  2.0085  1.2420 -2.0533
10576SOL     OW32626   5.447   4.263   6.543 -0.3104 -0.1341  0.2194
10576SOL    HW132627   5.510   4.254   6.620  1.4970 -0.4176 -1.2427
10576SOL    HW232628   5.367   4.317   6.571  0.8269  0.7134  1.9581
10577SOL     OW32629   1.603   3.085   2.846 -0.3045 -0.5690  0.0113
10577SOL    HW132630   1.696   3.065   2.877  0.0010  2.0422  0.9934
10577SOL    HW232631   1.587   3.183   2.848 -2.8803 -0.8842 -0.8565
10578SOL     OW32632   5.287   5.300   1.671 -0.1472 -0.3635  0.6013
10578SOL    HW132633   5.263   5.367   1.601  3.3507 -0.6496 -1.0462
10578SOL    HW232634   5.277   5.207   1.634  3.8652 -0.5043 -0.5516
10579SOL     OW32635   6.358   0.939   0.660  0.1810 -0.1794  0.2136
10579SOL    HW132636   6.395   1.032   0.653 -0.3767  0.0886  0.7756
10579SOL    HW232637   6.324   0.923   0.753 -0.8752 -0.5166 -0.2213
10580SOL     OW32638   4.164   6.777   5.930 -0.1127 -0.5634 -0.7263
10580SOL    HW132639   4.215   6.736   6.006  0.2397 -0.0869 -0.6932
10580SOL    HW232640   4.165   6.716   5.852  0.5627 -0.5451 -0.7404
10581SOL     OW32641   1.514   6.139   2.364 -0.4002  0.1559  0.1780
10581SOL    HW132642   1.545   6.199   2.291  0.4183 -0.7610 -0.2396
10581SOL    HW232643   1.578   6.143   2.441  0.8323 -1.7463 -0.6913
10582SOL     OW32644   6.097   1.973   0.918  0.1448  0.4791 -0.3926
10582SOL    HW132645   6.032   2.048   0.931  2.0161  2.0712  0.4040
10582SOL    HW232646   6.048   1.890   0.891 -2.1319  1.6766 -0.1917
10583SOL     OW32647   4.129   5.305   1.108  0.2907 -0.2282  0.0039
10583SOL    HW132648   4.136   5.208   1.087 -0.9583 -0.7207  1.7256
10583SOL    HW232649   4.037   5.326   1.140  0.3651  1.6608 -0.8723
10584SOL     OW32650   4.702   2.424   4.785  0.4615 -0.1374 -0.1399
10584SOL    HW132651   4.602   2.424   4.791  0.5214  0.3826  1.0360
10584SOL    HW232652   4.741   2.434   4.876  1.5690  1.7274 -0.7578
10585SOL     OW32653   3.579   4.612   5.701  0.0229  0.2474  0.0987
10585SOL    HW132654   3.514   4.643   5.631  1.0277  1.2185 -0.4431
10585SOL    HW232655   3.537   4.619   5.791 -1.1667 -0.6609 -0.3559
10586SOL     OW32656   6.682   1.430   4.947  0.3151 -0.7542  0.0716
10586SOL    HW132657   6.693   1.351   5.006 -0.0434 -1.5164 -0.8481
10586SOL    HW232658   6.772   1.460   4.914  0.5293 -0.2308  1.0901
10587SOL     OW32659   1.327   4.977   1.522  0.6017  0.2999  0.5646
10587SOL    HW132660   1.328   4.881   1.493  1.3037  0.5207 -0.1723
10587SOL    HW232661   1.233   5.006   1.540  0.0327  0.3265 -2.1135
10588SOL     OW32662   4.366   5.737   6.874 -0.3205 -0.2469  0.5906
10588SOL    HW132663   4.362   5.654   6.818  0.1941 -0.8243  1.3773
10588SOL    HW232664   4.447   5.790   6.848 -0.6763  0.0407  0.0533
10589SOL     OW32665   6.353   6.459   4.540 -0.5298 -0.4164 -0.1397
10589SOL    HW132666   6.365   6.538   4.601 -0.3127  0.1899 -0.9611
10589SOL    HW232667   6.268   6.471   4.488  0.8645  0.6652 -2.2900
10590SOL     OW32668   1.826   3.267   1.390  0.4776 -0.5471 -0.3488
10590SOL    HW132669   1.843   3.197   1.459  0.5486 -0.1676  0.0272
10590SOL    HW232670   1.810   3.355   1.435  0.3225 -0.3329 -0.8097
10591SOL     OW32671   1.511   6.870   4.155  1.1881  0.3718  0.7127
10591SOL    HW132672   1.425   6.826   4.131  0.9932 -0.0718  2.1251
10591SOL    HW232673   1.565   6.885   4.072  0.2836 -0.4554 -0.0523
10592SOL     OW32674   6.025   6.230   6.915  0.0623 -0.2442 -0.4135
10592SOL    HW132675   5.984   6.240   7.006  1.7495  1.7290  0.2057
10592SOL    HW232676   5.958   6.256   6.846 -0.6038  0.2864  0.4003
10593SOL     OW32677   6.849   1.354   1.655  0.3478 -0.3649  0.1215
10593SOL    HW132678   6.776   1.369   1.589 -0.8726 -0.2820  1.4546
10593SOL    HW232679   6.934   1.395   1.620 -0.6782  1.2701 -0.5657
10594SOL     OW32680   3.442   4.950   4.115  0.0905  0.2394 -0.1255
10594SOL    HW132681   3.351   4.990   4.111 -0.9244 -1.9391 -0.2153
10594SOL    HW232682   3.486   4.958   4.025 -1.0029 -0.7984 -0.7887
10595SOL     OW32683   4.237   1.197   1.131 -0.1353 -0.7605  0.6200
10595SOL    HW132684   4.187   1.131   1.188 -0.2702 -0.7380  0.5261
10595SOL    HW232685   4.294   1.255   1.190 -0.0873 -0.8981  0.7113
10596SOL     OW32686   2.790   1.740   2.850  0.0812  0.3424 -0.3340
10596SOL    HW132687   2.860   1.811   2.854 -0.3706  0.7516  2.1004
10596SOL    HW232688   2.833   1.653   2.825  1.2270  0.8365 -0.1639
10597SOL     OW32689   0.236   5.503   3.525  1.0883  0.1547 -0.2069
10597SOL    HW132690   0.215   5.574   3.458  0.5547 -0.2420 -0.4713
10597SOL    HW232691   0.254   5.544   3.614 -0.1091  0.5694 -0.1436
10598SOL     OW32692   0.012   0.247   3.716 -0.3778 -0.2034 -0.0172
10598SOL    HW132693  -0.043   0.295   3.783 -0.3442  2.0603 -1.5123
10598SOL    HW232694  -0.047   0.192   3.657 -0.8424  0.6298 -0.3491
10599SOL     OW32695   5.042   6.557   1.574 -0.4404  0.5055  0.4598
10599SOL    HW132696   4.984   6.581   1.652 -2.6572 -0.1190 -0.9003
10599SOL    HW232697   4.997   6.585   1.489  0.4285 -1.6071 -0.7818
10600SOL     OW32698   5.091   0.604   2.537 -0.3391  0.3822 -0.1382
10600SOL    HW132699   5.137   0.515   2.538  0.3892  0.7354 -1.1697
10600SOL    HW232700   5.055   0.624   2.629 -1.1563 -1.2940 -0.0497
10601SOL     OW32701   5.861   1.348   4.709 -0.1897  0.1738  0.1895
10601SOL    HW132702   5.805   1.347   4.626 -1.2314  0.3894  0.8805
10601SOL    HW232703   5.848   1.434   4.758  2.0448  0.9754 -0.4754
10602SOL     OW32704   5.456   1.494   5.945 -0.0394  0.2642  0.4574
10602SOL    HW132705   5.372   1.441   5.952 -0.1738  0.4817  0.5142
10602SOL    HW232706   5.475   1.515   5.849 -0.3992  0.7664  0.4953
10603SOL     OW32707   6.356   0.059   4.521 -0.3233 -0.2192  0.3870
10603SOL    HW132708   6.391  -0.003   4.591  2.7768  1.4912  0.5425
10603SOL    HW232709   6.372   0.154   4.549 -0.9479  0.5611 -1.7006
10604SOL     OW32710   0.944   3.494   0.461  0.2214 -0.0613  0.6185
10604SOL    HW132711   1.006   3.451   0.528  1.0684  0.7165  0.3540
10604SOL    HW232712   0.852   3.501   0.500  0.1859 -1.6004  0.8760
10605SOL     OW32713   1.490   4.316   2.205  0.1426 -0.2620  0.4196
10605SOL    HW132714   1.503   4.226   2.247 -0.0596 -0.9820 -1.0008
10605SOL    HW232715   1.576   4.367   2.208  0.8215 -1.3067 -0.5509
10606SOL     OW32716   1.283   1.075   0.254 -0.0937  0.3461  0.0645
10606SOL    HW132717   1.365   1.126   0.280  0.1277 -1.5867  3.6471
10606SOL    HW232718   1.205   1.107   0.308 -0.5464 -1.2079  0.3732
10607SOL     OW32719   3.688   1.954   1.948  0.2373  0.0274  0.2588
10607SOL    HW132720   3.708   2.027   2.013 -1.5378 -0.5597  1.5392
10607SOL    HW232721   3.594   1.961   1.917  0.6057 -0.6230 -1.0971
10608SOL     OW32722   2.702   6.846   3.982 -0.1823  0.0596 -0.3693
10608SOL    HW132723   2.712   6.944   3.998 -1.1829  0.1399 -0.2046
10608SOL    HW232724   2.719   6.826   3.885 -1.0630  0.5562 -0.6363
10609SOL     OW32725   2.185   0.867   5.709 -0.9276  0.6409  0.2914
10609SOL    HW132726   2.187   0.929   5.787 -1.3846 -0.4173  1.1662
10609SOL    HW232727   2.178   0.920   5.624  0.7754  1.8583  0.8714
10610SOL     OW32728   1.538   4.693   4.986  0.0581 -0.3985 -0.0838
10610SOL    HW132729   1.621   4.745   5.011 -0.9483  1.0182  0.4537
10610SOL    HW232730   1.463   4.757   4.969 -0.3404 -1.5321 -2.9962
10611SOL     OW32731   3.827   2.028   6.692 -0.3318 -0.7107 -0.1425
10611SOL    HW132732   3.756   2.084   6.651 -0.2886 -0.7654 -0.2905
10611SOL    HW232733   3.894   2.087   6.738 -0.8881 -0.6935  0.6710
10612SOL     OW32734   3.280   3.923   1.150  0.5182  0.0107 -0.0789
10612SOL    HW132735   3.349   3.933   1.078 -0.5419  0.1118 -1.1166
10612SOL    HW232736   3.309   3.974   1.231  1.1219  1.0252 -0.9022
10613SOL     OW32737   0.055   0.534   1.385 -0.2942 -0.1901 -0.0722
10613SOL    HW132738  -0.016   0.594   1.422 -0.1690  1.3497 -2.1419
10613SOL    HW232739   0.083   0.468   1.455 -1.2684  1.4010  1.9252
10614SOL     OW32740   0.794   4.607   2.695 -0.5265  0.1418 -0.2681
10614SOL    HW132741   0.853   4.648   2.625  0.4839 -1.3430 -0.3231
10614SOL    HW232742   0.728   4.546   2.651 -0.3271 -0.2771  0.0113
10615SOL     OW32743   3.133   0.411   6.553  0.0030  0.3093  0.7477
10615SOL    HW132744   3.141   0.392   6.455 -0.5031  0.0164  0.7636
10615SOL    HW232745   3.188   0.492   6.575  0.2211  0.3036  0.2462
10616SOL     OW32746   3.413   3.595   6.074  0.0814  0.6681 -0.2626
10616SOL    HW132747   3.427   3.557   6.165 -0.3780  0.0806 -0.4305
10616SOL    HW232748   3.485   3.661   6.054  1.6581 -1.0116 -0.4291
10617SOL     OW32749   0.045   4.847   2.266  0.0665  0.0295  0.5803
10617SOL    HW132750  -0.030   4.912   2.257  0.0232 -0.1034 -0.0793
10617SOL    HW232751   0.116   4.886   2.325  0.4430  1.0732 -0.4951
10618SOL     OW32752   3.456   0.288   2.990 -0.0670 -0.1056  0.4933
10618SOL    HW132753   3.412   0.199   2.993  1.1556 -0.8543 -1.3702
10618SOL    HW232754   3.398   0.353   2.941 -0.4552 -0.1809  0.8464
10619SOL     OW32755   6.249   4.612   3.095  0.2564 -0.0092 -0.5362
10619SOL    HW132756   6.239   4.529   3.149  1.4624  0.1497 -0.0376
10619SOL    HW232757   6.186   4.609   3.017  0.8680 -1.7724 -1.0104
10620SOL     OW32758   4.900   2.065   0.062 -0.2534 -0.2485 -0.1550
10620SOL    HW132759   4.893   1.980   0.011  0.7989 -1.4232  1.5711
10620SOL    HW232760   4.827   2.128   0.032 -0.7596 -1.5304 -1.7788
10621SOL     OW32761   1.865   1.998   4.682  0.0434 -0.2663  0.3674
10621SOL    HW132762   1.906   2.089   4.675 -1.7623  0.5077 -0.5203
10621SOL    HW232763   1.830   1.985   4.775  0.8259 -0.3057  0.6664
10622SOL     OW32764   0.914   4.170   2.628 -0.0577  0.8951 -0.4217
10622SOL    HW132765   0.954   4.104   2.692 -3.2701 -0.4665  0.3800
10622SOL    HW232766   0.910   4.129   2.537 -1.0084  0.4039 -0.1673
10623SOL     OW32767   4.743   6.747   6.251  0.3336 -0.1627  0.1025
10623SOL    HW132768   4.653   6.760   6.292  0.1966 -2.0435  0.4700
10623SOL    HW232769   4.736   6.684   6.173  1.1070  0.8879 -0.8626
10624SOL     OW32770   4.774   4.608   0.513  0.6843  0.3364  0.1595
10624SOL    HW132771   4.731   4.608   0.423  0.3958  1.3784  0.2814
10624SOL    HW232772   4.834   4.528   0.522 -0.6022 -0.7157 -0.3009
10625SOL     OW32773   3.487   4.167   3.871 -0.1400 -0.1703  0.4262
10625SOL    HW132774   3.414   4.170   3.803 -0.2415 -0.2193  0.5334
10625SOL    HW232775   3.450   4.139   3.959  0.7645 -6.1093 -0.6140
10626SOL     OW32776   3.831   3.509   4.429 -0.1825 -0.2995 -0.1159
10626SOL    HW132777   3.925   3.528   4.401 -0.5726  0.5950 -0.8637
10626SOL    HW232778   3.781   3.594   4.437 -0.7157 -0.7018  1.1274
10627SOL     OW32779   0.311   5.769   2.050 -0.3282 -1.0811  0.0453
10627SOL    HW132780   0.372   5.787   1.973 -0.5900  0.4443  0.1533
10627SOL    HW232781   0.216   5.765   2.018 -0.4267 -0.5540  0.2539
10628SOL     OW32782   5.201   6.467   5.876  0.2547  0.1506 -0.1426
10628SOL    HW132783   5.150   6.457   5.962 -0.3815  2.4605 -0.1694
10628SOL    HW232784   5.141   6.508   5.807  0.5533 -2.3013 -1.9645
10629SOL     OW32785   6.985   1.626   5.985  0.0175 -0.2933 -0.8631
10629SOL    HW132786   6.953   1.719   6.002 -0.4533 -0.3053 -1.6233
10629SOL    HW232787   7.033   1.591   6.066 -3.3179 -0.8805  1.0375
10630SOL     OW32788   0.185   6.024   6.420 -0.2951 -0.2936  0.1734
10630SOL    HW132789   0.249   6.006   6.494 -0.4391  1.1198  0.6725
10630SOL    HW232790   0.092   6.001   6.450 -0.0946 -1.9492 -0.4067
10631SOL     OW32791   0.419   2.844   0.890  0.0554 -0.5491  0.1786
10631SOL    HW132792   0.474   2.761   0.879  1.2620  0.2295  0.1575
10631SOL    HW232793   0.356   2.852   0.813  0.8537 -0.7656 -0.5114
10632SOL     OW32794   6.235   3.987   1.366  0.6730  0.0587 -0.4859
10632SOL    HW132795   6.196   3.984   1.458  3.4437 -2.6854  0.7973
10632SOL    HW232796   6.173   4.036   1.305 -1.0609  2.4345  2.8790
10633SOL     OW32797   5.543   2.031   1.281 -0.1824  0.4706  0.8273
10633SOL    HW132798   5.447   2.051   1.258 -0.3575  0.2437  1.3537
10633SOL    HW232799   5.602   2.103   1.245 -0.8198  2.2082  3.0707
10634SOL     OW32800   2.818   0.891   3.305  0.2591  0.0076 -0.0884
10634SOL    HW132801   2.904   0.841   3.290  0.2801 -0.3773  1.2030
10634SOL    HW232802   2.741   0.835   3.273  0.1948 -1.3711  2.2370
10635SOL     OW32803   6.067   1.791   1.505  0.0342  0.2546 -0.0761
10635SOL    HW132804   6.060   1.765   1.601  1.2915 -1.1370 -0.3122
10635SOL    HW232805   6.089   1.888   1.498 -3.8022  1.3372  0.8863
10636SOL     OW32806   4.234   0.388   6.587 -0.1614  0.0281 -0.8872
10636SOL    HW132807   4.148   0.380   6.638  0.8308  0.4904  0.9305
10636SOL    HW232808   4.310   0.363   6.646  1.0500  0.5861 -2.1635
10637SOL     OW32809   3.134   0.517   5.209 -0.4954 -0.4579 -0.0864
10637SOL    HW132810   3.124   0.547   5.304 -1.1402  1.8070 -0.8035
10637SOL    HW232811   3.053   0.465   5.181 -2.4589  2.6327 -0.6131
10638SOL     OW32812   1.733   4.104   1.732  0.3989  0.1734  0.3143
10638SOL    HW132813   1.664   4.132   1.799 -0.9333  2.2708 -1.7869
10638SOL    HW232814   1.819   4.085   1.779 -1.0898 -0.8531  2.8375
10639SOL     OW32815   3.166   0.238   1.046 -0.6404  0.2513  0.2196
10639SOL    HW132816   3.179   0.266   0.951  1.6041 -2.8932 -0.5740
10639SOL    HW232817   3.069   0.224   1.064 -0.9759 -1.3981 -2.4061
10640SOL     OW32818   4.108   5.037   1.072  0.6303  0.2405 -0.3014
10640SOL    HW132819   4.147   5.017   1.162 -0.7468 -2.0049 -0.1221
10640SOL    HW232820   4.165   4.995   1.002  0.1289 -0.5541 -0.2439
10641SOL     OW32821   0.490   5.598   0.221  0.2221 -0.1196  0.2718
10641SOL    HW132822   0.528   5.665   0.157 -1.2353 -0.9821 -1.6311
10641SOL    HW232823   0.394   5.620   0.240 -0.0563 -1.1950  0.2334
10642SOL     OW32824   1.869   2.474   6.685  0.1372  0.5140 -0.5613
10642SOL    HW132825   1.854   2.565   6.645  0.2047  0.8129  0.0767
10642SOL    HW232826   1.914   2.416   6.618 -0.7558  0.6523 -1.3110
10643SOL     OW32827   6.225   2.476   3.730 -0.2112 -0.0158 -0.1455
10643SOL    HW132828   6.294   2.480   3.658 -0.2904  2.2639 -0.1409
10643SOL    HW232829   6.151   2.416   3.702  0.7457 -0.8111 -1.0501
10644SOL     OW32830   2.061   2.646   3.404  0.0576  0.5964 -1.2825
10644SOL    HW132831   2.027   2.568   3.457  0.5245  1.0642 -0.2512
10644SOL    HW232832   2.017   2.647   3.314 -0.6502 -0.3144 -0.9702
10645SOL     OW32833   1.148   1.587   2.890 -0.3190 -0.5883  0.4849
10645SOL    HW132834   1.194   1.545   2.968  0.9078  2.1264  1.3564
10645SOL    HW232835   1.217   1.619   2.825 -1.0981  1.1123  0.4542
10646SOL     OW32836   4.075   1.221   1.464 -0.2209  0.1147 -0.1843
10646SOL    HW132837   3.994   1.179   1.502 -1.2846  0.5386 -1.8566
10646SOL    HW232838   4.049   1.303   1.413  0.8838 -1.0258 -2.7844
10647SOL     OW32839   5.063   1.837   5.079  0.7258  0.6519  0.0242
10647SOL    HW132840   5.077   1.840   4.980  1.2124  2.6465  0.1193
10647SOL    HW232841   5.152   1.831   5.126  0.6664  2.1491  0.3722
10648SOL     OW32842   3.487   5.886   4.259  0.0746 -0.1295  0.0296
10648SOL    HW132843   3.579   5.854   4.235  0.4519  1.0601 -0.1578
10648SOL    HW232844   3.420   5.818   4.229  0.7197  0.1175 -2.1190
10649SOL     OW32845   3.307   3.362   0.970 -0.6277 -0.0085 -0.0723
10649SOL    HW132846   3.296   3.457   0.941  0.3096  0.4884  1.0899
10649SOL    HW232847   3.218   3.317   0.971 -1.2225  1.1273  0.2400
10650SOL     OW32848   6.616   1.254   4.523 -0.3685 -0.0489  0.6488
10650SOL    HW132849   6.578   1.324   4.584 -1.4638  0.2153 -0.3127
10650SOL    HW232850   6.566   1.253   4.437  0.4203 -1.1993  0.1719
10651SOL     OW32851   0.929   0.412   1.730 -0.4575  0.3514 -0.0791
10651SOL    HW132852   0.962   0.444   1.818 -1.1395  1.2726 -0.1365
10651SOL    HW232853   1.006   0.396   1.668  0.4728 -4.4620  1.9128
10652SOL     OW32854   6.343   1.624   2.001  0.0424 -0.3519  0.2637
10652SOL    HW132855   6.438   1.652   1.987  0.0997  0.0158  1.2756
10652SOL    HW232856   6.336   1.524   1.995  0.3193 -0.3207 -0.7143
10653SOL     OW32857   6.331   2.594   0.507  0.0367  0.0410  0.0946
10653SOL    HW132858   6.429   2.578   0.513  0.4693  2.3997  0.2561
10653SOL    HW232859   6.295   2.617   0.597 -0.8009 -1.3998  0.1462
10654SOL     OW32860   4.237   4.577   1.158  0.1188 -0.5622 -0.3956
10654SOL    HW132861   4.187   4.635   1.222 -0.9730 -1.5874 -0.2987
10654SOL    HW232862   4.335   4.583   1.178 -0.0607  0.4560  0.2521
10655SOL     OW32863   3.020   6.557   2.022 -0.2646  0.1746 -0.6203
10655SOL    HW132864   2.941   6.521   2.072  0.2815 -0.3749 -0.1327
10655SOL    HW232865   2.990   6.594   1.934 -0.9806 -0.5741 -0.7020
10656SOL     OW32866   5.475   2.648   1.110  0.0843  0.2868  0.1637
10656SOL    HW132867   5.392   2.608   1.071 -1.3781  3.8334 -0.7654
10656SOL    HW232868   5.553   2.591   1.087 -1.6855 -1.5309 -1.7435
10657SOL     OW32869   4.328   2.060   4.581 -0.1815  0.1713  0.1323
10657SOL    HW132870   4.287   2.098   4.498 -1.7664 -0.7203  0.4670
10657SOL    HW232871   4.427   2.074   4.578 -0.0578 -0.6646 -2.3659
10658SOL     OW32872   1.842   4.625   5.280  0.5145 -0.7326  0.0172
10658SOL    HW132873   1.777   4.558   5.317 -1.0085  1.4399  1.5125
10658SOL    HW232874   1.926   4.621   5.333 -0.2112 -0.3123  1.2416
10659SOL     OW32875   3.722   0.033   2.056 -0.0789  0.3318  0.2504
10659SOL    HW132876   3.650  -0.037   2.057 -0.1570  0.3691 -1.0688
10659SOL    HW232877   3.721   0.081   1.968  0.3241  1.6440  0.9334
10660SOL     OW32878   4.714   5.837   4.884 -0.0828  0.4279 -0.1533
10660SOL    HW132879   4.728   5.767   4.954 -0.5557 -1.4575 -1.8834
10660SOL    HW232880   4.802   5.866   4.847  0.0541  0.0140 -0.1485
10661SOL     OW32881   1.503   0.751   5.493  0.3155 -0.0327  0.0061
10661SOL    HW132882   1.484   0.709   5.582 -0.8771  0.0396 -0.1993
10661SOL    HW232883   1.487   0.850   5.499 -1.6632 -0.2608 -0.7516
10662SOL     OW32884   6.223   3.245   5.238  0.1115 -0.0366  0.0396
10662SOL    HW132885   6.306   3.257   5.183  0.9115  1.8142  1.5119
10662SOL    HW232886   6.246   3.199   5.323 -0.6702 -0.8207 -0.1682
10663SOL     OW32887   5.868   0.717   5.079  0.2042 -0.1811 -0.5168
10663SOL    HW132888   5.807   0.708   5.000 -1.6506  1.0580  0.6979
10663SOL    HW232889   5.856   0.639   5.140 -0.9931  0.5444  0.2193
10664SOL     OW32890   0.623   1.729   4.870 -0.2385  0.1323 -0.0685
10664SOL    HW132891   0.664   1.730   4.779 -1.3939  0.1606 -0.5912
10664SOL    HW232892   0.690   1.692   4.935 -0.0449 -1.7494 -1.2429
10665SOL     OW32893   2.281   1.894   6.105 -0.0308 -0.4140  0.3245
10665SOL    HW132894   2.185   1.909   6.079  0.3100  2.4215  0.3762
10665SOL    HW232895   2.340   1.931   6.033  1.0576 -1.9134  0.4135
10666SOL     OW32896   3.172   6.019   1.637  0.2888  0.6297  0.0233
10666SOL    HW132897   3.227   6.100   1.620  2.6878 -0.5662  1.6056
10666SOL    HW232898   3.178   5.958   1.558  0.0726  1.1150 -0.3753
10667SOL     OW32899   5.644   4.860   3.036 -0.0003 -0.0307 -0.0302
10667SOL    HW132900   5.574   4.799   3.001 -0.6783 -0.0667  1.3362
10667SOL    HW232901   5.605   4.922   3.104  0.8653  1.3310 -0.7072
10668SOL     OW32902   0.690   5.176   0.386 -0.5365 -0.0175  0.1313
10668SOL    HW132903   0.669   5.229   0.304  2.4811 -1.8964 -2.0641
10668SOL    HW232904   0.638   5.090   0.384  1.2947 -1.1613 -1.2098
10669SOL     OW32905   4.956   3.677   4.761  0.6849 -0.3099  1.1231
10669SOL    HW132906   4.895   3.650   4.835  0.6350  1.0663  1.6093
10669SOL    HW232907   5.025   3.740   4.795  0.6686  0.3434  0.0057
10670SOL     OW32908   1.517   1.736   2.321 -0.8274  0.0017 -0.1939
10670SOL    HW132909   1.537   1.641   2.295 -0.4109  0.1156 -0.2846
10670SOL    HW232910   1.580   1.798   2.274 -1.1552  0.3317 -0.2010
10671SOL     OW32911   3.229   2.035   0.892  0.4105 -0.4781 -0.3659
10671SOL    HW132912   3.158   1.988   0.945 -0.3392 -0.2397 -1.1363
10671SOL    HW232913   3.314   2.035   0.944  0.3079 -2.2238 -0.1109
10672SOL     OW32914   4.133   1.933   0.006 -0.2188 -0.6612  0.1363
10672SOL    HW132915   4.221   1.980   0.003  0.0238 -1.1651 -0.8844
10672SOL    HW232916   4.146   1.836  -0.017 -0.7607 -1.1869  1.8802
10673SOL     OW32917   5.381   2.890   7.012 -0.5899  0.2264  0.4099
10673SOL    HW132918   5.412   2.964   6.952  1.0534 -0.5997  0.1640
10673SOL    HW232919   5.304   2.843   6.969  0.8972 -0.6974 -1.4214
10674SOL     OW32920   2.884   5.316   2.959  0.2590 -0.0958 -0.5548
10674SOL    HW132921   2.911   5.266   3.041 -0.1703  0.1056 -0.2890
10674SOL    HW232922   2.843   5.252   2.894  1.6646 -0.4697 -1.1095
10675SOL     OW32923   1.140   1.807   2.519 -0.0395 -0.7653 -0.1523
10675SOL    HW132924   1.113   1.825   2.425  0.9347  0.9051 -0.1565
10675SOL    HW232925   1.232   1.844   2.535 -0.9890  0.9450  2.0051
10676SOL     OW32926   2.141   4.951   4.399 -0.3310  0.3937  0.2095
10676SOL    HW132927   2.216   4.927   4.460 -0.7636 -1.6593  0.0202
10676SOL    HW232928   2.057   4.905   4.429 -1.0532  1.0797 -0.6920
10677SOL     OW32929   4.194   0.670   3.051  0.2860  0.4012 -0.0790
10677SOL    HW132930   4.122   0.707   3.110 -0.7818 -0.4716 -0.7888
10677SOL    HW232931   4.197   0.724   2.966 -0.7391 -0.6047 -0.7821
10678SOL     OW32932   1.497   2.411   6.022  0.1606  0.2444 -0.5738
10678SOL    HW132933   1.403   2.395   5.994 -0.4491  1.8123  0.4454
10678SOL    HW232934   1.524   2.340   6.087 -1.1945  1.0915  1.0003
10679SOL     OW32935   5.331   5.535   6.508 -0.4380  0.0731 -0.2420
10679SOL    HW132936   5.233   5.517   6.512 -0.3607 -0.5944 -1.1807
10679SOL    HW232937   5.372   5.515   6.597 -1.2858  1.2924  0.4644
10680SOL     OW32938   0.570   2.175   6.407 -0.1078  0.0604 -0.0324
10680SOL    HW132939   0.569   2.167   6.507 -1.1541 -2.5016 -0.1804
10680SOL    HW232940   0.488   2.222   6.376 -0.1123  0.2657  0.2914
10681SOL     OW32941   1.185   5.720   4.601 -0.1844  0.1373 -0.4305
10681SOL    HW132942   1.167   5.719   4.503  1.7791  2.4204 -0.9314
10681SOL    HW232943   1.117   5.776   4.647 -0.4138  0.0681 -0.6856
10682SOL     OW32944   2.853   1.664   4.543  0.2335  0.1602  0.2759
10682SOL    HW132945   2.822   1.759   4.553 -0.2377  0.1225 -0.6434
10682SOL    HW232946   2.918   1.659   4.467 -0.0373 -0.3166  0.0776
10683SOL     OW32947   6.375   2.023   1.542 -0.1664  0.6321 -0.2087
10683SOL    HW132948   6.276   2.034   1.549 -0.2482 -0.4191  0.4823
10683SOL    HW232949   6.419   2.060   1.624 -0.0807  0.1133 -0.0169
10684SOL     OW32950   5.245   4.073   2.348 -0.0409 -0.3545  0.4692
10684SOL    HW132951   5.153   4.099   2.318  0.0197  0.1036  0.6733
10684SOL    HW232952   5.253   4.084   2.447  0.2555 -0.3087  0.4431
10685SOL     OW32953   0.726   1.498   4.554  0.2911 -0.0056 -0.2158
10685SOL    HW132954   0.749   1.447   4.636 -2.3086  0.2721  0.7779
10685SOL    HW232955   0.755   1.593   4.564  1.4840 -0.3288 -0.3812
10686SOL     OW32956   4.636   0.704   3.875 -0.5124  0.6820  0.3612
10686SOL    HW132957   4.578   0.642   3.929 -0.1541  0.2422  0.2479
10686SOL    HW232958   4.596   0.796   3.876 -1.1355  0.4159  0.4018
10687SOL     OW32959   0.186   5.784   2.982 -0.1908 -0.0526  0.3344
10687SOL    HW132960   0.141   5.698   2.958  2.2520 -0.8451 -1.9757
10687SOL    HW232961   0.149   5.858   2.925 -1.3788  0.2093  1.3998
10688SOL     OW32962   5.375   4.926   5.026  0.6512 -0.2277  0.3543
10688SOL    HW132963   5.433   4.866   4.972  1.8410 -0.4791  1.8620
10688SOL    HW232964   5.408   5.020   5.018  0.3128 -0.1357 -0.0076
10689SOL     OW32965   5.602   3.302   2.290 -0.0592 -0.5681 -0.4501
10689SOL    HW132966   5.641   3.285   2.381  0.5609  0.2853 -0.5488
10689SOL    HW232967   5.586   3.400   2.278  1.1061 -0.5051 -1.7434
10690SOL     OW32968   6.169   1.359   5.946  0.5291 -0.6466 -1.0807
10690SOL    HW132969   6.212   1.269   5.942  1.5468 -0.2113 -0.4195
10690SOL    HW232970   6.227   1.426   5.900 -0.2117 -0.3163 -1.5536
10691SOL     OW32971   4.768   6.369   2.672 -0.1695 -0.9426 -0.2645
10691SOL    HW132972   4.862   6.340   2.653 -0.1734  0.4051 -2.8003
10691SOL    HW232973   4.730   6.414   2.591 -1.8310  1.6030  1.7671
10692SOL     OW32974   4.204   6.776   2.117  0.0067  0.4870 -0.0291
10692SOL    HW132975   4.292   6.820   2.132  0.1728  0.7572 -1.6667
10692SOL    HW232976   4.139   6.843   2.079 -0.3629 -0.1429 -0.5324
10693SOL     OW32977   0.567   0.142   3.753  0.5212  0.2185 -0.1977
10693SOL    HW132978   0.589   0.140   3.851  0.2173 -1.0942 -0.1313
10693SOL    HW232979   0.468   0.146   3.741  0.4913 -0.8491 -0.4214
10694SOL     OW32980   6.176   2.818   5.937  0.0262  0.1256  0.4019
10694SOL    HW132981   6.190   2.722   5.964  0.4112  0.2316  0.5950
10694SOL    HW232982   6.094   2.825   5.880  0.9895 -0.6107 -1.1572
10695SOL     OW32983   6.156   4.407   2.074 -0.2843  0.3189 -0.0082
10695SOL    HW132984   6.245   4.361   2.071 -0.4821 -0.0287 -3.2516
10695SOL    HW232985   6.084   4.340   2.059 -0.8873  1.0602 -0.4516
10696SOL     OW32986   5.556   5.784   3.248  0.5281 -0.3777  0.6164
10696SOL    HW132987   5.463   5.778   3.286 -0.7379 -1.8348 -2.3686
10696SOL    HW232988   5.575   5.702   3.195  2.5993  0.9547 -0.8315
10697SOL     OW32989   4.228   6.305   1.642  0.0002 -0.3551 -0.3117
10697SOL    HW132990   4.295   6.305   1.717 -0.0716 -0.6398 -0.2454
10697SOL    HW232991   4.136   6.306   1.681 -0.0428  0.6078 -0.4021
10698SOL     OW32992   1.360   0.534   5.993 -0.3634 -0.6127 -0.6621
10698SOL    HW132993   1.332   0.597   6.065  0.2771 -1.4113  0.3074
10698SOL    HW232994   1.459   0.542   5.979 -0.1513 -1.8774 -0.0338
10699SOL     OW32995   5.354   5.337   7.018 -0.2594  0.0299 -0.9855
10699SOL    HW132996   5.259   5.367   7.031 -1.0049 -1.8181 -1.9307
10699SOL    HW232997   5.403   5.346   7.105 -1.7002 -0.3481 -0.0937
10700SOL     OW32998   5.689   0.112   6.589 -0.1972 -0.0679  0.0135
10700SOL    HW132999   5.789   0.114   6.589 -0.1330 -1.0257 -1.5653
10700SOL    HW233000   5.655   0.133   6.497 -1.5055  1.2918  0.7634
10701SOL     OW33001   2.907   6.399   5.850 -0.0822 -0.4083 -0.3025
10701SOL    HW133002   2.885   6.374   5.944  0.7473 -2.0991 -0.5209
10701SOL    HW233003   2.929   6.316   5.798  1.3316  0.6647 -1.4946
10702SOL     OW33004   2.876   4.002   5.244  0.2331  0.1961 -0.1823
10702SOL    HW133005   2.889   3.907   5.215 -0.4644 -0.3259  1.1385
10702SOL    HW233006   2.778   4.023   5.244  0.3331  0.6696  0.2969
10703SOL     OW33007   1.561   4.028   1.474  0.7750 -0.1637  0.3507
10703SOL    HW133008   1.607   4.097   1.530 -0.1893  0.3846  0.4762
10703SOL    HW233009   1.466   4.019   1.502  0.4375 -0.3336 -0.7898
10704SOL     OW33010   6.834   0.991   0.810  0.0523 -0.0551  0.0609
10704SOL    HW133011   6.817   1.084   0.843 -1.9086  0.1882 -1.4568
10704SOL    HW233012   6.785   0.926   0.868  0.4668 -0.0606  0.4140
10705SOL     OW33013   6.657   6.865   2.747 -0.6428 -1.1436 -0.2026
10705SOL    HW133014   6.650   6.953   2.700 -0.0540 -0.4513  0.9700
10705SOL    HW233015   6.577   6.809   2.725 -1.4675  0.0219 -0.2670
10706SOL     OW33016   1.595   5.000   3.437  0.2960 -0.1201 -0.3827
10706SOL    HW133017   1.694   5.015   3.441  0.1674  0.7780  2.7094
10706SOL    HW233018   1.549   5.087   3.425 -0.1389 -0.3238 -0.1996
10707SOL     OW33019   3.853   2.735   1.060 -0.0375  0.1901  0.2449
10707SOL    HW133020   3.876   2.710   1.154  1.1563  0.6008  0.0763
10707SOL    HW233021   3.877   2.660   0.999  0.4283  0.4328  0.1243
10708SOL     OW33022   1.338   6.787   4.832  0.5118 -0.2278 -0.6893
10708SOL    HW133023   1.248   6.796   4.875  0.1227 -0.4362 -1.4481
10708SOL    HW233024   1.385   6.707   4.869  0.0636 -0.5711 -0.8597
10709SOL     OW33025   1.914   3.682   6.368 -0.4512  0.1353  0.3224
10709SOL    HW133026   1.915   3.689   6.468 -0.1033 -0.4364  0.3648
10709SOL    HW233027   1.834   3.730   6.332 -0.9740 -0.2748  0.9228
10710SOL     OW33028   0.243   2.494   0.306 -0.3252  0.2653  0.0152
10710SOL    HW133029   0.333   2.526   0.275 -1.9551  2.1702 -3.3371
10710SOL    HW233030   0.175   2.566   0.292 -2.7120 -1.6878  0.7594
10711SOL     OW33031   4.173   0.996   2.955  0.6303  0.2993 -0.1572
10711SOL    HW133032   4.269   0.985   2.928  0.7803 -0.5393  0.6451
10711SOL    HW233033   4.142   1.088   2.933  1.4307  0.3776 -1.0047
10712SOL     OW33034   0.187   5.979   4.455  0.1694 -0.1793 -0.6726
10712SOL    HW133035   0.111   6.044   4.468 -1.7090 -2.4481  0.5583
10712SOL    HW233036   0.238   5.971   4.540  0.7385  0.0685 -0.9868
10713SOL     OW33037   4.056   3.705   3.039 -0.3266 -0.0759 -0.0926
10713SOL    HW133038   4.032   3.750   2.953 -0.2613  1.4133  0.6252
10713SOL    HW233039   4.087   3.612   3.021  1.5129  0.8064 -1.8806
10714SOL     OW33040   1.997   3.064   2.390  0.0253 -0.4064  0.2192
10714SOL    HW133041   2.025   3.158   2.407 -0.5697 -0.6954  3.6247
10714SOL    HW233042   2.077   3.010   2.365  0.5532  0.7691 -0.7314
10715SOL     OW33043   3.204   1.558   2.649  0.2670  0.3135  0.0673
10715SOL    HW133044   3.301   1.581   2.638  0.6498 -0.3811  1.6437
10715SOL    HW233045   3.148   1.631   2.609  1.4474  1.5997  0.6573
10716SOL     OW33046   5.629   5.911   1.012 -0.4598  0.0861 -0.1759
10716SOL    HW133047   5.614   5.955   1.101 -1.0886  0.7462 -0.5881
10716SOL    HW233048   5.544   5.915   0.959 -0.3283 -1.0339 -0.4965
10717SOL     OW33049   0.788   6.348   4.745 -0.2940 -0.7098 -0.2868
10717SOL    HW133050   0.733   6.394   4.815 -0.2221  0.1816 -0.7981
10717SOL    HW233051   0.786   6.402   4.661  0.3989 -1.2812 -0.6782
10718SOL     OW33052   0.307   2.907   3.804  0.0354  0.4956  0.3656
10718SOL    HW133053   0.403   2.934   3.809 -0.4035  1.8999  3.5039
10718SOL    HW233054   0.249   2.986   3.825 -1.6902 -0.9095  1.1778
10719SOL     OW33055   3.741   6.541   3.438  0.0072 -0.4753  1.1561
10719SOL    HW133056   3.751   6.498   3.348 -2.0529  2.2678 -0.5588
10719SOL    HW233057   3.644   6.541   3.464 -0.1976  3.1130  0.9117
10720SOL     OW33058   1.859   2.565   0.469  0.4385 -0.2708  0.0068
10720SOL    HW133059   1.940   2.611   0.433  1.0703 -0.2807  1.3655
10720SOL    HW233060   1.856   2.574   0.569 -2.7002  2.1796 -0.1217
10721SOL     OW33061   6.592   3.754   3.033 -0.5417  0.4070  0.1997
10721SOL    HW133062   6.670   3.803   3.072  2.0752 -2.3314 -1.2029
10721SOL    HW233063   6.574   3.787   2.941  2.2956 -2.0429 -1.4022
10722SOL     OW33064   6.587   2.040   0.482  0.7521 -0.4608 -0.8755
10722SOL    HW133065   6.590   1.967   0.414 -2.5075 -2.0699  0.4952
10722SOL    HW233066   6.492   2.064   0.501  1.6545  2.3888  0.6322
10723SOL     OW33067   1.555   3.820   6.664  0.3212 -0.4158 -0.3384
10723SOL    HW133068   1.554   3.919   6.675 -0.8140 -0.2527 -1.6080
10723SOL    HW233069   1.486   3.779   6.723 -0.2442 -0.2966 -0.9071
10724SOL     OW33070   4.849   6.754   2.456 -0.2129 -0.4268  0.0446
10724SOL    HW133071   4.832   6.746   2.358  0.0522  0.2726 -0.0675
10724SOL    HW233072   4.946   6.736   2.474 -0.3798 -1.1319  0.2567
10725SOL     OW33073   4.536   0.963   2.518  0.1488  0.2223  0.2903
10725SOL    HW133074   4.609   0.915   2.471  0.5793  0.6211  0.5442
10725SOL    HW233075   4.454   0.966   2.460  0.8463  1.2187 -0.6753
10726SOL     OW33076   0.236   2.546   3.034  0.7872  0.0058  0.2620
10726SOL    HW133077   0.258   2.479   2.963  0.1796 -0.0685  0.1367
10726SOL    HW233078   0.260   2.509   3.124  2.9040  0.6594  0.0091
10727SOL     OW33079   5.341   6.181   2.059 -0.7873  0.5951 -0.0004
10727SOL    HW133080   5.292   6.103   2.020  0.2336  1.3529 -3.1128
10727SOL    HW233081   5.431   6.187   2.017  0.7558  1.2244  3.0894
10728SOL     OW33082   3.109   1.070   0.883  1.0203 -0.7083 -0.0309
10728SOL    HW133083   3.125   1.113   0.795 -0.1196 -1.2754 -0.5263
10728SOL    HW233084   3.013   1.076   0.907  1.4062 -0.0544  1.4594
10729SOL     OW33085   1.479   5.240   5.599  0.1720 -0.4679  0.6143
10729SOL    HW133086   1.549   5.261   5.531  0.1041  0.9229  0.9338
10729SOL    HW233087   1.473   5.141   5.611  2.0004 -0.6403  0.4831
10730SOL     OW33088   5.037   2.959   5.817  0.0399 -0.4616 -0.0425
10730SOL    HW133089   5.073   2.996   5.902 -0.1106 -1.8123  0.6324
10730SOL    HW233090   5.029   3.033   5.749 -1.5058  1.0246  1.6352
10731SOL     OW33091   2.206   4.824   6.428  0.2958 -0.2085 -0.7318
10731SOL    HW133092   2.306   4.817   6.421  0.3102 -2.3225  0.6542
10731SOL    HW233093   2.182   4.861   6.518 -0.1598 -1.9837 -0.0877
10732SOL     OW33094   4.676   0.050   6.711 -0.1086  0.1773  0.3008
10732SOL    HW133095   4.763   0.011   6.742 -0.1253 -0.2219 -0.1430
10732SOL    HW233096   4.617   0.068   6.790  1.0838  2.2276  0.8137
10733SOL     OW33097   6.400   3.131   0.245  0.4033 -0.0638  0.4897
10733SOL    HW133098   6.343   3.069   0.298 -0.6062 -1.4407 -2.0466
10733SOL    HW233099   6.497   3.110   0.262  0.0860 -1.5724  0.5359
10734SOL     OW33100   6.626   5.782   3.749  0.0550 -0.3767  0.1073
10734SOL    HW133101   6.698   5.847   3.724 -1.6729  1.4661 -0.4315
10734SOL    HW233102   6.607   5.722   3.671  0.9490 -0.8458  0.2396
10735SOL     OW33103   2.694   0.140   5.164  0.2594 -0.6225  0.7335
10735SOL    HW133104   2.692   0.123   5.065  0.3793 -1.4511  0.8704
10735SOL    HW233105   2.789   0.150   5.194  0.2614 -1.1152  0.8903
10736SOL     OW33106   3.913   1.591   5.246  0.2022 -0.1453  0.9209
10736SOL    HW133107   3.840   1.574   5.179 -0.1959  1.0395  1.0386
10736SOL    HW233108   3.926   1.509   5.302 -0.2618 -0.7553  0.1543
10737SOL     OW33109   6.245   1.471   4.817  0.0777  0.1064 -0.2550
10737SOL    HW133110   6.223   1.566   4.837 -0.1533  0.1098 -0.5267
10737SOL    HW233111   6.209   1.412   4.890 -0.4180  0.1563 -0.4606
10738SOL     OW33112   5.870   0.044   0.981  0.1913  1.0798 -0.1294
10738SOL    HW133113   5.867   0.098   1.065  0.6302 -0.3870  0.8767
10738SOL    HW233114   5.924  -0.039   0.997 -2.4897 -0.9291 -0.8387
10739SOL     OW33115   0.643   2.031   5.225 -0.0873  0.3862 -0.0227
10739SOL    HW133116   0.740   2.041   5.245 -0.0205 -0.9624  0.4279
10739SOL    HW233117   0.593   2.010   5.309 -0.8864  1.7539 -0.1302
10740SOL     OW33118   5.249   2.851   2.882  0.2235 -0.6764  0.0248
10740SOL    HW133119   5.286   2.852   2.789  0.1264 -2.1871 -0.0682
10740SOL    HW233120   5.150   2.847   2.878  0.1721  0.3412  0.2190
10741SOL     OW33121   5.137   2.039   5.682 -0.1596 -0.0571  0.4591
10741SOL    HW133122   5.059   2.054   5.621 -0.6755  0.2354  1.1768
10741SOL    HW233123   5.167   2.126   5.720  1.3307  0.0089 -0.7598
10742SOL     OW33124   3.827   6.560   4.551 -0.3474 -0.2923 -0.0376
10742SOL    HW133125   3.751   6.550   4.487 -2.7926  1.3953  2.3926
10742SOL    HW233126   3.827   6.484   4.615 -0.1551 -0.1641  0.1150
10743SOL     OW33127   0.764   1.351   6.374 -0.1323  0.2022  0.0182
10743SOL    HW133128   0.701   1.362   6.297 -0.6457  0.6624  0.4968
10743SOL    HW233129   0.847   1.306   6.343  0.2684  1.6455 -1.1267
10744SOL     OW33130   3.431   5.334   2.642 -0.0021 -0.5897 -0.4218
10744SOL    HW133131   3.403   5.382   2.725 -1.0401 -0.8379 -0.6210
10744SOL    HW233132   3.530   5.319   2.645  0.1603  0.4647  0.2045
10745SOL     OW33133   6.923   5.013   5.457  0.5355  0.1379 -0.3103
10745SOL    HW133134   6.888   4.938   5.513 -0.2198  0.1126 -0.8013
10745SOL    HW233135   6.892   5.001   5.362 -0.2231  1.4457 -0.2508
10746SOL     OW33136   4.238   6.568   5.763 -0.3597 -0.1750 -0.4320
10746SOL    HW133137   4.325   6.602   5.726 -1.0199  1.2173 -0.7669
10746SOL    HW233138   4.255   6.487   5.818  1.0947 -0.2165 -0.9000
10747SOL     OW33139   6.595   2.871   1.278  0.4020  0.2992 -0.0408
10747SOL    HW133140   6.693   2.859   1.294  0.3126 -2.3676 -0.9560
10747SOL    HW233141   6.544   2.812   1.341 -0.4854 -0.1784 -1.1770
10748SOL     OW33142   3.362   5.174   6.264 -0.5347 -0.3456  0.2765
10748SOL    HW133143   3.445   5.227   6.281 -0.9004  0.2120  0.3367
10748SOL    HW233144   3.383   5.100   6.200 -0.0993  0.0844 -0.0857
10749SOL     OW33145   2.100   3.826   0.059  0.3063 -0.2827 -0.9626
10749SOL    HW133146   2.116   3.921   0.085  0.1746 -0.6262  0.4200
10749SOL    HW233147   2.185   3.786   0.024  0.9469 -0.2774  0.5132
10750SOL     OW33148   6.307   5.541   2.719 -0.0363  0.1465 -0.0500
10750SOL    HW133149   6.283   5.456   2.766 -1.8963  0.9100  0.4656
10750SOL    HW233150   6.391   5.579   2.758 -0.2725 -0.4299  1.0589
10751SOL     OW33151   1.990   4.911   0.924 -0.3880 -0.5015 -0.2874
10751SOL    HW133152   2.009   4.890   0.828 -2.5668  0.6349 -1.0360
10751SOL    HW233153   1.906   4.863   0.952 -0.0282 -0.4452  0.9178
10752SOL     OW33154   0.949   5.603   4.383  0.4154  0.1656  0.0015
10752SOL    HW133155   0.968   5.513   4.422  0.9587  0.2328 -0.0997
10752SOL    HW233156   1.033   5.641   4.344 -0.0385  0.2267 -0.9664
10753SOL     OW33157   4.468   3.618   1.108  0.3097  0.3934  0.1565
10753SOL    HW133158   4.505   3.642   1.018 -0.4541  2.1069  0.2521
10753SOL    HW233159   4.393   3.554   1.097 -0.7192  1.6689 -0.6024
10754SOL     OW33160   4.611   4.424   3.114  0.2157 -0.1462 -0.1798
10754SOL    HW133161   4.647   4.360   3.183 -1.0157 -0.1398  0.4937
10754SOL    HW233162   4.681   4.491   3.091  1.0854 -0.9408  0.0854
10755SOL     OW33163   1.706   2.374   2.720  0.2703 -0.0264  0.3154
10755SOL    HW133164   1.668   2.294   2.672  1.1518 -0.4967  0.3742
10755SOL    HW233165   1.638   2.410   2.783 -1.1868  1.0223 -1.7216
10756SOL     OW33166   3.682   1.199   6.633  0.2097  0.0568  0.4430
10756SOL    HW133167   3.781   1.210   6.645  0.2027  2.5350 -0.9693
10756SOL    HW233168   3.665   1.123   6.570  1.2327 -0.0738  0.2986
10757SOL     OW33169   1.018   2.766   2.096 -0.0307  0.1483 -0.3799
10757SOL    HW133170   0.969   2.748   2.010  1.2960  1.5637 -1.4738
10757SOL    HW233171   1.097   2.824   2.079  0.1965  0.6083  1.8427
10758SOL     OW33172   0.049   0.972   1.873 -0.3373 -0.4492 -0.4425
10758SOL    HW133173   0.026   0.896   1.933 -2.0868  1.2544  1.1801
10758SOL    HW233174  -0.026   0.987   1.808 -0.9546  1.0708  0.5657
10759SOL     OW33175   1.399   1.177   2.310  0.1956  0.8552 -0.3588
10759SOL    HW133176   1.472   1.137   2.365  0.2549  3.2808  1.4694
10759SOL    HW233177   1.350   1.104   2.263  2.8625 -0.9640 -0.5445
10760SOL     OW33178   6.127   5.927   1.839  0.3384 -0.4440 -1.3683
10760SOL    HW133179   6.033   5.908   1.868  1.2885 -0.1754  2.3518
10760SOL    HW233180   6.177   5.841   1.829  0.6522 -0.5494  0.5979
10761SOL     OW33181   1.270   3.272   6.530 -0.5222  0.1406  0.1552
10761SOL    HW133182   1.268   3.372   6.527 -0.9752  0.1051 -0.9311
10761SOL    HW233183   1.207   3.235   6.462  0.2659 -0.8907 -0.0430
10762SOL     OW33184   3.636   6.448   4.388  0.0353 -0.2080 -0.0084
10762SOL    HW133185   3.540   6.461   4.413 -0.0037  0.5167 -0.4893
10762SOL    HW233186   3.643   6.376   4.318 -0.0581 -0.8518  0.6306
10763SOL     OW33187   3.141   0.246   2.677  0.5536 -0.3416 -0.3163
10763SOL    HW133188   3.045   0.266   2.657  0.6928  2.6650  1.4298
10763SOL    HW233189   3.195   0.258   2.593 -0.0552  2.7220 -0.3917
10764SOL     OW33190   4.518   5.593   3.938  0.0928 -0.5248 -0.4679
10764SOL    HW133191   4.533   5.499   3.966  0.9061 -0.4283 -0.5723
10764SOL    HW233192   4.421   5.615   3.947 -0.0445 -1.2569 -0.1023
10765SOL     OW33193   1.817   0.191   6.200 -0.1166 -0.2113  0.1514
10765SOL    HW133194   1.792   0.248   6.278  1.2951  0.0496  0.4299
10765SOL    HW233195   1.845   0.100   6.232  0.4004 -0.1261 -0.0481
10766SOL     OW33196   0.598   1.441   6.597  0.1002 -0.4984  0.1823
10766SOL    HW133197   0.670   1.423   6.530  0.9165 -0.1734  0.9388
10766SOL    HW233198   0.533   1.364   6.598  0.8068 -1.1126 -0.0561
10767SOL     OW33199   1.488   3.570   5.584 -0.0602 -0.3359  0.0374
10767SOL    HW133200   1.576   3.614   5.602 -0.3105  0.0160  0.4067
10767SOL    HW233201   1.440   3.620   5.512 -0.6252  0.3894  0.9015
10768SOL     OW33202   5.157   2.623   6.697 -0.8669 -0.0774 -0.3102
10768SOL    HW133203   5.139   2.525   6.699 -2.4665  0.2160  0.7223
10768SOL    HW233204   5.097   2.667   6.631 -1.6965  0.4717  0.7753
10769SOL     OW33205   5.714   5.274   6.468 -0.3624  0.3399  0.2222
10769SOL    HW133206   5.766   5.249   6.386  0.0603 -0.6130  0.7592
10769SOL    HW233207   5.731   5.206   6.540  0.9955  2.3048  1.8519
10770SOL     OW33208   2.712   1.768   0.468 -0.2028  0.7386 -0.2771
10770SOL    HW133209   2.710   1.765   0.368 -1.3497  2.2187 -0.3300
10770SOL    HW233210   2.623   1.798   0.503  0.1186  0.0578  1.2086
10771SOL     OW33211   6.142   1.047   3.867  0.4272 -0.4786 -0.3213
10771SOL    HW133212   6.216   1.050   3.801  1.7071  0.1550  1.0822
10771SOL    HW233213   6.056   1.023   3.821  0.8614  1.8575 -2.5564
10772SOL     OW33214   5.418   4.459   0.988 -0.0050  0.3127  0.2288
10772SOL    HW133215   5.394   4.370   1.027 -1.9891  0.2466 -0.9865
10772SOL    HW233216   5.338   4.498   0.942  1.0957  2.2771 -0.1423
10773SOL     OW33217   4.066   6.097   5.733 -0.2899 -0.1334 -0.4086
10773SOL    HW133218   4.155   6.076   5.694  0.3592  1.2739  0.2641
10773SOL    HW233219   4.017   6.160   5.672 -0.4100 -0.1209 -0.2994
10774SOL     OW33220   0.673   5.009   4.070 -0.0619  0.2269 -0.4496
10774SOL    HW133221   0.633   4.917   4.063 -0.5455  0.4805 -1.1185
10774SOL    HW233222   0.600   5.075   4.088  0.0217  0.7123 -1.7973
10775SOL     OW33223   2.695   1.768   5.896  0.7111 -0.0341 -0.2788
10775SOL    HW133224   2.640   1.792   5.816  1.8195  0.3099 -0.9443
10775SOL    HW233225   2.643   1.790   5.979  0.5655  2.0568 -0.8713
10776SOL     OW33226   1.874   6.927   3.731  0.2024  0.0179  0.0213
10776SOL    HW133227   1.914   6.839   3.757  2.9745  1.3841  0.7048
10776SOL    HW233228   1.847   6.924   3.635 -1.0310 -1.9686  0.3740
10777SOL     OW33229   6.290   6.998   0.743 -0.1543  0.0572 -0.5374
10777SOL    HW133230   6.243   6.917   0.709 -0.8438  0.4465 -0.5422
10777SOL    HW233231   6.331   6.979   0.832  0.0277 -0.4112 -0.7220
10778SOL     OW33232   4.109   6.309   2.215  0.0437 -0.1768  0.3644
10778SOL    HW133233   4.104   6.384   2.149 -0.1483  0.9104  1.5823
10778SOL    HW233234   4.162   6.234   2.176  0.5829  0.7408 -0.7251
10779SOL     OW33235   6.436   5.135   6.468 -0.2147 -0.2239  0.0894
10779SOL    HW133236   6.416   5.155   6.372  0.3487 -1.2013 -0.2472
10779SOL    HW233237   6.389   5.202   6.526  0.9819  1.5844 -0.9237
10780SOL     OW33238   6.904   5.298   4.780  0.1350 -0.3005 -0.1683
10780SOL    HW133239   6.911   5.397   4.778 -0.3441 -0.2509  0.3894
10780SOL    HW233240   6.990   5.258   4.748 -0.3002  0.2794 -2.1609
10781SOL     OW33241   5.633   2.154   4.997  0.0601  0.1405 -0.4707
10781SOL    HW133242   5.537   2.145   5.026  0.5371 -1.4562  0.7763
10781SOL    HW233243   5.687   2.082   5.040  1.6735  0.4486 -1.8988
10782SOL     OW33244   6.609   6.036   3.958 -1.0468 -0.0175 -0.2650
10782SOL    HW133245   6.674   5.994   4.021 -2.5044 -1.5074  0.3082
10782SOL    HW233246   6.639   6.020   3.864 -1.6547 -2.6988 -0.0898
10783SOL     OW33247   2.156   5.909   2.369  0.0733  0.0298 -0.1986
10783SOL    HW133248   2.204   5.982   2.417 -1.0652  0.2918  0.5889
10783SOL    HW233249   2.153   5.827   2.427 -1.7933  0.5212  0.4911
10784SOL     OW33250   0.389   3.401   1.127  0.1450 -0.1093  0.4685
10784SOL    HW133251   0.352   3.364   1.042 -0.7523 -1.5684  1.4512
10784SOL    HW233252   0.416   3.325   1.187  0.3292  0.8785  1.6654
10785SOL     OW33253   1.365   0.625   2.510 -0.2193  0.4169 -0.0791
10785SOL    HW133254   1.371   0.716   2.552  0.3147  0.2356  0.2404
10785SOL    HW233255   1.371   0.555   2.582  0.6154  0.1050 -0.4417
10786SOL     OW33256   6.040   4.197   0.921 -0.0832  0.2209  0.1808
10786SOL    HW133257   5.966   4.263   0.919 -0.1901  0.1167  0.6848
10786SOL    HW233258   6.127   4.243   0.902 -0.3957  0.1642 -1.5509
10787SOL     OW33259   5.940   0.600   1.536  0.3957 -0.4907  0.1855
10787SOL    HW133260   5.962   0.504   1.552 -2.3753 -1.4486 -1.1378
10787SOL    HW233261   5.841   0.611   1.530  0.5172  2.7333  1.6708
10788SOL     OW33262   1.673   6.038   4.087 -0.4134  0.2933  0.0206
10788SOL    HW133263   1.639   6.119   4.134 -2.2790  0.1499 -0.9987
10788SOL    HW233264   1.599   5.971   4.078  0.8878 -1.2303  0.1618
10789SOL     OW33265   4.812   6.627   3.879  0.1113 -0.3532  0.2235
10789SOL    HW133266   4.790   6.704   3.819  1.4641  1.2357  1.6602
10789SOL    HW233267   4.728   6.592   3.921 -0.3844  1.4360  0.7992
10790SOL     OW33268   4.841   4.643   2.712 -0.2540 -0.4596 -0.3673
10790SOL    HW133269   4.783   4.709   2.663 -1.8874 -1.6682 -0.1329
10790SOL    HW233270   4.901   4.693   2.774 -2.3879  0.7878  0.8150
10791SOL     OW33271   4.566   1.222   1.247  0.5141 -0.0501 -0.0262
10791SOL    HW133272   4.568   1.126   1.220  0.7953 -0.0778  0.0964
10791SOL    HW233273   4.544   1.278   1.167  1.5607 -0.1138 -0.3661
10792SOL     OW33274   4.761   1.211   6.255 -0.9763 -0.3106  0.3272
10792SOL    HW133275   4.769   1.161   6.341  1.8443  0.4571  0.5870
10792SOL    HW233276   4.802   1.157   6.181 -0.0469  0.5788  0.1763
10793SOL     OW33277   2.708   4.775   3.777  0.3306  0.3872  0.3313
10793SOL    HW133278   2.678   4.857   3.826  1.3900  0.7854  0.3210
10793SOL    HW233279   2.695   4.695   3.836 -0.4097  0.5932  0.4599
10794SOL     OW33280   2.704   5.817   0.259  0.4675  0.0812  0.0103
10794SOL    HW133281   2.653   5.877   0.198 -0.1646  0.3125  0.7460
10794SOL    HW233282   2.649   5.737   0.282  0.6454  0.0642  0.3917
10795SOL     OW33283   0.130   5.865   1.472 -0.8593  0.0761 -0.6961
10795SOL    HW133284   0.038   5.854   1.436 -1.5311  0.1559  0.9314
10795SOL    HW233285   0.155   5.785   1.525 -0.3302  0.4213 -0.4129
10796SOL     OW33286   5.737   6.182   4.052  0.7264  0.6265  0.2309
10796SOL    HW133287   5.713   6.087   4.071  0.3163  0.5645 -0.5255
10796SOL    HW233288   5.702   6.207   3.961 -1.7870  2.3910  1.5654
10797SOL     OW33289   5.492   2.810   0.230  0.4255 -0.0913 -0.6068
10797SOL    HW133290   5.456   2.868   0.157 -0.0017  1.9602  1.1228
10797SOL    HW233291   5.424   2.741   0.255 -0.1681  0.3837 -0.8998
10798SOL     OW33292   6.710   5.220   5.869 -1.1082  0.1026 -0.1037
10798SOL    HW133293   6.702   5.275   5.786 -0.8432 -1.4621 -1.2123
10798SOL    HW233294   6.689   5.277   5.949 -0.7256  1.8097 -1.1677
10799SOL     OW33295   1.811   4.728   2.933 -0.3765 -0.2990  0.1105
10799SOL    HW133296   1.747   4.803   2.950  0.1255  0.4998 -1.4065
10799SOL    HW233297   1.884   4.730   3.002 -1.1145 -0.2807  0.9203
10800SOL     OW33298   6.909   2.672   5.668  0.0627 -0.2798 -0.7034
10800SOL    HW133299   6.982   2.635   5.611 -1.1685 -1.2449 -1.7167
10800SOL    HW233300   6.939   2.758   5.710  1.4425 -0.1856 -1.8282
10801SOL     OW33301   5.608   3.512   5.079 -0.6403  0.3047 -0.0627
10801SOL    HW133302   5.640   3.550   5.166 -2.0574  2.5643 -0.4336
10801SOL    HW233303   5.655   3.557   5.003 -1.0721  0.0353 -0.5002
10802SOL     OW33304   0.209   6.604   1.515 -0.0108 -0.4259 -0.5328
10802SOL    HW133305   0.178   6.662   1.590  0.8244 -0.2462 -0.3212
10802SOL    HW233306   0.170   6.638   1.429 -0.2076 -0.0649 -0.3063
10803SOL     OW33307   5.367   5.188   2.739  0.3721  0.7555  0.5709
10803SOL    HW133308   5.392   5.096   2.708  1.6579  1.4780 -0.6651
10803SOL    HW233309   5.292   5.222   2.682  1.0461  1.1076 -0.1313
10804SOL     OW33310   4.834   5.510   5.188  0.3496 -0.4966 -0.2538
10804SOL    HW133311   4.921   5.492   5.234  0.9120 -0.7128 -1.3560
10804SOL    HW233312   4.761   5.457   5.231  1.3767 -2.9466 -1.3765
10805SOL     OW33313   6.798   6.728   5.387  0.3294 -0.3412 -0.2042
10805SOL    HW133314   6.702   6.750   5.407  0.5153 -0.7325  1.2398
10805SOL    HW233315   6.813   6.730   5.288 -1.0985 -0.0051 -0.4356
10806SOL     OW33316   6.952   6.077   1.766 -0.2503  0.4651  0.0569
10806SOL    HW133317   6.950   6.118   1.675 -0.1692 -0.3502 -0.3248
10806SOL    HW233318   7.046   6.075   1.800 -0.3686  1.3787  0.4476
10807SOL     OW33319   6.597   3.395   6.508  0.0625  0.2872  0.1306
10807SOL    HW133320   6.598   3.295   6.498 -0.5609  0.1554  1.2060
10807SOL    HW233321   6.503   3.428   6.507  0.3344  1.1829 -2.6619
10808SOL     OW33322   5.629   2.304   1.121 -0.4187 -0.6772  0.1529
10808SOL    HW133323   5.542   2.331   1.162  0.0531  0.9924  0.1173
10808SOL    HW233324   5.687   2.385   1.109  1.6407 -1.8981  1.3261
10809SOL     OW33325   5.310   5.948   4.010 -0.6165 -0.1445  0.1324
10809SOL    HW133326   5.221   5.905   3.991 -1.2898  1.6408 -1.0809
10809SOL    HW233327   5.383   5.884   3.987 -1.5711 -1.2085 -0.0686
10810SOL     OW33328   3.945   3.246   3.046  0.4699  0.6411  0.0586
10810SOL    HW133329   3.950   3.241   3.146  0.7895 -0.7629 -0.0086
10810SOL    HW233330   4.011   3.314   3.013  1.4244  0.0625  0.7237
10811SOL     OW33331   3.778   1.541   2.531  0.5371 -0.0304 -0.5243
10811SOL    HW133332   3.718   1.621   2.522 -0.9110 -0.7841  1.5817
10811SOL    HW233333   3.732   1.461   2.491  0.6806 -0.3705 -0.0167
10812SOL     OW33334   2.669   3.110   6.402 -0.2914 -0.8305 -0.2492
10812SOL    HW133335   2.659   3.017   6.439 -1.1954 -0.8701 -0.5622
10812SOL    HW233336   2.671   3.176   6.477 -3.3059 -0.7992 -0.0629
10813SOL     OW33337   1.063   0.405   3.586 -0.1970 -0.0646  0.4239
10813SOL    HW133338   1.110   0.324   3.619 -1.3171 -0.3787  1.3026
10813SOL    HW233339   1.082   0.417   3.488  1.3821 -0.3703  0.6585
10814SOL     OW33340   6.565   5.013   0.499  0.1928 -0.3680 -0.3678
10814SOL    HW133341   6.661   4.987   0.509  0.3757  0.2023 -0.5651
10814SOL    HW233342   6.516   4.994   0.584  0.6127 -0.1178 -0.0644
10815SOL     OW33343   1.419   3.691   3.530  0.1685  0.8909 -0.6194
10815SOL    HW133344   1.344   3.625   3.542  0.9451  0.0933 -0.0182
10815SOL    HW233345   1.481   3.685   3.608  1.1627  1.1425 -1.3801
10816SOL     OW33346   1.576   5.403   4.823 -0.2054  0.4408 -0.5085
10816SOL    HW133347   1.505   5.459   4.782 -2.9859 -2.3079  0.1321
10816SOL    HW233348   1.586   5.428   4.920  0.5234  1.5493 -0.8546
10817SOL     OW33349   4.756   1.504   4.461 -0.0846  0.4249 -0.2502
10817SOL    HW133350   4.668   1.546   4.483  0.3858  1.2134  0.1700
10817SOL    HW233351   4.741   1.412   4.425 -1.0332  0.2642  0.5178
10818SOL     OW33352   6.547   1.975   6.302  0.2843  0.1102 -0.1563
10818SOL    HW133353   6.591   1.962   6.391  0.7660 -1.9488 -0.6468
10818SOL    HW233354   6.470   2.037   6.312 -0.1773 -0.7117  1.8795
10819SOL     OW33355   0.243   5.450   2.469 -0.4620  0.3980 -0.0458
10819SOL    HW133356   0.270   5.546   2.472  1.0451  0.0177 -0.6503
10819SOL    HW233357   0.270   5.405   2.554  1.5562 -0.1426 -0.9228
10820SOL     OW33358   1.717   1.949   4.951  0.2679  0.0278  0.0902
10820SOL    HW133359   1.730   2.016   5.024 -2.0581 -0.1856  0.7630
10820SOL    HW233360   1.662   1.989   4.878  0.1196 -0.6760 -0.1928
10821SOL     OW33361   6.461   6.746   6.869 -0.1925  0.1891  0.5943
10821SOL    HW133362   6.394   6.687   6.913 -0.3960 -0.5840 -0.6921
10821SOL    HW233363   6.414   6.823   6.826  0.0283  1.0748  1.8790
10822SOL     OW33364   1.271   0.719   4.349 -0.2767 -0.0670  0.1607
10822SOL    HW133365   1.224   0.646   4.301 -0.4662  1.6129 -2.4202
10822SOL    HW233366   1.343   0.756   4.291  1.1229  0.5486  2.1628
10823SOL     OW33367   6.534   0.755   0.567 -0.1082  0.2899 -0.4715
10823SOL    HW133368   6.480   0.673   0.548 -1.4395  0.4526  2.1466
10823SOL    HW233369   6.473   0.828   0.598  1.3135  1.5317 -0.5166
10824SOL     OW33370   5.850   1.130   1.863  0.0823  0.2294  0.5923
10824SOL    HW133371   5.865   1.069   1.940  1.4977 -0.6075 -0.2870
10824SOL    HW233372   5.760   1.113   1.824 -0.6111  0.6000  1.9759
10825SOL     OW33373   0.419   2.773   2.572  0.5320 -0.7354 -0.4920
10825SOL    HW133374   0.349   2.844   2.582  0.7818 -0.5496 -0.0241
10825SOL    HW233375   0.473   2.790   2.489 -1.4036 -2.1456 -2.1212
10826SOL     OW33376   2.719   4.565   1.674 -0.1662 -0.4727 -0.6999
10826SOL    HW133377   2.755   4.643   1.623 -0.0551  0.3920  0.6562
10826SOL    HW233378   2.793   4.525   1.730 -0.9182  0.4355  1.0195
10827SOL     OW33379   6.572   0.389   0.665  0.2259 -0.2301 -0.1886
10827SOL    HW133380   6.531   0.304   0.633 -0.0510 -0.0753 -0.2506
10827SOL    HW233381   6.555   0.462   0.598  0.9154 -0.2467 -0.3895
10828SOL     OW33382   3.207   3.165   5.857  0.5424 -0.4163  0.3729
10828SOL    HW133383   3.225   3.067   5.871  0.0362 -0.7797 -1.2478
10828SOL    HW233384   3.137   3.175   5.786  1.9460  1.1588 -0.8620
10829SOL     OW33385   0.764   6.905   2.040  0.0455 -0.5396 -0.2071
10829SOL    HW133386   0.669   6.935   2.049  0.0978 -0.4841  0.1876
10829SOL    HW233387   0.794   6.918   1.946 -0.2840 -0.3945 -0.2938
10830SOL     OW33388   5.464   4.140   0.256  0.7668  0.7157 -0.2134
10830SOL    HW133389   5.460   4.217   0.193 -0.4747  1.8369  1.1616
10830SOL    HW233390   5.431   4.058   0.211 -0.2057  1.5134 -0.9941
10831SOL     OW33391   2.177   2.569   0.918 -0.0694  0.6344 -0.5044
10831SOL    HW133392   2.140   2.490   0.869  1.3695 -0.9122  0.8016
10831SOL    HW233393   2.137   2.573   1.010  1.0965  0.3961  0.0334
10832SOL     OW33394   1.489   1.407   6.686  0.1391 -0.1527  0.4228
10832SOL    HW133395   1.399   1.392   6.646  0.7169 -1.8630 -0.3526
10832SOL    HW233396   1.503   1.505   6.703 -0.9629  0.3962 -1.5818
10833SOL     OW33397   5.906   2.350   5.224  0.5909  0.5281 -0.0873
10833SOL    HW133398   5.898   2.264   5.275 -0.4444 -0.2881 -1.5476
10833SOL    HW233399   5.819   2.399   5.228  0.6604  0.7012 -0.6193
10834SOL     OW33400   6.567   6.903   4.623 -0.2527  0.0847 -0.1041
10834SOL    HW133401   6.641   6.952   4.669 -0.6776  0.5586  0.0802
10834SOL    HW233402   6.595   6.808   4.607  0.1895  0.1195  0.4386
10835SOL     OW33403   4.679   0.984   5.972 -0.2065 -0.1643  0.2404
10835SOL    HW133404   4.730   0.938   6.045 -0.3811  0.0441  0.4916
10835SOL    HW233405   4.598   1.028   6.009  1.2688  2.5499  0.4709
10836SOL     OW33406   2.547   1.361   6.997  0.1115  0.1181 -0.2081
10836SOL    HW133407   2.632   1.410   7.013  0.1327 -0.1463  0.5339
10836SOL    HW233408   2.506   1.336   7.085 -0.2347 -0.6055 -0.5674
10837SOL     OW33409   3.835   5.576   0.123 -0.1109  0.0176  0.5650
10837SOL    HW133410   3.840   5.516   0.043  0.0730 -0.8392  1.2049
10837SOL    HW233411   3.808   5.668   0.094  3.4657  0.7366 -1.0179
10838SOL     OW33412   4.770   3.720   1.569  0.0371  0.3887  0.0610
10838SOL    HW133413   4.675   3.695   1.554 -0.0691  0.2752  0.8961
10838SOL    HW233414   4.776   3.792   1.638  0.6654 -1.1207  1.6617
10839SOL     OW33415   5.842   5.059   2.942  0.0714 -0.1220  0.0230
10839SOL    HW133416   5.803   4.980   2.989 -2.0048 -0.1527 -1.6274
10839SOL    HW233417   5.791   5.141   2.968 -0.6070 -0.0219 -1.5432
10840SOL     OW33418   6.782   1.882   3.845  0.3048 -0.4274  0.0343
10840SOL    HW133419   6.701   1.880   3.904  1.3628 -2.2924  1.5579
10840SOL    HW233420   6.761   1.835   3.759 -0.2937 -0.7649  0.3493
10841SOL     OW33421   2.485   4.820   6.360  0.3826  0.0654 -0.3450
10841SOL    HW133422   2.566   4.773   6.325 -0.2191 -0.9568 -0.3944
10841SOL    HW233423   2.483   4.812   6.460  1.3787  1.8133 -0.1464
10842SOL     OW33424   5.204   6.390   1.734  0.1416 -0.4236 -0.0997
10842SOL    HW133425   5.215   6.291   1.735  0.5746 -0.3787 -0.3375
10842SOL    HW233426   5.141   6.416   1.661  0.0111 -0.5228 -0.0233
10843SOL     OW33427   0.074   4.567   0.752  0.1582 -0.1349 -0.6177
10843SOL    HW133428   0.095   4.506   0.829  0.8768  0.5443 -0.2551
10843SOL    HW233429  -0.015   4.610   0.767  0.2390 -0.0986 -0.2232
10844SOL     OW33430   1.611   3.890   2.498  0.4168  0.1355  0.0190
10844SOL    HW133431   1.601   3.824   2.424 -0.1617  0.3549 -0.1011
10844SOL    HW233432   1.628   3.841   2.584  1.2535 -0.1104 -0.2829
10845SOL     OW33433   0.097   2.166   3.047  0.4262 -0.4325 -0.5297
10845SOL    HW133434   0.147   2.185   3.132  0.5876  0.6805 -0.8640
10845SOL    HW233435   0.008   2.124   3.070  0.8042 -0.8866  0.1401
10846SOL     OW33436   3.401   2.304   6.059  0.2730 -0.1332  0.0242
10846SOL    HW133437   3.442   2.392   6.035  0.0411 -0.1000 -0.2530
10846SOL    HW233438   3.415   2.239   5.984  2.4401 -1.0381  1.1123
10847SOL     OW33439   5.688   5.966   3.729  0.6292  0.2130 -0.4007
10847SOL    HW133440   5.599   5.937   3.694  0.8276  0.5180 -1.1977
10847SOL    HW233441   5.686   6.063   3.751  1.0373  0.4638 -1.3999
10848SOL     OW33442   1.027   5.806   3.210  0.3315  0.1943  0.2544
10848SOL    HW133443   0.953   5.812   3.277 -0.1991 -0.4140 -0.2647
10848SOL    HW233444   1.034   5.712   3.177 -0.8418  0.8763 -2.1296
10849SOL     OW33445   4.298   4.683   1.730  0.1720 -0.6946 -0.1200
10849SOL    HW133446   4.267   4.589   1.739 -0.4498 -0.4267  0.6269
10849SOL    HW233447   4.326   4.718   1.819 -0.0694 -0.0111 -0.3014
10850SOL     OW33448   5.987   1.479   3.572 -0.7192  0.5513 -0.6334
10850SOL    HW133449   5.973   1.532   3.656 -0.2256  0.2412 -0.3487
10850SOL    HW233450   5.935   1.520   3.498  0.6607  2.1978 -0.7517
10851SOL     OW33451   3.128   1.735   2.218 -0.0663 -0.1220  0.2999
10851SOL    HW133452   3.174   1.697   2.299  0.3386 -1.5155 -0.5578
10851SOL    HW233453   3.196   1.769   2.154 -0.4050  1.4004  0.7205
10852SOL     OW33454   6.415   0.920   5.491  0.2132  0.2549  0.4913
10852SOL    HW133455   6.361   0.924   5.407 -1.1895 -2.0296  1.1867
10852SOL    HW233456   6.493   0.982   5.484  0.3275 -0.1028 -2.6115
10853SOL     OW33457   3.297   0.701   0.039  0.4883  0.0712 -0.1193
10853SOL    HW133458   3.271   0.688   0.135 -0.2281  0.1916 -0.2935
10853SOL    HW233459   3.215   0.706  -0.018  0.8121  2.3291 -0.4624
10854SOL     OW33460   6.855   6.618   0.258 -0.1511 -0.0095  0.2392
10854SOL    HW133461   6.905   6.541   0.217 -1.1546 -0.5294 -0.0354
10854SOL    HW233462   6.803   6.586   0.337  0.0251  0.5553  0.5923
10855SOL     OW33463   7.005   5.089   3.534 -0.0445 -0.0933  0.6225
10855SOL    HW133464   6.931   5.153   3.553 -1.2540 -1.2061 -0.2495
10855SOL    HW233465   7.053   5.117   3.451  0.5870  0.6485  1.2096
10856SOL     OW33466   3.315   2.144   1.525 -0.6209  0.1565  0.4840
10856SOL    HW133467   3.377   2.068   1.543  0.2651  0.9006  0.6624
10856SOL    HW233468   3.221   2.117   1.548 -0.2907 -0.7948  0.7591
10857SOL     OW33469   6.659   6.162   0.048 -0.2374  0.8455 -0.4205
10857SOL    HW133470   6.656   6.259   0.074  0.5108  1.1734 -1.4833
10857SOL    HW233471   6.585   6.144  -0.018 -1.2512  0.3472  0.8145
10858SOL     OW33472   2.367   2.991   5.625  0.0344  0.1741 -0.7352
10858SOL    HW133473   2.395   2.895   5.615 -0.4203 -0.0623  0.1633
10858SOL    HW233474   2.334   3.025   5.537  1.3728 -0.0977 -1.3783
10859SOL     OW33475   0.222   4.838   0.737  0.2077 -0.3294  0.5376
10859SOL    HW133476   0.301   4.853   0.796 -0.9710 -1.5432  2.5277
10859SOL    HW233477   0.178   4.751   0.760 -2.2868  0.7467  0.1997
10860SOL     OW33478   2.857   0.907   1.958  0.7945 -0.0538 -0.5273
10860SOL    HW133479   2.859   0.932   2.055  0.2717 -1.0179 -0.2616
10860SOL    HW233480   2.950   0.888   1.927  0.7450 -2.3982  0.5238
10861SOL     OW33481   1.053   0.958   1.096  0.2106 -0.2106  0.2730
10861SOL    HW133482   0.958   0.942   1.069 -0.1174  0.6848  0.8553
10861SOL    HW233483   1.064   1.053   1.126  0.9810 -0.6414  1.4559
10862SOL     OW33484   4.289   6.795   5.046  0.2771  0.3870  0.1480
10862SOL    HW133485   4.282   6.700   5.078  1.2691  0.5521  0.9279
10862SOL    HW233486   4.198   6.831   5.028 -0.1151 -0.7143 -0.1728
10863SOL     OW33487   5.732   2.967   6.117  0.7541  0.0117 -0.2285
10863SOL    HW133488   5.701   3.042   6.174  1.1253  1.0833 -1.3823
10863SOL    HW233489   5.832   2.965   6.115  0.7688  0.6586 -1.6257
10864SOL     OW33490   5.978   3.182   0.041 -0.5454 -0.7277  0.2207
10864SOL    HW133491   5.916   3.104   0.052  0.4475 -1.6192 -0.3069
10864SOL    HW233492   6.072   3.148   0.028  0.0971  0.5871  1.1873
10865SOL     OW33493   6.595   0.940   6.918 -0.2900  0.2687  0.8074
10865SOL    HW133494   6.624   1.035   6.905 -2.6744  0.8183 -1.0116
10865SOL    HW233495   6.618   0.887   6.837  0.2463 -0.5340  1.4667
10866SOL     OW33496   6.219   5.085   4.018  0.2031 -0.2686  0.0689
10866SOL    HW133497   6.176   5.027   4.087  0.1022  2.4368  2.4296
10866SOL    HW233498   6.153   5.150   3.982  0.1300 -1.8909 -3.0604
10867SOL     OW33499   0.475   5.654   3.420 -0.3086  0.1509  0.0331
10867SOL    HW133500   0.452   5.618   3.330 -1.4720 -0.9468  0.7482
10867SOL    HW233501   0.563   5.702   3.415  1.0121 -2.2415 -1.0840
10868SOL     OW33502   1.646   3.106   6.776  0.1636 -0.4451  0.2977
10868SOL    HW133503   1.699   3.022   6.788  0.4778 -0.7698 -2.6903
10868SOL    HW233504   1.551   3.089   6.804  0.7699 -0.9620  2.1722
10869NA      NA33505   3.438   0.178   2.499 -0.0683  0.2868 -0.6697
10870NA      NA33506   2.866   5.420   1.954 -0.1972  0.0004 -0.4347
10871NA      NA33507   5.063   0.668   3.855  0.0918  0.2248  0.5063
10872NA      NA33508   5.137   2.274   1.727 -0.2206  0.3939 -0.7323
10873NA      NA33509   3.034   2.135   5.150 -0.1456 -0.0678 -0.6787
10874NA      NA33510   3.715   4.053   4.929 -0.1631  0.1509  0.1249
10875NA      NA33511   6.389   2.435   6.081 -0.3793 -0.7113 -0.4839
10876NA      NA33512   4.571   5.722   0.282  0.5926 -0.5779  0.2342
10877NA      NA33513   4.451   5.304   4.249  0.1423 -0.2662 -0.6624
10878NA      NA33514   3.338   0.112   5.878 -0.0231 -0.4311 -0.2904
10879NA      NA33515   4.335   6.454   0.365  0.5209  0.1870  0.4676
10880NA      NA33516   3.404   3.297   5.835  0.1358 -0.1879 -0.0102
10881NA      NA33517   6.320   3.340   0.307  0.4782 -0.2070 -0.2778
10882NA      NA33518   2.177   3.652   1.391  0.3298 -0.4088 -0.6013
   7.02226   7.02226   7.02226
