CNT in water
33518
    1C        C    1   2.840   2.766   4.745  0.3009 -0.1357  0.2456
    1C        C    2   2.893   2.714   4.865  0.1285 -0.2172  0.2890
    1C        C    3   2.838   2.773   4.980  0.0938 -0.7020  0.5210
    1C        C    4   2.846   2.775   4.257 -0.3231  0.1009 -0.0246
    1C        C    5   2.897   2.725   4.379  0.5327  0.0570 -0.3868
    1C        C    6   2.841   2.773   4.500  0.3000 -0.2207 -0.3789
    1C        C    7   3.013   2.647   4.624 -0.4188 -0.3312 -0.0462
    1C        C    8   2.896   2.725   4.621 -0.0563  0.2224 -0.0394
    1C        C    9   3.076   2.606   4.744 -0.1022 -0.0579 -0.1151
    1C        C   10   3.011   2.636   4.865  0.2399 -0.0535  0.0675
    1C        C   11   3.176   2.487   4.971  0.2012 -0.3419 -0.4900
    1C        C   12   3.059   2.564   4.975  0.2227 -0.3306 -0.1039
    1C        C   13   2.847   2.773   3.770 -0.3416 -0.2525  0.2524
    1C        C   14   2.902   2.728   3.892  0.1747 -0.3994 -0.0301
    1C        C   15   2.849   2.774   4.014  0.5678  0.1839 -0.0706
    1C        C   16   3.016   2.644   4.138 -0.4228 -0.4310  0.0093
    1C        C   17   2.901   2.727   4.136 -0.4464 -0.4565  0.1331
    1C        C   18   3.082   2.619   4.260  0.2784 -0.2400 -0.3256
    1C        C   19   3.015   2.647   4.380  0.7822  0.4306 -0.1927
    1C        C   20   3.206   2.557   4.504 -0.0947 -0.2713 -0.4070
    1C        C   21   3.077   2.613   4.502 -0.0030 -0.0398  0.0861
    1C        C   22   3.280   2.537   4.623 -0.3878 -0.3056 -0.2292
    1C        C   23   3.208   2.553   4.743  0.0208  0.2449 -0.0515
    1C        C   24   3.409   2.487   4.865  0.3426 -0.0533 -0.1896
    1C        C   25   3.267   2.505   4.862  0.3543  0.0389 -0.2980
    1C        C   26   3.489   2.470   4.979 -0.2918 -0.2424  0.2291
    1C        C   27   2.842   2.758   3.281 -0.0928  0.0728 -0.0508
    1C        C   28   2.897   2.717   3.405 -0.4068 -0.2771 -0.0269
    1C        C   29   2.846   2.769   3.526 -0.2061 -0.6044  0.2016
    1C        C   30   3.021   2.650   3.652 -0.1733 -0.2409 -0.0260
    1C        C   31   2.904   2.729   3.649 -0.1173 -0.1389  0.3135
    1C        C   32   3.080   2.609   3.773  0.0378 -0.2419 -0.1263
    1C        C   33   3.016   2.645   3.894  0.0284 -0.6060 -0.0199
    1C        C   34   3.206   2.552   4.017 -0.0151 -0.1133 -0.0344
    1C        C   35   3.075   2.605   4.016 -0.1243 -0.3731  0.1321
    1C        C   36   3.279   2.545   4.137  0.4098  0.1540 -0.2747
    1C        C   37   3.216   2.574   4.260  0.4888  0.3730 -0.2850
    1C        C   38   3.417   2.518   4.380  0.1046 -0.6681  0.2022
    1C        C   39   3.279   2.545   4.383  0.1898 -0.1508 -0.2518
    1C        C   40   3.490   2.510   4.501 -0.0631 -0.0740  0.3514
    1C        C   41   3.419   2.514   4.623 -0.3415 -0.0377  0.1931
    1C        C   42   3.629   2.498   4.747  0.2814  0.3558  0.1184
    1C        C   43   3.487   2.494   4.746  0.3024 -0.7081 -0.2615
    1C        C   44   3.704   2.492   4.866  0.1808  0.0711  0.1722
    1C        C   45   3.628   2.475   4.982 -0.2824 -0.1543 -0.1608
    1C        C   46   2.843   2.755   2.792  0.0610  0.3050  0.2219
    1C        C   47   2.891   2.707   2.916 -0.1842 -0.2884  0.0899
    1C        C   48   2.841   2.760   3.037 -0.2186 -0.5068  0.1713
    1C        C   49   3.017   2.642   3.158  0.2527  0.0858  0.3596
    1C        C   50   2.896   2.715   3.158 -0.0155 -0.3611  0.1331
    1C        C   51   3.080   2.614   3.282  0.6356  0.2646  0.2097
    1C        C   52   3.018   2.643   3.405 -0.1356  0.1646 -0.1475
    1C        C   53   3.206   2.552   3.527 -0.2963 -0.1015  0.1450
    1C        C   54   3.079   2.613   3.528 -0.3032 -0.1073 -0.1297
    1C        C   55   3.274   2.530   3.649 -0.3736 -0.5386  0.1082
    1C        C   56   3.210   2.553   3.772  0.1381 -0.0214  0.2809
    1C        C   57   3.414   2.508   3.892  0.4871  0.4601  0.1601
    1C        C   58   3.275   2.534   3.895  0.4708  0.3746  0.1696
    1C        C   59   3.487   2.505   4.013  0.5382  0.3647  0.1288
    1C        C   60   3.417   2.515   4.136  0.3001 -0.3963  0.0620
    1C        C   61   3.628   2.501   4.259  0.0408 -0.2765 -0.0189
    1C        C   62   3.487   2.505   4.258  0.0170 -0.9560  0.1810
    1C        C   63   3.702   2.509   4.379  0.1540 -0.3190 -0.0833
    1C        C   64   3.631   2.509   4.500 -0.0572  0.3244 -0.1992
    1C        C   65   3.834   2.549   4.624 -0.0720  0.1499 -0.1222
    1C        C   66   3.699   2.508   4.624 -0.1687  0.4618 -0.1343
    1C        C   67   3.905   2.565   4.745  0.0507 -0.2294 -0.1377
    1C        C   68   3.841   2.525   4.864  0.1834  0.0657  0.0377
    1C        C   69   4.059   2.572   4.974  0.4271  0.1233  0.0080
    1C        C   70   3.926   2.530   4.975  0.3284  0.4232 -0.0845
    1C        C   71   2.827   2.730   2.307 -0.3857 -0.1528 -0.1432
    1C        C   72   2.878   2.686   2.430 -0.0977  0.5340 -0.0125
    1C        C   73   2.827   2.739   2.551  0.0970  0.2246  0.2056
    1C        C   74   3.011   2.629   2.671 -0.0387  0.1562 -0.2070
    1C        C   75   2.888   2.698   2.671 -0.0206  0.1830  0.2501
    1C        C   76   3.074   2.598   2.793 -0.1202  0.0399 -0.1962
    1C        C   77   3.011   2.632   2.914 -0.2182 -0.3353 -0.1424
    1C        C   78   3.207   2.550   3.039 -0.1611  0.7152  0.2030
    1C        C   79   3.075   2.602   3.036 -0.4464 -0.0150  0.0591
    1C        C   80   3.275   2.533   3.162  0.0763  0.2842  0.0106
    1C        C   81   3.206   2.552   3.284  0.5715  0.1363  0.3128
    1C        C   82   3.414   2.511   3.403  0.3687  0.3614  0.1735
    1C        C   83   3.275   2.532   3.405  0.3515  0.2215  0.4501
    1C        C   84   3.485   2.501   3.525  0.4313  0.5329  0.1494
    1C        C   85   3.413   2.505   3.647 -0.2583  0.1185 -0.2318
    1C        C   86   3.624   2.506   3.770 -0.1731 -0.1981 -0.5068
    1C        C   87   3.483   2.497   3.770 -0.2141  0.4171 -0.2373
    1C        C   88   3.697   2.509   3.891 -0.0361 -0.0443 -0.5913
    1C        C   89   3.628   2.512   4.014  0.5483  0.2092 -0.2645
    1C        C   90   3.835   2.547   4.136 -0.0011 -0.0181 -0.3214
    1C        C   91   3.698   2.512   4.137  0.1036 -0.4393  0.0006
    1C        C   92   3.904   2.565   4.258  0.2424 -0.0606 -0.4511
    1C        C   93   3.840   2.540   4.381  0.0347  0.2787 -0.4853
    1C        C   94   4.028   2.638   4.502 -0.3001  0.1261  0.1057
    1C        C   95   3.903   2.574   4.503 -0.2717  0.0528 -0.2601
    1C        C   96   4.086   2.679   4.624  0.5058 -0.3562 -0.0985
    1C        C   97   4.032   2.628   4.744  0.1127 -0.3478 -0.2648
    1C        C   98   4.192   2.767   4.866  0.0283 -0.0618 -0.0331
    1C        C   99   4.101   2.656   4.866  0.1637 -0.1752 -0.3303
    1C        C  100   4.220   2.843   4.980 -0.6540  0.1910 -0.0298
    1C        C  101   2.827   2.729   2.069 -0.2259 -0.0154 -0.0079
    1C        C  102   2.992   2.586   2.189  0.2020  0.3080  0.1198
    1C        C  103   2.881   2.676   2.187  0.0643  0.1346 -0.0715
    1C        C  104   3.060   2.565   2.312  0.4157  0.0858 -0.0347
    1C        C  105   2.995   2.607   2.430 -0.0294  0.6335 -0.4673
    1C        C  106   3.201   2.536   2.551 -0.1448  0.6419  0.0757
    1C        C  107   3.069   2.588   2.549 -0.2872  0.2671 -0.3623
    1C        C  108   3.268   2.514   2.673  0.1383  1.1203  0.0090
    1C        C  109   3.206   2.547   2.795 -0.1503 -0.0245  0.1840
    1C        C  110   3.412   2.502   2.916 -0.1805  0.2683  0.0102
    1C        C  111   3.273   2.526   2.917 -0.1451  0.4568  0.2637
    1C        C  112   3.483   2.498   3.038 -0.3137  0.2931  0.0873
    1C        C  113   3.413   2.504   3.160  0.1353  0.5482  0.3349
    1C        C  114   3.624   2.496   3.280  0.2156  0.0708 -0.3706
    1C        C  115   3.483   2.490   3.282  0.2336 -0.2288  0.1942
    1C        C  116   3.694   2.514   3.402  0.3597 -0.2613 -0.4061
    1C        C  117   3.626   2.505   3.524  0.4465  0.0099 -0.3384
    1C        C  118   3.833   2.537   3.650  0.3293 -0.6659  0.1899
    1C        C  119   3.695   2.507   3.648  0.2917 -0.4667 -0.2437
    1C        C  120   3.900   2.565   3.770  0.6346 -0.4484 -0.0316
    1C        C  121   3.833   2.545   3.893 -0.0806  0.1122 -0.3228
    1C        C  122   4.028   2.633   4.015  0.2435 -0.4952 -0.2471
    1C        C  123   3.900   2.573   4.014 -0.1878  0.4119 -0.3314
    1C        C  124   4.090   2.669   4.136  0.2233 -0.6963 -0.1758
    1C        C  125   4.026   2.635   4.258 -0.0500  0.4610  0.0150
    1C        C  126   4.192   2.771   4.379  0.3347 -0.4651 -0.0452
    1C        C  127   4.085   2.679   4.379  0.1925 -0.3068  0.1812
    1C        C  128   4.240   2.824   4.501  0.4657 -0.1432 -0.2344
    1C        C  129   4.188   2.777   4.623  0.3703 -0.2110 -0.2987
    1C        C  130   4.325   2.938   4.742 -0.2186 -0.0497  0.0736
    1C        C  131   4.242   2.822   4.745 -0.0480 -0.1781 -0.1203
    1C        C  132   4.351   3.009   4.862 -0.7625  0.6517 -0.2178
    1C        C  133   4.290   2.962   4.979  0.0039 -0.1898 -0.1471
    1C        C  134   3.177   2.472   2.079 -0.6926 -0.4112  0.0535
    1C        C  135   3.041   2.506   2.081 -0.5855  0.0290 -0.0410
    1C        C  136   3.259   2.475   2.193 -0.1090  0.0777 -0.3653
    1C        C  137   3.196   2.521   2.311  0.4417  0.1621 -0.0971
    1C        C  138   3.408   2.483   2.430  0.1041  0.8846  0.0036
    1C        C  139   3.270   2.514   2.430  0.0833  0.8040  0.1754
    1C        C  140   3.479   2.480   2.552  0.2403  0.4068 -0.0807
    1C        C  141   3.407   2.485   2.673  0.0639  0.7497 -0.1978
    1C        C  142   3.621   2.484   2.794 -0.2201  0.6639 -0.5649
    1C        C  143   3.479   2.480   2.794 -0.2138  0.4583 -0.0425
    1C        C  144   3.693   2.506   2.913 -0.3845 -0.0928 -0.3241
    1C        C  145   3.624   2.504   3.037 -0.3046  0.0078 -0.2808
    1C        C  146   3.834   2.530   3.159 -0.1253  0.3034 -0.1132
    1C        C  147   3.695   2.502   3.158  0.0454 -0.5413 -0.4965
    1C        C  148   3.901   2.554   3.281 -0.1004  0.4737 -0.1643
    1C        C  149   3.832   2.546   3.403  0.1527  0.6212 -0.0141
    1C        C  150   4.025   2.623   3.524  0.0558 -0.0364 -0.1420
    1C        C  151   3.899   2.558   3.527 -0.0269  0.1380  0.1294
    1C        C  152   4.080   2.670   3.645  0.0945 -0.1000 -0.1370
    1C        C  153   4.022   2.637   3.769  0.2712  0.1773  0.0196
    1C        C  154   4.191   2.765   3.889 -0.0286  0.6010 -0.0135
    1C        C  155   4.081   2.676   3.891  0.1245  0.4125  0.0151
    1C        C  156   4.247   2.806   4.011 -0.0389 -0.0277  0.2057
    1C        C  157   4.200   2.758   4.135  0.1132 -0.5536  0.0600
    1C        C  158   4.338   2.920   4.254  0.1347 -0.1969 -0.2838
    1C        C  159   4.247   2.813   4.256 -0.1966  0.0836 -0.1038
    1C        C  160   4.378   2.983   4.374 -0.0981 -0.0320 -0.2917
    1C        C  161   4.334   2.929   4.497  0.1999  0.1016 -0.1253
    1C        C  162   4.432   3.117   4.614  0.0031 -0.1632  0.0313
    1C        C  163   4.367   2.992   4.619 -0.2522 -0.0299  0.0693
    1C        C  164   4.462   3.186   4.734  0.0797  0.0782 -0.1250
    1C        C  165   4.428   3.127   4.857 -0.8392  0.7076 -0.0739
    1C        C  166   4.507   3.327   4.970 -0.6616  0.2497  0.3121
    1C        C  167   4.465   3.195   4.974 -0.6190  0.2308  0.1359
    1C        C  168   3.473   2.439   2.074  0.2988  0.8089  0.1816
    1C        C  169   3.398   2.452   2.192 -0.1086  0.0225  0.0187
    1C        C  170   3.617   2.472   2.308 -0.1558  0.7081 -0.6190
    1C        C  171   3.476   2.460   2.309 -0.1102  0.1365  0.0161
    1C        C  172   3.691   2.490   2.427 -0.2984  0.1230 -0.4368
    1C        C  173   3.620   2.483   2.548  0.2531 -0.1197 -0.1196
    1C        C  174   3.824   2.536   2.671  0.3354  0.7170  0.0130
    1C        C  175   3.689   2.496   2.671  0.3465  0.6831 -0.2517
    1C        C  176   3.892   2.567   2.791 -0.1117  0.8573  0.2304
    1C        C  177   3.831   2.534   2.915 -0.4640  0.2760 -0.0958
    1C        C  178   4.025   2.616   3.033 -0.0162 -0.2323 -0.2983
    1C        C  179   3.901   2.548   3.036 -0.2813  0.2620 -0.2018
    1C        C  180   4.082   2.657   3.156 -0.5521  0.1618 -0.1844
    1C        C  181   4.027   2.619   3.280 -0.2605  0.7847  0.1376
    1C        C  182   4.193   2.749   3.400  0.3075  0.2204  0.1563
    1C        C  183   4.087   2.656   3.402  0.2227  0.3166  0.0408
    1C        C  184   4.241   2.806   3.520  0.5209 -0.0580  0.2001
    1C        C  185   4.192   2.756   3.642  0.1646 -0.1866  0.0044
    1C        C  186   4.330   2.918   3.764  0.2635 -0.0232  0.0443
    1C        C  187   4.244   2.806   3.764  0.2369 -0.0028 -0.1022
    1C        C  188   4.372   2.974   3.886  0.6369 -0.3852  0.0847
    1C        C  189   4.332   2.919   4.010 -0.0703 -0.0058  0.0281
    1C        C  190   4.438   3.105   4.127  0.2432  0.0912  0.3105
    1C        C  191   4.373   2.980   4.131  0.2784  0.0580 -0.1202
    1C        C  192   4.464   3.175   4.247  0.1250  0.1463  0.3021
    1C        C  193   4.439   3.110   4.371  0.1414 -0.1333  0.1588
    1C        C  194   4.504   3.315   4.486  1.0644 -0.3467 -0.1522
    1C        C  195   4.462   3.180   4.491  0.0478 -0.0256  0.1124
    1C        C  196   4.519   3.387   4.607  0.5122 -0.2304 -0.1532
    1C        C  197   4.507   3.321   4.731  0.6435 -0.1044 -0.0744
    1C        C  198   4.554   3.536   4.844 -0.0851 -0.1210  0.0191
    1C        C  199   4.530   3.395   4.850 -0.7759  0.0031  0.1513
    1C        C  200   4.590   3.620   4.953  0.6601  0.2160 -0.4809
    1C        C  201   3.612   2.426   2.075  0.2105 -0.2888 -0.2274
    1C        C  202   3.827   2.514   2.182  0.0351  0.9242 -0.1544
    1C        C  203   3.690   2.474   2.185  0.3566 -0.2428 -0.3468
    1C        C  204   3.896   2.539   2.304 -0.4149  0.5076  0.1896
    1C        C  205   3.829   2.521   2.427 -0.2230 -0.1958  0.2010
    1C        C  206   4.017   2.621   2.546  0.1887  0.2470 -0.4918
    1C        C  207   3.891   2.558   2.549  0.3741 -0.1190 -0.1198
    1C        C  208   4.082   2.656   2.667 -0.0715  0.3228 -0.3743
    1C        C  209   4.019   2.628   2.790 -0.1464  0.9142 -0.2778
    1C        C  210   4.196   2.744   2.909  0.0268  0.1248 -0.2343
    1C        C  211   4.081   2.662   2.912 -0.1947  0.4402 -0.1253
    1C        C  212   4.241   2.798   3.031 -0.5604 -0.0151  0.0450
    1C        C  213   4.191   2.747   3.153 -0.4518  0.0433  0.1105
    1C        C  214   4.322   2.912   3.274 -0.0163  0.1077 -0.1637
    1C        C  215   4.239   2.798   3.276 -0.4662  0.4348 -0.0487
    1C        C  216   4.365   2.973   3.394  0.3808 -0.1973 -0.1544
    1C        C  217   4.326   2.919   3.518  0.6587 -0.1655 -0.0533
    1C        C  218   4.432   3.102   3.638  0.5855 -0.2621  0.3133
    1C        C  219   4.365   2.978   3.641  0.6255 -0.2899  0.0161
    1C        C  220   4.456   3.169   3.760  0.9703 -0.5387  0.3883
    1C        C  221   4.431   3.102   3.882  0.8015 -0.4501  0.4039
    1C        C  222   4.499   3.304   3.996  0.2933  0.0754 -0.3312
    1C        C  223   4.462   3.168   4.003 -0.1874  0.2302  0.2963
    1C        C  224   4.512   3.376   4.117  0.4817 -0.0797 -0.2603
    1C        C  225   4.505   3.309   4.241  0.1024  0.1322 -0.1679
    1C        C  226   4.516   3.523   4.357 -0.5625 -0.0544  0.1139
    1C        C  227   4.506   3.382   4.362 -0.1330 -0.0888 -0.0359
    1C        C  228   4.515   3.595   4.479 -0.1768 -0.2692  0.2409
    1C        C  229   4.524   3.528   4.603  0.0338 -0.2018  0.2592
    1C        C  230   4.504   3.743   4.723  0.1644  0.1105 -0.0216
    1C        C  231   4.536   3.604   4.721 -0.1668  0.0358  0.1219
    1C        C  232   4.494   3.819   4.842  0.6351  0.0603  0.0485
    1C        C  233   4.539   3.751   4.956  0.4562  0.1259  0.1557
    1C        C  234   4.023   2.600   2.062 -0.0472  0.4577 -0.0208
    1C        C  235   3.894   2.547   2.064 -0.0320  0.4082 -0.3414
    1C        C  236   4.084   2.642   2.181  0.2010  0.4028 -0.1269
    1C        C  237   4.023   2.603   2.303  0.0047 -0.3103 -0.4449
    1C        C  238   4.195   2.733   2.419  0.2504 -0.1445 -0.2619
    1C        C  239   4.081   2.647   2.423 -0.0270  0.2016 -0.6140
    1C        C  240   4.240   2.790   2.540  0.0419 -0.3264 -0.0990
    1C        C  241   4.190   2.748   2.665  0.2947 -0.0969  0.0797
    1C        C  242   4.329   2.907   2.784  0.0535  0.3929  0.1565
    1C        C  243   4.245   2.793   2.786  0.4761  0.0789 -0.0702
    1C        C  244   4.371   2.965   2.905 -0.0405  0.0655  0.3449
    1C        C  245   4.330   2.908   3.027  0.0420 -0.5018  0.1087
    1C        C  246   4.431   3.092   3.147  0.3968 -0.1485  0.0990
    1C        C  247   4.361   2.969   3.151  0.1738 -0.0259 -0.1622
    1C        C  248   4.457   3.160   3.268  0.0101  0.0170  0.0879
    1C        C  249   4.430   3.099   3.392  0.2877 -0.1492  0.0666
    1C        C  250   4.487   3.302   3.510 -0.0184 -0.4096 -0.0632
    1C        C  251   4.459   3.164   3.514  0.6389 -0.5353  0.1891
    1C        C  252   4.501   3.375   3.630 -0.0376 -0.0841 -0.2577
    1C        C  253   4.492   3.305   3.753  0.1272 -0.3486 -0.3954
    1C        C  254   4.519   3.515   3.875 -0.5531 -0.2541  0.1922
    1C        C  255   4.513   3.374   3.874  0.7657 -0.3301 -0.5135
    1C        C  256   4.521   3.591   3.994 -0.2200 -0.1335  0.1097
    1C        C  257   4.518   3.517   4.114 -0.0667 -0.0473  0.1657
    1C        C  258   4.494   3.731   4.238  0.4509  0.1453 -0.5041
    1C        C  259   4.517   3.592   4.234 -0.3708 -0.0136  0.1404
    1C        C  260   4.477   3.801   4.359  0.1360 -0.2712 -0.3095
    1C        C  261   4.488   3.733   4.483 -0.0564 -0.2331 -0.2740
    1C        C  262   4.427   3.941   4.601 -0.2384 -0.4162 -0.2575
    1C        C  263   4.474   3.808   4.602 -0.0257 -0.3358 -0.2105
    1C        C  264   4.402   4.012   4.721  0.0444 -0.0244 -0.4339
    1C        C  265   4.445   3.951   4.841  0.2319 -0.0922 -0.5411
    1C        C  266   4.320   4.126   4.956  0.0612  0.0609  0.4271
    1C        C  267   4.391   4.007   4.958 -0.7006 -0.4299 -0.8017
    1C        C  268   4.261   2.769   2.063  0.4689  0.2445 -0.1814
    1C        C  269   4.196   2.727   2.180  0.5243 -0.0189 -0.2456
    1C        C  270   4.345   2.888   2.299  0.1860  0.0697  0.1608
    1C        C  271   4.250   2.781   2.298  0.6508 -0.3434 -0.1564
    1C        C  272   4.382   2.952   2.419  0.3336  0.0111  0.1420
    1C        C  273   4.336   2.893   2.539 -0.1631 -0.1387 -0.1209
    1C        C  274   4.437   3.083   2.658 -0.1984 -0.1166 -0.2511
    1C        C  275   4.374   2.956   2.660 -0.1504 -0.1353 -0.1302
    1C        C  276   4.465   3.151   2.778 -0.4190 -0.2039 -0.1529
    1C        C  277   4.437   3.090   2.903  0.0694  0.0003  0.0575
    1C        C  278   4.500   3.291   3.022  0.2120 -0.0695 -0.0538
    1C        C  279   4.463   3.155   3.025  0.0320 -0.0168  0.0725
    1C        C  280   4.518   3.361   3.143 -0.2152  0.1262 -0.1017
    1C        C  281   4.492   3.297   3.266 -0.9160  0.2558 -0.1793
    1C        C  282   4.528   3.508   3.388  0.0457 -0.2196  0.1203
    1C        C  283   4.501   3.370   3.387  0.1679 -0.2416  0.0512
    1C        C  284   4.525   3.582   3.508 -0.6445 -0.1201  0.0448
    1C        C  285   4.526   3.514   3.632 -0.5890  0.0144  0.1178
    1C        C  286   4.492   3.725   3.750 -1.0081 -0.3215 -0.0571
    1C        C  287   4.520   3.586   3.753 -0.2722 -0.1693  0.2432
    1C        C  288   4.476   3.795   3.871  0.1616  0.0372 -0.1064
    1C        C  289   4.498   3.730   3.995  0.5097 -0.0019 -0.1863
    1C        C  290   4.431   3.934   4.115 -0.7697 -0.0515  0.0532
    1C        C  291   4.476   3.800   4.116  0.2228  0.2739 -0.3964
    1C        C  292   4.390   3.993   4.236 -0.3997 -0.0366  0.1681
    1C        C  293   4.415   3.928   4.359  0.4461 -0.1219 -0.0428
    1C        C  294   4.322   4.123   4.478  0.2040  0.0543 -0.2452
    1C        C  295   4.394   4.001   4.478 -0.0890 -0.1139 -0.1454
    1C        C  296   4.291   4.191   4.598  0.5833 -0.0272 -0.1046
    1C        C  297   4.339   4.139   4.720  0.2331  0.0715  0.0702
    1C        C  298   4.197   4.307   4.835  0.1747 -0.3094 -0.0146
    1C        C  299   4.290   4.198   4.840  0.3242 -0.1676  0.2211
    1C        C  300   4.166   4.391   4.947  0.5913 -0.1159 -0.0455
    1C        C  301   4.346   2.879   2.058  0.6583  0.0962 -0.2171
    1C        C  302   4.456   3.069   2.171  0.0425 -0.0779 -0.3847
    1C        C  303   4.388   2.943   2.176  0.2468 -0.1687  0.0776
    1C        C  304   4.470   3.143   2.292  0.2829 -0.2075 -0.3352
    1C        C  305   4.443   3.079   2.415  0.0861  0.1148 -0.2136
    1C        C  306   4.495   3.286   2.534  0.7057 -0.2080  0.2452
    1C        C  307   4.465   3.148   2.536  0.4209 -0.1494 -0.1271
    1C        C  308   4.508   3.357   2.656  0.0891 -0.0480  0.2153
    1C        C  309   4.497   3.288   2.778  0.0511 -0.3134  0.0621
    1C        C  310   4.528   3.500   2.897 -0.1383 -0.0512  0.1740
    1C        C  311   4.508   3.360   2.899  0.3607 -0.1293 -0.0764
    1C        C  312   4.530   3.569   3.020 -0.1548  0.3670 -0.0586
    1C        C  313   4.530   3.502   3.144  0.0855  0.1018 -0.2022
    1C        C  314   4.493   3.714   3.263 -0.1212 -0.3653  0.0446
    1C        C  315   4.522   3.576   3.264  0.0521 -0.3286  0.0617
    1C        C  316   4.483   3.790   3.381 -0.4777  0.1589 -0.3185
    1C        C  317   4.502   3.721   3.503 -0.6472 -0.1382 -0.4600
    1C        C  318   4.434   3.923   3.624  0.6532 -0.1232  0.0608
    1C        C  319   4.480   3.789   3.625 -0.4573 -0.5163 -0.2132
    1C        C  320   4.400   3.990   3.744  0.4984  0.0241 -0.0644
    1C        C  321   4.427   3.927   3.867  0.5580  0.1905  0.0072
    1C        C  322   4.314   4.104   3.988  0.3124  0.3338 -0.1764
    1C        C  323   4.394   3.988   3.990 -0.0070  0.1135 -0.1038
    1C        C  324   4.269   4.161   4.110 -0.0038 -0.1476 -0.0634
    1C        C  325   4.315   4.112   4.234 -0.6260 -0.1820  0.1518
    1C        C  326   4.179   4.276   4.350 -0.4841 -0.0840  0.0119
    1C        C  327   4.280   4.177   4.354  0.0896  0.5036 -0.0056
    1C        C  328   4.129   4.328   4.471 -0.0020 -0.1379  0.2311
    1C        C  329   4.188   4.287   4.592  0.0147 -0.6197  0.0585
    1C        C  330   4.025   4.431   4.710  0.5411  0.1297  0.0894
    1C        C  331   4.141   4.348   4.711  0.2810 -0.2321 -0.0343
    1C        C  332   3.963   4.474   4.829  0.1590  0.1866 -0.1336
    1C        C  333   4.045   4.461   4.941  0.5822 -0.1627 -0.4796
    1C        C  334   4.546   3.263   2.061 -0.7086 -0.2983  0.3886
    1C        C  335   4.534   3.123   2.064  0.1793 -0.4008 -0.4462
    1C        C  336   4.533   3.350   2.170 -0.4630  0.1785  0.0384
    1C        C  337   4.506   3.280   2.290 -0.0851 -0.1066 -0.0405
    1C        C  338   4.529   3.493   2.408  0.1926 -0.3850  0.0199
    1C        C  339   4.516   3.352   2.411  0.4309 -0.4042  0.0954
    1C        C  340   4.523   3.565   2.529 -0.4910 -0.3735 -0.0164
    1C        C  341   4.513   3.499   2.653 -0.1140 -0.0413  0.1945
    1C        C  342   4.508   3.711   2.774 -0.0780 -0.0267 -0.1997
    1C        C  343   4.518   3.570   2.775 -0.0060 -0.0219  0.1789
    1C        C  344   4.489   3.780   2.896  0.2569 -0.0201 -0.1482
    1C        C  345   4.500   3.707   3.016 -0.1151  0.3816  0.1363
    1C        C  346   4.415   3.902   3.137  0.1721  0.2239  0.2907
    1C        C  347   4.479   3.776   3.137  0.0836  0.1781  0.2888
    1C        C  348   4.390   3.976   3.254 -0.1581  0.3572  0.1399
    1C        C  349   4.430   3.920   3.378  0.1178  0.4186  0.0804
    1C        C  350   4.319   4.098   3.500  0.4991  0.2555 -0.0502
    1C        C  351   4.402   3.984   3.501  0.3693  0.1593  0.2720
    1C        C  352   4.273   4.155   3.621 -0.1263 -0.3608  0.0138
    1C        C  353   4.315   4.102   3.745  0.4351 -0.0227 -0.0291
    1C        C  354   4.169   4.258   3.863 -0.0437  0.0782 -0.0787
    1C        C  355   4.270   4.159   3.866 -0.3909 -0.2825 -0.2084
    1C        C  356   4.115   4.306   3.984 -0.5602 -0.4251 -0.1060
    1C        C  357   4.163   4.254   4.106 -0.2467 -0.4308 -0.2312
    1C        C  358   4.001   4.390   4.229  0.1875  0.1274  0.2023
    1C        C  359   4.115   4.307   4.228 -0.2287 -0.4490 -0.2168
    1C        C  360   3.945   4.435   4.350  0.0974  0.2215  0.1263
    1C        C  361   4.013   4.409   4.471  0.2147  0.1746  0.0493
    1C        C  362   3.823   4.506   4.592  0.1689 -0.2709  0.1689
    1C        C  363   3.954   4.456   4.591  0.1295 -0.3738  0.2252
    1C        C  364   3.757   4.538   4.713  0.0426  0.0347  0.0213
    1C        C  365   3.833   4.530   4.831  0.0597 -0.0516  0.0045
    1C        C  366   3.626   4.585   4.948  0.1902  0.5849 -0.1732
    1C        C  367   3.764   4.566   4.947  0.0579 -0.4556  0.1318
    1C        C  368   4.510   3.560   2.049  0.3016 -0.1392 -0.3968
    1C        C  369   4.527   3.491   2.169  0.0896  0.2032 -0.1667
    1C        C  370   4.505   3.706   2.288 -0.2206 -0.2965  0.3406
    1C        C  371   4.529   3.567   2.288  0.1599 -0.2325  0.1152
    1C        C  372   4.488   3.776   2.410  0.5391  0.3405  0.0829
    1C        C  373   4.505   3.705   2.530 -0.1875 -0.3321 -0.2063
    1C        C  374   4.427   3.903   2.651  0.7648  0.1422  0.1526
    1C        C  375   4.491   3.777   2.651  0.3125 -0.0900 -0.2891
    1C        C  376   4.388   3.965   2.772 -0.1902 -0.0271 -0.0597
    1C        C  377   4.430   3.909   2.895  0.2421 -0.0260 -0.2028
    1C        C  378   4.313   4.089   3.012  0.2158 -0.4097 -0.3433
    1C        C  379   4.389   3.970   3.015  0.6288 -0.1393 -0.0136
    1C        C  380   4.270   4.149   3.132  0.4326  0.0566 -0.4950
    1C        C  381   4.311   4.093   3.255  0.5365  0.8423 -0.1621
    1C        C  382   4.165   4.244   3.376 -0.0916 -0.1233 -0.4697
    1C        C  383   4.270   4.150   3.378  0.1639  0.1584  0.0384
    1C        C  384   4.114   4.298   3.497  0.2924 -0.6894 -0.0464
    1C        C  385   4.173   4.255   3.618 -0.2847 -0.5046  0.3093
    1C        C  386   3.999   4.378   3.741 -0.8669 -0.6010 -0.0478
    1C        C  387   4.114   4.296   3.739 -0.7947 -0.5076  0.0681
    1C        C  388   3.935   4.414   3.862 -0.4893 -0.3026  0.0698
    1C        C  389   3.999   4.386   3.984 -0.5340 -0.3852  0.0753
    1C        C  390   3.811   4.480   4.106  0.3030  0.2524  0.0062
    1C        C  391   3.942   4.429   4.106  0.3920  0.4760  0.2135
    1C        C  392   3.747   4.512   4.228  0.0601  0.1521 -0.0926
    1C        C  393   3.817   4.494   4.349 -0.0128 -0.0208 -0.0737
    1C        C  394   3.613   4.545   4.473  0.4579  0.5526  0.2303
    1C        C  395   3.753   4.526   4.471  0.4081  0.1691  0.1010
    1C        C  396   3.540   4.561   4.593  0.1230 -0.3430  0.1596
    1C        C  397   3.618   4.566   4.711  0.0138 -0.0812  0.2252
    1C        C  398   3.411   4.535   4.840 -0.1462 -0.1450 -0.2193
    1C        C  399   3.548   4.568   4.833 -0.1381 -0.0822  0.1409
    1C        C  400   3.338   4.514   4.958  0.4779 -0.4718  0.1187
    1C        C  401   4.501   3.699   2.051  0.3938 -0.1405  0.1669
    1C        C  402   4.449   3.913   2.165 -0.0141 -0.4319  0.1320
    1C        C  403   4.490   3.777   2.167  0.5917 -0.2504  0.2612
    1C        C  404   4.408   3.972   2.287 -0.2948  0.1160 -0.2242
    1C        C  405   4.434   3.907   2.409 -0.1294  0.0671 -0.2840
    1C        C  406   4.318   4.086   2.525 -0.3009 -0.5882 -0.5945
    1C        C  407   4.397   3.969   2.530 -0.4405 -0.6599 -0.0011
    1C        C  408   4.266   4.136   2.646  0.1523 -0.2906 -0.5199
    1C        C  409   4.307   4.080   2.769  0.3989  0.3894 -0.2858
    1C        C  410   4.161   4.235   2.889 -0.4410 -0.6617 -0.0254
    1C        C  411   4.267   4.142   2.890  0.0883 -0.0659 -0.1484
    1C        C  412   4.104   4.279   3.010 -0.6060 -0.7885 -0.0541
    1C        C  413   4.165   4.243   3.133 -0.0980 -0.5272 -0.2242
    1C        C  414   3.995   4.371   3.253 -0.6373 -0.6435  0.0793
    1C        C  415   4.110   4.289   3.254 -0.4885 -0.4571 -0.4216
    1C        C  416   3.934   4.409   3.374 -0.1326 -0.2739  0.2257
    1C        C  417   3.998   4.378   3.496  0.7399 -0.0327 -0.1562
    1C        C  418   3.813   4.479   3.616 -0.0841 -0.4142 -0.2171
    1C        C  419   3.939   4.416   3.619 -0.1912 -0.6480 -0.4044
    1C        C  420   3.744   4.500   3.737  0.2122 -0.5327 -0.0268
    1C        C  421   3.804   4.466   3.861 -0.5607 -0.4766  0.3679
    1C        C  422   3.607   4.533   3.984 -0.1939  0.2776 -0.2667
    1C        C  423   3.745   4.504   3.983 -0.1500  0.4530  0.2839
    1C        C  424   3.537   4.534   4.107  0.1103  0.6852 -0.0944
    1C        C  425   3.607   4.530   4.230  0.0637  0.1892 -0.0797
    1C        C  426   3.398   4.541   4.357  0.4797  0.3504 -0.1101
    1C        C  427   3.539   4.543   4.353  0.5023 -0.1677  0.2061
    1C        C  428   3.325   4.536   4.478  0.2813 -0.2035 -0.2450
    1C        C  429   3.400   4.546   4.597  0.0176  0.4547 -0.1277
    1C        C  430   3.193   4.516   4.724 -0.1381  0.1089  0.2884
    1C        C  431   3.334   4.534   4.722 -0.1226 -0.0167 -0.2406
    1C        C  432   3.122   4.495   4.845 -0.1583  0.5143  0.3516
    1C        C  433   3.200   4.494   4.961  0.3977  0.0223 -0.0209
    1C        C  434   4.384   4.126   2.057  0.3573 -0.2247  0.0371
    1C        C  435   4.444   4.000   2.055  0.2799 -0.2643  0.2504
    1C        C  436   4.299   4.160   2.167 -0.3001 -0.2150 -0.4675
    1C        C  437   4.330   4.090   2.287 -0.8193 -0.2254 -0.3388
    1C        C  438   4.172   4.242   2.402  0.0227  0.4760 -0.1317
    1C        C  439   4.277   4.147   2.405 -0.3701  0.0315 -0.2598
    1C        C  440   4.115   4.284   2.524  0.0455  0.0165  0.0387
    1C        C  441   4.162   4.232   2.646  0.2529 -0.1793 -0.1227
    1C        C  442   3.992   4.363   2.766  0.1408 -0.2153  0.2802
    1C        C  443   4.107   4.281   2.767 -0.0199 -0.4497 -0.1338
    1C        C  444   3.932   4.401   2.888 -0.3655  0.1449 -0.0759
    1C        C  445   3.992   4.364   3.010 -0.0021  0.0199 -0.2866
    1C        C  446   3.803   4.463   3.131  0.0570 -0.2747  0.1725
    1C        C  447   3.931   4.405   3.131  0.2339  0.1034 -0.1912
    1C        C  448   3.736   4.489   3.253  0.2063  0.0180  0.1961
    1C        C  449   3.803   4.461   3.374  0.0104  0.1052  0.3292
    1C        C  450   3.604   4.532   3.499 -0.3238  0.8968 -0.1236
    1C        C  451   3.742   4.499   3.495 -0.5319 -0.0334  0.1047
    1C        C  452   3.534   4.537   3.621 -0.0304 -0.2921  0.1077
    1C        C  453   3.607   4.530   3.741  0.3073 -0.0847 -0.0825
    1C        C  454   3.395   4.547   3.864 -0.1068  0.0893 -0.0515
    1C        C  455   3.536   4.545   3.863 -0.1084  0.0750 -0.3386
    1C        C  456   3.328   4.535   3.988  0.0976  0.2179  0.0741
    1C        C  457   3.396   4.534   4.112  0.1119  0.1975  0.0681
    1C        C  458   3.188   4.508   4.235  0.1270  0.1045  0.0777
    1C        C  459   3.327   4.529   4.235  0.2250 -0.5183  0.1089
    1C        C  460   3.118   4.495   4.357 -0.0059  0.7196  0.0752
    1C        C  461   3.186   4.517   4.479  0.2216  0.2220  0.0437
    1C        C  462   2.995   4.436   4.602  0.2882  0.2164 -0.0360
    1C        C  463   3.121   4.498   4.603  0.1534  0.4939  0.0533
    1C        C  464   2.931   4.400   4.723  0.3491  0.0233 -0.0565
    1C        C  465   2.987   4.445   4.846  0.1424 -0.3299  0.1710
    1C        C  466   2.799   4.337   4.958 -0.0969  0.0494 -0.0523
    1C        C  467   2.898   4.436   4.957 -0.1173  0.0725  0.0008
    1C        C  468   4.126   4.288   2.041 -0.0523 -0.3645 -0.1830
    1C        C  469   4.182   4.242   2.161 -0.2022 -0.0428  0.0109
    1C        C  470   3.992   4.355   2.277 -0.4416 -0.1456  0.2150
    1C        C  471   4.116   4.285   2.279 -0.1911  0.2855 -0.1000
    1C        C  472   3.937   4.395   2.401 -0.4151 -0.0931  0.2090
    1C        C  473   4.004   4.372   2.523 -0.1254 -0.1977  0.0305
    1C        C  474   3.807   4.458   2.643  0.3551 -0.0519  0.0944
    1C        C  475   3.939   4.407   2.643  0.3657 -0.0268  0.2483
    1C        C  476   3.740   4.486   2.764 -0.0428  0.1377 -0.1686
    1C        C  477   3.804   4.460   2.887 -0.4637 -0.0597  0.0138
    1C        C  478   3.601   4.521   3.010  0.0263  0.2335  0.2548
    1C        C  479   3.738   4.490   3.009 -0.0584 -0.1460  0.2581
    1C        C  480   3.531   4.537   3.131  0.0045  0.5868  0.1973
    1C        C  481   3.599   4.525   3.254  0.3188  0.4692  0.0121
    1C        C  482   3.392   4.537   3.378 -0.0423 -0.2755 -0.1117
    1C        C  483   3.533   4.541   3.377 -0.0726  1.0206 -0.2652
    1C        C  484   3.322   4.534   3.500  0.2323 -0.1990  0.0479
    1C        C  485   3.392   4.542   3.622 -0.0067  0.4363  0.1502
    1C        C  486   3.185   4.505   3.745 -0.2245 -0.2522 -0.0424
    1C        C  487   3.321   4.541   3.744 -0.2161 -0.2773  0.0287
    1C        C  488   3.121   4.482   3.869  0.1733 -0.4501  0.1281
    1C        C  489   3.190   4.504   3.990  0.1772 -0.1527  0.0750
    1C        C  490   2.995   4.424   4.115  0.0118  0.2968 -0.1925
    1C        C  491   3.121   4.487   4.112  0.1200  0.0995  0.0808
    1C        C  492   2.934   4.388   4.237  0.2159  0.5127 -0.0241
    1C        C  493   2.993   4.430   4.359  0.4709 -0.2159  0.1111
    1C        C  494   2.830   4.298   4.483  0.2428 -0.0743 -0.0386
    1C        C  495   2.935   4.391   4.482  0.4086 -0.2551  0.0731
    1C        C  496   2.783   4.245   4.605  0.2926  0.1135  0.0640
    1C        C  497   2.823   4.309   4.725  0.1285  0.2814  0.0327
    1C        C  498   2.676   4.155   4.847  0.4716 -0.3315 -0.2801
    1C        C  499   2.756   4.271   4.843  0.1853 -0.1221 -0.0616
    1C        C  500   2.595   4.115   4.954  0.3294 -0.2837 -0.3681
    1C        C  501   4.005   4.357   2.040  0.0788 -0.1333 -0.0858
    1C        C  502   3.813   4.465   2.155  0.1626 -0.1398  0.0095
    1C        C  503   3.937   4.398   2.155  0.2341 -0.0044 -0.0401
    1C        C  504   3.741   4.476   2.276 -0.0406  0.1512 -0.1352
    1C        C  505   3.807   4.451   2.398 -0.1645  0.4837 -0.0020
    1C        C  506   3.600   4.492   2.519  0.1689  0.4548 -0.0680
    1C        C  507   3.739   4.472   2.520  0.0932 -0.0624  0.2370
    1C        C  508   3.532   4.512   2.641  0.2322  0.8955 -0.1059
    1C        C  509   3.600   4.507   2.764  0.0596  0.8124 -0.0151
    1C        C  510   3.390   4.525   2.887  0.2202  0.5155 -0.0355
    1C        C  511   3.532   4.524   2.887  0.2192  0.2928  0.1474
    1C        C  512   3.320   4.524   3.009  0.0401 -0.0787 -0.1403
    1C        C  513   3.389   4.540   3.131 -0.0122 -0.1574 -0.1008
    1C        C  514   3.184   4.507   3.254 -0.1250  0.7463 -0.2541
    1C        C  515   3.322   4.537   3.255 -0.0569  0.4275 -0.1086
    1C        C  516   3.118   4.481   3.376  0.2841  0.4480 -0.0986
    1C        C  517   3.185   4.500   3.499  0.1186  0.2498  0.0238
    1C        C  518   2.996   4.412   3.624 -0.1527  0.0088 -0.2873
    1C        C  519   3.120   4.480   3.623 -0.1024 -0.0793 -0.1451
    1C        C  520   2.941   4.370   3.747 -0.3505  0.2096 -0.3046
    1C        C  521   3.003   4.404   3.869 -0.3118  0.2680 -0.3381
    1C        C  522   2.835   4.283   3.992 -0.1303  0.4356  0.0094
    1C        C  523   2.944   4.374   3.994 -0.0484  0.3459 -0.1900
    1C        C  524   2.785   4.237   4.115  0.2642 -0.1390 -0.0342
    1C        C  525   2.831   4.291   4.237  0.7771 -0.0934 -0.2451
    1C        C  526   2.698   4.131   4.361  0.6306  0.0474 -0.0118
    1C        C  527   2.781   4.245   4.361  0.6091  0.0661 -0.2496
    1C        C  528   2.657   4.075   4.484  0.5341 -0.1882 -0.1470
    1C        C  529   2.693   4.137   4.606  0.3890  0.0272 -0.2086
    1C        C  530   2.588   3.954   4.732 -0.0345 -0.0263 -0.2264
    1C        C  531   2.649   4.083   4.729  0.2529 -0.1603 -0.3360
    1C        C  532   2.540   3.898   4.853  0.1862 -0.0069 -0.1247
    1C        C  533   2.520   3.997   4.955 -0.7019  0.3571 -0.6405
    1C        C  534   3.614   4.549   2.040 -0.2452 -0.6646 -0.2657
    1C        C  535   3.748   4.508   2.038  0.0057  0.1137  0.1880
    1C        C  536   3.533   4.522   2.154  0.0956  0.1725  0.1814
    1C        C  537   3.601   4.497   2.277 -0.0068  0.3554  0.2716
    1C        C  538   3.387   4.517   2.399 -0.2275  0.1216  0.2877
    1C        C  539   3.528   4.503   2.398 -0.1967  0.4599  0.1505
    1C        C  540   3.318   4.512   2.522 -0.0536  0.2585  0.3864
    1C        C  541   3.391   4.518   2.643  0.2216  0.5111  0.2064
    1C        C  542   3.183   4.485   2.766  0.0965  0.1851  0.0496
    1C        C  543   3.320   4.518   2.765  0.0152  0.5159  0.0840
    1C        C  544   3.114   4.467   2.888  0.2942 -0.3397  0.0846
    1C        C  545   3.183   4.490   3.009  0.0158  0.0204  0.1719
    1C        C  546   2.997   4.401   3.136  0.0842 -0.5555 -0.4609
    1C        C  547   3.117   4.476   3.133 -0.3036  0.0901  0.0094
    1C        C  548   2.938   4.364   3.259  0.3814 -0.1082 -0.1831
    1C        C  549   2.998   4.408   3.379  0.5798 -0.0571 -0.2980
    1C        C  550   2.836   4.274   3.501  0.4193 -0.2046 -0.2409
    1C        C  551   2.938   4.371   3.502  0.1671  0.0664 -0.4599
    1C        C  552   2.791   4.222   3.624  0.7570 -0.5376 -0.2556
    1C        C  553   2.839   4.273   3.747  0.0059 -0.1730 -0.1078
    1C        C  554   2.705   4.116   3.874  0.0548  0.2617  0.0519
    1C        C  555   2.783   4.233   3.871 -0.1128  0.3775  0.0232
    1C        C  556   2.669   4.058   3.997  0.5474 -0.3105 -0.0638
    1C        C  557   2.708   4.119   4.118  0.3958 -0.2280 -0.0515
    1C        C  558   2.600   3.939   4.244  0.5365 -0.0857 -0.0380
    1C        C  559   2.667   4.063   4.241  0.7507 -0.1928  0.0891
    1C        C  560   2.573   3.878   4.368 -0.3022  0.0316 -0.1555
    1C        C  561   2.599   3.947   4.488  0.2970 -0.0895 -0.2106
    1C        C  562   2.532   3.747   4.611 -1.2340  0.3742  0.2537
    1C        C  563   2.569   3.884   4.611 -0.7707  0.2589 -0.2812
    1C        C  564   2.511   3.681   4.734 -0.2876 -0.3648  0.0346
    1C        C  565   2.520   3.756   4.854  0.8383 -0.1059 -0.1942
    1C        C  566   2.530   3.544   4.972  0.5106 -0.1836  0.1246
    1C        C  567   2.523   3.683   4.974 -0.0756 -0.2048 -0.2164
    1C        C  568   3.326   4.462   2.041  0.1588  0.4566  0.3461
    1C        C  569   3.392   4.506   2.157  0.0316  0.7598  0.3030
    1C        C  570   3.178   4.481   2.278 -0.0214  0.0024  0.1983
    1C        C  571   3.317   4.512   2.277 -0.1245  0.4590  0.2182
    1C        C  572   3.112   4.463   2.401  0.0029 -0.0714  0.1960
    1C        C  573   3.180   4.484   2.523 -0.0650  0.3185  0.1637
    1C        C  574   2.985   4.403   2.647  0.2232 -0.5199 -0.0544
    1C        C  575   3.112   4.464   2.646  0.0323 -0.1176  0.1430
    1C        C  576   2.927   4.366   2.770  0.1612 -0.1297  0.0318
    1C        C  577   2.987   4.407   2.891  0.1665 -0.0714  0.0072
    1C        C  578   2.824   4.276   3.013 -0.3580 -0.3602  0.3281
    1C        C  579   2.932   4.367   3.015 -0.2586 -0.4586 -0.3033
    1C        C  580   2.777   4.225   3.136 -0.3380 -0.1776  0.4120
    1C        C  581   2.829   4.275   3.258 -0.2321  0.6320  0.0406
    1C        C  582   2.691   4.117   3.382  0.1688 -0.1285 -0.1086
    1C        C  583   2.780   4.226   3.380 -0.1137  0.1041 -0.1214
    1C        C  584   2.662   4.055   3.506 -0.0952 -0.0265 -0.1170
    1C        C  585   2.702   4.113   3.628  0.2260 -0.1096 -0.1811
    1C        C  586   2.598   3.932   3.754  0.6724 -0.0991  0.2699
    1C        C  587   2.664   4.057   3.752  0.9541 -0.2474 -0.0127
    1C        C  588   2.568   3.871   3.878  0.7274 -0.4489  0.1160
    1C        C  589   2.596   3.937   3.999 -0.0103  0.0180  0.0433
    1C        C  590   2.535   3.737   4.125 -0.1180 -0.0291  0.4132
    1C        C  591   2.566   3.875   4.123  0.2682 -0.1162  0.0477
    1C        C  592   2.519   3.673   4.249 -1.0468  0.0460  0.3467
    1C        C  593   2.528   3.744   4.371 -0.6143  0.1381  0.2686
    1C        C  594   2.506   3.532   4.493  0.0564  0.1013 -0.0473
    1C        C  595   2.516   3.673   4.493 -0.5506  0.1515  0.2879
    1C        C  596   2.510   3.464   4.616 -0.0048 -0.2096 -0.2096
    1C        C  597   2.506   3.539   4.736 -0.9531 -0.3549 -0.1353
    1C        C  598   2.528   3.325   4.859 -0.3458  0.0344 -0.1641
    1C        C  599   2.519   3.466   4.857 -0.4037  0.0387  0.0541
    1C        C  600   2.520   3.245   4.974 -0.4926 -0.1803 -0.3201
    1C        C  601   3.189   4.445   2.042  0.1962  0.1463  0.2516
    1C        C  602   2.976   4.397   2.160  0.3160 -0.8778 -0.2681
    1C        C  603   3.110   4.446   2.158  0.1544 -0.4087  0.2238
    1C        C  604   2.920   4.361   2.286  0.1331  0.3323  0.0105
    1C        C  605   2.990   4.393   2.404  0.3772 -0.7282  0.1624
    1C        C  606   2.814   4.275   2.528  0.1731 -0.6670  0.1013
    1C        C  607   2.925   4.363   2.526  0.0305 -0.4913  0.0345
    1C        C  608   2.763   4.224   2.649  0.1419 -0.7425  0.0557
    1C        C  609   2.819   4.274   2.769  0.3443 -0.3380 -0.2085
    1C        C  610   2.694   4.107   2.894  0.2498  0.0428 -0.1287
    1C        C  611   2.776   4.222   2.892  0.0680  0.1723 -0.0874
    1C        C  612   2.656   4.051   3.018  0.4088 -0.3520 -0.2572
    1C        C  613   2.690   4.114   3.140 -0.1684 -0.3308 -0.1037
    1C        C  614   2.588   3.929   3.265  0.1443 -0.3173  0.2257
    1C        C  615   2.652   4.055   3.262  0.1166 -0.3081 -0.0006
    1C        C  616   2.565   3.866   3.389 -0.3081  0.3057  0.4680
    1C        C  617   2.603   3.927   3.511  0.0427 -0.0694  0.5522
    1C        C  618   2.536   3.728   3.635 -1.1572  0.1368 -0.1097
    1C        C  619   2.571   3.865   3.633 -0.3422 -0.0507  0.4649
    1C        C  620   2.527   3.663   3.760 -1.0189  0.3619  0.0217
    1C        C  621   2.531   3.735   3.881  0.0169 -0.2581  0.3727
    1C        C  622   2.509   3.526   4.003 -1.0816 -0.0570 -0.1260
    1C        C  623   2.518   3.667   4.004 -0.0737 -0.1120  0.4504
    1C        C  624   2.508   3.459   4.128 -0.4357 -0.0007 -0.0840
    1C        C  625   2.517   3.532   4.248 -0.3120  0.0293 -0.1049
    1C        C  626   2.535   3.321   4.374  0.6473  0.1763 -0.0842
    1C        C  627   2.517   3.461   4.371 -0.0940  0.0923 -0.0622
    1C        C  628   2.555   3.254   4.496  0.0412 -0.1875 -0.1748
    1C        C  629   2.535   3.325   4.617 -0.0045 -0.2158 -0.1585
    1C        C  630   2.595   3.121   4.741 -0.4786 -0.1630 -0.1032
    1C        C  631   2.545   3.254   4.738 -0.4848 -0.1589 -0.0754
    1C        C  632   2.615   3.049   4.862  0.5778  0.1075 -0.0959
    1C        C  633   2.549   3.108   4.975 -0.1157 -0.1032 -0.3789
    1C        C  634   2.780   4.303   2.052 -0.0026  0.3727  0.5518
    1C        C  635   2.888   4.392   2.047  0.4258 -0.1822 -0.3886
    1C        C  636   2.749   4.227   2.166 -0.2335 -0.0891  0.1852
    1C        C  637   2.805   4.277   2.285  0.3097  0.0919 -0.1417
    1C        C  638   2.684   4.106   2.406 -0.1737  0.3107 -0.0712
    1C        C  639   2.759   4.225   2.408  0.0741  0.1585 -0.2015
    1C        C  640   2.642   4.050   2.529 -0.5329 -0.2392 -0.4395
    1C        C  641   2.678   4.111   2.651 -0.0158 -0.6303 -0.3919
    1C        C  642   2.593   3.919   2.774  0.0061 -0.0670  0.0179
    1C        C  643   2.647   4.050   2.774  0.4878 -0.2649 -0.0771
    1C        C  644   2.571   3.857   2.899 -0.0915 -0.2181 -0.0737
    1C        C  645   2.592   3.925   3.021  0.5484 -0.4195 -0.0720
    1C        C  646   2.539   3.721   3.146 -0.0042  0.0783  0.4403
    1C        C  647   2.566   3.860   3.144 -0.2934  0.1296  0.0476
    1C        C  648   2.526   3.655   3.269 -0.3679 -0.2200  0.2432
    1C        C  649   2.531   3.729   3.390 -0.5088  0.3497 -0.0951
    1C        C  650   2.514   3.518   3.515 -1.2811  0.2502  0.0982
    1C        C  651   2.521   3.659   3.512 -0.9170  0.2279 -0.1934
    1C        C  652   2.522   3.451   3.639 -0.5790  0.2785  0.0726
    1C        C  653   2.522   3.522   3.762 -1.0973  0.3611  0.0296
    1C        C  654   2.531   3.312   3.885 -0.1161  0.1342 -0.0423
    1C        C  655   2.510   3.451   3.883 -1.0409  0.0031 -0.1678
    1C        C  656   2.546   3.247   4.010 -0.0177 -0.0614 -0.1499
    1C        C  657   2.533   3.320   4.130 -0.2534  0.0240 -0.2218
    1C        C  658   2.605   3.121   4.255  0.4944  0.3281 -0.0723
    1C        C  659   2.556   3.253   4.252  0.0460  0.1684 -0.1936
    1C        C  660   2.633   3.054   4.377  0.2743  0.4088  0.0306
    1C        C  661   2.608   3.123   4.498 -0.3566 -0.3531  0.3504
    1C        C  662   2.705   2.937   4.623  0.3478 -0.3136 -0.1653
    1C        C  663   2.633   3.058   4.620  0.0828 -0.4559  0.2141
    1C        C  664   2.747   2.873   4.742  0.3598 -0.0886 -0.0446
    1C        C  665   2.690   2.927   4.860 -0.1518 -0.3521 -0.1648
    1C        C  666   2.733   2.864   4.977  0.2558 -0.5278 -0.4066
    1C        C  667   2.686   4.018   2.052  0.8679 -0.4981  0.2712
    1C        C  668   2.689   4.099   2.166 -0.3753 -0.0247 -0.0169
    1C        C  669   2.591   3.910   2.289 -0.1365 -0.0649 -0.3545
    1C        C  670   2.647   4.040   2.287  0.1205 -0.1635  0.0922
    1C        C  671   2.564   3.846   2.412 -0.0440  0.0208 -0.2888
    1C        C  672   2.591   3.918   2.531 -0.8664 -0.1087 -0.0182
    1C        C  673   2.532   3.715   2.660 -0.3741 -0.0573  0.5577
    1C        C  674   2.568   3.851   2.653 -0.3100 -0.0965  0.0997
    1C        C  675   2.521   3.647   2.783 -0.2630 -0.2731  0.4495
    1C        C  676   2.532   3.722   2.903 -0.0285 -0.2237  0.3971
    1C        C  677   2.513   3.511   3.024 -0.1299  0.0051 -0.3178
    1C        C  678   2.518   3.652   3.025 -0.1854  0.0101  0.5119
    1C        C  679   2.508   3.444   3.149 -0.0150  0.3004 -0.1546
    1C        C  680   2.507   3.515   3.271 -0.3478 -0.2238  0.1520
    1C        C  681   2.537   3.307   3.398  0.4656  0.0987  0.0772
    1C        C  682   2.515   3.446   3.394 -0.5144 -0.0377  0.2688
    1C        C  683   2.550   3.238   3.521 -0.0753  0.1171  0.1501
    1C        C  684   2.530   3.310   3.641 -0.7756  0.2633 -0.0478
    1C        C  685   2.595   3.111   3.767  0.2307  0.1613 -0.0629
    1C        C  686   2.540   3.241   3.763  0.6196  0.3290 -0.1096
    1C        C  687   2.629   3.050   3.890  0.0090 -0.1000 -0.1251
    1C        C  688   2.600   3.117   4.012  0.5308  0.1564 -0.1342
    1C        C  689   2.712   2.938   4.134  0.3701  0.1972 -0.3728
    1C        C  690   2.631   3.054   4.134  0.4742  0.2752 -0.0539
    1C        C  691   2.750   2.878   4.256  0.2643  0.6599 -0.1051
    1C        C  692   2.709   2.935   4.378  0.4964  0.5448  0.0326
    1C        C  693   2.749   2.879   4.501  0.3464 -0.1767 -0.2369
    1C        C  694   2.631   3.889   2.054 -0.2537 -0.0339 -0.1095
    1C        C  695   2.529   3.703   2.175  0.1851 -0.3941 -0.0789
    1C        C  696   2.570   3.838   2.169 -0.2686 -0.2607 -0.2159
    1C        C  697   2.513   3.635   2.297  0.1696 -0.1015  0.0857
    1C        C  698   2.527   3.710   2.416  0.1502 -0.0256  0.0417
    1C        C  699   2.499   3.504   2.541 -0.3746  0.5509 -0.1356
    1C        C  700   2.511   3.644   2.539 -0.8893  0.6036  0.2541
    1C        C  701   2.512   3.432   2.662  0.1901  0.0536 -0.4852
    1C        C  702   2.515   3.506   2.782  0.4345 -0.3054 -0.2669
    1C        C  703   2.538   3.296   2.908  0.1631 -0.2152 -0.2060
    1C        C  704   2.518   3.436   2.905  0.5118 -0.1644 -0.1890
    1C        C  705   2.553   3.233   3.033  0.4012  0.2364 -0.0038
    1C        C  706   2.537   3.306   3.153  0.3498  0.3779 -0.0977
    1C        C  707   2.605   3.108   3.278  0.3546  0.4815 -0.2301
    1C        C  708   2.553   3.239   3.276 -0.4011  0.1888 -0.0957
    1C        C  709   2.634   3.045   3.401 -0.1693  0.0278 -0.3332
    1C        C  710   2.605   3.108   3.524  0.1366  0.1905 -0.3408
    1C        C  711   2.701   2.923   3.647  0.8514  0.7982 -0.4321
    1C        C  712   2.632   3.046   3.648  0.1296  0.4011 -0.2300
    1C        C  713   2.747   2.873   3.770 -0.0209  0.0831 -0.3824
    1C        C  714   2.706   2.932   3.892  0.4443  0.1763 -0.2637
    1C        C  715   2.754   2.878   4.013  0.5384  0.1611 -0.3025
    1C        C  716   2.447   3.500   2.064  0.1104  0.7301 -0.1696
    1C        C  717   2.487   3.634   2.061  0.1390  0.7122 -0.7410
    1C        C  718   2.471   3.421   2.181 -0.7598  0.5103 -0.1310
    1C        C  719   2.488   3.495   2.302 -0.5066  0.0138  0.1397
    1C        C  720   2.511   3.287   2.424  0.3368  0.0478 -0.4949
    1C        C  721   2.485   3.425   2.425  0.1219  0.0092  0.1593
    1C        C  722   2.535   3.217   2.544 -0.7913 -0.0999 -0.3488
    1C        C  723   2.536   3.293   2.663 -0.1344 -0.0014 -0.4145
    1C        C  724   2.597   3.092   2.789 -0.2627  0.0235 -0.2558
    1C        C  725   2.554   3.227   2.787 -0.5766 -0.0782 -0.3881
    1C        C  726   2.625   3.030   2.913  0.6108  0.7143 -0.0982
    1C        C  727   2.599   3.099   3.033  0.4375  0.2491  0.1326
    1C        C  728   2.704   2.919   3.159  0.0261 -0.1858 -0.2290
    1C        C  729   2.629   3.038   3.157  0.2864 -0.0175  0.0395
    1C        C  730   2.753   2.867   3.281  0.6985  0.7261 -0.1066
    1C        C  731   2.709   2.926   3.401  0.2265  0.2715 -0.0578
    1C        C  732   2.745   2.867   3.525  0.3015 -0.0820 -0.2426
    1C        C  733   2.490   3.193   2.075  0.1685 -0.0242  0.5322
    1C        C  734   2.495   3.280   2.184 -0.8910  0.4925  0.1914
    1C        C  735   2.586   3.082   2.304  0.3052 -0.0555  0.0609
    1C        C  736   2.530   3.213   2.305  0.2679 -0.0647 -0.4391
    1C        C  737   2.609   3.015   2.426 -0.4078 -0.2134  0.1115
    1C        C  738   2.584   3.085   2.546 -0.0980  0.1610 -0.0402
    1C        C  739   2.700   2.909   2.668 -0.2333 -0.2174 -0.0054
    1C        C  740   2.615   3.021   2.669 -0.0260 -0.0580 -0.1724
    1C        C  741   2.741   2.853   2.791  0.0574  0.2978  0.1320
    1C        C  742   2.693   2.907   2.912 -0.1484  0.2900  0.0514
    1C        C  743   2.740   2.859   3.036  0.1574 -0.1224 -0.2213
    1C        C  744   2.549   3.068   2.070 -0.4212 -0.2887 -0.0205
    1C        C  745   2.690   2.896   2.185  0.0789  0.1175 -0.1217
    1C        C  746   2.610   3.013   2.184 -0.1701 -0.0507 -0.0409
    1C        C  747   2.739   2.842   2.306 -0.0571  0.1065 -0.0724
    1C        C  748   2.687   2.898   2.425 -0.2988 -0.1385 -0.0634
    1C        C  749   2.731   2.842   2.547 -0.2515 -0.1087 -0.0681
    1C        C  750   2.733   2.832   2.068 -0.2708 -0.0578 -0.1561
    1C        C  751   3.671   2.345   1.966  0.3889  0.0115 -0.3563
    1C        O  752   3.715   2.230   1.990 -0.4141 -0.2320  0.0048
    1C        O  753   3.634   2.384   1.836  0.0908 -0.0712 -0.2993
    1C        C  754   4.661   3.054   2.033  0.6737  0.2865  0.0328
    1C        O  755   4.688   3.021   1.915 -0.7152  0.2499 -0.2851
    1C        O  756   4.755   2.996   2.119  0.2090 -0.4044  0.0847
    1C        C  757   4.453   4.227   1.973  0.0215  0.1981  0.2615
    1C        O  758   4.535   4.307   2.025  0.3271  0.3669 -0.4678
    1C        O  759   4.435   4.251   1.836  0.1641 -0.1131  0.1848
    1C        C  760   3.577   4.663   1.953 -0.4143  0.0002  0.6766
    1C        O  761   3.628   4.778   1.948  0.6993 -0.5274 -0.4438
    1C        O  762   3.499   4.649   1.838 -0.0144  0.0117  0.4059
    1C        C  763   2.859   4.506   1.957 -0.0810  0.3333  0.4166
    1C        O  764   2.912   4.494   1.844  0.1310 -0.4469  0.5943
    1C        O  765   2.827   4.635   1.999 -0.3287  0.2933  0.3513
    1C        C  766   2.359   3.469   1.949 -0.0237 -0.0283  0.1348
    1C        O  767   2.395   3.480   1.829 -0.1557  0.4252  0.1361
    1C        O  768   2.221   3.447   1.951 -0.0998  0.4010 -0.3300
    1C        C  769   4.696   3.586   5.051  0.1338 -0.4941 -0.1576
    1C        O  770   4.673   3.599   5.174 -0.8248  0.0315 -0.3845
    1C        O  771   4.825   3.626   5.016  0.1223 -0.5427 -0.2556
    1C        C  772   4.264   4.434   5.049 -0.4268  1.1872  0.4047
    1C        O  773   4.258   4.389   5.166 -0.3815 -0.1328 -0.0862
    1C        O  774   4.355   4.539   5.031  0.8172  0.1457  0.4746
    1C        C  775   4.161   2.480   5.029  0.2142  0.0130  0.2209
    1C        O  776   4.265   2.441   4.970 -0.1450 -0.7312  0.0683
    1C        O  777   4.201   2.478   5.163  0.2146 -0.2220  0.2185
    1C        C  778   2.859   4.566   5.016  0.4144  0.2164  0.0426
    1C        O  779   2.791   4.654   4.957 -0.1335  0.1528  0.5667
    1C        O  780   2.877   4.584   5.154 -0.2439 -0.1916  0.1847
    1C        C  781   2.460   3.042   5.073  0.1685 -0.3872 -0.3066
    1C        O  782   2.340   3.020   5.041  0.2770 -0.6672 -0.5272
    1C        O  783   2.512   2.994   5.192 -0.3652 -1.1681 -0.3833
    1C        C  784   2.384   4.014   5.011 -0.4586  0.3861 -0.0491
    1C        O  785   2.286   4.070   4.954 -0.4999 -0.2038 -0.5633
    1C        O  786   2.362   3.994   5.148 -0.0625  0.4233  0.0196
    1C        C  787   2.950   2.421   2.002 -0.6421 -0.1293  0.1907
    1C        O  788   2.929   2.460   1.884 -0.3314 -0.2479  0.0954
    1C        O  789   2.942   2.286   2.031 -0.5696 -0.1918 -0.0733
    1C        C  790   3.162   2.349   5.024 -0.3690 -0.0339  0.1724
    1C        O  791   3.137   2.246   4.956  0.5593 -0.0137 -0.2119
    1C        O  792   3.206   2.322   5.154  0.5194 -0.1992 -0.1566
    1C        H  793   4.250   3.030   5.052  1.1132  0.2362  0.0925
    1C        H  794   4.183   2.810   5.075  0.6440  0.2772  0.5324
    1C        H  795   4.490   3.141   5.063  1.3651 -0.2370 -0.6749
    1C        H  796   4.532   3.369   5.066 -0.2862 -1.6663  1.0926
    1C        H  797   4.503   3.781   5.052  0.3000 -0.1224  0.1731
    1C        H  798   4.451   3.990   5.045 -1.4527 -1.2240 -0.4310
    1C        H  799   4.244   4.132   5.031 -1.0979  0.2654 -0.7266
    1C        H  800   4.035   4.539   5.014  1.9404  1.2627 -1.7685
    1C        H  801   3.819   4.594   5.034  1.3159 -0.1847 -0.7286
    1C        H  802   3.580   4.573   5.045  2.3570  5.0096  1.6640
    1C        H  803   3.387   4.488   5.049  0.7871 -0.7628 -0.1325
    1C        H  804   3.155   4.470   5.055  0.4696 -0.4333 -0.0972
    1C        H  805   3.882   2.526   5.073  0.3669  1.8402  0.0012
    1C        H  806   3.671   2.498   5.078  0.0296  1.8478 -0.7379
    1C        H  807   3.020   2.590   5.071 -0.4121  0.3385 -0.5353
    1C        H  808   3.446   2.411   5.057 -0.8844 -0.4689 -0.2571
    1C        H  809   2.897   2.782   5.068 -1.2508  0.5628  1.3327
    1C        H  810   2.669   2.848   5.062  1.4739  1.3378  0.9494
    1C        H  811   2.442   3.276   5.041  0.8200  0.0842  1.1307
    1C        H  812   2.517   3.500   5.069  1.8625  1.1003  0.9484
    1C        H  813   2.490   3.730   5.064 -0.4925  0.3645 -0.6567
    1C        H  814   2.570   4.189   5.027  2.0032 -0.9177  0.9043
    1C        H  815   2.788   4.290   5.054  0.2530  1.9266  0.9691
    1C        H  816   2.686   2.850   1.974 -0.1885  0.2739 -0.1347
    1C        H  817   2.865   2.696   1.975  0.4834  0.3487  0.1469
    1C        H  818   3.225   2.509   1.991 -0.6582 -0.1412  0.1825
    1C        H  819   3.434   2.466   1.978  1.5710 -0.1025 -0.6319
    1C        H  820   3.850   2.536   1.967  2.6307  0.9199 -1.6994
    1C        H  821   4.086   2.553   1.990  0.1154 -0.3905  0.6571
    1C        H  822   4.271   2.699   1.983  1.0554  1.0319 -0.8195
    1C        H  823   4.367   2.927   1.965 -1.6414  0.7195 -0.4912
    1C        H  824   4.563   3.310   1.967 -0.0751 -0.9339  0.1760
    1C        H  825   4.529   3.515   1.954  0.0151 -0.1893 -0.4322
    1C        H  826   4.509   3.748   1.956 -1.7078  1.6758  0.8446
    1C        H  827   3.806   4.539   1.954 -0.7703 -0.0512 -0.4195
    1C        H  828   3.946   4.323   1.958  1.0464  0.4448 -1.0530
    1C        H  829   4.169   4.263   1.946  0.8989  1.1476 -0.1815
    1C        H  830   4.491   3.972   1.963  0.5437 -0.7817  0.5343
    1C        H  831   2.674   3.819   1.985 -0.8577  0.9379 -1.5285
    1C        H  832   2.766   4.024   1.981  0.2397 -1.3226 -0.5317
    1C        H  833   2.741   4.269   1.958  2.3424  0.7790 -0.6459
    1C        H  834   3.382   4.452   1.950  2.1998 -0.4001  1.6149
    1C        H  835   3.135   4.453   1.950 -0.0423 -1.5594  0.2241
    1C        H  836   2.529   3.010   1.982 -2.3225 -0.1164  0.2540
    1C        H  837   2.397   3.192   2.021  0.4010 -1.5382  0.1227
    1C        H  838   2.453   3.689   1.975 -2.1766  0.5445 -0.0021
    2V3OU   H29  839   2.812   3.555   0.571 -0.2019  0.8918  0.6777
    2V3OU   C27  840   2.793   3.498   0.666 -0.0819 -0.4492 -0.0695
    2V3OU   H27  841   2.743   3.566   0.739 -0.4476  2.3709 -2.7018
    2V3OU   H28  842   2.738   3.402   0.654 -0.0520 -0.6569  1.3006
    2V3OU   O11  843   2.917   3.458   0.724  0.0771  0.1133 -0.0150
    2V3OU   C15  844   2.918   3.387   0.843  0.0325  0.1390  0.0013
    2V3OU   C13  845   3.047   3.370   0.896  0.2151 -0.0550 -0.4985
    2V3OU   C14  846   3.074   3.265   0.984  0.0995  0.1121 -0.2601
    2V3OU   C16  847   2.970   3.188   1.034 -0.0585  0.4422 -0.0801
    2V3OU    H6  848   2.991   3.091   1.081 -0.6939  0.4630  0.2680
    2V3OU   C12  849   3.208   3.230   1.037  0.0422  0.1844 -0.0649
    2V3OU    O2  850   3.228   3.133   1.113  0.1407  0.2727  0.0224
    2V3OU   C10  851   3.318   3.307   0.978  0.2753 -0.4020 -0.4177
    2V3OU    C8  852   3.450   3.267   0.997  0.2525 -0.6554 -0.7949
    2V3OU   O10  853   3.473   3.148   1.058 -0.3343 -0.2825  0.1692
    2V3OU   H26  854   3.389   3.101   1.067  0.2555 -1.1971  1.2796
    2V3OU    C6  855   3.564   3.341   0.955  0.3796 -0.8722 -0.8390
    2V3OU    C5  856   3.538   3.467   0.903 -0.1727 -0.4064  0.5217
    2V3OU    C4  857   3.705   3.292   0.951  0.6170 -0.2105 -0.8016
    2V3OU    H4  858   3.718   3.218   1.036  0.0956 -0.0165 -0.5482
    2V3OU    H5  859   3.719   3.229   0.858 -0.3906  0.7489 -1.6244
    2V3OU    C2  860   3.814   3.398   0.963  0.0813  0.2499  0.1784
    2V3OU    O6  861   3.802   3.468   1.087  0.2355 -0.3139  0.5165
    2V3OU   H21  862   3.756   3.551   1.064  1.2967  0.6451  1.6776
    2V3OU    C3  863   3.784   3.501   0.855 -0.7179 -0.0600  0.1006
    2V3OU    H2  864   3.863   3.581   0.858 -2.1134  1.3315  1.7514
    2V3OU    H3  865   3.789   3.446   0.757  0.1254 -0.4586  0.3637
    2V3OU   C25  866   3.950   3.330   0.943 -0.0545  0.0500 -0.0626
    2V3OU    O7  867   3.989   3.292   0.832  0.2056  0.6093 -0.1630
    2V3OU   C26  868   4.025   3.287   1.068 -0.2663 -0.3777 -0.0799
    2V3OU   H22  869   4.061   3.381   1.117  1.0194 -0.9500  0.1098
    2V3OU   H23  870   4.116   3.228   1.039 -0.0923 -0.1959  0.0936
    2V3OU    O8  871   3.957   3.203   1.159 -0.6748 -0.3894 -0.3915
    2V3OU   H24  872   3.926   3.254   1.235 -0.1317  1.7031 -1.4830
    2V3OU    C1  873   3.648   3.566   0.876 -0.5713  0.0772  0.6379
    2V3OU    H1  874   3.627   3.625   0.782  0.2481 -0.4378  0.1215
    2V3OU    O3  875   3.662   3.650   0.990  0.5626 -0.4222  0.8859
    2V3OU   C19  876   3.615   3.786   0.986  0.5665 -0.4300  0.5910
    2V3OU    H9  877   3.518   3.796   0.930  0.6740 -0.3036  0.4262
    2V3OU    O4  878   3.706   3.851   0.901 -0.4456  0.1644 -0.0505
    2V3OU   C20  879   3.841   3.875   0.943 -0.3253  0.0574 -0.3712
    2V3OU   H10  880   3.899   3.780   0.959 -1.3090 -0.5773 -0.5284
    2V3OU   C24  881   3.615   3.855   1.122  0.2320 -0.1411  0.4456
    2V3OU   H16  882   3.550   3.796   1.192 -0.0023  0.5929  0.8598
    2V3OU   H17  883   3.567   3.955   1.109  0.4695 -0.0621  0.1597
    2V3OU   C23  884   3.756   3.874   1.181  0.3324 -0.2461  0.2376
    2V3OU   H15  885   3.800   3.770   1.197  2.8541  0.7594  0.2034
    2V3OU    N1  886   3.729   3.958   1.296  0.7441  0.2377 -0.0161
    2V3OU   H19  887   3.804   3.930   1.357 -0.4122 -1.1800  0.8301
    2V3OU   H20  888   3.653   3.923   1.351  0.2529 -0.7391 -1.2700
    2V3OU   C21  889   3.849   3.946   1.078 -0.4906  0.0145 -0.3390
    2V3OU   H11  890   3.954   3.928   1.116 -0.9196  0.0261  0.9282
    2V3OU    O5  891   3.822   4.085   1.079 -0.2503  0.0595 -0.1057
    2V3OU   H18  892   3.779   4.110   1.162  1.3949 -0.0102  0.8191
    2V3OU   C22  893   3.909   3.956   0.834 -0.3064  0.7201  0.1214
    2V3OU   H12  894   3.861   4.056   0.826  0.4396  1.1538  0.9022
    2V3OU   H13  895   3.907   3.896   0.739 -0.8058 -0.2531  0.7348
    2V3OU   H14  896   4.018   3.962   0.860 -0.0757 -2.7704  0.4482
    2V3OU   C11  897   3.153   3.470   0.878  0.0838  0.1624 -0.0662
    2V3OU    O1  898   3.130   3.588   0.844 -0.0379  0.0569 -0.3562
    2V3OU    C9  899   3.292   3.426   0.904 -0.0234  0.2465  0.6946
    2V3OU    C7  900   3.403   3.504   0.873  0.0078  0.0148  0.2024
    2V3OU    O9  901   3.387   3.619   0.798  0.1734 -0.4972 -0.6338
    2V3OU   H25  902   3.292   3.627   0.780 -0.0669  0.3457  0.7973
    2V3OU   C17  903   2.813   3.310   0.899  0.3137 -0.1549  0.1266
    2V3OU    H7  904   2.712   3.342   0.874  0.3316 -1.9566 -2.6784
    2V3OU   C18  905   2.839   3.216   0.998 -0.2902 -0.1784  0.2621
    2V3OU    H8  906   2.759   3.163   1.052 -0.4001 -0.6555 -0.3544
    3SOL     OW  907   5.038   3.449   2.285 -0.2665  0.6418 -0.5321
    3SOL    HW1  908   5.127   3.487   2.261  0.9436 -1.4840  0.2678
    3SOL    HW2  909   4.966   3.495   2.233  1.1283  3.2743 -0.2973
    4SOL     OW  910   3.590   6.421   5.351  0.0099 -0.0044 -0.3466
    4SOL    HW1  911   3.685   6.430   5.320  0.8898 -0.1749  2.0512
    4SOL    HW2  912   3.560   6.327   5.339  0.5012 -0.1822 -0.2070
    5SOL     OW  913   1.434   3.335   1.763  0.2281 -0.1345 -0.0629
    5SOL    HW1  914   1.416   3.406   1.830  0.5927  1.4947 -1.6084
    5SOL    HW2  915   1.368   3.260   1.774  0.1290  0.1841  1.8956
    6SOL     OW  916   3.624   0.766   2.839  0.0201  0.2786  0.0576
    6SOL    HW1  917   3.526   0.787   2.841  0.0286  0.5456 -1.4072
    6SOL    HW2  918   3.669   0.810   2.917 -0.9666  0.4412  0.5528
    7SOL     OW  919   5.941   0.585   1.032  0.0223 -0.0488  0.2387
    7SOL    HW1  920   5.956   0.552   1.125 -1.9071  2.8908  1.7373
    7SOL    HW2  921   6.030   0.598   0.987  1.1794  0.7899  2.5837
    8SOL     OW  922   4.531   3.750   0.274  0.0097  0.7377 -0.4932
    8SOL    HW1  923   4.605   3.684   0.281 -1.0801 -0.4834 -0.1928
    8SOL    HW2  924   4.459   3.728   0.340 -0.0395  2.7030  0.1922
    9SOL     OW  925   4.938   4.190   5.375 -0.4612 -0.3384  0.1617
    9SOL    HW1  926   4.972   4.154   5.462 -0.0518 -0.8606 -0.2011
    9SOL    HW2  927   4.838   4.188   5.374 -0.4770 -2.4792 -0.2132
   10SOL     OW  928   5.022   1.011   5.621 -0.3159  0.2070 -0.6326
   10SOL    HW1  929   5.096   1.004   5.554 -0.3549 -0.4039 -0.6199
   10SOL    HW2  930   4.946   0.953   5.592 -0.9322  1.0965 -0.8249
   11SOL     OW  931   6.075   1.772   1.459 -1.0765 -0.2646  0.8297
   11SOL    HW1  932   6.028   1.809   1.380 -1.5323 -3.1123 -0.3412
   11SOL    HW2  933   6.173   1.791   1.452 -1.3639  1.2626  0.6777
   12SOL     OW  934   2.244   0.949   2.306  0.3404  0.1651  0.8299
   12SOL    HW1  935   2.230   0.867   2.251 -0.4277  0.0804  1.1395
   12SOL    HW2  936   2.294   1.017   2.253 -0.0183 -0.0752  0.1771
   13SOL     OW  937   5.431   0.181   0.386  0.2969  0.0521  0.0363
   13SOL    HW1  938   5.451   0.220   0.296  1.4709  0.0394  0.2852
   13SOL    HW2  939   5.347   0.223   0.422  1.1369  1.8816 -0.0099
   14SOL     OW  940   0.378   1.037   4.979  0.0002 -0.0278  0.4003
   14SOL    HW1  941   0.320   0.959   4.952  0.0719 -0.7899  2.2723
   14SOL    HW2  942   0.321   1.109   5.018 -0.0637  0.9040 -1.3248
   15SOL     OW  943   5.074   5.576   4.780 -0.3325 -0.2561 -0.3444
   15SOL    HW1  944   5.093   5.516   4.702  0.5793 -1.4435  0.7444
   15SOL    HW2  945   4.976   5.573   4.802 -0.8008  0.9323 -2.0690
   16SOL     OW  946   6.191   4.785   2.909  0.3161  0.0437 -0.1818
   16SOL    HW1  947   6.116   4.818   2.851  1.3498  1.8142 -0.5899
   16SOL    HW2  948   6.157   4.714   2.970 -1.5869  0.4903 -0.6604
   17SOL     OW  949   0.986   2.532   4.368 -0.2605  0.0781  1.0594
   17SOL    HW1  950   1.012   2.589   4.290 -1.1818 -0.3359  0.4301
   17SOL    HW2  951   1.068   2.508   4.421  0.6768 -1.3533 -0.9493
   18SOL     OW  952   4.550   4.989   0.085  0.0251  0.0383  0.0632
   18SOL    HW1  953   4.481   5.053   0.052  0.4737  1.5142  1.8230
   18SOL    HW2  954   4.627   4.987   0.022  0.1072  1.4639  0.0760
   19SOL     OW  955   4.634   4.900   6.853 -0.0073 -0.7220 -0.5539
   19SOL    HW1  956   4.590   4.964   6.791 -0.2716  0.7429  1.0810
   19SOL    HW2  957   4.569   4.827   6.877 -1.5374  1.2112  1.5465
   20SOL     OW  958   3.359   6.333   6.436  0.3621  0.0417  0.1610
   20SOL    HW1  959   3.329   6.282   6.516 -1.4194 -1.7613 -1.5465
   20SOL    HW2  960   3.292   6.404   6.415 -0.0181 -0.5283 -0.6085
   21SOL     OW  961   5.342   5.807   2.461  0.3970  0.4885 -0.1083
   21SOL    HW1  962   5.289   5.891   2.446  3.7434  3.1808  1.6040
   21SOL    HW2  963   5.286   5.741   2.511 -1.7020  2.6251  0.5632
   22SOL     OW  964   0.959   2.456   3.483 -0.2633 -0.2346 -0.4741
   22SOL    HW1  965   0.932   2.538   3.533  0.1237 -0.5775  0.3058
   22SOL    HW2  966   1.019   2.400   3.540 -0.1803 -0.8539 -1.1559
   23SOL     OW  967   2.627   5.187   4.536 -0.3828  0.2759  0.7040
   23SOL    HW1  968   2.606   5.284   4.547  2.1751  0.9556  0.2581
   23SOL    HW2  969   2.618   5.141   4.625  1.0237  1.5442  1.5531
   24SOL     OW  970   4.891   5.115   1.655  0.1058  0.5429  0.1984
   24SOL    HW1  971   4.792   5.131   1.658  0.5636  4.1040 -0.2060
   24SOL    HW2  972   4.926   5.140   1.565  1.4258 -0.5988  0.3670
   25SOL     OW  973   1.407   3.918   4.418 -0.0016  0.2034  0.9140
   25SOL    HW1  974   1.496   3.897   4.458 -0.3229 -1.0404  1.0036
   25SOL    HW2  975   1.352   3.835   4.412 -0.9087  0.8272  0.2255
   26SOL     OW  976   6.747   3.445   5.315 -0.1240  0.2524  0.3974
   26SOL    HW1  977   6.793   3.410   5.233 -1.1191 -1.4294  0.4975
   26SOL    HW2  978   6.810   3.441   5.393 -0.1406 -1.2507  0.3687
   27SOL     OW  979   0.167   0.454   2.648  0.4511 -0.1518 -0.1155
   27SOL    HW1  980   0.165   0.541   2.599  1.5440  0.0737  0.2127
   27SOL    HW2  981   0.167   0.471   2.746 -0.5348 -0.5691 -0.0358
   28SOL     OW  982   5.476   4.662   0.496  0.1964 -0.0547  0.0196
   28SOL    HW1  983   5.404   4.625   0.554 -1.0136 -0.5728 -1.7098
   28SOL    HW2  984   5.530   4.587   0.457 -2.2937 -0.2702 -3.5421
   29SOL     OW  985   2.962   2.551   6.717  0.0198 -0.3419  0.0321
   29SOL    HW1  986   3.032   2.582   6.653  2.4362  1.4574  3.2540
   29SOL    HW2  987   2.880   2.607   6.705  0.0661 -0.6221 -1.9535
   30SOL     OW  988   1.927   0.632   3.915 -0.5371 -0.2001 -0.5680
   30SOL    HW1  989   1.987   0.670   3.845 -2.4574 -1.9747 -3.3532
   30SOL    HW2  990   1.957   0.540   3.938  0.6726  0.7020  1.8547
   31SOL     OW  991   2.528   1.540   2.110  0.1909  0.3577 -0.4377
   31SOL    HW1  992   2.537   1.611   2.180  1.4634 -0.2224  0.0112
   31SOL    HW2  993   2.567   1.573   2.024  0.7562  0.2150 -0.2368
   32SOL     OW  994   4.266   0.329   5.505  0.0021  0.4968 -0.0142
   32SOL    HW1  995   4.176   0.353   5.469  0.7609  0.7876 -1.8280
   32SOL    HW2  996   4.324   0.411   5.506 -0.0030  0.5158  2.0041
   33SOL     OW  997   2.131   1.692   3.527  0.3037  0.1321  0.8663
   33SOL    HW1  998   2.223   1.672   3.493  0.0314 -0.1850  0.3074
   33SOL    HW2  999   2.066   1.690   3.451 -0.2339 -0.0660  1.3268
   34SOL     OW 1000   6.741   2.628   2.404  0.7303 -0.3661 -0.1510
   34SOL    HW1 1001   6.716   2.724   2.411 -0.5354 -0.6195 -0.9072
   34SOL    HW2 1002   6.836   2.620   2.373  0.6744  0.6394 -0.6025
   35SOL     OW 1003   4.094   0.209   2.832  0.1464  0.1438  0.2498
   35SOL    HW1 1004   4.105   0.241   2.738 -1.6050  2.1124  0.6619
   35SOL    HW2 1005   4.175   0.233   2.885  0.2999  0.8173 -0.2810
   36SOL     OW 1006   3.792   0.526   4.677  0.5007 -0.3346 -0.6195
   36SOL    HW1 1007   3.858   0.475   4.622  2.0343  0.9638 -0.0422
   36SOL    HW2 1008   3.728   0.573   4.617  1.4274  0.1209 -1.2587
   37SOL     OW 1009   0.008   5.646   2.979  0.2843 -0.0960  0.0086
   37SOL    HW1 1010   0.098   5.642   3.022  0.8694  0.8527 -1.0660
   37SOL    HW2 1011  -0.005   5.566   2.921  1.3988  0.8011 -1.5725
   38SOL     OW 1012   5.087   4.522   4.150  0.6222  0.2257  0.4769
   38SOL    HW1 1013   5.106   4.535   4.248 -0.0900 -0.1767  0.6779
   38SOL    HW2 1014   5.015   4.585   4.121 -0.4236 -0.8539  0.6492
   39SOL     OW 1015   3.962   1.590   1.226  0.7395 -0.3408 -0.6104
   39SOL    HW1 1016   3.864   1.608   1.212  0.7387 -0.8988 -1.3950
   39SOL    HW2 1017   3.974   1.538   1.310  0.2786 -0.8933 -0.8733
   40SOL     OW 1018   0.286   6.414   2.195  0.2590 -0.1591  0.3867
   40SOL    HW1 1019   0.210   6.441   2.136 -0.4769  0.6207  1.6650
   40SOL    HW2 1020   0.308   6.318   2.178 -1.6904 -0.7052  0.6945
   41SOL     OW 1021   3.288   3.098   5.644 -0.4143  0.3809  0.5607
   41SOL    HW1 1022   3.351   3.048   5.585 -1.4841  0.1023 -0.3789
   41SOL    HW2 1023   3.205   3.120   5.594 -1.0852  0.7286  1.7711
   42SOL     OW 1024   4.437   6.016   2.408 -0.0853 -0.1952 -0.4567
   42SOL    HW1 1025   4.434   5.920   2.381  0.9201 -0.6090  0.7604
   42SOL    HW2 1026   4.530   6.052   2.396 -0.2962  0.4254 -0.2989
   43SOL     OW 1027   4.968   5.281   6.224 -0.3813  0.2379  0.1990
   43SOL    HW1 1028   4.896   5.300   6.291 -1.8456 -0.8271 -1.0078
   43SOL    HW2 1029   4.988   5.183   6.223  1.1479  0.5191  0.5397
   44SOL     OW 1030   0.899   0.591   2.634  0.0569  0.3310 -0.0413
   44SOL    HW1 1031   0.967   0.523   2.609 -0.0988  0.9084 -2.3425
   44SOL    HW2 1032   0.824   0.588   2.567 -0.0751  2.5396 -0.0647
   45SOL     OW 1033   6.043   2.119   6.996 -0.2621  0.4592 -0.3637
   45SOL    HW1 1034   5.956   2.168   6.984 -1.0510 -1.0696 -1.2278
   45SOL    HW2 1035   6.024   2.024   7.021  1.1850  0.2433 -0.0378
   46SOL     OW 1036   0.776   1.082   5.945  0.0120 -0.2959 -0.2985
   46SOL    HW1 1037   0.795   0.985   5.935  0.9364 -0.0195 -1.7516
   46SOL    HW2 1038   0.680   1.101   5.922 -0.3468 -0.9395  0.6640
   47SOL     OW 1039   3.452   1.223   1.978  0.1612  0.6867  0.1584
   47SOL    HW1 1040   3.399   1.252   2.058  0.8567 -1.2404  1.3920
   47SOL    HW2 1041   3.550   1.230   1.999  0.3810  1.3594 -1.0119
   48SOL     OW 1042   5.826   2.283   0.043  0.1872  0.1241 -0.3097
   48SOL    HW1 1043   5.804   2.297   0.140  0.9166 -0.6427 -0.0217
   48SOL    HW2 1044   5.754   2.323  -0.014 -0.0708  0.9091  0.5382
   49SOL     OW 1045   2.261   0.193   1.130  0.0785  0.1571  0.3053
   49SOL    HW1 1046   2.182   0.137   1.152  0.3931 -0.0727  0.8770
   49SOL    HW2 1047   2.345   0.147   1.161  0.3803  0.7113  0.3344
   50SOL     OW 1048   2.898   4.380   5.728  0.5741  0.3492  0.3303
   50SOL    HW1 1049   2.965   4.386   5.653 -0.8064  0.9210 -0.9130
   50SOL    HW2 1050   2.892   4.286   5.759  1.7941  0.2498  0.3202
   51SOL     OW 1051   6.044   6.850   6.339 -0.2863 -0.7093  0.1916
   51SOL    HW1 1052   6.104   6.773   6.318 -0.4759 -0.9064  0.3722
   51SOL    HW2 1053   6.029   6.903   6.255 -0.1810 -0.8857  0.0593
   52SOL     OW 1054   3.523   3.166   2.619 -0.0210 -0.6485  0.1122
   52SOL    HW1 1055   3.570   3.240   2.571 -2.0865  0.9124  0.3579
   52SOL    HW2 1056   3.586   3.124   2.685  1.7630 -0.4195 -1.3570
   53SOL     OW 1057   5.603   5.166   4.520  0.2324 -0.0274  0.1548
   53SOL    HW1 1058   5.683   5.225   4.513  1.5104 -1.8959 -3.0691
   53SOL    HW2 1059   5.593   5.135   4.615  1.7523  2.2494  1.1445
   54SOL     OW 1060   0.994   4.126   2.016  0.2851  0.0239 -0.5776
   54SOL    HW1 1061   1.083   4.084   1.997  0.6143 -1.2956  3.2035
   54SOL    HW2 1062   0.933   4.058   2.057 -1.6512  1.5492 -0.8062
   55SOL     OW 1063   0.649   2.098   0.883  0.0330  0.0898 -0.7442
   55SOL    HW1 1064   0.690   2.014   0.918 -1.1206 -0.3492 -0.4104
   55SOL    HW2 1065   0.554   2.104   0.912 -0.2714  0.8912 -1.8209
   56SOL     OW 1066   0.341   3.984   4.379 -0.0777 -0.4643 -0.4929
   56SOL    HW1 1067   0.296   4.073   4.384 -0.1515 -0.4974 -0.5564
   56SOL    HW2 1068   0.434   3.996   4.344 -0.1748 -0.4414 -0.7434
   57SOL     OW 1069   1.634   0.507   0.832  0.3134 -0.2536  0.3021
   57SOL    HW1 1070   1.695   0.446   0.781  0.9265  0.0957  0.6077
   57SOL    HW2 1071   1.607   0.463   0.918  2.5597  0.7434  1.6076
   58SOL     OW 1072   0.724   2.820   3.542  0.9096 -0.9128  0.3651
   58SOL    HW1 1073   0.648   2.756   3.530 -0.3651  0.7439 -1.0409
   58SOL    HW2 1074   0.759   2.848   3.453  0.8581  0.9498  0.8745
   59SOL     OW 1075   3.750   0.439   3.885  0.5574  0.9803 -0.6063
   59SOL    HW1 1076   3.765   0.454   3.788 -0.0858  0.6999 -0.7590
   59SOL    HW2 1077   3.662   0.480   3.911  0.7161  1.0345 -0.1476
   60SOL     OW 1078   6.527   0.824   6.401  0.0673  0.0122 -0.0204
   60SOL    HW1 1079   6.535   0.873   6.488 -1.2843  0.0480  0.1092
   60SOL    HW2 1080   6.431   0.796   6.388  0.0518  0.8399 -1.9402
   61SOL     OW 1081   5.392   1.552   1.454  0.9524  0.9687  0.4639
   61SOL    HW1 1082   5.295   1.531   1.445  1.1510 -0.2560  0.9284
   61SOL    HW2 1083   5.428   1.580   1.365  0.8442 -1.6806 -0.5176
   62SOL     OW 1084   3.126   6.649   0.320  0.5756  0.1438 -0.4175
   62SOL    HW1 1085   3.094   6.714   0.389 -0.3795 -1.2264  0.4947
   62SOL    HW2 1086   3.224   6.632   0.333  0.4808  0.1590  0.4200
   63SOL     OW 1087   0.433   3.865   1.410 -0.1028  0.0075  0.7248
   63SOL    HW1 1088   0.456   3.878   1.314 -1.9928 -3.3039 -0.3527
   63SOL    HW2 1089   0.402   3.951   1.449  0.4017  1.3852 -1.7053
   64SOL     OW 1090   1.658   4.594   1.196  0.1394 -0.6416  0.2534
   64SOL    HW1 1091   1.725   4.663   1.168 -0.5440  0.0141  0.1957
   64SOL    HW2 1092   1.609   4.626   1.277  0.1123 -1.2502  0.4773
   65SOL     OW 1093   3.130   0.157   6.736 -0.1520 -0.6899  0.1156
   65SOL    HW1 1094   3.047   0.134   6.686  0.5490 -1.4424 -0.7613
   65SOL    HW2 1095   3.207   0.106   6.697  1.3764  2.4778 -1.3391
   66SOL     OW 1096   2.141   3.507   4.150  0.0361  0.1271  0.2146
   66SOL    HW1 1097   2.164   3.600   4.179  0.4414  1.1739 -3.0420
   66SOL    HW2 1098   2.101   3.457   4.226  1.6398  2.2966  2.6356
   67SOL     OW 1099   5.801   2.960   3.359  0.1591  0.0456 -0.0559
   67SOL    HW1 1100   5.884   2.936   3.310  1.1137  0.1483  1.4305
   67SOL    HW2 1101   5.824   3.019   3.437 -1.2364 -0.3340  0.6787
   68SOL     OW 1102   0.386   1.813   6.526  0.4273 -0.2164  0.0203
   68SOL    HW1 1103   0.484   1.796   6.518  0.5184  0.2510  0.0953
   68SOL    HW2 1104   0.367   1.858   6.613  0.1738 -0.1149 -0.0871
   69SOL     OW 1105   2.912   5.950   6.670  0.7061  0.1038 -0.1901
   69SOL    HW1 1106   2.841   5.909   6.612  1.0020  0.0467 -0.5195
   69SOL    HW2 1107   2.870   6.011   6.737  0.3696  0.3496 -0.6168
   70SOL     OW 1108   0.512   1.614   1.946 -0.9326 -0.3743  0.4054
   70SOL    HW1 1109   0.503   1.526   1.900 -0.8246 -0.7562  1.0890
   70SOL    HW2 1110   0.422   1.656   1.956 -0.9017 -0.0495 -0.5863
   71SOL     OW 1111   5.814   1.744   4.680  0.0438  0.0034 -0.0836
   71SOL    HW1 1112   5.781   1.838   4.686  0.5815  0.1756  0.2973
   71SOL    HW2 1113   5.741   1.685   4.645 -0.5812  0.4087  0.5000
   72SOL     OW 1114   0.277   2.380   6.837  0.3473  0.0156 -0.5571
   72SOL    HW1 1115   0.183   2.348   6.852  0.2917 -0.3312 -1.5563
   72SOL    HW2 1116   0.279   2.480   6.838 -0.2444  0.0554 -1.6142
   73SOL     OW 1117   6.212   0.778   3.594  0.4998 -0.1587  0.4428
   73SOL    HW1 1118   6.184   0.765   3.688 -0.7650 -1.2332 -0.0593
   73SOL    HW2 1119   6.133   0.798   3.537  0.3721 -4.1355 -1.1618
   74SOL     OW 1120   5.464   4.110   5.172  0.0957 -0.4340  0.4286
   74SOL    HW1 1121   5.416   4.149   5.094  0.5889 -0.3181  0.1759
   74SOL    HW2 1122   5.533   4.175   5.205 -0.0710 -0.5046  0.9258
   75SOL     OW 1123   6.660   5.978   2.169  0.0687  1.0497  0.2733
   75SOL    HW1 1124   6.648   6.059   2.227 -0.2508  0.5864  0.8645
   75SOL    HW2 1125   6.572   5.933   2.157  0.3341  0.5038  0.3753
   76SOL     OW 1126   2.014   5.376   6.419 -0.2586 -0.1745 -0.4419
   76SOL    HW1 1127   2.065   5.391   6.334 -0.8859  0.4592 -0.7178
   76SOL    HW2 1128   1.991   5.279   6.428  0.7175 -0.4215 -0.4646
   77SOL     OW 1129   2.013   2.108   6.353  0.1705 -0.1243  0.1526
   77SOL    HW1 1130   2.019   2.041   6.427 -1.7669 -0.5254  0.0199
   77SOL    HW2 1131   2.025   2.200   6.391  0.3727 -0.3972  0.7721
   78SOL     OW 1132   0.728   5.276   1.193  0.1695 -0.2218 -0.5485
   78SOL    HW1 1133   0.748   5.353   1.254 -1.1391  0.1966 -0.6006
   78SOL    HW2 1134   0.813   5.231   1.167  0.8893  0.6260  0.2379
   79SOL     OW 1135   2.446   2.233   2.616  0.2651  0.2314  0.3309
   79SOL    HW1 1136   2.405   2.294   2.548  2.0488  0.7677 -0.3365
   79SOL    HW2 1137   2.445   2.139   2.582  1.4989  0.5490 -0.6572
   80SOL     OW 1138   3.823   2.132   6.358 -0.1069  0.6421  0.1557
   80SOL    HW1 1139   3.778   2.119   6.446 -1.2429 -0.7225 -0.5830
   80SOL    HW2 1140   3.795   2.059   6.295 -0.1554  2.1592 -1.6711
   81SOL     OW 1141   1.869   2.721   4.254  0.2254 -0.1013  0.1558
   81SOL    HW1 1142   1.962   2.686   4.242  0.5577  0.0351  2.0360
   81SOL    HW2 1143   1.865   2.778   4.336 -1.4394  0.2281 -0.1131
   82SOL     OW 1144   6.437   4.236   4.899 -0.2684 -0.3701  0.6687
   82SOL    HW1 1145   6.342   4.208   4.911 -1.2321  2.0687 -0.5544
   82SOL    HW2 1146   6.459   4.239   4.802  0.9207 -0.4490  0.9214
   83SOL     OW 1147   1.702   3.176   5.517  0.2434  0.1775 -0.4233
   83SOL    HW1 1148   1.764   3.190   5.440  0.9158  1.7795  0.3534
   83SOL    HW2 1149   1.608   3.187   5.487  0.5192  1.2590 -0.9518
   84SOL     OW 1150   5.909   0.131   0.978  0.2888  0.8283 -0.3053
   84SOL    HW1 1151   5.934   0.163   0.886 -0.5130  1.3408 -0.3526
   84SOL    HW2 1152   5.978   0.162   1.043 -0.0180  1.9438 -0.4870
   85SOL     OW 1153   2.578   1.696   5.199  0.7990  0.1171  0.2951
   85SOL    HW1 1154   2.676   1.705   5.183  0.8679  0.5677  0.9375
   85SOL    HW2 1155   2.530   1.774   5.158  0.6380 -0.4317 -0.5803
   86SOL     OW 1156   6.522   3.598   2.371 -0.0398 -0.0909  0.1586
   86SOL    HW1 1157   6.468   3.591   2.455  0.6767 -0.8640  0.5623
   86SOL    HW2 1158   6.529   3.694   2.344 -3.1252 -0.0464 -0.8932
   87SOL     OW 1159   0.972   1.859   4.525  0.5257 -0.0885  0.2273
   87SOL    HW1 1160   0.993   1.768   4.560  0.9958  0.1257  0.5222
   87SOL    HW2 1161   0.884   1.889   4.561  1.3490  0.4446  1.9101
   88SOL     OW 1162   1.377   0.995   1.231 -0.8104  0.0110 -0.0423
   88SOL    HW1 1163   1.448   0.950   1.176 -1.7394 -0.3991 -0.9404
   88SOL    HW2 1164   1.330   1.064   1.175 -2.7832 -1.4460 -0.2965
   89SOL     OW 1165   3.882   2.036   0.784 -0.1120  0.6671 -0.4826
   89SOL    HW1 1166   3.858   2.075   0.873  0.9824 -0.2159  0.2243
   89SOL    HW2 1167   3.837   2.089   0.712 -1.6261  0.9490  0.6088
   90SOL     OW 1168   4.494   2.141   3.954  0.0988  0.0837 -0.2089
   90SOL    HW1 1169   4.516   2.202   4.030  0.1463  1.0659 -0.9852
   90SOL    HW2 1170   4.576   2.123   3.900  0.1107 -0.7870  0.0796
   91SOL     OW 1171   4.838   4.743   0.461 -0.1263  0.2617 -0.1812
   91SOL    HW1 1172   4.871   4.817   0.520  0.4515  1.2133 -1.6459
   91SOL    HW2 1173   4.841   4.772   0.366 -1.9290 -0.8907 -0.6550
   92SOL     OW 1174   0.925   4.158   6.681  0.2393 -0.4512 -0.3452
   92SOL    HW1 1175   0.842   4.105   6.698  1.4661 -2.3279  0.1375
   92SOL    HW2 1176   0.968   4.126   6.597 -0.2552  1.5235 -1.3976
   93SOL     OW 1177   4.448   5.004   1.657  0.7097  0.5587 -0.5283
   93SOL    HW1 1178   4.358   5.045   1.643  1.2440  2.6442  1.5051
   93SOL    HW2 1179   4.440   4.929   1.723  0.4809  0.8713 -0.1955
   94SOL     OW 1180   6.670   0.252   5.028  0.1173 -0.3020  0.6459
   94SOL    HW1 1181   6.749   0.217   5.079  1.4074  0.7310 -0.5666
   94SOL    HW2 1182   6.663   0.351   5.042 -0.8092 -0.3414  0.5094
   95SOL     OW 1183   4.994   2.584   5.799 -1.1053  0.5364  0.3199
   95SOL    HW1 1184   4.936   2.549   5.726  0.5583 -1.4795 -0.1286
   95SOL    HW2 1185   4.951   2.567   5.888 -0.4676 -2.7472  0.1290
   96SOL     OW 1186   6.933   0.751   4.058 -0.0162 -0.2937 -0.1999
   96SOL    HW1 1187   7.011   0.718   4.111 -1.4571 -1.5472  1.2391
   96SOL    HW2 1188   6.897   0.676   4.002  0.0882  0.4042 -1.2290
   97SOL     OW 1189   3.461   0.701   1.791  0.1902 -0.3329  0.5536
   97SOL    HW1 1190   3.428   0.659   1.875 -4.3087  0.4751 -0.5631
   97SOL    HW2 1191   3.470   0.800   1.805  1.5256 -0.4421  0.5961
   98SOL     OW 1192   4.410   6.434   1.466 -0.2434  0.0042 -0.2709
   98SOL    HW1 1193   4.358   6.393   1.391  0.7285  2.8268 -2.6868
   98SOL    HW2 1194   4.350   6.496   1.517 -0.0263  0.9396 -1.1300
   99SOL     OW 1195   6.371   1.298   3.608  0.1623  0.4153 -0.1156
   99SOL    HW1 1196   6.341   1.363   3.678 -1.0001 -0.7530  0.5142
   99SOL    HW2 1197   6.442   1.239   3.646 -0.0127  0.1931 -0.1364
  100SOL     OW 1198   0.201   5.810   5.682  0.1116  0.0615 -0.0092
  100SOL    HW1 1199   0.136   5.768   5.746 -0.0132 -1.0986 -0.8484
  100SOL    HW2 1200   0.160   5.813   5.591  0.1858  1.9337 -0.0057
  101SOL     OW 1201   2.128   2.630   5.064 -0.2263  0.8534  0.1047
  101SOL    HW1 1202   2.109   2.621   5.161 -0.5432 -0.5170 -0.0641
  101SOL    HW2 1203   2.162   2.543   5.028  1.1448  1.6935 -0.7520
  102SOL     OW 1204   4.204   5.766   5.330 -0.4356  0.1160  0.1330
  102SOL    HW1 1205   4.279   5.794   5.270 -0.2255  0.4590  0.5508
  102SOL    HW2 1206   4.146   5.845   5.350 -2.9609 -0.7339 -2.9810
  103SOL     OW 1207   1.440   5.074   3.221 -0.4636 -0.7241  0.3646
  103SOL    HW1 1208   1.463   5.096   3.315 -0.7942 -0.0502  0.2948
  103SOL    HW2 1209   1.468   4.980   3.200 -0.2712 -0.8294  1.0895
  104SOL     OW 1210   5.565   2.035   6.250  0.1550 -0.6990 -0.1125
  104SOL    HW1 1211   5.476   2.077   6.268 -2.4273 -4.1945 -3.2239
  104SOL    HW2 1212   5.583   1.963   6.317 -0.3193 -1.2394 -0.5570
  105SOL     OW 1213   1.596   0.467   6.071  0.2000 -0.0325 -0.2974
  105SOL    HW1 1214   1.506   0.476   6.113  0.4983  1.2308  0.1209
  105SOL    HW2 1215   1.642   0.386   6.106 -0.3074 -0.0291  0.3827
  106SOL     OW 1216   4.768   5.369   1.345 -0.1487  0.1762  0.2544
  106SOL    HW1 1217   4.727   5.401   1.430  0.7934  1.3581  0.2786
  106SOL    HW2 1218   4.701   5.377   1.271 -0.6206  0.1598  0.6756
  107SOL     OW 1219   3.228   5.996   4.581 -0.6184 -0.0660  0.0929
  107SOL    HW1 1220   3.284   6.021   4.502  0.9064 -1.8600  0.5499
  107SOL    HW2 1221   3.133   5.982   4.551 -0.5205  1.3037 -1.0027
  108SOL     OW 1222   3.482   3.070   1.728  0.5488 -0.6451 -0.1594
  108SOL    HW1 1223   3.494   3.072   1.629 -0.7034  1.5331 -0.3185
  108SOL    HW2 1224   3.385   3.061   1.749  0.8033 -1.0587  0.8804
  109SOL     OW 1225   0.985   5.897   3.291 -0.1587 -0.8264 -0.3920
  109SOL    HW1 1226   1.059   5.855   3.239  1.2069 -1.6227  2.0364
  109SOL    HW2 1227   0.912   5.830   3.306  0.6148 -1.4365  0.8290
  110SOL     OW 1228   0.424   3.688   6.033 -0.2242  0.7167  0.2638
  110SOL    HW1 1229   0.470   3.642   5.957 -1.4127  0.3485 -0.2513
  110SOL    HW2 1230   0.333   3.717   6.005 -0.5020  1.0114  1.4006
  111SOL     OW 1231   6.052   2.123   0.385  0.2449  0.0526 -0.5331
  111SOL    HW1 1232   6.120   2.192   0.363 -0.8248  0.9187 -1.2577
  111SOL    HW2 1233   5.980   2.163   0.442  1.3990 -1.3932  2.1445
  112SOL     OW 1234   6.811   0.668   5.402  0.2326 -0.4268  0.3624
  112SOL    HW1 1235   6.747   0.718   5.460 -0.5250 -1.8019  0.7786
  112SOL    HW2 1236   6.899   0.660   5.449  1.1684  2.4774 -0.6985
  113SOL     OW 1237   3.641   5.169   1.818  0.2466  0.4500  0.1641
  113SOL    HW1 1238   3.681   5.089   1.773 -0.2107 -1.1538  2.4351
  113SOL    HW2 1239   3.706   5.206   1.885 -0.8824 -0.3483  1.7546
  114SOL     OW 1240   6.308   1.547   6.732  0.6070 -0.0585  0.2704
  114SOL    HW1 1241   6.406   1.567   6.735  0.5582  0.1973  0.1663
  114SOL    HW2 1242   6.294   1.453   6.700  0.8921 -0.7615  2.0831
  115SOL     OW 1243   2.759   5.650   0.391 -0.1752  0.1128  0.4029
  115SOL    HW1 1244   2.679   5.635   0.333  0.9488 -1.2630 -0.8528
  115SOL    HW2 1245   2.755   5.590   0.471  0.7845 -1.8123 -0.9388
  116SOL     OW 1246   1.907   2.537   3.052  0.7312 -0.0784  0.1049
  116SOL    HW1 1247   1.885   2.496   2.963 -0.7579 -0.9380  0.8289
  116SOL    HW2 1248   1.934   2.633   3.038 -2.4265  0.7849 -1.0918
  117SOL     OW 1249   6.701   4.988   5.509 -0.2162  0.6583  0.5789
  117SOL    HW1 1250   6.794   5.023   5.496 -0.2151  1.3011  2.0950
  117SOL    HW2 1251   6.643   5.060   5.548 -1.3967  0.2938 -0.4332
  118SOL     OW 1252   3.288   2.260   0.697 -0.3363  0.4997  0.1245
  118SOL    HW1 1253   3.225   2.249   0.773 -0.3973  2.0677  0.3364
  118SOL    HW2 1254   3.252   2.326   0.632  0.3093  0.1404 -0.6285
  119SOL     OW 1255   5.637   2.304   2.897  0.0746 -0.0225 -0.1546
  119SOL    HW1 1256   5.541   2.308   2.927  0.0738  1.9990 -0.3102
  119SOL    HW2 1257   5.643   2.327   2.800  0.9757  3.8158  0.6492
  120SOL     OW 1258   5.580   0.628   0.017 -0.4451  0.7183  0.3791
  120SOL    HW1 1259   5.560   0.598  -0.076  0.3756 -1.0725  0.7498
  120SOL    HW2 1260   5.548   0.560   0.082 -0.8581  1.8776  1.4324
  121SOL     OW 1261   5.760   4.058   2.577 -0.2030  0.2221  0.7225
  121SOL    HW1 1262   5.726   4.152   2.579 -0.6973  0.1845 -1.9636
  121SOL    HW2 1263   5.850   4.054   2.620  0.2762  2.1442 -0.0255
  122SOL     OW 1264   4.083   3.325   5.143  0.0633 -0.1383  0.4216
  122SOL    HW1 1265   4.010   3.258   5.154  0.5443 -0.4520  1.9257
  122SOL    HW2 1266   4.127   3.342   5.231  2.4229 -0.6452 -0.5748
  123SOL     OW 1267   0.062   1.660   2.605  0.0218 -0.2781  0.5379
  123SOL    HW1 1268   0.062   1.708   2.693 -0.2085 -0.7534  0.8035
  123SOL    HW2 1269   0.143   1.602   2.598  0.0200 -0.2706  0.4510
  124SOL     OW 1270   2.661   4.581   6.004 -0.4435  0.2983  0.3987
  124SOL    HW1 1271   2.662   4.502   5.942 -1.6883  1.1381 -0.7550
  124SOL    HW2 1272   2.700   4.555   6.092  2.6472 -0.6286 -1.0933
  125SOL     OW 1273   1.826   5.991   0.385  0.1973 -0.0530 -0.2384
  125SOL    HW1 1274   1.843   5.894   0.400 -0.7064 -0.2264 -0.2916
  125SOL    HW2 1275   1.745   6.003   0.327 -0.1380  0.7482  0.3736
  126SOL     OW 1276   5.196   0.598   3.263  0.5580 -0.0743  0.0146
  126SOL    HW1 1277   5.194   0.697   3.274  0.5669 -0.3496  3.8749
  126SOL    HW2 1278   5.144   0.572   3.182  0.0474  2.9976 -0.7656
  127SOL     OW 1279   4.070   3.817   4.100  0.1421  0.2734  0.1851
  127SOL    HW1 1280   4.143   3.854   4.158 -0.8379  1.9290  0.4349
  127SOL    HW2 1281   4.072   3.717   4.105  2.3348  0.2499  0.2182
  128SOL     OW 1282   0.195   3.395   2.753  0.8131  0.0927  0.5819
  128SOL    HW1 1283   0.294   3.383   2.754  1.0063  1.4315  2.3827
  128SOL    HW2 1284   0.167   3.454   2.829 -1.1743  1.3699 -1.0075
  129SOL     OW 1285   2.397   1.704   2.626  0.4886  0.3747 -0.3186
  129SOL    HW1 1286   2.358   1.671   2.540 -0.8780  1.1406 -0.0260
  129SOL    HW2 1287   2.428   1.626   2.681  1.5063 -0.1142 -1.5372
  130SOL     OW 1288   1.075   6.175   3.312 -0.0380 -0.7899  0.3246
  130SOL    HW1 1289   1.085   6.208   3.406 -2.1400  1.0930 -0.0490
  130SOL    HW2 1290   0.988   6.126   3.302 -0.5684  0.3537 -0.9633
  131SOL     OW 1291   0.768   6.971   4.718  0.2598  0.8738  0.0631
  131SOL    HW1 1292   0.707   7.050   4.714 -0.1513  0.5591  0.0793
  131SOL    HW2 1293   0.747   6.908   4.643 -1.7691 -0.9194  2.0004
  132SOL     OW 1294   6.368   2.651   1.238  0.5845  0.1405  0.3623
  132SOL    HW1 1295   6.364   2.647   1.337 -1.1317 -0.6707  0.3129
  132SOL    HW2 1296   6.310   2.725   1.205  1.4604  0.6614 -0.0320
  133SOL     OW 1297   3.010   6.033   3.669  0.1643  0.5390  0.3308
  133SOL    HW1 1298   3.012   6.098   3.745  0.3507 -1.4541  2.1575
  133SOL    HW2 1299   3.090   5.973   3.675 -0.4061 -0.3691 -0.7637
  134SOL     OW 1300   2.183   1.801   6.970  0.2126  0.0342 -0.1389
  134SOL    HW1 1301   2.148   1.861   7.042  1.0697  0.1022  0.2273
  134SOL    HW2 1302   2.262   1.751   7.004  0.4341 -0.1642 -0.9362
  135SOL     OW 1303   5.242   4.022   1.495 -1.0672 -0.8851 -0.3287
  135SOL    HW1 1304   5.280   3.955   1.560 -1.4888 -0.4056  0.4313
  135SOL    HW2 1305   5.265   4.114   1.526 -2.3313 -0.6080 -0.1758
  136SOL     OW 1306   4.635   6.077   1.693  0.4063 -0.1568  0.2469
  136SOL    HW1 1307   4.567   6.061   1.621  0.3462  2.1419 -0.2811
  136SOL    HW2 1308   4.726   6.051   1.660 -0.0309 -2.1899  0.5554
  137SOL     OW 1309   4.441   6.452   1.976 -0.4025  0.2288 -0.6331
  137SOL    HW1 1310   4.381   6.532   1.972 -0.0043  0.4982 -2.5713
  137SOL    HW2 1311   4.474   6.431   1.883 -0.7913 -2.4241 -0.2413
  138SOL     OW 1312   6.523   3.870   5.870 -0.0579 -0.3574  0.4607
  138SOL    HW1 1313   6.496   3.928   5.792 -0.0369  1.0912  1.4959
  138SOL    HW2 1314   6.508   3.919   5.955 -0.3203 -2.0175  1.4199
  139SOL     OW 1315   6.741   1.492   3.048 -0.2216  0.2140 -0.4833
  139SOL    HW1 1316   6.784   1.486   3.138 -1.3756  0.3709  0.0959
  139SOL    HW2 1317   6.812   1.507   2.978  0.6360  0.6544  0.4529
  140SOL     OW 1318   1.065   4.848   2.703  0.5068  0.5005  0.3298
  140SOL    HW1 1319   1.126   4.921   2.676  0.2127  0.0607 -1.6925
  140SOL    HW2 1320   0.973   4.885   2.719  0.0257  0.4828 -1.9927
  141SOL     OW 1321   6.540   2.083   2.126  0.4667  0.1334 -0.2390
  141SOL    HW1 1322   6.521   2.154   2.194 -0.5181  2.2519 -2.5634
  141SOL    HW2 1323   6.470   2.012   2.132  0.7403 -0.0322  1.3159
  142SOL     OW 1324   1.463   3.072   3.601 -0.0487  0.4575  0.0146
  142SOL    HW1 1325   1.562   3.077   3.588 -0.0678 -0.9406 -0.9405
  142SOL    HW2 1326   1.440   3.098   3.694  1.4601 -1.1530  0.8987
  143SOL     OW 1327   6.276   3.232   0.275  0.5597 -0.1862  0.2084
  143SOL    HW1 1328   6.247   3.141   0.247  1.6654 -0.3414 -0.4961
  143SOL    HW2 1329   6.244   3.251   0.367 -0.9884 -0.6797 -0.2020
  144SOL     OW 1330   1.460   1.765   0.759 -0.0834  0.3746  0.1171
  144SOL    HW1 1331   1.429   1.849   0.715 -0.2217  0.2574 -0.0122
  144SOL    HW2 1332   1.555   1.747   0.735  0.1494  0.8429  0.6749
  145SOL     OW 1333   6.401   4.880   5.619 -0.3914 -0.0164 -0.6801
  145SOL    HW1 1334   6.346   4.811   5.667  0.4019 -0.6725 -0.7066
  145SOL    HW2 1335   6.490   4.842   5.595 -0.1699  0.8256 -1.2469
  146SOL     OW 1336   3.165   1.817   5.174  0.3095  0.3925  0.4212
  146SOL    HW1 1337   3.124   1.908   5.167 -1.5579 -0.3908  0.4376
  146SOL    HW2 1338   3.123   1.756   5.106  1.2397 -0.5549  0.6720
  147SOL     OW 1339   2.480   1.255   0.843  0.0059  0.0405 -0.4078
  147SOL    HW1 1340   2.569   1.211   0.833 -0.4614 -0.7208 -1.3960
  147SOL    HW2 1341   2.470   1.326   0.774  0.5761  1.4370  0.8965
  148SOL     OW 1342   6.165   0.044   5.516 -0.2175  0.3416 -0.3186
  148SOL    HW1 1343   6.117  -0.043   5.522 -2.1501  1.2754 -1.3213
  148SOL    HW2 1344   6.186   0.077   5.609  0.2347 -0.9834  0.0760
  149SOL     OW 1345   5.121   5.102   1.157 -0.1628 -0.3702 -0.2872
  149SOL    HW1 1346   5.161   5.193   1.154  2.1370 -1.3318 -0.4934
  149SOL    HW2 1347   5.022   5.110   1.172 -0.2500  2.1610 -1.6831
  150SOL     OW 1348   3.692   0.630   6.158 -0.3342  0.3251  0.0646
  150SOL    HW1 1349   3.781   0.668   6.180  0.1549 -0.5306 -0.3728
  150SOL    HW2 1350   3.691   0.601   6.062 -0.3798 -1.5014  0.5811
  151SOL     OW 1351   5.146   0.610   4.993  0.0993  0.1945 -0.1265
  151SOL    HW1 1352   5.219   0.628   5.060 -0.2652  0.8076  0.1129
  151SOL    HW2 1353   5.122   0.513   4.996 -0.0062  0.2327  0.7389
  152SOL     OW 1354   2.051   1.115   6.532 -0.1086  0.2958  0.1029
  152SOL    HW1 1355   2.150   1.116   6.519  0.0720 -0.0649  1.2692
  152SOL    HW2 1356   2.005   1.125   6.444  0.9725 -1.2067 -0.6752
  153SOL     OW 1357   0.913   0.419   0.892 -0.3342 -0.4680  0.1802
  153SOL    HW1 1358   0.927   0.504   0.843  1.9718 -1.0321 -0.2594
  153SOL    HW2 1359   0.994   0.361   0.883 -1.3095 -2.1670  1.5646
  154SOL     OW 1360   6.572   1.918   0.262 -0.3105  0.6116  0.3647
  154SOL    HW1 1361   6.554   1.820   0.272  0.5499  0.2814 -1.0970
  154SOL    HW2 1362   6.598   1.938   0.168  2.8797  1.6811  1.3494
  155SOL     OW 1363   2.165   4.615   3.584  0.0898  0.0232  0.5726
  155SOL    HW1 1364   2.158   4.703   3.630  0.8231  0.2166  0.3388
  155SOL    HW2 1365   2.240   4.562   3.624  0.3105 -0.0728  0.0395
  156SOL     OW 1366   3.861   3.123   3.447  0.5404  0.1638 -0.2883
  156SOL    HW1 1367   3.801   3.112   3.526  0.0494 -2.3775 -0.9221
  156SOL    HW2 1368   3.810   3.162   3.370  0.2132 -0.1519 -0.2341
  157SOL     OW 1369   0.594   4.704   4.363  0.2152 -0.1290  0.6889
  157SOL    HW1 1370   0.632   4.650   4.438 -0.8810 -2.1584 -0.1248
  157SOL    HW2 1371   0.583   4.799   4.392  1.3020 -0.5090  2.5219
  158SOL     OW 1372   4.475   6.961   1.465 -0.3402  0.1182  0.0761
  158SOL    HW1 1373   4.400   6.899   1.445 -0.4842  0.4333 -0.3670
  158SOL    HW2 1374   4.544   6.954   1.393 -0.3120  0.4007  0.0756
  159SOL     OW 1375   2.463   6.512   4.414 -0.0162  0.1672 -0.7120
  159SOL    HW1 1376   2.466   6.525   4.315 -1.6884  1.4835 -0.6363
  159SOL    HW2 1377   2.431   6.420   4.435  1.0346 -0.3687 -1.3660
  160SOL     OW 1378   4.328   2.893   0.426  0.4533  0.6481  0.5784
  160SOL    HW1 1379   4.415   2.900   0.377 -0.5117  0.5196 -1.2397
  160SOL    HW2 1380   4.265   2.835   0.374 -0.8669  1.0827  1.6379
  161SOL     OW 1381   0.760   4.237   3.767  0.2469  0.1852 -0.0033
  161SOL    HW1 1382   0.787   4.214   3.860  0.1610 -2.7015 -0.6010
  161SOL    HW2 1383   0.681   4.181   3.740  1.5317 -0.5762 -2.4556
  162SOL     OW 1384   0.294   6.501   4.334 -0.2642 -0.0746 -0.4259
  162SOL    HW1 1385   0.260   6.479   4.426  0.2434 -1.3587 -0.5205
  162SOL    HW2 1386   0.389   6.473   4.326  0.1383  1.3266 -0.9171
  163SOL     OW 1387   4.821   0.188   1.842 -0.1325  0.3328 -0.7146
  163SOL    HW1 1388   4.837   0.284   1.819 -3.5485  0.9638 -0.9646
  163SOL    HW2 1389   4.820   0.177   1.941  0.3297  0.5220 -0.6865
  164SOL     OW 1390   2.912   0.120   0.264  0.4500  0.2189  0.0391
  164SOL    HW1 1391   2.977   0.167   0.324  1.0248 -0.1597 -0.2675
  164SOL    HW2 1392   2.820   0.153   0.282  0.5839 -0.0081  1.2648
  165SOL     OW 1393   1.694   2.687   2.564 -0.0815  0.0878  0.0944
  165SOL    HW1 1394   1.643   2.713   2.482  1.4649  1.4495 -0.5133
  165SOL    HW2 1395   1.738   2.598   2.549 -0.2349  0.0847 -0.3622
  166SOL     OW 1396   2.106   2.461   1.640 -0.1120 -0.6122  0.0358
  166SOL    HW1 1397   2.204   2.447   1.631  0.1008  1.0011 -0.5124
  166SOL    HW2 1398   2.089   2.537   1.704 -0.7836  1.6070 -2.6017
  167SOL     OW 1399   5.666   4.913   2.724 -0.0497 -0.3089  0.4464
  167SOL    HW1 1400   5.737   4.891   2.791  0.6257 -0.8081 -0.4207
  167SOL    HW2 1401   5.579   4.927   2.772 -0.2069 -3.3021  1.2560
  168SOL     OW 1402   6.807   0.657   4.526  0.2234  0.2254 -0.7850
  168SOL    HW1 1403   6.780   0.703   4.611  1.3013  1.9251 -1.3181
  168SOL    HW2 1404   6.726   0.646   4.468 -0.4380 -0.5289  0.2518
  169SOL     OW 1405   1.531   4.198   1.439  0.1256 -0.1286 -0.2832
  169SOL    HW1 1406   1.579   4.208   1.527 -0.1040  0.2305 -0.1957
  169SOL    HW2 1407   1.534   4.103   1.410  2.0778  0.0743 -0.9441
  170SOL     OW 1408   0.764   6.862   3.603  0.0069 -0.1421 -0.8451
  170SOL    HW1 1409   0.756   6.786   3.539  0.2748  1.6834 -3.2262
  170SOL    HW2 1410   0.781   6.828   3.695  1.0215 -2.8907 -1.9614
  171SOL     OW 1411   3.660   2.718   6.211  0.5367 -0.1885 -0.2487
  171SOL    HW1 1412   3.599   2.716   6.131 -1.0513 -0.7811  0.9319
  171SOL    HW2 1413   3.668   2.811   6.245 -1.2555 -0.3424  0.6869
  172SOL     OW 1414   2.153   5.037   3.115  0.2890  0.2089 -0.1568
  172SOL    HW1 1415   2.054   5.038   3.127  0.3442 -2.3168  1.2505
  172SOL    HW2 1416   2.191   5.123   3.148 -1.3149  0.6510  0.6677
  173SOL     OW 1417   1.037   1.702   4.948  0.1441 -0.0952  0.1205
  173SOL    HW1 1418   1.011   1.642   5.024  0.1884  0.4242  0.5498
  173SOL    HW2 1419   1.135   1.719   4.952  0.1983 -0.3112 -0.2369
  174SOL     OW 1420   5.332   6.737   0.354  0.2534  0.5998 -0.1356
  174SOL    HW1 1421   5.265   6.713   0.424 -0.4949  1.1105 -0.6652
  174SOL    HW2 1422   5.417   6.687   0.370 -0.2847 -0.1239  0.4880
  175SOL     OW 1423   5.738   3.926   2.324 -0.0587 -0.3941  0.2717
  175SOL    HW1 1424   5.653   3.967   2.292 -0.5073 -0.9074  0.7699
  175SOL    HW2 1425   5.748   3.943   2.422 -1.3856 -3.2808  1.0130
  176SOL     OW 1426   0.072   6.653   3.558 -0.3706 -0.1507  0.2564
  176SOL    HW1 1427   0.092   6.750   3.550 -1.2042  0.0980  1.0008
  176SOL    HW2 1428   0.011   6.625   3.483  0.6655 -0.3351 -0.5308
  177SOL     OW 1429   3.043   0.327   3.658  0.3407  0.2553 -0.3405
  177SOL    HW1 1430   3.073   0.313   3.753 -1.3087 -1.2252  0.0040
  177SOL    HW2 1431   3.102   0.275   3.597  0.6116  0.1817 -0.0227
  178SOL     OW 1432   0.283   2.371   0.235  0.2967  0.2664  0.2870
  178SOL    HW1 1433   0.278   2.408   0.327  0.0912  1.7847 -0.3062
  178SOL    HW2 1434   0.194   2.336   0.208  0.4823 -0.6618  0.8383
  179SOL     OW 1435   2.299   0.375   6.595 -0.4414  0.3225  0.4278
  179SOL    HW1 1436   2.264   0.361   6.503  0.4204 -1.4942  0.3334
  179SOL    HW2 1437   2.233   0.340   6.662 -0.1373 -0.3381  0.3885
  180SOL     OW 1438   5.583   4.560   1.707 -0.1781 -0.4193  0.0964
  180SOL    HW1 1439   5.626   4.471   1.719  1.4993  0.5064  1.3189
  180SOL    HW2 1440   5.628   4.609   1.632 -1.3142 -0.6898 -0.7943
  181SOL     OW 1441   6.217   0.113   6.856  0.4161  0.1886 -0.2193
  181SOL    HW1 1442   6.173   0.025   6.838 -0.4902  0.1393  2.0487
  181SOL    HW2 1443   6.311   0.110   6.820 -0.1333 -1.0496 -1.7048
  182SOL     OW 1444   2.770   0.836   0.493  0.5309 -0.6597  0.3846
  182SOL    HW1 1445   2.726   0.746   0.494 -1.1777  0.1265 -0.4657
  182SOL    HW2 1446   2.731   0.893   0.566  3.0817 -1.2158  2.3104
  183SOL     OW 1447   4.948   6.336   1.475 -0.2163 -0.3245  0.2914
  183SOL    HW1 1448   4.857   6.373   1.454 -0.6756  0.2018  2.8253
  183SOL    HW2 1449   4.989   6.390   1.549  1.7080 -1.2345 -0.0634
  184SOL     OW 1450   6.744   0.878   2.982  0.4500 -0.1271  0.6550
  184SOL    HW1 1451   6.719   0.882   2.885 -0.2148  1.1168  0.8576
  184SOL    HW2 1452   6.714   0.791   3.020  2.4432 -1.4998 -0.6804
  185SOL     OW 1453   2.360   4.770   4.720  0.2878 -0.0323 -0.4150
  185SOL    HW1 1454   2.310   4.770   4.634  1.3775 -0.8521 -1.0789
  185SOL    HW2 1455   2.428   4.696   4.719 -0.2582 -0.6165  1.4974
  186SOL     OW 1456   1.163   0.658   3.352 -0.4934 -0.2317  0.0167
  186SOL    HW1 1457   1.072   0.689   3.323  0.0377  0.4915 -0.9338
  186SOL    HW2 1458   1.217   0.738   3.380 -0.5912 -0.7790  1.9601
  187SOL     OW 1459   1.165   0.986   3.030 -0.4355 -0.7740 -0.1171
  187SOL    HW1 1460   1.209   1.072   3.002  0.5520 -1.4335 -0.6859
  187SOL    HW2 1461   1.148   0.988   3.128 -1.5653  0.5571 -0.3080
  188SOL     OW 1462   1.174   1.349   3.949  0.7466  0.0968 -0.1041
  188SOL    HW1 1463   1.185   1.398   3.863  0.9611 -0.9450 -0.6950
  188SOL    HW2 1464   1.076   1.341   3.970  0.6785  0.0759 -0.4232
  189SOL     OW 1465   5.676   6.413   5.993 -1.1597  0.1371  0.1699
  189SOL    HW1 1466   5.697   6.340   5.927  0.4931  0.9088 -0.2017
  189SOL    HW2 1467   5.752   6.423   6.056 -1.1295  1.8950 -0.1176
  190SOL     OW 1468   4.770   3.756   5.542 -0.7877  0.2099  0.1820
  190SOL    HW1 1469   4.864   3.766   5.575 -0.0175  0.5079 -1.9363
  190SOL    HW2 1470   4.741   3.661   5.552  1.1072 -0.7553 -2.2913
  191SOL     OW 1471   0.375   5.719   2.257 -0.3742  0.7100 -0.0428
  191SOL    HW1 1472   0.372   5.638   2.200  0.0238  0.6662  0.0006
  191SOL    HW2 1473   0.442   5.784   2.221 -0.3228  0.8002  0.2109
  192SOL     OW 1474   4.069   0.298   0.138 -0.5891  0.0662  0.3442
  192SOL    HW1 1475   4.088   0.394   0.116  1.2007 -0.3804 -0.2109
  192SOL    HW2 1476   4.138   0.265   0.203 -0.4882 -1.1588 -0.3635
  193SOL     OW 1477   0.371   5.981   6.434  0.0659 -0.1143 -0.6333
  193SOL    HW1 1478   0.299   5.952   6.497 -0.6380  0.7009 -1.0567
  193SOL    HW2 1479   0.354   6.074   6.403 -0.1883 -0.8621 -2.8829
  194SOL     OW 1480   5.780   0.465   3.026  0.5261 -1.2143  0.6550
  194SOL    HW1 1481   5.738   0.448   2.937 -0.0819  0.9106  0.4831
  194SOL    HW2 1482   5.710   0.493   3.091  1.3768  0.6013  0.8554
  195SOL     OW 1483   4.914   3.780   2.613 -0.5126  0.4899  0.4033
  195SOL    HW1 1484   4.945   3.702   2.558  0.0372  0.9803  0.0013
  195SOL    HW2 1485   4.905   3.752   2.708  2.5895  0.6311  0.8445
  196SOL     OW 1486   5.922   5.077   1.376 -0.3501  0.8597  0.3906
  196SOL    HW1 1487   5.845   5.122   1.422  0.6380  0.6299  2.3894
  196SOL    HW2 1488   5.894   5.048   1.285 -2.4283  1.3387  0.8248
  197SOL     OW 1489   3.082   0.319   3.115 -0.3577 -0.1195  0.2743
  197SOL    HW1 1490   3.002   0.296   3.170 -1.2242  0.5841 -0.6550
  197SOL    HW2 1491   3.066   0.406   3.069  1.5714  0.8397  1.2784
  198SOL     OW 1492   4.786   4.596   5.090 -0.5391  0.1303 -0.1379
  198SOL    HW1 1493   4.859   4.653   5.129  1.6721 -1.6835 -1.3963
  198SOL    HW2 1494   4.727   4.652   5.032 -1.2628  1.9850  2.2313
  199SOL     OW 1495   2.999   5.709   4.675 -0.3736  0.0761 -0.0871
  199SOL    HW1 1496   2.962   5.757   4.595 -0.1859  0.9858  0.3708
  199SOL    HW2 1497   2.946   5.625   4.690 -0.6296  0.0643 -0.9552
  200SOL     OW 1498   6.273   4.531   1.409  0.4073 -0.6623 -0.2713
  200SOL    HW1 1499   6.186   4.551   1.454 -0.4937  0.3436 -2.3272
  200SOL    HW2 1500   6.347   4.578   1.456 -0.7502  1.9533 -0.9110
  201SOL     OW 1501   0.076   0.573   4.544  0.1579 -0.0691  0.2941
  201SOL    HW1 1502  -0.018   0.607   4.541  0.4609  0.7903 -1.9417
  201SOL    HW2 1503   0.088   0.504   4.473  1.3848  0.3496  0.0681
  202SOL     OW 1504   6.945   6.232   0.567  0.1549  0.0904  0.3132
  202SOL    HW1 1505   7.010   6.172   0.521 -1.2522 -0.7122 -0.7480
  202SOL    HW2 1506   6.862   6.181   0.589 -0.9586  1.5396 -0.3131
  203SOL     OW 1507   5.599   0.100   1.885 -0.8269  0.4669 -0.7422
  203SOL    HW1 1508   5.568   0.052   1.803 -2.2016  2.1736 -1.3016
  203SOL    HW2 1509   5.638   0.188   1.860 -0.6662  0.7431  0.3961
  204SOL     OW 1510   6.514   6.337   2.582  0.9288 -0.2584 -0.4307
  204SOL    HW1 1511   6.496   6.435   2.577 -0.4876 -0.4034  0.9195
  204SOL    HW2 1512   6.517   6.308   2.678  1.5650 -1.5029 -0.8009
  205SOL     OW 1513   2.214   6.054   5.583 -0.1253 -0.2895  0.3250
  205SOL    HW1 1514   2.258   6.080   5.498 -0.2470  0.7726  0.5759
  205SOL    HW2 1515   2.193   6.136   5.637 -1.0244 -0.8659  0.8906
  206SOL     OW 1516   3.086   0.188   1.149 -0.0357  0.8239 -0.6372
  206SOL    HW1 1517   3.073   0.169   1.246 -0.2820 -3.0317 -1.2634
  206SOL    HW2 1518   3.007   0.240   1.114 -1.3340 -0.1593  0.6977
  207SOL     OW 1519   5.976   2.094   1.898  0.3982 -0.3131 -0.2952
  207SOL    HW1 1520   6.029   2.075   1.981  0.1283  0.0486 -0.0367
  207SOL    HW2 1521   6.020   2.166   1.846  0.4784 -0.4247 -0.3822
  208SOL     OW 1522   3.158   6.723   6.236  0.5243 -0.4103 -0.1570
  208SOL    HW1 1523   3.230   6.655   6.222  2.1473  1.1475  0.1174
  208SOL    HW2 1524   3.166   6.794   6.167 -0.2733  0.1811  0.3470
  209SOL     OW 1525   5.490   6.259   4.113  0.0458 -0.7059 -0.4401
  209SOL    HW1 1526   5.440   6.201   4.049 -1.8630  0.6784 -0.3090
  209SOL    HW2 1527   5.576   6.289   4.073  0.7463 -3.0273 -0.7657
  210SOL     OW 1528   5.671   1.752   2.137  0.3167 -0.1975 -0.0964
  210SOL    HW1 1529   5.654   1.845   2.170  0.8894  0.2728 -1.0775
  210SOL    HW2 1530   5.769   1.733   2.144  0.2886 -0.4864 -0.5077
  211SOL     OW 1531   5.501   0.724   4.222  0.0735  0.0360  0.0449
  211SOL    HW1 1532   5.473   0.694   4.130 -3.0001  2.1120  0.1489
  211SOL    HW2 1533   5.534   0.818   4.217  0.9162 -0.2019  0.9513
  212SOL     OW 1534   6.309   2.691   0.533  0.1812 -0.2800 -0.1400
  212SOL    HW1 1535   6.243   2.639   0.477  0.6257  0.4765 -1.4094
  212SOL    HW2 1536   6.338   2.772   0.483  2.3495 -0.7690  0.2342
  213SOL     OW 1537   2.898   0.602   6.234  0.4942 -0.0874 -0.3113
  213SOL    HW1 1538   2.914   0.635   6.141 -0.3970  0.3491 -0.3174
  213SOL    HW2 1539   2.903   0.679   6.298 -0.4578 -0.1138 -0.1909
  214SOL     OW 1540   0.611   1.853   4.416  0.0119  0.0166  0.0159
  214SOL    HW1 1541   0.592   1.757   4.434 -1.9617  0.4666  0.6574
  214SOL    HW2 1542   0.621   1.868   4.318 -4.1352 -0.2608 -0.6279
  215SOL     OW 1543   2.724   6.802   5.584 -0.0747 -0.0068 -0.8162
  215SOL    HW1 1544   2.668   6.778   5.504 -0.2539  0.0896 -0.7199
  215SOL    HW2 1545   2.668   6.800   5.666  0.8780 -3.9177 -0.0463
  216SOL     OW 1546   5.382   0.560   4.009 -0.9662  0.2721  0.3092
  216SOL    HW1 1547   5.426   0.614   3.937  0.0107  1.1023  1.4975
  216SOL    HW2 1548   5.283   0.563   3.996 -0.7830 -1.1949 -2.1079
  217SOL     OW 1549   1.199   2.403   6.400  0.2631  0.1184  0.2811
  217SOL    HW1 1550   1.187   2.494   6.439 -0.1014  0.1344  0.1334
  217SOL    HW2 1551   1.182   2.334   6.470 -0.4061  0.1464  0.1482
  218SOL     OW 1552   4.943   2.722   0.477 -0.2203  0.0089  0.7953
  218SOL    HW1 1553   5.035   2.708   0.440 -0.1434 -0.0373  1.0053
  218SOL    HW2 1554   4.904   2.634   0.504  0.3847  0.2077  2.4093
  219SOL     OW 1555   1.244   0.119   2.609  0.0604  0.3580 -0.2027
  219SOL    HW1 1556   1.229   0.182   2.686  0.3443  0.7659 -0.4797
  219SOL    HW2 1557   1.170   0.129   2.543 -0.6934 -0.6531  0.4383
  220SOL     OW 1558   3.944   4.990   6.060  0.1194 -0.1100 -0.8841
  220SOL    HW1 1559   3.984   4.965   5.972  0.7115  0.6944 -0.8495
  220SOL    HW2 1560   3.986   4.935   6.132  1.3057  0.8271 -0.8288
  221SOL     OW 1561   5.132   5.034   5.141 -0.3016 -0.2673  0.0585
  221SOL    HW1 1562   5.075   5.095   5.087 -1.1767 -0.8999  0.2485
  221SOL    HW2 1563   5.134   4.944   5.099 -2.3730 -1.2645  1.8950
  222SOL     OW 1564   6.796   2.803   4.446  0.1222 -0.6961 -0.2759
  222SOL    HW1 1565   6.731   2.734   4.413 -0.2854 -1.2270  1.5486
  222SOL    HW2 1566   6.844   2.768   4.526  3.6760 -0.8440 -2.2551
  223SOL     OW 1567   0.567   3.576   5.350  0.0479  0.4268  0.4198
  223SOL    HW1 1568   0.596   3.646   5.416 -0.5232  0.0661  1.0685
  223SOL    HW2 1569   0.629   3.576   5.272  0.5677  1.0610  0.8234
  224SOL     OW 1570   2.269   4.470   5.949 -0.3926  0.0279 -0.3017
  224SOL    HW1 1571   2.306   4.386   5.988  1.7294  0.7938 -0.5604
  224SOL    HW2 1572   2.287   4.472   5.851  0.7326  1.3253 -0.0936
  225SOL     OW 1573   0.016   0.670   5.548 -0.4590 -0.2632  0.4457
  225SOL    HW1 1574  -0.018   0.655   5.641 -0.8578 -1.2725  0.1546
  225SOL    HW2 1575   0.095   0.611   5.532 -3.1770 -3.7935 -1.3376
  226SOL     OW 1576   0.195   1.896   4.347 -0.2292 -0.1518 -0.4174
  226SOL    HW1 1577   0.156   1.980   4.310 -0.4126 -0.4136 -0.8292
  226SOL    HW2 1578   0.271   1.866   4.288 -0.9471 -0.9302 -0.9751
  227SOL     OW 1579   4.852   0.188   0.520  0.0277  0.3192 -0.0517
  227SOL    HW1 1580   4.787   0.122   0.557  0.1069  0.6574  0.7234
  227SOL    HW2 1581   4.935   0.140   0.490 -0.6569 -0.1344 -1.2497
  228SOL     OW 1582   6.864   1.570   2.501 -0.1462  0.1107 -0.3956
  228SOL    HW1 1583   6.946   1.611   2.540  0.3457 -1.1150 -0.0980
  228SOL    HW2 1584   6.793   1.640   2.492  0.6650  1.0192  0.0622
  229SOL     OW 1585   4.436   1.627   6.104 -0.5315  0.4721 -0.1165
  229SOL    HW1 1586   4.458   1.709   6.051  3.4960 -0.3388  0.0273
  229SOL    HW2 1587   4.442   1.647   6.201  0.8020  0.0004 -0.0812
  230SOL     OW 1588   1.200   3.642   3.920 -0.6567 -0.4040 -0.4715
  230SOL    HW1 1589   1.218   3.547   3.945 -2.3113 -0.4997  0.4654
  230SOL    HW2 1590   1.233   3.702   3.992 -1.2138 -0.3869 -0.2270
  231SOL     OW 1591   2.336   1.001   0.715 -0.5623  0.1027  0.6854
  231SOL    HW1 1592   2.374   1.080   0.762 -0.1395  0.1534  0.2619
  231SOL    HW2 1593   2.299   1.029   0.627  1.0070 -0.4162 -0.1735
  232SOL     OW 1594   1.023   3.891   4.922 -0.8560  0.0403 -0.7649
  232SOL    HW1 1595   1.118   3.911   4.899 -0.7823  0.9354  0.2751
  232SOL    HW2 1596   0.998   3.802   4.882 -0.0106  0.3938 -2.1690
  233SOL     OW 1597   2.752   3.511   5.524  0.3703  0.2772 -0.0463
  233SOL    HW1 1598   2.823   3.461   5.574  0.0260  0.6647  0.8613
  233SOL    HW2 1599   2.679   3.447   5.497  1.5065 -0.3173 -1.8811
  234SOL     OW 1600   2.306   0.666   4.046  0.3840  0.1738  0.9065
  234SOL    HW1 1601   2.384   0.610   4.018  0.6673  0.5314  0.9836
  234SOL    HW2 1602   2.331   0.762   4.043 -0.3279  0.3447  0.0680
  235SOL     OW 1603   3.751   3.605   3.047  0.2696 -0.5387 -0.3107
  235SOL    HW1 1604   3.739   3.525   2.989 -1.1676  0.3291 -1.2734
  235SOL    HW2 1605   3.673   3.614   3.108  0.0825  0.4749 -0.6736
  236SOL     OW 1606   5.901   0.980   1.164  0.7006 -0.5426  0.2712
  236SOL    HW1 1607   5.895   1.079   1.154  0.2398 -0.6236 -0.3297
  236SOL    HW2 1608   5.886   0.936   1.075  1.5772 -1.1334  0.3954
  237SOL     OW 1609   2.996   3.518   2.924  0.6975  0.4644  0.1952
  237SOL    HW1 1610   2.962   3.577   2.997  0.8255  0.3789  0.3252
  237SOL    HW2 1611   2.995   3.423   2.956  0.9524  0.4502  0.1598
  238SOL     OW 1612   2.759   2.500   5.762 -0.2609  0.2305 -0.3493
  238SOL    HW1 1613   2.670   2.492   5.717 -0.0563  0.0128 -0.7201
  238SOL    HW2 1614   2.771   2.423   5.825 -0.1342 -0.0046 -0.6581
  239SOL     OW 1615   1.245   3.697   5.113  0.7851 -0.1718 -0.6726
  239SOL    HW1 1616   1.182   3.621   5.097  1.9014 -1.4289  0.6846
  239SOL    HW2 1617   1.319   3.693   5.046  0.6835 -0.0838 -0.7918
  240SOL     OW 1618   0.311   5.136   5.505 -0.1005  0.0927  0.3032
  240SOL    HW1 1619   0.345   5.043   5.485 -1.9284 -0.4770 -0.3055
  240SOL    HW2 1620   0.220   5.130   5.547  0.1850  1.6003  1.2125
  241SOL     OW 1621   6.282   3.636   6.658  0.0512 -0.2888 -0.4006
  241SOL    HW1 1622   6.284   3.537   6.668 -0.7472 -0.2307  0.5047
  241SOL    HW2 1623   6.375   3.669   6.639  0.6047 -1.0747  0.7832
  242SOL     OW 1624   3.014   3.288   3.087 -0.8324  0.5093  0.3361
  242SOL    HW1 1625   2.988   3.264   3.181  0.8754 -0.8235  0.5056
  242SOL    HW2 1626   3.080   3.221   3.053 -1.2321  1.1277 -1.7376
  243SOL     OW 1627   4.100   3.598   6.063 -0.6046 -0.5860 -0.5479
  243SOL    HW1 1628   4.053   3.669   6.117  2.7819  2.3096 -1.0144
  243SOL    HW2 1629   4.150   3.538   6.125  0.3984  0.5208 -0.2367
  244SOL     OW 1630   3.780   6.584   2.004 -0.0612 -0.7103 -0.3859
  244SOL    HW1 1631   3.782   6.586   2.104  1.3729  1.0276 -0.4059
  244SOL    HW2 1632   3.873   6.590   1.968 -0.6653  3.3728 -1.8000
  245SOL     OW 1633   4.604   5.544   2.311  0.0191  0.3323  0.1333
  245SOL    HW1 1634   4.626   5.498   2.398  2.2578  1.1258  0.0508
  245SOL    HW2 1635   4.662   5.506   2.238 -1.7569 -0.2466 -1.0362
  246SOL     OW 1636   5.644   0.146   0.690 -0.1052  0.5034  0.1049
  246SOL    HW1 1637   5.678   0.223   0.636  0.4589  0.6879  0.7105
  246SOL    HW2 1638   5.714   0.075   0.695 -0.2397  0.3886  0.3933
  247SOL     OW 1639   2.591   5.999   4.769  0.6975  0.4198  0.0374
  247SOL    HW1 1640   2.684   5.973   4.796  1.1338  0.2363 -1.5140
  247SOL    HW2 1641   2.595   6.084   4.717 -0.0407  0.5662  0.2183
  248SOL     OW 1642   2.483   5.667   2.381 -0.0462 -0.0450  0.3213
  248SOL    HW1 1643   2.502   5.679   2.479  0.4612  0.8194  0.1202
  248SOL    HW2 1644   2.552   5.715   2.327 -1.7689  1.6548 -0.4532
  249SOL     OW 1645   4.476   5.597   3.429 -0.1952 -0.1370 -0.2923
  249SOL    HW1 1646   4.387   5.594   3.474 -0.3903 -0.7582 -0.7092
  249SOL    HW2 1647   4.531   5.519   3.459  0.0538  0.0106 -0.3623
  250SOL     OW 1648   5.400   0.232   2.118  0.2585  0.1666  0.2667
  250SOL    HW1 1649   5.485   0.189   2.087  0.5010  1.5114 -1.0493
  250SOL    HW2 1650   5.412   0.266   2.211  1.2209  0.4770  0.0398
  251SOL     OW 1651   2.348   2.409   4.515  0.4037 -0.3023 -0.0859
  251SOL    HW1 1652   2.357   2.424   4.417  1.2010 -0.2402 -0.0113
  251SOL    HW2 1653   2.439   2.400   4.556  0.0549 -2.7926  0.2849
  252SOL     OW 1654   4.774   6.294   0.666 -0.2416 -0.3324 -0.3054
  252SOL    HW1 1655   4.687   6.341   0.650 -0.1926 -0.2477 -0.3228
  252SOL    HW2 1656   4.757   6.197   0.681 -0.4452 -0.1167  0.9054
  253SOL     OW 1657   0.175   4.295   1.045 -0.0668 -0.3184 -0.4412
  253SOL    HW1 1658   0.077   4.274   1.042 -0.2854  0.6376 -0.4185
  253SOL    HW2 1659   0.212   4.298   0.952 -0.1408 -0.3192 -0.4706
  254SOL     OW 1660   2.261   1.288   6.320 -0.3074  0.2221  0.1010
  254SOL    HW1 1661   2.348   1.304   6.367 -0.4333  0.1767  0.3462
  254SOL    HW2 1662   2.278   1.285   6.221 -0.0411  0.2886  0.1424
  255SOL     OW 1663   0.953   3.471   0.257  0.1904 -0.0604  0.2234
  255SOL    HW1 1664   1.050   3.450   0.249  0.2275  0.2817 -0.2626
  255SOL    HW2 1665   0.940   3.569   0.269 -0.1564  0.1039 -1.2629
  256SOL     OW 1666   5.983   1.046   2.884  0.1664 -0.4398  0.2277
  256SOL    HW1 1667   5.992   1.103   2.802 -0.9633 -1.4567 -0.6394
  256SOL    HW2 1668   6.049   0.971   2.881 -0.8661 -1.3488 -0.5286
  257SOL     OW 1669   1.702   6.991   4.275 -0.0273 -0.3315  0.1155
  257SOL    HW1 1670   1.765   7.060   4.239  1.5831 -1.2521  1.0392
  257SOL    HW2 1671   1.729   6.901   4.243  0.0103 -0.9047  1.6768
  258SOL     OW 1672   4.841   0.337   5.193  0.1561 -0.0093  0.2220
  258SOL    HW1 1673   4.904   0.346   5.271  0.3223  0.3623  0.0455
  258SOL    HW2 1674   4.811   0.428   5.164  2.8638  0.2101 -2.4101
  259SOL     OW 1675   2.145   5.221   5.791 -0.0743 -0.1406 -0.5672
  259SOL    HW1 1676   2.192   5.288   5.848  0.1059 -0.2606 -0.5729
  259SOL    HW2 1677   2.124   5.261   5.702  1.1897 -0.4869 -1.0427
  260SOL     OW 1678   1.797   5.647   2.822  0.3776 -0.1296  0.1961
  260SOL    HW1 1679   1.707   5.605   2.811 -0.2681  1.1479  0.3494
  260SOL    HW2 1680   1.853   5.627   2.742 -0.2318 -0.4856 -0.1516
  261SOL     OW 1681   6.276   0.170   4.584  0.0749 -0.0411 -0.2874
  261SOL    HW1 1682   6.258   0.072   4.573 -2.9749  0.1166  1.8630
  261SOL    HW2 1683   6.314   0.188   4.674 -0.3463  0.8175 -0.2628
  262SOL     OW 1684   4.597   0.675   3.285  0.3444 -0.2561 -0.0732
  262SOL    HW1 1685   4.546   0.707   3.365 -1.5889  0.1097 -1.3902
  262SOL    HW2 1686   4.546   0.602   3.240  0.9833  0.1181 -1.4542
  263SOL     OW 1687   5.212   1.265   1.241  0.2687 -0.3164 -0.1141
  263SOL    HW1 1688   5.201   1.170   1.212 -1.1865 -0.1457 -0.1498
  263SOL    HW2 1689   5.177   1.326   1.171  1.8219  0.2952 -0.3923
  264SOL     OW 1690   2.170   2.616   0.065  0.0330  0.9001  0.0017
  264SOL    HW1 1691   2.110   2.564   0.125 -1.3713 -1.5437 -3.1896
  264SOL    HW2 1692   2.265   2.606   0.095 -0.1638 -3.4505 -0.1730
  265SOL     OW 1693   1.528   3.916   5.816 -0.5165 -0.0806 -0.4627
  265SOL    HW1 1694   1.571   4.006   5.818 -2.6257  0.9808  0.2068
  265SOL    HW2 1695   1.435   3.925   5.780 -0.5729 -2.0917 -0.9025
  266SOL     OW 1696   5.233   4.402   3.339  0.4502 -0.5203  0.0746
  266SOL    HW1 1697   5.332   4.390   3.331  0.9157  2.9579 -1.2720
  266SOL    HW2 1698   5.212   4.440   3.430  0.5242 -0.1073 -0.0787
  267SOL     OW 1699   3.622   3.522   6.711 -0.6518  0.3581 -0.0950
  267SOL    HW1 1700   3.628   3.535   6.612 -1.0319 -1.3063 -0.3586
  267SOL    HW2 1701   3.710   3.493   6.747  0.1539  3.1670  0.4733
  268SOL     OW 1702   6.680   6.204   3.207 -0.1407  0.2304  0.6866
  268SOL    HW1 1703   6.759   6.204   3.269 -0.0417  0.5819  0.5601
  268SOL    HW2 1704   6.709   6.176   3.116  0.0317  1.3188  0.3970
  269SOL     OW 1705   3.398   6.033   4.378  0.2928  0.1154  0.3428
  269SOL    HW1 1706   3.354   5.959   4.329  1.1696 -0.9293  1.0778
  269SOL    HW2 1707   3.445   6.094   4.314  0.2063 -0.3977 -0.2059
  270SOL     OW 1708   4.388   0.412   1.789  0.2800  0.1270  0.0389
  270SOL    HW1 1709   4.478   0.445   1.818 -0.0283  1.2815 -0.2546
  270SOL    HW2 1710   4.395   0.369   1.699  0.2537  1.9393 -0.8808
  271SOL     OW 1711   2.058   2.108   1.964  0.0245 -0.4361  0.0030
  271SOL    HW1 1712   2.019   2.181   1.908  1.9920  0.8569  0.2279
  271SOL    HW2 1713   2.079   2.143   2.055 -0.0203 -1.5905  0.4687
  272SOL     OW 1714   6.181   0.790   4.782  0.2214  0.4872  0.3527
  272SOL    HW1 1715   6.091   0.834   4.782  0.2653  0.6332 -0.8264
  272SOL    HW2 1716   6.189   0.731   4.701  1.4543  1.0865  0.0037
  273SOL     OW 1717   0.181   5.912   0.151  0.3686 -0.2367  0.0022
  273SOL    HW1 1718   0.188   6.006   0.117  0.0402  0.1362  0.9280
  273SOL    HW2 1719   0.118   5.861   0.093 -1.3985  0.8213  0.9225
  274SOL     OW 1720   3.609   3.767   6.878 -0.2651 -0.0961 -0.0826
  274SOL    HW1 1721   3.572   3.777   6.970  2.1510 -1.4305  1.0988
  274SOL    HW2 1722   3.681   3.698   6.877 -1.0929 -1.1004 -3.2658
  275SOL     OW 1723   2.255   5.032   2.348  0.6567 -0.7338  0.2726
  275SOL    HW1 1724   2.230   5.053   2.442 -1.1489  0.6548 -0.4583
  275SOL    HW2 1725   2.336   5.086   2.322  0.2444  0.0510  0.5829
  276SOL     OW 1726   6.713   0.259   3.175  0.5035 -0.7441  0.0275
  276SOL    HW1 1727   6.775   0.308   3.113  0.7556  0.4752  1.1931
  276SOL    HW2 1728   6.638   0.218   3.123  0.8770 -0.0192 -1.1020
  277SOL     OW 1729   4.037   1.808   2.061 -0.4163  0.1308  0.1428
  277SOL    HW1 1730   4.054   1.733   2.124  0.1430 -1.1707 -1.4836
  277SOL    HW2 1731   4.123   1.838   2.020 -0.8066  0.6541 -0.3090
  278SOL     OW 1732   1.231   1.954   6.420  0.2871  0.2721 -0.1108
  278SOL    HW1 1733   1.196   1.941   6.328 -1.5692 -0.6416  0.6824
  278SOL    HW2 1734   1.169   2.014   6.471  0.4841 -0.4255  0.9779
  279SOL     OW 1735   4.260   5.292   1.784 -0.4677 -0.0043 -0.2138
  279SOL    HW1 1736   4.327   5.364   1.803  0.1207 -0.3233 -1.0340
  279SOL    HW2 1737   4.307   5.214   1.742 -1.3730 -0.1960 -0.8862
  280SOL     OW 1738   1.778   6.372   1.883 -0.3061  0.2672 -0.1714
  280SOL    HW1 1739   1.798   6.403   1.976  0.1013  1.0000 -0.4983
  280SOL    HW2 1740   1.679   6.376   1.867 -0.4925 -0.8728  0.5757
  281SOL     OW 1741   4.769   4.594   4.357  0.1783  0.3060  0.0262
  281SOL    HW1 1742   4.744   4.629   4.447  0.7882 -0.8654  0.6706
  281SOL    HW2 1743   4.765   4.494   4.358 -1.9546  0.2979 -1.8934
  282SOL     OW 1744   2.835   0.576   1.429  0.4241 -0.3549  0.0652
  282SOL    HW1 1745   2.852   0.510   1.356 -1.9580 -1.3727  0.3511
  282SOL    HW2 1746   2.851   0.532   1.518 -1.7161 -0.7811  0.2739
  283SOL     OW 1747   4.257   1.392   4.128  0.3620  0.5469  0.2175
  283SOL    HW1 1748   4.336   1.356   4.077  0.7759  1.1210  0.4438
  283SOL    HW2 1749   4.229   1.325   4.197  1.7474  1.0154  1.3013
  284SOL     OW 1750   3.842   0.274   6.258  0.0683  0.4971  0.5250
  284SOL    HW1 1751   3.813   0.206   6.191 -1.0157  0.0052  1.4645
  284SOL    HW2 1752   3.937   0.299   6.241  0.2265 -0.6347 -0.3492
  285SOL     OW 1753   2.042   2.408   4.009  0.0806  0.4674 -0.3133
  285SOL    HW1 1754   2.037   2.494   4.061 -0.0627  0.2314  0.0673
  285SOL    HW2 1755   2.109   2.417   3.936  2.2701 -0.0477  1.5313
  286SOL     OW 1756   2.834   0.449   5.857  0.7322  0.7219  0.0530
  286SOL    HW1 1757   2.913   0.424   5.911  1.2126  1.9310 -0.0561
  286SOL    HW2 1758   2.751   0.416   5.901  1.2772 -0.3986  0.2576
  287SOL     OW 1759   0.758   1.468   6.817 -0.0836  0.2503  0.2402
  287SOL    HW1 1760   0.826   1.514   6.759 -0.8535  0.8824 -0.1796
  287SOL    HW2 1761   0.800   1.388   6.861  1.0485  0.8790  0.3364
  288SOL     OW 1762   1.578   1.721   4.970 -0.2607 -0.2499 -0.4432
  288SOL    HW1 1763   1.575   1.720   4.870 -0.9251 -1.1686 -0.4217
  288SOL    HW2 1764   1.616   1.808   5.001 -0.5773  0.2709 -1.4793
  289SOL     OW 1765   0.881   6.997   5.235  0.7389 -0.1308 -0.0592
  289SOL    HW1 1766   0.981   6.991   5.243  0.5861 -2.0640  1.1769
  289SOL    HW2 1767   0.855   7.090   5.210  2.8374  0.4347 -0.3386
  290SOL     OW 1768   1.161   2.264   6.175 -0.7159 -0.4426 -0.0120
  290SOL    HW1 1769   1.065   2.271   6.149 -0.8847 -2.0398  0.0796
  290SOL    HW2 1770   1.179   2.326   6.252 -1.9147 -0.7926  0.5827
  291SOL     OW 1771   2.504   5.339   0.973  0.0097 -0.0991  0.2029
  291SOL    HW1 1772   2.563   5.279   0.918 -0.5800 -1.8824  1.4330
  291SOL    HW2 1773   2.561   5.394   1.034  0.5166 -0.0850 -0.2707
  292SOL     OW 1774   0.101   2.700   2.377  0.6393 -0.2708 -0.4669
  292SOL    HW1 1775   0.121   2.713   2.474  0.2019 -1.3224 -0.2216
  292SOL    HW2 1776   0.067   2.786   2.338 -2.6004 -0.6566  1.1674
  293SOL     OW 1777   5.342   5.051   4.858 -0.2726 -0.2465  0.8765
  293SOL    HW1 1778   5.267   5.105   4.818 -0.8626 -1.2280  0.6193
  293SOL    HW2 1779   5.330   5.046   4.957 -1.1390 -1.2376  0.7396
  294SOL     OW 1780   3.311   3.576   1.955 -0.0195 -0.1784  0.0282
  294SOL    HW1 1781   3.269   3.487   1.973 -0.9802  0.3681  0.6661
  294SOL    HW2 1782   3.280   3.610   1.867  0.4669 -0.5360 -0.2837
  295SOL     OW 1783   3.852   4.296   5.766  0.1879 -0.4358  0.6717
  295SOL    HW1 1784   3.860   4.338   5.675 -0.3380  2.5274  1.8613
  295SOL    HW2 1785   3.760   4.259   5.778 -0.0417  0.0104  0.3118
  296SOL     OW 1786   1.143   0.595   3.620  0.2613  0.3463  0.2725
  296SOL    HW1 1787   1.224   0.635   3.663  0.8434  0.7293 -1.1462
  296SOL    HW2 1788   1.152   0.597   3.521 -1.1160 -0.4029  0.0959
  297SOL     OW 1789   3.119   5.707   3.355  0.3375 -0.3619  0.1063
  297SOL    HW1 1790   3.077   5.798   3.352  0.8529 -0.1443 -0.4784
  297SOL    HW2 1791   3.157   5.685   3.265  0.6895 -0.9307  0.3943
  298SOL     OW 1792   3.603   1.002   6.397  0.2513  0.3413  0.3515
  298SOL    HW1 1793   3.675   0.969   6.459  1.3776  2.8461  0.5096
  298SOL    HW2 1794   3.529   1.043   6.450 -0.5355 -0.7493  0.1252
  299SOL     OW 1795   4.518   6.031   6.467 -0.4033 -0.0478  0.0858
  299SOL    HW1 1796   4.449   6.069   6.528 -0.4398 -1.1110  0.7416
  299SOL    HW2 1797   4.553   6.102   6.406 -2.5067  0.3781 -0.6791
  300SOL     OW 1798   3.550   1.223   3.346  0.4894  0.3336  0.7012
  300SOL    HW1 1799   3.462   1.178   3.329  0.0402  1.3210  0.3218
  300SOL    HW2 1800   3.620   1.154   3.362 -0.5237 -0.4722  1.9120
  301SOL     OW 1801   3.426   5.068   4.032 -0.0692 -0.0352  0.2139
  301SOL    HW1 1802   3.489   5.020   4.094 -0.6613  0.0936  0.9343
  301SOL    HW2 1803   3.415   5.162   4.062  1.6229  0.7925 -1.6025
  302SOL     OW 1804   1.769   6.101   0.662 -0.2006  0.2923 -0.0453
  302SOL    HW1 1805   1.729   6.049   0.587 -0.0256 -0.1012  0.1291
  302SOL    HW2 1806   1.811   6.184   0.627  1.9746 -1.0320 -0.7261
  303SOL     OW 1807   2.759   5.064   5.825  0.3371  0.4196  0.6001
  303SOL    HW1 1808   2.714   5.025   5.905  1.8921 -1.1554  0.7681
  303SOL    HW2 1809   2.846   5.106   5.853  1.1890 -0.6838 -0.2881
  304SOL     OW 1810   5.459   2.676   2.403  0.0448  0.1544  0.1077
  304SOL    HW1 1811   5.368   2.646   2.431  0.8950 -2.2767  0.5238
  304SOL    HW2 1812   5.462   2.684   2.304 -0.4114 -0.5280  0.0332
  305SOL     OW 1813   6.870   2.516   0.704 -0.0752 -0.1188  0.2203
  305SOL    HW1 1814   6.850   2.424   0.740 -2.3031 -0.3353 -1.4058
  305SOL    HW2 1815   6.921   2.568   0.772  3.1387 -3.1938  0.4660
  306SOL     OW 1816   3.331   4.032   4.900  0.2865 -0.1889  0.4336
  306SOL    HW1 1817   3.313   4.080   4.814  0.6180 -0.3158  0.2921
  306SOL    HW2 1818   3.406   4.076   4.948  1.6080 -1.4116 -0.4012
  307SOL     OW 1819   0.616   3.420   3.589 -0.3296 -0.6476 -0.1314
  307SOL    HW1 1820   0.549   3.356   3.628 -0.3518  0.2725  1.3972
  307SOL    HW2 1821   0.604   3.510   3.630  2.0773 -0.5314  0.4670
  308SOL     OW 1822   5.031   5.673   2.878 -0.1783  0.3709 -0.6276
  308SOL    HW1 1823   4.989   5.685   2.969  0.9991  0.5120 -0.0781
  308SOL    HW2 1824   4.965   5.630   2.816 -0.1123 -2.4067  1.0614
  309SOL     OW 1825   0.368   1.360   4.487 -0.1651  0.3732  0.3726
  309SOL    HW1 1826   0.286   1.389   4.437 -0.0552 -0.7049 -0.4833
  309SOL    HW2 1827   0.429   1.310   4.425  0.8436  0.5857  1.1564
  310SOL     OW 1828   2.900   6.598   6.189 -0.2099  0.2252  0.0876
  310SOL    HW1 1829   2.942   6.561   6.106  0.2433  0.1523  0.3467
  310SOL    HW2 1830   2.888   6.697   6.178 -0.9468  0.0899 -0.4002
  311SOL     OW 1831   0.354   3.513   6.264 -0.1554  0.5527  0.0123
  311SOL    HW1 1832   0.370   3.582   6.193  0.5898 -0.7352 -1.1230
  311SOL    HW2 1833   0.304   3.554   6.340 -1.2090  1.9341 -1.3683
  312SOL     OW 1834   0.934   2.657   2.136  0.0612  0.1935 -0.0665
  312SOL    HW1 1835   0.988   2.632   2.216  0.2170 -0.7167 -0.4470
  312SOL    HW2 1836   0.844   2.690   2.165  0.0977 -0.1771  0.4780
  313SOL     OW 1837   0.384   1.740   5.813  0.7276 -0.3573  0.0956
  313SOL    HW1 1838   0.459   1.749   5.748  0.9299 -1.3452  0.1773
  313SOL    HW2 1839   0.385   1.817   5.877  1.0989  0.1224 -0.4818
  314SOL     OW 1840   6.746   5.710   3.693  0.1405 -0.3039  0.3566
  314SOL    HW1 1841   6.722   5.638   3.759 -2.6643  0.4373  0.2871
  314SOL    HW2 1842   6.721   5.681   3.601  1.7678 -0.3510 -0.1090
  315SOL     OW 1843   3.815   6.720   0.733 -0.1726  0.0750  0.3910
  315SOL    HW1 1844   3.829   6.747   0.828  0.2896 -1.9192  0.9303
  315SOL    HW2 1845   3.892   6.752   0.678  0.2124  0.1197  0.9445
  316SOL     OW 1846   6.956   3.397   2.240  0.7404 -0.0377  0.3954
  316SOL    HW1 1847   7.018   3.443   2.304 -0.4758  1.1532  0.7722
  316SOL    HW2 1848   6.865   3.392   2.280  0.0157  0.4983 -1.1269
  317SOL     OW 1849   3.580   4.938   4.213 -0.7686 -0.2979 -0.5259
  317SOL    HW1 1850   3.537   4.955   4.301 -1.5617  2.4741 -1.3565
  317SOL    HW2 1851   3.676   4.914   4.227 -0.3029  2.1701  1.0927
  318SOL     OW 1852   3.087   6.524   4.456  0.0418 -0.1640 -0.5644
  318SOL    HW1 1853   3.076   6.531   4.357 -3.2507 -0.9316 -0.3791
  318SOL    HW2 1854   3.096   6.428   4.482  0.4322 -0.0035 -0.0915
  319SOL     OW 1855   1.793   2.913   1.055 -0.3181  0.0201 -0.1162
  319SOL    HW1 1856   1.871   2.947   1.109 -0.3466  0.2447 -0.2162
  319SOL    HW2 1857   1.731   2.989   1.036 -0.9177 -0.2933  0.5528
  320SOL     OW 1858   0.140   1.818   3.698 -0.2797  0.2570 -0.1853
  320SOL    HW1 1859   0.104   1.911   3.708 -2.0505 -0.3732 -0.5437
  320SOL    HW2 1860   0.152   1.796   3.601 -1.1816 -0.3702 -0.1614
  321SOL     OW 1861   3.311   6.362   0.510  0.1214  0.1797 -0.2776
  321SOL    HW1 1862   3.291   6.293   0.440  1.6624 -0.0377 -0.5503
  321SOL    HW2 1863   3.343   6.445   0.466 -0.2826  0.5544  0.1250
  322SOL     OW 1864   4.959   2.501   6.850  0.5699  0.0057 -0.0244
  322SOL    HW1 1865   5.056   2.475   6.848  0.3278 -0.8793 -0.5314
  322SOL    HW2 1866   4.931   2.515   6.945  1.3199  0.7997  0.1017
  323SOL     OW 1867   2.844   1.607   0.673 -0.0509  0.3217 -0.1770
  323SOL    HW1 1868   2.797   1.592   0.759 -0.7327 -0.0579 -0.6084
  323SOL    HW2 1869   2.854   1.705   0.656  0.1405  0.3942  0.3606
  324SOL     OW 1870   5.542   2.977   2.244  0.8067 -0.1925 -0.2492
  324SOL    HW1 1871   5.637   2.978   2.276  1.1370  1.1061 -1.1714
  324SOL    HW2 1872   5.511   3.071   2.232 -0.6512 -0.6063  0.1417
  325SOL     OW 1873   4.295   6.797   1.372 -0.9067  0.2530  0.0495
  325SOL    HW1 1874   4.271   6.738   1.448  1.1037  0.1588  0.6846
  325SOL    HW2 1875   4.280   6.748   1.286 -0.1571 -0.8832  0.5297
  326SOL     OW 1876   6.402   1.882   6.974 -0.2422 -0.1860 -0.0549
  326SOL    HW1 1877   6.347   1.924   6.901  0.6960 -1.4009 -1.5219
  326SOL    HW2 1878   6.346   1.816   7.024 -0.9546  0.8043  0.4906
  327SOL     OW 1879   1.476   0.563   4.528  0.3795 -0.5320 -0.1374
  327SOL    HW1 1880   1.419   0.640   4.559  2.1003  0.6043  0.3261
  327SOL    HW2 1881   1.544   0.596   4.463 -0.3121 -2.1180 -1.7322
  328SOL     OW 1882   0.100   2.604   6.773 -0.3963  0.5455 -0.2382
  328SOL    HW1 1883   0.121   2.570   6.681 -0.5657 -0.8355  0.2081
  328SOL    HW2 1884   0.077   2.701   6.768  2.6214  1.3106 -1.2197
  329SOL     OW 1885   6.567   5.845   1.531 -0.6386  0.7369 -0.2909
  329SOL    HW1 1886   6.622   5.897   1.596  0.7883  0.9360 -1.6206
  329SOL    HW2 1887   6.595   5.749   1.533 -0.5339  0.7590 -0.6647
  330SOL     OW 1888   5.085   1.529   2.581 -0.0167  0.1765 -0.3374
  330SOL    HW1 1889   5.104   1.591   2.657 -2.0578  1.0305 -0.4527
  330SOL    HW2 1890   5.075   1.582   2.497 -1.4104 -0.3192 -0.5101
  331SOL     OW 1891   0.829   0.825   5.893 -0.5570 -0.3671 -0.0083
  331SOL    HW1 1892   0.858   0.786   5.980 -0.3302 -2.6022 -1.0265
  331SOL    HW2 1893   0.786   0.755   5.837 -1.4899  1.2206 -1.3959
  332SOL     OW 1894   2.094   2.551   2.160  0.4080 -0.2151  0.5757
  332SOL    HW1 1895   2.061   2.643   2.184 -0.0761 -0.3496  0.4362
  332SOL    HW2 1896   2.108   2.547   2.061  2.5572  0.3918  0.8013
  333SOL     OW 1897   4.994   6.380   0.794  0.0197 -0.4106 -0.0481
  333SOL    HW1 1898   4.916   6.357   0.735 -0.6578 -0.6027  0.8951
  333SOL    HW2 1899   4.960   6.421   0.879  1.0389  1.0455 -0.3019
  334SOL     OW 1900   2.647   2.431   2.593  0.2695  0.0624 -0.2610
  334SOL    HW1 1901   2.587   2.353   2.612  0.8488 -0.3133  0.0381
  334SOL    HW2 1902   2.713   2.405   2.521 -0.1353  0.5813 -0.8294
  335SOL     OW 1903   4.736   0.719   0.488 -0.3535  0.7487 -0.1054
  335SOL    HW1 1904   4.835   0.710   0.496 -0.2275  0.4064 -1.6493
  335SOL    HW2 1905   4.696   0.729   0.578  0.9154 -0.9501  0.7103
  336SOL     OW 1906   5.431   4.341   2.282  0.0299 -0.0342 -0.3362
  336SOL    HW1 1907   5.492   4.357   2.360  0.4591  1.1539 -0.9032
  336SOL    HW2 1908   5.443   4.413   2.215 -1.0396 -0.5292 -1.0799
  337SOL     OW 1909   5.438   5.615   3.202 -0.2101  0.0103  0.4269
  337SOL    HW1 1910   5.375   5.599   3.126 -0.7058  0.8153  0.6615
  337SOL    HW2 1911   5.392   5.595   3.288  0.3632 -0.9313  0.5233
  338SOL     OW 1912   6.197   6.091   2.134  0.0253 -0.2136 -0.5483
  338SOL    HW1 1913   6.220   6.183   2.165 -0.9171  0.2990 -1.3188
  338SOL    HW2 1914   6.130   6.096   2.060 -0.0276 -1.5211 -0.6197
  339SOL     OW 1915   1.520   6.469   4.655 -0.8973 -0.5712  0.2938
  339SOL    HW1 1916   1.544   6.406   4.581 -2.0555  1.3282 -1.8136
  339SOL    HW2 1917   1.603   6.516   4.686 -0.3323 -1.6953  0.5559
  340SOL     OW 1918   2.437   6.693   3.648  0.0902 -0.3122  0.4290
  340SOL    HW1 1919   2.473   6.753   3.720  2.3077  0.1902 -0.9983
  340SOL    HW2 1920   2.512   6.637   3.611 -1.1661 -1.1903 -0.8921
  341SOL     OW 1921   1.388   3.155   1.077  0.4582 -0.0446  0.0326
  341SOL    HW1 1922   1.355   3.174   1.169  1.0651  1.8659 -0.0969
  341SOL    HW2 1923   1.311   3.157   1.013  0.3572  1.2197  0.1646
  342SOL     OW 1924   2.156   6.350   5.307  0.4078 -0.5449 -0.4283
  342SOL    HW1 1925   2.139   6.448   5.299  0.7930 -0.5137 -0.8733
  342SOL    HW2 1926   2.085   6.300   5.257 -0.1562 -0.5194  0.3298
  343SOL     OW 1927   6.650   0.824   6.011 -0.2901 -0.0726 -0.3005
  343SOL    HW1 1928   6.607   0.914   6.000  0.1815  0.1471 -0.3762
  343SOL    HW2 1929   6.692   0.819   6.102  0.6899  0.2241 -0.7261
  344SOL     OW 1930   6.072   1.955   6.144  0.4732 -0.2141  0.7142
  344SOL    HW1 1931   5.997   1.897   6.114  1.1519  0.6011 -3.1186
  344SOL    HW2 1932   6.047   2.002   6.229 -2.4195 -1.5852  0.7260
  345SOL     OW 1933   5.283   0.746   6.800 -0.1355  0.5098  0.0013
  345SOL    HW1 1934   5.308   0.650   6.790 -3.1919 -0.2955 -0.9470
  345SOL    HW2 1935   5.359   0.796   6.841  1.0155 -2.5654  1.9794
  346SOL     OW 1936   5.914   4.358   2.033 -0.5874 -0.1627  0.1939
  346SOL    HW1 1937   5.874   4.345   1.942 -1.6014 -0.5399  0.6772
  346SOL    HW2 1938   5.852   4.321   2.102  0.1137  0.2331  1.0540
  347SOL     OW 1939   0.957   6.764   2.513 -0.5264  0.6620  0.4963
  347SOL    HW1 1940   0.987   6.764   2.418  0.4499 -0.8100  0.7713
  347SOL    HW2 1941   0.960   6.858   2.548 -0.5235  1.1720 -0.7954
  348SOL     OW 1942   1.982   0.988   4.495  0.1879 -0.0070  0.0068
  348SOL    HW1 1943   1.963   0.907   4.550  0.9723 -0.0605  0.2014
  348SOL    HW2 1944   2.039   0.964   4.417  1.0839  0.4840  0.4945
  349SOL     OW 1945   2.719   0.190   6.388 -0.1628  0.3980 -0.1354
  349SOL    HW1 1946   2.636   0.197   6.443  0.0700  3.1430  0.0294
  349SOL    HW2 1947   2.743   0.281   6.353  1.9368 -0.5909 -1.4386
  350SOL     OW 1948   6.946   0.564   1.095  0.2888 -0.3797 -0.0213
  350SOL    HW1 1949   6.867   0.559   1.034  0.7577  1.4624 -0.8615
  350SOL    HW2 1950   6.920   0.530   1.185 -1.2953 -0.3777 -0.4364
  351SOL     OW 1951   2.443   4.472   0.628  0.1071  0.6230 -0.3588
  351SOL    HW1 1952   2.532   4.485   0.671  0.3219  1.1980 -0.9613
  351SOL    HW2 1953   2.430   4.375   0.606 -1.0550 -0.1918  3.2100
  352SOL     OW 1954   1.333   4.994   0.971 -0.2732  0.3935  0.1693
  352SOL    HW1 1955   1.302   4.899   0.975  0.1885  0.2829  2.4091
  352SOL    HW2 1956   1.350   5.019   0.876  0.2390 -1.9848 -0.4389
  353SOL     OW 1957   3.376   6.536   6.126 -0.1797 -0.2808  0.4228
  353SOL    HW1 1958   3.417   6.573   6.043 -0.8329 -0.3415  0.0677
  353SOL    HW2 1959   3.446   6.493   6.182  0.5492  1.1901  0.6806
  354SOL     OW 1960   1.807   4.430   6.369 -0.0275  0.3321  0.5439
  354SOL    HW1 1961   1.709   4.414   6.354 -0.1356  2.5573 -1.6847
  354SOL    HW2 1962   1.842   4.492   6.299  3.1688 -0.8839  0.9144
  355SOL     OW 1963   2.074   6.252   1.431 -0.5391 -0.2663 -0.2769
  355SOL    HW1 1964   2.036   6.306   1.505  0.1632  1.0954 -0.8744
  355SOL    HW2 1965   2.166   6.222   1.455 -1.2118 -1.9113  0.3744
  356SOL     OW 1966   4.220   5.801   5.747  0.0332 -0.1368 -0.1109
  356SOL    HW1 1967   4.293   5.828   5.810  0.5528 -1.5372 -0.0893
  356SOL    HW2 1968   4.135   5.848   5.773  1.0507  2.1139 -0.5989
  357SOL     OW 1969   1.987   0.105   1.157 -0.6505 -0.0305  0.3549
  357SOL    HW1 1970   1.902   0.071   1.198 -0.7330 -0.8465 -0.4698
  357SOL    HW2 1971   1.965   0.175   1.088 -0.5826  0.4857  0.8493
  358SOL     OW 1972   5.247   1.195   5.268  0.1702  0.3990 -0.0697
  358SOL    HW1 1973   5.243   1.293   5.248  0.4993  0.3600 -0.3412
  358SOL    HW2 1974   5.316   1.152   5.210  1.2297  0.2847  1.2504
  359SOL     OW 1975   1.722   2.888   5.212 -0.3237  0.0495  0.2584
  359SOL    HW1 1976   1.643   2.913   5.268 -0.1309 -0.5223  0.7950
  359SOL    HW2 1977   1.699   2.811   5.153 -0.2068 -0.0342  0.3217
  360SOL     OW 1978   6.940   1.660   3.683  0.3676  0.2999 -0.5255
  360SOL    HW1 1979   7.018   1.722   3.685  0.5572  0.0896 -1.1820
  360SOL    HW2 1980   6.869   1.698   3.624  1.0578 -0.7621 -2.0971
  361SOL     OW 1981   3.805   0.211   4.456 -0.1453  0.3021  0.4997
  361SOL    HW1 1982   3.708   0.236   4.452  0.0197  0.7954 -0.7430
  361SOL    HW2 1983   3.813   0.111   4.464 -0.7506  0.3187  1.4892
  362SOL     OW 1984   6.535   4.366   6.358  0.2381  0.3125  0.1644
  362SOL    HW1 1985   6.579   4.334   6.274 -0.6062  0.9730 -0.5555
  362SOL    HW2 1986   6.484   4.450   6.339 -1.4245 -0.4747  0.9316
  363SOL     OW 1987   6.724   4.845   0.101 -0.0939 -0.1673 -0.2627
  363SOL    HW1 1988   6.630   4.860   0.133  0.1506  0.4599  0.1903
  363SOL    HW2 1989   6.727   4.764   0.042 -0.7902 -0.6186  0.3003
  364SOL     OW 1990   3.749   4.459   5.555 -0.2023 -0.0960 -0.1798
  364SOL    HW1 1991   3.750   4.552   5.592 -1.8690  0.0866 -0.5180
  364SOL    HW2 1992   3.658   4.418   5.570  0.8478 -2.1562  1.0987
  365SOL     OW 1993   4.092   2.053   3.249 -0.0387 -0.7024  0.1382
  365SOL    HW1 1994   4.122   1.976   3.193  0.7846  0.2644 -0.7793
  365SOL    HW2 1995   4.057   2.126   3.191  0.0479 -0.0118  0.9272
  366SOL     OW 1996   1.160   2.058   3.733  0.0744 -0.0479  0.0541
  366SOL    HW1 1997   1.132   1.976   3.684 -0.9614 -1.5131  2.8434
  366SOL    HW2 1998   1.257   2.051   3.756  0.2956  0.1227 -0.8239
  367SOL     OW 1999   2.857   3.783   0.218  0.0138 -0.5980 -0.5125
  367SOL    HW1 2000   2.897   3.796   0.309  0.0713 -0.4722 -0.5541
  367SOL    HW2 2001   2.917   3.724   0.164  0.3607 -0.0799 -0.7099
  368SOL     OW 2002   3.941   2.947   1.032  0.1393 -0.0547 -0.2279
  368SOL    HW1 2003   4.018   2.918   0.974  0.2330 -1.4898  0.5925
  368SOL    HW2 2004   3.963   3.036   1.073  0.8991  0.0525 -0.8393
  369SOL     OW 2005   5.916   1.263   3.497 -0.1730  0.2918 -0.1854
  369SOL    HW1 2006   6.008   1.227   3.507 -0.1447  0.2289 -0.6399
  369SOL    HW2 2007   5.870   1.216   3.421  0.5505  2.5434 -2.1684
  370SOL     OW 2008   5.639   3.574   1.405 -0.1145  0.5115  0.4451
  370SOL    HW1 2009   5.739   3.583   1.404 -0.2021  1.7312  0.5845
  370SOL    HW2 2010   5.613   3.501   1.468  0.6454  1.1738  1.5796
  371SOL     OW 2011   5.457   4.896   2.249 -0.1505 -0.0747 -0.4706
  371SOL    HW1 2012   5.402   4.898   2.165 -0.6484  0.6023 -0.1358
  371SOL    HW2 2013   5.427   4.820   2.307  1.1536 -1.4508 -1.5241
  372SOL     OW 2014   6.826   0.047   2.937  0.0464 -0.1355 -0.0448
  372SOL    HW1 2015   6.738   0.011   2.905  0.6115 -0.8006 -0.8859
  372SOL    HW2 2016   6.842   0.018   3.031 -0.5695 -0.1196  0.0713
  373SOL     OW 2017   3.442   3.049   6.992  0.5733  0.2353  0.1352
  373SOL    HW1 2018   3.402   3.031   7.082  0.3932 -0.1192 -0.0154
  373SOL    HW2 2019   3.370   3.071   6.927  0.4388 -1.8322 -0.4912
  374SOL     OW 2020   3.077   1.048   6.266  0.5337  0.1187  0.6246
  374SOL    HW1 2021   3.143   1.097   6.210  0.7550  0.2600  1.0095
  374SOL    HW2 2022   3.057   1.101   6.348 -1.8169  1.2074 -0.5583
  375SOL     OW 2023   0.712   2.183   1.907 -0.0472  0.0084 -0.2712
  375SOL    HW1 2024   0.756   2.167   1.819 -0.1212  2.8184 -0.9112
  375SOL    HW2 2025   0.759   2.257   1.956 -1.2923 -0.0454  1.0846
  376SOL     OW 2026   3.862   0.668   4.226  0.2836 -0.2820 -1.2883
  376SOL    HW1 2027   3.779   0.621   4.254  0.5848 -0.4053 -0.5759
  376SOL    HW2 2028   3.923   0.604   4.179 -0.1407 -0.1211 -2.0739
  377SOL     OW 2029   1.935   5.966   4.457 -0.2285  0.3693 -0.0407
  377SOL    HW1 2030   1.924   6.023   4.376 -0.8283  2.4693  1.4342
  377SOL    HW2 2031   1.861   5.899   4.461 -0.1987  0.2573 -1.2023
  378SOL     OW 2032   6.782   3.010   6.263  0.2146  0.7347  0.6486
  378SOL    HW1 2033   6.802   3.100   6.224 -1.1196  0.2849 -1.2676
  378SOL    HW2 2034   6.684   2.991   6.254  0.3263 -0.5674  1.7975
  379SOL     OW 2035   4.502   1.398   5.900  0.1327  0.0555  0.1011
  379SOL    HW1 2036   4.495   1.308   5.942 -0.1622 -0.2711 -0.6346
  379SOL    HW2 2037   4.501   1.469   5.971 -0.0627 -0.4986  0.6494
  380SOL     OW 2038   0.086   2.553   4.831 -0.2507  0.2844 -0.1507
  380SOL    HW1 2039   0.158   2.485   4.821 -1.0303 -0.4425 -0.9892
  380SOL    HW2 2040   0.029   2.531   4.910  0.9643  1.3794  1.0793
  381SOL     OW 2041   1.310   5.344   1.538 -0.0314  0.3290 -0.0927
  381SOL    HW1 2042   1.406   5.361   1.516 -0.5986  1.3781 -1.9120
  381SOL    HW2 2043   1.268   5.429   1.570 -0.3476 -0.1550  0.8085
  382SOL     OW 2044   3.497   6.652   1.739  0.5481 -0.1383 -0.1932
  382SOL    HW1 2045   3.575   6.594   1.717  0.1629 -1.4164  1.5633
  382SOL    HW2 2046   3.412   6.604   1.715  0.2476  0.3396 -0.1049
  383SOL     OW 2047   3.319   6.938   3.651  0.1851 -0.1011  0.5150
  383SOL    HW1 2048   3.264   7.001   3.597  0.5171  0.8026  1.2212
  383SOL    HW2 2049   3.397   6.906   3.595 -0.0052  0.0719  0.1454
  384SOL     OW 2050   7.002   5.611   6.704  0.3297  0.0859 -0.8545
  384SOL    HW1 2051   6.994   5.515   6.734 -0.2498  0.4199  0.1030
  384SOL    HW2 2052   7.070   5.617   6.631 -0.9887 -1.3535 -2.2851
  385SOL     OW 2053   3.880   4.367   6.835  0.4248  0.5773  0.4234
  385SOL    HW1 2054   3.942   4.289   6.848 -0.2693  0.1183  1.0694
  385SOL    HW2 2055   3.851   4.401   6.924 -2.4919 -1.0520  0.2109
  386SOL     OW 2056   6.633   6.431   5.405 -0.2181 -0.5784  0.3922
  386SOL    HW1 2057   6.577   6.349   5.414 -1.4401  0.1640 -0.2345
  386SOL    HW2 2058   6.672   6.455   5.494  0.0628 -1.7581  0.5980
  387SOL     OW 2059   4.088   0.711   2.248 -0.0280  0.7029  0.5069
  387SOL    HW1 2060   4.023   0.786   2.260 -0.0324  0.9297 -0.7993
  387SOL    HW2 2061   4.066   0.660   2.165  1.4763  0.8367 -0.0154
  388SOL     OW 2062   3.840   3.528   2.640  0.2504 -0.0492 -0.0816
  388SOL    HW1 2063   3.791   3.589   2.702  0.5536  0.0977  0.0138
  388SOL    HW2 2064   3.905   3.580   2.585  0.7907 -0.3423  0.2746
  389SOL     OW 2065   4.157   4.675   0.557  0.1522 -0.3606 -0.2307
  389SOL    HW1 2066   4.204   4.621   0.627 -1.7282  1.4010  2.5960
  389SOL    HW2 2067   4.181   4.772   0.568 -0.5223  0.0007 -1.7447
  390SOL     OW 2068   1.127   6.668   6.241 -0.1588 -0.4988 -0.6622
  390SOL    HW1 2069   1.165   6.627   6.324 -0.2278  0.5493 -0.0967
  390SOL    HW2 2070   1.179   6.750   6.218 -0.0244 -0.8834 -1.7693
  391SOL     OW 2071   2.429   5.680   0.599 -0.3334  0.4956 -0.1627
  391SOL    HW1 2072   2.415   5.775   0.627 -1.6833 -0.2854  2.1405
  391SOL    HW2 2073   2.501   5.640   0.656 -2.2519 -0.7942  1.5000
  392SOL     OW 2074   5.859   1.036   6.884  0.1632 -0.1679 -0.0285
  392SOL    HW1 2075   5.920   0.998   6.953  0.9027 -0.4584 -0.8313
  392SOL    HW2 2076   5.855   1.136   6.895  0.4556 -0.1863  0.2817
  393SOL     OW 2077   3.229   3.749   3.212 -0.7188 -0.2993 -0.1365
  393SOL    HW1 2078   3.263   3.815   3.279 -1.2234  1.5871 -1.6672
  393SOL    HW2 2079   3.144   3.709   3.246 -1.4480  1.2878 -0.0069
  394SOL     OW 2080   3.389   2.587   0.799  0.0217 -0.0334  0.2020
  394SOL    HW1 2081   3.378   2.559   0.895  0.1177  0.2718  0.3051
  394SOL    HW2 2082   3.481   2.561   0.768  0.0591  0.0366  0.2524
  395SOL     OW 2083   5.409   3.206   5.502 -0.3053 -0.0263  0.8560
  395SOL    HW1 2084   5.395   3.108   5.491 -0.5963  0.0619  0.4015
  395SOL    HW2 2085   5.332   3.255   5.461  0.1525  0.4070  0.4956
  396SOL     OW 2086   5.353   3.491   6.801  1.0659  1.2353  0.7950
  396SOL    HW1 2087   5.375   3.573   6.854  1.0229  1.2599  0.7747
  396SOL    HW2 2088   5.285   3.436   6.850  2.6866  0.1011  1.8754
  397SOL     OW 2089   4.273   0.040   1.650  0.3013 -0.8505  0.9388
  397SOL    HW1 2090   4.228  -0.048   1.664 -0.0125 -1.0793 -1.1328
  397SOL    HW2 2091   4.348   0.029   1.585 -0.2953  0.5568 -0.0367
  398SOL     OW 2092   4.122   6.161   1.657 -0.1164  0.0067 -0.0348
  398SOL    HW1 2093   4.092   6.105   1.580  0.3279  0.4322 -0.5258
  398SOL    HW2 2094   4.166   6.102   1.725  0.4342 -0.2350 -0.5899
  399SOL     OW 2095   1.342   0.536   4.894  0.1282 -0.2298  0.1651
  399SOL    HW1 2096   1.440   0.524   4.874  0.1177  0.5029 -0.3674
  399SOL    HW2 2097   1.291   0.461   4.852  0.3521  0.0303 -0.5898
  400SOL     OW 2098   0.244   4.258   2.731  0.2973  0.3574  0.1075
  400SOL    HW1 2099   0.170   4.222   2.788  0.9785 -0.7293  0.3507
  400SOL    HW2 2100   0.243   4.211   2.642  1.0613 -0.1378  0.3446
  401SOL     OW 2101   2.922   1.228   5.305 -0.0073  0.7830  0.3645
  401SOL    HW1 2102   2.924   1.128   5.311 -0.1937  0.4119 -3.5303
  401SOL    HW2 2103   2.828   1.259   5.291  0.3424  1.2284 -1.0973
  402SOL     OW 2104   2.771   3.826   0.720  0.2729 -0.8470 -0.2276
  402SOL    HW1 2105   2.681   3.786   0.737  0.5873 -1.5749 -0.2579
  402SOL    HW2 2106   2.759   3.919   0.683 -0.4775 -1.2687 -1.0910
  403SOL     OW 2107   1.430   5.223   2.857  0.2952  0.0053  0.5881
  403SOL    HW1 2108   1.470   5.189   2.772 -2.0181  1.4042 -1.1854
  403SOL    HW2 2109   1.362   5.158   2.891  1.7664 -0.9334  1.9198
  404SOL     OW 2110   1.582   0.520   2.780 -0.5943  0.6615  0.4767
  404SOL    HW1 2111   1.648   0.596   2.781 -0.6960  0.8050 -0.9294
  404SOL    HW2 2112   1.551   0.505   2.686 -1.6711 -0.1906  0.9467
  405SOL     OW 2113   5.925   2.735   1.494 -0.8504 -0.3233  0.5482
  405SOL    HW1 2114   5.897   2.799   1.566  0.4799 -0.8936  1.6355
  405SOL    HW2 2115   5.845   2.689   1.456 -1.6715  0.7615  0.9312
  406SOL     OW 2116   0.922   6.536   4.290  0.7432 -0.5756  0.1663
  406SOL    HW1 2117   1.012   6.576   4.307  0.0311  0.1047  2.6147
  406SOL    HW2 2118   0.894   6.482   4.369 -1.6600  0.4768  0.1048
  407SOL     OW 2119   2.551   4.432   6.746  0.5103 -0.4187  0.0907
  407SOL    HW1 2120   2.502   4.471   6.824  0.1204  1.5449 -1.0676
  407SOL    HW2 2121   2.627   4.492   6.721  0.7695 -1.1419 -0.8846
  408SOL     OW 2122   4.684   6.006   5.072  0.4853 -0.0655 -0.2664
  408SOL    HW1 2123   4.770   6.031   5.116  0.2159  1.8144 -0.7067
  408SOL    HW2 2124   4.697   5.924   5.016  2.4763  1.1799 -1.7462
  409SOL     OW 2125   0.216   4.304   4.922 -0.0298 -0.5145  0.3666
  409SOL    HW1 2126   0.133   4.312   4.976  0.6009 -2.5153  1.7350
  409SOL    HW2 2127   0.294   4.288   4.983  1.1685 -0.0147 -0.9698
  410SOL     OW 2128   1.820   0.075   1.408  0.1879  0.3955 -0.3209
  410SOL    HW1 2129   1.790  -0.006   1.459 -1.7070  0.8872 -0.6192
  410SOL    HW2 2130   1.820   0.155   1.468  1.3181  0.3437 -0.2281
  411SOL     OW 2131   5.457   1.537   1.176  0.6974  0.3879 -0.3655
  411SOL    HW1 2132   5.450   1.551   1.077 -0.3609 -0.4702 -0.4362
  411SOL    HW2 2133   5.546   1.497   1.198  0.5624 -0.3642 -1.1060
  412SOL     OW 2134   1.100   1.925   1.612 -0.0177  0.2357  0.3184
  412SOL    HW1 2135   1.067   1.900   1.703  1.1504 -0.0940  0.6621
  412SOL    HW2 2136   1.073   1.855   1.546  0.4263 -0.2895  0.6884
  413SOL     OW 2137   6.598   3.955   0.339  0.0023  0.0576 -0.2984
  413SOL    HW1 2138   6.566   3.945   0.245 -0.1074  0.2201 -0.2800
  413SOL    HW2 2139   6.688   3.999   0.339 -0.3624  0.8332 -0.2968
  414SOL     OW 2140   6.616   3.664   6.185 -0.5574 -0.6761 -0.4739
  414SOL    HW1 2141   6.687   3.637   6.120 -0.1186 -0.1386 -0.2266
  414SOL    HW2 2142   6.654   3.662   6.278 -0.4773  0.8800 -0.4587
  415SOL     OW 2143   0.797   4.458   3.609 -0.5126 -0.1727  0.1527
  415SOL    HW1 2144   0.748   4.531   3.560  0.4091  0.0085 -0.5347
  415SOL    HW2 2145   0.746   4.432   3.691 -0.7740  1.3628  0.5020
  416SOL     OW 2146   1.856   6.757   1.219  0.3212  0.2595 -0.3324
  416SOL    HW1 2147   1.817   6.696   1.288  0.2985 -1.3582 -1.7126
  416SOL    HW2 2148   1.782   6.811   1.178 -0.1822 -1.0349 -1.2243
  417SOL     OW 2149   5.839   2.714   4.053 -0.2050 -0.9799 -0.1673
  417SOL    HW1 2150   5.757   2.754   4.094  0.0092 -1.6048  0.9129
  417SOL    HW2 2151   5.903   2.689   4.126  1.3851  0.4105 -1.0288
  418SOL     OW 2152   1.882   5.162   5.933  0.0126 -0.0342 -0.2866
  418SOL    HW1 2153   1.923   5.182   5.844  0.6964 -0.4862 -0.0803
  418SOL    HW2 2154   1.942   5.099   5.984  0.5404  1.6182  1.2203
  419SOL     OW 2155   1.774   1.701   1.143  0.4769  0.2859 -0.0628
  419SOL    HW1 2156   1.782   1.718   1.242 -0.8892 -3.3642  0.8207
  419SOL    HW2 2157   1.678   1.704   1.116  0.4844 -1.8895 -0.5217
  420SOL     OW 2158   6.031   2.525   4.835  0.0436 -0.2322 -0.3047
  420SOL    HW1 2159   6.006   2.620   4.818  0.1839 -0.2708 -0.7504
  420SOL    HW2 2160   6.130   2.515   4.822  0.1129 -0.3301  0.2606
  421SOL     OW 2161   2.441   3.481   6.823  0.0713  0.5902 -0.5444
  421SOL    HW1 2162   2.352   3.472   6.869 -0.0752  1.6807 -0.5909
  421SOL    HW2 2163   2.513   3.494   6.891  0.7258 -3.3091 -0.2408
  422SOL     OW 2164   1.126   4.837   1.217 -0.4169 -0.1770  0.1259
  422SOL    HW1 2165   1.164   4.774   1.283 -2.5926 -1.4958  0.2139
  422SOL    HW2 2166   1.141   4.802   1.124 -1.0310 -0.4792  0.1397
  423SOL     OW 2167   2.934   4.431   6.041 -0.1895  0.2000  0.1920
  423SOL    HW1 2168   3.005   4.497   6.015  0.2791  0.1973  1.4135
  423SOL    HW2 2169   2.901   4.384   5.959 -0.5592  1.9569 -0.7381
  424SOL     OW 2170   1.068   5.894   6.740  0.1799  0.4234  0.2020
  424SOL    HW1 2171   1.133   5.826   6.774  1.3716  0.3426 -2.0189
  424SOL    HW2 2172   0.982   5.849   6.715  0.5456 -0.0872 -0.1553
  425SOL     OW 2173   6.586   6.568   5.175 -0.1313  0.7763  0.7032
  425SOL    HW1 2174   6.489   6.567   5.150 -0.1257  0.4967  0.6873
  425SOL    HW2 2175   6.597   6.530   5.267  0.0837 -0.3023  0.2501
  426SOL     OW 2176   0.021   4.163   3.845  1.1102 -0.6729  0.0490
  426SOL    HW1 2177  -0.066   4.211   3.862  0.9488 -0.3031 -1.6593
  426SOL    HW2 2178   0.081   4.175   3.924  1.2291  2.7428 -0.4017
  427SOL     OW 2179   5.189   4.330   6.452 -0.4354  0.0452 -0.0730
  427SOL    HW1 2180   5.148   4.271   6.383 -0.3309  0.7737 -0.7825
  427SOL    HW2 2181   5.289   4.325   6.444 -0.4224  0.0467  0.0967
  428SOL     OW 2182   5.754   5.569   4.216 -0.0749 -0.0642 -0.9178
  428SOL    HW1 2183   5.824   5.612   4.158  0.3506 -0.4762 -0.7128
  428SOL    HW2 2184   5.665   5.610   4.195 -0.2329 -1.3282 -3.0924
  429SOL     OW 2185   5.456   6.436   6.135  0.0729  0.1672 -0.2614
  429SOL    HW1 2186   5.547   6.428   6.094  0.6859  2.2871  0.5267
  429SOL    HW2 2187   5.391   6.465   6.064  0.5122  0.9331 -0.3657
  430SOL     OW 2188   1.116   5.524   0.344 -0.1304  0.0228 -0.2511
  430SOL    HW1 2189   1.185   5.459   0.375 -2.2622 -1.6643  1.3633
  430SOL    HW2 2190   1.049   5.477   0.287 -0.8332  1.1981 -0.4355
  431SOL     OW 2191   3.851   0.519   0.053 -0.2488  0.1846  0.6058
  431SOL    HW1 2192   3.942   0.560   0.053 -0.1984  0.1044 -0.4018
  431SOL    HW2 2193   3.788   0.579   0.004 -0.4764 -0.2951  0.3079
  432SOL     OW 2194   3.075   1.809   3.496 -0.1802  0.1736  0.0985
  432SOL    HW1 2195   3.049   1.786   3.590  0.5833  1.8310  0.7651
  432SOL    HW2 2196   3.174   1.798   3.486 -0.0533  1.2996 -0.0686
  433SOL     OW 2197   2.107   0.774   6.371 -0.3545  0.4058 -0.0781
  433SOL    HW1 2198   2.108   0.811   6.278  2.5802 -3.3830 -1.8198
  433SOL    HW2 2199   2.192   0.799   6.418  0.9582 -2.4433 -0.7341
  434SOL     OW 2200   2.022   6.861   5.566 -0.1309  0.2721  0.1673
  434SOL    HW1 2201   1.998   6.770   5.598  0.2412  0.0002 -0.3195
  434SOL    HW2 2202   2.121   6.874   5.569 -0.0297  0.0427 -1.3382
  435SOL     OW 2203   1.907   1.731   2.613 -0.5688  0.7359  0.1298
  435SOL    HW1 2204   1.832   1.796   2.598 -0.5214  0.7902  0.1322
  435SOL    HW2 2205   1.985   1.778   2.654 -0.7361  0.5665  0.6498
  436SOL     OW 2206   5.471   0.707   2.617 -0.2191 -0.2524  0.0465
  436SOL    HW1 2207   5.499   0.744   2.706  1.0664 -0.2725 -0.3247
  436SOL    HW2 2208   5.415   0.626   2.630 -0.3438 -0.0432  0.8430
  437SOL     OW 2209   4.235   4.926   3.552 -0.0386 -0.1467  0.0181
  437SOL    HW1 2210   4.313   4.949   3.494 -0.4232  1.3349  0.0601
  437SOL    HW2 2211   4.249   4.963   3.643  0.5888 -2.5150  0.9588
  438SOL     OW 2212   1.608   6.123   2.146 -0.4871  0.6427 -0.2655
  438SOL    HW1 2213   1.703   6.110   2.117 -0.3106  0.0332  0.5410
  438SOL    HW2 2214   1.603   6.121   2.246 -1.4403 -0.1027 -0.3069
  439SOL     OW 2215   1.640   2.567   4.301  0.1643 -0.0634  0.2638
  439SOL    HW1 2216   1.565   2.632   4.310  0.9467  1.1567 -1.4854
  439SOL    HW2 2217   1.726   2.617   4.289  0.8180 -1.4118 -0.9044
  440SOL     OW 2218   2.003   3.283   5.165 -0.0843 -0.0181 -0.8472
  440SOL    HW1 2219   2.065   3.356   5.193 -1.1995  0.4708  0.4554
  440SOL    HW2 2220   1.964   3.305   5.076  1.1046 -0.0260 -1.3893
  441SOL     OW 2221   1.550   1.871   6.777  0.1345 -0.2459  0.6035
  441SOL    HW1 2222   1.473   1.922   6.814 -0.5948 -0.8301 -0.0903
  441SOL    HW2 2223   1.587   1.918   6.697 -0.7408 -0.9330 -0.2308
  442SOL     OW 2224   2.401   0.013   1.755 -0.0440  0.1637 -0.6530
  442SOL    HW1 2225   2.458   0.028   1.675 -1.3194 -0.2813 -1.6787
  442SOL    HW2 2226   2.308  -0.013   1.726 -0.4123 -0.4577  0.9595
  443SOL     OW 2227   5.223   0.970   5.438 -0.2455 -0.3898  0.6386
  443SOL    HW1 2228   5.167   0.905   5.386  0.5673 -1.4704  1.0873
  443SOL    HW2 2229   5.234   1.054   5.384 -0.4744 -1.0022 -0.3875
  444SOL     OW 2230   1.655   4.161   4.328  0.2157  0.1318 -0.0188
  444SOL    HW1 2231   1.559   4.151   4.355 -0.3345  0.1489 -1.8442
  444SOL    HW2 2232   1.670   4.255   4.295  1.1375  0.4356  1.1987
  445SOL     OW 2233   2.996   0.284   6.961 -0.3220 -0.2344  0.4953
  445SOL    HW1 2234   3.048   0.234   6.891  0.4360  1.6472 -0.3451
  445SOL    HW2 2235   3.034   0.263   7.051  0.8714 -0.1331  0.0383
  446SOL     OW 2236   5.761   0.295   2.217  0.2874 -0.1329 -0.4625
  446SOL    HW1 2237   5.814   0.227   2.167  0.7432 -0.7710  0.8490
  446SOL    HW2 2238   5.701   0.344   2.153  0.6088 -1.1317 -1.5670
  447SOL     OW 2239   1.141   4.782   0.630  0.1354 -0.0436 -0.3709
  447SOL    HW1 2240   1.054   4.742   0.659 -0.7256  1.8092 -0.2494
  447SOL    HW2 2241   1.213   4.713   0.635 -0.8114 -0.9678  2.0341
  448SOL     OW 2242   2.803   0.590   4.720 -0.1178  0.3431  0.3670
  448SOL    HW1 2243   2.899   0.618   4.725  0.1883 -0.6903  0.7143
  448SOL    HW2 2244   2.758   0.637   4.644  0.3421  1.7286  0.9207
  449SOL     OW 2245   0.792   4.435   6.752 -0.0611  0.2794 -0.3069
  449SOL    HW1 2246   0.707   4.409   6.796  0.2903  0.0349  0.2347
  449SOL    HW2 2247   0.824   4.360   6.693 -0.0511  0.2421 -0.2539
  450SOL     OW 2248   6.337   6.042   6.956  0.0097 -0.3758 -0.0827
  450SOL    HW1 2249   6.348   5.957   7.008  0.6816 -0.5487 -0.4889
  450SOL    HW2 2250   6.374   6.029   6.864 -0.8045  0.0527 -0.4798
  451SOL     OW 2251   3.505   6.138   5.981 -0.0527 -0.1055  0.0566
  451SOL    HW1 2252   3.598   6.120   5.949 -0.1948 -0.7021 -0.0475
  451SOL    HW2 2253   3.440   6.115   5.908 -0.2134  1.9544 -0.4967
  452SOL     OW 2254   3.387   6.760   3.193  0.2621  0.0592  0.2497
  452SOL    HW1 2255   3.399   6.859   3.198 -0.9800  0.2307  0.0088
  452SOL    HW2 2256   3.351   6.726   3.280  2.0992 -0.4184  0.8765
  453SOL     OW 2257   1.242   2.436   3.828  0.9502  0.0099  0.2817
  453SOL    HW1 2258   1.247   2.387   3.915  0.1358  0.1351  0.4085
  453SOL    HW2 2259   1.324   2.416   3.774  0.5213 -1.7172  0.2175
  454SOL     OW 2260   4.953   4.778   6.188 -0.3961 -0.7224 -0.2797
  454SOL    HW1 2261   4.984   4.685   6.168  1.6104 -0.5279  1.5412
  454SOL    HW2 2262   4.938   4.827   6.102 -1.3825 -2.6531 -1.2747
  455SOL     OW 2263   3.116   2.992   0.684 -0.5967 -0.3509  0.8540
  455SOL    HW1 2264   3.194   2.932   0.666 -1.6208 -1.0105 -1.8591
  455SOL    HW2 2265   3.053   2.946   0.746  0.1749 -0.6844  1.4065
  456SOL     OW 2266   3.257   3.275   4.708 -0.0724 -0.4523 -0.8262
  456SOL    HW1 2267   3.354   3.276   4.684  0.0230 -0.2632 -0.4378
  456SOL    HW2 2268   3.247   3.250   4.804 -0.3313  0.7968 -0.5163
  457SOL     OW 2269   0.747   1.543   4.751  0.3301 -0.1961  0.0035
  457SOL    HW1 2270   0.782   1.518   4.841 -0.8194 -2.1853 -0.0486
  457SOL    HW2 2271   0.647   1.544   4.753  0.2980  0.3349 -1.0944
  458SOL     OW 2272   6.388   0.213   2.279  0.6981  0.0848 -0.2931
  458SOL    HW1 2273   6.437   0.169   2.354 -0.4627 -1.3777 -0.3430
  458SOL    HW2 2274   6.292   0.223   2.304  0.5009  0.5093 -1.1993
  459SOL     OW 2275   0.569   3.903   0.591  0.8344 -0.6408 -0.0547
  459SOL    HW1 2276   0.525   3.919   0.679  4.3840 -1.3766  2.0822
  459SOL    HW2 2277   0.526   3.824   0.547 -1.9377  0.5901  0.2391
  460SOL     OW 2278   1.313   5.361   0.443  0.2978 -0.7500 -0.1428
  460SOL    HW1 2279   1.346   5.267   0.440 -2.2137 -1.7581  0.9744
  460SOL    HW2 2280   1.304   5.391   0.538  0.7965  0.5349 -0.4746
  461SOL     OW 2281   4.042   6.443   3.750 -0.0268  0.8826 -0.4308
  461SOL    HW1 2282   4.106   6.422   3.676 -0.1221  1.8960 -0.8132
  461SOL    HW2 2283   4.093   6.454   3.836  0.2515  1.1130 -0.6237
  462SOL     OW 2284   3.642   2.110   7.015  0.4440  0.0820 -0.1498
  462SOL    HW1 2285   3.609   2.015   7.012  4.2358 -1.6334  2.9697
  462SOL    HW2 2286   3.724   2.118   6.959 -0.2882  1.8427 -1.0389
  463SOL     OW 2287   2.796   2.446   6.049  0.3553 -0.4209  0.8778
  463SOL    HW1 2288   2.888   2.415   6.025 -0.2522 -1.2526 -0.5639
  463SOL    HW2 2289   2.750   2.376   6.103  0.8237  0.3473  2.3216
  464SOL     OW 2290   6.768   0.598   0.868 -0.2726  0.2025  0.2717
  464SOL    HW1 2291   6.824   0.624   0.790 -1.2122 -0.8785 -0.8072
  464SOL    HW2 2292   6.708   0.675   0.893  1.4788  1.2991  1.3261
  465SOL     OW 2293   5.623   2.939   5.665 -0.2138 -0.1361  0.3000
  465SOL    HW1 2294   5.566   2.935   5.582 -0.8214  1.9002  0.5546
  465SOL    HW2 2295   5.569   2.909   5.743 -0.4751  0.3653  0.3177
  466SOL     OW 2296   0.555   5.650   0.661  0.3118  0.4760  0.5685
  466SOL    HW1 2297   0.576   5.747   0.654 -0.2326  0.4991 -0.9501
  466SOL    HW2 2298   0.605   5.600   0.590 -0.8181 -0.1155  0.1810
  467SOL     OW 2299   3.483   3.567   3.199 -0.3217 -0.1861  0.2351
  467SOL    HW1 2300   3.387   3.553   3.176 -0.3709  0.7519 -0.1743
  467SOL    HW2 2301   3.505   3.664   3.194  0.8591 -0.4679 -0.5233
  468SOL     OW 2302   2.537   1.848   4.710 -0.5547 -0.1237  0.2894
  468SOL    HW1 2303   2.459   1.910   4.726 -0.2551 -0.2157  2.4540
  468SOL    HW2 2304   2.620   1.891   4.745  0.0100 -0.8984 -0.1024
  469SOL     OW 2305   5.239   2.732   6.114 -0.4003  0.3960  0.4553
  469SOL    HW1 2306   5.326   2.727   6.163 -0.1387 -0.5280 -0.0823
  469SOL    HW2 2307   5.236   2.662   6.043 -1.7197  0.2032  0.6738
  470SOL     OW 2308   0.855   0.732   6.693  0.3369 -0.0560 -0.5502
  470SOL    HW1 2309   0.800   0.661   6.736 -0.4485  0.0662 -1.3270
  470SOL    HW2 2310   0.949   0.727   6.728 -0.1608 -0.2461  0.8084
  471SOL     OW 2311   4.591   4.418   4.541  0.4683 -0.2977  0.2325
  471SOL    HW1 2312   4.670   4.357   4.539  0.4844 -0.3536  1.5166
  471SOL    HW2 2313   4.560   4.428   4.636  0.5994  1.8308  0.1007
  472SOL     OW 2314   3.260   2.793   6.395  0.2495 -0.0955  0.3788
  472SOL    HW1 2315   3.330   2.737   6.351 -0.3387 -1.3475  0.9907
  472SOL    HW2 2316   3.208   2.841   6.324  0.4761 -0.6776 -0.1967
  473SOL     OW 2317   5.761   0.082   2.627 -0.1892  0.3145  0.1075
  473SOL    HW1 2318   5.752  -0.010   2.589 -0.8157  0.3605  0.1342
  473SOL    HW2 2319   5.795   0.144   2.556  0.4892  0.0119  0.1632
  474SOL     OW 2320   2.352   5.306   1.615 -0.6145 -0.1598  0.5628
  474SOL    HW1 2321   2.343   5.227   1.676 -0.1320  0.3260  1.2846
  474SOL    HW2 2322   2.420   5.286   1.544  0.4106  0.0269  1.4644
  475SOL     OW 2323   3.189   2.393   1.427  0.2589  0.1807  0.5298
  475SOL    HW1 2324   3.167   2.325   1.358 -0.8893 -0.1591  1.2058
  475SOL    HW2 2325   3.123   2.388   1.502  0.2451  1.9386  0.6787
  476SOL     OW 2326   6.438   5.381   0.930  0.4423 -0.2760 -0.1404
  476SOL    HW1 2327   6.489   5.364   0.845  0.5437  1.5872 -0.5003
  476SOL    HW2 2328   6.355   5.325   0.931 -1.1844  1.8624 -2.9817
  477SOL     OW 2329   3.908   6.634   3.615 -0.6714 -0.4811  0.2166
  477SOL    HW1 2330   3.814   6.625   3.647 -0.7286  2.5137  1.2147
  477SOL    HW2 2331   3.963   6.560   3.651 -2.0505 -0.6260  2.1634
  478SOL     OW 2332   6.558   3.841   2.683 -0.4910  0.7239  0.2181
  478SOL    HW1 2333   6.524   3.858   2.591  1.3796  0.0989 -0.6474
  478SOL    HW2 2334   6.491   3.872   2.750 -2.0172  0.9355 -1.3417
  479SOL     OW 2335   1.185   2.471   1.973 -0.2025  0.4154 -0.7855
  479SOL    HW1 2336   1.239   2.551   1.945  0.6209  0.5477  1.0079
  479SOL    HW2 2337   1.156   2.483   2.068 -2.0334 -0.4143 -1.1991
  480SOL     OW 2338   5.322   0.322   5.639  0.2841  0.3630 -0.0391
  480SOL    HW1 2339   5.277   0.236   5.618  1.5900 -0.4032  0.2125
  480SOL    HW2 2340   5.332   0.376   5.556  1.6637 -0.8191 -0.6704
  481SOL     OW 2341   1.835   2.882   2.049  0.0844  0.0459 -0.3632
  481SOL    HW1 2342   1.876   2.948   1.985 -0.4839  1.0251  0.2615
  481SOL    HW2 2343   1.839   2.918   2.142 -0.8490 -0.4942 -0.0967
  482SOL     OW 2344   6.967   2.688   1.786 -0.2369 -0.0021  0.1928
  482SOL    HW1 2345   6.946   2.592   1.807 -0.4494 -0.5797 -2.3892
  482SOL    HW2 2346   7.033   2.723   1.854 -1.7035 -1.2857  2.3938
  483SOL     OW 2347   6.171   5.764   3.791 -0.0062  0.1766 -0.1885
  483SOL    HW1 2348   6.270   5.756   3.795  0.0139  0.9309  2.2418
  483SOL    HW2 2349   6.146   5.860   3.780 -0.4503  0.2791  1.4804
  484SOL     OW 2350   6.515   5.519   2.904  0.2982  0.1416 -0.6255
  484SOL    HW1 2351   6.609   5.550   2.920  0.2523  0.4525 -0.9545
  484SOL    HW2 2352   6.477   5.566   2.824  1.0679 -2.5199 -2.7112
  485SOL     OW 2353   5.019   2.534   1.380  0.3441  0.3462 -0.2347
  485SOL    HW1 2354   4.974   2.599   1.442 -2.4849 -3.2490  1.8872
  485SOL    HW2 2355   5.118   2.542   1.389  0.0536  1.7133  2.8325
  486SOL     OW 2356   1.059   1.919   3.286  0.2640  0.7837 -0.5241
  486SOL    HW1 2357   1.013   1.834   3.311 -2.3509  1.8389 -1.4164
  486SOL    HW2 2358   1.155   1.900   3.266 -0.2357 -1.9555 -0.7330
  487SOL     OW 2359   2.121   4.063   1.120  0.4876 -0.1496  0.7340
  487SOL    HW1 2360   2.041   4.078   1.062  1.6059 -1.2182 -1.1859
  487SOL    HW2 2361   2.178   4.145   1.120  2.2070 -1.1770 -2.6129
  488SOL     OW 2362   4.816   2.547   5.081 -0.1649  0.4755  0.1993
  488SOL    HW1 2363   4.845   2.559   4.986  0.2016 -0.6686  0.1600
  488SOL    HW2 2364   4.783   2.454   5.095  0.4293  0.4254  1.3747
  489SOL     OW 2365   4.786   2.909   1.700 -0.5404  0.2113 -0.3583
  489SOL    HW1 2366   4.722   2.918   1.623 -0.0794  1.3138 -0.6424
  489SOL    HW2 2367   4.745   2.947   1.782 -0.3592  0.6715 -0.4784
  490SOL     OW 2368   3.636   5.235   5.702  0.5315  0.2832  0.3295
  490SOL    HW1 2369   3.705   5.306   5.717  0.9527 -0.0014 -0.2160
  490SOL    HW2 2370   3.680   5.152   5.669  0.0142 -0.1674  0.7423
  491SOL     OW 2371   5.839   2.252   1.144  0.6454 -0.1254  0.1455
  491SOL    HW1 2372   5.912   2.316   1.169  0.0192  0.7718 -0.2933
  491SOL    HW2 2373   5.880   2.166   1.113  1.5112 -1.5640  4.6193
  492SOL     OW 2374   3.900   2.199   2.592  0.2902 -0.0436 -0.2284
  492SOL    HW1 2375   3.937   2.187   2.501 -0.0565  1.3538 -0.5766
  492SOL    HW2 2376   3.926   2.289   2.628  1.0170 -0.8423  1.3469
  493SOL     OW 2377   2.924   2.011   4.192  0.1640 -0.8942  0.3975
  493SOL    HW1 2378   2.979   2.093   4.174  1.0935 -1.2367  1.5099
  493SOL    HW2 2379   2.860   2.029   4.267  0.6811 -1.2965  0.9479
  494SOL     OW 2380   5.340   6.131   6.671  0.1629 -0.1075 -0.1770
  494SOL    HW1 2381   5.281   6.087   6.740 -0.3647  0.6151 -0.1589
  494SOL    HW2 2382   5.295   6.127   6.582  0.3682 -0.0975 -0.2804
  495SOL     OW 2383   5.647   0.475   2.777 -0.3399  0.5159 -0.3173
  495SOL    HW1 2384   5.565   0.420   2.791  0.3954 -0.3416  0.7728
  495SOL    HW2 2385   5.622   0.572   2.778 -1.0726  0.3959  2.4792
  496SOL     OW 2386   5.372   4.659   5.392 -0.4241 -0.1143  0.0165
  496SOL    HW1 2387   5.342   4.565   5.407  0.5035 -0.5294 -0.6192
  496SOL    HW2 2388   5.294   4.720   5.397 -0.9776 -0.8636  0.8813
  497SOL     OW 2389   4.001   3.751   2.845  0.1259  0.5078  0.1982
  497SOL    HW1 2390   3.930   3.814   2.812  0.3936 -0.4160 -2.3620
  497SOL    HW2 2391   4.024   3.774   2.940 -1.9081  2.3086  0.3423
  498SOL     OW 2392   4.992   2.766   3.293 -0.3621  0.2950 -0.0307
  498SOL    HW1 2393   4.902   2.807   3.283 -0.3733  0.7370  1.5835
  498SOL    HW2 2394   5.029   2.743   3.203 -1.2805  1.8472 -0.8433
  499SOL     OW 2395   6.568   4.596   5.420  0.3248 -0.1990 -0.5711
  499SOL    HW1 2396   6.610   4.507   5.437 -0.7977 -0.5791  0.3864
  499SOL    HW2 2397   6.540   4.636   5.507 -0.9876  0.1669 -1.1396
  500SOL     OW 2398   0.266   4.045   5.772 -0.2919  0.3399  0.0478
  500SOL    HW1 2399   0.173   4.027   5.804  0.1110  0.0065  1.0884
  500SOL    HW2 2400   0.311   3.957   5.751 -0.3676  0.5248 -0.9422
  501SOL     OW 2401   0.964   2.039   0.371 -0.5862  0.4048  0.0096
  501SOL    HW1 2402   0.866   2.059   0.376 -0.3055  2.4897 -1.3105
  501SOL    HW2 2403   0.998   2.016   0.462 -1.7702  2.5569  1.0862
  502SOL     OW 2404   3.331   3.737   2.181 -0.5201 -0.3380  0.3507
  502SOL    HW1 2405   3.253   3.688   2.220 -1.5724  0.0601 -1.1164
  502SOL    HW2 2406   3.343   3.709   2.086  1.5810 -0.8684  0.7451
  503SOL     OW 2407   1.725   1.700   0.159  0.1852  0.0161  0.8989
  503SOL    HW1 2408   1.666   1.778   0.182  0.2866  0.3175  0.1627
  503SOL    HW2 2409   1.809   1.705   0.213  0.0887  0.2842  1.0295
  504SOL     OW 2410   3.039   2.994   0.270  0.3345 -0.6036  0.3278
  504SOL    HW1 2411   2.942   3.003   0.292  0.7226 -0.0682  1.9146
  504SOL    HW2 2412   3.058   3.042   0.184 -0.8470 -0.9478 -0.1405
  505SOL     OW 2413   2.174   6.737   4.409  0.0992 -0.2763 -0.0292
  505SOL    HW1 2414   2.210   6.794   4.482  1.8679 -0.9187 -0.3597
  505SOL    HW2 2415   2.149   6.795   4.331  1.9155  0.0774 -0.3833
  506SOL     OW 2416   5.925   1.757   2.273  0.5734  0.1690  0.2801
  506SOL    HW1 2417   5.919   1.658   2.268  1.8193 -0.0452  1.9959
  506SOL    HW2 2418   5.890   1.787   2.362 -1.1978  1.4420 -0.7815
  507SOL     OW 2419   6.177   2.432   2.942 -0.0824 -0.2552  0.5451
  507SOL    HW1 2420   6.195   2.430   3.040  0.6303 -3.1409  0.4286
  507SOL    HW2 2421   6.087   2.393   2.924 -0.5013  0.8781  0.0462
  508SOL     OW 2422   1.580   5.927   0.266 -0.4930 -0.4235  0.2541
  508SOL    HW1 2423   1.510   5.997   0.283  0.0992 -0.2119  2.0380
  508SOL    HW2 2424   1.617   5.939   0.174  0.6509  2.6407  0.9913
  509SOL     OW 2425   5.469   6.079   0.212  0.0063 -0.2220  0.1685
  509SOL    HW1 2426   5.547   6.075   0.149 -0.3120  0.4575 -0.2798
  509SOL    HW2 2427   5.461   6.171   0.250  0.8008 -0.8716  2.0127
  510SOL     OW 2428   6.334   4.002   0.455 -0.2273 -0.6998 -0.0509
  510SOL    HW1 2429   6.417   3.952   0.429  0.5641  1.1575 -1.3156
  510SOL    HW2 2430   6.269   4.001   0.379  0.6325  1.7523 -0.9470
  511SOL     OW 2431   4.525   0.783   6.946  0.1603 -0.2218  0.7877
  511SOL    HW1 2432   4.513   0.685   6.926 -1.3443 -0.0373  0.6537
  511SOL    HW2 2433   4.439   0.821   6.978  0.7425  1.0650  0.8934
  512SOL     OW 2434   0.294   2.438   0.502 -0.2035 -0.5888  0.5260
  512SOL    HW1 2435   0.324   2.533   0.500  0.6966 -0.7945 -2.9188
  512SOL    HW2 2436   0.369   2.379   0.533  0.0781 -0.3790  0.2417
  513SOL     OW 2437   1.949   1.770   6.310 -0.0447  0.1048  0.2687
  513SOL    HW1 2438   1.952   1.677   6.347  3.0761 -0.4673 -1.0874
  513SOL    HW2 2439   1.967   1.835   6.383 -0.1862 -0.5267  0.8799
  514SOL     OW 2440   3.271   1.231   6.262  0.7057  0.2841 -0.1109
  514SOL    HW1 2441   3.365   1.217   6.230  1.0212  1.5263  0.2116
  514SOL    HW2 2442   3.267   1.315   6.317  0.0730 -1.4013  2.5931
  515SOL     OW 2443   2.610   5.581   0.781 -0.2282  0.2396 -0.5135
  515SOL    HW1 2444   2.626   5.614   0.874 -3.8533 -1.7834  1.0251
  515SOL    HW2 2445   2.698   5.559   0.738  1.5479 -0.6737  3.1641
  516SOL     OW 2446   0.732   6.064   4.891  0.6289  0.2772 -0.1956
  516SOL    HW1 2447   0.731   5.967   4.914 -0.5189  0.3877  0.2681
  516SOL    HW2 2448   0.731   6.075   4.791 -2.8374 -0.2193 -0.3100
  517SOL     OW 2449   2.361   6.382   2.766 -0.3255 -0.1460  0.2004
  517SOL    HW1 2450   2.304   6.311   2.724  0.1749 -1.0088  0.9426
  517SOL    HW2 2451   2.457   6.353   2.764  0.3523  1.8802 -2.2825
  518SOL     OW 2452   1.920   6.677   4.543  0.4115 -0.3754 -0.1328
  518SOL    HW1 2453   2.003   6.725   4.514 -0.4913  0.2945 -1.7478
  518SOL    HW2 2454   1.926   6.581   4.517 -0.1476  0.1024 -2.1669
  519SOL     OW 2455   5.215   3.496   4.316  0.2136 -0.3898 -0.5535
  519SOL    HW1 2456   5.238   3.590   4.293  0.3362  0.1649  1.6561
  519SOL    HW2 2457   5.122   3.476   4.286  0.4411  0.1892 -1.6688
  520SOL     OW 2458   2.521   7.014   5.573 -0.1691 -0.1579 -0.1401
  520SOL    HW1 2459   2.509   7.031   5.475 -0.6709  2.7580  0.3350
  520SOL    HW2 2460   2.442   6.964   5.609 -1.6951  1.7982 -0.6311
  521SOL     OW 2461   5.730   5.832   5.899  0.0152  0.3983  0.0883
  521SOL    HW1 2462   5.760   5.806   5.990 -0.0002  1.5253  0.4250
  521SOL    HW2 2463   5.810   5.843   5.840 -0.0276 -1.7259 -0.4615
  522SOL     OW 2464   3.471   4.969   5.979 -0.1962 -0.0430  0.6979
  522SOL    HW1 2465   3.530   5.045   5.954  2.0163 -2.0437 -0.6143
  522SOL    HW2 2466   3.382   5.004   6.008  0.5801  2.9778 -0.1754
  523SOL     OW 2467   4.837   3.920   3.187  0.1911  0.2371  0.6611
  523SOL    HW1 2468   4.836   3.825   3.215  1.1930 -0.1348 -0.4628
  523SOL    HW2 2469   4.907   3.969   3.240 -0.5381  0.4328  1.4573
  524SOL     OW 2470   5.703   1.581   2.461 -0.0356 -0.4939 -0.0577
  524SOL    HW1 2471   5.750   1.525   2.530 -0.0936  0.6881  0.9680
  524SOL    HW2 2472   5.647   1.650   2.506  0.1563  0.5036 -1.2917
  525SOL     OW 2473   0.598   0.031   4.495  0.2290  0.0987 -0.3801
  525SOL    HW1 2474   0.564   0.040   4.402 -2.2231  1.1499  0.5432
  525SOL    HW2 2475   0.524   0.049   4.560  1.2186 -3.0211  1.8181
  526SOL     OW 2476   2.615   0.623   4.974  0.1504  0.4491  0.5969
  526SOL    HW1 2477   2.661   0.630   4.885 -0.3879  1.1075  0.3649
  526SOL    HW2 2478   2.683   0.601   5.044  0.7376  0.8550  0.1707
  527SOL     OW 2479   3.413   1.792   5.281  0.0458 -0.2738  0.3141
  527SOL    HW1 2480   3.383   1.715   5.337 -0.3076  0.0759  0.6111
  527SOL    HW2 2481   3.334   1.832   5.234  0.1001  0.3811  0.7620
  528SOL     OW 2482   5.852   2.936   1.678 -0.0821 -0.3095 -0.0254
  528SOL    HW1 2483   5.817   3.024   1.646 -4.1061 -1.3314  0.9349
  528SOL    HW2 2484   5.838   2.929   1.777  2.9366 -1.0206  0.4640
  529SOL     OW 2485   6.108   2.993   6.380  0.1801  1.0715  0.0866
  529SOL    HW1 2486   6.196   3.037   6.395  0.5645  1.1006 -1.9708
  529SOL    HW2 2487   6.035   3.062   6.385  0.4943  1.4390 -0.3145
  530SOL     OW 2488   1.317   6.736   3.265  0.1082 -0.4787 -0.0782
  530SOL    HW1 2489   1.346   6.827   3.233  0.2501 -0.7576 -0.7519
  530SOL    HW2 2490   1.224   6.742   3.302  0.0607 -0.0835 -0.2558
  531SOL     OW 2491   1.410   1.568   1.156  0.3959 -0.3154  0.2644
  531SOL    HW1 2492   1.436   1.486   1.106 -0.4345 -0.9311  0.8115
  531SOL    HW2 2493   1.465   1.575   1.240 -0.8874 -1.4058  1.2250
  532SOL     OW 2494   1.259   5.051   6.589  0.0096  0.2466  0.2312
  532SOL    HW1 2495   1.229   5.085   6.499  0.2612  1.9877  0.7633
  532SOL    HW2 2496   1.200   5.089   6.660  1.5750  1.2841  1.0344
  533SOL     OW 2497   6.360   5.749   3.431 -0.5984 -0.7314  0.5158
  533SOL    HW1 2498   6.287   5.712   3.373  0.7198  0.4964 -2.0605
  533SOL    HW2 2499   6.324   5.826   3.484 -2.0436 -2.4109  2.1314
  534SOL     OW 2500   3.188   3.885   1.333  0.2867  0.4206 -0.2333
  534SOL    HW1 2501   3.220   3.848   1.246 -1.7667 -0.1987 -0.7630
  534SOL    HW2 2502   3.105   3.938   1.319 -0.1042  0.2829  1.3457
  535SOL     OW 2503   3.110   6.269   5.061 -0.3751  0.2148  0.7364
  535SOL    HW1 2504   3.161   6.353   5.041 -0.6740 -0.2737 -2.6438
  535SOL    HW2 2505   3.024   6.293   5.107  0.0504  1.6177  0.8690
  536SOL     OW 2506   0.266   2.548   6.241 -0.1568 -0.1832 -0.1221
  536SOL    HW1 2507   0.193   2.615   6.229  0.2105  0.2797  0.1938
  536SOL    HW2 2508   0.290   2.542   6.338 -0.5165 -1.1229 -0.0843
  537SOL     OW 2509   1.037   5.672   2.224  0.2814  0.3090  0.4735
  537SOL    HW1 2510   1.126   5.630   2.209  0.2742  0.1099  0.9900
  537SOL    HW2 2511   1.034   5.716   2.314  0.0005  0.6826  0.2879
  538SOL     OW 2512   4.061   5.960   3.961  0.1480 -0.1781 -0.5748
  538SOL    HW1 2513   4.048   5.924   3.868 -0.7567 -1.5399  0.0455
  538SOL    HW2 2514   3.981   5.938   4.016  1.6906 -1.6371  1.2099
  539SOL     OW 2515   0.480   1.326   2.679 -0.7472 -0.0484  0.4528
  539SOL    HW1 2516   0.460   1.340   2.581  0.0217  0.8624  0.4100
  539SOL    HW2 2517   0.571   1.362   2.699 -0.8082 -0.4521  1.4627
  540SOL     OW 2518   6.585   4.530   4.801 -0.4452 -0.2346 -0.0999
  540SOL    HW1 2519   6.634   4.611   4.768  1.0273  0.6132  3.6305
  540SOL    HW2 2520   6.490   4.554   4.820 -0.2374  0.4034  0.1704
  541SOL     OW 2521   0.514   3.568   1.362 -0.1542  0.1979 -0.3745
  541SOL    HW1 2522   0.571   3.509   1.419  0.4058 -0.5898 -1.6940
  541SOL    HW2 2523   0.507   3.659   1.404  0.9135 -0.1129  0.5130
  542SOL     OW 2524   0.633   0.468   1.406 -0.3066 -0.1082  0.2732
  542SOL    HW1 2525   0.603   0.374   1.425 -2.0766 -0.1749 -2.3249
  542SOL    HW2 2526   0.725   0.465   1.366 -0.7397 -0.8678 -0.7230
  543SOL     OW 2527   4.075   6.874   0.171  0.3287  0.0953 -0.5409
  543SOL    HW1 2528   4.027   6.956   0.140 -1.3574 -0.9122 -0.7598
  543SOL    HW2 2529   4.132   6.838   0.097 -0.0175  0.3048 -0.9141
  544SOL     OW 2530   2.368   1.949   5.779  0.5909 -0.0271 -0.1249
  544SOL    HW1 2531   2.315   1.968   5.696 -2.2367  1.4857  1.8684
  544SOL    HW2 2532   2.347   2.017   5.849  3.1752 -1.0101  1.7771
  545SOL     OW 2533   1.703   0.722   0.051  0.2652 -0.7842 -0.3927
  545SOL    HW1 2534   1.713   0.641  -0.007 -0.0520 -0.7815 -0.4492
  545SOL    HW2 2535   1.657   0.795   0.000  0.5530 -0.5651 -0.3430
  546SOL     OW 2536   3.558   4.258   0.783 -0.0498  0.4541  0.1336
  546SOL    HW1 2537   3.526   4.176   0.830 -0.5779  1.3419  1.3584
  546SOL    HW2 2538   3.636   4.234   0.724 -0.2481 -0.9286  0.4024
  547SOL     OW 2539   3.285   6.466   2.078 -0.0706  0.4966 -0.5124
  547SOL    HW1 2540   3.380   6.481   2.106 -0.3852  2.2456 -0.3023
  547SOL    HW2 2541   3.239   6.409   2.147  1.0962 -1.4148 -1.2133
  548SOL     OW 2542   0.784   3.214   4.958 -0.0611 -0.4183  0.0748
  548SOL    HW1 2543   0.722   3.172   4.892 -0.5932 -0.2076  0.4331
  548SOL    HW2 2544   0.835   3.287   4.913 -1.3412  0.5816  0.1793
  549SOL     OW 2545   2.259   0.135   2.118  0.0406 -0.3499 -0.5477
  549SOL    HW1 2546   2.285   0.171   2.028 -2.0684 -1.4007 -1.6313
  549SOL    HW2 2547   2.172   0.087   2.112  1.3706 -3.3234  1.3676
  550SOL     OW 2548   1.340   1.994   0.610 -0.4532 -0.5113 -0.5366
  550SOL    HW1 2549   1.348   1.982   0.511 -1.4024 -3.4530 -0.3325
  550SOL    HW2 2550   1.244   1.989   0.637 -0.1021 -1.1738  0.6641
  551SOL     OW 2551   1.636   3.953   1.671 -0.4709  0.3612  0.4884
  551SOL    HW1 2552   1.652   3.983   1.765  1.3329  0.4204  0.1966
  551SOL    HW2 2553   1.569   3.878   1.672  1.0512 -1.0767  2.0673
  552SOL     OW 2554   4.416   5.258   5.094  0.1430  0.1714 -0.2535
  552SOL    HW1 2555   4.426   5.314   5.176  0.5680 -0.9249  0.4745
  552SOL    HW2 2556   4.323   5.222   5.089  0.0721  0.3674 -0.3370
  553SOL     OW 2557   5.695   1.698   1.478 -0.7652  0.2244 -0.2166
  553SOL    HW1 2558   5.722   1.773   1.417 -1.6795  1.5298  0.9235
  553SOL    HW2 2559   5.618   1.727   1.534 -2.0699 -2.0772 -0.6942
  554SOL     OW 2560   4.585   0.239   3.640 -0.0578 -0.2851 -0.1070
  554SOL    HW1 2561   4.629   0.277   3.722 -1.2918  1.3348 -0.1383
  554SOL    HW2 2562   4.605   0.297   3.561 -0.3920 -0.7867 -0.5689
  555SOL     OW 2563   4.697   2.243   1.402  0.2577  0.2770  0.0922
  555SOL    HW1 2564   4.607   2.213   1.369  1.2910 -1.9229 -0.9165
  555SOL    HW2 2565   4.727   2.322   1.348 -1.5114  1.7793  1.2024
  556SOL     OW 2566   0.697   6.366   2.449  0.1618  0.2566 -0.1982
  556SOL    HW1 2567   0.739   6.376   2.358  1.5394  0.2351  0.4073
  556SOL    HW2 2568   0.600   6.390   2.444  0.0455 -0.4079 -1.8187
  557SOL     OW 2569   6.270   3.385   6.679  0.4560  0.7978 -0.1167
  557SOL    HW1 2570   6.173   3.361   6.677  0.6403  0.0825 -1.9747
  557SOL    HW2 2571   6.318   3.325   6.743 -0.0117 -0.1418 -0.6296
  558SOL     OW 2572   5.329   0.772   6.385  0.5172 -0.4396 -0.8026
  558SOL    HW1 2573   5.244   0.761   6.437  1.3484  1.9794  1.2896
  558SOL    HW2 2574   5.309   0.763   6.287 -1.9162 -1.0348 -0.3274
  559SOL     OW 2575   3.298   6.731   5.873  0.6152  0.0322 -0.4561
  559SOL    HW1 2576   3.209   6.714   5.830  0.4698 -1.0735  0.2639
  559SOL    HW2 2577   3.285   6.784   5.957  0.6071 -0.3624 -0.2074
  560SOL     OW 2578   4.204   1.042   4.577 -0.3532  0.1393  0.0208
  560SOL    HW1 2579   4.161   1.006   4.494  1.6176  1.2885 -1.5660
  560SOL    HW2 2580   4.271   0.976   4.610 -2.1564 -0.9992  1.6687
  561SOL     OW 2581   5.674   2.839   1.250  0.4236  0.2715  0.1491
  561SOL    HW1 2582   5.630   2.831   1.161 -0.5183 -0.0502  0.6216
  561SOL    HW2 2583   5.751   2.902   1.244 -0.4109  1.2573 -0.6059
  562SOL     OW 2584   0.272   3.404   3.489 -0.0005 -0.0114 -0.0183
  562SOL    HW1 2585   0.323   3.344   3.551  0.2430  0.6397  0.4189
  562SOL    HW2 2586   0.335   3.472   3.450 -0.6317  1.2362  1.0514
  563SOL     OW 2587   6.883   1.657   1.377 -0.0855 -0.0786  0.1074
  563SOL    HW1 2588   6.962   1.605   1.347 -1.8349 -1.3947 -2.5945
  563SOL    HW2 2589   6.900   1.755   1.366  1.1613 -0.3406 -0.3540
  564SOL     OW 2590   6.621   5.528   4.752  0.7357 -0.2401 -0.1843
  564SOL    HW1 2591   6.671   5.442   4.754  1.2875  0.0113 -1.7728
  564SOL    HW2 2592   6.560   5.530   4.673  0.4665  0.6887  0.0264
  565SOL     OW 2593   3.307   3.797   2.958 -0.5130  0.1269  0.3130
  565SOL    HW1 2594   3.302   3.705   2.919 -3.3475  0.4939 -0.4309
  565SOL    HW2 2595   3.268   3.796   3.051  2.1108  0.1033  1.4882
  566SOL     OW 2596   5.103   2.054   2.873  0.3524 -0.1961  0.0399
  566SOL    HW1 2597   5.145   2.131   2.825  0.0455  0.9279  1.4923
  566SOL    HW2 2598   5.022   2.024   2.824  0.1937  0.7497 -0.2956
  567SOL     OW 2599   2.462   1.407   5.788 -0.1164 -0.5188  0.3007
  567SOL    HW1 2600   2.547   1.395   5.840  0.3100  0.4902 -0.1298
  567SOL    HW2 2601   2.466   1.494   5.738 -0.4909 -1.4735 -1.4599
  568SOL     OW 2602   2.133   1.685   4.908 -0.0297  0.3536  0.0071
  568SOL    HW1 2603   2.035   1.683   4.924 -0.1875  2.1683 -0.4831
  568SOL    HW2 2604   2.151   1.692   4.810  0.5196  1.5948  0.1805
  569SOL     OW 2605   1.765   2.038   6.314  0.0663 -0.0359  0.0904
  569SOL    HW1 2606   1.755   1.960   6.253  1.5904 -0.5105  0.4128
  569SOL    HW2 2607   1.861   2.064   6.319 -0.4857  2.4536 -0.7144
  570SOL     OW 2608   3.461   5.326   4.106 -0.2472  0.1310 -0.6594
  570SOL    HW1 2609   3.514   5.268   4.167 -0.7725 -0.3010 -0.6065
  570SOL    HW2 2610   3.394   5.378   4.159 -0.5805 -0.1071 -0.8504
  571SOL     OW 2611   1.581   1.994   1.194 -0.0858 -0.4153 -0.3356
  571SOL    HW1 2612   1.599   2.084   1.154 -0.3002 -0.6005 -0.8540
  571SOL    HW2 2613   1.560   1.928   1.121 -1.5328 -0.5161  0.1438
  572SOL     OW 2614   6.861   0.135   5.175 -0.3789  0.1408  0.0321
  572SOL    HW1 2615   6.952   0.105   5.146 -0.7426 -0.0670 -0.9540
  572SOL    HW2 2616   6.806   0.055   5.198 -0.7403  0.1635 -0.7193
  573SOL     OW 2617   4.898   3.331   4.074 -0.3446 -0.1291 -0.2578
  573SOL    HW1 2618   4.967   3.281   4.126 -1.4082 -0.6148  0.7436
  573SOL    HW2 2619   4.918   3.324   3.976  1.5904  0.6492  0.0359
  574SOL     OW 2620   6.980   0.446   6.830 -0.2183  0.5701  0.3673
  574SOL    HW1 2621   6.949   0.497   6.910 -2.2363 -1.9946  1.3454
  574SOL    HW2 2622   6.968   0.502   6.748  0.2451  2.6078  1.6159
  575SOL     OW 2623   1.135   6.321   2.833 -0.0620  0.0815 -0.2286
  575SOL    HW1 2624   1.084   6.390   2.885 -1.1609 -0.8576 -0.0300
  575SOL    HW2 2625   1.224   6.358   2.808 -0.1322  1.1226  0.9545
  576SOL     OW 2626   5.217   6.274   6.997 -0.1802 -0.2778 -0.0023
  576SOL    HW1 2627   5.242   6.343   6.929 -2.1298 -0.0142 -0.5091
  576SOL    HW2 2628   5.215   6.184   6.954 -1.8713 -0.0529 -0.4799
  577SOL     OW 2629   6.836   1.098   6.355  0.1116 -0.5486  0.1123
  577SOL    HW1 2630   6.837   1.145   6.267  0.3108  0.0938  0.4534
  577SOL    HW2 2631   6.929   1.094   6.392  0.0137 -0.7159  0.3452
  578SOL     OW 2632   1.579   0.351   1.065  0.4596 -0.2911  0.5734
  578SOL    HW1 2633   1.594   0.277   1.131 -0.7600 -1.0814  0.0187
  578SOL    HW2 2634   1.634   0.430   1.089  1.7023 -1.3331  1.2724
  579SOL     OW 2635   5.138   6.691   1.164  0.3024 -0.8351  0.3926
  579SOL    HW1 2636   5.230   6.688   1.124  0.1104  1.3168 -0.3224
  579SOL    HW2 2637   5.145   6.698   1.263  1.0717  2.2103  0.2078
  580SOL     OW 2638   5.782   1.311   2.075 -0.0581  0.1508  0.2555
  580SOL    HW1 2639   5.683   1.302   2.067 -0.0417 -0.2487  0.4633
  580SOL    HW2 2640   5.825   1.281   1.990 -0.1278  0.5740  0.0699
  581SOL     OW 2641   4.466   6.747   3.783 -0.1972  0.4425 -0.0832
  581SOL    HW1 2642   4.507   6.716   3.869  0.2535  1.4452  0.0708
  581SOL    HW2 2643   4.456   6.669   3.721  0.4135 -0.1048  0.4959
  582SOL     OW 2644   6.156   0.181   2.403  0.5682  0.1524 -0.1973
  582SOL    HW1 2645   6.169   0.122   2.483 -1.1908  1.1862  0.9274
  582SOL    HW2 2646   6.058   0.201   2.393  0.5228 -1.1274 -3.5092
  583SOL     OW 2647   4.326   4.622   4.041  0.2737  0.4489 -0.7938
  583SOL    HW1 2648   4.422   4.646   4.047  1.0824 -2.1562 -1.8850
  583SOL    HW2 2649   4.297   4.576   4.125  0.2382  0.4156 -0.8241
  584SOL     OW 2650   3.638   0.267   5.309  0.0097  0.4183  0.0837
  584SOL    HW1 2651   3.712   0.303   5.252 -0.6873  2.4727  0.3921
  584SOL    HW2 2652   3.559   0.246   5.251  0.0431  0.4343  0.0320
  585SOL     OW 2653   4.039   6.302   2.540 -0.4007  0.0793 -0.2629
  585SOL    HW1 2654   3.991   6.354   2.469 -0.3881  0.4962  0.0328
  585SOL    HW2 2655   4.082   6.365   2.605 -1.6770 -0.2609  0.9814
  586SOL     OW 2656   5.644   0.567   6.164  0.1407  0.1256  0.3196
  586SOL    HW1 2657   5.610   0.632   6.232 -0.4776  0.8348 -0.6549
  586SOL    HW2 2658   5.678   0.485   6.211  2.1783  1.6474  1.6801
  587SOL     OW 2659   1.273   0.735   0.944 -0.9365  0.6063  0.3597
  587SOL    HW1 2660   1.321   0.658   0.986  1.3419  1.5063 -0.4503
  587SOL    HW2 2661   1.218   0.702   0.868 -1.5245 -0.4315  1.1988
  588SOL     OW 2662   6.231   5.377   2.398  0.2270 -0.4906 -0.8556
  588SOL    HW1 2663   6.279   5.302   2.353 -0.2810 -1.3416 -0.0197
  588SOL    HW2 2664   6.261   5.464   2.359  2.9478 -0.9137  0.0956
  589SOL     OW 2665   5.168   7.008   5.291  0.4524  0.7396 -0.8169
  589SOL    HW1 2666   5.169   7.078   5.363  2.9591  0.7504 -0.7774
  589SOL    HW2 2667   5.106   7.037   5.218 -1.5629  1.0941  0.9503
  590SOL     OW 2668   4.447   6.139   0.440  1.0017 -0.0945 -0.3154
  590SOL    HW1 2669   4.450   6.233   0.406 -0.6439  0.8578  1.8829
  590SOL    HW2 2670   4.521   6.125   0.505 -0.8637  1.0223  2.2195
  591SOL     OW 2671   5.789   4.073   2.917 -0.8675 -0.0727 -0.3751
  591SOL    HW1 2672   5.845   4.090   2.998 -0.8151  1.6568 -0.7324
  591SOL    HW2 2673   5.806   3.981   2.883  0.5436 -0.1374  0.4496
  592SOL     OW 2674   1.316   0.767   4.650 -0.1038  0.2668 -0.7747
  592SOL    HW1 2675   1.363   0.718   4.723 -0.8881 -0.7454 -0.9345
  592SOL    HW2 2676   1.366   0.851   4.628  1.0627 -0.2830 -0.2541
  593SOL     OW 2677   4.688   2.377   3.387 -0.4866 -0.7441 -0.0874
  593SOL    HW1 2678   4.747   2.450   3.422 -1.3507 -0.4787  0.8725
  593SOL    HW2 2679   4.726   2.289   3.415 -0.4050 -0.5822  0.3302
  594SOL     OW 2680   5.184   5.980   2.361  0.3259  0.3338 -0.1234
  594SOL    HW1 2681   5.185   6.028   2.274  1.7366  1.6659  0.5790
  594SOL    HW2 2682   5.166   6.045   2.435 -2.2015 -0.9718  0.5344
  595SOL     OW 2683   0.319   2.612   2.012  0.7501 -0.6528 -0.4563
  595SOL    HW1 2684   0.359   2.578   1.927  0.7739 -1.5505 -0.1046
  595SOL    HW2 2685   0.268   2.696   1.994  2.4416  0.2898 -0.9787
  596SOL     OW 2686   2.109   6.055   1.018  0.2330 -0.1326 -0.4695
  596SOL    HW1 2687   2.177   5.989   1.050 -0.7004 -0.8455  0.0659
  596SOL    HW2 2688   2.027   6.050   1.075 -0.4829  0.3400 -1.4293
  597SOL     OW 2689   1.557   4.841   6.969 -0.1509 -0.1794  0.2242
  597SOL    HW1 2690   1.544   4.879   6.877  1.7974  2.7951  1.0064
  597SOL    HW2 2691   1.480   4.868   7.027  0.5714  1.5565  0.4279
  598SOL     OW 2692   0.589   1.300   0.641 -0.0194 -0.4928  0.1344
  598SOL    HW1 2693   0.538   1.364   0.699  1.0106 -0.7539  1.3764
  598SOL    HW2 2694   0.582   1.328   0.546 -0.4093  0.9111  0.5571
  599SOL     OW 2695   2.582   0.787   6.902  0.0745  0.2273 -0.1906
  599SOL    HW1 2696   2.662   0.761   6.848  0.4108  1.4366 -0.3013
  599SOL    HW2 2697   2.504   0.803   6.841 -0.1046 -0.3993 -0.1315
  600SOL     OW 2698   4.130   0.035   3.415  0.1238 -0.0928  0.3291
  600SOL    HW1 2699   4.184   0.114   3.445 -0.7772 -0.1175  2.1531
  600SOL    HW2 2700   4.182  -0.049   3.429  0.0010 -0.0383  1.1675
  601SOL     OW 2701   3.268   1.747   4.796 -0.6647 -0.2767 -0.0062
  601SOL    HW1 2702   3.318   1.677   4.847 -0.9070  0.2426  0.9449
  601SOL    HW2 2703   3.326   1.827   4.782 -0.9121 -0.0454  0.2798
  602SOL     OW 2704   1.082   6.479   2.409  0.1288 -0.0370 -0.3252
  602SOL    HW1 2705   1.066   6.546   2.482  0.8169 -0.4056  0.1654
  602SOL    HW2 2706   1.064   6.387   2.444 -0.3368 -0.1560 -0.8606
  603SOL     OW 2707   1.655   6.088   5.212  0.6299 -0.3745  0.5660
  603SOL    HW1 2708   1.663   6.007   5.154  0.9357 -1.2517  1.7747
  603SOL    HW2 2709   1.591   6.153   5.172 -0.1533 -1.5256 -0.0856
  604SOL     OW 2710   0.537   1.018   0.648 -0.5718 -0.3983  0.4785
  604SOL    HW1 2711   0.564   1.114   0.638 -1.2808 -0.3291 -1.1089
  604SOL    HW2 2712   0.515   1.000   0.744 -1.0487  1.2000  0.7132
  605SOL     OW 2713   3.075   1.659   2.110 -0.3496 -0.1756 -0.0435
  605SOL    HW1 2714   3.161   1.646   2.160 -0.9813  0.8707  1.3965
  605SOL    HW2 2715   3.054   1.576   2.058  1.7348 -0.2860 -0.8089
  606SOL     OW 2716   6.448   3.461   0.815 -0.1853 -0.3069  0.3643
  606SOL    HW1 2717   6.380   3.531   0.834  0.8675  0.3640  1.9322
  606SOL    HW2 2718   6.517   3.461   0.888  1.1281 -1.4014 -0.8114
  607SOL     OW 2719   1.841   5.582   5.946 -0.2705 -0.0571  0.1118
  607SOL    HW1 2720   1.760   5.524   5.954 -1.7533  1.7609 -0.9916
  607SOL    HW2 2721   1.864   5.595   5.849  0.1225  1.0521  0.3318
  608SOL     OW 2722   2.377   1.961   3.477 -0.3359  0.0404  0.7108
  608SOL    HW1 2723   2.471   1.961   3.511 -0.1136  1.1447  0.1359
  608SOL    HW2 2724   2.353   1.870   3.445  0.5151 -0.2628  0.9175
  609SOL     OW 2725   4.254   3.336   1.720  0.1364 -1.1006 -0.0544
  609SOL    HW1 2726   4.341   3.377   1.749  0.3261 -1.4069 -0.1914
  609SOL    HW2 2727   4.270   3.242   1.690 -0.0491 -0.7495 -1.2634
  610SOL     OW 2728   2.376   2.056   3.824  0.0928 -0.3236 -0.1875
  610SOL    HW1 2729   2.472   2.071   3.851  0.0539 -0.5505  0.0782
  610SOL    HW2 2730   2.342   2.138   3.778  1.1624 -1.1217 -2.5108
  611SOL     OW 2731   4.043   1.175   0.599  0.3745 -0.5071  0.6460
  611SOL    HW1 2732   4.014   1.227   0.520 -0.0316 -1.2005  0.3282
  611SOL    HW2 2733   4.054   1.236   0.678  1.4878  0.2984 -0.1143
  612SOL     OW 2734   1.732   4.585   4.505 -0.3774 -0.1732 -0.5679
  612SOL    HW1 2735   1.738   4.536   4.418 -0.4282 -1.1739 -0.0238
  612SOL    HW2 2736   1.784   4.536   4.575 -1.5883 -0.2285  0.3425
  613SOL     OW 2737   5.363   4.955   1.613  0.1612 -0.0024 -0.0810
  613SOL    HW1 2738   5.361   4.886   1.685  1.2513 -0.8645 -0.8405
  613SOL    HW2 2739   5.406   5.039   1.646  1.7872 -0.8155 -0.0598
  614SOL     OW 2740   5.827   4.257   5.567  0.3869  0.0596 -0.1217
  614SOL    HW1 2741   5.922   4.273   5.541  0.9230 -0.5782  1.3384
  614SOL    HW2 2742   5.789   4.340   5.607  1.0040 -0.2790  1.1981
  615SOL     OW 2743   2.899   3.583   6.002 -0.2275  0.1410 -0.0451
  615SOL    HW1 2744   2.937   3.643   6.073 -0.2405 -1.2883  1.2265
  615SOL    HW2 2745   2.801   3.570   6.018 -0.2659 -0.0586 -0.4282
  616SOL     OW 2746   5.890   0.058   6.463 -0.6248 -0.7200 -0.2626
  616SOL    HW1 2747   5.963  -0.005   6.434  0.3474  0.0811  0.3588
  616SOL    HW2 2748   5.849   0.100   6.383  0.8833  0.2024 -0.5964
  617SOL     OW 2749   4.522   2.102   2.995 -0.0469  0.2099 -0.5457
  617SOL    HW1 2750   4.553   2.104   3.091  0.0340 -3.0530 -0.3938
  617SOL    HW2 2751   4.601   2.088   2.935 -0.1306  2.0018 -1.1312
  618SOL     OW 2752   2.841   1.192   6.854 -0.8012  0.3746 -0.0807
  618SOL    HW1 2753   2.873   1.258   6.922  1.2220 -0.6091  0.0046
  618SOL    HW2 2754   2.840   1.101   6.895 -2.4822  0.1764 -0.5190
  619SOL     OW 2755   5.047   0.601   6.234  0.0370 -0.1982  0.2334
  619SOL    HW1 2756   5.122   0.650   6.191 -0.3497  1.9010  1.7968
  619SOL    HW2 2757   4.995   0.664   6.292 -0.5411 -2.4412  2.3178
  620SOL     OW 2758   4.030   6.811   0.595  0.0031  0.0102 -0.0510
  620SOL    HW1 2759   4.129   6.826   0.591  0.1340 -0.9999 -1.2164
  620SOL    HW2 2760   3.985   6.894   0.629  1.1677  0.8500 -0.4829
  621SOL     OW 2761   3.196   3.302   2.005  0.2160  0.1600 -0.2909
  621SOL    HW1 2762   3.185   3.315   2.104  0.0433  0.4092 -0.3420
  621SOL    HW2 2763   3.118   3.252   1.969  0.6712 -0.6555 -0.1685
  622SOL     OW 2764   6.229   0.894   6.527  0.5869 -0.2204  0.4132
  622SOL    HW1 2765   6.178   0.940   6.600  0.8910  1.5387 -0.4361
  622SOL    HW2 2766   6.292   0.958   6.484  1.3407 -1.5582 -0.5723
  623SOL     OW 2767   6.255   2.390   1.294 -0.0030 -0.4797 -0.0806
  623SOL    HW1 2768   6.209   2.467   1.250  0.2601 -0.1499  0.2109
  623SOL    HW2 2769   6.258   2.406   1.393 -1.0796 -1.4673  0.1302
  624SOL     OW 2770   3.122   5.408   4.041  0.1702  0.3476 -0.1542
  624SOL    HW1 2771   3.034   5.416   4.087  1.0330  1.5690  1.3830
  624SOL    HW2 2772   3.114   5.439   3.946 -1.5390 -1.7668 -0.7703
  625SOL     OW 2773   6.700   0.216   6.974 -0.6386  0.8590 -1.1036
  625SOL    HW1 2774   6.610   0.173   6.966  0.0186 -0.7541 -0.2076
  625SOL    HW2 2775   6.746   0.214   6.885 -1.0270  0.6165 -1.3008
  626SOL     OW 2776   2.016   4.493   6.056 -0.6598  0.1715 -0.1517
  626SOL    HW1 2777   1.951   4.488   5.980  0.4811 -3.9850 -1.0990
  626SOL    HW2 2778   2.109   4.487   6.020 -0.0848 -1.9483  1.4814
  627SOL     OW 2779   4.343   4.766   6.613 -0.3981 -0.0335 -0.1579
  627SOL    HW1 2780   4.280   4.691   6.591 -0.0461  0.2933 -2.5407
  627SOL    HW2 2781   4.291   4.850   6.628 -0.6129 -0.0012 -1.0279
  628SOL     OW 2782   0.114   1.158   3.793 -0.1848  0.2254 -0.0500
  628SOL    HW1 2783   0.066   1.228   3.740 -0.9461 -1.8014 -2.2324
  628SOL    HW2 2784   0.048   1.089   3.825  0.6961 -0.1804  0.9876
  629SOL     OW 2785   4.123   6.780   2.893  0.0070 -0.2949 -0.0933
  629SOL    HW1 2786   4.028   6.776   2.860 -0.2400  1.3740  0.3286
  629SOL    HW2 2787   4.122   6.777   2.993  0.4488 -0.7120 -0.0987
  630SOL     OW 2788   3.273   6.034   5.764 -0.5151  0.5565 -0.2677
  630SOL    HW1 2789   3.181   5.998   5.779  0.0858 -1.1898 -0.5832
  630SOL    HW2 2790   3.282   6.064   5.668 -0.4316 -0.2814 -0.5257
  631SOL     OW 2791   3.817   0.886   6.546  0.9402  0.2199 -0.0825
  631SOL    HW1 2792   3.909   0.923   6.533  1.4754 -1.3285 -0.9747
  631SOL    HW2 2793   3.815   0.790   6.517 -0.7086 -0.0897  0.9138
  632SOL     OW 2794   1.771   2.266   2.331 -0.1161  0.9711  0.3007
  632SOL    HW1 2795   1.735   2.339   2.273 -0.5359  0.1487 -0.4982
  632SOL    HW2 2796   1.708   2.188   2.329  1.5381 -0.4108 -0.9288
  633SOL     OW 2797   6.972   3.151   0.689  0.0995 -0.0792  0.1605
  633SOL    HW1 2798   6.970   3.188   0.596 -0.4633 -0.9880 -0.1988
  633SOL    HW2 2799   6.906   3.201   0.746  0.1145  0.1737 -0.0413
  634SOL     OW 2800   2.305   5.501   5.841 -0.2252 -0.3219 -0.3819
  634SOL    HW1 2801   2.396   5.475   5.809 -0.2774 -0.3391 -0.5144
  634SOL    HW2 2802   2.269   5.574   5.784  0.4066  0.8667  0.6951
  635SOL     OW 2803   3.117   6.271   1.682 -0.1463 -0.0388 -0.3279
  635SOL    HW1 2804   3.156   6.300   1.595 -1.0991  2.0356 -0.1102
  635SOL    HW2 2805   3.188   6.277   1.753  1.5813 -4.6225 -1.2876
  636SOL     OW 2806   0.142   3.750   6.040 -0.3269 -0.0404  0.1159
  636SOL    HW1 2807   0.122   3.846   6.023 -0.1668 -0.2415 -1.3142
  636SOL    HW2 2808   0.080   3.692   5.987 -0.4857 -0.7376  1.0325
  637SOL     OW 2809   0.214   5.409   5.694 -0.1210 -0.4398  0.0106
  637SOL    HW1 2810   0.126   5.417   5.740 -0.5018  0.5453 -0.8569
  637SOL    HW2 2811   0.263   5.496   5.700  0.3537 -0.6740 -0.3843
  638SOL     OW 2812   4.062   3.800   5.756 -0.6020 -0.0446  0.2462
  638SOL    HW1 2813   4.064   3.840   5.848 -0.3900 -1.0592  0.7020
  638SOL    HW2 2814   4.040   3.703   5.763 -0.3932 -0.1752 -0.7684
  639SOL     OW 2815   1.748   2.582   4.897  0.1326  0.4162 -0.5344
  639SOL    HW1 2816   1.683   2.570   4.821 -0.6557 -1.3913  0.3551
  639SOL    HW2 2817   1.836   2.542   4.872 -0.0253  0.1253 -0.6409
  640SOL     OW 2818   4.825   6.485   3.825 -0.2867 -0.1150  0.1001
  640SOL    HW1 2819   4.777   6.550   3.883  1.7781  1.6122 -0.0065
  640SOL    HW2 2820   4.840   6.525   3.735  0.5125 -0.9447 -0.1541
  641SOL     OW 2821   5.813   6.431   3.615 -0.3595  0.0257 -0.1504
  641SOL    HW1 2822   5.824   6.335   3.639  0.8944  0.3104  0.5073
  641SOL    HW2 2823   5.768   6.480   3.690 -3.0324 -0.4097 -1.3402
  642SOL     OW 2824   2.237   5.622   2.279 -0.3283 -0.3051  0.0746
  642SOL    HW1 2825   2.220   5.694   2.211  1.0455  0.0497  0.0870
  642SOL    HW2 2826   2.335   5.614   2.296 -0.6119 -0.5318  1.8592
  643SOL     OW 2827   1.656   3.283   6.112 -0.5180 -0.0866  0.3276
  643SOL    HW1 2828   1.556   3.281   6.105 -0.4625 -0.6410 -0.5951
  643SOL    HW2 2829   1.690   3.190   6.124 -0.0883  0.0369  0.0980
  644SOL     OW 2830   3.753   6.070   3.367 -0.2135  0.2131 -0.2010
  644SOL    HW1 2831   3.742   6.133   3.444 -1.4858  0.5834 -0.6626
  644SOL    HW2 2832   3.847   6.037   3.365  0.0998  0.9611  0.9217
  645SOL     OW 2833   2.378   4.826   5.696 -0.2490  0.0004  0.1423
  645SOL    HW1 2834   2.351   4.750   5.755  0.5275 -1.0360 -0.7876
  645SOL    HW2 2835   2.466   4.862   5.728 -1.0234  1.0829  1.0903
  646SOL     OW 2836   6.673   2.494   4.494  0.2792 -0.4190 -0.4178
  646SOL    HW1 2837   6.656   2.408   4.543  1.7051  0.0989  1.0809
  646SOL    HW2 2838   6.597   2.558   4.512 -0.0596 -0.8454 -0.3111
  647SOL     OW 2839   5.651   2.524   6.749 -0.3807  0.1864  0.2689
  647SOL    HW1 2840   5.706   2.523   6.665 -1.1478 -2.8271 -0.3461
  647SOL    HW2 2841   5.556   2.503   6.726 -0.9185  0.8786  1.7559
  648SOL     OW 2842   6.666   1.023   5.462  0.0971 -0.5051 -0.0174
  648SOL    HW1 2843   6.621   1.068   5.539  1.5843  0.3174  0.4052
  648SOL    HW2 2844   6.643   0.926   5.463 -0.6753 -0.3321  0.8830
  649SOL     OW 2845   2.190   5.465   3.728  0.3115  0.7985  0.0394
  649SOL    HW1 2846   2.152   5.530   3.794 -0.3636 -0.2380  0.6985
  649SOL    HW2 2847   2.125   5.452   3.653 -0.8018 -1.0850  1.2397
  650SOL     OW 2848   5.018   0.980   6.095  0.2468 -0.1921  0.1762
  650SOL    HW1 2849   4.948   1.031   6.044 -0.8581 -1.7219  0.1112
  650SOL    HW2 2850   5.061   1.041   6.162  0.2092  1.2742 -1.0887
  651SOL     OW 2851   1.292   6.583   5.558 -0.1728  0.1111 -0.2242
  651SOL    HW1 2852   1.357   6.658   5.561  0.4659 -0.4636  0.6850
  651SOL    HW2 2853   1.237   6.582   5.641 -1.2911  0.5300 -0.9406
  652SOL     OW 2854   0.031   5.711   5.861 -0.0650 -0.2358 -0.7963
  652SOL    HW1 2855   0.086   5.647   5.914 -0.1522  1.9221  2.1648
  652SOL    HW2 2856  -0.055   5.668   5.835 -1.1152 -0.8202  3.0194
  653SOL     OW 2857   0.377   0.105   4.268 -0.6038 -0.1014 -0.6333
  653SOL    HW1 2858   0.353   0.157   4.350 -2.1228 -0.2113 -0.9771
  653SOL    HW2 2859   0.351   0.158   4.187 -1.9614 -1.2401 -0.9872
  654SOL     OW 2860   2.260   4.124   5.620  0.4848 -0.7900  0.4184
  654SOL    HW1 2861   2.225   4.174   5.541 -0.9458  0.4350  1.7638
  654SOL    HW2 2862   2.318   4.049   5.589 -1.0982 -1.1768 -1.8495
  655SOL     OW 2863   3.330   5.035   4.605 -0.2285  0.2617 -0.3113
  655SOL    HW1 2864   3.262   4.988   4.549  0.4875 -0.9141 -0.2406
  655SOL    HW2 2865   3.330   4.995   4.697 -1.7250  2.4891  0.7210
  656SOL     OW 2866   4.084   5.030   1.314 -0.2781 -0.0701  0.3114
  656SOL    HW1 2867   3.994   5.023   1.270  0.3606  0.7735 -1.2203
  656SOL    HW2 2868   4.089   5.117   1.363  0.4755  1.0393 -1.6024
  657SOL     OW 2869   5.991   3.182   0.847 -0.3706  0.1650  0.2690
  657SOL    HW1 2870   5.974   3.216   0.940 -0.5884  1.3969 -0.2003
  657SOL    HW2 2871   5.910   3.198   0.791 -0.9562 -2.2772  0.2975
  658SOL     OW 2872   1.726   1.514   2.923  0.1729 -0.4986 -0.4393
  658SOL    HW1 2873   1.795   1.476   2.984 -3.4236 -0.2977  4.3091
  658SOL    HW2 2874   1.703   1.607   2.951 -0.3126  0.4503 -3.5609
  659SOL     OW 2875   4.307   4.678   2.877  0.0661  0.2459 -0.2661
  659SOL    HW1 2876   4.266   4.702   2.965 -0.7975  1.0820 -0.8598
  659SOL    HW2 2877   4.349   4.588   2.882 -3.4193 -1.5544 -0.0323
  660SOL     OW 2878   2.419   6.784   4.051  0.6823  0.0696  0.1932
  660SOL    HW1 2879   2.426   6.689   4.084 -1.1194 -0.3925 -0.6139
  660SOL    HW2 2880   2.475   6.795   3.969  0.8126 -0.3477  0.2219
  661SOL     OW 2881   5.096   0.893   3.258  0.0614  0.4096  0.4577
  661SOL    HW1 2882   5.087   0.950   3.176  2.8706 -1.9911 -1.7616
  661SOL    HW2 2883   5.022   0.827   3.262  1.1493 -1.0395 -1.6518
  662SOL     OW 2884   3.036   1.211   2.170 -0.4635 -0.3304 -0.1574
  662SOL    HW1 2885   2.980   1.184   2.248  0.4450 -1.2450  0.2034
  662SOL    HW2 2886   3.010   1.156   2.090 -0.3733 -0.4596 -0.0989
  663SOL     OW 2887   4.857   4.693   4.741  0.4271 -0.1649 -0.2956
  663SOL    HW1 2888   4.803   4.772   4.711  1.1402  0.7423  0.7512
  663SOL    HW2 2889   4.934   4.724   4.797 -0.6866 -1.7181  2.2969
  664SOL     OW 2890   5.042   6.478   4.848 -0.0176 -0.0283 -0.2497
  664SOL    HW1 2891   5.077   6.510   4.936 -1.3653 -0.6012  0.5278
  664SOL    HW2 2892   4.965   6.535   4.819 -0.0363 -0.2727 -0.7020
  665SOL     OW 2893   0.186   4.217   4.408  0.5268  0.3953  0.8569
  665SOL    HW1 2894   0.174   4.207   4.507  0.4594  0.9009  0.9050
  665SOL    HW2 2895   0.168   4.312   4.382 -2.5722 -0.3392 -0.0905
  666SOL     OW 2896   6.302   2.199   6.995 -0.4593  0.5134  0.2078
  666SOL    HW1 2897   6.208   2.169   7.007 -0.0849 -1.4949 -1.3566
  666SOL    HW2 2898   6.354   2.183   7.079 -1.4574  1.6337  1.0788
  667SOL     OW 2899   3.199   4.873   0.980 -0.1797  0.3705 -0.1851
  667SOL    HW1 2900   3.190   4.785   0.935 -1.6735 -0.4161  1.5253
  667SOL    HW2 2901   3.181   4.863   1.078  0.6419  2.4034  0.2395
  668SOL     OW 2902   1.812   0.200   6.501  0.4469 -0.0678  0.2566
  668SOL    HW1 2903   1.732   0.172   6.447  1.3171 -4.8912  1.0358
  668SOL    HW2 2904   1.783   0.231   6.591 -0.6308  0.7595 -0.3595
  669SOL     OW 2905   4.587   1.292   0.868  0.3793 -0.3183 -0.3271
  669SOL    HW1 2906   4.626   1.371   0.821  0.9057  0.4166  1.2906
  669SOL    HW2 2907   4.638   1.210   0.844  1.4477  0.2567 -0.0728
  670SOL     OW 2908   4.549   0.166   0.671  0.0888 -0.0131  0.1539
  670SOL    HW1 2909   4.559   0.080   0.721  1.3332 -0.9361 -1.5938
  670SOL    HW2 2910   4.614   0.233   0.707 -0.6731  0.1198  1.3190
  671SOL     OW 2911   1.767   2.214   3.648 -0.3776  0.1408  0.4178
  671SOL    HW1 2912   1.751   2.118   3.670 -3.7765  0.7347  0.9712
  671SOL    HW2 2913   1.758   2.228   3.550  0.5108 -0.1266  0.2870
  672SOL     OW 2914   0.164   4.150   4.713 -0.8161 -0.2806  0.4886
  672SOL    HW1 2915   0.173   4.055   4.744  0.8210 -0.0262  0.9278
  672SOL    HW2 2916   0.186   4.212   4.789 -1.2779  0.4387  0.0416
  673SOL     OW 2917   4.838   0.983   3.776 -0.0248  0.2173 -0.2441
  673SOL    HW1 2918   4.742   0.958   3.765 -0.1821 -0.3617  1.9845
  673SOL    HW2 2919   4.893   0.932   3.710 -1.2249  0.6545 -1.6416
  674SOL     OW 2920   6.221   4.753   4.580  0.0174 -0.2869 -0.2997
  674SOL    HW1 2921   6.271   4.827   4.625 -0.0621 -1.1977  1.3714
  674SOL    HW2 2922   6.141   4.729   4.635  0.2677 -1.8668 -0.5908
  675SOL     OW 2923   5.019   5.801   4.963  0.5722 -0.0337 -0.3485
  675SOL    HW1 2924   5.037   5.791   4.865 -0.4301  1.3987 -0.7121
  675SOL    HW2 2925   5.086   5.865   5.002  1.4637 -1.2045  0.0896
  676SOL     OW 2926   6.992   4.502   2.214 -0.2748 -0.6754 -0.3078
  676SOL    HW1 2927   7.037   4.458   2.136  0.7652 -0.8640  0.3840
  676SOL    HW2 2928   6.909   4.451   2.238 -0.6993 -0.5251 -1.3681
  677SOL     OW 2929   1.069   0.155   2.379 -0.6511  0.3951 -0.3418
  677SOL    HW1 2930   1.127   0.213   2.322  1.6930 -0.2158  1.2353
  677SOL    HW2 2931   0.973   0.171   2.357  0.0084  2.7670 -1.9047
  678SOL     OW 2932   2.643   0.583   0.559 -0.2876 -0.3509  1.2532
  678SOL    HW1 2933   2.642   0.615   0.654 -1.2726 -1.1118  1.5238
  678SOL    HW2 2934   2.549   0.577   0.525  0.0697  0.1623  0.1355
  679SOL     OW 2935   4.584   2.720   6.255 -0.3383  0.2666  0.1484
  679SOL    HW1 2936   4.639   2.710   6.338 -0.9925  0.1392  0.5748
  679SOL    HW2 2937   4.494   2.679   6.269 -0.6687  0.7714 -0.4181
  680SOL     OW 2938   3.455   1.503   4.346  0.1130  0.3100  0.0704
  680SOL    HW1 2939   3.429   1.525   4.440 -1.6649  0.0923 -0.3346
  680SOL    HW2 2940   3.414   1.570   4.284  0.8712  0.1706 -0.5853
  681SOL     OW 2941   1.650   1.761   6.442  0.6328  0.2246  0.2370
  681SOL    HW1 2942   1.646   1.853   6.479  0.6882  0.0436  0.7035
  681SOL    HW2 2943   1.709   1.704   6.500  0.5304 -0.1249  0.0034
  682SOL     OW 2944   5.887   6.158   1.603  0.0657  0.1332  0.1530
  682SOL    HW1 2945   5.825   6.173   1.526 -1.3614  0.9962  1.4027
  682SOL    HW2 2946   5.974   6.121   1.570  0.0600  1.8604 -2.0324
  683SOL     OW 2947   6.750   1.093   5.051  0.0644 -0.5079  0.0223
  683SOL    HW1 2948   6.694   1.107   4.969 -2.7444 -1.1034  1.6766
  683SOL    HW2 2949   6.733   1.001   5.087  2.3637 -0.7954  0.5154
  684SOL     OW 2950   6.886   1.999   3.057 -0.4029 -0.3826  0.3503
  684SOL    HW1 2951   6.825   1.938   3.008 -0.1379 -0.0823 -0.3698
  684SOL    HW2 2952   6.836   2.045   3.131 -1.0015 -0.2673 -0.1224
  685SOL     OW 2953   6.564   1.992   3.951  0.1436  0.3310 -0.2231
  685SOL    HW1 2954   6.613   2.047   3.883  1.2763  0.9021  1.0213
  685SOL    HW2 2955   6.544   1.902   3.912  1.8653  0.2018 -0.8985
  686SOL     OW 2956   0.700   0.982   0.437 -0.2546 -0.0092 -0.9672
  686SOL    HW1 2957   0.645   0.994   0.519 -1.7915  0.6124 -2.0459
  686SOL    HW2 2958   0.688   0.889   0.402 -1.9213  0.5822 -2.0668
  687SOL     OW 2959   2.714   6.562   3.794  0.1511 -0.6146 -0.3257
  687SOL    HW1 2960   2.678   6.493   3.732  1.4107 -1.3207 -0.3103
  687SOL    HW2 2961   2.780   6.520   3.857 -1.1713  0.0406  1.6152
  688SOL     OW 2962   7.020   6.592   5.355  0.1671 -0.6328  0.4410
  688SOL    HW1 2963   6.940   6.652   5.339 -0.9355 -2.2160 -0.2490
  688SOL    HW2 2964   6.988   6.501   5.379  1.8049 -0.4220  3.9760
  689SOL     OW 2965   1.852   1.259   5.742  0.3635 -0.3948 -0.4164
  689SOL    HW1 2966   1.839   1.168   5.703  0.1113 -0.6490  0.2422
  689SOL    HW2 2967   1.856   1.327   5.668 -0.2068 -0.8471 -0.8764
  690SOL     OW 2968   0.236   2.027   2.141  0.2068  0.4513  0.0962
  690SOL    HW1 2969   0.235   2.025   2.241 -0.7402 -0.2487  0.0824
  690SOL    HW2 2970   0.283   2.110   2.110 -1.4491  1.8384  1.1241
  691SOL     OW 2971   2.406   0.714   6.486  0.7322 -0.0550 -0.0669
  691SOL    HW1 2972   2.379   0.657   6.408  1.5029 -0.0542 -0.3479
  691SOL    HW2 2973   2.456   0.657   6.552 -0.0172 -0.0834  0.4985
  692SOL     OW 2974   1.918   0.495   6.635  0.1107  0.9277  0.5718
  692SOL    HW1 2975   1.921   0.404   6.675  2.0021  0.5190 -0.3785
  692SOL    HW2 2976   2.009   0.536   6.638 -0.3814  2.1716 -0.4148
  693SOL     OW 2977   6.032   6.675   4.026 -0.5663  0.1289 -0.1410
  693SOL    HW1 2978   6.111   6.705   3.973 -0.8555 -1.4653 -1.5635
  693SOL    HW2 2979   5.967   6.750   4.036  0.4469  1.0397 -0.2252
  694SOL     OW 2980   0.832   6.776   4.182 -0.0803 -0.5342 -0.8504
  694SOL    HW1 2981   0.855   6.682   4.206 -1.0505 -0.7084 -0.5267
  694SOL    HW2 2982   0.909   6.836   4.202 -0.4073 -0.8422  1.7064
  695SOL     OW 2983   4.552   5.847   3.426  0.5271 -0.8118  0.7073
  695SOL    HW1 2984   4.467   5.888   3.458  1.0254 -0.1234  1.1735
  695SOL    HW2 2985   4.547   5.747   3.438  0.9245 -0.5727  3.6634
  696SOL     OW 2986   1.847   4.639   3.164 -0.1490  0.2132 -0.0585
  696SOL    HW1 2987   1.887   4.698   3.234  0.4650  0.9313 -0.9818
  696SOL    HW2 2988   1.860   4.681   3.074 -2.6282  0.2867 -0.4632
  697SOL     OW 2989   2.860   6.116   5.993  0.4368 -0.3663  0.2695
  697SOL    HW1 2990   2.763   6.134   6.011  0.2455 -1.0145 -0.1185
  697SOL    HW2 2991   2.901   6.197   5.949 -0.3666 -0.7507 -1.2376
  698SOL     OW 2992   1.423   4.268   6.168 -0.7145  0.0031 -0.0359
  698SOL    HW1 2993   1.464   4.319   6.243 -0.1878  1.3341 -1.1948
  698SOL    HW2 2994   1.336   4.311   6.142 -1.5116 -1.1643  0.5685
  699SOL     OW 2995   6.107   1.199   5.436  0.2459  0.4270 -0.0013
  699SOL    HW1 2996   6.183   1.213   5.372  0.4391  0.4227  0.2245
  699SOL    HW2 2997   6.096   1.102   5.454 -0.4879  0.3372 -0.8400
  700SOL     OW 2998   3.022   4.168   5.518  0.1032 -0.2118 -0.4522
  700SOL    HW1 2999   3.005   4.212   5.430  0.9334 -0.4593 -0.7432
  700SOL    HW2 3000   2.944   4.110   5.541 -0.6744  0.8292 -0.4105
  701SOL     OW 3001   3.848   3.675   4.698  0.1800  0.4443  0.4158
  701SOL    HW1 3002   3.819   3.647   4.607  0.0740  0.4610  0.4447
  701SOL    HW2 3003   3.802   3.618   4.767  0.6034  0.1270  0.4424
  702SOL     OW 3004   0.214   6.622   3.857 -0.1101  0.0752 -0.0928
  702SOL    HW1 3005   0.280   6.658   3.791  0.1036  0.5710  0.3896
  702SOL    HW2 3006   0.242   6.647   3.950 -1.3196  0.8596  0.0824
  703SOL     OW 3007   3.411   3.794   4.788  0.1623  0.5345 -0.0566
  703SOL    HW1 3008   3.402   3.891   4.809  1.9235  0.6715  0.2108
  703SOL    HW2 3009   3.477   3.782   4.713 -1.3119 -0.3592 -1.2579
  704SOL     OW 3010   6.315   0.742   0.097 -0.1946 -0.1890 -0.2141
  704SOL    HW1 3011   6.280   0.648   0.096 -2.5202  0.6059  0.5333
  704SOL    HW2 3012   6.415   0.740   0.097 -0.1816 -2.6520  0.0450
  705SOL     OW 3013   6.805   6.431   6.128  0.4301 -0.4257  0.7172
  705SOL    HW1 3014   6.820   6.530   6.130 -0.2294 -0.3269  1.1552
  705SOL    HW2 3015   6.712   6.411   6.160  0.3206 -1.1394 -0.0278
  706SOL     OW 3016   2.141   3.192   1.306  0.2698  0.3237  0.3127
  706SOL    HW1 3017   2.184   3.109   1.341 -0.4998 -0.5733 -0.7652
  706SOL    HW2 3018   2.196   3.272   1.329  3.7011 -0.9027 -2.7246
  707SOL     OW 3019   6.098   0.452   1.561 -0.4385 -0.2534  0.0947
  707SOL    HW1 3020   6.190   0.484   1.585 -0.6370  1.9544 -1.7284
  707SOL    HW2 3021   6.036   0.469   1.637  0.0746  1.2212  0.2244
  708SOL     OW 3022   6.039   1.847   4.822  0.2721  0.3764  0.4322
  708SOL    HW1 3023   5.973   1.883   4.888  1.3868  1.1717  1.1472
  708SOL    HW2 3024   5.993   1.784   4.760 -0.9190 -0.0059  1.6542
  709SOL     OW 3025   4.050   6.750   4.350  0.1688  0.3677  0.4834
  709SOL    HW1 3026   4.047   6.687   4.429 -0.4846  0.3190  0.4246
  709SOL    HW2 3027   4.119   6.718   4.285  0.4709  0.2138  0.8735
  710SOL     OW 3028   3.191   3.568   5.395  0.2413  0.2799  0.1690
  710SOL    HW1 3029   3.267   3.512   5.428 -0.6709 -1.1901 -0.1451
  710SOL    HW2 3030   3.178   3.645   5.457  2.2433  0.8268 -0.0072
  711SOL     OW 3031   2.306   1.772   5.408 -0.0756  0.5610 -0.3527
  711SOL    HW1 3032   2.281   1.675   5.409 -0.8572  0.7152 -1.8927
  711SOL    HW2 3033   2.405   1.781   5.398  0.2188 -0.0489  1.4885
  712SOL     OW 3034   4.418   7.013   5.173 -0.0453  0.0877 -0.5754
  712SOL    HW1 3035   4.488   7.067   5.219  0.8295  0.4024 -2.1780
  712SOL    HW2 3036   4.458   6.928   5.139 -1.3100 -1.4393  1.5442
  713SOL     OW 3037   5.386   3.419   5.753  0.2410  0.4203 -0.2710
  713SOL    HW1 3038   5.404   3.380   5.663 -0.3086  0.2015 -0.2861
  713SOL    HW2 3039   5.407   3.517   5.752 -1.0529  0.7026 -1.0210
  714SOL     OW 3040   6.564   6.329   6.283  0.6709 -0.3555  0.0596
  714SOL    HW1 3041   6.551   6.280   6.369 -0.3296 -0.7212 -0.2788
  714SOL    HW2 3042   6.580   6.264   6.209 -3.9434 -0.6297 -1.0174
  715SOL     OW 3043   4.180   0.423   3.363 -0.0279  0.3597 -0.7612
  715SOL    HW1 3044   4.242   0.500   3.378 -0.9707  0.8521  0.9189
  715SOL    HW2 3045   4.087   0.458   3.350 -0.2374 -0.4436 -1.4570
  716SOL     OW 3046   1.164   4.227   4.201 -0.0425 -0.4219 -0.4285
  716SOL    HW1 3047   1.121   4.234   4.292 -0.7807  0.2096 -0.8143
  716SOL    HW2 3048   1.144   4.310   4.149  1.1343 -0.4007 -0.8537
  717SOL     OW 3049   1.098   2.439   0.822  0.5426  0.3488 -0.1834
  717SOL    HW1 3050   1.061   2.519   0.869  1.4869  0.3654  0.5651
  717SOL    HW2 3051   1.023   2.383   0.787 -0.1539  0.8508  0.4758
  718SOL     OW 3052   0.512   0.538   0.895  0.2378 -0.1503  0.1643
  718SOL    HW1 3053   0.570   0.467   0.936  0.1790 -0.3633 -0.1194
  718SOL    HW2 3054   0.523   0.537   0.796  0.5169  0.4881  0.1892
  719SOL     OW 3055   0.695   1.936   4.653  0.0338  0.0213  0.2332
  719SOL    HW1 3056   0.654   1.883   4.579  0.6887  0.6727 -0.6281
  719SOL    HW2 3057   0.656   2.028   4.654 -0.0833 -0.0350  0.7980
  720SOL     OW 3058   5.395   2.966   4.043  0.3598 -0.0991  0.5433
  720SOL    HW1 3059   5.487   2.973   4.082  1.0236  0.1859 -0.9597
  720SOL    HW2 3060   5.368   2.870   4.039  2.5372 -0.7844 -2.9874
  721SOL     OW 3061   5.538   2.034   2.205  0.2895 -0.2577 -0.8764
  721SOL    HW1 3062   5.450   2.063   2.168  0.3429 -0.6796 -1.3539
  721SOL    HW2 3063   5.533   2.028   2.304 -0.0185  0.3807 -0.8493
  722SOL     OW 3064   2.870   3.571   4.357  0.2832 -0.7299  0.4296
  722SOL    HW1 3065   2.913   3.661   4.352 -0.1986 -0.4592  1.0526
  722SOL    HW2 3066   2.853   3.547   4.453 -0.7224 -0.9423  0.2116
  723SOL     OW 3067   1.115   1.623   3.800 -0.1342  0.2123 -0.5119
  723SOL    HW1 3068   1.072   1.644   3.887  0.0987  1.6340 -0.7112
  723SOL    HW2 3069   1.214   1.615   3.812  0.0040  1.3290 -0.7755
  724SOL     OW 3070   2.355   2.288   3.121  0.6996  0.4467 -0.2073
  724SOL    HW1 3071   2.266   2.328   3.145  0.2372 -0.7403  0.1491
  724SOL    HW2 3072   2.416   2.360   3.088 -0.3731  1.2933 -0.4107
  725SOL     OW 3073   1.763   1.369   0.257 -0.4397 -0.5177 -0.1907
  725SOL    HW1 3074   1.805   1.385   0.168  0.2379  0.1960  0.2504
  725SOL    HW2 3075   1.722   1.277   0.259  0.0671 -0.7673 -1.0182
  726SOL     OW 3076   6.964   6.738   1.183 -0.0099 -0.1129  0.1047
  726SOL    HW1 3077   6.879   6.788   1.168  1.2193  2.8432  2.0180
  726SOL    HW2 3078   7.028   6.758   1.108 -0.1854 -0.4933 -0.1536
  727SOL     OW 3079   4.085   2.501   6.715  0.0752  0.0896  0.3293
  727SOL    HW1 3080   4.056   2.409   6.742 -0.2887  0.1517  0.1613
  727SOL    HW2 3081   4.122   2.549   6.794  1.0323 -0.4859  0.2453
  728SOL     OW 3082   4.800   5.990   0.371 -0.3019  0.1070 -0.1468
  728SOL    HW1 3083   4.863   5.999   0.293  1.8811 -1.9845  1.2561
  728SOL    HW2 3084   4.743   5.909   0.359  0.9131 -0.9468  0.9428
  729SOL     OW 3085   3.580   0.491   6.541 -0.6288  0.6988 -0.2044
  729SOL    HW1 3086   3.493   0.494   6.590 -1.7358 -0.0526 -2.0335
  729SOL    HW2 3087   3.564   0.467   6.446  1.6736 -0.3646 -0.3993
  730SOL     OW 3088   5.411   3.029   6.244 -0.7139 -0.2940  0.6200
  730SOL    HW1 3089   5.374   3.119   6.222  0.2825  0.0173  0.1437
  730SOL    HW2 3090   5.350   2.958   6.208 -0.7139  0.2043 -0.3956
  731SOL     OW 3091   0.976   3.024   6.153 -0.1254 -0.0126  0.0300
  731SOL    HW1 3092   1.005   2.930   6.173 -0.9043 -0.1370  0.6152
  731SOL    HW2 3093   1.056   3.081   6.136  0.4144 -0.5373  0.7588
  732SOL     OW 3094   3.943   2.152   1.917  0.7533 -0.6706  0.2076
  732SOL    HW1 3095   3.923   2.057   1.891  0.5916 -0.2549 -1.2845
  732SOL    HW2 3096   3.863   2.191   1.962  1.1291 -1.4856  1.6856
  733SOL     OW 3097   1.398   5.085   1.308  0.1374 -0.8235  0.0004
  733SOL    HW1 3098   1.354   5.099   1.219  0.4990 -1.7664 -0.3509
  733SOL    HW2 3099   1.350   5.013   1.358  1.2311 -1.8694 -0.3860
  734SOL     OW 3100   6.379   4.222   0.063 -0.1837 -0.0798  0.4194
  734SOL    HW1 3101   6.342   4.171  -0.014  1.0698  1.1900 -1.0733
  734SOL    HW2 3102   6.306   4.276   0.105 -0.6643  0.0958 -0.6099
  735SOL     OW 3103   5.111   4.179   5.666 -0.8466  0.0733  0.3258
  735SOL    HW1 3104   5.130   4.087   5.633  1.9940  0.7904 -0.3067
  735SOL    HW2 3105   5.135   4.184   5.763  1.7458  0.7495 -0.2666
  736SOL     OW 3106   6.366   6.524   4.125  0.1884  0.2641  0.0146
  736SOL    HW1 3107   6.339   6.504   4.031 -0.7926  0.0302  0.3355
  736SOL    HW2 3108   6.388   6.621   4.134 -0.9288  0.5455 -0.1816
  737SOL     OW 3109   1.682   2.089   5.227  0.2606 -0.6517  0.3868
  737SOL    HW1 3110   1.714   2.179   5.257 -2.0806  0.2211  0.4886
  737SOL    HW2 3111   1.594   2.070   5.269  1.1172 -3.4461  1.0884
  738SOL     OW 3112   1.615   6.006   5.659  0.1695  0.2251 -0.2414
  738SOL    HW1 3113   1.650   5.987   5.567  1.2052  1.5341 -0.1483
  738SOL    HW2 3114   1.689   5.999   5.725 -0.5511 -0.6111  0.4982
  739SOL     OW 3115   5.274   5.556   2.991  0.1338 -0.2688 -0.2877
  739SOL    HW1 3116   5.325   5.565   2.905  0.0806 -0.4273 -0.3374
  739SOL    HW2 3117   5.181   5.590   2.979  0.2891  0.2104 -0.1385
  740SOL     OW 3118   1.610   3.167   1.981  0.2552  0.2905  0.2957
  740SOL    HW1 3119   1.646   3.208   1.897  0.0801 -2.2961 -1.1506
  740SOL    HW2 3120   1.685   3.151   2.046  0.9414 -0.4770 -0.6593
  741SOL     OW 3121   0.732   4.302   5.929  0.7512 -0.1949 -0.3697
  741SOL    HW1 3122   0.768   4.222   5.977  1.0221 -0.7157 -1.4170
  741SOL    HW2 3123   0.721   4.281   5.832 -1.9234  0.1113 -0.2012
  742SOL     OW 3124   5.250   5.796   6.763 -0.2451  0.0241  0.0755
  742SOL    HW1 3125   5.347   5.822   6.768 -0.4137  0.7469 -0.2775
  742SOL    HW2 3126   5.232   5.755   6.673 -0.7887  2.1749 -0.8525
  743SOL     OW 3127   5.457   2.692   5.427 -0.3895  0.1332  0.0774
  743SOL    HW1 3128   5.443   2.653   5.336  0.0403  1.7595 -0.7291
  743SOL    HW2 3129   5.555   2.699   5.446 -0.3017  3.2340 -0.9801
  744SOL     OW 3130   3.166   5.379   1.327 -0.4111 -0.1219 -0.1601
  744SOL    HW1 3131   3.160   5.285   1.361 -2.4521  0.3391  0.9206
  744SOL    HW2 3132   3.167   5.379   1.227 -1.4733 -1.2524 -0.1797
  745SOL     OW 3133   5.738   3.994   4.921  0.0579 -0.3175  0.4801
  745SOL    HW1 3134   5.746   3.907   4.970 -0.3285 -0.3551  0.4865
  745SOL    HW2 3135   5.735   4.069   4.987  0.3965 -0.2995  0.4740
  746SOL     OW 3136   6.714   1.499   1.016 -0.0152  0.2613 -0.1805
  746SOL    HW1 3137   6.692   1.422   0.956  0.9832  0.7853 -1.2383
  746SOL    HW2 3138   6.754   1.574   0.963  3.7210 -0.3423  1.4684
  747SOL     OW 3139   0.791   6.950   2.997 -0.3948 -0.0186 -0.2780
  747SOL    HW1 3140   0.770   6.871   2.940  1.1712 -1.8195  1.4582
  747SOL    HW2 3141   0.735   6.947   3.080  0.6305 -0.0926  0.4315
  748SOL     OW 3142   2.536   1.806   1.282 -0.3688  0.4065 -0.1802
  748SOL    HW1 3143   2.465   1.872   1.308  0.1742  0.5434  1.0124
  748SOL    HW2 3144   2.616   1.818   1.341  1.4698  1.5614 -2.6965
  749SOL     OW 3145   4.116   5.015   2.703 -0.1011 -0.5020 -0.1773
  749SOL    HW1 3146   4.125   5.087   2.635 -0.8979  1.7869  1.9879
  749SOL    HW2 3147   4.205   4.996   2.744  0.3281 -1.6832 -1.5869
  750SOL     OW 3148   6.324   0.813   5.021 -0.4006  0.0243  0.1124
  750SOL    HW1 3149   6.255   0.800   4.950 -0.5652  0.5796  0.1656
  750SOL    HW2 3150   6.375   0.728   5.034 -0.5938 -0.1768 -0.4295
  751SOL     OW 3151   4.779   4.743   2.343  0.0198  0.0144 -0.2136
  751SOL    HW1 3152   4.762   4.819   2.405 -1.9426 -1.1921  0.8315
  751SOL    HW2 3153   4.778   4.657   2.394  2.1645 -0.7637 -1.3561
  752SOL     OW 3154   1.996   5.113   6.388  0.4649 -0.1954  0.0980
  752SOL    HW1 3155   2.071   5.110   6.322  1.6171  1.2892  1.2644
  752SOL    HW2 3156   1.939   5.032   6.377  1.3906 -0.6504 -1.7961
  753SOL     OW 3157   1.432   6.782   1.348 -0.2580  0.0216  0.0759
  753SOL    HW1 3158   1.445   6.847   1.423 -1.2709 -0.5576  0.7743
  753SOL    HW2 3159   1.521   6.742   1.323 -0.2138 -2.1946  3.2045
  754SOL     OW 3160   6.582   6.635   2.506 -0.1456 -0.2443  0.3130
  754SOL    HW1 3161   6.647   6.651   2.580 -0.7315 -1.0165  1.0197
  754SOL    HW2 3162   6.629   6.643   2.418  0.5398  0.8028  0.7458
  755SOL     OW 3163   4.722   5.317   0.137  0.3784  0.1141 -0.6060
  755SOL    HW1 3164   4.739   5.228   0.095  4.0336 -0.1028  0.9056
  755SOL    HW2 3165   4.651   5.365   0.087 -0.8541 -3.1099 -2.2273
  756SOL     OW 3166   0.649   5.294   3.070 -0.6168  0.2039 -1.0410
  756SOL    HW1 3167   0.663   5.199   3.101 -1.2460  1.2144  2.9299
  756SOL    HW2 3168   0.575   5.297   3.003  0.0098 -2.1694 -1.9357
  757SOL     OW 3169   4.224   2.658   0.305  0.3412  0.3024  0.2117
  757SOL    HW1 3170   4.150   2.679   0.242 -0.0306  0.7583  0.7874
  757SOL    HW2 3171   4.310   2.648   0.254  0.0430  0.6378 -0.3631
  758SOL     OW 3172   1.555   5.277   0.751  0.5155  0.2443  0.4644
  758SOL    HW1 3173   1.460   5.308   0.747  0.6984  0.8991  0.9971
  758SOL    HW2 3174   1.599   5.294   0.662  0.0405 -0.4095  0.0937
  759SOL     OW 3175   0.541   5.499   0.980  0.7683  0.1422  0.2422
  759SOL    HW1 3176   0.536   5.595   0.954 -1.2079  0.0493  0.1310
  759SOL    HW2 3177   0.607   5.452   0.922  1.9375  1.4597  0.4540
  760SOL     OW 3178   5.350   0.035   2.397  0.2831  0.1996  0.5313
  760SOL    HW1 3179   5.311  -0.016   2.474 -0.2783  1.6135  1.2219
  760SOL    HW2 3180   5.360  -0.027   2.319  0.3015 -1.1278  1.5364
  761SOL     OW 3181   4.684   0.492   2.747 -0.4838 -0.3410  0.2913
  761SOL    HW1 3182   4.739   0.457   2.672  2.0045  0.6014  1.5746
  761SOL    HW2 3183   4.590   0.458   2.738 -0.6345  0.6056 -3.8148
  762SOL     OW 3184   4.394   2.331   4.732 -0.3062 -0.2931 -0.4754
  762SOL    HW1 3185   4.320   2.265   4.728 -0.8469  0.2142  0.6728
  762SOL    HW2 3186   4.370   2.405   4.796 -0.2561  1.6801 -2.6045
  763SOL     OW 3187   1.297   4.670   7.017 -0.7672 -0.0313  0.3509
  763SOL    HW1 3188   1.234   4.595   7.039 -1.1403  0.3004  0.4217
  763SOL    HW2 3189   1.302   4.682   6.918 -0.3302 -0.4708  0.3205
  764SOL     OW 3190   5.655   2.780   4.476  0.6307 -0.1545  0.0575
  764SOL    HW1 3191   5.557   2.796   4.474  0.4453 -0.9463  1.6067
  764SOL    HW2 3192   5.702   2.864   4.505  0.3922  0.1114 -0.3199
  765SOL     OW 3193   5.943   0.935   6.398  0.2453 -0.2931  0.1882
  765SOL    HW1 3194   6.040   0.956   6.385  0.5041 -2.0122 -0.8661
  765SOL    HW2 3195   5.908   0.887   6.318 -1.4278  0.0621  0.6718
  766SOL     OW 3196   3.880   1.590   3.142 -0.4867  0.0633  0.5572
  766SOL    HW1 3197   3.858   1.642   3.224 -1.1834  2.1410 -0.8627
  766SOL    HW2 3198   3.835   1.631   3.063  0.4762 -1.6194 -0.9522
  767SOL     OW 3199   0.924   4.706   6.348 -0.6453  0.4502 -0.3997
  767SOL    HW1 3200   0.952   4.665   6.435 -0.5773 -0.4541 -0.8364
  767SOL    HW2 3201   0.831   4.677   6.327 -0.0069 -0.8747 -1.5298
  768SOL     OW 3202   3.521   4.932   3.790  0.0322 -0.4765  0.0855
  768SOL    HW1 3203   3.614   4.895   3.788  0.4018  0.4102 -2.3353
  768SOL    HW2 3204   3.516   5.006   3.857  1.3808  0.1330 -0.4492
  769SOL     OW 3205   3.767   1.171   5.108  0.3462 -0.0925  0.3959
  769SOL    HW1 3206   3.705   1.232   5.157  2.0238  1.6444  0.4671
  769SOL    HW2 3207   3.730   1.152   5.017 -1.3305 -0.9058  1.2161
  770SOL     OW 3208   1.974   6.228   6.349 -0.7039  0.2423 -0.3099
  770SOL    HW1 3209   1.923   6.210   6.433  0.1946  0.0686  0.2127
  770SOL    HW2 3210   2.036   6.305   6.364  1.3615 -1.3939  0.0588
  771SOL     OW 3211   5.328   5.534   5.427  0.3287 -0.5201  0.5374
  771SOL    HW1 3212   5.326   5.576   5.518  1.0987  0.2418  0.2115
  771SOL    HW2 3213   5.290   5.598   5.361 -0.6228 -1.2335  0.3676
  772SOL     OW 3214   1.104   6.237   1.561 -0.2289  0.2945  0.1719
  772SOL    HW1 3215   1.083   6.164   1.626  0.0737  0.4337  0.4245
  772SOL    HW2 3216   1.169   6.300   1.601 -1.0807  1.1410  0.2502
  773SOL     OW 3217   4.622   6.227   6.248  0.4096 -0.1089 -0.1363
  773SOL    HW1 3218   4.582   6.184   6.167 -1.5072  1.7030 -0.2329
  773SOL    HW2 3219   4.676   6.307   6.221  2.5824 -1.3738  0.1744
  774SOL     OW 3220   6.601   1.547   5.701  0.0383 -0.2917  0.2850
  774SOL    HW1 3221   6.630   1.582   5.612 -2.3103  0.2558 -0.3349
  774SOL    HW2 3222   6.564   1.622   5.756 -1.0331 -1.0667  0.6569
  775SOL     OW 3223   0.161   6.765   1.388 -0.6271 -0.4258 -0.0651
  775SOL    HW1 3224   0.116   6.836   1.441 -1.8772 -2.1364  1.2876
  775SOL    HW2 3225   0.094   6.722   1.327  0.0407 -0.6174 -0.6752
  776SOL     OW 3226   6.208   2.852   1.136  0.0074 -0.2380 -0.3409
  776SOL    HW1 3227   6.269   2.930   1.126  0.5890 -0.9256 -3.0795
  776SOL    HW2 3228   6.116   2.883   1.159  0.1640  1.2887 -1.6447
  777SOL     OW 3229   5.266   6.149   0.985  0.0710 -1.2113 -0.3356
  777SOL    HW1 3230   5.357   6.139   0.942  0.5674  0.7223  0.1563
  777SOL    HW2 3231   5.226   6.236   0.957 -0.9726 -1.3405  0.6905
  778SOL     OW 3232   1.411   4.371   6.923  0.0553  0.3075  0.1099
  778SOL    HW1 3233   1.459   4.444   6.972  0.1511  1.4158 -1.5130
  778SOL    HW2 3234   1.355   4.412   6.850 -1.5728 -1.1251  0.5037
  779SOL     OW 3235   2.045   3.974   5.267 -0.1522  0.1822 -0.0737
  779SOL    HW1 3236   2.009   4.067   5.281 -1.1131 -0.3534  1.2199
  779SOL    HW2 3237   2.118   3.977   5.200  0.1689  1.9646  0.2914
  780SOL     OW 3238   0.645   4.056   0.208 -0.2579  0.0387  0.2236
  780SOL    HW1 3239   0.644   4.081   0.112  0.0705 -0.2300  0.1455
  780SOL    HW2 3240   0.566   3.998   0.229 -0.6919  0.6368  0.2713
  781SOL     OW 3241   4.212   0.140   2.131 -0.5020 -0.4050 -0.1003
  781SOL    HW1 3242   4.230   0.042   2.138  3.4361  0.1798  0.3007
  781SOL    HW2 3243   4.204   0.166   2.034  0.2638 -0.9003 -0.3036
  782SOL     OW 3244   5.597   4.712   3.220  0.5531 -0.1315 -0.1164
  782SOL    HW1 3245   5.659   4.763   3.161  1.1205 -0.3528  0.2785
  782SOL    HW2 3246   5.502   4.728   3.192  0.8188 -0.3424 -1.1748
  783SOL     OW 3247   2.715   1.843   5.628 -0.2189 -0.4702 -0.1945
  783SOL    HW1 3248   2.672   1.876   5.712 -2.3958 -0.6978 -1.1705
  783SOL    HW2 3249   2.807   1.810   5.650  0.5490  2.4193  1.5061
  784SOL     OW 3250   2.108   3.115   4.886  0.8922  0.4592 -0.1669
  784SOL    HW1 3251   2.191   3.114   4.942  1.8008 -0.6702 -1.4709
  784SOL    HW2 3252   2.057   3.030   4.902  2.0953 -0.7551 -2.3001
  785SOL     OW 3253   2.193   1.218   2.969  0.0074  0.5950  0.3590
  785SOL    HW1 3254   2.198   1.156   3.047  0.2073  0.7285  0.4530
  785SOL    HW2 3255   2.227   1.308   2.996  1.9739  0.1329 -0.3959
  786SOL     OW 3256   2.483   0.020   1.145  0.3473 -0.1841  0.2435
  786SOL    HW1 3257   2.493  -0.069   1.101 -1.5906  0.7144 -2.2269
  786SOL    HW2 3258   2.560   0.079   1.120  1.1268 -0.8086  1.0957
  787SOL     OW 3259   6.061   1.839   0.724  0.1108 -0.6174 -1.1728
  787SOL    HW1 3260   6.139   1.869   0.779  0.1458 -0.4690 -1.3003
  787SOL    HW2 3261   6.009   1.919   0.695  0.0215 -0.7038 -1.2498
  788SOL     OW 3262   4.280   1.380   5.323 -0.3098  0.0951  0.3421
  788SOL    HW1 3263   4.360   1.320   5.332 -0.1168  0.2604 -0.2653
  788SOL    HW2 3264   4.197   1.326   5.338 -0.2715 -0.8419 -2.3647
  789SOL     OW 3265   6.267   1.825   5.986 -0.2180  0.1503  0.0440
  789SOL    HW1 3266   6.196   1.774   6.035  1.2663 -0.7415  1.3377
  789SOL    HW2 3267   6.223   1.891   5.924 -2.2123  1.3970  2.5631
  790SOL     OW 3268   2.071   6.236   3.507  0.5549  0.0479 -0.2202
  790SOL    HW1 3269   2.156   6.283   3.486 -0.1432  1.3073 -0.2929
  790SOL    HW2 3270   1.994   6.287   3.470 -0.3456 -0.3224  1.0669
  791SOL     OW 3271   2.500   5.974   1.422  0.3036  0.0870 -0.6171
  791SOL    HW1 3272   2.515   5.916   1.502 -0.2748  0.3428 -0.3132
  791SOL    HW2 3273   2.586   6.018   1.396  0.8395 -1.2134 -1.1037
  792SOL     OW 3274   5.610   1.805   2.622  0.2972 -0.4788 -0.2808
  792SOL    HW1 3275   5.625   1.781   2.717  2.1893  1.3212 -0.0599
  792SOL    HW2 3276   5.522   1.851   2.613 -0.3682 -1.5849  0.3873
  793SOL     OW 3277   3.759   3.132   6.165 -0.1370  0.3420  0.1600
  793SOL    HW1 3278   3.686   3.124   6.233 -1.2829  1.8227 -0.8370
  793SOL    HW2 3279   3.827   3.061   6.181 -1.3062 -0.4939  1.7027
  794SOL     OW 3280   5.601   3.192   1.980  0.4940  0.3997  0.2545
  794SOL    HW1 3281   5.556   3.205   2.068  1.9434  1.5210  0.8502
  794SOL    HW2 3282   5.532   3.196   1.907 -0.9126 -1.8480  1.3618
  795SOL     OW 3283   6.891   6.479   1.845  0.3659 -0.1662  0.1061
  795SOL    HW1 3284   6.913   6.472   1.748 -1.9044 -3.2908 -0.3275
  795SOL    HW2 3285   6.809   6.537   1.856 -0.3440 -1.1064 -0.0824
  796SOL     OW 3286   6.475   6.220   5.467 -0.1601  0.4865  0.4267
  796SOL    HW1 3287   6.413   6.217   5.545 -0.6289  2.1150  0.1585
  796SOL    HW2 3288   6.482   6.129   5.427 -1.2820 -0.0197  1.3041
  797SOL     OW 3289   6.161   2.804   4.324  0.1511 -0.0382 -0.0343
  797SOL    HW1 3290   6.257   2.832   4.335  0.0433  0.6389 -0.7205
  797SOL    HW2 3291   6.108   2.881   4.287 -0.5590 -0.5578 -0.1137
  798SOL     OW 3292   5.137   4.131   4.587  0.6268  0.7988  0.4228
  798SOL    HW1 3293   5.066   4.163   4.651 -0.3221  0.5883 -0.4894
  798SOL    HW2 3294   5.126   4.177   4.499  0.2942 -0.7531 -0.3894
  799SOL     OW 3295   3.657   4.043   3.729 -0.0331 -0.0188  0.3860
  799SOL    HW1 3296   3.646   3.945   3.708 -0.8898  0.1083  0.2102
  799SOL    HW2 3297   3.705   4.087   3.653 -0.5953 -0.1054 -0.0289
  800SOL     OW 3298   3.573   0.389   6.264 -0.0336 -0.3211 -0.5378
  800SOL    HW1 3299   3.668   0.359   6.253  0.0978 -0.3997  0.6844
  800SOL    HW2 3300   3.558   0.472   6.209  1.4793  1.1763  1.1610
  801SOL     OW 3301   5.907   4.775   3.592  0.5250 -0.3037  0.3041
  801SOL    HW1 3302   5.963   4.696   3.565  1.9016  0.9930 -0.7929
  801SOL    HW2 3303   5.966   4.849   3.625 -0.6934  0.4884  0.7928
  802SOL     OW 3304   6.701   4.604   6.985 -0.0439 -0.2784  0.3838
  802SOL    HW1 3305   6.640   4.562   7.052 -2.6834  0.7410 -1.2403
  802SOL    HW2 3306   6.727   4.536   6.916 -2.4030  0.0163 -0.9264
  803SOL     OW 3307   0.806   4.574   0.492 -0.4811  0.2936  0.3991
  803SOL    HW1 3308   0.836   4.656   0.442  2.1601 -0.5515  0.4532
  803SOL    HW2 3309   0.821   4.493   0.435 -1.2000 -0.3482  1.0935
  804SOL     OW 3310   5.984   6.086   0.315 -0.2829 -0.3505  0.2955
  804SOL    HW1 3311   5.922   6.159   0.342  0.8340  0.9931 -0.6331
  804SOL    HW2 3312   5.932   6.013   0.270 -1.0562  1.5284 -2.0658
  805SOL     OW 3313   5.278   4.557   0.663 -0.1663  0.1530  0.4691
  805SOL    HW1 3314   5.307   4.616   0.738  0.6420  0.7501 -0.2938
  805SOL    HW2 3315   5.180   4.539   0.671 -0.2537  0.8901  1.2084
  806SOL     OW 3316   3.292   4.460   5.619 -0.3940 -0.5916 -0.4879
  806SOL    HW1 3317   3.255   4.551   5.602  0.5347 -0.1691 -0.2894
  806SOL    HW2 3318   3.354   4.435   5.545  2.0802  0.4148  1.1248
  807SOL     OW 3319   5.582   2.788   3.720 -0.1751 -0.4738  0.2642
  807SOL    HW1 3320   5.666   2.805   3.772 -0.3039 -0.7639  0.5752
  807SOL    HW2 3321   5.544   2.874   3.688  1.5130 -0.4693 -1.9358
  808SOL     OW 3322   2.357   4.219   0.485  0.3717 -0.3201  0.1361
  808SOL    HW1 3323   2.264   4.201   0.518 -1.0169 -1.4875 -3.7676
  808SOL    HW2 3324   2.407   4.133   0.477  0.4348 -0.1813 -1.1751
  809SOL     OW 3325   1.165   3.055   6.477  0.0664 -0.6119  0.0784
  809SOL    HW1 3326   1.240   3.088   6.533  0.7332 -0.7198 -0.7288
  809SOL    HW2 3327   1.086   3.116   6.485  0.9218  0.6076 -0.5971
  810SOL     OW 3328   1.379   2.252   4.540  0.0299  0.1381  0.0504
  810SOL    HW1 3329   1.468   2.277   4.578  0.6535 -0.0969 -1.2296
  810SOL    HW2 3330   1.366   2.153   4.547  1.6113 -0.4199 -3.2657
  811SOL     OW 3331   3.845   5.085   2.614  0.4649 -0.0478  0.0533
  811SOL    HW1 3332   3.764   5.027   2.623  1.3321 -1.3875 -0.5169
  811SOL    HW2 3333   3.920   5.046   2.668  1.0584  0.5466 -0.3325
  812SOL     OW 3334   3.831   1.000   4.127 -0.7661 -0.4772  0.2456
  812SOL    HW1 3335   3.813   1.092   4.093  2.0088  0.1890  0.3482
  812SOL    HW2 3336   3.764   0.976   4.197  0.2090  2.7646  2.5005
  813SOL     OW 3337   1.308   5.076   3.925 -0.5122 -0.0372 -0.1395
  813SOL    HW1 3338   1.342   5.000   3.869 -0.8444 -1.0476  0.9662
  813SOL    HW2 3339   1.306   5.047   4.021 -1.5367  1.0553  0.1866
  814SOL     OW 3340   5.940   0.792   6.159 -0.0146 -0.2336  0.0732
  814SOL    HW1 3341   6.019   0.846   6.130  1.6500 -0.9428  2.9277
  814SOL    HW2 3342   5.906   0.739   6.081  2.0758  0.3516 -1.3469
  815SOL     OW 3343   3.333   3.349   6.541  0.0928 -0.1393  0.7322
  815SOL    HW1 3344   3.422   3.311   6.565  0.7215  0.0884 -1.0635
  815SOL    HW2 3345   3.332   3.371   6.443 -1.2026  1.8861  1.1537
  816SOL     OW 3346   4.861   0.427   2.543  0.9412  0.7521 -0.3114
  816SOL    HW1 3347   4.951   0.468   2.537  0.8466  0.7724 -2.7028
  816SOL    HW2 3348   4.837   0.385   2.455 -1.4635  0.9324  0.1694
  817SOL     OW 3349   2.379   1.194   3.532  0.1242 -0.6421  0.4344
  817SOL    HW1 3350   2.345   1.108   3.496 -1.2226 -0.4819  1.2383
  817SOL    HW2 3351   2.447   1.176   3.603  1.4076 -0.9807 -0.8458
  818SOL     OW 3352   1.079   3.358   4.038  0.1738  0.6617  0.1811
  818SOL    HW1 3353   1.110   3.356   4.133  0.5957  0.6291  0.0451
  818SOL    HW2 3354   0.980   3.369   4.036  0.2693  1.6933  0.6144
  819SOL     OW 3355   7.015   1.760   4.203 -0.0765 -0.5149 -0.0957
  819SOL    HW1 3356   7.053   1.668   4.191  0.2680 -0.3628 -0.2080
  819SOL    HW2 3357   7.078   1.815   4.259 -0.7890 -0.6645  0.8644
  820SOL     OW 3358   0.481   6.143   4.224 -0.5807 -0.1509  0.1233
  820SOL    HW1 3359   0.404   6.080   4.233 -1.5245  1.1025  1.3129
  820SOL    HW2 3360   0.537   6.116   4.146 -1.6627 -1.6807 -0.1777
  821SOL     OW 3361   5.736   3.912   6.409  0.3440 -0.4312 -0.4046
  821SOL    HW1 3362   5.691   3.823   6.397 -0.6115 -0.1633  1.0302
  821SOL    HW2 3363   5.832   3.898   6.434 -0.3119 -1.1317  1.8969
  822SOL     OW 3364   1.016   1.872   2.358 -0.0741  0.4977  0.2533
  822SOL    HW1 3365   1.042   1.940   2.289 -2.2268  0.7971 -0.3287
  822SOL    HW2 3366   0.977   1.792   2.313 -1.3986  0.6423  1.0702
  823SOL     OW 3367   4.085   1.225   6.097 -0.0404  0.3047 -0.0623
  823SOL    HW1 3368   4.071   1.126   6.108 -0.0610  0.2539 -0.5090
  823SOL    HW2 3369   4.014   1.262   6.037  0.9480  0.2767 -1.2939
  824SOL     OW 3370   2.405   1.665   0.039  0.4848 -0.1978 -0.3513
  824SOL    HW1 3371   2.373   1.695   0.129  1.1995  0.4776 -0.3086
  824SOL    HW2 3372   2.495   1.622   0.048  1.4408  1.5740 -0.9509
  825SOL     OW 3373   5.254   4.145   0.706  0.0135 -0.2808 -0.1104
  825SOL    HW1 3374   5.259   4.197   0.792 -0.1603  0.6146 -0.6302
  825SOL    HW2 3375   5.325   4.177   0.644  3.3534 -4.0505  1.2928
  826SOL     OW 3376   5.105   4.152   6.256 -0.1873  0.0131 -0.2008
  826SOL    HW1 3377   5.129   4.062   6.221  0.1180  0.1320 -0.2965
  826SOL    HW2 3378   5.061   4.205   6.183 -0.6558 -0.1669 -0.0555
  827SOL     OW 3379   5.457   0.757   0.733  0.5357  0.2353 -0.5467
  827SOL    HW1 3380   5.550   0.772   0.767  0.1822 -0.0074  0.5735
  827SOL    HW2 3381   5.435   0.826   0.665  1.5242  0.3225 -0.7964
  828SOL     OW 3382   0.606   4.829   5.483  0.0155  0.4818  0.5460
  828SOL    HW1 3383   0.648   4.887   5.553 -0.4999  0.0205  1.2396
  828SOL    HW2 3384   0.640   4.858   5.393  0.7851  0.9905  0.9802
  829SOL     OW 3385   2.204   6.237   4.135 -0.1512 -0.5185 -0.5066
  829SOL    HW1 3386   2.287   6.226   4.079  0.9932  0.3036  0.9278
  829SOL    HW2 3387   2.202   6.166   4.205 -1.0404 -0.9421 -0.9561
  830SOL     OW 3388   1.368   5.863   5.614  0.2680 -0.2966  0.3292
  830SOL    HW1 3389   1.451   5.905   5.652 -0.0038  1.9753 -1.3523
  830SOL    HW2 3390   1.390   5.817   5.528 -0.3864  1.9013 -1.1128
  831SOL     OW 3391   4.364   5.075   6.312  0.1916 -0.1705 -0.0909
  831SOL    HW1 3392   4.329   5.112   6.226  0.5459  2.0902  0.6491
  831SOL    HW2 3393   4.336   4.980   6.322 -2.6779  0.4749 -1.1430
  832SOL     OW 3394   2.223   2.452   3.462  0.1417 -0.1214 -0.4280
  832SOL    HW1 3395   2.197   2.546   3.483 -0.2218 -0.1893 -0.5709
  832SOL    HW2 3396   2.172   2.420   3.382  0.2117 -0.4662 -0.3377
  833SOL     OW 3397   2.992   3.343   5.664 -0.2563 -0.4902  0.6526
  833SOL    HW1 3398   3.077   3.380   5.701  0.4430  0.7657 -1.9763
  833SOL    HW2 3399   2.977   3.251   5.701  2.4135 -0.8809  0.9752
  834SOL     OW 3400   2.779   2.272   4.333  0.1138  0.6629 -0.2145
  834SOL    HW1 3401   2.847   2.236   4.397 -0.2144 -0.0201 -0.2376
  834SOL    HW2 3402   2.703   2.207   4.325  0.0913  0.7923 -1.2137
  835SOL     OW 3403   2.969   1.657   3.025 -0.0095  0.2028  0.1358
  835SOL    HW1 3404   3.029   1.737   3.037 -0.1394  0.2270  0.6716
  835SOL    HW2 3405   2.874   1.688   3.017 -0.0026  0.1346 -0.2466
  836SOL     OW 3406   2.294   0.087   2.800 -0.4386  0.2731  0.4107
  836SOL    HW1 3407   2.222   0.038   2.849 -1.5400 -1.7789 -2.8807
  836SOL    HW2 3408   2.260   0.177   2.772 -0.9028  0.2272  0.8206
  837SOL     OW 3409   5.322   0.222   6.992  0.3798 -0.1556  0.2344
  837SOL    HW1 3410   5.394   0.190   7.054 -0.2215 -1.5256  0.2585
  837SOL    HW2 3411   5.234   0.221   7.040  0.0475 -0.3777 -0.3747
  838SOL     OW 3412   3.235   5.154   6.073 -0.1535  0.4976  0.1301
  838SOL    HW1 3413   3.314   5.210   6.100 -0.5585  1.3277 -0.3743
  838SOL    HW2 3414   3.158   5.175   6.133  0.0273 -0.4226  0.7179
  839SOL     OW 3415   6.516   6.546   0.442 -0.0815  0.4593 -0.3836
  839SOL    HW1 3416   6.500   6.526   0.539  0.8509 -3.5650 -0.8981
  839SOL    HW2 3417   6.615   6.552   0.426 -0.2477  2.7697 -0.9114
  840SOL     OW 3418   0.245   2.465   3.944 -0.1974  0.1225 -0.1588
  840SOL    HW1 3419   0.329   2.413   3.957 -2.1163 -2.7544  1.8026
  840SOL    HW2 3420   0.255   2.556   3.986  1.9405 -0.0418 -0.2015
  841SOL     OW 3421   5.957   0.840   0.476 -0.3760  0.4414 -0.2455
  841SOL    HW1 3422   5.932   0.789   0.394  1.3798  0.0017 -0.5497
  841SOL    HW2 3423   6.001   0.926   0.450  1.6417 -0.4197  0.1752
  842SOL     OW 3424   4.966   1.296   4.772  0.2199  0.4187  0.4832
  842SOL    HW1 3425   5.048   1.309   4.828 -1.4078 -0.5724  3.3203
  842SOL    HW2 3426   4.893   1.356   4.804 -0.8008 -0.1927 -0.5782
  843SOL     OW 3427   3.486   6.088   3.696 -0.0655  0.4750 -0.4032
  843SOL    HW1 3428   3.529   6.131   3.616  0.0560  1.3248  0.1133
  843SOL    HW2 3429   3.421   6.018   3.665 -0.1162  0.8861 -1.2555
  844SOL     OW 3430   2.327   6.244   5.977  0.2246  0.3425  1.0433
  844SOL    HW1 3431   2.245   6.301   5.963 -0.0869 -0.4026 -0.4737
  844SOL    HW2 3432   2.300   6.158   6.019  0.2944  0.2707  0.9409
  845SOL     OW 3433   0.488   3.266   3.074 -0.1089  0.7193 -0.6670
  845SOL    HW1 3434   0.389   3.273   3.072  0.0383  3.7147 -1.3439
  845SOL    HW2 3435   0.526   3.335   3.135  1.6200  0.6323 -1.5616
  846SOL     OW 3436   2.738   2.356   2.854 -0.3351 -0.4664 -0.2186
  846SOL    HW1 3437   2.695   2.392   2.771 -0.3989 -1.0303 -0.4327
  846SOL    HW2 3438   2.816   2.298   2.828  1.0222  1.0934  0.1646
  847SOL     OW 3439   6.158   3.156   1.912 -0.4393 -0.6363  0.1679
  847SOL    HW1 3440   6.218   3.190   1.985  0.3954  0.4121 -0.9690
  847SOL    HW2 3441   6.064   3.179   1.933 -0.2925 -0.9192  1.2177
  848SOL     OW 3442   6.396   5.615   1.904 -0.1081  0.2572  0.5143
  848SOL    HW1 3443   6.494   5.601   1.890  0.2262  1.3175  1.6151
  848SOL    HW2 3444   6.362   5.681   1.838  0.0271  0.2384  0.4250
  849SOL     OW 3445   5.923   2.448   0.558  0.3527  0.2208 -0.4358
  849SOL    HW1 3446   5.848   2.382   0.551 -0.3980  0.8669  1.0253
  849SOL    HW2 3447   5.887   2.535   0.593  1.4154  1.2529 -1.8117
  850SOL     OW 3448   2.926   2.527   0.808  0.5717  0.0614  0.2190
  850SOL    HW1 3449   2.829   2.515   0.787  0.1554  1.7791  1.0064
  850SOL    HW2 3450   2.936   2.573   0.896  2.0725  0.7246 -0.2638
  851SOL     OW 3451   4.379   1.192   3.506  0.1530 -0.5305  0.3525
  851SOL    HW1 3452   4.456   1.238   3.552  0.5080 -2.0406  1.3485
  851SOL    HW2 3453   4.413   1.141   3.427 -0.0972  0.1803 -0.2159
  852SOL     OW 3454   1.115   5.132   1.486 -0.0431  0.6532  0.1907
  852SOL    HW1 3455   1.174   5.058   1.520  1.4044  1.4157 -0.5623
  852SOL    HW2 3456   1.165   5.219   1.491 -0.9387  1.2526 -0.9201
  853SOL     OW 3457   2.760   6.925   4.271  0.3566 -0.0752 -0.1184
  853SOL    HW1 3458   2.808   7.001   4.228  0.1644  1.2481  1.8901
  853SOL    HW2 3459   2.662   6.943   4.273 -0.0378 -1.6106 -1.9061
  854SOL     OW 3460   3.832   3.294   4.761 -0.1420 -0.6412  0.6373
  854SOL    HW1 3461   3.744   3.340   4.767 -0.3103 -0.8439 -0.1004
  854SOL    HW2 3462   3.905   3.358   4.782 -0.4118 -0.2031  0.2525
  855SOL     OW 3463   6.309   5.688   5.941  0.0093 -0.2789  0.5119
  855SOL    HW1 3464   6.267   5.698   6.031 -2.9284  0.6502 -0.8275
  855SOL    HW2 3465   6.285   5.599   5.902 -2.0025  0.7789 -0.8061
  856SOL     OW 3466   5.264   1.764   5.125  0.7041 -0.3292  0.3218
  856SOL    HW1 3467   5.239   1.764   5.222  3.2028  0.5913  1.0258
  856SOL    HW2 3468   5.319   1.845   5.105  0.8343 -0.8819 -1.7212
  857SOL     OW 3469   5.733   3.788   5.510 -0.1482  0.6795  0.4041
  857SOL    HW1 3470   5.641   3.787   5.471 -0.5674 -0.1924  1.3718
  857SOL    HW2 3471   5.749   3.704   5.561  0.2223  1.9161  2.4317
  858SOL     OW 3472   5.007   1.537   4.087 -0.1049 -0.1974  1.0961
  858SOL    HW1 3473   5.067   1.617   4.091 -0.7976  0.3480  0.8107
  858SOL    HW2 3474   5.056   1.457   4.121  1.9726 -0.5401 -2.3152
  859SOL     OW 3475   6.093   6.562   1.371  0.3938 -0.3089 -0.1439
  859SOL    HW1 3476   6.121   6.590   1.279 -0.2258  1.5668  0.1888
  859SOL    HW2 3477   5.993   6.558   1.376  0.4359 -1.0665  0.2737
  860SOL     OW 3478   3.084   0.740   4.207 -0.4803  0.1408  0.0114
  860SOL    HW1 3479   3.009   0.805   4.223 -0.4106  0.5191 -1.1341
  860SOL    HW2 3480   3.171   0.790   4.204 -0.3251 -0.1283 -0.0182
  861SOL     OW 3481   0.423   2.685   6.945 -0.6199  0.0145 -0.0694
  861SOL    HW1 3482   0.447   2.662   6.851 -0.9360 -0.6697  0.0108
  861SOL    HW2 3483   0.502   2.668   7.005  0.3548  2.5938 -0.4971
  862SOL     OW 3484   5.706   4.902   1.588  0.2253  0.1283  0.3194
  862SOL    HW1 3485   5.694   4.991   1.545  5.2525  1.5566  1.3317
  862SOL    HW2 3486   5.745   4.913   1.679  3.0769 -3.0495 -0.3112
  863SOL     OW 3487   3.376   1.122   4.636 -0.4081 -0.6694 -0.5082
  863SOL    HW1 3488   3.455   1.065   4.660 -0.0881  0.0420  0.2196
  863SOL    HW2 3489   3.396   1.175   4.554 -0.3626 -0.9537 -0.6779
  864SOL     OW 3490   5.701   5.572   5.523  0.2045  0.7879 -0.1756
  864SOL    HW1 3491   5.625   5.521   5.484  2.0208 -1.5446 -0.9402
  864SOL    HW2 3492   5.729   5.643   5.459 -0.4508  0.7401 -0.5235
  865SOL     OW 3493   3.869   3.022   4.816 -0.3344  0.6247 -0.4711
  865SOL    HW1 3494   3.963   3.032   4.851 -0.8892  1.1665  0.9611
  865SOL    HW2 3495   3.841   3.108   4.774 -0.2762  0.5480 -0.6654
  866SOL     OW 3496   2.347   4.265   6.693  0.0561  0.0164  0.0834
  866SOL    HW1 3497   2.280   4.321   6.644  0.7555  0.2701 -0.6122
  866SOL    HW2 3498   2.419   4.324   6.730  1.8329 -0.5366 -2.2952
  867SOL     OW 3499   2.506   7.001   3.514 -0.2268 -0.2338  0.0318
  867SOL    HW1 3500   2.447   6.924   3.539  0.4401 -0.3115  1.4618
  867SOL    HW2 3501   2.541   7.045   3.597  1.9210 -0.3467 -0.7494
  868SOL     OW 3502   2.954   2.322   5.551  0.3927  0.2355  0.0709
  868SOL    HW1 3503   2.993   2.404   5.592  1.7095  0.3454 -1.2987
  868SOL    HW2 3504   2.976   2.320   5.453 -0.9504 -0.9778 -0.2403
  869SOL     OW 3505   3.876   1.734   4.598 -0.1867 -0.0890 -0.7153
  869SOL    HW1 3506   3.939   1.657   4.608 -0.2629  0.0564  1.3549
  869SOL    HW2 3507   3.840   1.736   4.504  1.5042 -1.2231 -1.4386
  870SOL     OW 3508   5.261   3.894   4.559 -0.8613 -0.2023  0.4091
  870SOL    HW1 3509   5.272   3.852   4.649  0.8030  3.5505  2.1846
  870SOL    HW2 3510   5.218   3.984   4.570  1.4581  1.3718 -2.1617
  871SOL     OW 3511   3.139   5.352   0.475 -0.0149  0.3043 -0.3846
  871SOL    HW1 3512   3.054   5.347   0.423 -0.4331  0.5584  0.2668
  871SOL    HW2 3513   3.191   5.433   0.447  0.7584 -0.6686 -1.8839
  872SOL     OW 3514   2.538   5.555   0.247  0.1888 -0.0761 -0.5461
  872SOL    HW1 3515   2.555   5.594   0.156  0.0092 -0.5031 -0.7694
  872SOL    HW2 3516   2.447   5.582   0.279  0.1789 -0.0757 -0.5743
  873SOL     OW 3517   5.635   2.501   3.184  0.6258  0.0513 -0.1223
  873SOL    HW1 3518   5.652   2.418   3.238 -0.2268  1.4323  2.4261
  873SOL    HW2 3519   5.661   2.484   3.089  2.1729 -2.5436  0.6477
  874SOL     OW 3520   1.828   6.954   3.040  0.0817  0.1389  0.4047
  874SOL    HW1 3521   1.813   7.031   2.976  0.7032 -0.2707 -0.2492
  874SOL    HW2 3522   1.841   6.990   3.132 -0.7160  0.7534  0.2953
  875SOL     OW 3523   6.533   2.663   0.967  0.3239 -0.0034  0.4865
  875SOL    HW1 3524   6.447   2.678   1.015  0.2473 -0.1105  0.3829
  875SOL    HW2 3525   6.516   2.650   0.870  0.3368 -1.2478  0.6381
  876SOL     OW 3526   2.976   5.299   3.268 -0.6929 -0.1858 -0.1884
  876SOL    HW1 3527   2.994   5.256   3.180 -0.7884 -3.4958  1.2475
  876SOL    HW2 3528   3.061   5.305   3.321 -0.9908 -0.2633  0.3079
  877SOL     OW 3529   3.306   0.926   0.181 -0.3771  0.5358 -0.2445
  877SOL    HW1 3530   3.279   0.834   0.155  1.0294 -0.1098  0.4632
  877SOL    HW2 3531   3.363   0.965   0.109 -1.6527  1.2028 -0.9248
  878SOL     OW 3532   4.783   0.327   3.797  0.6537 -0.2040 -0.1506
  878SOL    HW1 3533   4.766   0.274   3.880 -0.5848  0.0180 -0.2445
  878SOL    HW2 3534   4.874   0.305   3.761  0.1866 -2.2810 -0.1949
  879SOL     OW 3535   5.715   6.415   4.104 -0.1751  0.6409 -0.7514
  879SOL    HW1 3536   5.783   6.368   4.160 -1.4590 -0.1913  0.1782
  879SOL    HW2 3537   5.672   6.488   4.157 -1.6010 -0.3377 -0.5114
  880SOL     OW 3538   6.456   4.298   1.449 -0.0634  0.4438  0.4555
  880SOL    HW1 3539   6.394   4.374   1.431  0.3152  0.3511 -1.4698
  880SOL    HW2 3540   6.528   4.296   1.379  1.9733  0.3673  2.4045
  881SOL     OW 3541   2.348   2.277   1.705 -0.0535 -0.3983  0.2564
  881SOL    HW1 3542   2.392   2.282   1.795  0.0637  1.5248  0.1323
  881SOL    HW2 3543   2.276   2.208   1.707 -1.0216  0.5602  2.2950
  882SOL     OW 3544   2.685   1.251   4.611  0.1331 -0.0806 -0.4714
  882SOL    HW1 3545   2.644   1.323   4.667 -0.4630 -0.5210 -0.3413
  882SOL    HW2 3546   2.625   1.172   4.608  0.9962 -0.7641 -0.2264
  883SOL     OW 3547   5.066   0.814   5.277  0.0595  0.3452 -0.1403
  883SOL    HW1 3548   5.040   0.847   5.186  0.7438  0.5279 -0.2758
  883SOL    HW2 3549   4.985   0.814   5.336 -0.3762  0.3137 -0.7182
  884SOL     OW 3550   0.959   5.337   6.600  0.2629  0.1646  0.4599
  884SOL    HW1 3551   0.884   5.349   6.665  0.1679  0.0920  0.3636
  884SOL    HW2 3552   1.031   5.282   6.642  0.3945  0.4845  0.6581
  885SOL     OW 3553   5.262   0.698   2.947  0.2910  0.0061 -0.6860
  885SOL    HW1 3554   5.236   0.716   2.852 -4.0225 -3.1763 -0.3939
  885SOL    HW2 3555   5.285   0.601   2.957 -0.6035 -0.0136  1.6940
  886SOL     OW 3556   2.280   6.571   6.157  0.2115 -0.0413  0.2032
  886SOL    HW1 3557   2.312   6.665   6.172 -0.5670  0.3899 -0.7094
  886SOL    HW2 3558   2.358   6.510   6.146  0.7428  0.8044 -0.9307
  887SOL     OW 3559   5.519   0.254   3.409 -0.3287  0.6562  0.3262
  887SOL    HW1 3560   5.497   0.157   3.417  0.3594  0.4724  0.0188
  887SOL    HW2 3561   5.527   0.279   3.312  0.1006  0.8830  0.4197
  888SOL     OW 3562   0.678   5.799   3.030  0.5288 -0.1769 -0.3407
  888SOL    HW1 3563   0.739   5.828   2.956  0.2692  2.5588  0.3745
  888SOL    HW2 3564   0.687   5.701   3.045  1.9023 -0.4961 -2.7719
  889SOL     OW 3565   1.103   1.290   5.452  0.1743  0.1084 -0.6408
  889SOL    HW1 3566   1.162   1.306   5.372  0.1243 -0.0234 -0.7052
  889SOL    HW2 3567   1.015   1.334   5.438 -0.2402 -0.8590 -1.1545
  890SOL     OW 3568   5.625   7.018   1.419  0.1934  0.2032 -0.3758
  890SOL    HW1 3569   5.720   7.002   1.447 -0.0957 -0.7979  0.0879
  890SOL    HW2 3570   5.593   6.939   1.366 -0.9786 -0.3460  1.0937
  891SOL     OW 3571   0.143   0.423   2.920  0.3798 -0.4708 -0.0292
  891SOL    HW1 3572   0.166   0.397   3.014 -1.3728 -0.2738  0.4984
  891SOL    HW2 3573   0.049   0.394   2.900  0.2619  0.6763 -1.2713
  892SOL     OW 3574   0.763   5.350   3.497  0.3878  0.9259 -0.1238
  892SOL    HW1 3575   0.727   5.262   3.466  0.9637 -0.1022  1.9074
  892SOL    HW2 3576   0.691   5.420   3.492 -0.6535 -0.1078 -0.0081
  893SOL     OW 3577   1.420   4.418   3.454  0.7511 -0.3533  0.6881
  893SOL    HW1 3578   1.470   4.472   3.385  2.0156 -0.0464  1.8005
  893SOL    HW2 3579   1.416   4.323   3.424  2.3732 -0.4690  0.7038
  894SOL     OW 3580   3.764   1.187   2.010 -0.5345 -0.3558  0.2275
  894SOL    HW1 3581   3.811   1.145   1.933  0.1575 -0.9322  0.9405
  894SOL    HW2 3582   3.825   1.253   2.054 -0.2528 -1.2994  1.3183
  895SOL     OW 3583   1.997   1.672   5.550 -0.5065 -0.2172  0.3440
  895SOL    HW1 3584   1.974   1.756   5.500  1.9857  0.5156  0.2715
  895SOL    HW2 3585   2.063   1.693   5.622 -1.6395 -1.7825  1.9279
  896SOL     OW 3586   6.314   2.972   5.041 -0.0078  0.5431  0.1131
  896SOL    HW1 3587   6.267   2.943   4.957 -0.8521 -0.0774  0.7861
  896SOL    HW2 3588   6.264   2.938   5.120  1.3801  0.1938  0.8617
  897SOL     OW 3589   6.529   5.506   1.178 -0.5450 -0.8173 -0.3026
  897SOL    HW1 3590   6.481   5.455   1.107 -1.7351 -0.2310  0.0438
  897SOL    HW2 3591   6.627   5.486   1.174 -0.3797  0.1615 -2.9364
  898SOL     OW 3592   1.549   2.449   0.625  0.5074  0.1474 -0.4476
  898SOL    HW1 3593   1.511   2.437   0.717  0.4428  0.8621 -0.3756
  898SOL    HW2 3594   1.645   2.474   0.631  0.3676  0.7315 -0.5504
  899SOL     OW 3595   0.259   6.180   3.616 -0.2576  0.3049  0.0338
  899SOL    HW1 3596   0.304   6.092   3.632 -2.6021 -1.1392 -0.8382
  899SOL    HW2 3597   0.208   6.206   3.698 -0.6162  0.2082 -0.1609
  900SOL     OW 3598   4.876   0.679   2.824 -0.5451  0.0526  0.0963
  900SOL    HW1 3599   4.895   0.733   2.742  1.8804 -1.7728 -0.7023
  900SOL    HW2 3600   4.808   0.609   2.803  0.3612 -0.6655 -0.5404
  901SOL     OW 3601   1.313   1.317   1.348  0.1031  0.3978  0.0197
  901SOL    HW1 3602   1.251   1.284   1.418 -1.3300 -0.0352 -1.3928
  901SOL    HW2 3603   1.364   1.396   1.382 -1.7957  1.2591  0.9743
  902SOL     OW 3604   5.770   6.262   2.962 -0.1692  0.8173 -0.0684
  902SOL    HW1 3605   5.854   6.315   2.950  0.2207  0.4847  1.0613
  902SOL    HW2 3606   5.727   6.285   3.049  0.7581 -1.6321  1.1531
  903SOL     OW 3607   6.670   0.718   2.521 -0.9243  0.3434  0.5765
  903SOL    HW1 3608   6.695   0.623   2.536  0.8111  0.4868 -0.9798
  903SOL    HW2 3609   6.632   0.729   2.430  0.7068  1.3872 -0.0332
  904SOL     OW 3610   0.439   2.924   3.403  0.4680  0.2843  0.3592
  904SOL    HW1 3611   0.437   2.914   3.502 -0.6478  0.5785  0.3848
  904SOL    HW2 3612   0.370   2.864   3.361 -2.4766  3.4461  0.1565
  905SOL     OW 3613   4.749   4.893   4.238  0.2250  0.5377  0.2609
  905SOL    HW1 3614   4.834   4.870   4.288  1.3810 -1.9000 -2.5168
  905SOL    HW2 3615   4.675   4.835   4.272 -0.1406  1.8961  1.9354
  906SOL     OW 3616   0.873   3.753   5.664  0.2247 -0.0601  0.1005
  906SOL    HW1 3617   0.797   3.727   5.603  1.2198  0.0851 -1.2342
  906SOL    HW2 3618   0.946   3.794   5.610  1.1419  0.0733  1.4175
  907SOL     OW 3619   6.864   4.631   5.959  0.4965  0.1620  0.5446
  907SOL    HW1 3620   6.811   4.547   5.973 -0.0381  0.5766  1.0288
  907SOL    HW2 3621   6.886   4.672   6.048  2.3947 -0.4670  0.4001
  908SOL     OW 3622   1.623   4.491   0.070  0.7276  0.3270  0.1501
  908SOL    HW1 3623   1.572   4.536   0.144 -0.1342  0.0049 -0.2373
  908SOL    HW2 3624   1.706   4.449   0.108 -0.5538 -1.3371  1.2743
  909SOL     OW 3625   6.058   5.070   2.845  0.0610  0.0237 -0.5081
  909SOL    HW1 3626   5.964   5.072   2.881 -0.6158 -2.1038 -1.9074
  909SOL    HW2 3627   6.057   5.092   2.748  0.8904 -0.7852 -0.7163
  910SOL     OW 3628   3.970   5.011   0.632 -0.1118 -0.5180 -0.2509
  910SOL    HW1 3629   4.002   4.969   0.717 -0.2651 -1.9106 -0.8548
  910SOL    HW2 3630   4.046   5.014   0.567  0.0487  0.6955 -0.0350
  911SOL     OW 3631   4.986   0.333   2.277 -0.8013 -0.1713  0.1076
  911SOL    HW1 3632   5.068   0.276   2.265 -0.5376  0.1763  0.2434
  911SOL    HW2 3633   5.012   0.429   2.280 -1.2264 -0.0520  0.0695
  912SOL     OW 3634   6.085   1.529   4.129 -0.2866 -0.3917  0.4167
  912SOL    HW1 3635   6.151   1.604   4.128  0.5587 -1.1073  1.1413
  912SOL    HW2 3636   6.131   1.443   4.106 -1.0265 -0.8619  0.6243
  913SOL     OW 3637   5.316   0.610   2.004  0.3035  0.3574 -0.2695
  913SOL    HW1 3638   5.350   0.659   2.084 -1.4584  0.1531  0.6726
  913SOL    HW2 3639   5.233   0.560   2.029  1.8496 -2.9724 -1.2250
  914SOL     OW 3640   5.009   6.453   2.698  0.0229  0.5727 -0.2888
  914SOL    HW1 3641   4.982   6.458   2.602  0.2638 -0.4205 -0.4224
  914SOL    HW2 3642   4.928   6.441   2.755 -0.0130 -0.1741 -0.4918
  915SOL     OW 3643   1.850   5.270   0.511 -0.3247  0.0508 -0.5975
  915SOL    HW1 3644   1.774   5.336   0.515  0.7066  1.2655 -0.5858
  915SOL    HW2 3645   1.873   5.241   0.603  1.3341  2.2076 -0.2597
  916SOL     OW 3646   3.486   3.128   5.159  0.4876  0.5693  0.3436
  916SOL    HW1 3647   3.568   3.079   5.127  1.0935  1.7887 -0.0298
  916SOL    HW2 3648   3.490   3.136   5.259  0.4618  0.0065  0.3950
  917SOL     OW 3649   2.578   0.290   0.141 -0.0228 -0.0692 -0.5921
  917SOL    HW1 3650   2.630   0.319   0.061  0.7125 -1.4253 -0.6280
  917SOL    HW2 3651   2.588   0.191   0.153  0.6124  0.2302  1.6984
  918SOL     OW 3652   3.381   2.729   0.248 -0.1886 -0.1710 -0.2095
  918SOL    HW1 3653   3.430   2.649   0.282 -2.0404 -1.0194  0.6002
  918SOL    HW2 3654   3.296   2.741   0.299 -0.1160  2.1698 -0.4959
  919SOL     OW 3655   0.492   4.255   4.487 -0.0857 -0.1496 -0.2491
  919SOL    HW1 3656   0.531   4.191   4.422  2.0885  0.5470  0.2963
  919SOL    HW2 3657   0.452   4.333   4.438  0.7099 -0.0712 -0.7912
  920SOL     OW 3658   2.265   5.044   1.684 -0.3074 -0.6090 -1.0046
  920SOL    HW1 3659   2.306   5.004   1.601  0.0703 -1.4521 -0.4323
  920SOL    HW2 3660   2.281   4.982   1.761 -2.1908 -0.6973 -0.6421
  921SOL     OW 3661   1.139   6.888   0.609  0.1797 -0.4401  0.4235
  921SOL    HW1 3662   1.225   6.856   0.569 -0.6917 -1.7228 -0.5122
  921SOL    HW2 3663   1.065   6.827   0.581 -1.2716  1.3590  0.1335
  922SOL     OW 3664   3.546   2.786   1.672 -0.0749  0.4851  0.3994
  922SOL    HW1 3665   3.547   2.686   1.678  3.1168  0.3942 -0.0558
  922SOL    HW2 3666   3.497   2.823   1.752  0.5047 -1.4184  1.7173
  923SOL     OW 3667   3.384   6.767   0.666  0.4680  0.0330 -0.3787
  923SOL    HW1 3668   3.460   6.831   0.650  0.2920 -0.2150 -2.4749
  923SOL    HW2 3669   3.298   6.817   0.664  0.5233  0.4658  2.8964
  924SOL     OW 3670   2.845   6.175   0.603 -0.2336  0.2269 -0.4178
  924SOL    HW1 3671   2.857   6.271   0.628  0.1926 -0.4521  2.3316
  924SOL    HW2 3672   2.929   6.142   0.560  0.1113  0.7629 -0.1755
  925SOL     OW 3673   5.322   2.063   5.879  0.0315  0.1383 -0.2136
  925SOL    HW1 3674   5.416   2.090   5.863  0.2152 -1.1642 -1.5301
  925SOL    HW2 3675   5.260   2.126   5.833  0.1507  1.7218  1.6613
  926SOL     OW 3676   2.554   5.488   4.835  0.0411  0.0137 -0.1394
  926SOL    HW1 3677   2.637   5.542   4.821  0.3297 -0.7428 -1.5626
  926SOL    HW2 3678   2.497   5.493   4.753 -0.0574 -1.5955 -0.2006
  927SOL     OW 3679   1.300   3.999   3.437  0.1036 -0.3394 -0.0231
  927SOL    HW1 3680   1.346   4.075   3.391 -1.0717  0.4713  0.1056
  927SOL    HW2 3681   1.362   3.959   3.505  0.9224  0.1443 -0.4678
  928SOL     OW 3682   2.228   5.950   1.716  0.3724  0.4609  0.1457
  928SOL    HW1 3683   2.140   5.906   1.734  0.8610 -0.5833  0.0215
  928SOL    HW2 3684   2.269   5.979   1.803  0.5079 -0.2313  0.3150
  929SOL     OW 3685   4.522   0.647   6.086 -0.1154 -0.9377  0.0006
  929SOL    HW1 3686   4.618   0.621   6.100  0.3920  0.4115 -0.7808
  929SOL    HW2 3687   4.473   0.639   6.173  1.2739  0.5640  0.9829
  930SOL     OW 3688   1.122   1.297   2.203 -0.4567  0.5205  0.2742
  930SOL    HW1 3689   1.217   1.280   2.176  0.0502 -0.7771  2.6722
  930SOL    HW2 3690   1.061   1.261   2.132  0.8013  0.8884 -1.0480
  931SOL     OW 3691   4.577   2.685   4.593  0.3334  0.1391 -0.0103
  931SOL    HW1 3692   4.485   2.709   4.626 -0.2146 -1.3512 -0.3729
  931SOL    HW2 3693   4.644   2.744   4.637 -0.7581  0.9732  0.5950
  932SOL     OW 3694   5.552   0.892   5.815 -0.5490 -0.3310  0.2820
  932SOL    HW1 3695   5.611   0.836   5.757  0.8699  2.2028 -0.9040
  932SOL    HW2 3696   5.465   0.845   5.829  0.8868 -3.2364  0.2755
  933SOL     OW 3697   6.746   6.146   5.781  0.3443  0.4808  0.4269
  933SOL    HW1 3698   6.715   6.234   5.744  0.5160 -0.5010 -2.2601
  933SOL    HW2 3699   6.845   6.140   5.773  0.2231 -0.4316 -0.6395
  934SOL     OW 3700   1.689   4.536   5.135 -0.9327 -0.3260  0.2529
  934SOL    HW1 3701   1.713   4.628   5.166 -1.8333 -0.8641  2.7917
  934SOL    HW2 3702   1.699   4.472   5.211 -1.3347 -2.1624 -1.1815
  935SOL     OW 3703   0.435   4.671   6.967 -0.5105  0.2548 -0.7813
  935SOL    HW1 3704   0.394   4.588   7.006 -0.8559 -0.7288 -3.0754
  935SOL    HW2 3705   0.531   4.676   6.994 -0.5844 -0.6847 -0.2801
  936SOL     OW 3706   2.122   3.542   6.121  0.2560 -0.4818  0.0811
  936SOL    HW1 3707   2.173   3.483   6.183 -0.7701 -0.0679  1.3607
  936SOL    HW2 3708   2.040   3.576   6.167 -0.1294  0.4732 -1.2500
  937SOL     OW 3709   4.799   3.864   5.277  0.8991 -0.3472 -0.7396
  937SOL    HW1 3710   4.809   3.817   5.365  4.4982  0.1345 -0.7424
  937SOL    HW2 3711   4.755   3.803   5.211  1.3942 -2.0547  0.4531
  938SOL     OW 3712   4.429   5.021   5.602 -0.0328 -0.0150  0.4444
  938SOL    HW1 3713   4.516   5.071   5.603 -0.2751  0.4073  0.5178
  938SOL    HW2 3714   4.403   5.001   5.508 -1.2974  2.4038  0.1983
  939SOL     OW 3715   3.099   3.126   3.883  0.2372 -0.6140 -0.0101
  939SOL    HW1 3716   3.086   3.092   3.976  1.2603 -2.1783 -0.4191
  939SOL    HW2 3717   3.026   3.192   3.862  0.1686  0.0184  1.9881
  940SOL     OW 3718   1.985   3.302   0.607  0.1125 -0.2451 -0.1004
  940SOL    HW1 3719   1.894   3.300   0.648 -0.0752  0.3492 -0.4761
  940SOL    HW2 3720   2.032   3.387   0.634  1.0284 -1.0962  1.0808
  941SOL     OW 3721   6.259   0.976   2.264  0.3031 -0.0160 -0.1346
  941SOL    HW1 3722   6.279   1.059   2.213 -1.8656  0.0229 -1.0649
  941SOL    HW2 3723   6.242   0.901   2.200  0.9644 -0.8636  0.6568
  942SOL     OW 3724   2.206   0.045   5.171 -0.6824  0.1798 -0.4792
  942SOL    HW1 3725   2.292   0.088   5.143  0.0146 -1.5855 -1.1864
  942SOL    HW2 3726   2.200   0.046   5.271 -0.1439  0.8678 -0.4474
  943SOL     OW 3727   1.835   4.531   1.462  0.3909  0.5821  0.6698
  943SOL    HW1 3728   1.850   4.471   1.383  1.8618 -0.0706  1.4009
  943SOL    HW2 3729   1.852   4.480   1.546 -0.6363  1.4122  1.4165
  944SOL     OW 3730   6.634   4.738   4.611  0.2909 -0.8003  0.9208
  944SOL    HW1 3731   6.603   4.707   4.521 -0.3486  1.1862  0.4075
  944SOL    HW2 3732   6.733   4.736   4.614  0.3122 -1.1795  0.2767
  945SOL     OW 3733   3.039   6.201   3.928  0.1757 -0.3496  0.8208
  945SOL    HW1 3734   3.139   6.202   3.921  0.2004 -2.3441  0.2030
  945SOL    HW2 3735   3.005   6.295   3.930  1.9174  0.4252 -1.1583
  946SOL     OW 3736   6.351   3.402   4.763  0.2266 -0.3078 -0.5655
  946SOL    HW1 3737   6.431   3.463   4.763 -1.2357  1.7424  0.5484
  946SOL    HW2 3738   6.350   3.349   4.848 -1.2726  2.1719  1.0931
  947SOL     OW 3739   1.518   0.192   1.496 -0.2270 -0.1690 -0.1871
  947SOL    HW1 3740   1.582   0.266   1.517 -0.5529  0.4067 -1.1263
  947SOL    HW2 3741   1.448   0.226   1.433 -0.3312 -1.3089 -0.7079
  948SOL     OW 3742   5.965   4.679   6.259 -0.0667 -0.7407  0.5103
  948SOL    HW1 3743   5.903   4.654   6.184 -0.2412  0.1872  0.3361
  948SOL    HW2 3744   5.911   4.715   6.335  0.1701 -1.0411  0.8251
  949SOL     OW 3745   3.998   3.648   0.651  0.0146 -0.0418 -0.1974
  949SOL    HW1 3746   4.053   3.727   0.625 -0.1924 -0.3417 -1.6563
  949SOL    HW2 3747   4.056   3.579   0.695  0.2371  0.7929  0.8736
  950SOL     OW 3748   3.043   6.763   1.310 -0.4407  0.3174 -0.6464
  950SOL    HW1 3749   3.054   6.770   1.211  2.6266 -2.4690 -0.6646
  950SOL    HW2 3750   3.123   6.800   1.356 -0.0151 -1.8747  0.5317
  951SOL     OW 3751   1.397   4.278   5.815 -0.0137 -0.0831 -0.2510
  951SOL    HW1 3752   1.341   4.217   5.872  0.0519  0.4867  0.4318
  951SOL    HW2 3753   1.342   4.314   5.740 -0.2464 -0.4284 -0.2475
  952SOL     OW 3754   5.718   3.655   2.629 -0.0810 -0.1251 -0.0555
  952SOL    HW1 3755   5.753   3.601   2.552  1.1228  1.1412 -0.4485
  952SOL    HW2 3756   5.622   3.678   2.612 -0.6250 -2.0438  0.1101
  953SOL     OW 3757   5.235   3.431   3.603  0.3633  0.1230 -0.2943
  953SOL    HW1 3758   5.309   3.490   3.635  1.1519 -0.4056 -1.1088
  953SOL    HW2 3759   5.231   3.432   3.504  0.5967 -1.4078 -0.3453
  954SOL     OW 3760   6.214   3.642   6.982  0.0264  0.7062  0.0838
  954SOL    HW1 3761   6.237   3.696   7.063 -0.6966  1.2534 -0.0591
  954SOL    HW2 3762   6.279   3.662   6.909  0.7867  0.0811  0.5751
  955SOL     OW 3763   6.315   1.365   1.543 -0.5711  0.0730 -0.1942
  955SOL    HW1 3764   6.345   1.298   1.611 -0.4453  0.2896 -0.0357
  955SOL    HW2 3765   6.358   1.453   1.561 -0.8951  0.2513 -0.2803
  956SOL     OW 3766   3.887   1.932   5.502  0.3088  0.0586  0.1312
  956SOL    HW1 3767   3.808   1.876   5.526 -0.1419  1.3453  1.8327
  956SOL    HW2 3768   3.907   1.922   5.405 -2.9348  0.8879 -0.7222
  957SOL     OW 3769   5.490   5.561   6.841 -0.0634 -0.1614 -0.1095
  957SOL    HW1 3770   5.403   5.521   6.816  0.5667 -2.1049  0.5889
  957SOL    HW2 3771   5.562   5.527   6.781  0.3109  1.0146 -0.3592
  958SOL     OW 3772   1.923   5.753   0.988  0.0582  0.5240 -0.1855
  958SOL    HW1 3773   1.858   5.701   0.934 -0.7848  1.2389  0.1131
  958SOL    HW2 3774   1.974   5.815   0.929  0.7327 -0.2916 -0.4716
  959SOL     OW 3775   4.842   4.290   1.527 -0.5845  0.6003  0.2032
  959SOL    HW1 3776   4.924   4.263   1.578 -0.7782 -0.1633  0.1246
  959SOL    HW2 3777   4.762   4.244   1.566 -1.1711  2.2536  1.0424
  960SOL     OW 3778   2.833   1.868   0.611 -0.2106  0.7139 -0.0908
  960SOL    HW1 3779   2.923   1.846   0.573 -0.2983  1.3222 -0.6763
  960SOL    HW2 3780   2.842   1.938   0.681  0.0489 -0.9871  1.6562
  961SOL     OW 3781   2.012   6.658   6.840 -0.8692 -0.1724 -0.6618
  961SOL    HW1 3782   1.979   6.751   6.861  0.5500  0.0241  0.9290
  961SOL    HW2 3783   1.939   6.606   6.796 -2.0822  1.3384 -0.5278
  962SOL     OW 3784   0.221   3.094   6.319 -0.6191 -0.3960 -0.4941
  962SOL    HW1 3785   0.297   3.157   6.308 -1.4509  0.5047 -1.3207
  962SOL    HW2 3786   0.256   3.001   6.330  0.6412  0.2211  1.0718
  963SOL     OW 3787   0.292   1.693   3.482  0.2227 -0.4888  0.1010
  963SOL    HW1 3788   0.212   1.639   3.454  0.5236  0.4687 -2.9819
  963SOL    HW2 3789   0.354   1.635   3.536 -1.2652 -2.0490  0.2313
  964SOL     OW 3790   5.173   5.062   3.245 -0.6626  0.2167  0.3244
  964SOL    HW1 3791   5.224   4.976   3.241 -0.9372 -0.0168  1.6626
  964SOL    HW2 3792   5.116   5.070   3.162  0.0949 -0.4137 -0.2768
  965SOL     OW 3793   0.881   2.261   2.304 -0.0740 -0.4340  0.3298
  965SOL    HW1 3794   0.785   2.232   2.313 -0.2482  0.0154 -0.0688
  965SOL    HW2 3795   0.922   2.268   2.395 -0.3158 -0.9694  0.4841
  966SOL     OW 3796   3.493   0.817   2.322 -0.0048  0.5807  0.0798
  966SOL    HW1 3797   3.491   0.741   2.257  1.7680 -0.0736  0.7301
  966SOL    HW2 3798   3.547   0.791   2.402 -0.3149  2.1432  0.8329
  967SOL     OW 3799   3.546   3.213   6.591  0.0401 -0.6189  0.2803
  967SOL    HW1 3800   3.625   3.211   6.530 -1.7197 -0.5388 -2.1515
  967SOL    HW2 3801   3.487   3.135   6.571 -1.2402  0.1407  0.9849
  968SOL     OW 3802   2.422   2.898   0.301 -0.0243  0.1896  0.1944
  968SOL    HW1 3803   2.386   2.807   0.322 -1.4593  0.7067  0.0881
  968SOL    HW2 3804   2.474   2.933   0.379  0.5295 -0.7123  0.2367
  969SOL     OW 3805   5.403   1.083   6.303 -0.2513 -0.1884  0.0907
  969SOL    HW1 3806   5.450   1.032   6.232 -1.0404 -0.5895 -0.1510
  969SOL    HW2 3807   5.407   1.033   6.389  0.3806  0.1219  0.2500
  970SOL     OW 3808   4.013   0.715   5.620  0.1923  0.5103 -1.0989
  970SOL    HW1 3809   3.952   0.642   5.652 -0.6846  0.6160 -2.4360
  970SOL    HW2 3810   3.977   0.804   5.648  0.5101  0.5120 -0.6773
  971SOL     OW 3811   0.975   6.658   1.503  0.2032 -0.0330 -0.3602
  971SOL    HW1 3812   0.911   6.582   1.489  0.3114 -0.2396  0.2296
  971SOL    HW2 3813   1.061   6.639   1.455  1.0732 -1.3662  1.5907
  972SOL     OW 3814   2.458   2.783   1.081  0.3510 -0.0504  0.0070
  972SOL    HW1 3815   2.519   2.814   1.009  1.1564 -0.6951  0.3942
  972SOL    HW2 3816   2.477   2.687   1.102 -1.4607 -0.5730 -0.5462
  973SOL     OW 3817   0.428   4.723   3.974  0.1266 -0.2561 -0.0822
  973SOL    HW1 3818   0.500   4.789   3.998 -0.2001  1.0886 -2.4902
  973SOL    HW2 3819   0.458   4.668   3.896 -0.1865 -2.0769  1.0034
  974SOL     OW 3820   2.503   5.222   1.382 -0.3914  0.1801 -0.0362
  974SOL    HW1 3821   2.546   5.313   1.386 -0.2752  0.1271 -0.0665
  974SOL    HW2 3822   2.530   5.170   1.463  1.7889 -0.8179 -1.3164
  975SOL     OW 3823   6.075   3.767   3.242 -0.3703  0.1629 -0.1551
  975SOL    HW1 3824   6.010   3.749   3.316 -0.6292  0.4427 -0.3165
  975SOL    HW2 3825   6.045   3.720   3.159 -0.7990  0.9603 -0.4516
  976SOL     OW 3826   2.627   5.710   2.015  0.7511  0.2837  0.1046
  976SOL    HW1 3827   2.608   5.615   1.989  0.7800  0.6690 -1.4324
  976SOL    HW2 3828   2.567   5.771   1.962  0.0892  1.0956  1.7253
  977SOL     OW 3829   5.236   1.270   4.896  0.4302  0.1782  0.5974
  977SOL    HW1 3830   5.252   1.286   4.799  0.1292 -2.2868  0.0547
  977SOL    HW2 3831   5.298   1.325   4.951  2.0990  0.0168 -1.0604
  978SOL     OW 3832   3.256   0.175   1.455 -0.0194  0.0623 -0.1890
  978SOL    HW1 3833   3.223   0.258   1.500  0.0739 -1.7288  3.6398
  978SOL    HW2 3834   3.339   0.143   1.501  0.0648 -2.0428 -1.6627
  979SOL     OW 3835   1.035   0.648   0.376 -0.3393 -0.3457 -0.1251
  979SOL    HW1 3836   1.045   0.720   0.444 -1.9758  1.2176 -1.4518
  979SOL    HW2 3837   0.947   0.602   0.389  0.5707 -2.0193  0.5510
  980SOL     OW 3838   6.264   3.573   5.310  0.4525  0.1820  0.1821
  980SOL    HW1 3839   6.248   3.606   5.403  2.0347 -2.9310  1.6934
  980SOL    HW2 3840   6.351   3.609   5.277 -0.3812  1.7667 -0.4214
  981SOL     OW 3841   2.506   5.345   2.887  0.0337  0.1618 -0.5649
  981SOL    HW1 3842   2.513   5.441   2.915 -0.4251 -0.3466  1.5022
  981SOL    HW2 3843   2.425   5.333   2.830 -1.7586  0.5602  1.7089
  982SOL     OW 3844   6.830   1.764   1.000 -0.3334  1.0177 -0.5313
  982SOL    HW1 3845   6.874   1.824   1.066 -0.0811  0.5222 -0.2467
  982SOL    HW2 3846   6.898   1.728   0.936 -0.4229  0.7550 -0.4826
  983SOL     OW 3847   2.903   0.822   1.550 -0.1777 -0.4312 -0.1591
  983SOL    HW1 3848   2.901   0.741   1.492 -0.2167 -0.9668  0.5635
  983SOL    HW2 3849   2.819   0.824   1.605  0.7389 -1.0586  1.3392
  984SOL     OW 3850   6.035   2.082   0.971  0.0829  0.7931  0.0355
  984SOL    HW1 3851   6.085   2.059   1.055  1.4973 -0.4345 -1.0985
  984SOL    HW2 3852   6.082   2.157   0.924  1.4763 -0.9456 -1.4843
  985SOL     OW 3853   5.781   5.918   3.919  0.3871  0.2770  0.5541
  985SOL    HW1 3854   5.695   5.876   3.893  0.5302  0.7146 -0.7119
  985SOL    HW2 3855   5.774   6.017   3.910  1.1589  0.2901 -0.0498
  986SOL     OW 3856   3.833   3.522   5.367  0.6288 -0.3002  0.6758
  986SOL    HW1 3857   3.748   3.492   5.324  0.7696 -0.0210  0.2043
  986SOL    HW2 3858   3.908   3.518   5.301  0.5400  1.6956  0.4147
  987SOL     OW 3859   6.764   2.702   0.287  0.8858 -0.1670 -0.1688
  987SOL    HW1 3860   6.826   2.632   0.251  0.9011  0.2983 -1.0677
  987SOL    HW2 3861   6.805   2.792   0.277  0.0474  0.1587 -0.8486
  988SOL     OW 3862   6.107   3.208   4.807  0.3439  0.3588 -0.0504
  988SOL    HW1 3863   6.191   3.182   4.760 -1.0501  2.1868 -4.0079
  988SOL    HW2 3864   6.106   3.306   4.823 -0.7058  0.2500  0.7154
  989SOL     OW 3865   6.489   1.253   2.352 -0.2784 -0.0305 -0.0263
  989SOL    HW1 3866   6.421   1.268   2.423  0.2232 -2.2110  1.0073
  989SOL    HW2 3867   6.581   1.269   2.389  0.0458 -2.0467  0.1729
  990SOL     OW 3868   5.181   2.994   0.178  0.0608  0.2081  0.0263
  990SOL    HW1 3869   5.248   2.924   0.156 -2.0866 -1.4977 -1.6218
  990SOL    HW2 3870   5.118   2.959   0.248  0.7132  1.7121  1.4395
  991SOL     OW 3871   0.267   2.667   3.206  0.1117 -0.7807  0.1897
  991SOL    HW1 3872   0.200   2.639   3.137  0.6865 -0.0104 -0.6901
  991SOL    HW2 3873   0.339   2.722   3.163 -0.3849  1.1140  1.6582
  992SOL     OW 3874   4.054   0.966   2.856  0.0541  0.1619 -0.6183
  992SOL    HW1 3875   4.051   0.937   2.952  0.1736  0.5836 -0.4847
  992SOL    HW2 3876   4.144   1.003   2.836  0.3980 -0.9446 -1.2018
  993SOL     OW 3877   0.980   3.790   0.677  0.9263 -0.1814 -0.1751
  993SOL    HW1 3878   0.909   3.775   0.608 -1.4340  1.2759  1.7655
  993SOL    HW2 3879   1.070   3.774   0.636 -0.4215 -1.3766 -2.9714
  994SOL     OW 3880   5.541   2.377   1.992  0.3614  0.6786  0.2684
  994SOL    HW1 3881   5.587   2.449   2.043  0.0196  0.1582  1.3290
  994SOL    HW2 3882   5.608   2.307   1.964  0.5396  0.9417  0.0297
  995SOL     OW 3883   2.639   1.545   0.017  0.1942  0.1926  0.4536
  995SOL    HW1 3884   2.670   1.457   0.053  1.2669  0.7101  0.8385
  995SOL    HW2 3885   2.697   1.618   0.053  1.2521  0.7657 -2.1640
  996SOL     OW 3886   2.040   1.404   1.262 -0.2249  0.6299 -0.7434
  996SOL    HW1 3887   2.104   1.478   1.243  1.0322  0.0880  1.1034
  996SOL    HW2 3888   2.021   1.354   1.178  1.6236  0.9370 -1.3895
  997SOL     OW 3889   3.997   5.891   4.591  0.0334 -0.2527  0.0014
  997SOL    HW1 3890   3.988   5.962   4.661  2.2740  0.4352 -0.3488
  997SOL    HW2 3891   3.984   5.931   4.501  0.3207 -0.4978 -0.1503
  998SOL     OW 3892   1.395   4.540   5.388 -0.0841  0.1284 -0.3746
  998SOL    HW1 3893   1.398   4.632   5.429 -2.2588 -0.2196  0.6962
  998SOL    HW2 3894   1.351   4.545   5.299  1.0919  0.3047 -0.9628
  999SOL     OW 3895   6.084   4.295   1.639  0.4303  0.1065 -0.4337
  999SOL    HW1 3896   6.122   4.282   1.548 -0.6042 -0.8288 -0.7573
  999SOL    HW2 3897   6.149   4.262   1.707  0.9565  0.2443 -0.8639
 1000SOL     OW 3898   4.870   1.396   6.023 -0.0835 -0.4743  0.8770
 1000SOL    HW1 3899   4.970   1.390   6.022  0.4598  4.5464 -0.7505
 1000SOL    HW2 3900   4.840   1.428   6.113  0.4589  2.8421 -0.0029
 1001SOL     OW 3901   6.516   5.111   1.577  0.0122  0.3401  0.1046
 1001SOL    HW1 3902   6.460   5.057   1.514 -0.9471 -3.1170  3.5728
 1001SOL    HW2 3903   6.603   5.064   1.593 -1.1941 -0.9764  3.8699
 1002SOL     OW 3904   6.604   4.837   2.697 -0.4017 -0.2014 -0.3051
 1002SOL    HW1 3905   6.556   4.825   2.610 -1.1869 -0.5450  0.1589
 1002SOL    HW2 3906   6.550   4.796   2.770  0.7577 -0.8672  0.2049
 1003SOL     OW 3907   5.475   0.924   5.137 -0.4254 -0.1081  0.3678
 1003SOL    HW1 3908   5.517   1.012   5.159 -0.6337 -0.0848  0.6742
 1003SOL    HW2 3909   5.547   0.858   5.115 -0.3406  0.7961 -2.3952
 1004SOL     OW 3910   0.210   6.116   2.099  0.1496 -0.0792  0.2882
 1004SOL    HW1 3911   0.251   6.101   2.189  0.6952 -0.4988 -0.0159
 1004SOL    HW2 3912   0.249   6.049   2.034 -2.3868 -1.7771  0.3777
 1005SOL     OW 3913   2.181   4.692   0.735 -0.9154 -0.1539 -0.1413
 1005SOL    HW1 3914   2.264   4.666   0.783 -1.2554 -0.4402  0.3031
 1005SOL    HW2 3915   2.185   4.659   0.641 -0.1942  0.5081 -0.3528
 1006SOL     OW 3916   2.843   6.833   6.067  0.5428  0.0225  0.1986
 1006SOL    HW1 3917   2.914   6.801   6.005  2.7776  0.5598  2.3113
 1006SOL    HW2 3918   2.856   6.930   6.086  0.3151 -0.2398  1.9050
 1007SOL     OW 3919   3.933   0.653   1.566 -0.6649 -0.0461  0.4751
 1007SOL    HW1 3920   3.868   0.577   1.562 -0.0164 -0.5537 -1.8681
 1007SOL    HW2 3921   3.886   0.738   1.540 -0.4891 -0.3759 -1.0069
 1008SOL     OW 3922   2.128   2.832   6.923 -0.4077  0.0533 -0.6684
 1008SOL    HW1 3923   2.072   2.781   6.858  0.0972 -0.2951 -0.8362
 1008SOL    HW2 3924   2.160   2.769   6.994 -1.2652  0.4997  0.1387
 1009SOL     OW 3925   3.030   3.910   2.609 -0.2812  0.0988  0.4934
 1009SOL    HW1 3926   3.089   3.990   2.601  1.4809 -1.1736  0.2289
 1009SOL    HW2 3927   3.025   3.881   2.705 -0.3472  0.1172  0.4956
 1010SOL     OW 3928   2.740   5.351   3.169  0.1537  0.2966  0.6164
 1010SOL    HW1 3929   2.684   5.268   3.168  1.5643 -0.6916 -1.3981
 1010SOL    HW2 3930   2.829   5.330   3.209  0.2231  1.0917  0.9011
 1011SOL     OW 3931   5.376   2.005   6.783  0.2670 -0.4124  0.6399
 1011SOL    HW1 3932   5.464   2.052   6.778 -0.7419  1.4529 -0.4958
 1011SOL    HW2 3933   5.391   1.906   6.774  2.1192 -0.0335 -1.1750
 1012SOL     OW 3934   4.364   2.683   5.821 -0.1183  0.1654 -0.2743
 1012SOL    HW1 3935   4.346   2.759   5.759  1.0153 -0.4651 -1.4164
 1012SOL    HW2 3936   4.463   2.673   5.834 -0.3126  0.2515  1.6230
 1013SOL     OW 3937   6.559   3.272   0.191 -0.0184  0.4598  0.5562
 1013SOL    HW1 3938   6.485   3.264   0.257 -0.4908  1.7065  0.1928
 1013SOL    HW2 3939   6.554   3.196   0.126 -0.8906  0.4565  0.6155
 1014SOL     OW 3940   2.306   1.960   4.838 -1.4483 -0.1086  0.2703
 1014SOL    HW1 3941   2.250   1.907   4.775  0.5169 -1.3546 -0.5304
 1014SOL    HW2 3942   2.301   2.057   4.815 -1.8232 -0.4100 -0.9593
 1015SOL     OW 3943   3.803   3.300   6.526 -0.1992 -0.1418 -0.0667
 1015SOL    HW1 3944   3.814   3.272   6.621 -2.5442 -0.0321  0.2897
 1015SOL    HW2 3945   3.864   3.378   6.507  1.7786 -1.4206  0.7106
 1016SOL     OW 3946   5.576   5.131   3.440  0.0373  0.5606 -0.0651
 1016SOL    HW1 3947   5.657   5.075   3.424 -0.8801 -0.8586  0.0289
 1016SOL    HW2 3948   5.534   5.105   3.527 -1.5018 -0.0532 -0.9329
 1017SOL     OW 3949   1.835   2.286   3.209  0.0130 -0.1153 -0.3220
 1017SOL    HW1 3950   1.747   2.274   3.255 -0.1472 -0.3019 -0.6750
 1017SOL    HW2 3951   1.848   2.383   3.186  1.1543  0.4308  2.2178
 1018SOL     OW 3952   2.593   6.463   6.486  0.2064 -0.5465 -0.2834
 1018SOL    HW1 3953   2.660   6.532   6.513 -0.3641 -0.9096  2.3621
 1018SOL    HW2 3954   2.506   6.481   6.534  0.0102 -3.0108  0.4325
 1019SOL     OW 3955   2.074   0.585   1.273  0.1546 -0.1939 -0.4884
 1019SOL    HW1 3956   2.028   0.565   1.186 -0.0032  0.7201 -0.6190
 1019SOL    HW2 3957   2.041   0.522   1.343 -0.8785  0.0773 -0.7163
 1020SOL     OW 3958   0.521   6.246   5.293 -0.1792 -0.2247 -0.3661
 1020SOL    HW1 3959   0.462   6.228   5.214 -1.6424  2.0653  0.1104
 1020SOL    HW2 3960   0.493   6.188   5.370  0.2391 -1.3528 -1.0479
 1021SOL     OW 3961   1.512   1.266   0.932 -0.4341  0.1602  0.0454
 1021SOL    HW1 3962   1.440   1.244   0.998 -2.7893 -0.0208 -2.3960
 1021SOL    HW2 3963   1.486   1.347   0.880  1.3765  0.3597 -0.6355
 1022SOL     OW 3964   2.272   4.469   4.849  0.5972 -0.1771  0.0368
 1022SOL    HW1 3965   2.354   4.506   4.893  0.5908  0.0911 -0.1760
 1022SOL    HW2 3966   2.297   4.390   4.793  0.5447 -0.7833  0.8488
 1023SOL     OW 3967   2.194   5.330   6.648  0.4031  0.2909  0.3015
 1023SOL    HW1 3968   2.140   5.312   6.566 -1.0827  0.4661  1.2160
 1023SOL    HW2 3969   2.234   5.421   6.642 -2.3577  1.6666  1.1171
 1024SOL     OW 3970   4.104   5.324   5.136  0.0377 -0.0931  0.0541
 1024SOL    HW1 3971   4.011   5.322   5.098  0.7408  1.3281 -1.8489
 1024SOL    HW2 3972   4.105   5.271   5.221 -2.6258  0.2533  0.4144
 1025SOL     OW 3973   4.438   1.232   1.730  0.1730  0.1756 -0.3473
 1025SOL    HW1 3974   4.339   1.230   1.741  0.2373  0.8059  0.3910
 1025SOL    HW2 3975   4.460   1.258   1.636 -0.3533 -1.5556 -0.9870
 1026SOL     OW 3976   5.374   4.578   4.599  0.4074  0.5770  0.3130
 1026SOL    HW1 3977   5.421   4.648   4.546  0.2006  0.9588  0.6198
 1026SOL    HW2 3978   5.440   4.520   4.645  0.5834  1.2068  0.8678
 1027SOL     OW 3979   2.319   6.972   4.895 -0.1482 -0.0494 -0.0107
 1027SOL    HW1 3980   2.242   7.003   4.952 -0.3903  0.0260 -0.3769
 1027SOL    HW2 3981   2.365   6.895   4.940 -0.8876 -0.5736 -0.1317
 1028SOL     OW 3982   6.222   2.432   4.136 -0.5654  0.2825  0.4079
 1028SOL    HW1 3983   6.146   2.497   4.134 -0.1706  0.9603  3.1301
 1028SOL    HW2 3984   6.195   2.348   4.089 -3.1909  0.3381  1.6346
 1029SOL     OW 3985   4.541   2.597   2.452 -0.3326 -0.2303  0.0768
 1029SOL    HW1 3986   4.504   2.668   2.393 -0.8715 -0.4112  0.1916
 1029SOL    HW2 3987   4.615   2.634   2.508  0.8743 -0.2847 -1.4112
 1030SOL     OW 3988   3.790   3.155   1.738 -0.3539  0.1772  0.0504
 1030SOL    HW1 3989   3.725   3.114   1.674  0.4806  0.3556 -0.9342
 1030SOL    HW2 3990   3.882   3.123   1.716  0.0922  1.1930  0.3953
 1031SOL     OW 3991   1.626   2.397   6.420  0.1394 -0.1811  0.2506
 1031SOL    HW1 3992   1.696   2.447   6.370 -0.5479  0.0649 -0.5030
 1031SOL    HW2 3993   1.566   2.350   6.355 -1.1536  0.6424  0.7980
 1032SOL     OW 3994   1.823   6.775   2.348 -0.5240 -0.3028  0.3158
 1032SOL    HW1 3995   1.766   6.787   2.267  1.0950  3.0733 -0.4642
 1032SOL    HW2 3996   1.834   6.863   2.395  3.5906 -0.8141  0.6790
 1033SOL     OW 3997   6.171   0.097   6.569  0.2245  0.9764  0.4565
 1033SOL    HW1 3998   6.185   0.149   6.653 -0.0515  2.6613 -0.4961
 1033SOL    HW2 3999   6.074   0.096   6.546  0.2927  0.4901  0.1707
 1034SOL     OW 4000   2.140   1.158   3.740 -0.3585 -0.4327 -0.3896
 1034SOL    HW1 4001   2.209   1.169   3.668 -1.4141 -3.0191 -1.9506
 1034SOL    HW2 4002   2.095   1.246   3.756  2.9018  1.2613  0.4067
 1035SOL     OW 4003   2.520   2.462   6.325 -0.9065 -0.3219 -0.3473
 1035SOL    HW1 4004   2.450   2.518   6.368 -0.1161  0.7098 -0.3632
 1035SOL    HW2 4005   2.583   2.521   6.274 -0.3301 -1.2758 -0.7591
 1036SOL     OW 4006   5.977   6.370   1.769 -0.1546 -0.4376  0.3980
 1036SOL    HW1 4007   6.070   6.378   1.805  0.9159 -1.9944 -1.7829
 1036SOL    HW2 4008   5.970   6.287   1.713 -2.4291  0.4571 -0.7776
 1037SOL     OW 4009   5.828   4.682   6.883 -0.1080 -0.6526  0.0669
 1037SOL    HW1 4010   5.790   4.595   6.915  0.3324 -0.9738 -0.2902
 1037SOL    HW2 4011   5.754   4.749   6.877 -0.1944 -0.5216  1.9485
 1038SOL     OW 4012   1.327   6.068   1.776  0.0225  0.2618 -0.2815
 1038SOL    HW1 4013   1.365   5.987   1.820  0.5578  0.2881 -0.6952
 1038SOL    HW2 4014   1.237   6.046   1.738  0.9317 -0.6694 -2.0026
 1039SOL     OW 4015   2.710   3.663   5.280 -0.7132  0.4373 -0.3963
 1039SOL    HW1 4016   2.784   3.728   5.268 -1.0282  0.7478 -0.6875
 1039SOL    HW2 4017   2.716   3.621   5.370  0.8063 -0.8028 -1.0370
 1040SOL     OW 4018   4.458   0.288   0.110 -0.3935  0.0096 -0.2948
 1040SOL    HW1 4019   4.381   0.260   0.168  1.0115 -1.0593  1.1206
 1040SOL    HW2 4020   4.533   0.319   0.167 -0.4663  3.1594 -1.7012
 1041SOL     OW 4021   6.228   3.622   0.469  0.5587 -0.0869  0.6350
 1041SOL    HW1 4022   6.211   3.658   0.377  1.1088 -1.7326 -0.1596
 1041SOL    HW2 4023   6.206   3.692   0.537 -3.6939 -0.0535 -0.4865
 1042SOL     OW 4024   1.520   6.844   3.931  0.0190  0.1775  0.3524
 1042SOL    HW1 4025   1.515   6.849   3.831  1.9373 -0.5714  0.1615
 1042SOL    HW2 4026   1.610   6.810   3.957  0.5822  2.8814  2.4243
 1043SOL     OW 4027   0.107   2.314   5.703 -0.1481 -0.0491  0.2170
 1043SOL    HW1 4028   0.088   2.397   5.755 -2.0226 -0.1330 -0.2606
 1043SOL    HW2 4029   0.127   2.239   5.766 -0.0794  0.3792  0.7138
 1044SOL     OW 4030   2.241   3.361   6.289 -0.3374 -0.7878 -0.0913
 1044SOL    HW1 4031   2.340   3.370   6.278  0.0844 -0.5132  3.1117
 1044SOL    HW2 4032   2.219   3.270   6.324 -1.2326 -0.7764 -0.5891
 1045SOL     OW 4033   5.901   6.302   2.013 -0.1775 -0.6003 -0.4064
 1045SOL    HW1 4034   5.870   6.209   2.032 -0.0996 -0.7632 -1.0337
 1045SOL    HW2 4035   5.933   6.307   1.918 -0.5218  0.1510 -0.4931
 1046SOL     OW 4036   6.408   0.759   0.688  0.3533 -0.2693 -0.1961
 1046SOL    HW1 4037   6.397   0.833   0.755 -0.4893  0.9251 -1.5961
 1046SOL    HW2 4038   6.318   0.723   0.663  0.1438  2.1549 -3.6805
 1047SOL     OW 4039   1.707   0.916   4.780 -0.0044  0.3937  0.5329
 1047SOL    HW1 4040   1.724   1.006   4.820 -1.5080  1.3579 -0.8399
 1047SOL    HW2 4041   1.614   0.914   4.742  0.4844 -1.2626 -0.6881
 1048SOL     OW 4042   0.039   4.187   0.443 -0.1021  0.2950  0.4258
 1048SOL    HW1 4043   0.021   4.285   0.444 -2.3607 -0.0660  0.7603
 1048SOL    HW2 4044   0.037   4.151   0.536  0.3834 -0.1336  0.2785
 1049SOL     OW 4045   3.291   0.813   5.782 -1.0634 -0.2215 -0.3780
 1049SOL    HW1 4046   3.293   0.731   5.724  0.5122 -1.0272  0.7256
 1049SOL    HW2 4047   3.335   0.792   5.870  1.4261  2.3704 -0.8525
 1050SOL     OW 4048   6.601   0.645   5.820  0.8583 -0.9167 -0.0990
 1050SOL    HW1 4049   6.602   0.727   5.878  2.3285  0.2261 -1.6416
 1050SOL    HW2 4050   6.559   0.570   5.870 -2.4516  1.2388  0.6788
 1051SOL     OW 4051   2.944   4.505   6.674  0.0283 -0.4991  0.4130
 1051SOL    HW1 4052   2.982   4.593   6.701 -0.7855 -0.4081  1.3193
 1051SOL    HW2 4053   2.851   4.518   6.641 -0.6487 -1.1800  1.9750
 1052SOL     OW 4054   3.400   3.275   5.401  0.1480  0.3258 -0.5432
 1052SOL    HW1 4055   3.300   3.285   5.397  0.3112  1.7162 -2.6848
 1052SOL    HW2 4056   3.426   3.235   5.489 -2.2371  0.5197  0.3231
 1053SOL     OW 4057   1.352   5.386   0.148  0.3920  0.1371 -0.4080
 1053SOL    HW1 4058   1.351   5.378   0.247  1.2590  1.0740 -0.3142
 1053SOL    HW2 4059   1.274   5.440   0.118 -1.5421 -2.4837 -0.5097
 1054SOL     OW 4060   2.236   6.727   3.295 -0.0822 -0.2271  0.5569
 1054SOL    HW1 4061   2.293   6.798   3.253 -0.1399 -0.3692  0.2338
 1054SOL    HW2 4062   2.140   6.743   3.270 -0.3963  0.8745  2.2917
 1055SOL     OW 4063   2.855   5.840   1.328  0.7593  0.4190 -0.2586
 1055SOL    HW1 4064   2.826   5.915   1.387 -0.8774 -1.7385  1.8999
 1055SOL    HW2 4065   2.870   5.757   1.383  3.1588 -0.7440 -2.4239
 1056SOL     OW 4066   6.907   5.751   0.687  0.3406 -0.2971  0.2591
 1056SOL    HW1 4067   6.988   5.734   0.631 -0.7755  0.7974 -1.8376
 1056SOL    HW2 4068   6.935   5.774   0.780  2.6755  2.7456 -1.0177
 1057SOL     OW 4069   6.737   1.399   1.383  0.0380 -0.2231 -0.1526
 1057SOL    HW1 4070   6.683   1.457   1.323 -0.6017 -0.4000  0.2493
 1057SOL    HW2 4071   6.813   1.452   1.422 -1.9085  1.0848  2.1103
 1058SOL     OW 4072   1.083   6.451   4.086 -0.0673 -0.0176 -0.6227
 1058SOL    HW1 4073   1.141   6.528   4.114 -0.8741  0.4747 -0.2706
 1058SOL    HW2 4074   1.001   6.449   4.144 -0.6116 -0.4349 -1.3997
 1059SOL     OW 4075   1.287   1.436   2.355  0.0171  0.2671 -0.4253
 1059SOL    HW1 4076   1.228   1.392   2.288 -2.3343 -0.6149  2.0192
 1059SOL    HW2 4077   1.360   1.486   2.308 -0.8435 -1.1324 -3.5169
 1060SOL     OW 4078   0.509   6.516   6.586 -0.4146  0.0152  0.6752
 1060SOL    HW1 4079   0.604   6.499   6.561 -0.2341  1.3646  0.3600
 1060SOL    HW2 4080   0.474   6.438   6.638  0.9040 -0.4246  0.9497
 1061SOL     OW 4081   5.884   6.840   5.911 -0.3363 -0.2474 -0.6677
 1061SOL    HW1 4082   5.849   6.879   5.826 -0.9369  2.5895  0.7810
 1061SOL    HW2 4083   5.809   6.826   5.975  0.3809 -0.2014  0.2068
 1062SOL     OW 4084   3.668   0.343   3.190 -0.9466  0.2466  0.1618
 1062SOL    HW1 4085   3.670   0.413   3.118  0.3115 -1.1582 -1.2228
 1062SOL    HW2 4086   3.633   0.258   3.153  0.3282 -0.6881  1.0266
 1063SOL     OW 4087   4.903   3.191   4.725  0.9490 -0.2509  0.4126
 1063SOL    HW1 4088   4.923   3.285   4.750 -0.9500  0.1093  0.7444
 1063SOL    HW2 4089   4.923   3.131   4.803  1.2634 -0.0036  0.5242
 1064SOL     OW 4090   5.878   2.507   2.287 -0.3037 -0.1576  0.3787
 1064SOL    HW1 4091   5.834   2.575   2.228  0.2276  0.5029  0.7400
 1064SOL    HW2 4092   5.949   2.459   2.235 -0.3939 -0.1522  0.2478
 1065SOL     OW 4093   3.103   0.561   3.465  0.2929 -0.4445 -0.4569
 1065SOL    HW1 4094   3.031   0.614   3.420 -1.4004 -1.7001  0.6602
 1065SOL    HW2 4095   3.062   0.485   3.516  2.5187 -2.0032 -0.8417
 1066SOL     OW 4096   3.519   5.129   5.031  0.2988 -0.2822  0.6602
 1066SOL    HW1 4097   3.493   5.223   5.052 -0.0855  0.4225 -2.4756
 1066SOL    HW2 4098   3.615   5.115   5.056  0.2876  0.8434  1.4207
 1067SOL     OW 4099   2.090   3.229   1.885 -0.3151  0.2216 -0.3444
 1067SOL    HW1 4100   1.995   3.234   1.918  0.7307 -0.5576  3.1996
 1067SOL    HW2 4101   2.139   3.313   1.911  0.1363  0.3728 -1.6362
 1068SOL     OW 4102   0.433   5.226   1.904 -0.3726  0.2482 -0.0208
 1068SOL    HW1 4103   0.411   5.131   1.927 -0.4904  0.3371  0.2364
 1068SOL    HW2 4104   0.532   5.240   1.914 -0.2188 -0.0900 -0.9630
 1069SOL     OW 4105   5.202   6.630   4.643 -0.6598 -0.4229  0.0193
 1069SOL    HW1 4106   5.117   6.682   4.639  0.6872  1.9412  0.6245
 1069SOL    HW2 4107   5.240   6.633   4.735  0.3517 -1.0010 -0.3555
 1070SOL     OW 4108   4.047   0.302   0.724  0.0351 -0.0282  0.1986
 1070SOL    HW1 4109   4.096   0.347   0.799  1.4355  0.4322 -0.9576
 1070SOL    HW2 4110   3.984   0.367   0.682 -0.7656 -0.2915  0.9597
 1071SOL     OW 4111   1.865   4.010   4.621  0.7413  0.2042  0.0457
 1071SOL    HW1 4112   1.851   4.054   4.710  0.7576 -0.3638  0.3359
 1071SOL    HW2 4113   1.822   3.919   4.622 -0.2746  0.6631 -0.9326
 1072SOL     OW 4114   4.443   5.247   4.408  0.1419 -0.5933 -0.2209
 1072SOL    HW1 4115   4.400   5.179   4.468 -0.4647 -0.0554 -0.0456
 1072SOL    HW2 4116   4.435   5.338   4.449  1.5288 -0.4895 -0.1342
 1073SOL     OW 4117   5.938   0.513   3.729  0.1727  0.3752 -0.0774
 1073SOL    HW1 4118   5.935   0.527   3.631 -1.4564 -3.1411 -0.6939
 1073SOL    HW2 4119   5.995   0.433   3.750  0.1389  0.7834  1.8210
 1074SOL     OW 4120   5.141   5.374   4.089  0.3263  0.0707 -0.5446
 1074SOL    HW1 4121   5.075   5.360   4.015  0.3832  0.0381 -0.5899
 1074SOL    HW2 4122   5.120   5.458   4.137 -1.4861 -1.3537  1.2719
 1075SOL     OW 4123   6.692   1.989   0.937 -0.0921 -0.5363  0.6863
 1075SOL    HW1 4124   6.753   1.910   0.944  1.5792  0.7641  1.3559
 1075SOL    HW2 4125   6.711   2.053   1.011 -0.9445  0.8331 -0.2249
 1076SOL     OW 4126   6.206   1.675   2.856  0.0632  0.8693 -0.4246
 1076SOL    HW1 4127   6.301   1.668   2.826 -0.0309  0.5098 -0.6500
 1076SOL    HW2 4128   6.151   1.712   2.781  0.3124  2.8096  0.2852
 1077SOL     OW 4129   0.273   4.271   2.194  0.2311 -0.2603 -0.1772
 1077SOL    HW1 4130   0.233   4.185   2.226 -0.3657  0.0974  0.0537
 1077SOL    HW2 4131   0.225   4.303   2.112 -0.9560  0.8964  0.9001
 1078SOL     OW 4132   3.410   0.246   2.845  0.2845  0.1328  0.1881
 1078SOL    HW1 4133   3.509   0.236   2.855  0.1618  0.1843  1.6062
 1078SOL    HW2 4134   3.369   0.156   2.830  0.3702 -0.1382  1.4703
 1079SOL     OW 4135   6.136   6.291   0.515 -0.2712  0.6264 -0.4590
 1079SOL    HW1 4136   6.148   6.195   0.490  0.3789  0.4395  0.5100
 1079SOL    HW2 4137   6.181   6.349   0.447 -3.0947  0.4419 -2.6747
 1080SOL     OW 4138   5.929   2.062   3.174 -0.0967 -0.2503 -0.7609
 1080SOL    HW1 4139   5.831   2.061   3.154 -0.0993  1.5601 -0.9850
 1080SOL    HW2 4140   5.943   2.051   3.272 -0.5276 -0.2036 -0.6919
 1081SOL     OW 4141   6.351   6.903   6.587 -0.0653 -0.1744  0.8083
 1081SOL    HW1 4142   6.289   6.978   6.563  1.6150  0.7515 -0.9742
 1081SOL    HW2 4143   6.434   6.941   6.630  1.2340 -0.8465 -0.9978
 1082SOL     OW 4144   6.073   0.822   7.007 -0.4360  0.3472  0.2677
 1082SOL    HW1 4145   6.171   0.817   7.025 -0.3156  0.4476 -0.3153
 1082SOL    HW2 4146   6.033   0.731   7.014  0.5374 -0.6193 -3.8600
 1083SOL     OW 4147   5.065   3.689   0.254 -0.8096 -0.1533 -0.2700
 1083SOL    HW1 4148   5.108   3.713   0.341 -0.8598 -1.5241  0.1522
 1083SOL    HW2 4149   5.080   3.763   0.188  0.3071  0.3590  0.5252
 1084SOL     OW 4150   2.731   1.596   6.768  0.1438 -0.0497  0.4786
 1084SOL    HW1 4151   2.828   1.599   6.744 -0.1793  0.4138 -0.8770
 1084SOL    HW2 4152   2.722   1.578   6.866  1.5577 -1.4490  0.4009
 1085SOL     OW 4153   6.618   4.650   5.714 -0.3177  0.2961 -0.1251
 1085SOL    HW1 4154   6.677   4.730   5.725  0.1121  0.1900 -1.4642
 1085SOL    HW2 4155   6.669   4.578   5.666 -0.7259 -0.7586  0.9786
 1086SOL     OW 4156   0.552   2.318   6.919  0.7630 -0.6220 -0.3490
 1086SOL    HW1 4157   0.584   2.240   6.865  1.0251 -0.0848 -0.9939
 1086SOL    HW2 4158   0.461   2.345   6.887  0.1983 -1.3399  0.6113
 1087SOL     OW 4159   4.391   0.059   2.350  0.2572  0.3586 -0.3487
 1087SOL    HW1 4160   4.366   0.136   2.292  1.2354  1.4698  0.6614
 1087SOL    HW2 4161   4.490   0.045   2.348  0.2605  0.1180  0.6516
 1088SOL     OW 4162   5.329   6.103   5.625  0.1975 -0.2953 -0.0039
 1088SOL    HW1 4163   5.393   6.075   5.553 -1.6558 -1.0442 -1.4462
 1088SOL    HW2 4164   5.322   6.029   5.692  2.0656  0.4754  1.1134
 1089SOL     OW 4165   3.284   6.368   5.511  0.2746  0.1914  0.4051
 1089SOL    HW1 4166   3.185   6.375   5.524 -0.0501 -0.7510 -1.2546
 1089SOL    HW2 4167   3.312   6.425   5.435  0.7606 -0.6871 -0.0893
 1090SOL     OW 4168   2.840   5.511   5.715 -0.9921 -0.2879 -0.1091
 1090SOL    HW1 4169   2.809   5.467   5.800  0.6188 -1.0802  0.1229
 1090SOL    HW2 4170   2.884   5.442   5.657 -0.8759  0.5167 -0.9905
 1091SOL     OW 4171   5.486   6.650   6.853  0.1949  1.2303 -0.0019
 1091SOL    HW1 4172   5.435   6.639   6.767  0.4685 -1.2872  0.0766
 1091SOL    HW2 4173   5.584   6.644   6.834  0.2597 -3.0848  0.7281
 1092SOL     OW 4174   4.872   0.467   0.499  0.2627 -0.0792 -0.3043
 1092SOL    HW1 4175   4.862   0.380   0.449  0.5473 -0.4483  0.2680
 1092SOL    HW2 4176   4.855   0.452   0.596  0.9662  0.3641 -0.1010
 1093SOL     OW 4177   1.100   3.341   1.675 -0.7151  0.5939 -0.4875
 1093SOL    HW1 4178   1.076   3.351   1.772 -0.7075  2.1904 -0.6196
 1093SOL    HW2 4179   1.199   3.336   1.666 -0.6105  2.1833 -0.5067
 1094SOL     OW 4180   1.613   0.827   0.306  0.6472  0.2181  0.8825
 1094SOL    HW1 4181   1.666   0.806   0.224  0.2918  0.2511  0.6460
 1094SOL    HW2 4182   1.649   0.911   0.348  1.4842 -0.3417  1.3308
 1095SOL     OW 4183   2.127   5.157   0.150 -0.2642 -0.0999  0.5285
 1095SOL    HW1 4184   2.191   5.198   0.216 -0.3948  0.2890  0.4146
 1095SOL    HW2 4185   2.036   5.197   0.163 -0.4980 -0.6896  0.7232
 1096SOL     OW 4186   0.912   1.974   5.362  0.1290  0.3037  0.2890
 1096SOL    HW1 4187   0.995   2.024   5.338  0.2666 -0.7617 -1.6693
 1096SOL    HW2 4188   0.844   1.984   5.290  0.0010 -1.8990  0.0200
 1097SOL     OW 4189   5.622   2.957   5.165 -0.3034 -0.2077  0.2049
 1097SOL    HW1 4190   5.663   2.952   5.256 -0.3048  0.6323  0.2663
 1097SOL    HW2 4191   5.544   2.894   5.160 -0.2638 -0.3076  0.7645
 1098SOL     OW 4192   0.965   4.915   3.529 -0.3889 -0.1850 -0.1844
 1098SOL    HW1 4193   1.036   4.969   3.484 -0.1058 -0.6493 -0.3066
 1098SOL    HW2 4194   0.974   4.819   3.502  0.3694 -0.6495  1.5555
 1099SOL     OW 4195   4.820   0.148   2.131 -0.8028 -0.1532  0.8785
 1099SOL    HW1 4196   4.858   0.225   2.182 -0.8936  0.8228 -0.4894
 1099SOL    HW2 4197   4.892   0.082   2.111 -0.0321  1.0457 -0.5405
 1100SOL     OW 4198   5.723   3.858   3.192 -0.0672 -0.0129  0.2222
 1100SOL    HW1 4199   5.644   3.909   3.157 -0.5252 -0.8984 -0.0555
 1100SOL    HW2 4200   5.719   3.764   3.159  0.4000 -0.4190  1.2837
 1101SOL     OW 4201   4.502   6.271   3.483  0.1899 -1.0057  0.4870
 1101SOL    HW1 4202   4.575   6.278   3.550 -1.9791 -1.0465  3.0087
 1101SOL    HW2 4203   4.437   6.200   3.511 -1.5001 -0.1186 -0.9638
 1102SOL     OW 4204   3.444   2.972   6.518  0.1764 -0.3291  0.0996
 1102SOL    HW1 4205   3.368   2.918   6.483 -0.7994  1.5891 -0.9372
 1102SOL    HW2 4206   3.467   2.943   6.611 -3.4349  0.5575  1.4268
 1103SOL     OW 4207   3.685   3.786   4.298  0.2771 -0.3639  0.0265
 1103SOL    HW1 4208   3.754   3.857   4.302  3.9516 -3.6328  0.3253
 1103SOL    HW2 4209   3.692   3.737   4.211  0.1336 -2.3524  1.0648
 1104SOL     OW 4210   3.056   1.684   5.985  0.6743  0.1519  0.3233
 1104SOL    HW1 4211   3.136   1.714   5.933  0.2989  0.4830 -0.0652
 1104SOL    HW2 4212   3.054   1.584   5.986 -1.4384 -0.0869 -3.7988
 1105SOL     OW 4213   2.909   1.652   1.410 -0.3847  0.1555 -0.0129
 1105SOL    HW1 4214   2.858   1.566   1.402  2.1562 -1.4292 -0.4731
 1105SOL    HW2 4215   2.976   1.658   1.335 -0.1308  2.3159  0.3170
 1106SOL     OW 4216   2.044   5.501   2.140 -0.0394  0.4814  0.2917
 1106SOL    HW1 4217   1.999   5.577   2.092  0.1165  1.1922  1.2299
 1106SOL    HW2 4218   2.125   5.536   2.188  0.2958 -0.3775  0.3639
 1107SOL     OW 4219   0.513   2.684   3.072  0.2988 -0.5524  0.0216
 1107SOL    HW1 4220   0.517   2.601   3.016  2.2016  0.3961 -1.3825
 1107SOL    HW2 4221   0.527   2.764   3.014 -2.0546  0.8491  1.2491
 1108SOL     OW 4222   3.453   5.362   6.098  0.6007 -0.2892 -0.1913
 1108SOL    HW1 4223   3.551   5.357   6.076  0.3232 -1.4104 -1.3578
 1108SOL    HW2 4224   3.407   5.419   6.030  0.6762  1.7463  1.3960
 1109SOL     OW 4225   0.914   2.229   4.329 -0.0003 -0.6207  0.1804
 1109SOL    HW1 4226   0.954   2.319   4.312  3.4597 -2.2473 -1.3417
 1109SOL    HW2 4227   0.857   2.202   4.251  0.6984 -0.5748 -0.3521
 1110SOL     OW 4228   3.272   1.715   5.775 -0.0404 -0.1551  0.1058
 1110SOL    HW1 4229   3.340   1.652   5.812  1.2775  1.2145  0.1199
 1110SOL    HW2 4230   3.314   1.805   5.760 -1.2890  0.1611 -1.9255
 1111SOL     OW 4231   5.522   3.707   6.457  0.7489 -0.2397 -0.3913
 1111SOL    HW1 4232   5.468   3.731   6.376  1.0318 -0.2794 -0.5921
 1111SOL    HW2 4233   5.478   3.745   6.539 -0.6325 -1.8725 -0.3169
 1112SOL     OW 4234   3.637   3.941   1.599 -0.1573  0.7156 -0.0168
 1112SOL    HW1 4235   3.564   3.927   1.666 -0.1969  0.4222 -0.1219
 1112SOL    HW2 4236   3.700   4.011   1.632  1.2704 -1.1964  1.5294
 1113SOL     OW 4237   0.780   0.224   5.068 -0.3260 -0.6777  0.3347
 1113SOL    HW1 4238   0.695   0.175   5.084 -1.5829  0.4070 -2.2407
 1113SOL    HW2 4239   0.769   0.319   5.098 -0.9438  0.0593 -1.9981
 1114SOL     OW 4240   3.537   3.251   4.666 -0.2724  0.2886 -0.2237
 1114SOL    HW1 4241   3.600   3.233   4.590 -1.4451  0.2675 -1.2288
 1114SOL    HW2 4242   3.521   3.166   4.717 -1.2303 -0.2575 -1.3709
 1115SOL     OW 4243   5.314   4.707   2.843  0.2612  0.3120  0.4327
 1115SOL    HW1 4244   5.267   4.669   2.922  0.2452 -1.8256 -0.5379
 1115SOL    HW2 4245   5.335   4.634   2.778  1.6239  1.7701 -0.8615
 1116SOL     OW 4246   0.058   1.070   6.469 -0.5844 -0.3575 -0.2681
 1116SOL    HW1 4247   0.100   0.990   6.514 -1.7487 -0.5837  0.4578
 1116SOL    HW2 4248   0.105   1.153   6.498 -1.2493 -0.5091  1.3490
 1117SOL     OW 4249   4.870   6.501   1.910 -0.5156 -0.8450  0.4744
 1117SOL    HW1 4250   4.834   6.500   1.817 -1.1310  2.9697  0.5047
 1117SOL    HW2 4251   4.796   6.487   1.975 -0.9041  0.6656  0.4015
 1118SOL     OW 4252   3.508   0.726   6.362 -0.1351  0.1943 -0.1147
 1118SOL    HW1 4253   3.531   0.820   6.337  1.0618  0.3329  1.3486
 1118SOL    HW2 4254   3.550   0.662   6.298 -1.6089  0.6376 -1.5900
 1119SOL     OW 4255   3.781   0.842   2.282  0.0938  0.0239 -0.3518
 1119SOL    HW1 4256   3.757   0.936   2.307 -0.0372 -0.0707 -0.1195
 1119SOL    HW2 4257   3.765   0.782   2.360  1.8795  0.0870  0.0958
 1120SOL     OW 4258   4.285   1.244   6.579  0.0900 -0.3429 -0.2049
 1120SOL    HW1 4259   4.293   1.222   6.482 -0.2693  1.8950 -0.7783
 1120SOL    HW2 4260   4.341   1.324   6.600  0.6615 -1.1456  1.6081
 1121SOL     OW 4261   6.659   6.341   5.014  0.3317 -0.0404  0.3769
 1121SOL    HW1 4262   6.600   6.262   5.029  0.7270 -0.2793  0.7234
 1121SOL    HW2 4263   6.627   6.418   5.069 -0.6110  0.3366 -0.6839
 1122SOL     OW 4264   4.654   6.427   2.500  0.2097  0.3710 -0.2341
 1122SOL    HW1 4265   4.634   6.337   2.462 -0.1642 -0.0469  0.8932
 1122SOL    HW2 4266   4.743   6.425   2.547  0.8228  0.9687 -1.3127
 1123SOL     OW 4267   2.575   6.537   0.718  0.4312  0.4096  0.4372
 1123SOL    HW1 4268   2.599   6.441   0.706 -2.0827 -0.2952  0.3032
 1123SOL    HW2 4269   2.560   6.555   0.815 -0.2443  0.3226  0.3565
 1124SOL     OW 4270   2.841   6.598   2.099  0.1297 -0.3980  0.3928
 1124SOL    HW1 4271   2.930   6.643   2.084 -0.1637 -0.2469 -1.1044
 1124SOL    HW2 4272   2.816   6.548   2.016 -0.8601 -1.0201  1.0614
 1125SOL     OW 4273   4.476   4.482   2.342  0.2341 -0.1255 -0.5637
 1125SOL    HW1 4274   4.503   4.404   2.399 -0.3502 -0.6915 -1.0516
 1125SOL    HW2 4275   4.490   4.460   2.246  1.6543  1.0015 -0.6495
 1126SOL     OW 4276   1.241   4.104   0.536 -0.4072  0.2394 -0.2047
 1126SOL    HW1 4277   1.273   4.076   0.627 -0.3703  0.1008 -0.2612
 1126SOL    HW2 4278   1.166   4.045   0.507  0.5401 -0.6551 -0.8929
 1127SOL     OW 4279   0.999   4.832   1.824 -0.0749  1.0048 -0.0529
 1127SOL    HW1 4280   1.066   4.783   1.768 -1.6064  0.6251 -1.6394
 1127SOL    HW2 4281   1.034   4.924   1.844  1.6255  0.2664  0.6154
 1128SOL     OW 4282   4.536   5.619   7.000 -0.0761  0.5763  0.1952
 1128SOL    HW1 4283   4.634   5.608   6.979 -0.1125  0.4630  0.0839
 1128SOL    HW2 4284   4.496   5.529   7.020 -0.5375  0.3940 -1.4163
 1129SOL     OW 4285   0.481   0.580   5.198  0.0514 -0.3298 -0.8394
 1129SOL    HW1 4286   0.560   0.641   5.195 -1.1753  1.3469 -0.2524
 1129SOL    HW2 4287   0.400   0.628   5.165 -1.4970 -0.7271  2.0632
 1130SOL     OW 4288   1.843   4.534   5.631  0.6026  0.4415 -0.0435
 1130SOL    HW1 4289   1.825   4.509   5.726 -0.1867 -0.0325 -0.3140
 1130SOL    HW2 4290   1.938   4.566   5.623  0.5042  1.0624  1.0102
 1131SOL     OW 4291   3.438   1.949   0.932  0.5510  0.5435  0.5755
 1131SOL    HW1 4292   3.396   1.868   0.973  0.3543  0.3247 -0.0462
 1131SOL    HW2 4293   3.478   1.925   0.843 -0.3021  1.3117 -0.0385
 1132SOL     OW 4294   6.008   0.081   0.280 -0.3302  0.0757  0.1457
 1132SOL    HW1 4295   6.087   0.021   0.268 -0.2458  0.2007  0.0768
 1132SOL    HW2 4296   5.962   0.094   0.193  1.4701  2.6352 -0.5498
 1133SOL     OW 4297   1.407   4.824   4.954  0.3497 -0.2985 -0.4031
 1133SOL    HW1 4298   1.479   4.863   4.897 -0.3488 -1.8563 -2.4771
 1133SOL    HW2 4299   1.438   4.736   4.990 -0.0087 -0.3183 -0.1396
 1134SOL     OW 4300   3.404   6.945   1.587 -0.5174 -0.3188 -0.3534
 1134SOL    HW1 4301   3.481   7.009   1.588  0.1625 -0.8704 -3.6865
 1134SOL    HW2 4302   3.436   6.854   1.614 -0.8201  0.1087  1.5383
 1135SOL     OW 4303   5.822   2.806   2.894  0.3093  0.1061  0.0786
 1135SOL    HW1 4304   5.723   2.796   2.888  0.4142 -0.3679 -0.9855
 1135SOL    HW2 4305   5.843   2.895   2.935 -0.5446 -0.1237  1.0702
 1136SOL     OW 4306   6.312   0.905   2.543  0.5041 -0.2760  0.3385
 1136SOL    HW1 4307   6.341   0.973   2.611  1.9393 -0.6686  0.1512
 1136SOL    HW2 4308   6.304   0.949   2.454 -0.7544  0.1025  0.6207
 1137SOL     OW 4309   2.196   4.147   3.718  0.0871 -0.1694  0.0935
 1137SOL    HW1 4310   2.107   4.165   3.760 -0.5737 -2.3199 -0.2778
 1137SOL    HW2 4311   2.185   4.138   3.619  0.9420  0.6778 -0.0994
 1138SOL     OW 4312   4.772   5.319   0.415 -0.1394  0.2360  0.3295
 1138SOL    HW1 4313   4.739   5.298   0.323  0.4751  0.6619  0.0008
 1138SOL    HW2 4314   4.852   5.262   0.435 -0.5933 -0.2440  0.8195
 1139SOL     OW 4315   6.349   3.121   2.648  0.1393 -0.4748  0.1285
 1139SOL    HW1 4316   6.303   3.033   2.631 -0.4889 -0.0502 -0.4465
 1139SOL    HW2 4317   6.411   3.141   2.572 -1.2801  0.5479 -0.8115
 1140SOL     OW 4318   1.474   5.874   0.731  0.5253  0.0438 -0.1994
 1140SOL    HW1 4319   1.493   5.946   0.798 -1.8441 -0.6334  1.3100
 1140SOL    HW2 4320   1.412   5.908   0.662 -2.7741 -1.0602  1.9672
 1141SOL     OW 4321   1.179   3.875   0.066 -0.0039  0.0011 -0.1516
 1141SOL    HW1 4322   1.129   3.958   0.092  0.0521 -0.0893  0.2503
 1141SOL    HW2 4323   1.173   3.808   0.140 -0.0080 -0.3356 -0.4565
 1142SOL     OW 4324   1.669   6.449   4.247 -0.7569 -0.5713 -0.0911
 1142SOL    HW1 4325   1.681   6.547   4.259 -1.2260 -0.3952 -0.9657
 1142SOL    HW2 4326   1.638   6.430   4.154  2.1499 -1.7688 -0.9338
 1143SOL     OW 4327   5.412   2.422   6.657  0.0627 -0.0581  0.0913
 1143SOL    HW1 4328   5.378   2.352   6.595 -0.5936  1.6074 -1.5028
 1143SOL    HW2 4329   5.340   2.448   6.722 -0.4507  0.6739 -0.7471
 1144SOL     OW 4330   2.398   0.296   3.669  0.0563 -0.4177  0.0614
 1144SOL    HW1 4331   2.343   0.286   3.751  0.3488 -2.3618  0.0734
 1144SOL    HW2 4332   2.423   0.392   3.656 -0.1355 -0.0534  2.1360
 1145SOL     OW 4333   2.602   1.751   0.505  0.4128  0.4113  0.1193
 1145SOL    HW1 4334   2.669   1.769   0.578 -0.6320 -1.1447  1.5262
 1145SOL    HW2 4335   2.642   1.689   0.438  0.8957  0.7050  0.1293
 1146SOL     OW 4336   1.965   6.769   5.890  0.2054  0.7525 -0.1021
 1146SOL    HW1 4337   1.947   6.684   5.840  1.1547 -0.7015  1.9129
 1146SOL    HW2 4338   1.948   6.847   5.829  0.1072 -0.8645 -2.2800
 1147SOL     OW 4339   2.484   2.238   3.374  0.5397  0.3960 -0.3807
 1147SOL    HW1 4340   2.450   2.265   3.283 -0.1313  1.0385  0.0511
 1147SOL    HW2 4341   2.472   2.140   3.385 -4.0953  0.8857  0.8466
 1148SOL     OW 4342   0.195   6.084   4.207  0.2051  0.5129  0.1346
 1148SOL    HW1 4343   0.215   6.030   4.125 -1.6873 -0.3036  0.1711
 1148SOL    HW2 4344   0.201   6.025   4.288 -3.6265 -0.2483  0.0347
 1149SOL     OW 4345   3.854   6.368   5.231 -0.0259  0.1625 -0.6106
 1149SOL    HW1 4346   3.887   6.418   5.151  1.1003 -0.8454 -0.8045
 1149SOL    HW2 4347   3.908   6.393   5.311 -0.6144  0.5544 -0.3276
 1150SOL     OW 4348   4.856   1.655   3.694  0.1533  1.0884  0.1663
 1150SOL    HW1 4349   4.863   1.589   3.770  1.4793  0.5330 -0.3924
 1150SOL    HW2 4350   4.789   1.623   3.628 -0.8201  1.4415  0.9594
 1151SOL     OW 4351   2.619   4.421   5.771 -0.3560 -0.2361 -0.3985
 1151SOL    HW1 4352   2.687   4.350   5.758 -0.1833 -0.2472  0.5061
 1151SOL    HW2 4353   2.528   4.380   5.774 -0.2432 -0.4462  0.2836
 1152SOL     OW 4354   5.673   0.416   5.175  0.3195  0.3925  0.0165
 1152SOL    HW1 4355   5.749   0.481   5.180  0.9683 -0.2155 -1.3679
 1152SOL    HW2 4356   5.663   0.370   5.263  3.0030 -1.0533 -0.3155
 1153SOL     OW 4357   1.321   1.219   1.901  0.1648  0.2535 -0.7691
 1153SOL    HW1 4358   1.319   1.132   1.851 -0.3398  0.2155 -0.6877
 1153SOL    HW2 4359   1.339   1.202   1.997  2.6859  0.4315 -1.1409
 1154SOL     OW 4360   5.888   0.798   5.528 -0.0932  0.4116  0.0315
 1154SOL    HW1 4361   5.794   0.764   5.523 -0.1920  0.6070  0.4494
 1154SOL    HW2 4362   5.893   0.868   5.600  0.0780  1.3442 -0.8629
 1155SOL     OW 4363   1.209   6.040   5.273  0.1543  0.3294 -0.6025
 1155SOL    HW1 4364   1.217   6.122   5.217 -0.8169  0.9246  0.0930
 1155SOL    HW2 4365   1.209   6.066   5.370  0.1221 -0.5254 -0.3633
 1156SOL     OW 4366   1.720   0.543   6.864 -0.2801 -0.2783  0.0332
 1156SOL    HW1 4367   1.689   0.469   6.804  1.6348  1.4398 -3.3674
 1156SOL    HW2 4368   1.817   0.560   6.849 -0.2500  1.8075  2.0000
 1157SOL     OW 4369   1.299   0.088   0.926 -0.0009  0.9261  0.2810
 1157SOL    HW1 4370   1.217   0.099   0.983 -0.5324  0.4858 -0.3846
 1157SOL    HW2 4371   1.294   0.152   0.849 -0.8153 -0.6067 -0.9894
 1158SOL     OW 4372   1.721   3.343   4.432 -0.5926  0.3015 -0.7792
 1158SOL    HW1 4373   1.650   3.342   4.503  0.8454 -0.5451  0.7346
 1158SOL    HW2 4374   1.760   3.435   4.426  1.4893 -0.2611  1.9764
 1159SOL     OW 4375   4.936   3.542   5.638  0.2060  0.4086 -0.1933
 1159SOL    HW1 4376   4.956   3.544   5.540 -1.8745  0.7197 -0.6537
 1159SOL    HW2 4377   4.870   3.470   5.657 -0.5536  1.3064  0.7115
 1160SOL     OW 4378   6.734   0.541   6.157  0.1075  0.1845  0.2035
 1160SOL    HW1 4379   6.785   0.615   6.200 -0.0346  0.4130 -0.0208
 1160SOL    HW2 4380   6.640   0.540   6.192 -0.5954  1.5932 -1.4854
 1161SOL     OW 4381   4.096   0.391   5.745 -0.0016  0.1591  0.0100
 1161SOL    HW1 4382   4.087   0.362   5.649 -0.9633  0.9750 -0.1687
 1161SOL    HW2 4383   4.191   0.383   5.773  0.1889 -0.7291 -0.8020
 1162SOL     OW 4384   2.320   2.228   3.610  0.1994 -0.4757  0.0249
 1162SOL    HW1 4385   2.310   2.317   3.565 -0.7578 -0.9760 -0.7834
 1162SOL    HW2 4386   2.385   2.172   3.558  2.0655  0.2922  1.4248
 1163SOL     OW 4387   5.511   6.354   6.591 -0.0368 -0.1481 -0.0741
 1163SOL    HW1 4388   5.461   6.336   6.507  0.5100  0.4783 -0.5405
 1163SOL    HW2 4389   5.543   6.268   6.630 -0.3936 -0.4486 -0.4447
 1164SOL     OW 4390   0.228   0.573   6.510 -0.3017  0.5650  0.2481
 1164SOL    HW1 4391   0.322   0.549   6.488 -0.1009  0.0795  1.5723
 1164SOL    HW2 4392   0.167   0.536   6.439  0.3894 -0.1944  0.0378
 1165SOL     OW 4393   0.436   5.934   3.652 -0.2482 -0.2115  0.5332
 1165SOL    HW1 4394   0.518   5.895   3.695 -0.1665 -0.0949  0.4836
 1165SOL    HW2 4395   0.413   5.881   3.571  0.4225  0.4112 -0.0840
 1166SOL     OW 4396   3.303   5.326   4.736 -1.0824  0.4636  0.3877
 1166SOL    HW1 4397   3.308   5.235   4.695 -1.3506 -0.7620  2.8784
 1166SOL    HW2 4398   3.392   5.370   4.730 -0.8801 -0.0514 -0.6134
 1167SOL     OW 4399   2.813   6.474   0.105 -0.1437  0.0606  0.2198
 1167SOL    HW1 4400   2.883   6.468   0.176  1.8107  3.4975 -1.1431
 1167SOL    HW2 4401   2.845   6.534   0.031 -3.8060  0.2677 -1.4494
 1168SOL     OW 4402   3.062   6.366   2.508  0.4640 -0.0850  0.4414
 1168SOL    HW1 4403   3.153   6.375   2.469  0.4574  0.5211  0.5569
 1168SOL    HW2 4404   2.994   6.401   2.444  0.3029 -0.5807  0.3339
 1169SOL     OW 4405   6.578   0.183   0.392 -0.2110  0.1747  0.4136
 1169SOL    HW1 4406   6.530   0.151   0.310  0.8733  2.5103 -1.2663
 1169SOL    HW2 4407   6.675   0.162   0.384 -0.2643 -0.7227  1.7713
 1170SOL     OW 4408   3.103   3.610   2.201 -0.0658  0.0215 -0.1744
 1170SOL    HW1 4409   3.027   3.546   2.186 -0.5792  0.5412  0.1937
 1170SOL    HW2 4410   3.068   3.694   2.242  0.6565  0.4149 -0.3582
 1171SOL     OW 4411   6.598   6.822   4.854  0.3684  0.1823  0.0185
 1171SOL    HW1 4412   6.567   6.915   4.837 -3.3077 -0.9717 -0.5128
 1171SOL    HW2 4413   6.650   6.789   4.775 -0.4578  1.0007 -0.8960
 1172SOL     OW 4414   5.155   0.777   2.704 -0.2195  0.1233  0.0677
 1172SOL    HW1 4415   5.070   0.750   2.658  0.5702 -0.4753 -1.0640
 1172SOL    HW2 4416   5.175   0.873   2.685  0.4257 -0.2806 -1.3823
 1173SOL     OW 4417   5.263   6.913   5.609  0.7758 -0.3151  0.0993
 1173SOL    HW1 4418   5.318   6.939   5.688 -1.6554  0.1559  1.7243
 1173SOL    HW2 4419   5.292   6.823   5.577  0.9542 -1.1227  2.3772
 1174SOL     OW 4420   1.480   0.399   3.651  0.0589  0.5233  0.2413
 1174SOL    HW1 4421   1.536   0.471   3.691  0.5456  0.5862 -0.5333
 1174SOL    HW2 4422   1.505   0.386   3.555 -0.5409 -0.1610  0.1643
 1175SOL     OW 4423   2.767   3.089   5.920  0.0572  0.9916  0.5156
 1175SOL    HW1 4424   2.714   3.010   5.948  1.2791  0.0500  0.2449
 1175SOL    HW2 4425   2.837   3.061   5.853 -0.6708  2.6005 -0.9963
 1176SOL     OW 4426   5.962   0.287   3.486  0.4115  0.0146  0.0078
 1176SOL    HW1 4427   5.912   0.287   3.572  0.5347 -0.9427  0.0902
 1176SOL    HW2 4428   5.915   0.346   3.420 -0.0147  0.2669  0.5271
 1177SOL     OW 4429   3.700   1.683   1.205  0.6388  0.4639  0.1053
 1177SOL    HW1 4430   3.661   1.672   1.297  0.1751 -0.7907 -0.2208
 1177SOL    HW2 4431   3.743   1.773   1.198 -1.2483  1.4944  0.8413
 1178SOL     OW 4432   6.862   1.788   6.614 -0.5649 -0.9662  0.8244
 1178SOL    HW1 4433   6.928   1.721   6.582  1.0320  0.8830  0.0775
 1178SOL    HW2 4434   6.805   1.818   6.538  0.7169  0.6500  0.4409
 1179SOL     OW 4435   1.477   5.001   5.814  0.0840 -0.1880  0.1163
 1179SOL    HW1 4436   1.483   4.948   5.898 -1.0065 -2.1065 -0.9373
 1179SOL    HW2 4437   1.507   4.944   5.737 -3.0869 -0.1153 -1.3440
 1180SOL     OW 4438   2.683   0.270   6.014 -0.2192 -0.8230 -0.1459
 1180SOL    HW1 4439   2.642   0.340   6.073  0.0940 -0.5821 -0.2130
 1180SOL    HW2 4440   2.741   0.210   6.069  0.8795  0.0101 -0.3582
 1181SOL     OW 4441   2.989   0.067   5.221 -0.4711 -0.2770  0.1447
 1181SOL    HW1 4442   2.973   0.004   5.297 -0.3201  1.3817  1.6332
 1181SOL    HW2 4443   2.903   0.086   5.173 -0.8158 -0.3366  0.7353
 1182SOL     OW 4444   6.901   3.599   5.969  0.1681  0.1428 -0.2714
 1182SOL    HW1 4445   6.935   3.505   5.977  0.2025  0.2485  0.9476
 1182SOL    HW2 4446   6.803   3.597   5.947  0.1467 -0.1740 -0.1463
 1183SOL     OW 4447   2.086   0.775   3.739 -0.4132 -0.4017  0.3034
 1183SOL    HW1 4448   2.030   0.805   3.662  0.5161 -0.1293 -0.2933
 1183SOL    HW2 4449   2.149   0.703   3.709  0.9836  0.7229  0.3939
 1184SOL     OW 4450   1.633   1.968   4.762 -0.3959 -0.7221 -0.4971
 1184SOL    HW1 4451   1.687   1.964   4.847  1.6283  0.6938 -1.6179
 1184SOL    HW2 4452   1.536   1.975   4.785  0.1798  1.3944  1.7724
 1185SOL     OW 4453   1.374   5.570   6.188  0.7079 -0.8186 -0.1968
 1185SOL    HW1 4454   1.440   5.645   6.188  0.4268 -0.5493  0.8303
 1185SOL    HW2 4455   1.423   5.483   6.186  1.0768 -0.6175 -0.0684
 1186SOL     OW 4456   1.785   5.210   3.514  0.8604  0.0221  0.4029
 1186SOL    HW1 4457   1.855   5.194   3.444 -0.5699 -0.9275 -0.8888
 1186SOL    HW2 4458   1.806   5.295   3.563  2.3253  0.3212 -0.6533
 1187SOL     OW 4459   6.787   2.898   2.362  0.2833 -0.1745 -0.7732
 1187SOL    HW1 4460   6.755   2.983   2.320 -1.3544  0.9253  2.3986
 1187SOL    HW2 4461   6.849   2.919   2.438  1.8404 -1.9870 -1.4452
 1188SOL     OW 4462   4.850   6.019   2.450 -0.3222  0.0661 -0.1946
 1188SOL    HW1 4463   4.944   6.041   2.474 -0.2789 -1.4399  1.2034
 1188SOL    HW2 4464   4.802   6.102   2.423  1.2651  0.9274 -0.4886
 1189SOL     OW 4465   1.178   0.407   6.025 -0.5780 -0.5103  0.2275
 1189SOL    HW1 4466   1.182   0.308   6.035 -0.4428 -0.4240  1.1490
 1189SOL    HW2 4467   1.096   0.442   6.071 -0.0669 -0.1045  0.8560
 1190SOL     OW 4468   6.689   6.867   0.293 -0.3833 -0.4625 -0.9648
 1190SOL    HW1 4469   6.700   6.933   0.218  0.7821 -2.2300 -2.4253
 1190SOL    HW2 4470   6.779   6.835   0.322 -0.9154 -1.1490 -0.0219
 1191SOL     OW 4471   5.807   3.705   2.888  0.2004  0.8674 -0.4351
 1191SOL    HW1 4472   5.722   3.724   2.937  1.2656  0.7067  1.6243
 1191SOL    HW2 4473   5.788   3.690   2.791 -2.0505  1.1429 -0.0858
 1192SOL     OW 4474   2.363   1.839   4.128  0.2623  0.3538  0.0491
 1192SOL    HW1 4475   2.351   1.892   4.212 -0.4822  0.5057 -0.1410
 1192SOL    HW2 4476   2.290   1.862   4.064  0.9686  0.4271 -0.7452
 1193SOL     OW 4477   6.275   4.700   0.246  0.4347  0.5014 -0.1758
 1193SOL    HW1 4478   6.362   4.654   0.267  1.1590  1.0146 -1.7943
 1193SOL    HW2 4479   6.210   4.633   0.211  0.0635  0.0671  1.2957
 1194SOL     OW 4480   2.102   1.532   2.868  0.6042 -0.3942  0.0672
 1194SOL    HW1 4481   2.038   1.493   2.802  0.6402 -0.5990  0.1531
 1194SOL    HW2 4482   2.119   1.629   2.845  0.5631 -0.4447 -0.1824
 1195SOL     OW 4483   2.428   4.527   6.982 -0.5316 -0.4396 -0.1041
 1195SOL    HW1 4484   2.339   4.574   6.991  0.1203  1.1180 -1.2269
 1195SOL    HW2 4485   2.450   4.480   7.067 -1.5682  0.7469  0.8587
 1196SOL     OW 4486   0.888   0.741   1.223  1.1913  0.7091  0.0198
 1196SOL    HW1 4487   0.976   0.772   1.259  1.4688  0.3671 -0.3600
 1196SOL    HW2 4488   0.852   0.809   1.159  1.9788  0.1039 -1.1047
 1197SOL     OW 4489   2.843   5.452   2.942 -0.2736 -0.4011  0.1853
 1197SOL    HW1 4490   2.779   5.412   3.008  0.4426 -0.0981  1.0762
 1197SOL    HW2 4491   2.807   5.540   2.910 -0.5885 -0.5179  0.2090
 1198SOL     OW 4492   3.339   1.492   3.848 -0.6836  0.3082 -0.3550
 1198SOL    HW1 4493   3.300   1.483   3.756 -1.5089 -1.0638  0.1065
 1198SOL    HW2 4494   3.297   1.571   3.894 -1.8808 -0.2838 -0.3903
 1199SOL     OW 4495   6.215   2.126   3.521  0.4290  0.4491  0.0187
 1199SOL    HW1 4496   6.279   2.050   3.527  1.2199  1.0061 -1.1831
 1199SOL    HW2 4497   6.203   2.167   3.612  0.9072 -0.3508  0.4483
 1200SOL     OW 4498   0.823   6.412   1.506 -0.3025  0.2484  0.1164
 1200SOL    HW1 4499   0.906   6.387   1.555 -0.8533  0.0900  0.9932
 1200SOL    HW2 4500   0.794   6.336   1.447  1.4086  1.1112 -1.9918
 1201SOL     OW 4501   1.923   2.309   5.632  0.4253 -0.6369  0.2774
 1201SOL    HW1 4502   2.000   2.368   5.607 -0.3009 -0.0690 -0.7061
 1201SOL    HW2 4503   1.951   2.245   5.703  2.6989 -2.5131 -2.1547
 1202SOL     OW 4504   2.984   4.994   4.226 -0.1724  0.0692 -0.5253
 1202SOL    HW1 4505   3.010   5.065   4.160 -1.4112  0.9901 -0.0704
 1202SOL    HW2 4506   2.961   4.910   4.177  1.5123 -0.1133 -1.0605
 1203SOL     OW 4507   0.738   4.367   6.317  0.9236 -0.4444 -0.1033
 1203SOL    HW1 4508   0.709   4.410   6.232  0.3252 -2.0344 -0.7457
 1203SOL    HW2 4509   0.838   4.367   6.322  0.9653 -0.3229 -0.8048
 1204SOL     OW 4510   1.799   4.685   2.240 -0.3081  0.1556 -0.2382
 1204SOL    HW1 4511   1.778   4.659   2.334 -0.0979 -0.2181 -0.2936
 1204SOL    HW2 4512   1.714   4.707   2.192 -0.3150  1.5783  0.3913
 1205SOL     OW 4513   2.046   2.183   3.757  0.2846  0.2146  0.3532
 1205SOL    HW1 4514   1.975   2.253   3.758 -0.2668 -0.3210 -0.1607
 1205SOL    HW2 4515   2.117   2.208   3.692 -0.3007 -0.0578 -0.4175
 1206SOL     OW 4516   3.325   5.515   5.902 -0.5971 -0.0546  0.6256
 1206SOL    HW1 4517   3.229   5.538   5.890 -1.0357 -1.9960  0.0199
 1206SOL    HW2 4518   3.378   5.553   5.826 -0.9547  0.5932  0.6923
 1207SOL     OW 4519   0.639   4.837   5.210  0.1463  0.0505 -0.3955
 1207SOL    HW1 4520   0.730   4.812   5.177  0.1724 -1.6552  0.8245
 1207SOL    HW2 4521   0.573   4.765   5.185 -0.7377  0.9244 -0.6557
 1208SOL     OW 4522   4.097   0.411   6.178 -0.0059  0.1235  0.6778
 1208SOL    HW1 4523   4.154   0.466   6.116  0.8150 -2.8753 -1.4829
 1208SOL    HW2 4524   4.141   0.405   6.267  0.6500  1.6305  0.4889
 1209SOL     OW 4525   2.330   3.339   0.249  0.2197 -0.7789 -0.0907
 1209SOL    HW1 4526   2.335   3.438   0.250 -3.2094 -0.4464  2.5527
 1209SOL    HW2 4527   2.333   3.306   0.154  2.1427  1.6946 -0.9893
 1210SOL     OW 4528   0.078   3.103   4.291 -0.3756 -0.0019 -0.5922
 1210SOL    HW1 4529   0.020   3.108   4.373 -1.6173  1.0977 -1.5004
 1210SOL    HW2 4530   0.061   3.183   4.234  1.1589 -0.2917 -1.4959
 1211SOL     OW 4531   0.269   2.069   3.503 -0.2927  0.2450 -0.0236
 1211SOL    HW1 4532   0.344   2.104   3.559  0.2799 -0.7941 -0.1228
 1211SOL    HW2 4533   0.197   2.138   3.498  0.2470  0.8952  0.8387
 1212SOL     OW 4534   0.385   0.220   0.954  0.0000  0.5696 -0.4801
 1212SOL    HW1 4535   0.319   0.197   1.025  0.7810 -0.8243 -0.1889
 1212SOL    HW2 4536   0.387   0.320   0.942 -2.5388  0.6490 -0.8867
 1213SOL     OW 4537   1.718   2.936   0.554 -0.1531 -0.0903 -0.4916
 1213SOL    HW1 4538   1.795   2.885   0.592 -0.6996 -0.8850 -0.4429
 1213SOL    HW2 4539   1.632   2.900   0.591 -0.5735  0.5660 -0.8062
 1214SOL     OW 4540   3.958   3.805   3.643  0.1106  0.0609 -0.0985
 1214SOL    HW1 4541   3.896   3.867   3.595 -1.3857 -1.0496  0.3418
 1214SOL    HW2 4542   3.974   3.840   3.736  0.9301  0.8360 -0.5107
 1215SOL     OW 4543   4.271   2.470   5.975 -0.0571 -0.2592 -0.2919
 1215SOL    HW1 4544   4.299   2.547   5.919  0.6114  0.6408  1.2190
 1215SOL    HW2 4545   4.172   2.464   5.976 -0.1386  0.9054 -0.0246
 1216SOL     OW 4546   2.079   0.310   5.720  0.5166 -0.3252  0.3810
 1216SOL    HW1 4547   2.094   0.310   5.819 -1.5779 -0.0362  0.7377
 1216SOL    HW2 4548   2.020   0.387   5.695 -0.6563 -1.5703 -0.8202
 1217SOL     OW 4549   2.070   3.527   1.745 -0.1813 -0.0579  0.2788
 1217SOL    HW1 4550   2.100   3.506   1.652 -2.1344 -0.6445 -0.2632
 1217SOL    HW2 4551   2.142   3.502   1.810  0.5764 -1.1673 -0.9503
 1218SOL     OW 4552   5.320   2.855   4.942 -0.1811 -0.1205 -0.3308
 1218SOL    HW1 4553   5.414   2.829   4.918  1.0504  0.9425  2.7151
 1218SOL    HW2 4554   5.291   2.933   4.887  1.2188  0.2721 -0.5577
 1219SOL     OW 4555   6.078   4.019   5.157 -0.0609  0.6352 -0.2275
 1219SOL    HW1 4556   5.987   4.004   5.196  0.0827  1.4075  0.4461
 1219SOL    HW2 4557   6.115   3.932   5.126 -0.0994 -0.0871  1.5926
 1220SOL     OW 4558   6.042   3.654   2.999 -0.4857 -0.3847  0.8110
 1220SOL    HW1 4559   5.960   3.678   2.948  0.4884  0.3570 -0.4708
 1220SOL    HW2 4560   6.085   3.574   2.956 -0.7935 -1.0868  1.7794
 1221SOL     OW 4561   1.087   1.830   3.604 -0.1047 -0.5514  0.1803
 1221SOL    HW1 4562   1.087   1.791   3.512 -0.4219 -1.2727  0.4797
 1221SOL    HW2 4563   1.093   1.756   3.671 -0.1266 -0.0431  0.7477
 1222SOL     OW 4564   2.898   3.426   2.148 -0.3846  0.0712 -0.2014
 1222SOL    HW1 4565   2.888   3.335   2.188  2.9451 -0.9002 -1.2245
 1222SOL    HW2 4566   2.827   3.440   2.079 -1.4933 -1.3644  0.5853
 1223SOL     OW 4567   6.583   1.423   2.712  0.4446  0.0688 -0.2997
 1223SOL    HW1 4568   6.608   1.380   2.625  1.6413  0.2794 -0.0733
 1223SOL    HW2 4569   6.580   1.353   2.784 -1.6969 -0.3161 -0.6902
 1224SOL     OW 4570   4.571   5.587   4.220  0.0105 -0.5587  0.6883
 1224SOL    HW1 4571   4.494   5.609   4.159  0.1894 -0.2045  0.5886
 1224SOL    HW2 4572   4.590   5.666   4.278 -0.2618 -0.9485  1.3162
 1225SOL     OW 4573   2.747   1.440   1.413  0.6552 -0.1031  0.1283
 1225SOL    HW1 4574   2.788   1.395   1.334  0.5051  3.2659 -2.0204
 1225SOL    HW2 4575   2.649   1.453   1.398  0.9595  2.2993 -0.1023
 1226SOL     OW 4576   5.060   1.192   6.731 -0.4819  0.1177  0.4209
 1226SOL    HW1 4577   5.034   1.248   6.810  0.5918  2.5318 -0.8114
 1226SOL    HW2 4578   5.157   1.167   6.739 -0.9634 -1.7256  0.9837
 1227SOL     OW 4579   4.580   1.015   3.687 -0.0036  0.1021  1.1777
 1227SOL    HW1 4580   4.573   1.114   3.678  1.5929  0.2996  1.8255
 1227SOL    HW2 4581   4.512   0.983   3.752 -0.2794  0.8132  1.2534
 1228SOL     OW 4582   3.844   2.143   1.044 -0.5129 -0.6187  0.5695
 1228SOL    HW1 4583   3.791   2.214   0.996 -1.6078 -2.4089 -1.0050
 1228SOL    HW2 4584   3.926   2.184   1.082  0.2082  1.0887 -2.4488
 1229SOL     OW 4585   5.582   0.245   5.674 -0.0086  0.7736 -0.1904
 1229SOL    HW1 4586   5.486   0.262   5.653  0.1742  2.5798  0.3018
 1229SOL    HW2 4587   5.640   0.306   5.620  0.9501 -0.9496 -1.2029
 1230SOL     OW 4588   0.809   7.011   6.769 -0.0375 -0.2039  0.2531
 1230SOL    HW1 4589   0.733   7.073   6.748  0.1803  0.8085  2.1987
 1230SOL    HW2 4590   0.826   6.951   6.691 -2.2101  0.1764 -0.5829
 1231SOL     OW 4591   0.632   2.923   1.386 -0.2562 -0.0365  0.1212
 1231SOL    HW1 4592   0.640   2.873   1.472  1.5544  0.7018  0.4318
 1231SOL    HW2 4593   0.554   2.888   1.335 -0.8085 -1.1426  1.6269
 1232SOL     OW 4594   1.323   4.076   1.861  0.5406  0.0079  0.4913
 1232SOL    HW1 4595   1.260   4.020   1.915  0.2507 -0.6705 -0.5332
 1232SOL    HW2 4596   1.291   4.082   1.767  1.2451  0.8616  0.2886
 1233SOL     OW 4597   0.620   2.959   0.015 -0.0504  0.2139 -0.6119
 1233SOL    HW1 4598   0.562   3.002  -0.054 -0.3862 -1.4952 -1.4517
 1233SOL    HW2 4599   0.661   2.876  -0.023  0.2340 -0.4497  1.0679
 1234SOL     OW 4600   2.258   1.495   1.020  0.4351  0.0829  0.0612
 1234SOL    HW1 4601   2.216   1.405   1.010 -0.6122  0.5183  0.3407
 1234SOL    HW2 4602   2.351   1.493   0.984 -0.4496 -0.4301 -2.3790
 1235SOL     OW 4603   2.475   4.903   3.669 -0.1548  1.1156  0.0444
 1235SOL    HW1 4604   2.513   4.995   3.655  0.6197  0.9384  0.9302
 1235SOL    HW2 4605   2.547   4.835   3.660 -0.8638  0.5153 -1.3302
 1236SOL     OW 4606   4.798   0.582   5.027 -0.7661  0.2984  0.4398
 1236SOL    HW1 4607   4.702   0.581   5.055 -1.4390 -0.9641 -1.6448
 1236SOL    HW2 4608   4.810   0.645   4.951 -0.2590 -0.5225 -0.1868
 1237SOL     OW 4609   4.932   5.455   1.012  0.4439  0.3572 -0.1782
 1237SOL    HW1 4610   5.023   5.495   1.015  0.2907  0.6565  0.6192
 1237SOL    HW2 4611   4.863   5.527   1.016  0.1647  0.0248  1.5602
 1238SOL     OW 4612   4.700   6.022   3.778 -0.2286 -0.1984  0.1549
 1238SOL    HW1 4613   4.772   5.966   3.737  0.5129  0.6671  0.2228
 1238SOL    HW2 4614   4.631   6.042   3.709  0.0439 -0.3178 -0.1579
 1239SOL     OW 4615   3.522   1.602   2.032  0.3518  0.3232 -0.8797
 1239SOL    HW1 4616   3.482   1.553   1.954 -1.0210  0.1621 -0.1160
 1239SOL    HW2 4617   3.459   1.597   2.110  0.8522  2.0600 -0.3171
 1240SOL     OW 4618   2.901   4.886   6.620  0.1320  0.1302  0.0407
 1240SOL    HW1 4619   2.925   4.930   6.707  0.1652 -0.9093  0.5692
 1240SOL    HW2 4620   2.984   4.873   6.566  0.3750 -0.8470  0.6314
 1241SOL     OW 4621   0.337   4.212   5.224 -0.2528 -0.3968 -0.4477
 1241SOL    HW1 4622   0.389   4.128   5.237  0.0339 -0.5665 -2.3824
 1241SOL    HW2 4623   0.399   4.291   5.221 -0.4454 -0.1955  0.5583
 1242SOL     OW 4624   0.608   4.366   3.250 -0.3132  0.4507 -0.1710
 1242SOL    HW1 4625   0.533   4.427   3.274 -0.4394  0.0606  0.4598
 1242SOL    HW2 4626   0.581   4.308   3.173 -1.2762 -0.7632  1.0037
 1243SOL     OW 4627   4.466   1.786   0.178  0.5423 -0.4106  0.1662
 1243SOL    HW1 4628   4.417   1.732   0.110  1.3973 -0.6563 -0.2700
 1243SOL    HW2 4629   4.449   1.749   0.269  1.2735 -1.5395 -0.1419
 1244SOL     OW 4630   4.924   5.832   6.157 -0.4377  0.6646  0.1143
 1244SOL    HW1 4631   4.992   5.764   6.182  0.0963  1.5450  1.1308
 1244SOL    HW2 4632   4.953   5.880   6.074 -0.6813 -0.1398 -0.4455
 1245SOL     OW 4633   3.420   4.759   6.815 -0.3366 -0.0103  0.3895
 1245SOL    HW1 4634   3.449   4.839   6.763 -0.1950 -0.4397 -0.2058
 1245SOL    HW2 4635   3.370   4.789   6.897 -0.0342  0.6844  0.3290
 1246SOL     OW 4636   4.268   1.240   2.527  0.3161  0.1420 -0.5229
 1246SOL    HW1 4637   4.184   1.210   2.481  0.9305 -1.9296 -0.3911
 1246SOL    HW2 4638   4.347   1.196   2.484  1.2740  1.2654  0.0143
 1247SOL     OW 4639   1.909   2.215   1.311 -0.1219 -0.3900 -0.2563
 1247SOL    HW1 4640   1.836   2.242   1.374  1.8028  0.6638  1.7040
 1247SOL    HW2 4641   1.887   2.126   1.270 -3.0943  0.5350 -0.8783
 1248SOL     OW 4642   6.410   5.970   6.705 -0.1442 -0.0793  0.0318
 1248SOL    HW1 4643   6.346   5.893   6.711 -0.1564 -0.1105 -0.4402
 1248SOL    HW2 4644   6.384   6.029   6.629  1.4111 -1.0612 -1.3334
 1249SOL     OW 4645   0.020   1.373   4.773  0.1300 -0.4844 -0.1726
 1249SOL    HW1 4646  -0.008   1.332   4.860 -0.9260 -1.3116 -0.8789
 1249SOL    HW2 4647   0.096   1.320   4.734 -0.2796 -0.9197 -0.3884
 1250SOL     OW 4648   2.381   1.220   0.011  0.4774  0.6150 -0.3951
 1250SOL    HW1 4649   2.341   1.290  -0.048 -0.2196 -1.0684 -1.9946
 1250SOL    HW2 4650   2.337   1.224   0.101 -1.4354  0.5602 -1.2796
 1251SOL     OW 4651   3.471   6.175   5.011  0.2359 -0.0556 -0.1132
 1251SOL    HW1 4652   3.494   6.253   4.952  0.1392  0.5759  0.6795
 1251SOL    HW2 4653   3.503   6.192   5.104  3.2435 -2.3437 -0.5569
 1252SOL     OW 4654   0.503   3.027   4.518 -0.6116  0.9255 -0.6563
 1252SOL    HW1 4655   0.435   3.046   4.447 -1.9049  2.5232  0.9492
 1252SOL    HW2 4656   0.543   2.937   4.501 -1.9808  0.6009 -2.5251
 1253SOL     OW 4657   4.600   1.393   6.766 -0.2349 -0.1145  0.0506
 1253SOL    HW1 4658   4.601   1.363   6.861  0.9706 -0.5221 -0.0823
 1253SOL    HW2 4659   4.672   1.460   6.751 -1.2001  0.8883 -0.2989
 1254SOL     OW 4660   5.747   1.130   5.804 -0.1851 -0.0563 -0.7274
 1254SOL    HW1 4661   5.664   1.130   5.861  0.5202 -0.7728  0.3237
 1254SOL    HW2 4662   5.766   1.037   5.772  0.9593 -0.1492  0.1660
 1255SOL     OW 4663   5.522   6.951   1.660 -0.1127 -0.2613 -1.1054
 1255SOL    HW1 4664   5.580   6.956   1.578 -0.1280 -1.3079 -1.2062
 1255SOL    HW2 4665   5.426   6.957   1.633 -0.0843  0.4431 -1.0503
 1256SOL     OW 4666   4.436   6.804   2.570 -0.2431 -0.0040  0.1934
 1256SOL    HW1 4667   4.458   6.743   2.494 -2.1146 -2.4664  1.4660
 1256SOL    HW2 4668   4.476   6.768   2.654 -1.4895  0.4188  1.0066
 1257SOL     OW 4669   6.333   3.877   3.781  0.0988  0.5874 -0.0102
 1257SOL    HW1 4670   6.325   3.805   3.850 -1.3960  1.5196  0.8471
 1257SOL    HW2 4671   6.284   3.958   3.813  0.8187  1.6128 -1.4460
 1258SOL     OW 4672   4.116   1.670   4.365  0.4491 -0.2976 -0.9698
 1258SOL    HW1 4673   4.117   1.767   4.388  1.2643 -0.1229 -1.6857
 1258SOL    HW2 4674   4.062   1.620   4.433 -0.9023  0.7973 -1.1840
 1259SOL     OW 4675   1.032   1.201   6.044 -0.0808  0.1673 -0.1753
 1259SOL    HW1 4676   0.946   1.177   5.999  0.0155  0.2490 -0.4053
 1259SOL    HW2 4677   1.105   1.142   6.010 -0.2981 -0.8493  1.0246
 1260SOL     OW 4678   0.652   4.690   4.933 -0.2793  0.0007  0.1575
 1260SOL    HW1 4679   0.638   4.771   4.875 -2.2218 -1.1874 -1.1300
 1260SOL    HW2 4680   0.602   4.613   4.895  2.0124 -2.0180  1.0086
 1261SOL     OW 4681   1.268   4.405   5.601 -0.1947  0.2689  0.5204
 1261SOL    HW1 4682   1.179   4.442   5.629 -0.7990 -1.1225  0.5387
 1261SOL    HW2 4683   1.308   4.463   5.530 -2.1723 -0.2639 -1.1296
 1262SOL     OW 4684   6.311   2.992   0.697  0.2347 -0.1987  0.5096
 1262SOL    HW1 4685   6.394   2.989   0.642 -1.1881 -0.7248 -1.7457
 1262SOL    HW2 4686   6.275   3.085   0.699  0.1020 -0.2440  0.2480
 1263SOL     OW 4687   4.249   6.509   4.451  0.6292 -0.2280  0.2554
 1263SOL    HW1 4688   4.262   6.482   4.355 -1.5347 -1.0437  0.1490
 1263SOL    HW2 4689   4.296   6.444   4.510  1.4419 -0.0826 -0.2107
 1264SOL     OW 4690   0.942   4.572   1.952  0.3573 -0.0357  0.6100
 1264SOL    HW1 4691   1.006   4.534   1.885  1.8145  2.0351  0.7271
 1264SOL    HW2 4692   0.948   4.672   1.951 -1.4417  0.1357  2.0600
 1265SOL     OW 4693   1.409   3.713   2.793 -0.2091 -0.2536  0.6990
 1265SOL    HW1 4694   1.508   3.705   2.779 -0.4036 -0.1313 -0.9355
 1265SOL    HW2 4695   1.371   3.777   2.727 -1.5441 -1.1659  0.5531
 1266SOL     OW 4696   1.975   5.400   6.879 -0.2684  0.3267 -0.2399
 1266SOL    HW1 4697   1.943   5.451   6.800  0.4206 -0.9113 -1.3663
 1266SOL    HW2 4698   2.064   5.358   6.858  0.4436  0.8112  1.5615
 1267SOL     OW 4699   3.961   5.437   6.765 -0.2572 -0.1141  0.5974
 1267SOL    HW1 4700   3.931   5.527   6.736  0.4078  0.2543  1.0393
 1267SOL    HW2 4701   4.058   5.425   6.744  0.1451  0.0036  2.2489
 1268SOL     OW 4702   6.859   1.820   5.989 -0.1278 -0.0950 -0.2172
 1268SOL    HW1 4703   6.953   1.820   5.955 -0.1471 -1.6012 -0.3352
 1268SOL    HW2 4704   6.840   1.908   6.034  1.2254  0.3454 -0.4450
 1269SOL     OW 4705   0.774   4.664   1.145  0.3496  0.8073 -0.2109
 1269SOL    HW1 4706   0.704   4.705   1.204 -1.2696 -0.0843 -1.4197
 1269SOL    HW2 4707   0.832   4.603   1.199 -1.3362 -0.2941  0.4442
 1270SOL     OW 4708   5.597   0.786   2.850  0.6444 -0.0781  0.9809
 1270SOL    HW1 4709   5.572   0.799   2.946 -1.8581  1.1008  0.2274
 1270SOL    HW2 4710   5.656   0.861   2.820 -0.8938  1.1199  0.8724
 1271SOL     OW 4711   0.552   1.585   4.306 -0.4994 -0.4787 -0.2848
 1271SOL    HW1 4712   0.475   1.521   4.306 -1.1122  0.2186  0.9266
 1271SOL    HW2 4713   0.629   1.545   4.256 -0.7261 -2.3153  0.7516
 1272SOL     OW 4714   6.147   6.201   2.925  0.3524  0.3130  0.2607
 1272SOL    HW1 4715   6.232   6.246   2.955 -0.3228  2.4439 -0.8172
 1272SOL    HW2 4716   6.154   6.180   2.828 -0.2340  0.2360  0.2354
 1273SOL     OW 4717   5.686   2.809   0.554 -0.0918 -0.1373  0.1699
 1273SOL    HW1 4718   5.693   2.788   0.456 -1.4017  2.0143 -0.4485
 1273SOL    HW2 4719   5.777   2.808   0.594  0.3794 -2.0949 -0.7865
 1274SOL     OW 4720   6.151   4.503   4.753 -0.1992  0.5939 -0.4041
 1274SOL    HW1 4721   6.082   4.436   4.780  0.4576  0.4585  0.9838
 1274SOL    HW2 4722   6.174   4.490   4.656 -0.8689 -0.4575 -0.4297
 1275SOL     OW 4723   3.919   0.156   1.315 -0.0945 -0.0980 -0.0375
 1275SOL    HW1 4724   3.971   0.072   1.329  1.2749 -0.0382 -3.6592
 1275SOL    HW2 4725   3.960   0.231   1.368  0.5979 -1.0426  0.7869
 1276SOL     OW 4726   1.843   3.606   5.074 -0.2295  0.4525 -0.1283
 1276SOL    HW1 4727   1.842   3.524   5.016 -0.7615  0.3475  0.0257
 1276SOL    HW2 4728   1.816   3.580   5.167  0.2463  0.6885  0.0812
 1277SOL     OW 4729   0.410   5.324   6.446 -0.0220 -0.2776 -0.1790
 1277SOL    HW1 4730   0.345   5.315   6.521  2.1930 -1.6580  1.7337
 1277SOL    HW2 4731   0.406   5.243   6.387 -0.3437 -0.1360 -0.3551
 1278SOL     OW 4732   2.091   2.061   4.540 -0.3712  0.5674  0.0740
 1278SOL    HW1 4733   2.117   2.053   4.443 -0.3326  2.4814 -0.0987
 1278SOL    HW2 4734   1.995   2.038   4.550  0.4340 -3.5703  0.2570
 1279SOL     OW 4735   6.054   1.121   2.480  0.3226  0.3229  0.4231
 1279SOL    HW1 4736   6.116   1.075   2.417 -0.0568 -0.3603  0.5451
 1279SOL    HW2 4737   5.972   1.151   2.431  1.4432  2.7306 -0.1170
 1280SOL     OW 4738   6.876   0.615   5.775  0.6026  0.4479 -0.4451
 1280SOL    HW1 4739   6.784   0.616   5.813  1.7376  2.5070  2.6608
 1280SOL    HW2 4740   6.935   0.558   5.833  1.4601 -0.2220 -1.9339
 1281SOL     OW 4741   6.385   6.198   5.737 -0.1101  0.7245 -0.0794
 1281SOL    HW1 4742   6.357   6.157   5.824  0.0101  0.4072 -0.1883
 1281SOL    HW2 4743   6.480   6.229   5.744 -0.8018  2.8503  0.6693
 1282SOL     OW 4744   1.542   4.913   3.532 -0.4336  0.3624  0.1060
 1282SOL    HW1 4745   1.526   5.010   3.551  0.1263  0.7568 -1.3307
 1282SOL    HW2 4746   1.458   4.872   3.496 -0.2759  0.6564 -0.5983
 1283SOL     OW 4747   5.151   2.761   2.227  0.2670  0.0344 -0.8606
 1283SOL    HW1 4748   5.108   2.677   2.259  0.5364  0.4076  0.5798
 1283SOL    HW2 4749   5.176   2.751   2.131  0.9333 -1.7924 -0.5419
 1284SOL     OW 4750   4.441   6.233   2.176  0.5432  1.0485  0.1333
 1284SOL    HW1 4751   4.420   6.300   2.105 -1.1203  3.5959  2.7947
 1284SOL    HW2 4752   4.356   6.195   2.212  1.2219  0.9042  1.6607
 1285SOL     OW 4753   1.887   2.983   4.591  0.4143  0.0050  0.0254
 1285SOL    HW1 4754   1.936   2.897   4.575  0.0514 -0.1598 -0.2227
 1285SOL    HW2 4755   1.823   2.999   4.516 -1.3201 -0.7651  1.2876
 1286SOL     OW 4756   1.052   5.639   3.804 -0.0792  0.7252  0.0015
 1286SOL    HW1 4757   1.021   5.587   3.885 -0.2876  0.8602  0.0091
 1286SOL    HW2 4758   1.133   5.693   3.828 -0.9456  1.8393  0.5087
 1287SOL     OW 4759   6.377   5.599   1.383 -0.1425 -0.0657  0.2502
 1287SOL    HW1 4760   6.436   5.593   1.464 -0.0396  0.6010  0.2251
 1287SOL    HW2 4761   6.427   5.568   1.303  0.6328  1.7689 -0.0017
 1288SOL     OW 4762   5.602   6.533   0.796  0.1886  0.0653 -0.2295
 1288SOL    HW1 4763   5.622   6.435   0.804 -1.2468 -0.3531 -1.3551
 1288SOL    HW2 4764   5.529   6.546   0.729  0.2035  1.9031  0.0831
 1289SOL     OW 4765   0.788   6.780   5.890  0.2228  0.3234  0.0089
 1289SOL    HW1 4766   0.850   6.789   5.968  0.6100  0.9360 -0.3611
 1289SOL    HW2 4767   0.809   6.852   5.823  0.1473 -0.4265 -0.8285
 1290SOL     OW 4768   5.558   6.992   4.673 -0.1740  0.2678  0.2904
 1290SOL    HW1 4769   5.642   6.954   4.635  0.1214  0.1648  1.0161
 1290SOL    HW2 4770   5.513   7.050   4.605 -0.7506 -1.5182 -0.9043
 1291SOL     OW 4771   3.692   0.174   2.098  0.4195 -0.4561  0.1768
 1291SOL    HW1 4772   3.617   0.111   2.078 -1.6144  2.3603 -2.0213
 1291SOL    HW2 4773   3.732   0.207   2.013  1.4852  1.0877  1.2171
 1292SOL     OW 4774   6.629   1.227   5.254 -0.2840  0.0495 -0.1580
 1292SOL    HW1 4775   6.647   1.171   5.335  0.0737  1.4340  0.7659
 1292SOL    HW2 4776   6.679   1.191   5.176  1.0600 -0.1228  0.7511
 1293SOL     OW 4777   5.189   3.796   4.291  0.4891 -0.1112 -0.6255
 1293SOL    HW1 4778   5.097   3.756   4.293  0.7215 -0.7632 -1.9024
 1293SOL    HW2 4779   5.205   3.847   4.376 -0.0396 -2.2062  0.8002
 1294SOL     OW 4780   0.928   2.372   5.723 -0.1986  0.3216 -0.3821
 1294SOL    HW1 4781   1.006   2.414   5.771 -0.6211  1.0952 -0.3654
 1294SOL    HW2 4782   0.952   2.278   5.698  0.3538  0.1882  0.5738
 1295SOL     OW 4783   1.767   2.367   0.271  0.8786 -0.0251  0.0265
 1295SOL    HW1 4784   1.738   2.420   0.191  0.7516 -0.0722  0.0409
 1295SOL    HW2 4785   1.689   2.351   0.331  1.2720  1.3119  0.9264
 1296SOL     OW 4786   3.017   3.619   2.627  0.3348 -0.6796  0.4353
 1296SOL    HW1 4787   3.005   3.613   2.726 -0.1207  0.0919  0.4376
 1296SOL    HW2 4788   2.990   3.710   2.596  1.6851 -0.4789 -0.2327
 1297SOL     OW 4789   2.880   4.266   6.245  0.2245  0.3051 -0.1516
 1297SOL    HW1 4790   2.941   4.192   6.218  0.1570  0.6177 -1.1949
 1297SOL    HW2 4791   2.890   4.343   6.183 -0.5074  0.7499  0.2578
 1298SOL     OW 4792   5.069   0.570   2.480 -0.1458 -0.1594 -0.1475
 1298SOL    HW1 4793   5.093   0.659   2.442  0.2907 -0.5190 -0.7371
 1298SOL    HW2 4794   5.131   0.500   2.444 -1.3753 -0.9387 -0.8332
 1299SOL     OW 4795   2.627   1.273   5.269  0.4726  0.9007  0.4530
 1299SOL    HW1 4796   2.605   1.368   5.245 -0.6538  0.6862  0.5834
 1299SOL    HW2 4797   2.547   1.215   5.253  1.4555 -0.2221 -0.6197
 1300SOL     OW 4798   0.192   0.699   2.555 -0.7768 -0.6192  0.2762
 1300SOL    HW1 4799   0.103   0.734   2.526 -0.7762 -1.1092 -0.3296
 1300SOL    HW2 4800   0.259   0.714   2.483 -0.3181 -0.0759  0.8083
 1301SOL     OW 4801   0.262   1.022   6.766 -0.1767  0.6546  0.0179
 1301SOL    HW1 4802   0.302   1.069   6.845  1.8743  2.1843 -1.8335
 1301SOL    HW2 4803   0.329   1.017   6.692 -1.5633 -1.9593 -1.2110
 1302SOL     OW 4804   3.870   4.801   1.966 -0.1749 -0.2032 -0.2040
 1302SOL    HW1 4805   3.918   4.762   1.887  1.1415 -1.5913  1.2182
 1302SOL    HW2 4806   3.771   4.791   1.952  0.0456 -1.0469 -1.3756
 1303SOL     OW 4807   2.173   1.826   4.653  0.2475  1.1289 -0.0851
 1303SOL    HW1 4808   2.197   1.748   4.596 -0.2187 -1.1365  2.6072
 1303SOL    HW2 4809   2.109   1.885   4.604  0.2092 -0.4539 -2.0505
 1304SOL     OW 4810   5.164   1.952   2.343 -0.0286 -0.0425 -0.0728
 1304SOL    HW1 4811   5.065   1.939   2.343  0.0561 -0.6994  0.2123
 1304SOL    HW2 4812   5.206   1.891   2.277  0.5155 -2.5643  2.4342
 1305SOL     OW 4813   4.798   0.040   1.471  0.0977 -0.3770 -0.0729
 1305SOL    HW1 4814   4.894   0.054   1.497 -0.1127 -0.9679  1.0925
 1305SOL    HW2 4815   4.742   0.111   1.515  0.0990  0.6228 -1.6079
 1306SOL     OW 4816   0.145   2.009   6.589  0.4462 -0.1215 -0.3463
 1306SOL    HW1 4817   0.119   1.924   6.543  0.6125  0.3735 -1.3958
 1306SOL    HW2 4818   0.081   2.081   6.563  0.3515  0.0981  0.4760
 1307SOL     OW 4819   6.371   5.531   4.030 -0.3762 -0.3495 -0.1940
 1307SOL    HW1 4820   6.417   5.611   4.070  0.8622 -1.2269  0.1973
 1307SOL    HW2 4821   6.347   5.551   3.935 -1.5028  1.0303  0.3454
 1308SOL     OW 4822   5.472   3.937   0.545  0.1808 -0.4361  0.7414
 1308SOL    HW1 4823   5.436   3.899   0.630 -0.6348  1.1485  1.1524
 1308SOL    HW2 4824   5.529   3.869   0.500 -0.0770 -1.6212  2.1084
 1309SOL     OW 4825   0.904   3.065   1.407  0.9458  0.5668 -0.1877
 1309SOL    HW1 4826   0.891   3.145   1.466 -0.8866 -0.9088  1.5792
 1309SOL    HW2 4827   0.817   3.039   1.365  1.5334 -0.3922 -0.8651
 1310SOL     OW 4828   5.611   3.212   6.465 -0.5136  0.4661 -0.0699
 1310SOL    HW1 4829   5.603   3.290   6.527 -1.8743 -0.2945  0.7696
 1310SOL    HW2 4830   5.619   3.128   6.518  0.7144 -0.0031 -0.9643
 1311SOL     OW 4831   5.595   1.578   5.314 -0.2619 -0.0053  0.4358
 1311SOL    HW1 4832   5.575   1.480   5.307 -0.6163 -0.1836  3.0518
 1311SOL    HW2 4833   5.519   1.625   5.360  0.5823  1.2290  0.6301
 1312SOL     OW 4834   6.979   2.225   6.525  0.4895  0.6827 -0.2644
 1312SOL    HW1 4835   6.902   2.230   6.588 -0.5931  0.8469 -1.5517
 1312SOL    HW2 4836   6.994   2.315   6.484  1.1555  0.5704 -0.2756
 1313SOL     OW 4837   6.164   2.804   2.893  0.1847  0.0985  0.4322
 1313SOL    HW1 4838   6.258   2.773   2.906  0.2113 -0.2547 -0.4863
 1313SOL    HW2 4839   6.100   2.734   2.924  0.1654  1.2227  3.1521
 1314SOL     OW 4840   1.924   0.860   3.503 -0.1840  0.5062 -0.0296
 1314SOL    HW1 4841   1.926   0.960   3.501 -3.1714  0.6354 -0.5860
 1314SOL    HW2 4842   1.959   0.825   3.416  2.2405  0.9321  0.6933
 1315SOL     OW 4843   6.742   4.677   2.206  0.3795  0.6207 -0.1113
 1315SOL    HW1 4844   6.709   4.681   2.301  1.1548 -1.0053  0.2497
 1315SOL    HW2 4845   6.667   4.702   2.145 -0.8939 -0.7933  0.8018
 1316SOL     OW 4846   6.991   5.468   4.009  0.3262  0.2461 -0.0788
 1316SOL    HW1 4847   6.946   5.439   4.093  0.1273 -0.5287 -0.4373
 1316SOL    HW2 4848   6.924   5.470   3.934  0.3165  1.7497 -0.0613
 1317SOL     OW 4849   3.208   0.346   4.621 -0.1491  0.5890  0.4837
 1317SOL    HW1 4850   3.291   0.375   4.669  0.7908  0.3512 -0.9658
 1317SOL    HW2 4851   3.225   0.260   4.573 -1.1605  0.6699 -0.0497
 1318SOL     OW 4852   2.646   0.927   2.178 -0.1928  0.3461  0.5772
 1318SOL    HW1 4853   2.739   0.927   2.142 -0.7552 -0.0543 -0.9446
 1318SOL    HW2 4854   2.595   1.004   2.141 -1.1274 -0.7353 -0.4954
 1319SOL     OW 4855   0.105   1.789   5.360  0.1027 -0.8486  0.0612
 1319SOL    HW1 4856   0.085   1.692   5.371  0.1615 -1.0232 -1.2187
 1319SOL    HW2 4857   0.184   1.800   5.300  0.4766 -0.0193  0.6870
 1320SOL     OW 4858   0.968   2.098   0.838  0.0073 -0.0655  0.6088
 1320SOL    HW1 4859   0.948   2.191   0.808  0.5055  0.5506  2.1105
 1320SOL    HW2 4860   1.054   2.097   0.889  0.2024 -1.4215  0.3007
 1321SOL     OW 4861   1.289   5.825   2.895  0.5361  0.3306  0.6208
 1321SOL    HW1 4862   1.201   5.872   2.895  0.1129 -0.4511  0.4142
 1321SOL    HW2 4863   1.356   5.880   2.845  0.0217  0.6618  0.2827
 1322SOL     OW 4864   2.723   4.874   5.441 -0.0645 -0.3355 -0.5016
 1322SOL    HW1 4865   2.676   4.920   5.516  0.3450 -1.2537  0.3383
 1322SOL    HW2 4866   2.656   4.840   5.375 -0.4405  0.2342 -0.4205
 1323SOL     OW 4867   3.535   4.014   6.279  0.5481 -0.3938 -0.1852
 1323SOL    HW1 4868   3.538   4.003   6.379  1.2482  0.3789 -0.1087
 1323SOL    HW2 4869   3.487   4.099   6.257  0.5652 -0.4648 -0.5003
 1324SOL     OW 4870   0.855   4.289   1.536 -0.0629  0.3914 -0.0896
 1324SOL    HW1 4871   0.852   4.363   1.469  1.0886 -0.5454 -1.2379
 1324SOL    HW2 4872   0.889   4.323   1.623  1.1658  1.0809 -0.8177
 1325SOL     OW 4873   6.938   6.264   6.313 -0.1750 -0.3719 -0.0304
 1325SOL    HW1 4874   6.861   6.253   6.377  0.8690  0.9385  1.5429
 1325SOL    HW2 4875   6.908   6.317   6.234 -0.4988  1.8340  1.4775
 1326SOL     OW 4876   3.041   3.276   2.769  0.2029 -0.1014  0.7951
 1326SOL    HW1 4877   3.008   3.244   2.680  0.6737  0.7208  0.3134
 1326SOL    HW2 4878   3.036   3.376   2.772  4.7708  0.3816 -0.2432
 1327SOL     OW 4879   5.697   6.698   0.982 -0.1190 -0.1242 -0.1750
 1327SOL    HW1 4880   5.743   6.777   0.941  1.3957 -1.0702 -0.3391
 1327SOL    HW2 4881   5.662   6.638   0.911  0.8916 -0.8252 -0.1062
 1328SOL     OW 4882   4.768   1.839   6.630 -0.1847 -0.1377 -0.2626
 1328SOL    HW1 4883   4.721   1.817   6.545 -1.5019 -0.4549  0.5347
 1328SOL    HW2 4884   4.848   1.779   6.641 -1.8477 -2.3674  0.2758
 1329SOL     OW 4885   3.530   6.641   1.338  0.7028  0.2337  0.4419
 1329SOL    HW1 4886   3.623   6.677   1.340 -0.1355  3.0097 -2.0607
 1329SOL    HW2 4887   3.510   6.605   1.247 -0.9729  0.7563  0.5508
 1330SOL     OW 4888   6.152   5.176   4.980  0.0959 -0.3728 -0.1033
 1330SOL    HW1 4889   6.206   5.235   5.040 -1.0258 -1.6158  2.2105
 1330SOL    HW2 4890   6.115   5.231   4.905  2.5473  0.9671 -0.4610
 1331SOL     OW 4891   6.095   2.936   4.861 -0.2327  0.1395  0.1528
 1331SOL    HW1 4892   6.070   2.872   4.787 -0.4995  1.4963 -0.9683
 1331SOL    HW2 4893   6.109   3.027   4.823  0.5426  0.6888  1.6681
 1332SOL     OW 4894   3.857   6.887   3.028  0.1589  0.1362  0.5983
 1332SOL    HW1 4895   3.791   6.815   3.006  2.0258 -1.6790  0.6989
 1332SOL    HW2 4896   3.867   6.947   2.949  2.0681 -2.5778 -1.4062
 1333SOL     OW 4897   4.556   3.676   5.851  0.0785  0.2914 -0.2172
 1333SOL    HW1 4898   4.462   3.652   5.876  0.3209 -0.6805 -0.1964
 1333SOL    HW2 4899   4.605   3.709   5.931 -0.0189  0.0394 -0.0520
 1334SOL     OW 4900   4.299   3.044   1.130  0.0291  0.4784  0.1064
 1334SOL    HW1 4901   4.289   2.978   1.055  0.3398  0.5693 -0.0189
 1334SOL    HW2 4902   4.226   3.031   1.197 -1.1995  1.4392 -0.9980
 1335SOL     OW 4903   5.874   6.080   2.607  0.1206  0.2793  0.0929
 1335SOL    HW1 4904   5.830   5.997   2.640  1.4904 -0.3493  0.4263
 1335SOL    HW2 4905   5.805   6.144   2.574 -1.0656 -0.3381  1.3099
 1336SOL     OW 4906   0.140   3.746   2.069  0.1936 -0.7188 -0.5183
 1336SOL    HW1 4907   0.156   3.777   1.975 -0.8990 -0.6389 -0.6843
 1336SOL    HW2 4908   0.076   3.669   2.069 -0.3639 -0.2693  0.2098
 1337SOL     OW 4909   6.196   3.753   5.522 -0.3172 -1.2078 -0.2630
 1337SOL    HW1 4910   6.115   3.810   5.536  1.2661  1.5645 -1.4667
 1337SOL    HW2 4911   6.251   3.755   5.606 -0.1591 -0.7402 -0.3731
 1338SOL     OW 4912   5.560   5.290   2.547  0.3550 -0.4359  0.0495
 1338SOL    HW1 4913   5.461   5.284   2.530 -0.0003  1.3280  1.1677
 1338SOL    HW2 4914   5.576   5.351   2.625  2.3268 -0.9487  0.0825
 1339SOL     OW 4915   0.654   5.870   5.595 -0.2789  0.4461 -0.2422
 1339SOL    HW1 4916   0.751   5.876   5.616 -0.7649  2.5847  1.8495
 1339SOL    HW2 4917   0.629   5.775   5.579  2.0098 -0.2171 -0.2349
 1340SOL     OW 4918   4.756   1.639   1.898 -0.3651 -0.2866 -0.2440
 1340SOL    HW1 4919   4.837   1.609   1.848 -0.1648  0.2418 -0.2336
 1340SOL    HW2 4920   4.674   1.617   1.845 -0.1759 -0.1429 -0.5976
 1341SOL     OW 4921   7.007   1.202   4.987  0.2039  0.7297  0.0537
 1341SOL    HW1 4922   6.916   1.179   5.022  0.5706  0.8501  1.1321
 1341SOL    HW2 4923   7.073   1.199   5.062  1.0923  0.6526 -0.7149
 1342SOL     OW 4924   1.827   1.706   3.466 -0.5691 -0.3482  0.3297
 1342SOL    HW1 4925   1.769   1.667   3.537 -0.5408  0.0528  0.5729
 1342SOL    HW2 4926   1.772   1.762   3.404 -0.7696 -1.4412 -0.5296
 1343SOL     OW 4927   6.867   6.279   1.405 -0.2422  0.1558  0.0540
 1343SOL    HW1 4928   6.840   6.353   1.344  1.1910 -0.0969 -0.9341
 1343SOL    HW2 4929   6.893   6.199   1.352  1.5872  0.1089  0.9118
 1344SOL     OW 4930   1.050   6.143   5.878 -0.1549 -0.3087 -0.1266
 1344SOL    HW1 4931   1.003   6.056   5.893 -0.7718  0.2816  1.6320
 1344SOL    HW2 4932   0.984   6.218   5.881  0.6866  0.4235  0.9346
 1345SOL     OW 4933   2.514   1.636   5.648  0.6320 -0.3488  0.3671
 1345SOL    HW1 4934   2.574   1.681   5.582  0.7348 -3.4625 -1.9415
 1345SOL    HW2 4935   2.419   1.659   5.629  0.8190  1.1628  1.1768
 1346SOL     OW 4936   3.747   0.925   3.032  0.2005 -0.0781  0.3652
 1346SOL    HW1 4937   3.792   0.995   2.977  0.3266 -0.0932  0.4473
 1346SOL    HW2 4938   3.816   0.864   3.070  0.2001  0.4597  1.2688
 1347SOL     OW 4939   6.495   4.016   5.385  0.7592 -0.0093  0.1892
 1347SOL    HW1 4940   6.418   4.075   5.361  2.1761  2.2817  1.0683
 1347SOL    HW2 4941   6.525   3.966   5.304 -0.6924  0.1884 -0.4958
 1348SOL     OW 4942   1.665   1.317   4.458  0.1001  0.3347 -0.3371
 1348SOL    HW1 4943   1.680   1.349   4.551 -1.5831 -0.0952  0.1036
 1348SOL    HW2 4944   1.713   1.231   4.444  0.8745  0.7134 -0.0852
 1349SOL     OW 4945   1.374   3.833   6.896  0.4344  0.4108  0.5868
 1349SOL    HW1 4946   1.309   3.831   6.972  1.2593 -1.1812  1.3039
 1349SOL    HW2 4947   1.459   3.876   6.925  0.7522 -0.1992  0.5919
 1350SOL     OW 4948   1.359   6.857   4.651 -0.5715 -0.2586  0.5506
 1350SOL    HW1 4949   1.427   6.804   4.704 -1.5561 -0.9593  1.1508
 1350SOL    HW2 4950   1.267   6.830   4.680 -1.1062  0.9024 -0.0396
 1351SOL     OW 4951   0.097   6.399   1.952 -0.8937 -0.0370 -0.1810
 1351SOL    HW1 4952   0.123   6.338   1.877 -2.8893 -1.6281  0.3291
 1351SOL    HW2 4953   0.012   6.446   1.929  0.2583  2.0907 -0.2727
 1352SOL     OW 4954   6.700   4.303   0.293  0.2093  0.7621 -0.0487
 1352SOL    HW1 4955   6.610   4.328   0.328  0.1280  2.1054 -1.1441
 1352SOL    HW2 4956   6.698   4.208   0.261 -0.3170  0.2196  1.4842
 1353SOL     OW 4957   6.116   1.885   5.195 -0.5213  0.1950  0.0537
 1353SOL    HW1 4958   6.135   1.906   5.099  1.1666 -1.0387  0.0588
 1353SOL    HW2 4959   6.118   1.786   5.209 -2.0246  0.2802  1.1415
 1354SOL     OW 4960   4.065   0.446   1.416 -0.2566  0.4640  0.0040
 1354SOL    HW1 4961   4.075   0.370   1.479 -2.3529 -0.6914 -0.9436
 1354SOL    HW2 4962   4.042   0.529   1.467  2.5707  0.6754  1.0958
 1355SOL     OW 4963   5.093   0.437   4.172 -0.1567 -0.0025  0.0116
 1355SOL    HW1 4964   5.182   0.421   4.215 -0.4048  1.0757  0.9975
 1355SOL    HW2 4965   5.104   0.500   4.095 -0.0527  0.1274  0.1313
 1356SOL     OW 4966   6.080   1.762   2.039  0.3376 -0.0182 -0.2713
 1356SOL    HW1 4967   6.014   1.724   1.974 -0.8563  2.3105 -0.5556
 1356SOL    HW2 4968   6.044   1.756   2.132  1.7425 -2.7181  0.1907
 1357SOL     OW 4969   5.458   1.681   3.109  0.2190 -0.2542 -0.3994
 1357SOL    HW1 4970   5.367   1.679   3.150  0.3943 -1.5157 -0.0434
 1357SOL    HW2 4971   5.522   1.725   3.172  0.0894 -0.4117 -0.1578
 1358SOL     OW 4972   2.534   1.262   2.283 -0.0012 -0.4456  0.2109
 1358SOL    HW1 4973   2.526   1.198   2.206  2.0296 -0.8395  0.2563
 1358SOL    HW2 4974   2.510   1.354   2.253  0.3257 -0.6711 -0.7889
 1359SOL     OW 4975   6.777   3.998   2.812 -0.0492 -0.1942 -0.4021
 1359SOL    HW1 4976   6.678   3.982   2.809  0.0975 -1.0872 -1.5542
 1359SOL    HW2 4977   6.821   3.927   2.867  0.0100 -0.1990 -0.4553
 1360SOL     OW 4978   1.719   2.550   1.628  0.0335  0.2659 -0.1433
 1360SOL    HW1 4979   1.720   2.608   1.710 -0.0333  0.0294  0.0243
 1360SOL    HW2 4980   1.783   2.587   1.560 -0.2789  0.7459 -0.1817
 1361SOL     OW 4981   3.450   2.062   6.277 -0.2059  0.2538  0.0481
 1361SOL    HW1 4982   3.478   2.148   6.235  2.3161  0.7864  2.4924
 1361SOL    HW2 4983   3.518   1.992   6.259 -1.1738 -0.6662 -0.1546
 1362SOL     OW 4984   2.536   4.548   4.653  0.3805  0.2996 -0.2975
 1362SOL    HW1 4985   2.560   4.506   4.740  1.1682  0.4296 -0.4449
 1362SOL    HW2 4986   2.484   4.482   4.598  2.3691 -0.8697 -0.9009
 1363SOL     OW 4987   1.912   0.813   6.746 -0.4207  0.1186  0.2662
 1363SOL    HW1 4988   1.929   0.717   6.722 -0.2371  0.2574 -0.1733
 1363SOL    HW2 4989   2.000   0.859   6.761 -0.5229 -0.3037  2.6526
 1364SOL     OW 4990   1.838   1.518   0.913  0.2952  0.2242 -0.3735
 1364SOL    HW1 4991   1.814   1.554   1.003  2.4007 -0.3404  0.4744
 1364SOL    HW2 4992   1.928   1.550   0.886  1.1461 -2.2209 -0.7496
 1365SOL     OW 4993   3.212   5.491   4.523 -0.4064  0.2759  0.2278
 1365SOL    HW1 4994   3.241   5.436   4.601 -0.4095  1.0307  0.7752
 1365SOL    HW2 4995   3.219   5.588   4.546  0.1097  0.5268 -0.8999
 1366SOL     OW 4996   3.468   0.374   4.759 -0.0866  0.0161  0.6119
 1366SOL    HW1 4997   3.463   0.308   4.834 -0.6775  0.0906  0.6421
 1366SOL    HW2 4998   3.513   0.457   4.790 -0.2224 -0.0003  0.8488
 1367SOL     OW 4999   2.471   0.182   6.511 -0.0960 -0.7736  0.0306
 1367SOL    HW1 5000   2.462   0.096   6.561 -0.4400 -0.7456  0.0242
 1367SOL    HW2 5001   2.403   0.247   6.545 -0.6573 -0.9076 -0.7856
 1368SOL     OW 5002   3.688   2.951   6.366 -0.5211  0.1141 -0.1958
 1368SOL    HW1 5003   3.763   2.939   6.431 -1.1014 -3.6382  0.0075
 1368SOL    HW2 5004   3.601   2.955   6.416 -0.9210 -2.2083 -0.5997
 1369SOL     OW 5005   3.921   6.953   2.484  0.4761  0.0731  0.4411
 1369SOL    HW1 5006   4.018   6.974   2.494  0.2267  0.8046  1.4046
 1369SOL    HW2 5007   3.885   6.999   2.403  1.7004 -3.0551 -2.1310
 1370SOL     OW 5008   3.551   4.605   0.392  0.3719  0.3864 -0.1934
 1370SOL    HW1 5009   3.565   4.684   0.332  1.0312  0.6119  0.2553
 1370SOL    HW2 5010   3.483   4.628   0.462 -0.3247  0.1554 -0.7756
 1371SOL     OW 5011   2.142   0.944   6.755 -0.5185 -0.6480  0.0190
 1371SOL    HW1 5012   2.237   0.912   6.751 -0.3933 -0.2923  0.1016
 1371SOL    HW2 5013   2.109   0.962   6.663  0.3879  1.8021  0.1155
 1372SOL     OW 5014   4.793   2.883   4.396 -0.0796  0.4283 -0.6907
 1372SOL    HW1 5015   4.761   2.869   4.490  0.3144  0.3671 -0.5652
 1372SOL    HW2 5016   4.805   2.981   4.379 -0.2618  0.4473 -0.7164
 1373SOL     OW 5017   4.890   3.189   3.261  0.1936  1.2670 -0.0904
 1373SOL    HW1 5018   4.989   3.177   3.267  0.3204  2.0979 -0.4374
 1373SOL    HW2 5019   4.860   3.261   3.324 -0.3749  0.1483  0.9613
 1374SOL     OW 5020   6.819   3.162   2.746  0.7296 -0.3333  0.5806
 1374SOL    HW1 5021   6.838   3.260   2.744  2.0539 -0.5863 -0.2086
 1374SOL    HW2 5022   6.811   3.131   2.841  1.3296  0.3467  0.8616
 1375SOL     OW 5023   3.294   1.963   0.581  0.4810  0.4383  0.3136
 1375SOL    HW1 5024   3.270   2.059   0.594 -0.2662  0.3633 -0.3760
 1375SOL    HW2 5025   3.307   1.919   0.669  0.9354  1.1910  0.6353
 1376SOL     OW 5026   6.348   5.785   0.003 -0.3726  0.0082  0.9612
 1376SOL    HW1 5027   6.329   5.697   0.045 -0.3374 -0.5604 -0.1727
 1376SOL    HW2 5028   6.443   5.789  -0.027 -0.4583  0.2978  0.7099
 1377SOL     OW 5029   3.681   2.512   6.628  0.1478 -0.6981 -0.0330
 1377SOL    HW1 5030   3.715   2.493   6.536  0.2952 -0.4632 -0.0289
 1377SOL    HW2 5031   3.584   2.488   6.634  0.7136 -3.0977  0.4652
 1378SOL     OW 5032   5.188   3.182   6.140  0.0128 -0.5486 -0.4872
 1378SOL    HW1 5033   5.193   3.186   6.240 -0.2716 -2.4770 -0.3529
 1378SOL    HW2 5034   5.116   3.242   6.108 -1.7577 -1.9067  0.7283
 1379SOL     OW 5035   5.862   1.387   2.567 -0.8033 -0.3221 -0.5741
 1379SOL    HW1 5036   5.947   1.354   2.610 -0.5154  1.7336  0.5928
 1379SOL    HW2 5037   5.842   1.332   2.486 -0.0937 -2.9044  0.8832
 1380SOL     OW 5038   5.108   5.693   0.420 -0.0606  0.4761  0.3261
 1380SOL    HW1 5039   5.021   5.648   0.440  0.4284 -0.7101 -0.1421
 1380SOL    HW2 5040   5.100   5.743   0.333 -0.2335  0.2656  0.2187
 1381SOL     OW 5041   4.876   4.047   2.101  0.4295  0.1854 -0.0691
 1381SOL    HW1 5042   4.829   4.010   2.181  0.7382  1.8355  0.9328
 1381SOL    HW2 5043   4.866   3.984   2.024 -2.0208 -0.2904  0.5563
 1382SOL     OW 5044   1.379   0.817   3.134 -0.3650 -0.2185  0.2969
 1382SOL    HW1 5045   1.320   0.888   3.096 -0.1768 -0.1141  0.1977
 1382SOL    HW2 5046   1.381   0.824   3.233  0.3103  0.4358  0.2397
 1383SOL     OW 5047   6.937   0.184   4.010  0.1163 -0.0955  0.1519
 1383SOL    HW1 5048   7.012   0.142   4.061  0.1065  1.0998  1.1875
 1383SOL    HW2 5049   6.970   0.215   3.921  0.4832 -0.9067  0.0033
 1384SOL     OW 5050   3.323   1.645   4.144  0.5743  0.0234 -0.3230
 1384SOL    HW1 5051   3.259   1.675   4.214 -2.2256 -1.4879 -2.0742
 1384SOL    HW2 5052   3.304   1.692   4.058  1.1115 -1.2422 -1.1612
 1385SOL     OW 5053   1.647   2.387   6.827  0.3018 -0.3155 -0.4782
 1385SOL    HW1 5054   1.574   2.429   6.772 -0.6106  1.0453  1.6606
 1385SOL    HW2 5055   1.729   2.378   6.771 -0.6965  0.5815 -2.1806
 1386SOL     OW 5056   2.008   1.225   6.811  0.4992  0.7148  0.2966
 1386SOL    HW1 5057   2.045   1.294   6.749 -1.7952 -0.8386 -3.1150
 1386SOL    HW2 5058   2.071   1.148   6.816  1.4655  1.5374  1.3331
 1387SOL     OW 5059   0.886   6.196   3.679 -0.4918  0.4825  0.3460
 1387SOL    HW1 5060   0.928   6.126   3.738 -0.3440 -0.2315 -0.5730
 1387SOL    HW2 5061   0.822   6.152   3.616 -1.3563  1.3557  0.5956
 1388SOL     OW 5062   4.939   1.302   6.492  0.7362  0.0379 -0.0500
 1388SOL    HW1 5063   4.989   1.250   6.422  0.5408  1.1300 -1.0334
 1388SOL    HW2 5064   4.965   1.269   6.583  2.3674 -0.2146 -0.5733
 1389SOL     OW 5065   6.832   5.761   5.496  0.5041  0.3807  0.3822
 1389SOL    HW1 5066   6.808   5.667   5.473  0.4426  0.1398  1.4100
 1389SOL    HW2 5067   6.826   5.818   5.414  1.0178 -0.6017 -0.3500
 1390SOL     OW 5068   1.061   5.788   1.476 -0.1562 -0.7986  0.4711
 1390SOL    HW1 5069   1.118   5.802   1.394  0.7049  0.7740  1.2945
 1390SOL    HW2 5070   1.045   5.690   1.488  2.1934 -1.3086  0.0479
 1391SOL     OW 5071   4.064   4.808   1.473  0.4384  0.3407  0.2398
 1391SOL    HW1 5072   3.967   4.806   1.496  0.3952 -0.3120  0.0168
 1391SOL    HW2 5073   4.077   4.857   1.387  0.2698  0.0992  0.0780
 1392SOL     OW 5074   4.428   4.651   4.552 -0.0191  0.1053 -0.2439
 1392SOL    HW1 5075   4.469   4.684   4.467  0.5700  0.1603  0.0535
 1392SOL    HW2 5076   4.473   4.566   4.580  0.1748  0.3829  0.3028
 1393SOL     OW 5077   1.995   2.204   2.914 -0.0518 -0.3169  0.0979
 1393SOL    HW1 5078   2.093   2.217   2.899  0.2186 -0.6079  1.4437
 1393SOL    HW2 5079   1.968   2.247   3.000 -0.9469 -0.9113  0.1364
 1394SOL     OW 5080   1.967   0.001   6.692 -0.4634  0.3066 -0.2656
 1394SOL    HW1 5081   1.883  -0.038   6.730  0.9035 -0.8133  1.7682
 1394SOL    HW2 5082   1.990  -0.047   6.607 -1.0351 -0.4671  0.0064
 1395SOL     OW 5083   5.934   4.696   0.711  0.3811  0.2804 -0.1589
 1395SOL    HW1 5084   5.899   4.746   0.790  2.1595 -0.1695  0.9826
 1395SOL    HW2 5085   5.917   4.598   0.724  0.8487  0.1877 -0.2126
 1396SOL     OW 5086   4.135   5.786   2.710  0.1791 -0.3372 -0.2718
 1396SOL    HW1 5087   4.225   5.794   2.752 -0.5303  1.3008  1.0876
 1396SOL    HW2 5088   4.087   5.874   2.717 -1.9959 -1.4828  0.1601
 1397SOL     OW 5089   1.632   2.546   4.616 -0.1628 -0.0638 -0.2500
 1397SOL    HW1 5090   1.633   2.577   4.521 -0.7801 -0.7745 -0.4947
 1397SOL    HW2 5091   1.619   2.447   4.619 -0.5632  0.0024  0.5924
 1398SOL     OW 5092   3.580   2.050   5.634 -0.0851  0.0566  0.5159
 1398SOL    HW1 5093   3.514   2.125   5.625  0.9926  0.8449 -1.1464
 1398SOL    HW2 5094   3.612   2.022   5.544  2.0812 -0.0925  1.2770
 1399SOL     OW 5095   3.908   6.850   6.364 -0.4573 -0.1007 -0.0708
 1399SOL    HW1 5096   3.986   6.912   6.371  1.5000 -2.4707  0.3266
 1399SOL    HW2 5097   3.930   6.775   6.301 -1.4497 -2.0943  1.8093
 1400SOL     OW 5098   2.231   2.759   0.833 -0.1891 -0.2603  0.3383
 1400SOL    HW1 5099   2.308   2.726   0.888 -1.5648 -0.0870  2.4822
 1400SOL    HW2 5100   2.236   2.859   0.825  0.0138 -0.2862  0.1134
 1401SOL     OW 5101   6.178   5.803   5.729  0.4718  0.0823 -0.3051
 1401SOL    HW1 5102   6.207   5.898   5.718  0.3800  0.2227  0.6005
 1401SOL    HW2 5103   6.224   5.763   5.809 -0.0902 -0.3938 -0.2139
 1402SOL     OW 5104   2.627   3.702   0.340 -0.6788 -0.1394  0.0360
 1402SOL    HW1 5105   2.712   3.732   0.295 -0.1067  2.0755  2.3676
 1402SOL    HW2 5106   2.614   3.605   0.324  2.7659 -0.7706  0.2363
 1403SOL     OW 5107   1.844   1.955   4.553 -0.1814  0.4293  0.2010
 1403SOL    HW1 5108   1.855   1.860   4.525 -0.7464  1.0566 -2.4168
 1403SOL    HW2 5109   1.747   1.976   4.561 -0.1041  1.0776 -0.4624
 1404SOL     OW 5110   5.232   4.733   6.557 -0.2005 -0.0683 -0.4925
 1404SOL    HW1 5111   5.146   4.780   6.540  0.0822  1.7701  2.4748
 1404SOL    HW2 5112   5.213   4.640   6.591 -1.1763  0.8942  1.7832
 1405SOL     OW 5113   2.252   4.805   2.188 -0.8476  0.3257 -0.1030
 1405SOL    HW1 5114   2.329   4.794   2.125  0.1001 -1.5254  1.2691
 1405SOL    HW2 5115   2.268   4.882   2.248  1.7242 -1.9706  2.4110
 1406SOL     OW 5116   2.776   2.463   0.257  0.0870  0.8534  0.4377
 1406SOL    HW1 5117   2.871   2.492   0.247  1.1026 -2.4908 -0.9237
 1406SOL    HW2 5118   2.724   2.489   0.176  0.1938  1.3811  0.5321
 1407SOL     OW 5119   2.471   4.926   0.369  0.8612  0.0371 -0.2758
 1407SOL    HW1 5120   2.406   4.898   0.298 -0.7978  0.9255  0.8285
 1407SOL    HW2 5121   2.507   4.844   0.415 -0.3499 -0.4443 -0.1563
 1408SOL     OW 5122   5.738   6.633   6.763  0.1901  0.6344  0.1546
 1408SOL    HW1 5123   5.813   6.573   6.791  0.3891  1.1374  0.7361
 1408SOL    HW2 5124   5.768   6.689   6.686  0.0298  0.0508 -0.3388
 1409SOL     OW 5125   0.348   4.813   4.852  0.6661 -0.0965 -0.0939
 1409SOL    HW1 5126   0.295   4.750   4.909  0.4272  1.7075  1.8015
 1409SOL    HW2 5127   0.403   4.761   4.786 -2.2558 -2.1326 -1.1491
 1410SOL     OW 5128   5.904   4.581   5.560  0.3308 -0.1855  0.1852
 1410SOL    HW1 5129   5.855   4.548   5.480  0.0469 -1.3845  0.8338
 1410SOL    HW2 5130   5.961   4.659   5.534 -0.7137  0.2490 -0.9015
 1411SOL     OW 5131   2.756   5.835   3.423  0.4960 -0.5339 -0.0340
 1411SOL    HW1 5132   2.763   5.739   3.394  1.7005 -0.4288 -0.1427
 1411SOL    HW2 5133   2.841   5.883   3.401 -0.7363  1.0516 -1.6634
 1412SOL     OW 5134   1.937   2.729   4.521  0.2629 -0.2224  0.3512
 1412SOL    HW1 5135   1.913   2.713   4.617  0.8134  2.7190  1.0712
 1412SOL    HW2 5136   2.031   2.699   4.505  0.3010 -0.3733  0.8417
 1413SOL     OW 5137   6.888   0.843   5.204  0.2856  0.1792 -0.0087
 1413SOL    HW1 5138   6.841   0.776   5.263 -0.0828 -0.5511 -1.0989
 1413SOL    HW2 5139   6.966   0.881   5.253  0.9501 -1.5988  0.3859
 1414SOL     OW 5140   5.223   6.779   6.412 -0.4250 -0.3524  0.5852
 1414SOL    HW1 5141   5.254   6.826   6.329  0.6996 -0.5982  0.8518
 1414SOL    HW2 5142   5.131   6.743   6.398 -1.3826  1.9873  0.3935
 1415SOL     OW 5143   4.396   6.255   1.239 -0.2281 -0.2966  0.4555
 1415SOL    HW1 5144   4.345   6.185   1.290  1.4311 -0.4646  1.9611
 1415SOL    HW2 5145   4.466   6.210   1.183 -1.3121 -0.0303 -1.1732
 1416SOL     OW 5146   3.228   4.728   5.554 -0.0945 -0.1549 -0.4614
 1416SOL    HW1 5147   3.289   4.766   5.624  1.2297 -3.6988  0.5341
 1416SOL    HW2 5148   3.146   4.784   5.548  1.0679  1.9974  1.7371
 1417SOL     OW 5149   6.616   0.391   2.897  0.3426 -0.2286 -0.0388
 1417SOL    HW1 5150   6.533   0.342   2.923 -1.3024  2.5437  0.3741
 1417SOL    HW2 5151   6.621   0.399   2.797 -0.6313  0.7156 -0.0258
 1418SOL     OW 5152   2.051   0.329   1.429 -0.6361 -0.1707 -0.1509
 1418SOL    HW1 5153   2.034   0.254   1.364  1.0830 -0.5086 -0.2500
 1418SOL    HW2 5154   2.123   0.302   1.493  0.3754  1.5809 -0.5019
 1419SOL     OW 5155   1.879   1.171   1.301  0.0582 -0.6261  0.5969
 1419SOL    HW1 5156   1.936   1.253   1.293 -0.7294 -0.2241 -1.9231
 1419SOL    HW2 5157   1.795   1.194   1.351 -0.7147  0.5102 -1.1268
 1420SOL     OW 5158   1.352   0.129   5.371  0.0458 -0.1924 -0.4149
 1420SOL    HW1 5159   1.450   0.121   5.391 -0.2556  0.7202  1.6798
 1420SOL    HW2 5160   1.336   0.209   5.313  0.4284  0.2927  0.1466
 1421SOL     OW 5161   6.444   5.959   5.387  0.1495  0.4758 -0.2437
 1421SOL    HW1 5162   6.465   5.924   5.478  2.4477  0.0827 -0.8732
 1421SOL    HW2 5163   6.508   5.921   5.320 -0.8147  1.5725 -1.8801
 1422SOL     OW 5164   1.326   5.018   1.734 -0.2290 -0.0881 -0.5226
 1422SOL    HW1 5165   1.314   5.107   1.778 -1.2445  0.2637 -1.4694
 1422SOL    HW2 5166   1.398   4.967   1.781 -0.2873  0.8491  0.6209
 1423SOL     OW 5167   6.448   5.880   4.980 -0.8210  0.5766  0.1732
 1423SOL    HW1 5168   6.422   5.856   4.886 -0.9552  0.0200  0.3471
 1423SOL    HW2 5169   6.491   5.801   5.023  1.3413  1.5119 -0.1532
 1424SOL     OW 5170   1.566   3.347   4.205  0.2615 -0.6327 -0.5604
 1424SOL    HW1 5171   1.527   3.439   4.207  0.8775 -0.3756 -0.1169
 1424SOL    HW2 5172   1.644   3.342   4.267 -0.2524 -1.6827  0.0305
 1425SOL     OW 5173   3.050   5.787   1.810  0.2130 -0.4596  0.4434
 1425SOL    HW1 5174   3.138   5.833   1.796 -0.9066  1.0218 -2.6389
 1425SOL    HW2 5175   3.049   5.701   1.759 -0.4074 -0.0298 -0.2883
 1426SOL     OW 5176   3.188   4.097   6.420 -0.2644 -0.1172  0.0580
 1426SOL    HW1 5177   3.174   4.195   6.428  0.2748 -0.0960  0.9215
 1426SOL    HW2 5178   3.182   4.055   6.510 -0.4601 -0.8761 -0.2981
 1427SOL     OW 5179   2.833   0.954   4.522 -0.6895  0.5499 -0.2637
 1427SOL    HW1 5180   2.892   1.032   4.545 -0.1403 -0.8421  3.8016
 1427SOL    HW2 5181   2.742   0.970   4.559 -0.7825 -0.3737 -0.0673
 1428SOL     OW 5182   1.573   1.004   3.427  0.2589 -0.5314 -0.3262
 1428SOL    HW1 5183   1.561   0.911   3.391 -0.9037 -0.6769  0.3737
 1428SOL    HW2 5184   1.489   1.056   3.412  0.0250 -0.3490  1.3964
 1429SOL     OW 5185   4.085   1.950   2.545  0.1704 -0.3326  0.7473
 1429SOL    HW1 5186   4.127   1.909   2.464  0.0583 -0.6237  0.8391
 1429SOL    HW2 5187   4.118   2.044   2.555  0.0201 -0.2212  0.2385
 1430SOL     OW 5188   1.149   3.974   5.997 -0.0848 -0.4080 -0.3157
 1430SOL    HW1 5189   1.222   3.957   6.064 -1.9329 -0.2879  1.8332
 1430SOL    HW2 5190   1.190   3.996   5.908  2.4664 -1.9286  0.3772
 1431SOL     OW 5191   5.370   2.413   4.352  0.1933 -0.2235  0.0357
 1431SOL    HW1 5192   5.436   2.422   4.427  1.8178  0.7659 -1.4338
 1431SOL    HW2 5193   5.340   2.504   4.323 -2.0172 -0.6465  0.7626
 1432SOL     OW 5194   2.099   0.514   3.384 -0.3789 -0.1390 -1.0481
 1432SOL    HW1 5195   2.084   0.482   3.477 -1.7540 -3.4230 -2.2363
 1432SOL    HW2 5196   2.193   0.495   3.357  0.1575  1.2416 -0.2470
 1433SOL     OW 5197   2.100   3.711   2.469  0.5503 -0.2087 -0.2660
 1433SOL    HW1 5198   2.127   3.787   2.410  0.8483 -0.3947 -0.3709
 1433SOL    HW2 5199   2.107   3.739   2.565  1.4450 -0.3530 -0.2790
 1434SOL     OW 5200   3.045   2.370   6.348  0.2907  0.1282 -0.1791
 1434SOL    HW1 5201   3.051   2.448   6.411 -0.9314 -0.2611  0.4543
 1434SOL    HW2 5202   2.985   2.300   6.387  0.0854 -0.4353 -1.4532
 1435SOL     OW 5203   4.642   1.198   0.495 -0.3142 -0.2340 -0.5540
 1435SOL    HW1 5204   4.710   1.125   0.488 -1.7516 -1.7216  0.1054
 1435SOL    HW2 5205   4.550   1.157   0.494 -1.1492  1.3064  2.3102
 1436SOL     OW 5206   2.176   3.113   6.403 -0.1186  0.2343 -0.0434
 1436SOL    HW1 5207   2.103   3.047   6.419  0.0892 -0.1545 -0.6592
 1436SOL    HW2 5208   2.241   3.110   6.479 -0.7894  0.6639  0.5662
 1437SOL     OW 5209   0.643   6.582   4.978  0.6356 -0.2456 -0.3233
 1437SOL    HW1 5210   0.621   6.553   4.885  1.4925 -1.8864 -0.0500
 1437SOL    HW2 5211   0.572   6.551   5.041  1.6188 -1.9956 -0.0115
 1438SOL     OW 5212   3.504   3.769   2.597  0.9583 -0.6601  0.3386
 1438SOL    HW1 5213   3.443   3.690   2.609 -1.1038  0.4825 -1.6989
 1438SOL    HW2 5214   3.464   3.848   2.644  0.8203  0.1025 -1.0147
 1439SOL     OW 5215   3.780   0.867   3.729  0.0742  0.4605 -0.4928
 1439SOL    HW1 5216   3.846   0.841   3.800 -0.6090  1.4509  0.5328
 1439SOL    HW2 5217   3.687   0.853   3.763 -0.2859  2.4093 -0.5916
 1440SOL     OW 5218   4.968   3.947   1.471 -0.3848 -0.1967  0.0059
 1440SOL    HW1 5219   5.053   3.995   1.490 -0.0452 -0.9692  0.5155
 1440SOL    HW2 5220   4.922   3.989   1.393  0.8975 -0.3040 -0.8357
 1441SOL     OW 5221   5.240   2.639   4.250  0.7594 -0.2176 -0.1968
 1441SOL    HW1 5222   5.148   2.642   4.288  1.0595  2.6579  0.5750
 1441SOL    HW2 5223   5.235   2.632   4.150 -0.3002 -0.2532 -0.1479
 1442SOL     OW 5224   2.323   1.313   1.362 -0.3168 -0.1058  0.3924
 1442SOL    HW1 5225   2.365   1.391   1.316 -0.7523 -0.4203 -0.5644
 1442SOL    HW2 5226   2.275   1.257   1.295  0.9260 -1.8112  0.8547
 1443SOL     OW 5227   1.785   0.767   2.875 -0.2695 -0.0467 -0.0059
 1443SOL    HW1 5228   1.829   0.706   2.808 -0.8813 -0.6815  0.1515
 1443SOL    HW2 5229   1.788   0.724   2.965  1.0229  1.0440  0.4961
 1444SOL     OW 5230   5.978   1.835   0.308 -0.1244 -0.4495  0.3698
 1444SOL    HW1 5231   6.031   1.764   0.356  1.0500 -0.2592 -0.5936
 1444SOL    HW2 5232   6.008   1.925   0.338  2.2074 -0.2522 -2.1830
 1445SOL     OW 5233   6.450   1.767   5.782  0.0813  0.3927  0.0524
 1445SOL    HW1 5234   6.385   1.725   5.719  0.6424 -2.1034  1.0222
 1445SOL    HW2 5235   6.407   1.776   5.872  0.3577  0.8105  0.1424
 1446SOL     OW 5236   3.889   5.758   1.648  0.1346  0.4143 -0.3162
 1446SOL    HW1 5237   3.918   5.737   1.741  0.8442 -1.4196 -0.9156
 1446SOL    HW2 5238   3.954   5.823   1.607  0.6022  0.1510  0.0031
 1447SOL     OW 5239   6.097   3.036   0.113  0.0501 -0.0778 -0.1133
 1447SOL    HW1 5240   6.042   3.070   0.037 -0.0088 -2.2808 -1.1452
 1447SOL    HW2 5241   6.037   3.006   0.186  0.0291  0.4103  0.0717
 1448SOL     OW 5242   1.266   5.032   3.001 -0.0285 -0.0792 -0.5079
 1448SOL    HW1 5243   1.320   5.018   3.084 -0.1593 -2.5895 -0.7835
 1448SOL    HW2 5244   1.174   5.062   3.026  0.7798  2.1515  0.0532
 1449SOL     OW 5245   5.113   3.363   5.787  0.0004 -0.6653 -0.0127
 1449SOL    HW1 5246   5.038   3.406   5.737  0.4440  0.8122  0.5237
 1449SOL    HW2 5247   5.199   3.407   5.762  0.3141 -0.3263  1.5331
 1450SOL     OW 5248   3.179   6.510   5.286 -0.0902  0.3553  0.2776
 1450SOL    HW1 5249   3.202   6.493   5.190 -1.8900 -1.9481  0.1616
 1450SOL    HW2 5250   3.121   6.592   5.292 -2.3369 -1.0166 -1.0810
 1451SOL     OW 5251   0.711   5.032   1.391  0.2233  0.6464  0.1089
 1451SOL    HW1 5252   0.806   5.007   1.411  0.8045  0.8801 -2.0654
 1451SOL    HW2 5253   0.710   5.117   1.338 -0.9625 -0.6898 -2.1991
 1452SOL     OW 5254   3.420   5.381   5.060  0.2719 -0.4217  0.4480
 1452SOL    HW1 5255   3.490   5.429   5.007  0.7949  0.7406  2.1163
 1452SOL    HW2 5256   3.332   5.426   5.048  0.5483  0.3431  1.1452
 1453SOL     OW 5257   2.936   3.821   4.244 -0.2953  0.0718 -0.1862
 1453SOL    HW1 5258   2.857   3.883   4.239 -1.6621 -1.6373 -0.8681
 1453SOL    HW2 5259   3.017   3.869   4.212 -1.3916  1.3943 -1.1234
 1454SOL     OW 5260   3.589   3.395   4.035  0.1800 -0.0972 -0.3298
 1454SOL    HW1 5261   3.528   3.326   3.997  0.5915  0.4570 -2.0813
 1454SOL    HW2 5262   3.682   3.358   4.040  0.3050  0.1364 -0.7992
 1455SOL     OW 5263   2.206   6.851   1.047 -0.4697  0.5117  0.0281
 1455SOL    HW1 5264   2.295   6.897   1.045  0.3073 -0.9681 -1.1384
 1455SOL    HW2 5265   2.201   6.792   1.128 -0.5538  0.8920  0.3027
 1456SOL     OW 5266   3.506   2.843   3.678 -0.1252 -0.2150  0.1320
 1456SOL    HW1 5267   3.432   2.910   3.679  0.4037  0.3695  0.0801
 1456SOL    HW2 5268   3.524   2.815   3.584  1.0119  1.0823 -0.0530
 1457SOL     OW 5269   2.701   1.063   6.541  0.0936 -0.3661  0.1158
 1457SOL    HW1 5270   2.743   1.151   6.563  1.5234 -1.2968  1.3605
 1457SOL    HW2 5271   2.689   1.010   6.625 -0.8624 -1.3199 -0.5968
 1458SOL     OW 5272   6.791   6.720   6.142  0.5950 -0.7157  0.3000
 1458SOL    HW1 5273   6.698   6.751   6.159  0.2998 -0.4648 -1.5254
 1458SOL    HW2 5274   6.855   6.773   6.197 -0.2009  0.5721  0.0217
 1459SOL     OW 5275   5.769   2.108   0.793 -0.1788  0.4399  0.5636
 1459SOL    HW1 5276   5.687   2.103   0.850  1.4609  1.4047  3.1458
 1459SOL    HW2 5277   5.842   2.053   0.834  1.3590  1.9596 -0.0476
 1460SOL     OW 5278   2.348   5.280   3.439 -0.1513  0.5434 -0.1943
 1460SOL    HW1 5279   2.427   5.334   3.469 -1.1699  2.2175 -0.4165
 1460SOL    HW2 5280   2.316   5.223   3.514 -0.5620  2.1062  0.8441
 1461SOL     OW 5281   2.625   0.941   0.685 -0.3728  0.4693  0.0535
 1461SOL    HW1 5282   2.660   0.932   0.778 -0.7078  0.4761  0.1817
 1461SOL    HW2 5283   2.525   0.934   0.686 -0.3641  0.2183 -0.3329
 1462SOL     OW 5284   6.652   1.444   3.988  0.2964 -0.6214 -0.2053
 1462SOL    HW1 5285   6.715   1.371   3.962  0.3384 -0.5945 -0.1798
 1462SOL    HW2 5286   6.695   1.533   3.969 -0.5650 -0.5890 -2.2420
 1463SOL     OW 5287   2.948   5.506   5.396 -0.3410 -0.1704  0.1824
 1463SOL    HW1 5288   2.880   5.442   5.433  1.4857 -0.1876  3.9707
 1463SOL    HW2 5289   3.034   5.458   5.381  0.1504  0.7510 -0.0173
 1464SOL     OW 5290   4.134   5.021   0.189  0.4240  0.5017  0.4107
 1464SOL    HW1 5291   4.180   4.963   0.122  1.4444  2.1760 -0.4303
 1464SOL    HW2 5292   4.080   5.090   0.141 -0.7550  0.2724  1.3704
 1465SOL     OW 5293   4.681   0.440   5.505  0.0840  0.0010 -0.1442
 1465SOL    HW1 5294   4.587   0.433   5.538  0.2471 -0.8331  0.1524
 1465SOL    HW2 5295   4.730   0.510   5.559 -0.2911  0.2644 -0.1416
 1466SOL     OW 5296   5.983   1.163   0.393 -0.1959  0.7737 -0.7161
 1466SOL    HW1 5297   5.888   1.196   0.395  0.1365  1.7623  1.7466
 1466SOL    HW2 5298   6.038   1.226   0.338 -0.3205  2.2406  0.7704
 1467SOL     OW 5299   3.668   4.853   0.022 -0.1946 -0.2687 -0.0435
 1467SOL    HW1 5300   3.665   4.767  -0.029 -1.4610 -0.3881  0.2003
 1467SOL    HW2 5301   3.575   4.883   0.042  0.2574  0.3876  1.1781
 1468SOL     OW 5302   2.142   3.948   4.562  0.2602 -0.5236  0.3554
 1468SOL    HW1 5303   2.130   3.850   4.573 -0.2239 -0.3347  1.7861
 1468SOL    HW2 5304   2.052   3.992   4.563  0.5300  0.0316  0.9811
 1469SOL     OW 5305   5.917   0.431   2.707 -0.9448 -0.1981 -0.3383
 1469SOL    HW1 5306   5.960   0.495   2.643 -0.4109  0.2115  0.4071
 1469SOL    HW2 5307   5.819   0.452   2.714 -1.0962 -0.5239 -1.3270
 1470SOL     OW 5308   5.102   5.830   0.177  0.1964 -0.0403  0.0642
 1470SOL    HW1 5309   5.157   5.773   0.116 -0.4613 -1.0152  0.3523
 1470SOL    HW2 5310   5.051   5.897   0.124 -2.5729 -2.6669 -0.8823
 1471SOL     OW 5311   4.028   6.056   2.733  0.3719  0.4123  0.2190
 1471SOL    HW1 5312   4.024   6.097   2.824  1.6297  1.2522 -0.0780
 1471SOL    HW2 5313   3.970   6.108   2.670 -2.0431 -1.2946  0.8983
 1472SOL     OW 5314   4.021   2.477   5.727 -0.3223  0.1896  0.2469
 1472SOL    HW1 5315   3.982   2.522   5.807  0.8936  0.2935  0.8020
 1472SOL    HW2 5316   4.050   2.546   5.661 -0.6964  0.1278  0.0163
 1473SOL     OW 5317   5.979   1.532   3.323 -0.0438  0.4431 -0.0950
 1473SOL    HW1 5318   6.023   1.621   3.316 -0.4583  0.7871  1.3186
 1473SOL    HW2 5319   6.010   1.473   3.248  2.1623  0.9428  0.3479
 1474SOL     OW 5320   0.487   5.394   0.045 -0.1478  0.2420 -0.4109
 1474SOL    HW1 5321   0.526   5.482   0.068 -0.6124  0.7517 -1.4919
 1474SOL    HW2 5322   0.401   5.381   0.095 -0.4074  0.6866 -0.7433
 1475SOL     OW 5323   0.704   3.944   5.777  0.5604  0.3182  0.7459
 1475SOL    HW1 5324   0.694   3.934   5.876  2.4435  1.5442  1.1119
 1475SOL    HW2 5325   0.739   3.859   5.738 -0.3398 -0.2203  1.0824
 1476SOL     OW 5326   0.359   3.524   4.565  0.0647  0.7913 -0.6843
 1476SOL    HW1 5327   0.327   3.609   4.605 -2.0708 -1.3479  2.6337
 1476SOL    HW2 5328   0.444   3.495   4.609 -0.1917  0.3520 -0.4651
 1477SOL     OW 5329   4.633   4.107   5.383 -0.1143 -0.4049  0.0790
 1477SOL    HW1 5330   4.584   4.083   5.467  2.1947  1.2933  2.0571
 1477SOL    HW2 5331   4.684   4.027   5.350 -3.0286 -1.8230 -1.2972
 1478SOL     OW 5332   6.790   6.223   0.240  0.3804  0.5657 -0.2223
 1478SOL    HW1 5333   6.730   6.154   0.281 -0.0158 -0.1341 -1.9241
 1478SOL    HW2 5334   6.883   6.188   0.236  0.0475 -0.2166 -1.7707
 1479SOL     OW 5335   6.063   4.661   5.019 -0.2752 -0.2744 -0.2476
 1479SOL    HW1 5336   6.078   4.759   5.024 -0.1558 -0.2853 -0.4074
 1479SOL    HW2 5337   6.114   4.622   4.942  0.1040 -0.5401  0.1339
 1480SOL     OW 5338   3.244   0.102   5.830  0.2978  0.5711 -0.1239
 1480SOL    HW1 5339   3.147   0.127   5.837  0.1810  0.4995 -1.3013
 1480SOL    HW2 5340   3.255   0.032   5.759  0.9695 -0.8128  1.2658
 1481SOL     OW 5341   2.174   5.518   5.300 -0.4014  0.0286  0.2131
 1481SOL    HW1 5342   2.099   5.463   5.266 -0.5342 -0.2659  0.9498
 1481SOL    HW2 5343   2.217   5.472   5.378  1.8850 -0.8153 -1.4395
 1482SOL     OW 5344   5.860   2.731   6.989 -0.5562  0.0011 -0.6107
 1482SOL    HW1 5345   5.907   2.657   6.940 -0.7201 -0.4382 -0.1116
 1482SOL    HW2 5346   5.779   2.758   6.938  0.0599  0.5570 -1.3278
 1483SOL     OW 5347   4.238   5.160   4.679  0.4923  0.3183 -0.1437
 1483SOL    HW1 5348   4.229   5.118   4.769 -1.3264  0.3153 -0.2826
 1483SOL    HW2 5349   4.154   5.146   4.627  1.1513  1.1319 -1.5025
 1484SOL     OW 5350   1.714   6.121   4.626 -0.6961  0.7864  0.0070
 1484SOL    HW1 5351   1.657   6.184   4.572 -0.0881  1.5696  0.2520
 1484SOL    HW2 5352   1.788   6.086   4.569 -0.5529  0.9427  0.0965
 1485SOL     OW 5353   3.592   4.569   6.638  0.4805 -0.3780 -0.3393
 1485SOL    HW1 5354   3.506   4.579   6.688 -1.1609  2.3840 -3.3551
 1485SOL    HW2 5355   3.575   4.525   6.550  2.4033 -0.7497 -0.5856
 1486SOL     OW 5356   1.444   0.056   6.001  0.6538  0.2681  0.3405
 1486SOL    HW1 5357   1.522   0.021   6.053  0.7328  0.2497  0.2102
 1486SOL    HW2 5358   1.458   0.153   5.983  0.5718  0.3004  0.4536
 1487SOL     OW 5359   5.480   6.062   4.728  0.3043 -0.5879 -0.7533
 1487SOL    HW1 5360   5.579   6.075   4.732  0.3246 -0.9616  0.5809
 1487SOL    HW2 5361   5.457   5.971   4.761 -0.3990 -1.0443 -2.4372
 1488SOL     OW 5362   0.177   4.599   4.607 -0.4824  0.1799 -0.5345
 1488SOL    HW1 5363   0.190   4.555   4.696  0.5422  0.2284 -0.6415
 1488SOL    HW2 5364   0.148   4.694   4.620  1.8414  0.8989 -0.1565
 1489SOL     OW 5365   3.014   1.318   2.692 -0.1193  0.9428  0.3539
 1489SOL    HW1 5366   2.930   1.319   2.637  0.6834 -0.2363 -0.9477
 1489SOL    HW2 5367   3.004   1.252   2.767 -0.2149  0.4870 -0.0545
 1490SOL     OW 5368   0.218   1.594   6.615 -0.2841 -0.0790 -0.1235
 1490SOL    HW1 5369   0.165   1.632   6.539  1.4326  1.9860 -0.3722
 1490SOL    HW2 5370   0.310   1.632   6.614 -0.2339  0.1571  3.1063
 1491SOL     OW 5371   0.314   2.843   6.578  0.0010  0.2739  0.4114
 1491SOL    HW1 5372   0.353   2.934   6.582 -0.7665  0.6773 -0.8967
 1491SOL    HW2 5373   0.315   2.809   6.484 -0.2860 -0.8182  0.7801
 1492SOL     OW 5374   7.000   2.983   1.079 -0.2847  0.3958  0.5703
 1492SOL    HW1 5375   6.982   2.906   1.140 -0.0092  1.0560  1.5100
 1492SOL    HW2 5376   6.939   2.978   1.001  0.6376 -1.5271 -0.1092
 1493SOL     OW 5377   2.979   0.584   6.510 -0.1008  0.5463 -0.2334
 1493SOL    HW1 5378   2.953   0.675   6.477 -0.5461  0.5760  0.1920
 1493SOL    HW2 5379   3.038   0.540   6.442 -2.7756 -0.3040 -2.1571
 1494SOL     OW 5380   1.203   5.813   3.458 -0.2378  0.0023  0.0497
 1494SOL    HW1 5381   1.164   5.722   3.468 -0.0574 -0.2161 -1.1386
 1494SOL    HW2 5382   1.133   5.876   3.426 -0.2770  0.2045  0.5314
 1495SOL     OW 5383   4.535   0.384   6.438 -0.1308  0.2956 -0.0540
 1495SOL    HW1 5384   4.573   0.292   6.450  0.9803  0.9092  1.3340
 1495SOL    HW2 5385   4.596   0.451   6.480 -1.0596  1.6554 -0.8209
 1496SOL     OW 5386   2.859   4.178   0.813 -0.0952 -0.4843 -0.4622
 1496SOL    HW1 5387   2.831   4.137   0.726 -0.0440 -1.7974  0.1286
 1496SOL    HW2 5388   2.783   4.232   0.850  0.0809  0.5785 -1.5975
 1497SOL     OW 5389   3.798   3.880   0.181  0.5502 -0.2866 -0.1390
 1497SOL    HW1 5390   3.776   3.789   0.215  0.4926 -0.0361  0.5056
 1497SOL    HW2 5391   3.803   3.944   0.258  0.5600  0.2602 -0.5911
 1498SOL     OW 5392   1.047   1.659   3.389 -0.1598  0.6468 -0.3593
 1498SOL    HW1 5393   1.006   1.568   3.397 -1.6945  1.2423 -0.9932
 1498SOL    HW2 5394   1.143   1.655   3.415 -0.6260 -0.8022  1.2929
 1499SOL     OW 5395   1.715   3.032   4.378  0.5095  0.2580 -0.1696
 1499SOL    HW1 5396   1.697   3.014   4.282 -1.0561 -0.0187  0.1408
 1499SOL    HW2 5397   1.695   3.128   4.398  3.6155  1.1060 -0.6812
 1500SOL     OW 5398   2.114   5.067   0.940  0.0263  0.2580 -0.2906
 1500SOL    HW1 5399   2.050   5.047   1.014  0.1965 -1.9483 -0.6655
 1500SOL    HW2 5400   2.192   5.118   0.976 -0.5364  0.3952  0.7711
 1501SOL     OW 5401   2.412   1.409   4.401  0.3022 -0.3693 -0.5167
 1501SOL    HW1 5402   2.393   1.440   4.495 -1.6250  0.6334 -1.1755
 1501SOL    HW2 5403   2.394   1.484   4.337  2.7799 -0.6560 -1.6376
 1502SOL     OW 5404   0.120   5.693   0.548 -0.3568 -0.9636 -0.2957
 1502SOL    HW1 5405   0.181   5.626   0.591  0.1706 -0.9266 -0.9693
 1502SOL    HW2 5406   0.085   5.656   0.462  0.1771 -0.2732 -0.8250
 1503SOL     OW 5407   0.892   3.566   3.822  0.3051  0.1905  0.0559
 1503SOL    HW1 5408   0.931   3.647   3.866 -2.2016  1.4147  0.1500
 1503SOL    HW2 5409   0.881   3.583   3.724  0.7758 -0.4848 -0.1261
 1504SOL     OW 5410   1.809   5.447   4.708 -0.0964  0.6466  0.4287
 1504SOL    HW1 5411   1.795   5.426   4.611  0.1724  1.3331  0.2338
 1504SOL    HW2 5412   1.792   5.544   4.724  2.4361  1.1387  0.5358
 1505SOL     OW 5413   1.574   5.492   1.868 -0.8863 -0.1991  0.2028
 1505SOL    HW1 5414   1.561   5.421   1.798 -0.9148  1.3726 -1.4517
 1505SOL    HW2 5415   1.668   5.489   1.902 -0.5998 -0.3863 -0.5952
 1506SOL     OW 5416   1.517   2.180   2.537 -0.3891 -0.9205  0.1935
 1506SOL    HW1 5417   1.605   2.135   2.523 -1.2110 -2.8020  0.6414
 1506SOL    HW2 5418   1.525   2.247   2.611  1.4772  1.6276 -2.1166
 1507SOL     OW 5419   1.942   1.606   1.454 -0.9291 -0.6590 -0.4573
 1507SOL    HW1 5420   1.972   1.528   1.400  0.8358  0.0023 -0.5085
 1507SOL    HW2 5421   1.964   1.691   1.406 -0.9232 -0.0956  0.5114
 1508SOL     OW 5422   5.116   3.146   0.781  0.2763  0.2971 -0.2006
 1508SOL    HW1 5423   5.134   3.147   0.880  2.7088  3.0500 -0.5197
 1508SOL    HW2 5424   5.022   3.177   0.764  0.1260  0.7086  1.2194
 1509SOL     OW 5425   6.754   2.262   0.791  0.6936 -0.8012 -0.1289
 1509SOL    HW1 5426   6.805   2.204   0.728  1.4016 -2.5976  2.0103
 1509SOL    HW2 5427   6.773   2.235   0.885 -1.0231  1.2087  0.8735
 1510SOL     OW 5428   6.279   6.045   3.116 -0.3069 -0.6283 -0.1461
 1510SOL    HW1 5429   6.228   6.095   3.047  0.5367 -0.2754 -0.5293
 1510SOL    HW2 5430   6.305   5.955   3.081  0.3465 -0.3477 -0.3923
 1511SOL     OW 5431   0.785   3.152   5.998  0.2744 -0.1471 -0.3272
 1511SOL    HW1 5432   0.848   3.099   6.054  0.4826 -0.7305 -1.0979
 1511SOL    HW2 5433   0.827   3.173   5.910  0.3466  1.6668  0.1010
 1512SOL     OW 5434   0.202   2.126   5.175 -0.0595 -0.2773  0.3342
 1512SOL    HW1 5435   0.162   2.037   5.152 -1.3435  0.6550 -1.2308
 1512SOL    HW2 5436   0.150   2.167   5.250 -0.0479 -0.4521  0.4373
 1513SOL     OW 5437   2.981   3.583   4.999 -0.3268  0.1748 -0.8326
 1513SOL    HW1 5438   2.922   3.510   5.034 -1.8517  1.1601 -1.2623
 1513SOL    HW2 5439   3.054   3.601   5.064 -0.1045 -1.4984 -0.5695
 1514SOL     OW 5440   6.100   5.532   0.732  0.4152  0.0130 -0.1159
 1514SOL    HW1 5441   6.161   5.570   0.802  1.2576 -0.5869 -0.5054
 1514SOL    HW2 5442   6.057   5.607   0.682  0.7734  0.4532  0.2275
 1515SOL     OW 5443   4.325   5.438   4.763  0.6634  0.2141  0.8252
 1515SOL    HW1 5444   4.377   5.435   4.849  1.4764  1.3286  0.4004
 1515SOL    HW2 5445   4.304   5.345   4.734  1.8086 -0.2413  1.3898
 1516SOL     OW 5446   2.990   5.420   0.767 -0.6664 -0.2389  0.1763
 1516SOL    HW1 5447   3.089   5.405   0.776 -0.6078 -0.5023 -0.7527
 1516SOL    HW2 5448   2.966   5.509   0.807 -0.1798 -0.4977  1.0684
 1517SOL     OW 5449   4.865   6.842   4.219 -0.2735  0.2161 -0.1333
 1517SOL    HW1 5450   4.876   6.742   4.221 -0.2294  0.2275  0.3095
 1517SOL    HW2 5451   4.946   6.883   4.178  0.5297  0.1756  1.3401
 1518SOL     OW 5452   1.413   0.397   6.552  0.8331  0.3130 -0.7290
 1518SOL    HW1 5453   1.411   0.398   6.452  1.6238 -1.7460 -0.7948
 1518SOL    HW2 5454   1.471   0.472   6.585 -0.1976  1.6127 -1.7423
 1519SOL     OW 5455   6.721   6.022   4.823  0.7581 -0.3161  0.8547
 1519SOL    HW1 5456   6.793   5.972   4.872  1.7999  0.1568 -0.1449
 1519SOL    HW2 5457   6.683   6.093   4.882  2.1387  0.3913  0.9242
 1520SOL     OW 5458   5.457   2.890   0.049  0.2824 -0.8774  0.5501
 1520SOL    HW1 5459   5.526   2.863  -0.019 -0.3997 -0.3426 -0.3735
 1520SOL    HW2 5460   5.489   2.970   0.100  0.9138 -1.4437  1.0661
 1521SOL     OW 5461   1.862   2.055   6.751  0.4375 -0.1557  0.2872
 1521SOL    HW1 5462   1.768   2.024   6.769  0.5263  0.3826  1.7530
 1521SOL    HW2 5463   1.862   2.153   6.731  0.6060 -0.3249 -0.6096
 1522SOL     OW 5464   6.338   4.902   5.343  0.3386 -0.3324 -0.0916
 1522SOL    HW1 5465   6.381   4.923   5.431  2.1316 -1.7996 -0.5488
 1522SOL    HW2 5466   6.383   4.954   5.271 -2.1131  2.0348 -0.0756
 1523SOL     OW 5467   5.733   1.648   0.717 -0.1160  0.8348  0.6159
 1523SOL    HW1 5468   5.771   1.564   0.757 -0.6333  0.4930  0.4016
 1523SOL    HW2 5469   5.716   1.714   0.790  1.0404  1.0684  0.7011
 1524SOL     OW 5470   0.139   3.291   5.205  0.0924 -0.6279  0.2495
 1524SOL    HW1 5471   0.143   3.191   5.196 -0.2757 -0.7270  1.0951
 1524SOL    HW2 5472   0.231   3.329   5.191 -0.0049 -0.9460 -1.4333
 1525SOL     OW 5473   3.319   4.287   0.649 -0.6846  0.4773  0.3675
 1525SOL    HW1 5474   3.412   4.266   0.677 -0.3992  1.1953 -0.0393
 1525SOL    HW2 5475   3.273   4.340   0.721 -0.1337  1.8333 -0.2534
 1526SOL     OW 5476   2.678   1.294   0.128 -0.3261  0.1163  0.0580
 1526SOL    HW1 5477   2.624   1.215   0.098 -2.3888  1.7566 -0.7886
 1526SOL    HW2 5478   2.775   1.270   0.129 -0.7569 -1.9555 -1.6360
 1527SOL     OW 5479   3.477   0.297   2.216  0.4929 -0.4509 -0.1196
 1527SOL    HW1 5480   3.444   0.240   2.291  0.0644 -0.7967 -0.5645
 1527SOL    HW2 5481   3.569   0.267   2.190  2.2507  1.9413  2.6206
 1528SOL     OW 5482   5.092   0.018   2.827  0.0981 -0.5694 -0.1163
 1528SOL    HW1 5483   5.160   0.059   2.888 -1.1814 -0.9765  1.6844
 1528SOL    HW2 5484   5.055   0.088   2.766  1.8864 -0.2883 -0.9393
 1529SOL     OW 5485   0.058   1.066   4.544 -0.4431 -0.3703  0.2529
 1529SOL    HW1 5486  -0.019   1.060   4.608  0.0105  2.0459  1.1505
 1529SOL    HW2 5487   0.144   1.066   4.595  0.1883 -2.4238 -0.6977
 1530SOL     OW 5488   4.151   5.159   5.767  0.2969 -0.1661  0.0201
 1530SOL    HW1 5489   4.121   5.074   5.811 -0.5094  0.8493  1.4992
 1530SOL    HW2 5490   4.238   5.142   5.720  1.9328 -1.0577  3.0794
 1531SOL     OW 5491   6.531   1.048   5.736 -0.2853 -0.5307 -0.5457
 1531SOL    HW1 5492   6.552   1.139   5.703 -0.8270 -0.0559  0.3717
 1531SOL    HW2 5493   6.432   1.032   5.729 -0.4531 -0.3292  1.0048
 1532SOL     OW 5494   4.382   4.183   5.931 -0.0857 -0.2255 -0.1691
 1532SOL    HW1 5495   4.427   4.103   5.970  0.2895 -0.5310 -1.2018
 1532SOL    HW2 5496   4.301   4.206   5.985  1.5809  0.6985  2.0928
 1533SOL     OW 5497   4.694   4.991   6.443 -0.0910 -0.0220  0.5601
 1533SOL    HW1 5498   4.628   4.991   6.367  0.5290  0.2080  0.0087
 1533SOL    HW2 5499   4.772   5.049   6.419 -0.9836  2.0806  2.3644
 1534SOL     OW 5500   3.638   2.210   1.292 -0.0865  0.2269 -0.1405
 1534SOL    HW1 5501   3.600   2.289   1.342  0.0081  0.8418 -1.0145
 1534SOL    HW2 5502   3.592   2.127   1.322  0.8447  0.3861  1.8963
 1535SOL     OW 5503   5.795   1.370   0.464  0.1642 -0.1366  0.2825
 1535SOL    HW1 5504   5.880   1.422   0.477 -0.3472  1.0481 -0.9104
 1535SOL    HW2 5505   5.720   1.417   0.511  0.3487 -1.8937  2.4977
 1536SOL     OW 5506   1.237   6.562   1.392 -0.7401 -0.1138  0.5029
 1536SOL    HW1 5507   1.292   6.482   1.370  0.4082  1.0671 -1.1688
 1536SOL    HW2 5508   1.290   6.645   1.373 -2.8546  1.0751 -0.5792
 1537SOL     OW 5509   1.513   5.743   1.787  0.4591  0.0050 -0.3952
 1537SOL    HW1 5510   1.472   5.751   1.697  0.3411  0.7081 -0.2843
 1537SOL    HW2 5511   1.514   5.647   1.815 -1.5570  0.0002 -0.1982
 1538SOL     OW 5512   0.904   0.571   4.891  0.1899 -0.0776  0.6153
 1538SOL    HW1 5513   0.979   0.595   4.953  0.1155  1.0516  0.2942
 1538SOL    HW2 5514   0.907   0.473   4.872  1.2657 -0.1434  1.0286
 1539SOL     OW 5515   6.628   2.846   5.118  0.1447  0.6979 -0.3709
 1539SOL    HW1 5516   6.716   2.890   5.139  1.2215 -1.0095 -1.0967
 1539SOL    HW2 5517   6.559   2.877   5.183  1.0297  2.7825 -0.3312
 1540SOL     OW 5518   0.882   1.433   5.728  0.0816  0.0672 -0.0968
 1540SOL    HW1 5519   0.935   1.362   5.774  0.7690  0.0413 -0.9170
 1540SOL    HW2 5520   0.785   1.407   5.727  0.1781 -0.3304  0.5761
 1541SOL     OW 5521   5.489   0.606   1.774  0.1300  0.0304 -0.2368
 1541SOL    HW1 5522   5.571   0.657   1.798 -0.7650  1.9978 -1.0887
 1541SOL    HW2 5523   5.423   0.612   1.849 -0.5507  1.4915 -0.9051
 1542SOL     OW 5524   5.162   0.175   2.037 -0.1476  0.2525 -0.2714
 1542SOL    HW1 5525   5.157   0.098   1.972 -0.3415 -0.7035  0.8331
 1542SOL    HW2 5526   5.256   0.185   2.070 -0.3397 -0.2839  0.4640
 1543SOL     OW 5527   2.052   3.724   1.288 -0.0307 -0.2463  0.1814
 1543SOL    HW1 5528   2.138   3.708   1.238 -0.7109 -1.8829 -0.5516
 1543SOL    HW2 5529   2.071   3.776   1.371  1.4058  0.9630 -0.8390
 1544SOL     OW 5530   4.417   3.266   6.537  0.3945 -0.6524 -0.6321
 1544SOL    HW1 5531   4.457   3.255   6.628 -0.4670 -1.3921 -0.3274
 1544SOL    HW2 5532   4.317   3.258   6.543  0.2846 -0.1570 -1.5645
 1545SOL     OW 5533   6.796   2.472   2.658  0.4238  0.7150 -0.1527
 1545SOL    HW1 5534   6.740   2.462   2.741  0.4451 -2.7759 -0.4036
 1545SOL    HW2 5535   6.737   2.502   2.583 -1.0767 -2.0914 -0.2217
 1546SOL     OW 5536   2.025   4.435   0.891  0.2781  0.0668  0.0299
 1546SOL    HW1 5537   2.055   4.530   0.885  0.8680 -0.0272  1.1714
 1546SOL    HW2 5538   1.942   4.423   0.837 -0.1185  1.3665  0.3070
 1547SOL     OW 5539   5.242   6.416   0.869 -0.0563  0.7092 -0.3436
 1547SOL    HW1 5540   5.263   6.514   0.875  0.0157  0.7736 -1.4870
 1547SOL    HW2 5541   5.143   6.404   0.860 -0.0991  0.6531  0.1813
 1548SOL     OW 5542   0.521   6.100   2.776 -0.4093 -0.7577 -0.1408
 1548SOL    HW1 5543   0.487   6.018   2.821 -0.7534  0.2390  1.5186
 1548SOL    HW2 5544   0.448   6.169   2.773  0.5756  0.3938  0.8689
 1549SOL     OW 5545   3.265   0.378   5.334  0.5043 -0.2865 -0.2717
 1549SOL    HW1 5546   3.180   0.336   5.364  0.3083  0.3458  0.0637
 1549SOL    HW2 5547   3.315   0.314   5.276 -0.2151 -0.6441 -0.5025
 1550SOL     OW 5548   4.009   2.877   5.649 -0.2322  0.0988  0.4185
 1550SOL    HW1 5549   4.071   2.953   5.632 -0.5219  0.2943  0.2336
 1550SOL    HW2 5550   3.997   2.824   5.565 -1.8797  1.2250 -0.1016
 1551SOL     OW 5551   4.998   3.465   5.138  0.2909  0.0730  0.6533
 1551SOL    HW1 5552   5.086   3.508   5.159 -0.0699  0.7637  0.7899
 1551SOL    HW2 5553   4.933   3.535   5.109 -0.3310 -0.3795  0.9287
 1552SOL     OW 5554   0.938   5.956   5.230  0.7707 -0.1929  0.4814
 1552SOL    HW1 5555   0.920   6.012   5.149  0.7746  0.8458  1.1781
 1552SOL    HW2 5556   1.037   5.957   5.249  0.5544  1.2465  1.6572
 1553SOL     OW 5557   6.142   0.439   5.016 -0.1346 -0.0302  0.0991
 1553SOL    HW1 5558   6.115   0.343   5.002 -1.6270  0.5948 -1.6991
 1553SOL    HW2 5559   6.062   0.498   5.009  0.9186  1.4573  0.0594
 1554SOL     OW 5560   5.376   5.285   2.918 -0.0568 -0.0262 -0.1247
 1554SOL    HW1 5561   5.322   5.344   2.978  1.8048  0.0433  1.6234
 1554SOL    HW2 5562   5.451   5.338   2.879 -0.5081 -0.3975 -1.5251
 1555SOL     OW 5563   4.430   4.611   3.262 -0.2095  0.8944  0.1575
 1555SOL    HW1 5564   4.470   4.539   3.206 -0.0094  0.7936  0.4267
 1555SOL    HW2 5565   4.498   4.643   3.329 -0.5059  0.8806  0.4676
 1556SOL     OW 5566   1.849   5.460   3.655  0.3350 -0.0905 -0.2976
 1556SOL    HW1 5567   1.793   5.534   3.693 -0.8441 -1.2305  0.2755
 1556SOL    HW2 5568   1.894   5.492   3.572 -0.5613  1.1115 -0.3501
 1557SOL     OW 5569   6.593   2.806   2.804  0.1850  0.1760 -0.3281
 1557SOL    HW1 5570   6.655   2.884   2.792 -0.6367  1.0128  0.6855
 1557SOL    HW2 5571   6.521   2.810   2.734  0.1452  0.3191 -0.2779
 1558SOL     OW 5572   2.108   6.470   6.358 -0.3839 -0.3690  0.5231
 1558SOL    HW1 5573   2.179   6.491   6.290  0.6673 -1.3250  1.2812
 1558SOL    HW2 5574   2.086   6.552   6.410  1.0005 -0.2720  1.0071
 1559SOL     OW 5575   4.449   5.929   5.247 -0.1831 -0.1118 -0.1751
 1559SOL    HW1 5576   4.480   5.878   5.327 -2.2277  1.1019  1.5129
 1559SOL    HW2 5577   4.528   5.968   5.199  1.1008 -0.8598  1.2604
 1560SOL     OW 5578   3.241   5.691   5.439 -0.0482 -0.0069  0.1293
 1560SOL    HW1 5579   3.272   5.659   5.529 -0.8002  1.3505  0.9104
 1560SOL    HW2 5580   3.198   5.616   5.390  0.1370 -0.7119  1.0124
 1561SOL     OW 5581   6.553   1.322   5.963  0.3864  0.4308  0.4220
 1561SOL    HW1 5582   6.574   1.394   5.897  0.7284 -0.3419 -0.3195
 1561SOL    HW2 5583   6.538   1.236   5.915 -0.2094  0.0454  1.2905
 1562SOL     OW 5584   0.363   0.894   0.478 -0.2376  0.3654  0.0709
 1562SOL    HW1 5585   0.268   0.903   0.508 -0.7294  2.6800 -1.8773
 1562SOL    HW2 5586   0.422   0.951   0.536 -0.5863  1.6273 -0.7766
 1563SOL     OW 5587   4.197   4.140   5.685 -0.6047  0.0687  0.1570
 1563SOL    HW1 5588   4.118   4.122   5.627 -0.8386 -1.8538  0.9989
 1563SOL    HW2 5589   4.168   4.143   5.781  0.1728  0.5650  0.3923
 1564SOL     OW 5590   0.500   3.981   1.135  0.3727 -0.0437  0.2289
 1564SOL    HW1 5591   0.455   3.902   1.092  0.4103 -2.1014  3.6410
 1564SOL    HW2 5592   0.599   3.970   1.129  0.4864  1.5167 -2.1175
 1565SOL     OW 5593   3.360   0.602   5.420 -0.7320  0.1056  0.5312
 1565SOL    HW1 5594   3.323   0.515   5.388 -0.4959 -0.0801  0.7659
 1565SOL    HW2 5595   3.323   0.676   5.363  2.0107 -0.4584 -2.2619
 1566SOL     OW 5596   6.238   2.288   5.220 -1.3322  0.2543  0.6656
 1566SOL    HW1 5597   6.288   2.265   5.136  1.6040 -1.1257  2.6054
 1566SOL    HW2 5598   6.175   2.214   5.242  0.3159 -1.0286  1.3075
 1567SOL     OW 5599   4.131   5.819   0.506 -0.3097 -0.4494  0.6594
 1567SOL    HW1 5600   4.140   5.904   0.454  0.1422 -1.0164 -0.2375
 1567SOL    HW2 5601   4.037   5.809   0.538 -0.7085 -0.2537 -0.3955
 1568SOL     OW 5602   4.350   5.395   2.386 -0.2624  0.3586  0.8204
 1568SOL    HW1 5603   4.296   5.456   2.443  1.6451  1.8596  1.1476
 1568SOL    HW2 5604   4.431   5.364   2.437  0.1592 -0.3361 -0.2241
 1569SOL     OW 5605   4.633   0.839   0.716  0.1037 -0.5043  0.1110
 1569SOL    HW1 5606   4.676   0.893   0.788 -0.3395 -1.3731  1.0539
 1569SOL    HW2 5607   4.535   0.860   0.712  0.1927 -0.1942 -0.4861
 1570SOL     OW 5608   5.737   0.799   0.697 -0.1042 -0.3974  0.5800
 1570SOL    HW1 5609   5.716   0.896   0.711  4.2492  0.5207  2.5428
 1570SOL    HW2 5610   5.758   0.783   0.600  1.4302  1.2819  0.5772
 1571SOL     OW 5611   4.410   5.363   5.810  0.3039 -0.1516 -0.3130
 1571SOL    HW1 5612   4.391   5.440   5.871  0.1022  0.1705 -0.7775
 1571SOL    HW2 5613   4.474   5.392   5.739 -0.0225 -0.3182 -0.6790
 1572SOL     OW 5614   5.417   1.364   2.653  0.3443 -0.0738 -0.1711
 1572SOL    HW1 5615   5.416   1.264   2.658 -2.6241 -0.1215  0.0197
 1572SOL    HW2 5616   5.383   1.402   2.739 -0.2208  1.0311 -0.8576
 1573SOL     OW 5617   6.120   5.409   4.777  0.4739  0.8494 -0.1102
 1573SOL    HW1 5618   6.197   5.436   4.835 -0.7559  0.8674  1.6052
 1573SOL    HW2 5619   6.034   5.433   4.823 -0.5906 -0.8627 -1.1022
 1574SOL     OW 5620   1.605   1.049   5.662 -0.3320 -0.2285 -0.3132
 1574SOL    HW1 5621   1.636   1.113   5.591 -0.1323 -0.9419 -0.8799
 1574SOL    HW2 5622   1.527   1.088   5.710 -0.3068  0.3756 -0.7533
 1575SOL     OW 5623   3.347   1.583   1.288 -0.0184  0.8565  0.1435
 1575SOL    HW1 5624   3.386   1.612   1.375  0.0071 -0.2610  0.5216
 1575SOL    HW2 5625   3.408   1.518   1.244 -0.3509  0.9002 -0.3949
 1576SOL     OW 5626   4.076   4.134   0.635 -0.4566 -0.1826 -0.0824
 1576SOL    HW1 5627   4.105   4.170   0.724  2.2953 -0.1310 -0.9118
 1576SOL    HW2 5628   4.027   4.206   0.585 -1.3769  0.0235  1.0499
 1577SOL     OW 5629   4.761   2.226   6.763  0.0628  0.1485 -0.5559
 1577SOL    HW1 5630   4.850   2.251   6.725 -0.6620  2.5850 -0.8922
 1577SOL    HW2 5631   4.769   2.210   6.861  0.6652  1.9543 -0.2712
 1578SOL     OW 5632   5.282   4.210   0.130 -0.0750  0.4346 -0.1513
 1578SOL    HW1 5633   5.195   4.184   0.089 -1.3331  2.1504  1.2373
 1578SOL    HW2 5634   5.319   4.133   0.183 -1.4473  0.0736  0.3248
 1579SOL     OW 5635   5.141   2.234   4.502 -0.4226  0.1180  0.2874
 1579SOL    HW1 5636   5.183   2.245   4.412  0.3547 -0.0561  0.6208
 1579SOL    HW2 5637   5.069   2.303   4.514  2.1429  2.8895  1.0763
 1580SOL     OW 5638   1.053   3.300   6.101 -0.3980 -0.2951  0.1161
 1580SOL    HW1 5639   1.097   3.314   6.013 -0.8501 -0.4837 -0.1392
 1580SOL    HW2 5640   0.988   3.374   6.118 -0.0997 -0.1001  0.4249
 1581SOL     OW 5641   0.853   1.434   5.424  0.1262  0.2650  0.0566
 1581SOL    HW1 5642   0.764   1.425   5.380  0.0092  0.3425  0.2744
 1581SOL    HW2 5643   0.841   1.477   5.514  0.4688  0.9711 -0.2249
 1582SOL     OW 5644   3.153   3.543   1.672  0.1143 -0.1131 -0.5105
 1582SOL    HW1 5645   3.188   3.626   1.628  2.8807  0.0448  1.6857
 1582SOL    HW2 5646   3.212   3.466   1.648 -0.1065 -0.6113  0.5153
 1583SOL     OW 5647   3.747   1.722   3.715 -0.0368  0.4364 -0.0108
 1583SOL    HW1 5648   3.819   1.787   3.689 -0.2979  1.1388  0.9905
 1583SOL    HW2 5649   3.658   1.758   3.688  0.0155 -0.9604 -2.3279
 1584SOL     OW 5650   5.300   4.275   0.938  0.3189  0.0632  0.3156
 1584SOL    HW1 5651   5.217   4.292   0.990  0.9248  0.6205  1.1168
 1584SOL    HW2 5652   5.375   4.329   0.975  1.0662 -0.4872 -0.3480
 1585SOL     OW 5653   2.242   0.796   0.533 -0.2990 -0.0658 -0.4301
 1585SOL    HW1 5654   2.195   0.798   0.621 -2.3586  0.4820 -1.4576
 1585SOL    HW2 5655   2.283   0.885   0.515  1.4869 -0.6376  0.6102
 1586SOL     OW 5656   0.381   6.938   3.698 -0.2431 -0.0656 -0.2266
 1586SOL    HW1 5657   0.447   7.007   3.668 -0.3636 -0.2165 -0.8459
 1586SOL    HW2 5658   0.422   6.847   3.691 -0.2402 -0.0955  0.1585
 1587SOL     OW 5659   2.402   0.752   0.971  0.1355  0.5424  0.2199
 1587SOL    HW1 5660   2.388   0.676   0.909 -0.8426 -0.0798  1.1784
 1587SOL    HW2 5661   2.321   0.811   0.971 -0.3939 -0.1468  1.8124
 1588SOL     OW 5662   1.311   6.767   1.008 -0.1080  0.1408  0.2314
 1588SOL    HW1 5663   1.294   6.863   1.029 -1.4793 -0.2414  0.9842
 1588SOL    HW2 5664   1.394   6.737   1.055  0.4612  1.0090 -0.2044
 1589SOL     OW 5665   0.418   6.495   5.203  0.1127 -0.3474 -0.2317
 1589SOL    HW1 5666   0.351   6.465   5.136 -0.4849 -0.6494  0.4898
 1589SOL    HW2 5667   0.449   6.417   5.257 -1.5437  0.2923  1.7425
 1590SOL     OW 5668   3.316   6.809   0.093 -0.1997  0.0696 -0.1308
 1590SOL    HW1 5669   3.285   6.791  -0.000  2.7574 -0.8278 -1.0498
 1590SOL    HW2 5670   3.354   6.726   0.133  2.5922  1.3466  0.1439
 1591SOL     OW 5671   4.073   4.450   1.557 -0.1488 -0.1270 -0.1538
 1591SOL    HW1 5672   3.988   4.497   1.533 -0.3045  0.7193  1.8684
 1591SOL    HW2 5673   4.070   4.356   1.523 -1.7511 -0.0019 -0.4318
 1592SOL     OW 5674   1.053   4.729   3.883 -0.4914 -0.0458 -0.5504
 1592SOL    HW1 5675   0.983   4.779   3.831  0.7020  1.3473 -0.9013
 1592SOL    HW2 5676   1.105   4.794   3.938 -0.7143 -1.3162  1.2218
 1593SOL     OW 5677   0.848   0.206   1.242  0.3815  0.1661 -0.0605
 1593SOL    HW1 5678   0.850   0.163   1.332 -1.1814  1.4984  0.6573
 1593SOL    HW2 5679   0.859   0.305   1.252  2.2818  0.1460 -1.5365
 1594SOL     OW 5680   0.004   2.977   6.390 -0.1370 -0.2785 -0.0216
 1594SOL    HW1 5681  -0.077   3.001   6.336 -0.9028  0.0657  1.2263
 1594SOL    HW2 5682   0.079   3.039   6.367 -1.7108  2.7438  2.2809
 1595SOL     OW 5683   2.162   3.104   3.082  0.0059  0.4240 -0.6339
 1595SOL    HW1 5684   2.098   3.080   3.154  0.6880  0.0453 -0.1449
 1595SOL    HW2 5685   2.215   3.184   3.109  0.4404  0.1294 -0.6045
 1596SOL     OW 5686   3.929   5.188   4.187  0.1149 -0.0636 -0.6564
 1596SOL    HW1 5687   3.996   5.221   4.253 -0.2616 -0.4980 -0.0519
 1596SOL    HW2 5688   3.927   5.088   4.189 -0.4932 -0.0566 -0.7292
 1597SOL     OW 5689   4.317   3.895   0.790 -0.8225  0.1543  0.4270
 1597SOL    HW1 5690   4.348   3.987   0.766 -1.7201  0.3295 -0.0940
 1597SOL    HW2 5691   4.367   3.863   0.871  0.9644  0.2692 -0.5678
 1598SOL     OW 5692   2.928   2.634   1.029  0.2233 -1.0034 -0.0566
 1598SOL    HW1 5693   2.856   2.695   1.061  0.7596 -0.1717 -0.4076
 1598SOL    HW2 5694   3.008   2.688   1.001  0.0586 -1.7307 -2.0611
 1599SOL     OW 5695   3.585   6.377   2.047 -0.0956  0.2124  0.1572
 1599SOL    HW1 5696   3.564   6.304   1.983  0.0679 -0.8301  1.2383
 1599SOL    HW2 5697   3.629   6.453   1.999  0.2631 -0.6457 -0.9008
 1600SOL     OW 5698   0.158   2.065   2.408 -0.3494 -0.1285  0.2727
 1600SOL    HW1 5699   0.097   2.144   2.409 -1.0902 -0.6956  0.5687
 1600SOL    HW2 5700   0.242   2.088   2.458 -0.2598  0.6884 -0.2294
 1601SOL     OW 5701   0.624   5.609   0.321 -0.7672 -0.1530 -0.3583
 1601SOL    HW1 5702   0.688   5.630   0.247 -0.1153 -0.5289  0.0894
 1601SOL    HW2 5703   0.536   5.653   0.302 -0.5291 -0.0189 -1.2177
 1602SOL     OW 5704   4.503   5.657   1.376 -0.2467  0.3787 -0.0665
 1602SOL    HW1 5705   4.547   5.599   1.445  0.9503 -0.6164 -1.5850
 1602SOL    HW2 5706   4.413   5.684   1.408  0.9521  1.4886  2.6653
 1603SOL     OW 5707   2.241   6.855   3.555 -0.4284 -0.3782 -0.3056
 1603SOL    HW1 5708   2.295   6.778   3.590 -3.0468 -1.8673  0.7418
 1603SOL    HW2 5709   2.198   6.829   3.469 -1.9664 -0.4492  0.4457
 1604SOL     OW 5710   0.467   2.078   5.087  0.3905  0.1116  0.0599
 1604SOL    HW1 5711   0.373   2.107   5.107  0.1353 -0.3688 -0.4055
 1604SOL    HW2 5712   0.497   2.121   5.001  0.1514 -0.6688 -0.4266
 1605SOL     OW 5713   3.674   4.126   4.255 -0.5098  0.2405 -0.0852
 1605SOL    HW1 5714   3.653   4.126   4.157 -1.1768 -0.0576  0.0513
 1605SOL    HW2 5715   3.758   4.074   4.271  0.0151  0.9264 -0.5785
 1606SOL     OW 5716   3.401   0.457   0.150  0.1097 -0.1851  0.4412
 1606SOL    HW1 5717   3.446   0.377   0.188  0.0439  0.3276  1.6625
 1606SOL    HW2 5718   3.369   0.437   0.057 -1.9481 -2.3868  1.4936
 1607SOL     OW 5719   2.991   4.935   3.091 -0.0518 -0.3779 -0.2696
 1607SOL    HW1 5720   2.952   4.844   3.074 -0.4834 -0.0927 -0.8724
 1607SOL    HW2 5721   2.958   4.998   3.020  1.0477  0.0129 -0.4470
 1608SOL     OW 5722   2.985   5.712   6.944 -0.2079 -0.2168 -0.0372
 1608SOL    HW1 5723   3.028   5.782   6.887 -0.2076  0.5834  0.9176
 1608SOL    HW2 5724   3.055   5.662   6.995 -0.3690  1.4170  1.8959
 1609SOL     OW 5725   1.809   3.301   5.880  0.0552 -0.4236  0.0082
 1609SOL    HW1 5726   1.845   3.213   5.847  0.1469 -0.6656  0.7248
 1609SOL    HW2 5727   1.736   3.284   5.946 -0.5747  0.0569 -0.5492
 1610SOL     OW 5728   5.491   1.174   5.956 -0.5977 -0.7470 -0.4563
 1610SOL    HW1 5729   5.397   1.166   5.922 -0.6398 -0.3140 -0.4457
 1610SOL    HW2 5730   5.517   1.089   6.001 -1.4690 -0.3980  0.7719
 1611SOL     OW 5731   6.266   0.971   0.258  0.2608 -0.1072  0.3832
 1611SOL    HW1 5732   6.310   0.972   0.348 -0.0364 -1.9500  0.5870
 1611SOL    HW2 5733   6.278   0.881   0.216  0.3323  0.6968 -1.4156
 1612SOL     OW 5734   4.720   2.008   4.563 -0.3279  0.2885  0.1892
 1612SOL    HW1 5735   4.668   2.049   4.638  1.3703 -0.2109  1.7079
 1612SOL    HW2 5736   4.817   2.007   4.586  0.2103 -0.2344 -1.8871
 1613SOL     OW 5737   3.718   2.824   5.225  0.2813  0.2198  0.6233
 1613SOL    HW1 5738   3.713   2.872   5.138 -1.7829 -0.4991  0.2920
 1613SOL    HW2 5739   3.687   2.884   5.299 -0.5694 -0.0041  0.4603
 1614SOL     OW 5740   4.951   2.604   4.833  0.0758 -0.0941 -0.0754
 1614SOL    HW1 5741   5.051   2.607   4.834  0.0659  0.3496  0.5806
 1614SOL    HW2 5742   4.920   2.520   4.789  0.7331 -0.0806 -0.5833
 1615SOL     OW 5743   3.556   5.756   5.306 -0.5858  0.1613  0.1608
 1615SOL    HW1 5744   3.482   5.795   5.250  1.3882  0.1557 -2.6427
 1615SOL    HW2 5745   3.559   5.657   5.292  0.9211  0.3423 -1.1443
 1616SOL     OW 5746   1.590   4.014   1.935  0.1228 -0.2473 -0.3840
 1616SOL    HW1 5747   1.560   3.932   1.984 -0.2634 -0.3176 -0.7302
 1616SOL    HW2 5748   1.509   4.065   1.904  0.3636  0.1079 -0.4275
 1617SOL     OW 5749   2.243   6.236   3.086  0.6545 -0.2911  0.2006
 1617SOL    HW1 5750   2.295   6.218   3.002  0.3687  0.8179 -0.2344
 1617SOL    HW2 5751   2.291   6.303   3.141 -1.4071  2.7948 -1.4296
 1618SOL     OW 5752   4.123   6.509   0.008 -0.1383 -0.2311  0.4915
 1618SOL    HW1 5753   4.070   6.567   0.070 -0.8634  1.7285 -1.7988
 1618SOL    HW2 5754   4.221   6.524   0.024 -0.3143  0.8039  0.6940
 1619SOL     OW 5755   6.790   3.387   0.004 -0.0916  0.0965  0.6199
 1619SOL    HW1 5756   6.829   3.394   0.096  2.9237 -0.0120 -0.5582
 1619SOL    HW2 5757   6.808   3.295  -0.032  0.4592  0.7483 -0.7929
 1620SOL     OW 5758   3.312   0.595   2.030  0.6714  0.0554  0.5868
 1620SOL    HW1 5759   3.314   0.496   2.017 -0.2976  0.1273 -0.3397
 1620SOL    HW2 5760   3.337   0.618   2.124  0.5153 -1.0992  0.9203
 1621SOL     OW 5761   0.497   3.108   6.818 -0.0968  0.3859 -0.0912
 1621SOL    HW1 5762   0.593   3.125   6.795  0.1679 -1.6956 -0.6838
 1621SOL    HW2 5763   0.439   3.126   6.738 -0.2296  1.5870  0.2501
 1622SOL     OW 5764   0.334   6.027   5.982 -0.1806  0.2955  0.0125
 1622SOL    HW1 5765   0.394   5.973   5.923  0.1431 -1.9720  2.2152
 1622SOL    HW2 5766   0.388   6.068   6.055 -1.1628 -1.7734  2.0320
 1623SOL     OW 5767   1.523   2.631   3.128 -0.1565  0.1656  0.3111
 1623SOL    HW1 5768   1.557   2.552   3.178  0.2865  0.1159 -0.0561
 1623SOL    HW2 5769   1.559   2.715   3.171 -0.7810  0.1804  0.8147
 1624SOL     OW 5770   1.675   4.606   6.842 -0.3469 -0.0802 -0.3988
 1624SOL    HW1 5771   1.696   4.519   6.888 -2.4628 -0.7919 -0.6738
 1624SOL    HW2 5772   1.623   4.664   6.904 -0.0845  0.4599 -0.6826
 1625SOL     OW 5773   5.737   6.076   0.584 -0.2908 -0.4862  0.0455
 1625SOL    HW1 5774   5.770   6.134   0.509 -2.0851 -1.2068 -1.3492
 1625SOL    HW2 5775   5.646   6.041   0.563  0.4778 -3.4016  1.0824
 1626SOL     OW 5776   4.720   1.130   2.305  0.2023  0.0679 -0.7594
 1626SOL    HW1 5777   4.666   1.070   2.245 -0.1529  0.3225 -0.7011
 1626SOL    HW2 5778   4.768   1.075   2.373 -1.5934 -0.0471  0.4816
 1627SOL     OW 5779   6.911   3.088   4.671  0.2350  0.2089  0.4996
 1627SOL    HW1 5780   6.859   3.012   4.709 -0.5608  0.8856  0.7933
 1627SOL    HW2 5781   6.913   3.081   4.572  0.2067 -0.2145  0.5254
 1628SOL     OW 5782   3.772   3.370   1.881  0.1689 -0.2927 -0.2894
 1628SOL    HW1 5783   3.761   3.297   1.814 -0.3179  0.3488 -0.9164
 1628SOL    HW2 5784   3.870   3.391   1.892  0.5527 -2.6257  1.6444
 1629SOL     OW 5785   0.846   6.753   6.154  0.4511  0.2764  0.8402
 1629SOL    HW1 5786   0.877   6.846   6.172  3.0000  0.1881 -2.2914
 1629SOL    HW2 5787   0.913   6.687   6.188  0.2226 -0.2811  0.2393
 1630SOL     OW 5788   6.039   5.636   2.758 -0.3059  0.3076  0.4518
 1630SOL    HW1 5789   6.051   5.540   2.786  0.6308  0.3442  0.1841
 1630SOL    HW2 5790   5.962   5.642   2.694 -1.2769 -0.0510  1.5354
 1631SOL     OW 5791   0.805   5.021   3.742 -0.4133 -0.4146  0.2290
 1631SOL    HW1 5792   0.794   4.934   3.790  0.5472 -0.9976 -0.5647
 1631SOL    HW2 5793   0.856   5.005   3.657 -2.8471  0.4190 -1.4779
 1632SOL     OW 5794   6.666   6.387   5.711  0.5771  0.1807 -0.4032
 1632SOL    HW1 5795   6.584   6.429   5.750  1.1767  0.1695  0.9230
 1632SOL    HW2 5796   6.742   6.452   5.716  0.7076  0.1170 -1.4295
 1633SOL     OW 5797   0.501   3.443   0.819  0.0804  0.4913 -0.1249
 1633SOL    HW1 5798   0.407   3.439   0.851 -0.1383 -0.3680 -0.8391
 1633SOL    HW2 5799   0.531   3.352   0.791  2.0896  0.1597  2.7301
 1634SOL     OW 5800   4.958   1.286   0.717  0.1604 -0.5414 -0.1218
 1634SOL    HW1 5801   4.875   1.342   0.711  0.7201  0.2907 -0.2951
 1634SOL    HW2 5802   4.942   1.197   0.673 -1.9508 -2.0649  3.3128
 1635SOL     OW 5803   5.470   4.463   3.066  0.7118  0.1615 -0.1996
 1635SOL    HW1 5804   5.491   4.451   3.163  0.9416  0.7054 -0.1803
 1635SOL    HW2 5805   5.546   4.511   3.021  0.9844 -0.8320 -0.8247
 1636SOL     OW 5806   6.272   0.446   5.721  0.5346  0.3227 -0.4726
 1636SOL    HW1 5807   6.353   0.428   5.666  1.5920  0.3001  1.0133
 1636SOL    HW2 5808   6.300   0.466   5.815 -1.1749  0.6476  0.0020
 1637SOL     OW 5809   2.332   4.880   4.962  0.7551 -0.4266  0.2774
 1637SOL    HW1 5810   2.349   4.809   5.029 -0.2808  0.0262  1.0520
 1637SOL    HW2 5811   2.333   4.840   4.870 -1.1414 -1.7549  0.7622
 1638SOL     OW 5812   4.114   5.045   3.248 -0.0527 -0.1059  0.5203
 1638SOL    HW1 5813   4.099   5.115   3.317 -1.0963 -1.2808  1.5470
 1638SOL    HW2 5814   4.040   4.978   3.252 -0.9032  0.4832 -2.6619
 1639SOL     OW 5815   0.675   6.092   3.510 -0.5278 -0.2669 -0.2341
 1639SOL    HW1 5816   0.700   6.154   3.436 -1.6537  0.4651 -0.0257
 1639SOL    HW2 5817   0.632   6.010   3.472 -1.0835  0.0975 -0.3852
 1640SOL     OW 5818   0.912   2.288   6.059  0.1612 -0.0704 -0.5611
 1640SOL    HW1 5819   0.833   2.259   6.113 -0.9048 -0.6610 -2.3652
 1640SOL    HW2 5820   0.892   2.277   5.962  2.6873 -0.7487 -1.0695
 1641SOL     OW 5821   3.224   0.549   6.684 -0.3738 -0.0530 -0.0083
 1641SOL    HW1 5822   3.148   0.611   6.704  0.0831  0.8965 -1.0893
 1641SOL    HW2 5823   3.199   0.489   6.608  0.2929  0.9546 -1.0517
 1642SOL     OW 5824   5.271   0.535   1.467  0.0158  0.1667 -0.0491
 1642SOL    HW1 5825   5.292   0.490   1.380 -2.4252 -1.7184  0.2223
 1642SOL    HW2 5826   5.215   0.616   1.449  1.7440  1.3796 -0.3163
 1643SOL     OW 5827   3.653   5.337   3.927  0.7578 -0.0487 -0.0454
 1643SOL    HW1 5828   3.594   5.303   3.853  1.2349 -3.4070  0.9565
 1643SOL    HW2 5829   3.597   5.361   4.006  0.4491  1.1448 -0.6019
 1644SOL     OW 5830   1.688   1.713   0.670 -0.2836 -0.0919 -0.5229
 1644SOL    HW1 5831   1.728   1.740   0.758 -2.8138 -1.8351  1.2980
 1644SOL    HW2 5832   1.742   1.638   0.631  1.1526  1.0274 -0.7947
 1645SOL     OW 5833   6.945   4.734   4.040  0.2718 -0.5686 -0.1776
 1645SOL    HW1 5834   6.897   4.819   4.018  0.3245 -0.0895  1.4611
 1645SOL    HW2 5835   6.935   4.670   3.964 -2.6089 -0.3349 -0.0962
 1646SOL     OW 5836   3.412   1.101   2.826  0.3967  0.2759 -0.2591
 1646SOL    HW1 5837   3.446   1.140   2.912  1.5701 -0.4763 -0.3604
 1646SOL    HW2 5838   3.387   1.005   2.840 -0.3626  0.4227 -0.5370
 1647SOL     OW 5839   0.196   1.227   5.769 -0.3503 -0.1251 -1.0480
 1647SOL    HW1 5840   0.212   1.265   5.860  0.0055 -2.0523 -0.2666
 1647SOL    HW2 5841   0.126   1.281   5.723 -1.6072  0.0414  0.9387
 1648SOL     OW 5842   1.137   5.561   5.177  0.7808  0.8170  0.1174
 1648SOL    HW1 5843   1.180   5.650   5.190  0.5154  0.8911  0.5129
 1648SOL    HW2 5844   1.037   5.571   5.182  0.7302  0.5893 -0.4088
 1649SOL     OW 5845   1.108   0.354   1.131 -0.2114  0.4054  0.1471
 1649SOL    HW1 5846   1.031   0.390   1.185  0.5621 -0.8465  2.2046
 1649SOL    HW2 5847   1.097   0.256   1.121  0.9775  0.2639  0.2015
 1650SOL     OW 5848   4.988   5.154   0.461  0.5238 -0.0301 -0.0438
 1650SOL    HW1 5849   5.086   5.175   0.452  0.5955 -0.7054 -0.9969
 1650SOL    HW2 5850   4.974   5.099   0.543  0.9364  0.1344  0.1422
 1651SOL     OW 5851   4.972   2.911   5.289 -0.2979 -0.2572 -0.4135
 1651SOL    HW1 5852   4.931   3.000   5.271  0.0627 -0.0096 -0.0166
 1651SOL    HW2 5853   4.994   2.902   5.386  1.8968  0.1920 -0.8011
 1652SOL     OW 5854   1.029   5.956   2.870  0.2053 -0.0060 -0.3111
 1652SOL    HW1 5855   1.059   6.011   2.948  2.4812  0.2031 -1.2561
 1652SOL    HW2 5856   0.939   5.987   2.839 -0.6801  0.0000  2.0866
 1653SOL     OW 5857   6.235   4.155   2.495  0.2931 -0.0800 -0.2699
 1653SOL    HW1 5858   6.272   4.147   2.403 -1.5034  1.5759 -1.2088
 1653SOL    HW2 5859   6.281   4.229   2.544 -0.4164  0.6838 -0.7406
 1654SOL     OW 5860   3.514   4.426   6.990  0.1636 -0.2293 -0.5600
 1654SOL    HW1 5861   3.595   4.368   6.992  0.8292  0.6943  0.2494
 1654SOL    HW2 5862   3.444   4.389   7.051 -0.1492 -1.1823 -1.4712
 1655SOL     OW 5863   0.498   4.883   0.390 -0.3785  0.0967  0.2670
 1655SOL    HW1 5864   0.509   4.944   0.312  2.1802 -1.0041 -0.3427
 1655SOL    HW2 5865   0.552   4.917   0.467  1.9675 -1.7988 -0.4126
 1656SOL     OW 5866   6.448   4.890   0.816  0.3286 -0.7958 -0.1810
 1656SOL    HW1 5867   6.378   4.896   0.744  1.0580 -3.4113 -1.2080
 1656SOL    HW2 5868   6.414   4.834   0.891  0.1021  0.7822  0.9548
 1657SOL     OW 5869   1.080   5.147   6.780  0.5033  0.4807 -0.2131
 1657SOL    HW1 5870   1.167   5.128   6.825  0.2230  1.9899  1.0562
 1657SOL    HW2 5871   1.028   5.213   6.834 -1.3016 -0.1262 -1.1152
 1658SOL     OW 5872   0.123   4.442   6.979 -0.1571  0.3723  0.3208
 1658SOL    HW1 5873   0.141   4.354   6.935  1.0004 -0.8025  2.9299
 1658SOL    HW2 5874   0.041   4.435   7.037 -1.4579  1.7817 -1.2272
 1659SOL     OW 5875   0.238   0.774   5.875 -0.3060  0.1784 -0.4342
 1659SOL    HW1 5876   0.196   0.858   5.843 -0.2520  0.2759 -0.2506
 1659SOL    HW2 5877   0.277   0.724   5.797  2.4273  1.8322 -0.2540
 1660SOL     OW 5878   3.142   6.161   3.257  0.1525  0.1850  0.0997
 1660SOL    HW1 5879   3.085   6.198   3.183  1.7762  1.3363 -0.6439
 1660SOL    HW2 5880   3.211   6.229   3.283  0.0372 -0.4557  2.2574
 1661SOL     OW 5881   1.245   5.670   6.447  0.0094  0.0268  0.2851
 1661SOL    HW1 5882   1.162   5.722   6.467  0.1710 -0.1410  1.4888
 1661SOL    HW2 5883   1.230   5.610   6.369 -0.5573  1.0001 -0.3769
 1662SOL     OW 5884   4.796   5.140   4.138  0.5048  0.1138 -0.0903
 1662SOL    HW1 5885   4.755   5.059   4.179  0.1866  0.3877  0.1338
 1662SOL    HW2 5886   4.730   5.215   4.137  0.8958  0.4648 -0.0126
 1663SOL     OW 5887   0.398   4.507   4.812 -0.2785  0.6602  0.0976
 1663SOL    HW1 5888   0.445   4.535   4.728 -0.4794 -0.3331 -0.3566
 1663SOL    HW2 5889   0.333   4.434   4.791 -0.5156  0.5798  1.0779
 1664SOL     OW 5890   4.416   3.112   5.397 -0.0668 -0.5077 -0.0975
 1664SOL    HW1 5891   4.366   3.198   5.404  1.5758  0.4823 -0.0236
 1664SOL    HW2 5892   4.352   3.038   5.377 -1.5118  0.7238 -0.2134
 1665SOL     OW 5893   3.998   6.112   6.852  0.4938 -0.3233 -0.0389
 1665SOL    HW1 5894   3.939   6.041   6.890  0.4903  0.0549  0.6841
 1665SOL    HW2 5895   3.944   6.194   6.834  0.1618 -0.9626 -2.3505
 1666SOL     OW 5896   4.431   1.060   6.362  0.2449 -0.2339 -0.9556
 1666SOL    HW1 5897   4.510   1.111   6.329  1.0130 -1.1030 -0.4943
 1666SOL    HW2 5898   4.461   0.985   6.421 -0.9019 -0.7808 -1.0276
 1667SOL     OW 5899   4.759   6.575   1.662 -0.0669 -0.5500  0.1623
 1667SOL    HW1 5900   4.699   6.654   1.650  1.4087  0.3552 -2.0031
 1667SOL    HW2 5901   4.729   6.501   1.602  0.9879 -0.0244 -1.0802
 1668SOL     OW 5902   1.279   3.394   4.780 -0.2402  0.7959  0.3926
 1668SOL    HW1 5903   1.230   3.419   4.697  2.5914  0.0065 -1.6356
 1668SOL    HW2 5904   1.220   3.338   4.838 -1.9046  0.3588 -1.6220
 1669SOL     OW 5905   5.814   4.954   3.414 -0.0061 -0.5142  0.0485
 1669SOL    HW1 5906   5.851   4.875   3.463  1.6238 -0.0013 -0.2682
 1669SOL    HW2 5907   5.874   4.975   3.336  0.4205  1.8567  0.9242
 1670SOL     OW 5908   1.481   2.777   4.643  0.2830 -0.2871  0.3783
 1670SOL    HW1 5909   1.554   2.839   4.669  1.6325 -1.3931 -0.6273
 1670SOL    HW2 5910   1.499   2.686   4.681 -0.7425 -0.4989  0.3863
 1671SOL     OW 5911   1.855   6.122   5.430 -0.1987 -0.5858  0.0629
 1671SOL    HW1 5912   1.933   6.067   5.400 -0.6496 -2.3316  1.9247
 1671SOL    HW2 5913   1.773   6.093   5.379 -0.3279 -1.2907  0.6581
 1672SOL     OW 5914   3.674   6.656   0.411 -0.2335  0.3018 -0.1217
 1672SOL    HW1 5915   3.677   6.583   0.479 -1.8873  0.0186 -0.2850
 1672SOL    HW2 5916   3.709   6.741   0.450  0.9886 -0.3850  0.3186
 1673SOL     OW 5917   5.370   3.978   0.263 -0.0176  0.5716 -0.0793
 1673SOL    HW1 5918   5.391   3.884   0.233 -0.4253  0.5398 -0.2731
 1673SOL    HW2 5919   5.346   3.977   0.360 -0.2890  0.4284 -0.1439
 1674SOL     OW 5920   5.731   1.260   4.159  0.4774 -0.2675  0.5703
 1674SOL    HW1 5921   5.655   1.322   4.140 -1.2189 -2.3826 -0.0008
 1674SOL    HW2 5922   5.784   1.294   4.237 -1.7571  0.6971  1.7561
 1675SOL     OW 5923   4.614   5.389   1.121  0.0438  0.3099  0.3880
 1675SOL    HW1 5924   4.609   5.329   1.041  0.3170 -0.0335  0.6237
 1675SOL    HW2 5925   4.542   5.458   1.116 -1.1665 -0.8802  0.8095
 1676SOL     OW 5926   4.150   6.452   3.048 -0.0745 -0.4769  0.8957
 1676SOL    HW1 5927   4.155   6.539   3.096  0.6327 -1.7126  3.1869
 1676SOL    HW2 5928   4.241   6.422   3.022 -0.2352 -0.8633  0.7596
 1677SOL     OW 5929   0.639   6.836   2.014 -0.6907  0.4803 -0.2276
 1677SOL    HW1 5930   0.729   6.808   2.047 -0.8185 -0.2144 -0.4573
 1677SOL    HW2 5931   0.572   6.764   2.032 -1.7769  1.9843  2.2876
 1678SOL     OW 5932   4.335   0.578   5.089  0.1419 -0.3298 -0.3808
 1678SOL    HW1 5933   4.261   0.551   5.150  1.0883 -1.2051  0.4258
 1678SOL    HW2 5934   4.419   0.589   5.142  0.5571  0.8411 -1.2390
 1679SOL     OW 5935   1.689   2.442   1.260  0.0568 -0.1573 -0.2235
 1679SOL    HW1 5936   1.739   2.528   1.251  1.6732 -0.4509  3.9848
 1679SOL    HW2 5937   1.741   2.368   1.218  0.5844  0.3114 -0.3980
 1680SOL     OW 5938   1.692   6.868   6.647 -0.2967 -0.2137 -0.2195
 1680SOL    HW1 5939   1.703   6.824   6.558  0.1149  0.3513 -0.4485
 1680SOL    HW2 5940   1.600   6.907   6.654 -0.0280  0.5236 -0.7489
 1681SOL     OW 5941   3.800   1.089   0.999 -0.3673  0.6206 -0.2000
 1681SOL    HW1 5942   3.872   1.130   1.054 -0.8168 -0.4905  1.2654
 1681SOL    HW2 5943   3.840   1.051   0.915  0.3609  2.0819 -0.5511
 1682SOL     OW 5944   5.909   1.650   1.851 -0.1359 -0.2994  0.0804
 1682SOL    HW1 5945   5.910   1.744   1.818 -0.7156 -0.2034  0.3216
 1682SOL    HW2 5946   5.958   1.591   1.787 -0.4299  0.0434 -0.4650
 1683SOL     OW 5947   2.885   2.245   4.862  0.1199 -0.0599 -1.0382
 1683SOL    HW1 5948   2.841   2.172   4.811  1.7080 -2.2364  0.5240
 1683SOL    HW2 5949   2.980   2.221   4.880  0.5524  2.1665  0.0285
 1684SOL     OW 5950   4.792   2.370   4.788 -0.4765 -0.7266  0.2437
 1684SOL    HW1 5951   4.768   2.352   4.693 -0.9443 -3.0116  0.7306
 1684SOL    HW2 5952   4.710   2.396   4.839 -0.7531 -2.1547  0.5577
 1685SOL     OW 5953   2.248   4.108   3.166  0.2015  0.1166 -0.2947
 1685SOL    HW1 5954   2.315   4.179   3.185 -0.1970  0.1053  1.3906
 1685SOL    HW2 5955   2.158   4.150   3.152  0.1069  0.0093 -0.0331
 1686SOL     OW 5956   1.336   5.854   1.983  0.4895 -0.6741  0.0559
 1686SOL    HW1 5957   1.362   5.787   1.913  1.1500 -1.1850  0.7659
 1686SOL    HW2 5958   1.403   5.851   2.057  1.1248  1.5240 -0.3834
 1687SOL     OW 5959   3.931   2.837   0.501  0.4982  0.2996  0.3192
 1687SOL    HW1 5960   4.028   2.849   0.481  0.8479 -0.1022  1.6735
 1687SOL    HW2 5961   3.894   2.922   0.539  0.4691  0.2536  0.3933
 1688SOL     OW 5962   2.201   4.325   1.091  0.2992 -0.2052 -0.6180
 1688SOL    HW1 5963   2.125   4.363   1.038 -0.6036  0.9070  1.3861
 1688SOL    HW2 5964   2.244   4.397   1.145  2.8721 -0.7967 -1.7207
 1689SOL     OW 5965   6.497   4.298   5.151  0.3517  0.2818 -0.0776
 1689SOL    HW1 5966   6.570   4.247   5.197  1.7148  2.3368  0.1750
 1689SOL    HW2 5967   6.497   4.275   5.053 -0.0513 -1.2507  0.2546
 1690SOL     OW 5968   6.538   0.621   4.425  0.5126 -0.6639 -0.1474
 1690SOL    HW1 5969   6.557   0.692   4.358 -0.5860  1.0029  1.2140
 1690SOL    HW2 5970   6.456   0.646   4.478  0.5966 -2.5285  0.9630
 1691SOL     OW 5971   1.996   0.773   2.478 -0.6950  1.0727 -0.0115
 1691SOL    HW1 5972   1.955   0.715   2.549  0.6506 -0.4086 -0.3838
 1691SOL    HW2 5973   2.060   0.719   2.424 -1.2036  2.3233 -1.9746
 1692SOL     OW 5974   6.156   2.124   2.110 -0.1209  0.0575  0.9548
 1692SOL    HW1 5975   6.090   2.082   2.172  0.1100  0.5421  1.5358
 1692SOL    HW2 5976   6.244   2.079   2.120  0.0125  0.3836  1.2528
 1693SOL     OW 5977   6.126   4.455   4.452 -0.9358  0.4194  0.2284
 1693SOL    HW1 5978   6.100   4.362   4.427 -0.0832  0.4039 -0.6675
 1693SOL    HW2 5979   6.085   4.520   4.388  1.1676  0.3889 -1.2383
 1694SOL     OW 5980   0.824   0.006   5.757 -0.2728 -0.0751  0.1322
 1694SOL    HW1 5981   0.865   0.089   5.795  0.2814 -0.6553  0.8316
 1694SOL    HW2 5982   0.880  -0.027   5.681 -0.0230 -0.2742  0.4002
 1695SOL     OW 5983   1.851   0.188   1.937 -0.0023 -0.1533  0.0128
 1695SOL    HW1 5984   1.766   0.197   1.886  0.8634  1.1494 -1.2947
 1695SOL    HW2 5985   1.910   0.120   1.892  0.6434  0.7843 -0.6028
 1696SOL     OW 5986   5.253   0.387   3.406 -0.4797  0.3428 -0.9879
 1696SOL    HW1 5987   5.349   0.363   3.397 -0.0650  2.3099 -2.6556
 1696SOL    HW2 5988   5.235   0.472   3.356 -3.0605  0.1135 -0.6011
 1697SOL     OW 5989   3.175   3.216   6.205 -0.0171 -0.1462 -0.2044
 1697SOL    HW1 5990   3.244   3.277   6.244 -0.3758  1.0878 -1.4129
 1697SOL    HW2 5991   3.090   3.268   6.190 -1.7320 -1.8996  2.4837
 1698SOL     OW 5992   4.237   2.907   5.361 -0.0190  0.5862  0.3543
 1698SOL    HW1 5993   4.145   2.932   5.334 -0.5677 -1.5952 -0.0464
 1698SOL    HW2 5994   4.251   2.809   5.344  2.6335  1.0077 -0.3299
 1699SOL     OW 5995   1.802   5.983   5.847 -0.5622 -0.5845 -0.3170
 1699SOL    HW1 5996   1.803   5.955   5.943 -0.5645 -0.7495 -0.3641
 1699SOL    HW2 5997   1.884   5.948   5.802 -1.0981 -1.4693 -0.6414
 1700SOL     OW 5998   5.314   2.520   1.382 -0.3084  0.1888  0.2459
 1700SOL    HW1 5999   5.367   2.603   1.399  0.7054 -0.4809  0.4433
 1700SOL    HW2 6000   5.344   2.477   1.297  1.3379 -1.5765  1.6233
 1701SOL     OW 6001   0.293   5.034   2.474 -0.0431  0.8241  0.5365
 1701SOL    HW1 6002   0.281   5.114   2.416 -0.7712 -0.8146 -1.7298
 1701SOL    HW2 6003   0.375   4.984   2.446 -0.3474  0.0581  0.9708
 1702SOL     OW 6004   4.219   5.987   1.864 -0.2802  0.3058  0.1077
 1702SOL    HW1 6005   4.131   6.013   1.905  1.0879  1.5378  2.4446
 1702SOL    HW2 6006   4.290   5.988   1.934  1.4232 -1.8358 -1.4762
 1703SOL     OW 6007   6.668   2.837   0.702 -0.3024 -0.1755 -0.0057
 1703SOL    HW1 6008   6.627   2.882   0.622 -0.8324 -1.9190 -0.7670
 1703SOL    HW2 6009   6.603   2.772   0.741  1.3616 -2.3821 -0.7013
 1704SOL     OW 6010   3.881   4.035   6.435  0.3625 -0.4546 -0.1847
 1704SOL    HW1 6011   3.905   4.046   6.532  1.4169 -2.6064 -0.1298
 1704SOL    HW2 6012   3.816   4.106   6.408  0.3747  0.4575  1.9767
 1705SOL     OW 6013   6.348   3.121   4.629 -0.0091  0.1608 -0.0020
 1705SOL    HW1 6014   6.389   3.069   4.704 -2.1727  0.2479  1.3481
 1705SOL    HW2 6015   6.396   3.208   4.619  0.4686  0.0511  1.1515
 1706SOL     OW 6016   1.309   1.846   2.471 -0.0415 -0.5957 -0.4891
 1706SOL    HW1 6017   1.330   1.881   2.562 -0.5380  1.4425 -1.0909
 1706SOL    HW2 6018   1.217   1.807   2.470 -0.9339  1.3548 -0.5426
 1707SOL     OW 6019   3.388   1.132   6.518 -0.0725  0.2149  0.2048
 1707SOL    HW1 6020   3.361   1.169   6.429 -0.1438 -0.7275 -0.1784
 1707SOL    HW2 6021   3.316   1.072   6.553  0.1514  0.2193  0.6875
 1708SOL     OW 6022   1.845   5.965   4.992 -0.0168  0.1765  0.4286
 1708SOL    HW1 6023   1.925   5.912   4.963 -0.2407  0.0844 -0.0268
 1708SOL    HW2 6024   1.778   5.903   5.034 -0.0605  0.1801  0.3634
 1709SOL     OW 6025   6.550   3.359   6.231 -0.8546  0.6234 -0.1698
 1709SOL    HW1 6026   6.475   3.299   6.205  0.4220  0.0096 -2.7996
 1709SOL    HW2 6027   6.522   3.454   6.219 -1.3902  0.4160 -0.5967
 1710SOL     OW 6028   0.791   6.726   6.611  0.4069 -0.1151 -0.6956
 1710SOL    HW1 6029   0.767   6.629   6.599  0.6125 -0.0052 -2.2616
 1710SOL    HW2 6030   0.890   6.736   6.605  0.3920  0.1885 -0.4398
 1711SOL     OW 6031   3.530   0.463   0.567  0.0210  0.0502 -0.2784
 1711SOL    HW1 6032   3.593   0.519   0.621  1.3563 -0.7174 -0.9996
 1711SOL    HW2 6033   3.462   0.422   0.628  0.6537  0.3006  0.6212
 1712SOL     OW 6034   1.955   2.463   4.785 -0.1797  0.3408 -0.9749
 1712SOL    HW1 6035   1.936   2.373   4.745  0.8162 -1.0784  1.4782
 1712SOL    HW2 6036   2.046   2.494   4.755  0.7197 -0.8814  0.3265
 1713SOL     OW 6037   6.181   3.750   4.965  0.3806 -0.0021  0.9019
 1713SOL    HW1 6038   6.102   3.705   5.006  1.7059 -1.8811  1.5384
 1713SOL    HW2 6039   6.251   3.765   5.035  0.6872  1.4675  0.3204
 1714SOL     OW 6040   0.685   4.872   0.783  0.3395 -0.2845  0.3468
 1714SOL    HW1 6041   0.620   4.810   0.740  0.7601 -0.5159  0.0254
 1714SOL    HW2 6042   0.727   4.828   0.862  0.2599 -0.2180  0.4255
 1715SOL     OW 6043   3.503   5.922   0.640  0.0705 -0.4466 -0.2527
 1715SOL    HW1 6044   3.458   5.860   0.705 -0.8152  0.1178 -0.3162
 1715SOL    HW2 6045   3.464   6.013   0.648  0.8989 -0.0483 -0.6420
 1716SOL     OW 6046   1.886   4.813   5.995 -0.3843  0.1052  0.5338
 1716SOL    HW1 6047   1.971   4.848   5.956  0.2212  0.0907  1.7790
 1716SOL    HW2 6048   1.821   4.793   5.922  0.1836  1.4027 -0.3591
 1717SOL     OW 6049   1.932   2.681   6.719 -0.3648  0.1008  0.6110
 1717SOL    HW1 6050   1.867   2.685   6.643  0.2340  1.9667  0.1552
 1717SOL    HW2 6051   2.017   2.639   6.688 -0.2400  0.5492  0.3438
 1718SOL     OW 6052   6.771   4.499   2.789  0.4090  0.2221  0.8872
 1718SOL    HW1 6053   6.861   4.459   2.803  0.1956  0.2226  2.3300
 1718SOL    HW2 6054   6.763   4.584   2.840  0.0263  0.9169 -0.2811
 1719SOL     OW 6055   4.241   0.913   6.242 -0.1351  0.2968  0.3744
 1719SOL    HW1 6056   4.308   0.981   6.270 -1.3650  0.4179  3.5077
 1719SOL    HW2 6057   4.275   0.822   6.263 -0.6242  0.3272  1.4029
 1720SOL     OW 6058   2.918   6.176   5.521 -0.7107 -0.0194 -0.1394
 1720SOL    HW1 6059   2.861   6.228   5.457 -0.9757 -0.3972 -0.2115
 1720SOL    HW2 6060   2.983   6.120   5.470  0.9914  1.7550 -0.0655
 1721SOL     OW 6061   0.352   3.970   1.815 -0.0799 -0.2509  0.1154
 1721SOL    HW1 6062   0.339   3.871   1.813  0.3985 -0.4385  2.7838
 1721SOL    HW2 6063   0.438   3.992   1.862 -0.5754  1.4393  0.3318
 1722SOL     OW 6064   5.041   1.910   4.984 -0.3775  0.0450  0.3262
 1722SOL    HW1 6065   5.089   1.835   5.029  0.1984  0.6172  0.6940
 1722SOL    HW2 6066   5.032   1.986   5.048 -2.9861 -0.5132  0.7149
 1723SOL     OW 6067   6.085   4.300   5.438 -0.4761 -0.4054 -0.3171
 1723SOL    HW1 6068   6.145   4.245   5.380 -0.2493 -0.9850  0.4425
 1723SOL    HW2 6069   6.075   4.392   5.399  0.6450 -0.3993 -0.6225
 1724SOL     OW 6070   1.646   6.942   2.636 -0.4893 -0.1574  0.1419
 1724SOL    HW1 6071   1.621   6.898   2.550  2.0820  1.4435 -1.5673
 1724SOL    HW2 6072   1.740   6.918   2.659 -0.7488  0.3910  1.9267
 1725SOL     OW 6073   6.687   4.724   0.852  0.1202  0.1124 -0.0659
 1725SOL    HW1 6074   6.626   4.803   0.847  0.7251  0.7066  1.3988
 1725SOL    HW2 6075   6.719   4.713   0.946  0.5396 -1.5171 -0.3643
 1726SOL     OW 6076   5.368   2.176   2.034  0.2470  0.0404  0.1248
 1726SOL    HW1 6077   5.429   2.248   2.000  1.4559 -1.4715 -1.1182
 1726SOL    HW2 6078   5.336   2.121   1.956  0.1919 -1.3697  1.1088
 1727SOL     OW 6079   1.213   3.193   0.863 -0.2364  0.0637  0.2158
 1727SOL    HW1 6080   1.137   3.132   0.844  0.2181 -0.1379 -1.0361
 1727SOL    HW2 6081   1.178   3.285   0.880 -0.8201 -0.2316  0.6543
 1728SOL     OW 6082   5.845   3.854   6.755 -0.3118 -0.2599  0.3852
 1728SOL    HW1 6083   5.885   3.812   6.837 -2.2170 -2.3673  0.3481
 1728SOL    HW2 6084   5.872   3.802   6.674  0.7292  1.1999 -0.2345
 1729SOL     OW 6085   1.308   0.556   0.421 -0.0867 -0.2425 -0.1268
 1729SOL    HW1 6086   1.209   0.568   0.420 -0.5012 -2.3505  2.6138
 1729SOL    HW2 6087   1.331   0.470   0.375  0.1349 -1.0668  1.4603
 1730SOL     OW 6088   5.179   6.936   2.568  0.5737  0.0627  0.4199
 1730SOL    HW1 6089   5.194   6.838   2.564 -1.3521 -0.3114  1.4172
 1730SOL    HW2 6090   5.167   6.964   2.663 -0.1949  1.0480  0.0487
 1731SOL     OW 6091   5.063   5.680   5.192  0.5574  0.1229  0.6730
 1731SOL    HW1 6092   5.020   5.711   5.107 -0.5182 -3.5167 -0.3172
 1731SOL    HW2 6093   5.015   5.721   5.270 -0.3692  1.2619 -0.4392
 1732SOL     OW 6094   5.565   0.080   5.269  0.6201  0.5037 -0.2333
 1732SOL    HW1 6095   5.566   0.006   5.336 -1.2643  2.6966  2.4815
 1732SOL    HW2 6096   5.646   0.074   5.211  1.5052 -2.5048  1.1184
 1733SOL     OW 6097   2.576   1.674   6.534 -0.2863 -0.2257 -0.3428
 1733SOL    HW1 6098   2.578   1.663   6.634 -1.2624  1.3281 -0.1115
 1733SOL    HW2 6099   2.625   1.758   6.509 -0.4866 -0.3361 -1.1199
 1734SOL     OW 6100   4.192   2.113   3.828 -0.1393  0.0708  0.3092
 1734SOL    HW1 6101   4.281   2.099   3.784  0.3657 -2.1563  1.8946
 1734SOL    HW2 6102   4.202   2.175   3.906 -0.0590  0.0742  0.2958
 1735SOL     OW 6103   4.580   3.267   1.345  0.3623 -0.1896 -0.6820
 1735SOL    HW1 6104   4.619   3.274   1.253  1.0929  0.6757 -0.3255
 1735SOL    HW2 6105   4.647   3.225   1.407  0.8424  1.4394 -0.0339
 1736SOL     OW 6106   3.183   3.131   6.833 -0.2150  0.6579 -0.1028
 1736SOL    HW1 6107   3.173   3.230   6.839 -0.7179  0.6523 -0.7671
 1736SOL    HW2 6108   3.151   3.099   6.744  2.0859  0.1552 -0.8340
 1737SOL     OW 6109   2.201   2.629   4.530  0.9582  0.3946  0.1455
 1737SOL    HW1 6110   2.266   2.701   4.552  0.7747  0.3135  0.9891
 1737SOL    HW2 6111   2.246   2.540   4.539  0.4230  0.2699  1.9940
 1738SOL     OW 6112   6.555   6.726   3.545 -0.3468  0.2651 -0.2874
 1738SOL    HW1 6113   6.538   6.806   3.603 -2.2497 -0.0273 -0.3653
 1738SOL    HW2 6114   6.595   6.755   3.458  0.5951  0.9295  0.3475
 1739SOL     OW 6115   0.219   6.738   5.769  0.8458 -0.0656  0.3612
 1739SOL    HW1 6116   0.211   6.778   5.860 -0.1192 -1.2176  0.7976
 1739SOL    HW2 6117   0.152   6.781   5.708  1.4459  0.6571  0.1869
 1740SOL     OW 6118   6.163   5.999   1.773  0.3628 -0.3471 -0.5227
 1740SOL    HW1 6119   6.160   5.998   1.673  1.1562  0.1355 -0.5601
 1740SOL    HW2 6120   6.258   6.004   1.804  0.2624 -2.5396  0.2961
 1741SOL     OW 6121   1.291   5.925   0.519 -0.3002 -0.2245 -0.9704
 1741SOL    HW1 6122   1.292   5.847   0.457  0.8472  0.4361 -1.8173
 1741SOL    HW2 6123   1.196   5.950   0.540 -0.6899 -1.0124 -1.7420
 1742SOL     OW 6124   2.733   1.002   3.459 -0.2283 -0.5461  0.4958
 1742SOL    HW1 6125   2.818   1.055   3.462 -1.2758  1.1764  1.1357
 1742SOL    HW2 6126   2.754   0.906   3.439  1.6895  0.1858 -1.3003
 1743SOL     OW 6127   5.864   6.407   6.845  0.0003 -0.9160  0.3880
 1743SOL    HW1 6128   5.896   6.343   6.775  1.6513 -2.8077  2.6956
 1743SOL    HW2 6129   5.769   6.386   6.868 -0.8662  0.2971 -1.7662
 1744SOL     OW 6130   4.110   3.491   4.890  0.1299 -0.0649 -0.3095
 1744SOL    HW1 6131   4.122   3.431   4.969 -1.5966 -1.3791 -0.9837
 1744SOL    HW2 6132   4.198   3.503   4.843  1.0872  0.3885  1.5267
 1745SOL     OW 6133   2.719   0.784   6.423  0.3472 -0.1520  0.6019
 1745SOL    HW1 6134   2.675   0.732   6.497 -0.7500 -0.1537 -0.0266
 1745SOL    HW2 6135   2.694   0.880   6.432  0.7804 -0.0411  0.6280
 1746SOL     OW 6136   6.515   3.011   6.151 -0.3946 -0.0568  0.1851
 1746SOL    HW1 6137   6.468   3.013   6.063  0.8320 -0.0809 -0.4961
 1746SOL    HW2 6138   6.462   3.063   6.218 -2.6017 -2.0512  0.1151
 1747SOL     OW 6139   3.808   0.971   6.217  0.0989 -0.2369 -0.1628
 1747SOL    HW1 6140   3.789   0.949   6.121 -0.8233  2.2460 -0.6124
 1747SOL    HW2 6141   3.722   0.975   6.268  0.4862 -0.3471  0.5111
 1748SOL     OW 6142   3.982   3.509   6.431  0.0092 -0.7208 -0.1684
 1748SOL    HW1 6143   3.962   3.461   6.345  2.0242  0.5455 -1.4403
 1748SOL    HW2 6144   4.078   3.536   6.432 -0.4731  1.1593  1.5545
 1749SOL     OW 6145   3.709   4.250   1.698  0.1973 -0.3368  0.5780
 1749SOL    HW1 6146   3.611   4.263   1.712  0.1066  1.0249 -1.0416
 1749SOL    HW2 6147   3.732   4.267   1.602  2.3964  1.9490  1.4067
 1750SOL     OW 6148   6.532   1.237   1.163  0.3386  0.2932  0.5251
 1750SOL    HW1 6149   6.624   1.238   1.202  0.0099 -0.4628  1.3468
 1750SOL    HW2 6150   6.504   1.331   1.143  0.7503  0.6543  1.5679
 1751SOL     OW 6151   2.302   5.248   6.982  0.3156 -0.0889 -0.5389
 1751SOL    HW1 6152   2.217   5.228   7.031 -0.4529  1.4678 -1.1626
 1751SOL    HW2 6153   2.380   5.240   7.045 -0.2012 -2.0270 -0.0780
 1752SOL     OW 6154   0.088   5.256   4.931 -0.5104 -0.3186 -0.7667
 1752SOL    HW1 6155   0.063   5.252   4.834  0.2491  1.9633 -1.1295
 1752SOL    HW2 6156   0.015   5.300   4.982 -0.0430  0.3665 -0.6789
 1753SOL     OW 6157   2.481   3.826   5.323  0.3781 -0.2288 -0.1328
 1753SOL    HW1 6158   2.525   3.746   5.283  0.1070 -0.6747  0.4581
 1753SOL    HW2 6159   2.468   3.895   5.251  1.4359 -0.3389 -0.4512
 1754SOL     OW 6160   4.456   0.285   4.251 -0.2832  0.1373  0.9299
 1754SOL    HW1 6161   4.455   0.206   4.313  1.7339  1.8476  3.3417
 1754SOL    HW2 6162   4.530   0.347   4.277 -1.2163  2.4286 -1.4358
 1755SOL     OW 6163   0.670   3.717   4.829  0.1297 -0.1080 -0.3292
 1755SOL    HW1 6164   0.672   3.737   4.731  0.4094  1.6921  0.0137
 1755SOL    HW2 6165   0.594   3.767   4.872 -0.0011 -0.8937  0.3710
 1756SOL     OW 6166   1.506   6.287   1.928 -0.4962 -0.1607  0.1169
 1756SOL    HW1 6167   1.530   6.223   2.001  1.4038 -0.1550 -0.4521
 1756SOL    HW2 6168   1.472   6.236   1.849 -2.8918 -0.1492  1.0360
 1757SOL     OW 6169   1.501   2.376   1.694 -0.1318 -0.2969 -0.5740
 1757SOL    HW1 6170   1.534   2.334   1.778 -1.5667 -1.7510 -0.6919
 1757SOL    HW2 6171   1.573   2.434   1.655  1.6516 -1.9994  0.0365
 1758SOL     OW 6172   6.442   4.924   0.158  0.1269  0.3378  0.0138
 1758SOL    HW1 6173   6.371   4.860   0.186 -0.4608  0.9699 -0.0024
 1758SOL    HW2 6174   6.493   4.955   0.238  1.5778 -1.4462 -0.1354
 1759SOL     OW 6175   1.825   4.679   0.752 -0.4601 -0.0055 -0.0178
 1759SOL    HW1 6176   1.765   4.642   0.680 -0.0479 -0.1145 -0.3123
 1759SOL    HW2 6177   1.910   4.711   0.710 -1.1833  2.2055  0.0814
 1760SOL     OW 6178   3.192   6.733   6.883  0.3911 -0.0553 -0.2813
 1760SOL    HW1 6179   3.111   6.683   6.913  0.5878 -0.3654 -0.2591
 1760SOL    HW2 6180   3.242   6.678   6.815  0.5400  0.1652 -0.3518
 1761SOL     OW 6181   1.204   0.342   2.229 -0.3081 -0.3460  0.6600
 1761SOL    HW1 6182   1.223   0.410   2.300  1.6265  0.2158 -0.3258
 1761SOL    HW2 6183   1.280   0.276   2.225 -1.9269 -2.3454  1.2808
 1762SOL     OW 6184   2.524   5.271   6.737 -0.3701 -0.3759  0.3200
 1762SOL    HW1 6185   2.608   5.261   6.790  0.9383  3.7043 -0.6385
 1762SOL    HW2 6186   2.545   5.267   6.639 -1.7729 -1.8229  0.0357
 1763SOL     OW 6187   2.135   2.188   5.164  0.4480  0.1018 -0.5677
 1763SOL    HW1 6188   2.218   2.232   5.198  0.0829  0.5625 -0.2718
 1763SOL    HW2 6189   2.055   2.224   5.212  0.1580 -1.0542 -0.1479
 1764SOL     OW 6190   1.870   3.822   5.713 -0.5182 -0.3500  0.3030
 1764SOL    HW1 6191   1.950   3.767   5.686 -0.1776 -1.0058  2.4238
 1764SOL    HW2 6192   1.894   3.919   5.710  0.0102 -0.4846 -0.0832
 1765SOL     OW 6193   1.592   6.896   5.368 -0.1790  0.0840  0.0908
 1765SOL    HW1 6194   1.691   6.898   5.381 -0.2796 -0.6152  1.1249
 1765SOL    HW2 6195   1.554   6.816   5.416 -1.2313  0.3033 -0.3563
 1766SOL     OW 6196   3.448   6.615   2.242  0.1035 -0.0185  1.0369
 1766SOL    HW1 6197   3.360   6.646   2.278 -0.3319  0.3473 -0.2741
 1766SOL    HW2 6198   3.462   6.654   2.150  0.8623 -1.4220  0.5337
 1767SOL     OW 6199   6.286   0.015   1.478 -0.1796 -0.3308  0.6095
 1767SOL    HW1 6200   6.225  -0.051   1.521 -0.7832  0.4918  1.0377
 1767SOL    HW2 6201   6.284   0.004   1.379 -0.5661 -0.6916  0.6577
 1768SOL     OW 6202   6.189   6.014   0.458 -0.0656  0.1148 -0.2096
 1768SOL    HW1 6203   6.241   5.939   0.418  1.0394  0.9485 -0.3979
 1768SOL    HW2 6204   6.112   6.037   0.399 -0.6161 -1.0829  0.0263
 1769SOL     OW 6205   2.930   4.816   2.650  0.7084 -0.4254 -0.1300
 1769SOL    HW1 6206   2.956   4.721   2.632  2.2906  0.3315 -2.4373
 1769SOL    HW2 6207   2.884   4.853   2.569  0.5794  0.9078  0.5384
 1770SOL     OW 6208   1.736   5.782   2.476 -0.5836 -0.7479 -0.3459
 1770SOL    HW1 6209   1.803   5.708   2.479 -1.8473 -1.9017  0.9190
 1770SOL    HW2 6210   1.759   5.852   2.544 -0.4675 -0.9595 -0.1680
 1771SOL     OW 6211   0.702   5.376   6.724 -0.3506 -0.8178  0.1853
 1771SOL    HW1 6212   0.718   5.379   6.823 -1.9860  0.9119  0.4617
 1771SOL    HW2 6213   0.651   5.458   6.696  0.4323 -1.0601 -2.1726
 1772SOL     OW 6214   6.317   1.228   5.257 -0.3598 -0.7420 -0.8108
 1772SOL    HW1 6215   6.260   1.296   5.211  0.0133  1.0790  1.2644
 1772SOL    HW2 6216   6.411   1.262   5.262 -0.0620 -1.6362 -0.1625
 1773SOL     OW 6217   2.927   5.298   2.101 -0.2812  0.6934 -0.4776
 1773SOL    HW1 6218   2.986   5.247   2.163 -0.1473  0.7399 -0.5657
 1773SOL    HW2 6219   2.975   5.379   2.068 -0.5362  0.9364 -0.2509
 1774SOL     OW 6220   6.076   2.541   6.915  0.2382 -0.2513 -0.3699
 1774SOL    HW1 6221   6.052   2.531   7.012  2.0635  1.9221  0.3879
 1774SOL    HW2 6222   6.175   2.554   6.907 -0.0879  1.4362 -2.3358
 1775SOL     OW 6223   3.137   0.303   0.176 -0.0776 -0.2231  0.5333
 1775SOL    HW1 6224   3.205   0.373   0.194 -0.3214  0.2185 -0.2214
 1775SOL    HW2 6225   3.178   0.213   0.187  0.2537  0.0279  1.4478
 1776SOL     OW 6226   3.363   0.201   4.264  0.4905 -0.4672  0.2859
 1776SOL    HW1 6227   3.302   0.276   4.238 -1.3535 -1.5210  1.4135
 1776SOL    HW2 6228   3.449   0.210   4.214 -0.7633  0.7641 -1.8135
 1777SOL     OW 6229   1.490   3.174   5.130 -0.4377  0.1588 -0.3101
 1777SOL    HW1 6230   1.428   3.188   5.208  1.0054 -0.0217  0.9091
 1777SOL    HW2 6231   1.481   3.080   5.098  0.1339 -0.2667  0.7231
 1778SOL     OW 6232   0.158   0.831   6.543  0.5077 -0.3965 -0.4210
 1778SOL    HW1 6233   0.066   0.815   6.507 -0.3291  0.2769  1.3079
 1778SOL    HW2 6234   0.209   0.745   6.544 -0.0501 -0.7553 -1.5121
 1779SOL     OW 6235   6.674   0.632   1.693 -0.1223  0.1460 -0.6250
 1779SOL    HW1 6236   6.622   0.552   1.723 -1.4263 -0.5608 -4.1725
 1779SOL    HW2 6237   6.770   0.619   1.715 -0.5538 -1.5753  0.4431
 1780SOL     OW 6238   1.030   3.788   3.097  0.1984 -0.9796  0.2270
 1780SOL    HW1 6239   1.035   3.798   3.196 -0.4781  0.4303  0.1418
 1780SOL    HW2 6240   1.121   3.766   3.061  0.4721 -1.3763  1.1321
 1781SOL     OW 6241   6.403   0.995   1.532  0.6890 -0.2524  0.9077
 1781SOL    HW1 6242   6.441   1.048   1.608  0.4166 -0.2622  1.0496
 1781SOL    HW2 6243   6.402   0.898   1.556  0.0011 -0.1910  1.1490
 1782SOL     OW 6244   3.425   6.828   4.746 -0.6755 -0.3109 -0.4753
 1782SOL    HW1 6245   3.445   6.806   4.842 -0.1584  0.1594 -0.4744
 1782SOL    HW2 6246   3.334   6.793   4.723  0.8171 -4.2991 -1.0559
 1783SOL     OW 6247   2.175   1.894   3.918  0.0501  0.5467  0.4611
 1783SOL    HW1 6248   2.082   1.930   3.918  0.2321  1.1666 -2.0403
 1783SOL    HW2 6249   2.238   1.964   3.888  1.5928  0.5198  3.2779
 1784SOL     OW 6250   5.651   4.543   2.878 -0.2237 -0.1250  0.0224
 1784SOL    HW1 6251   5.690   4.456   2.847  0.5536 -0.0173  0.6396
 1784SOL    HW2 6252   5.644   4.606   2.801  0.9919 -0.1002 -0.0959
 1785SOL     OW 6253   5.911   1.808   5.978 -0.2659 -0.2677  0.1311
 1785SOL    HW1 6254   5.967   1.770   5.904  1.2891 -0.2346  1.2483
 1785SOL    HW2 6255   5.867   1.892   5.947  0.9876  0.1676 -0.5261
 1786SOL     OW 6256   2.413   1.427   3.432 -0.2602 -0.1258 -0.0062
 1786SOL    HW1 6257   2.390   1.332   3.455  0.0247 -0.5101 -1.2314
 1786SOL    HW2 6258   2.459   1.469   3.510 -0.2847 -1.0286  0.5176
 1787SOL     OW 6259   0.412   2.204   1.250 -0.4229 -0.8900 -0.6730
 1787SOL    HW1 6260   0.347   2.232   1.322  0.9890 -0.3777  0.4532
 1787SOL    HW2 6261   0.432   2.107   1.260 -0.7113 -0.9636 -0.7846
 1788SOL     OW 6262   5.557   1.511   0.524  0.2230  0.3795  0.2970
 1788SOL    HW1 6263   5.463   1.533   0.551 -0.4855 -3.0158  1.1769
 1788SOL    HW2 6264   5.621   1.571   0.572 -1.3976  0.1051  3.0063
 1789SOL     OW 6265   3.643   4.014   0.001 -0.6864  0.9694  0.0584
 1789SOL    HW1 6266   3.655   3.975  -0.090 -0.5241  0.8341  0.1386
 1789SOL    HW2 6267   3.686   3.955   0.069  0.3726  1.7538  0.0844
 1790SOL     OW 6268   4.335   4.376   5.699 -0.5528 -0.8990  0.0615
 1790SOL    HW1 6269   4.315   4.403   5.793  0.4179 -0.5648  0.1781
 1790SOL    HW2 6270   4.342   4.276   5.694 -1.7563 -0.9993  0.1027
 1791SOL     OW 6271   6.831   2.120   2.217  0.5811 -0.0824  0.1345
 1791SOL    HW1 6272   6.887   2.051   2.171  0.3480  0.4681 -1.0101
 1791SOL    HW2 6273   6.736   2.109   2.188  0.7072  1.4098 -0.9539
 1792SOL     OW 6274   3.572   5.443   1.708  0.0957 -1.0436 -0.7669
 1792SOL    HW1 6275   3.574   5.369   1.776 -1.1171  0.4843  1.0436
 1792SOL    HW2 6276   3.477   5.470   1.691  0.5186  1.7386  0.6058
 1793SOL     OW 6277   2.062   7.005   3.343  0.9266 -0.2339 -0.2110
 1793SOL    HW1 6278   1.969   6.992   3.308  0.6383 -0.3613  0.5775
 1793SOL    HW2 6279   2.067   7.092   3.392  1.5239  0.2999 -1.1954
 1794SOL     OW 6280   0.246   5.014   6.490  0.1670 -0.9476  0.6609
 1794SOL    HW1 6281   0.236   5.101   6.539 -2.1443 -1.1972  0.7343
 1794SOL    HW2 6282   0.298   5.030   6.406 -1.4647  0.8748 -0.0910
 1795SOL     OW 6283   4.406   0.572   1.383 -0.5687  0.1958 -0.1271
 1795SOL    HW1 6284   4.372   0.484   1.414 -0.1390 -0.3027 -1.0390
 1795SOL    HW2 6285   4.361   0.645   1.435  1.0721 -0.6111  2.6570
 1796SOL     OW 6286   4.028   6.025   6.590  0.1018  0.6247  0.3417
 1796SOL    HW1 6287   3.931   6.025   6.566  0.4140  0.3608 -1.0421
 1796SOL    HW2 6288   4.045   6.092   6.663 -1.0934  0.7591  0.5126
 1797SOL     OW 6289   4.500   1.300   1.486 -0.1860  0.1343  0.6252
 1797SOL    HW1 6290   4.482   1.391   1.451 -1.1923  0.4211  1.8207
 1797SOL    HW2 6291   4.599   1.283   1.485 -0.0679  0.7755 -0.6644
 1798SOL     OW 6292   2.065   0.797   5.921  0.0205  0.4706 -0.0482
 1798SOL    HW1 6293   2.160   0.775   5.945  0.0560  0.4535 -0.1969
 1798SOL    HW2 6294   2.003   0.757   5.988  0.1447  0.9422  0.3570
 1799SOL     OW 6295   1.191   4.706   2.490  0.2942 -0.1866 -0.5661
 1799SOL    HW1 6296   1.285   4.739   2.479 -0.0024  1.0158  0.3761
 1799SOL    HW2 6297   1.145   4.758   2.561 -0.3375 -2.3850  0.7377
 1800SOL     OW 6298   3.561   4.194   4.924  0.2865  0.3028  0.0344
 1800SOL    HW1 6299   3.637   4.129   4.932  1.8788  2.0518 -0.0781
 1800SOL    HW2 6300   3.586   4.266   4.859 -2.0069  0.2707 -0.9549
 1801SOL     OW 6301   5.990   6.123   5.984  0.1138 -0.6121 -0.4243
 1801SOL    HW1 6302   6.037   6.131   5.896  0.4450 -0.1178 -0.2069
 1801SOL    HW2 6303   6.002   6.207   6.036 -0.1755 -0.8589  0.0484
 1802SOL     OW 6304   5.939   6.537   4.487 -0.3219 -0.1973  0.4202
 1802SOL    HW1 6305   5.864   6.487   4.530 -0.3681 -0.9183 -0.4581
 1802SOL    HW2 6306   5.938   6.519   4.389  1.7289 -1.2410  0.5335
 1803SOL     OW 6307   4.901   0.488   1.418 -0.8704  0.1346 -0.1752
 1803SOL    HW1 6308   4.882   0.564   1.479 -1.7832 -1.3237  1.4455
 1803SOL    HW2 6309   4.841   0.411   1.440  2.5444 -2.5014  0.9447
 1804SOL     OW 6310   6.760   2.072   6.076 -0.3809  0.6908 -0.4304
 1804SOL    HW1 6311   6.734   2.086   6.172  0.4530  1.4708 -0.3024
 1804SOL    HW2 6312   6.680   2.086   6.017 -0.7088  1.0495  0.0931
 1805SOL     OW 6313   4.718   4.239   3.483  0.3775 -0.2755 -0.3992
 1805SOL    HW1 6314   4.636   4.294   3.498  0.2787 -0.8723  1.5522
 1805SOL    HW2 6315   4.797   4.299   3.471  0.3515  0.3956  2.1049
 1806SOL     OW 6316   0.849   1.859   2.685  0.2766  0.3872  0.4288
 1806SOL    HW1 6317   0.922   1.826   2.746  0.2881  0.1916  0.3074
 1806SOL    HW2 6318   0.863   1.823   2.593 -1.2745 -1.5805  0.9036
 1807SOL     OW 6319   2.961   5.889   4.394 -0.1857  0.2435  0.0951
 1807SOL    HW1 6320   2.994   5.814   4.335  0.9376  0.8983 -0.1503
 1807SOL    HW2 6321   2.880   5.859   4.443  0.7443 -1.4656  0.6937
 1808SOL     OW 6322   0.259   2.943   3.923  0.2613  0.2737 -0.2743
 1808SOL    HW1 6323   0.308   3.019   3.966 -1.7875  1.0638  0.8433
 1808SOL    HW2 6324   0.178   2.979   3.876  1.2246 -0.8387 -2.9838
 1809SOL     OW 6325   5.896   6.903   4.023  0.0138 -0.0121 -0.2293
 1809SOL    HW1 6326   5.796   6.893   4.029  0.0660  0.1299  1.1565
 1809SOL    HW2 6327   5.918   6.973   3.954 -0.8949  0.7332  0.2101
 1810SOL     OW 6328   3.271   5.453   4.257 -0.2394 -0.5523  0.1346
 1810SOL    HW1 6329   3.226   5.413   4.337 -0.7354 -0.8863 -0.2992
 1810SOL    HW2 6330   3.207   5.452   4.180 -1.2534  3.5228  0.7207
 1811SOL     OW 6331   5.034   1.589   2.302 -0.2857 -0.0451  0.0908
 1811SOL    HW1 6332   5.008   1.493   2.313  2.1555 -0.9805 -1.5333
 1811SOL    HW2 6333   4.957   1.648   2.327 -1.7973 -2.4000  1.2500
 1812SOL     OW 6334   6.268   4.553   2.052 -0.4440 -0.3589 -0.3463
 1812SOL    HW1 6335   6.208   4.556   1.972 -1.5217 -1.5004  0.3914
 1812SOL    HW2 6336   6.213   4.534   2.134  0.9536 -1.8054  0.3008
 1813SOL     OW 6337   2.253   3.876   5.459 -0.2306 -0.4048  0.2907
 1813SOL    HW1 6338   2.173   3.863   5.400  0.1090 -1.7133  0.0804
 1813SOL    HW2 6339   2.336   3.854   5.408  0.3916  1.9093  0.1959
 1814SOL     OW 6340   5.807   2.936   2.426 -0.0785  0.4504 -0.1313
 1814SOL    HW1 6341   5.766   2.968   2.511  0.0817  0.1764  0.0514
 1814SOL    HW2 6342   5.792   2.837   2.416 -0.1161  0.4857 -0.4317
 1815SOL     OW 6343   4.676   1.160   0.183  0.7259  0.6169  0.5865
 1815SOL    HW1 6344   4.775   1.158   0.196  1.0082  3.5821 -0.3482
 1815SOL    HW2 6345   4.631   1.122   0.263  2.5795 -1.2252  0.8460
 1816SOL     OW 6346   3.055   5.624   4.324 -0.1308  0.1767 -0.1563
 1816SOL    HW1 6347   3.119   5.552   4.353 -0.7831 -0.2508  0.2602
 1816SOL    HW2 6348   2.984   5.583   4.266 -0.1154  0.6190 -0.4890
 1817SOL     OW 6349   4.417   3.159   6.993  0.0729  0.0138 -0.3973
 1817SOL    HW1 6350   4.324   3.185   6.968 -0.7516 -2.5217 -0.2075
 1817SOL    HW2 6351   4.436   3.189   7.087 -0.8587 -0.1778 -0.1386
 1818SOL     OW 6352   2.177   0.662   2.281 -0.2450  0.1291  0.4184
 1818SOL    HW1 6353   2.272   0.631   2.281  0.3102  1.6799 -0.8677
 1818SOL    HW2 6354   2.153   0.697   2.190 -2.1042 -0.3452  0.6766
 1819SOL     OW 6355   2.304   5.746   4.405 -0.2955  0.1722 -0.3014
 1819SOL    HW1 6356   2.234   5.710   4.466 -1.0474  0.0234 -1.2225
 1819SOL    HW2 6357   2.344   5.671   4.352  1.7209  0.0210  1.3389
 1820SOL     OW 6358   3.959   0.947   6.952 -0.1708  0.1468 -0.2867
 1820SOL    HW1 6359   4.025   0.873   6.938  0.9587  1.4871 -2.5663
 1820SOL    HW2 6360   3.885   0.939   6.885  0.1858  1.2815 -0.8437
 1821SOL     OW 6361   1.746   1.827   6.154  0.3035 -0.0424 -0.1594
 1821SOL    HW1 6362   1.678   1.755   6.168 -1.1853  1.2789 -0.3285
 1821SOL    HW2 6363   1.829   1.806   6.207  0.3582 -2.4015 -1.0503
 1822SOL     OW 6364   2.086   4.690   5.751  0.4053 -0.3304 -0.1917
 1822SOL    HW1 6365   2.123   4.629   5.682 -1.2313 -0.9963 -0.5195
 1822SOL    HW2 6366   2.044   4.637   5.824  1.9964  0.3677  1.3014
 1823SOL     OW 6367   1.170   5.556   1.232  0.0073  0.3011 -0.0078
 1823SOL    HW1 6368   1.242   5.487   1.224  0.3749  0.5343  1.1250
 1823SOL    HW2 6369   1.145   5.589   1.141  1.0929 -0.0294 -0.4410
 1824SOL     OW 6370   3.135   4.714   6.743 -0.0857 -0.1277  0.0095
 1824SOL    HW1 6371   3.224   4.687   6.781 -0.3478 -0.7522  0.2042
 1824SOL    HW2 6372   3.148   4.771   6.663  0.4936 -0.0748  0.1396
 1825SOL     OW 6373   1.684   6.736   0.457 -0.7643 -0.9796  0.3809
 1825SOL    HW1 6374   1.775   6.775   0.470 -1.3677  0.2509  1.1170
 1825SOL    HW2 6375   1.689   6.636   0.465  0.5864 -0.9783 -0.1288
 1826SOL     OW 6376   3.353   2.051   3.351 -0.1512 -0.9398  0.3455
 1826SOL    HW1 6377   3.384   2.065   3.257  1.0316  0.3673  0.9016
 1826SOL    HW2 6378   3.259   2.086   3.360 -0.3262 -1.2033 -0.3706
 1827SOL     OW 6379   5.435   3.942   5.784  0.5214  0.1452 -0.4925
 1827SOL    HW1 6380   5.409   3.973   5.876 -0.3727  3.1186 -1.6124
 1827SOL    HW2 6381   5.433   4.020   5.721  0.5599 -1.8887 -3.1984
 1828SOL     OW 6382   3.770   5.188   3.550 -0.4462  0.4923 -0.3001
 1828SOL    HW1 6383   3.709   5.226   3.480 -0.1750 -1.1032 -1.4572
 1828SOL    HW2 6384   3.855   5.240   3.551 -0.0572 -0.0547 -1.8814
 1829SOL     OW 6385   6.225   5.939   4.332  0.6344 -0.0468  0.3386
 1829SOL    HW1 6386   6.194   6.014   4.274 -2.2949 -2.4136 -1.4332
 1829SOL    HW2 6387   6.225   5.969   4.427 -0.0829  2.2687 -0.3130
 1830SOL     OW 6388   1.332   0.777   5.934  0.3193  0.1914 -0.3645
 1830SOL    HW1 6389   1.359   0.741   6.023  1.1511  0.5796 -0.4435
 1830SOL    HW2 6390   1.287   0.706   5.880  0.3995 -0.2280  0.1234
 1831SOL     OW 6391   2.300   5.298   3.173 -0.2195  0.1265 -0.9290
 1831SOL    HW1 6392   2.386   5.275   3.128  0.4783  0.7948  0.0237
 1831SOL    HW2 6393   2.310   5.284   3.272 -1.2466  0.1157 -0.8143
 1832SOL     OW 6394   0.325   6.686   4.091  0.2065  0.1023 -0.3711
 1832SOL    HW1 6395   0.309   6.743   4.172 -0.1804  1.0947 -1.1228
 1832SOL    HW2 6396   0.423   6.669   4.081  0.3836  1.0796 -0.4081
 1833SOL     OW 6397   5.050   3.762   3.534  0.5897 -0.0795  0.4581
 1833SOL    HW1 6398   5.024   3.858   3.535  1.1681  0.1503 -1.4885
 1833SOL    HW2 6399   5.142   3.751   3.573  0.6880  0.2275  0.3140
 1834SOL     OW 6400   1.485   2.729   3.433 -0.3158  0.7565 -0.2898
 1834SOL    HW1 6401   1.581   2.742   3.456 -0.2844 -0.4788  0.3479
 1834SOL    HW2 6402   1.427   2.780   3.497 -0.1072  1.3401 -0.5551
 1835SOL     OW 6403   1.008   5.906   0.014 -0.4575 -0.0481  0.2118
 1835SOL    HW1 6404   0.975   5.865  -0.070 -0.2937  0.6631 -0.2090
 1835SOL    HW2 6405   1.000   6.006   0.009  1.1303  0.1255  0.3300
 1836SOL     OW 6406   0.232   3.916   2.873  0.6633  0.6087 -0.2921
 1836SOL    HW1 6407   0.278   3.935   2.786  0.4990 -0.9682 -0.7493
 1836SOL    HW2 6408   0.169   3.839   2.862 -0.1264  1.0356  0.9844
 1837SOL     OW 6409   5.919   4.989   2.381 -0.5073 -0.6131 -0.1820
 1837SOL    HW1 6410   5.850   5.013   2.448 -0.7262 -1.0818 -0.2393
 1837SOL    HW2 6411   5.876   4.943   2.303 -0.2886  0.1165 -0.7502
 1838SOL     OW 6412   2.526   5.452   1.954 -0.2514  0.4531 -0.2703
 1838SOL    HW1 6413   2.586   5.391   1.901  0.6186 -0.0443  1.2260
 1838SOL    HW2 6414   2.475   5.511   1.891  0.0360 -0.7380 -1.6961
 1839SOL     OW 6415   5.530   6.417   3.506 -0.2271  0.2945 -0.0111
 1839SOL    HW1 6416   5.490   6.353   3.572  1.6502 -2.1868 -1.1271
 1839SOL    HW2 6417   5.622   6.441   3.536  0.0169  0.4738 -0.8942
 1840SOL     OW 6418   3.358   1.771   3.336  0.0658  0.1356  0.5470
 1840SOL    HW1 6419   3.446   1.758   3.291  0.5840  1.3710  1.1504
 1840SOL    HW2 6420   3.345   1.868   3.357 -1.4700 -0.0244  0.4209
 1841SOL     OW 6421   5.204   3.972   2.568 -0.7623 -0.2233 -0.0634
 1841SOL    HW1 6422   5.137   3.932   2.631 -2.2179  1.5775 -0.3692
 1841SOL    HW2 6423   5.236   4.060   2.605  0.6894 -0.5774 -0.4222
 1842SOL     OW 6424   4.179   5.035   1.627  0.2176  0.7426 -0.3702
 1842SOL    HW1 6425   4.127   5.004   1.707 -0.0208  1.8301 -0.0866
 1842SOL    HW2 6426   4.141   4.995   1.544 -0.5237  0.8358 -0.0845
 1843SOL     OW 6427   6.449   0.665   4.091  0.3836 -0.3197  0.1458
 1843SOL    HW1 6428   6.439   0.630   3.998  1.6040  0.2941 -0.2361
 1843SOL    HW2 6429   6.534   0.717   4.099 -0.3516  0.7838  1.2635
 1844SOL     OW 6430   3.436   1.996   2.572 -0.3967 -0.8607  0.1259
 1844SOL    HW1 6431   3.403   1.934   2.643 -1.7419  0.6066  0.8478
 1844SOL    HW2 6432   3.422   1.956   2.482 -1.7355 -1.3877  0.5504
 1845SOL     OW 6433   0.545   4.697   2.131  0.0063 -0.2134  0.7750
 1845SOL    HW1 6434   0.448   4.685   2.153 -0.1747 -0.5584 -0.1499
 1845SOL    HW2 6435   0.570   4.631   2.060  0.2110  1.7010 -1.0217
 1846SOL     OW 6436   5.904   6.799   2.710 -0.3245 -0.8345 -1.4074
 1846SOL    HW1 6437   5.871   6.818   2.617 -0.0366  0.0724 -1.3387
 1846SOL    HW2 6438   5.855   6.857   2.775  0.7146 -0.1534 -1.2058
 1847SOL     OW 6439   4.145   3.295   3.986 -0.2285  0.4062  0.1846
 1847SOL    HW1 6440   4.239   3.309   3.955  0.4889  1.2895  2.5148
 1847SOL    HW2 6441   4.086   3.280   3.907  1.6392  1.1080 -1.4441
 1848SOL     OW 6442   0.369   1.901   2.774  0.2094  0.2586  0.3643
 1848SOL    HW1 6443   0.373   2.001   2.763  0.2656  0.1655 -0.4763
 1848SOL    HW2 6444   0.441   1.858   2.719 -0.6847 -0.3274 -0.3698
 1849SOL     OW 6445   0.604   4.424   0.611 -0.1213  0.4698  0.5329
 1849SOL    HW1 6446   0.521   4.474   0.637 -1.7786 -0.3279 -2.6556
 1849SOL    HW2 6447   0.660   4.482   0.551  0.0046 -0.0947  0.1023
 1850SOL     OW 6448   2.048   2.254   2.221 -0.2995 -0.4360 -0.2634
 1850SOL    HW1 6449   2.033   2.352   2.212  2.3741  0.1253  0.6000
 1850SOL    HW2 6450   1.976   2.214   2.277 -1.9493  0.8190 -1.4042
 1851SOL     OW 6451   4.459   1.245   3.987 -0.0976  0.5276 -0.1989
 1851SOL    HW1 6452   4.558   1.254   3.977  0.0648  0.7888  1.4654
 1851SOL    HW2 6453   4.414   1.292   3.910  1.0461  1.8806 -0.0882
 1852SOL     OW 6454   5.070   3.604   3.055  0.5205  0.3993 -0.1795
 1852SOL    HW1 6455   5.017   3.592   3.139  0.8442 -2.2625 -0.2898
 1852SOL    HW2 6456   5.008   3.626   2.980 -0.0855  0.1810  0.2443
 1853SOL     OW 6457   6.058   0.527   1.853 -0.0457 -0.0841  0.2250
 1853SOL    HW1 6458   6.008   0.579   1.923  0.0645  2.1587 -1.2865
 1853SOL    HW2 6459   6.097   0.445   1.895  0.1885  1.2610  2.8552
 1854SOL     OW 6460   1.298   0.862   3.428 -0.2257 -0.6179  0.1828
 1854SOL    HW1 6461   1.213   0.905   3.461  0.1407 -0.7754  1.3888
 1854SOL    HW2 6462   1.359   0.846   3.506  0.4530 -1.5240 -0.5203
 1855SOL     OW 6463   6.699   5.250   3.548  0.3170 -0.0637 -0.2605
 1855SOL    HW1 6464   6.687   5.204   3.636  0.6250  0.7167  0.2031
 1855SOL    HW2 6465   6.613   5.251   3.498  0.1833 -0.6668 -0.0433
 1856SOL     OW 6466   5.053   0.132   1.563  0.5240 -0.3841  0.1621
 1856SOL    HW1 6467   5.119   0.207   1.565  0.3057 -0.2209  1.5588
 1856SOL    HW2 6468   5.086   0.057   1.620  0.9980 -1.6020 -1.6306
 1857SOL     OW 6469   5.272   6.670   2.651 -0.1568 -0.1101  0.1548
 1857SOL    HW1 6470   5.258   6.697   2.746  1.0425 -1.7420  0.8273
 1857SOL    HW2 6471   5.225   6.584   2.632 -2.4411  1.3644 -1.4742
 1858SOL     OW 6472   3.629   1.537   3.892  0.7837  0.3370 -0.0579
 1858SOL    HW1 6473   3.532   1.524   3.871  0.9150  1.0507 -1.1995
 1858SOL    HW2 6474   3.668   1.605   3.829  2.0410  0.0137  0.3405
 1859SOL     OW 6475   1.269   1.198   6.778  0.2665 -0.4958 -0.0033
 1859SOL    HW1 6476   1.214   1.232   6.855  0.4420 -0.5619  0.1536
 1859SOL    HW2 6477   1.290   1.273   6.715 -0.7220 -0.6344 -0.5077
 1860SOL     OW 6478   3.542   5.422   0.733 -0.2603  0.3642  0.0163
 1860SOL    HW1 6479   3.557   5.330   0.768 -2.8764  0.3594  1.4348
 1860SOL    HW2 6480   3.618   5.481   0.759 -0.7415 -0.3034  3.5190
 1861SOL     OW 6481   1.303   4.544   0.524  0.4026 -0.3689 -0.0189
 1861SOL    HW1 6482   1.369   4.541   0.450 -2.2632  0.2195 -2.6266
 1861SOL    HW2 6483   1.229   4.480   0.506 -0.7381  0.3625  1.7333
 1862SOL     OW 6484   0.227   1.383   3.935  0.5454  0.5192 -0.6742
 1862SOL    HW1 6485   0.181   1.324   3.869  0.3518 -0.4670  0.3069
 1862SOL    HW2 6486   0.324   1.391   3.912  0.6567 -0.5057 -0.6166
 1863SOL     OW 6487   1.174   1.071   6.459 -0.2703  0.0653  0.0047
 1863SOL    HW1 6488   1.225   1.065   6.545  1.6359 -0.3179 -1.0761
 1863SOL    HW2 6489   1.193   1.160   6.416 -1.0432  0.1689 -0.1357
 1864SOL     OW 6490   0.584   2.213   2.290  0.2643 -0.3386  0.6524
 1864SOL    HW1 6491   0.617   2.143   2.227 -1.9767 -0.1863 -0.8040
 1864SOL    HW2 6492   0.524   2.172   2.358  0.0843 -0.0536  0.6703
 1865SOL     OW 6493   3.060   2.229   2.923  0.8616 -0.0978  0.1271
 1865SOL    HW1 6494   3.041   2.325   2.899 -0.6202 -0.3604  0.1696
 1865SOL    HW2 6495   3.131   2.194   2.862 -0.4647  0.2525 -1.7173
 1866SOL     OW 6496   3.998   1.356   2.619  0.2911 -0.2066 -0.1047
 1866SOL    HW1 6497   4.096   1.345   2.632  0.3678  0.8678  0.2969
 1866SOL    HW2 6498   3.963   1.425   2.683 -0.4897  0.3395 -1.0846
 1867SOL     OW 6499   6.156   1.666   6.906  0.6151  0.9061 -0.1256
 1867SOL    HW1 6500   6.173   1.621   6.994  0.4295  0.3041 -0.3874
 1867SOL    HW2 6501   6.196   1.611   6.832 -2.6844 -0.8373 -0.8228
 1868SOL     OW 6502   0.120   5.604   0.269 -0.7305 -0.1924 -0.3397
 1868SOL    HW1 6503   0.032   5.558   0.279 -0.0948 -1.1762  1.0451
 1868SOL    HW2 6504   0.126   5.646   0.178 -2.7326  0.1661 -0.3421
 1869SOL     OW 6505   0.050   6.748   2.979  0.1548 -0.0293  0.4041
 1869SOL    HW1 6506   0.054   6.808   3.059  1.7405 -0.6116  0.8000
 1869SOL    HW2 6507   0.137   6.753   2.929  0.7881 -2.7582  1.0556
 1870SOL     OW 6508   2.371   2.657   0.423 -0.1514  0.0927  0.0096
 1870SOL    HW1 6509   2.446   2.595   0.447  0.5261  0.7995 -0.2419
 1870SOL    HW2 6510   2.298   2.605   0.379  0.1551 -0.6194  0.3272
 1871SOL     OW 6511   7.012   1.876   4.771 -0.0505 -0.0914 -0.8723
 1871SOL    HW1 6512   6.927   1.837   4.738 -0.0894  0.8895 -2.0353
 1871SOL    HW2 6513   7.089   1.839   4.718  0.2152 -0.7092 -0.0679
 1872SOL     OW 6514   2.265   1.028   1.645 -0.4392  0.3361 -0.4837
 1872SOL    HW1 6515   2.233   1.122   1.634 -1.0506  0.0161 -1.6972
 1872SOL    HW2 6516   2.189   0.965   1.624 -0.0862 -0.4230  0.4725
 1873SOL     OW 6517   5.940   0.109   4.610 -0.1777  0.5023  0.0873
 1873SOL    HW1 6518   5.948   0.132   4.513 -2.1883  0.7615 -0.0531
 1873SOL    HW2 6519   5.893   0.183   4.658 -1.7045 -0.8275  0.7127
 1874SOL     OW 6520   6.714   1.655   0.437 -0.2208 -0.6620 -0.4414
 1874SOL    HW1 6521   6.807   1.687   0.459 -0.9330  0.3941  1.2056
 1874SOL    HW2 6522   6.715   1.611   0.348  1.9377 -0.9786 -0.3218
 1875SOL     OW 6523   6.872   6.179   6.644  0.0572  0.1935  0.3070
 1875SOL    HW1 6524   6.952   6.154   6.698  0.0309  1.1325  0.8108
 1875SOL    HW2 6525   6.850   6.275   6.660 -0.1780  0.3986 -1.1095
 1876SOL     OW 6526   6.250   6.087   1.267  0.2451 -0.3736  0.2083
 1876SOL    HW1 6527   6.170   6.062   1.212  0.1895 -0.8283  0.4951
 1876SOL    HW2 6528   6.333   6.051   1.223  0.2991  0.1074 -0.0949
 1877SOL     OW 6529   2.766   5.668   4.858  0.7239 -0.4426 -0.0840
 1877SOL    HW1 6530   2.837   5.655   4.928  2.0199 -0.8706 -1.4238
 1877SOL    HW2 6531   2.774   5.761   4.821 -1.0130  0.3672  1.4038
 1878SOL     OW 6532   1.236   5.128   5.360 -0.1245  0.5248  0.2892
 1878SOL    HW1 6533   1.220   5.045   5.413  2.3690 -0.1971  0.0413
 1878SOL    HW2 6534   1.217   5.111   5.263 -0.8908  0.6551  0.4142
 1879SOL     OW 6535   4.004   5.681   6.003  0.3105 -0.5325  0.0493
 1879SOL    HW1 6536   3.949   5.685   6.086 -1.6379 -0.7835 -1.1824
 1879SOL    HW2 6537   3.988   5.763   5.948  1.3524 -0.5080 -0.2405
 1880SOL     OW 6538   2.863   2.097   2.743  0.2403  0.2523  0.0329
 1880SOL    HW1 6539   2.954   2.131   2.766  0.7641 -1.4476  0.6229
 1880SOL    HW2 6540   2.842   2.121   2.648  1.6191  0.0226 -0.3578
 1881SOL     OW 6541   1.362   5.285   1.840  0.1085  0.0161 -0.7066
 1881SOL    HW1 6542   1.355   5.305   1.743 -0.0793 -1.4222 -1.0105
 1881SOL    HW2 6543   1.364   5.370   1.892  1.8558  0.8651 -2.0687
 1882SOL     OW 6544   2.013   6.457   3.337  0.3658 -0.4235 -0.2854
 1882SOL    HW1 6545   1.940   6.521   3.314 -0.3432 -0.2486  2.2150
 1882SOL    HW2 6546   2.084   6.460   3.266 -0.1648  2.3257 -0.7828
 1883SOL     OW 6547   0.157   6.001   1.501 -0.0630 -0.8385 -0.0939
 1883SOL    HW1 6548   0.187   6.091   1.470  0.1791 -1.1420 -0.7681
 1883SOL    HW2 6549   0.097   5.960   1.431  1.7069 -2.1702 -0.9120
 1884SOL     OW 6550   4.815   2.147   5.958 -0.2651 -0.3394  0.0306
 1884SOL    HW1 6551   4.889   2.169   6.022 -0.6570  0.6373  0.1606
 1884SOL    HW2 6552   4.780   2.231   5.918 -1.8914 -0.7059  0.6149
 1885SOL     OW 6553   1.830   1.993   3.419 -0.0239  0.1163  0.0003
 1885SOL    HW1 6554   1.841   1.925   3.346  1.1347  0.1683  0.1112
 1885SOL    HW2 6555   1.907   1.986   3.483 -0.6553  0.5515  0.8346
 1886SOL     OW 6556   0.641   2.291   2.678  0.3316  0.0563 -0.5664
 1886SOL    HW1 6557   0.698   2.332   2.607  1.2939  2.2933  1.3721
 1886SOL    HW2 6558   0.698   2.234   2.738 -0.2226 -0.7429 -0.7806
 1887SOL     OW 6559   2.833   1.883   6.700  0.0426  0.6769 -0.2519
 1887SOL    HW1 6560   2.814   1.792   6.664  0.0534  1.2079 -1.6892
 1887SOL    HW2 6561   2.882   1.876   6.787 -0.2536 -0.6751 -0.1834
 1888SOL     OW 6562   3.680   3.437   3.494 -0.0389  0.7031  0.4933
 1888SOL    HW1 6563   3.582   3.448   3.482  0.2757  2.5463 -0.7888
 1888SOL    HW2 6564   3.698   3.357   3.552 -2.3188  1.2472  2.0741
 1889SOL     OW 6565   5.348   6.298   5.418  0.4921  0.2953 -0.2944
 1889SOL    HW1 6566   5.314   6.225   5.477  2.1526  0.7171  1.2613
 1889SOL    HW2 6567   5.333   6.386   5.462  0.6364  0.7300 -1.0951
 1890SOL     OW 6568   1.675   1.556   1.596 -0.7295 -0.1045 -0.2210
 1890SOL    HW1 6569   1.737   1.521   1.666 -0.4522 -1.8084 -1.2444
 1890SOL    HW2 6570   1.728   1.587   1.517 -1.1419 -2.0944 -1.3316
 1891SOL     OW 6571   4.184   1.627   1.059 -0.8569 -0.0607 -0.1603
 1891SOL    HW1 6572   4.271   1.610   1.105 -0.4167 -1.0470 -1.2919
 1891SOL    HW2 6573   4.109   1.617   1.124 -0.1542  0.5110  0.7663
 1892SOL     OW 6574   1.935   6.200   6.936 -0.3013 -0.3278 -0.1597
 1892SOL    HW1 6575   2.028   6.235   6.946 -0.2458 -0.6605  0.5702
 1892SOL    HW2 6576   1.896   6.182   7.027 -0.6412 -1.2994 -0.4803
 1893SOL     OW 6577   6.549   4.531   1.779 -0.0388 -0.4839  0.9743
 1893SOL    HW1 6578   6.576   4.595   1.851 -0.4247  3.1554 -1.7585
 1893SOL    HW2 6579   6.618   4.459   1.770  1.1195  0.1998  3.4603
 1894SOL     OW 6580   3.556   2.893   4.207  0.2352 -0.2154  0.4338
 1894SOL    HW1 6581   3.588   2.923   4.117 -0.6655  1.2632  0.5876
 1894SOL    HW2 6582   3.457   2.885   4.206  0.1481  0.6010  1.5247
 1895SOL     OW 6583   0.484   3.320   2.414 -0.1726 -0.2699 -0.1985
 1895SOL    HW1 6584   0.517   3.276   2.497  2.2468 -0.2460 -1.0593
 1895SOL    HW2 6585   0.402   3.273   2.381  0.7486 -2.4222  0.4015
 1896SOL     OW 6586   1.859   0.718   0.628 -0.0295 -0.2530 -0.6117
 1896SOL    HW1 6587   1.800   0.683   0.555 -0.0428  0.7398 -1.0901
 1896SOL    HW2 6588   1.901   0.804   0.599 -1.0405  0.8495  1.0205
 1897SOL     OW 6589   3.895   6.304   5.530 -0.5400 -0.3993 -0.2177
 1897SOL    HW1 6590   3.809   6.253   5.536 -0.4922 -0.4561  0.0028
 1897SOL    HW2 6591   3.886   6.390   5.580 -0.2223 -0.7549  0.4753
 1898SOL     OW 6592   5.200   6.654   1.945 -0.1443  0.0151  0.1328
 1898SOL    HW1 6593   5.258   6.597   1.886  0.1245  0.9028 -0.4945
 1898SOL    HW2 6594   5.193   6.613   2.035  0.8311 -0.5192 -0.0212
 1899SOL     OW 6595   2.502   6.868   1.396  0.0745 -0.4637  0.1559
 1899SOL    HW1 6596   2.437   6.936   1.362 -0.3879 -1.5289 -1.1816
 1899SOL    HW2 6597   2.571   6.850   1.326  0.5819 -0.8842  0.7516
 1900SOL     OW 6598   2.877   6.274   5.214  0.0972 -0.4302  0.0827
 1900SOL    HW1 6599   2.830   6.328   5.283 -1.8693 -0.9519 -0.7945
 1900SOL    HW2 6600   2.825   6.191   5.193  1.7476 -1.3966 -0.4638
 1901SOL     OW 6601   2.339   0.279   3.174  0.2970 -0.0518 -0.2092
 1901SOL    HW1 6602   2.389   0.240   3.097 -0.0479 -0.2306 -0.3474
 1901SOL    HW2 6603   2.324   0.208   3.243  2.0803  0.5025  0.8106
 1902SOL     OW 6604   1.310   0.715   6.242  0.2954  0.1306 -0.6772
 1902SOL    HW1 6605   1.250   0.791   6.215  0.7001  0.6511 -0.1501
 1902SOL    HW2 6606   1.395   0.752   6.279 -0.0514 -0.5464  0.8833
 1903SOL     OW 6607   4.780   4.244   1.897 -0.6247  0.0438 -0.8429
 1903SOL    HW1 6608   4.790   4.272   1.992 -0.6484 -1.0033 -0.5208
 1903SOL    HW2 6609   4.685   4.217   1.880 -1.0644  1.9327 -1.6583
 1904SOL     OW 6610   5.821   2.266   3.736  0.5828  0.0426  0.2569
 1904SOL    HW1 6611   5.848   2.180   3.778 -1.6805  0.3781  2.6230
 1904SOL    HW2 6612   5.858   2.343   3.788  2.2807  0.6102 -1.6239
 1905SOL     OW 6613   0.635   4.857   4.127 -0.0793 -0.0899 -0.2607
 1905SOL    HW1 6614   0.629   4.785   4.195  0.9337 -0.2810 -0.3461
 1905SOL    HW2 6615   0.691   4.932   4.163 -1.9098  1.1227  0.2030
 1906SOL     OW 6616   4.438   4.771   5.308 -0.2406  0.4525 -0.0691
 1906SOL    HW1 6617   4.449   4.870   5.307  1.3854  0.3063 -1.8290
 1906SOL    HW2 6618   4.343   4.748   5.330 -0.6124  2.3710  0.4959
 1907SOL     OW 6619   6.158   6.665   6.705  0.2656 -0.4262 -0.6618
 1907SOL    HW1 6620   6.125   6.605   6.632  0.9072  1.1177 -2.2662
 1907SOL    HW2 6621   6.220   6.613   6.764  2.3628 -0.9511 -3.1351
 1908SOL     OW 6622   1.655   4.414   5.440 -0.0316  0.4100 -0.0037
 1908SOL    HW1 6623   1.718   4.468   5.497 -1.2784  1.8092  0.1111
 1908SOL    HW2 6624   1.566   4.460   5.436 -0.5713 -0.6930 -1.4832
 1909SOL     OW 6625   6.264   2.232   3.760 -0.3456 -0.1130 -0.3486
 1909SOL    HW1 6626   6.193   2.303   3.762 -2.3556 -1.9332 -2.2054
 1909SOL    HW2 6627   6.348   2.271   3.725 -1.3368  1.4158 -1.1416
 1910SOL     OW 6628   3.398   1.914   2.304 -0.8450 -0.0891 -0.0014
 1910SOL    HW1 6629   3.491   1.939   2.276 -1.4756  0.5924 -1.5990
 1910SOL    HW2 6630   3.332   1.959   2.245 -2.1868 -1.5015  0.3457
 1911SOL     OW 6631   5.149   5.069   3.523  0.2999 -0.2683 -0.8062
 1911SOL    HW1 6632   5.060   5.106   3.549  0.9599  1.6842 -1.1550
 1911SOL    HW2 6633   5.158   5.071   3.423  1.6497  1.9971 -0.7127
 1912SOL     OW 6634   1.054   6.966   3.641  0.1957  0.2220 -0.3189
 1912SOL    HW1 6635   1.086   7.051   3.599  0.1536  1.0665  1.2912
 1912SOL    HW2 6636   0.954   6.965   3.643  0.1851  1.2686  1.7836
 1913SOL     OW 6637   1.258   5.694   0.809  0.1083 -0.4707  0.1383
 1913SOL    HW1 6638   1.310   5.714   0.892  0.1569  1.6810 -0.3656
 1913SOL    HW2 6639   1.301   5.738   0.730 -3.1395  2.7770 -0.0820
 1914SOL     OW 6640   5.805   5.786   4.405 -0.6379 -0.5939 -0.4136
 1914SOL    HW1 6641   5.799   5.705   4.346 -0.9054 -0.2968 -0.7994
 1914SOL    HW2 6642   5.744   5.857   4.371 -0.6191 -0.3303  0.0915
 1915SOL     OW 6643   2.402   4.848   6.468  0.0975 -0.5082  1.0758
 1915SOL    HW1 6644   2.488   4.852   6.519  1.6867 -0.0369 -1.4269
 1915SOL    HW2 6645   2.409   4.778   6.397 -1.5155 -0.2923  0.6705
 1916SOL     OW 6646   3.245   5.762   1.452  0.1982 -0.7491  0.3853
 1916SOL    HW1 6647   3.208   5.777   1.360 -1.0504 -1.4757  0.7475
 1916SOL    HW2 6648   3.325   5.820   1.466  0.3907 -0.6083 -1.1497
 1917SOL     OW 6649   3.111   3.089   3.394  0.6624 -0.0042  0.0424
 1917SOL    HW1 6650   3.159   3.019   3.342 -0.4873 -1.1648  0.4817
 1917SOL    HW2 6651   3.128   3.075   3.492 -0.6639 -0.5648  0.2253
 1918SOL     OW 6652   5.443   4.183   2.693  0.2652 -0.1135 -0.9125
 1918SOL    HW1 6653   5.392   4.196   2.778 -0.8091  2.6392 -1.8742
 1918SOL    HW2 6654   5.500   4.101   2.700 -0.1588 -0.2350  2.2362
 1919SOL     OW 6655   3.096   6.651   3.725  0.1162 -0.0439  0.2500
 1919SOL    HW1 6656   3.019   6.607   3.771 -0.5768  2.1620  1.3347
 1919SOL    HW2 6657   3.062   6.707   3.649  0.7176  0.4720  0.3576
 1920SOL     OW 6658   5.432   3.717   0.168 -0.0806  0.1563  0.1769
 1920SOL    HW1 6659   5.390   3.667   0.244  3.6452 -3.7743 -0.0077
 1920SOL    HW2 6660   5.385   3.693   0.082 -0.3546 -0.4298  0.4852
 1921SOL     OW 6661   3.206   3.069   1.777  0.1046  0.1062 -0.3632
 1921SOL    HW1 6662   3.130   3.065   1.713  1.2300  1.4544 -1.8428
 1921SOL    HW2 6663   3.182   3.017   1.859 -1.8706 -0.6052 -1.3155
 1922SOL     OW 6664   3.731   0.759   0.927 -0.5533 -0.2186 -0.3511
 1922SOL    HW1 6665   3.724   0.683   0.862 -1.6099  0.3769 -0.9676
 1922SOL    HW2 6666   3.672   0.834   0.897  3.3895  2.5631 -2.0930
 1923SOL     OW 6667   6.444   2.581   3.510 -0.0561 -0.2578 -0.8498
 1923SOL    HW1 6668   6.357   2.579   3.461  0.8761 -1.7389 -2.5780
 1923SOL    HW2 6669   6.460   2.673   3.545 -3.3858 -0.4308  1.6567
 1924SOL     OW 6670   4.834   4.680   1.792  0.0687 -0.3627 -0.1342
 1924SOL    HW1 6671   4.845   4.684   1.892  1.4362 -0.8658 -0.2372
 1924SOL    HW2 6672   4.900   4.741   1.749 -1.3078  0.7462 -0.7235
 1925SOL     OW 6673   6.467   0.976   0.886 -0.1749 -0.7082  0.0005
 1925SOL    HW1 6674   6.391   0.965   0.950 -1.4812 -1.5441 -1.6334
 1925SOL    HW2 6675   6.542   0.915   0.913 -1.2973 -2.1655 -0.1238
 1926SOL     OW 6676   1.115   1.893   2.805  0.6581 -0.0629  0.3470
 1926SOL    HW1 6677   1.105   1.964   2.736 -1.2349 -0.0968  0.5532
 1926SOL    HW2 6678   1.083   1.927   2.893  1.2860 -0.6441  0.8169
 1927SOL     OW 6679   0.318   3.254   1.885 -0.0278  0.3325 -0.7232
 1927SOL    HW1 6680   0.365   3.297   1.808  0.2343  2.5769  0.6147
 1927SOL    HW2 6681   0.378   3.253   1.965 -1.2626  0.6721  0.2423
 1928SOL     OW 6682   0.646   3.859   6.333  0.1541  0.3228  0.1034
 1928SOL    HW1 6683   0.566   3.907   6.297 -0.2377 -0.4505 -0.0893
 1928SOL    HW2 6684   0.632   3.760   6.324  0.4663  0.1378  1.4932
 1929SOL     OW 6685   1.891   2.762   5.820 -0.1909 -0.2774 -0.3812
 1929SOL    HW1 6686   1.986   2.748   5.848 -0.2481 -3.2858 -1.4009
 1929SOL    HW2 6687   1.885   2.845   5.763  0.9795  2.3288  2.9636
 1930SOL     OW 6688   2.029   5.401   3.427 -0.0733 -1.0021  0.4670
 1930SOL    HW1 6689   2.118   5.355   3.431 -0.5037 -2.2644 -2.1531
 1930SOL    HW2 6690   1.989   5.388   3.336 -2.2712  0.8504  1.0694
 1931SOL     OW 6691   4.880   1.156   1.668  0.2501 -0.3574  0.0759
 1931SOL    HW1 6692   4.942   1.219   1.715 -0.5588  0.4266  0.1309
 1931SOL    HW2 6693   4.932   1.080   1.630  1.2465  0.3027  0.0812
 1932SOL     OW 6694   0.083   3.421   1.588  0.3133 -0.1441 -0.3922
 1932SOL    HW1 6695   0.051   3.516   1.582 -0.8025 -0.5605 -1.7907
 1932SOL    HW2 6696   0.154   3.406   1.519  1.1378 -0.1206  0.4284
 1933SOL     OW 6697   0.904   3.488   2.906  0.4260 -0.5529 -0.1465
 1933SOL    HW1 6698   0.901   3.418   2.834  0.3029 -0.4689 -0.2221
 1933SOL    HW2 6699   1.000   3.505   2.931  0.4160 -1.4765  0.5811
 1934SOL     OW 6700   5.783   2.232   2.364  0.2991 -0.4282 -0.3909
 1934SOL    HW1 6701   5.806   2.328   2.351  0.0630 -0.1193  1.2575
 1934SOL    HW2 6702   5.865   2.181   2.389  0.0063 -0.0928  1.4533
 1935SOL     OW 6703   5.918   5.224   1.041 -0.1464  0.2627 -0.0644
 1935SOL    HW1 6704   5.915   5.125   1.032  0.5183 -0.0725  2.5450
 1935SOL    HW2 6705   5.828   5.258   1.069 -0.0561  0.2188  0.2888
 1936SOL     OW 6706   4.134   0.476   6.868 -0.2468  0.0926 -0.5542
 1936SOL    HW1 6707   4.043   0.471   6.909  1.0014 -0.2994  2.4501
 1936SOL    HW2 6708   4.172   0.568   6.884  0.3064 -0.0958 -0.7656
 1937SOL     OW 6709   3.639   1.858   4.992 -0.3025 -0.4382  0.1579
 1937SOL    HW1 6710   3.543   1.852   5.017 -0.4169 -1.2897 -0.4364
 1937SOL    HW2 6711   3.666   1.954   4.983 -0.8341 -0.1739  1.2877
 1938SOL     OW 6712   4.230   1.532   2.750 -0.0060 -0.3350 -0.1930
 1938SOL    HW1 6713   4.266   1.572   2.665  3.5702  0.0158  1.3377
 1938SOL    HW2 6714   4.228   1.602   2.821 -2.8275 -0.6708  0.1812
 1939SOL     OW 6715   0.234   4.498   5.535 -1.3020 -0.5171  0.1494
 1939SOL    HW1 6716   0.145   4.541   5.551 -1.1514 -0.2642  0.3074
 1939SOL    HW2 6717   0.226   4.399   5.550 -1.4102 -0.4168  0.7749
 1940SOL     OW 6718   6.239   2.667   6.137  0.1475 -0.2527  0.0502
 1940SOL    HW1 6719   6.213   2.571   6.131 -2.3398  0.1470  2.4994
 1940SOL    HW2 6720   6.270   2.688   6.229 -1.2469  1.6569  0.1535
 1941SOL     OW 6721   3.334   2.788   0.619  0.0220  0.0438  0.1543
 1941SOL    HW1 6722   3.340   2.705   0.673  0.3173  0.2498  0.4447
 1941SOL    HW2 6723   3.296   2.767   0.529 -1.4648 -0.1301  0.7949
 1942SOL     OW 6724   0.424   3.256   3.678  0.3531 -0.0751 -0.8918
 1942SOL    HW1 6725   0.357   3.307   3.732  0.8409  1.2881 -1.5376
 1942SOL    HW2 6726   0.411   3.158   3.692  0.5586  0.2243  1.8180
 1943SOL     OW 6727   5.587   4.965   0.706 -0.0812  0.3011  0.2792
 1943SOL    HW1 6728   5.573   4.964   0.805  0.6850  0.6398  0.3983
 1943SOL    HW2 6729   5.642   5.045   0.681  0.0305  0.0231 -0.3785
 1944SOL     OW 6730   5.353   4.934   6.418  0.1505  0.0850 -0.1960
 1944SOL    HW1 6731   5.318   4.854   6.467  0.5992 -0.0843 -0.1382
 1944SOL    HW2 6732   5.397   4.903   6.333  0.1765  0.2880 -0.2558
 1945SOL     OW 6733   6.403   6.513   6.149  0.7657  0.0575  0.2272
 1945SOL    HW1 6734   6.457   6.436   6.183  1.1882  0.4940  0.5524
 1945SOL    HW2 6735   6.394   6.582   6.221 -1.6301 -0.7111  0.7664
 1946SOL     OW 6736   1.250   4.216   4.833  0.5656  0.3561  0.5136
 1946SOL    HW1 6737   1.348   4.237   4.837  0.3734  2.3061 -2.4186
 1946SOL    HW2 6738   1.197   4.300   4.826 -1.1880 -0.7199  0.0596
 1947SOL     OW 6739   5.116   6.185   0.560 -0.1497  0.0697  0.3996
 1947SOL    HW1 6740   5.136   6.139   0.473  0.2406  2.5108 -0.8950
 1947SOL    HW2 6741   5.018   6.204   0.566 -0.2612 -0.5730  0.7856
 1948SOL     OW 6742   4.698   2.773   4.140  0.6281  0.0426 -0.1081
 1948SOL    HW1 6743   4.712   2.854   4.083  2.6460 -0.6500 -0.6854
 1948SOL    HW2 6744   4.715   2.797   4.236 -2.5580  1.1573  0.2846
 1949SOL     OW 6745   6.078   4.861   6.969 -0.0656 -0.0920  0.6378
 1949SOL    HW1 6746   6.166   4.817   6.948 -0.3285 -0.8189  0.9986
 1949SOL    HW2 6747   6.004   4.798   6.947 -0.5095  0.5847  0.1780
 1950SOL     OW 6748   5.015   0.769   0.589 -0.4407 -0.4559 -0.7555
 1950SOL    HW1 6749   5.025   0.749   0.687  0.9578  2.4389 -0.1866
 1950SOL    HW2 6750   5.105   0.784   0.549 -1.1033  3.1728 -1.2334
 1951SOL     OW 6751   6.024   2.608   5.425  0.4703 -0.4990  0.4170
 1951SOL    HW1 6752   6.108   2.581   5.379  0.9112 -1.1070  1.5464
 1951SOL    HW2 6753   6.044   2.679   5.493 -0.6467  2.8505 -2.4521
 1952SOL     OW 6754   4.670   1.207   6.289 -0.2509  0.1023 -0.4009
 1952SOL    HW1 6755   4.668   1.211   6.389  2.3687  0.6827 -0.3108
 1952SOL    HW2 6756   4.699   1.295   6.253 -0.3440 -0.3664 -1.6551
 1953SOL     OW 6757   6.458   3.663   4.128 -0.3958  0.1259 -0.6723
 1953SOL    HW1 6758   6.535   3.664   4.063 -1.1696 -1.5628 -1.7019
 1953SOL    HW2 6759   6.473   3.591   4.196 -0.8680  0.0488 -0.6475
 1954SOL     OW 6760   2.300   0.005   3.988  0.1741  0.3190  0.0499
 1954SOL    HW1 6761   2.345  -0.079   4.019  2.2244  1.5689  0.6470
 1954SOL    HW2 6762   2.210  -0.018   3.950  0.0786 -1.9786  1.4316
 1955SOL     OW 6763   1.141   6.259   2.075 -0.3744  0.1521 -0.1984
 1955SOL    HW1 6764   1.161   6.354   2.101  1.2992 -0.5287  1.2533
 1955SOL    HW2 6765   1.209   6.228   2.009 -0.1205 -0.4069  0.3137
 1956SOL     OW 6766   5.055   6.211   1.793  0.8986  0.0140 -0.7031
 1956SOL    HW1 6767   5.147   6.176   1.775  0.6867  0.8027 -3.8596
 1956SOL    HW2 6768   4.990   6.164   1.733 -0.7218 -0.2037  1.1485
 1957SOL     OW 6769   5.010   4.899   0.638 -0.0092 -0.3081 -0.3078
 1957SOL    HW1 6770   5.088   4.849   0.601 -0.0057 -1.8482  1.6388
 1957SOL    HW2 6771   5.031   4.931   0.730 -1.6096 -0.6300  0.1967
 1958SOL     OW 6772   1.297   6.878   4.361 -0.0433 -0.3665  0.5033
 1958SOL    HW1 6773   1.307   6.912   4.455 -2.7982  2.1682  0.0324
 1958SOL    HW2 6774   1.367   6.921   4.303  1.0880 -1.2314  1.1842
 1959SOL     OW 6775   6.607   3.788   0.563 -0.3154  0.1226  0.5897
 1959SOL    HW1 6776   6.603   3.855   0.489 -1.8717  1.1961  1.5757
 1959SOL    HW2 6777   6.550   3.709   0.540 -1.1478  0.6488  0.7821
 1960SOL     OW 6778   0.929   1.462   1.969 -0.1430 -0.4082  0.1704
 1960SOL    HW1 6779   1.007   1.454   1.907  1.3286 -0.1013  1.9047
 1960SOL    HW2 6780   0.897   1.371   1.994  0.3981 -0.5651  0.3130
 1961SOL     OW 6781   4.730   6.066   1.954  0.7671  0.1480 -0.3802
 1961SOL    HW1 6782   4.718   6.146   2.011  1.6539 -0.6983  1.0637
 1961SOL    HW2 6783   4.680   6.078   1.868 -0.2374  1.6392  0.3689
 1962SOL     OW 6784   5.699   1.610   3.704 -0.4796  0.3264 -0.4792
 1962SOL    HW1 6785   5.756   1.635   3.783 -0.4589  0.1209 -0.4284
 1962SOL    HW2 6786   5.654   1.691   3.668  0.4978  0.6415 -1.0309
 1963SOL     OW 6787   0.267   2.505   0.878  0.4855 -0.1817 -0.0213
 1963SOL    HW1 6788   0.253   2.602   0.856  0.1776 -0.0807  0.5917
 1963SOL    HW2 6789   0.294   2.496   0.974  0.2549 -0.7245 -0.0017
 1964SOL     OW 6790   3.646   5.221   4.254  0.4282 -0.4398 -0.2203
 1964SOL    HW1 6791   3.610   5.136   4.293  0.7473 -0.6493 -0.3798
 1964SOL    HW2 6792   3.734   5.203   4.211 -0.2602 -0.3712 -1.6955
 1965SOL     OW 6793   3.309   0.643   0.441 -0.2869  0.5230 -0.0959
 1965SOL    HW1 6794   3.404   0.615   0.446 -0.7015 -1.0612 -0.6425
 1965SOL    HW2 6795   3.287   0.672   0.348 -0.2868  1.1131  0.0836
 1966SOL     OW 6796   6.763   0.064   5.594 -0.0852  0.1753 -0.3600
 1966SOL    HW1 6797   6.834   0.066   5.665 -1.0537  0.7014  0.6248
 1966SOL    HW2 6798   6.687   0.006   5.625  0.0600 -0.7067 -1.5734
 1967SOL     OW 6799   4.494   1.737   4.199  0.2376  0.1546  0.1436
 1967SOL    HW1 6800   4.584   1.712   4.165 -0.0989 -0.5589 -0.2589
 1967SOL    HW2 6801   4.460   1.665   4.260 -0.0748  0.3973  0.2607
 1968SOL     OW 6802   4.305   0.177   3.967 -0.0393 -0.0920 -0.0068
 1968SOL    HW1 6803   4.259   0.211   4.049 -1.6961  0.8369 -1.2485
 1968SOL    HW2 6804   4.390   0.227   3.954 -0.7533  1.2098  0.0880
 1969SOL     OW 6805   0.002   3.718   4.682  0.0109  0.3566 -0.3914
 1969SOL    HW1 6806  -0.026   3.724   4.586  0.4400 -0.5172 -0.5923
 1969SOL    HW2 6807   0.074   3.785   4.700  0.0704  0.3896 -0.7381
 1970SOL     OW 6808   4.744   1.689   6.021  0.0713  0.7736  0.3209
 1970SOL    HW1 6809   4.670   1.749   5.990 -0.7655 -0.5208 -0.3068
 1970SOL    HW2 6810   4.749   1.609   5.960  0.5702 -0.2131  1.6158
 1971SOL     OW 6811   0.694   0.071   6.302 -0.3023  0.2306  0.1146
 1971SOL    HW1 6812   0.636   0.063   6.221  0.8843 -3.5016 -0.5466
 1971SOL    HW2 6813   0.642   0.042   6.383 -0.6009  1.1073  0.2489
 1972SOL     OW 6814   0.441   5.679   0.052 -0.3807  0.2013  0.2412
 1972SOL    HW1 6815   0.374   5.720  -0.010 -0.0055 -0.1833 -0.4196
 1972SOL    HW2 6816   0.447   5.735   0.135  1.0572  2.2517 -1.1659
 1973SOL     OW 6817   3.510   3.456   6.973 -0.0741  0.0380  0.1901
 1973SOL    HW1 6818   3.516   3.514   6.892  1.2359  0.8426  0.8272
 1973SOL    HW2 6819   3.566   3.375   6.960  1.3529  0.8863  0.8304
 1974SOL     OW 6820   4.409   5.936   3.792 -0.0092 -0.6309  0.0843
 1974SOL    HW1 6821   4.412   5.844   3.831  0.8890 -1.8294 -2.5772
 1974SOL    HW2 6822   4.383   5.931   3.696  0.4226  1.8710 -0.2332
 1975SOL     OW 6823   5.507   5.814   2.713  0.1124  0.3222 -0.1536
 1975SOL    HW1 6824   5.500   5.844   2.617  2.5223  0.2027 -0.4219
 1975SOL    HW2 6825   5.508   5.894   2.773  0.3599  0.4816 -0.3695
 1976SOL     OW 6826   1.831   2.535   0.803  0.4120  0.2226 -0.2504
 1976SOL    HW1 6827   1.919   2.489   0.810  1.3334  1.4084 -2.6753
 1976SOL    HW2 6828   1.845   2.634   0.801 -1.1631  0.5095  1.0654
 1977SOL     OW 6829   1.467   4.885   3.827  0.2210 -0.2027  0.0057
 1977SOL    HW1 6830   1.514   4.859   3.742 -0.3466 -0.2931 -0.2819
 1977SOL    HW2 6831   1.521   4.855   3.905  0.0956 -1.3084 -0.3225
 1978SOL     OW 6832   1.035   6.944   1.963  0.0134 -0.3180 -0.2570
 1978SOL    HW1 6833   1.005   6.896   2.045  0.7427  0.5454  0.5358
 1978SOL    HW2 6834   1.134   6.957   1.966 -0.1081  0.8112 -0.6636
 1979SOL     OW 6835   1.100   6.356   4.548 -0.3032 -0.3582  0.2431
 1979SOL    HW1 6836   1.177   6.363   4.485  0.1365  0.8828  0.8672
 1979SOL    HW2 6837   1.134   6.333   4.639 -0.7334 -0.4172  0.3893
 1980SOL     OW 6838   0.631   5.269   3.823  0.4160  0.1115  0.2677
 1980SOL    HW1 6839   0.538   5.282   3.789  0.8680  0.2946 -0.9307
 1980SOL    HW2 6840   0.671   5.188   3.780  1.3586  0.9384 -0.4305
 1981SOL     OW 6841   6.867   2.011   1.674 -0.1332 -0.0531 -0.2523
 1981SOL    HW1 6842   6.943   2.013   1.740  0.5124  0.5026 -0.9905
 1981SOL    HW2 6843   6.781   2.026   1.723  0.3700  0.7772  0.4278
 1982SOL     OW 6844   2.470   6.831   2.359  0.3481  0.2311  0.5265
 1982SOL    HW1 6845   2.460   6.783   2.446  0.8325 -0.9173 -0.0237
 1982SOL    HW2 6846   2.565   6.829   2.330 -0.2369 -2.5861 -1.7057
 1983SOL     OW 6847   6.869   6.676   0.038 -0.2060  0.3250 -0.1834
 1983SOL    HW1 6848   6.921   6.761   0.029  1.0430 -0.1172  2.0248
 1983SOL    HW2 6849   6.932   6.599   0.047 -1.2382 -0.4278  0.9949
 1984SOL     OW 6850   5.706   2.312   1.659 -0.0070  0.0418 -0.5806
 1984SOL    HW1 6851   5.748   2.360   1.736  0.7995 -1.2224 -0.2120
 1984SOL    HW2 6852   5.659   2.230   1.692  0.5410 -0.6386 -1.4552
 1985SOL     OW 6853   3.696   5.797   3.331  0.2736  0.2737  0.3582
 1985SOL    HW1 6854   3.739   5.887   3.339  0.0941  0.3831  0.0805
 1985SOL    HW2 6855   3.741   5.745   3.259 -0.5115  0.6499 -0.4156
 1986SOL     OW 6856   1.620   3.752   0.486 -0.4492 -0.2853 -0.6129
 1986SOL    HW1 6857   1.692   3.821   0.484 -1.1595  0.4702 -1.0673
 1986SOL    HW2 6858   1.573   3.751   0.397 -0.4303 -1.3801 -0.6208
 1987SOL     OW 6859   2.542   0.113   1.568 -0.5548  0.1994  0.7392
 1987SOL    HW1 6860   2.479   0.174   1.519 -1.0367 -0.8909 -0.0447
 1987SOL    HW2 6861   2.613   0.081   1.506 -0.5422 -0.3535  1.0333
 1988SOL     OW 6862   6.626   5.905   2.623  0.4018  0.0441 -0.5354
 1988SOL    HW1 6863   6.623   5.805   2.623 -0.5330  0.0579  0.4482
 1988SOL    HW2 6864   6.533   5.942   2.631  0.7982  0.9739  0.0353
 1989SOL     OW 6865   3.098   0.659   2.519  0.8214 -0.3103  0.1702
 1989SOL    HW1 6866   3.160   0.595   2.473  1.2685 -0.0833  0.4469
 1989SOL    HW2 6867   3.152   0.729   2.565  0.3707  2.1084 -2.6802
 1990SOL     OW 6868   1.036   4.481   5.702 -0.0821  0.1147 -0.2563
 1990SOL    HW1 6869   1.030   4.521   5.794  0.8965  0.3484 -0.2816
 1990SOL    HW2 6870   0.951   4.500   5.652 -0.5722  0.0904  0.5563
 1991SOL     OW 6871   6.712   3.154   2.248 -0.3951  0.3645  0.0496
 1991SOL    HW1 6872   6.699   3.240   2.299 -0.8665 -0.2152  0.9405
 1991SOL    HW2 6873   6.714   3.173   2.150  1.1616  1.5966  0.2826
 1992SOL     OW 6874   2.256   1.053   3.176  0.3513 -0.2215 -0.2200
 1992SOL    HW1 6875   2.281   1.017   3.266 -0.4230 -0.0174  0.0770
 1992SOL    HW2 6876   2.280   0.986   3.106  3.5057  0.6831 -0.1675
 1993SOL     OW 6877   3.037   5.882   5.926  0.2430  0.7549 -0.1247
 1993SOL    HW1 6878   2.979   5.961   5.948  2.0326  2.6952 -1.9617
 1993SOL    HW2 6879   3.119   5.886   5.983  0.1462 -0.0519  0.0741
 1994SOL     OW 6880   2.969   5.232   3.019  0.2292 -0.2594 -0.1558
 1994SOL    HW1 6881   2.903   5.300   2.988 -0.5966 -0.6557  0.6836
 1994SOL    HW2 6882   3.002   5.179   2.940 -1.4844 -0.9509 -0.4541
 1995SOL     OW 6883   5.728   4.036   0.278  0.8017 -0.3759 -0.5234
 1995SOL    HW1 6884   5.637   4.001   0.254  0.5755  0.4757 -0.9424
 1995SOL    HW2 6885   5.745   4.019   0.375  0.6373 -1.4905 -0.6736
 1996SOL     OW 6886   3.769   6.011   1.771  0.2916 -0.0846  0.0491
 1996SOL    HW1 6887   3.688   6.067   1.788 -0.3949 -1.3621  1.1390
 1996SOL    HW2 6888   3.742   5.919   1.745  1.4112 -0.0057 -1.5256
 1997SOL     OW 6889   4.031   4.511   0.141  0.9708  0.0971  0.2643
 1997SOL    HW1 6890   4.049   4.578   0.212  2.0231  1.8399 -1.5217
 1997SOL    HW2 6891   4.114   4.498   0.086 -0.0210 -0.5151 -1.1569
 1998SOL     OW 6892   2.035   4.602   4.846  0.0180  0.2020  0.1212
 1998SOL    HW1 6893   2.028   4.677   4.780  0.8304  0.9230  0.8290
 1998SOL    HW2 6894   2.125   4.559   4.837 -0.6327 -1.0750 -0.6526
 1999SOL     OW 6895   3.836   0.174   4.175 -0.5665 -0.0692 -0.3562
 1999SOL    HW1 6896   3.839   0.188   4.274  0.2094 -0.3192 -0.3338
 1999SOL    HW2 6897   3.900   0.101   4.151 -0.1659  0.5334 -1.1366
 2000SOL     OW 6898   4.268   2.121   5.979 -0.2330 -0.0637 -0.1120
 2000SOL    HW1 6899   4.183   2.171   5.961 -0.3172  0.7384  2.1727
 2000SOL    HW2 6900   4.259   2.069   6.063  0.5872 -2.3841 -1.3547
 2001SOL     OW 6901   5.960   6.330   3.254  0.6806  0.2455  0.4558
 2001SOL    HW1 6902   6.005   6.417   3.236  1.1318 -0.0043  0.3641
 2001SOL    HW2 6903   5.861   6.345   3.262  0.4781  0.4534 -1.7452
 2002SOL     OW 6904   6.418   2.921   4.437 -0.0319  0.5514  0.1560
 2002SOL    HW1 6905   6.412   2.844   4.501 -1.8143 -0.1883 -0.8116
 2002SOL    HW2 6906   6.397   3.006   4.486 -1.1105  0.0341  0.6317
 2003SOL     OW 6907   0.523   3.459   6.569 -0.0371 -0.1129  0.0278
 2003SOL    HW1 6908   0.611   3.411   6.566  0.6120  1.0580 -1.4779
 2003SOL    HW2 6909   0.455   3.402   6.613  1.2638 -1.4190  0.4293
 2004SOL     OW 6910   4.721   1.138   3.390 -0.4043 -0.7147  0.6694
 2004SOL    HW1 6911   4.643   1.103   3.338 -0.8783 -1.6281  1.9540
 2004SOL    HW2 6912   4.805   1.097   3.356 -0.2344  1.4314 -1.7626
 2005SOL     OW 6913   3.901   3.996   4.694 -0.3380  0.0498 -0.0188
 2005SOL    HW1 6914   3.944   3.925   4.638 -0.9832 -0.3412 -0.0198
 2005SOL    HW2 6915   3.843   4.054   4.637 -0.0490  0.4033  0.0363
 2006SOL     OW 6916   3.644   6.218   0.891  0.6489  0.2506 -0.4929
 2006SOL    HW1 6917   3.545   6.223   0.878  0.2594 -2.3236  0.8322
 2006SOL    HW2 6918   3.688   6.199   0.803 -0.0877  0.7160 -0.9714
 2007SOL     OW 6919   2.546   3.733   1.500 -0.4187  0.3973  0.5378
 2007SOL    HW1 6920   2.472   3.741   1.434 -0.5445 -0.1768  0.6043
 2007SOL    HW2 6921   2.632   3.716   1.452 -0.0123  2.6238  0.3337
 2008SOL     OW 6922   3.867   6.596   3.347  0.0918  0.3638 -0.5780
 2008SOL    HW1 6923   3.899   6.605   3.441  0.8497  2.2588 -0.9785
 2008SOL    HW2 6924   3.884   6.681   3.298 -2.2385  0.1614 -1.8581
 2009SOL     OW 6925   4.118   1.772   3.508  0.1442 -0.2754  0.4890
 2009SOL    HW1 6926   4.213   1.789   3.482 -0.3386  0.6484 -0.7498
 2009SOL    HW2 6927   4.070   1.728   3.432 -0.9343  1.1823  0.2776
 2010SOL     OW 6928   0.302   3.409   6.810 -0.3402 -0.5387 -0.0931
 2010SOL    HW1 6929   0.276   3.467   6.732 -0.9041 -1.8400 -0.9048
 2010SOL    HW2 6930   0.220   3.377   6.857  0.0107  1.3168  1.9145
 2011SOL     OW 6931   5.677   0.104   4.178  0.1984 -0.6335 -0.3680
 2011SOL    HW1 6932   5.769   0.121   4.142  0.0644 -0.9436 -0.8697
 2011SOL    HW2 6933   5.655   0.007   4.168 -0.3074 -0.5010 -0.5515
 2012SOL     OW 6934   4.953   1.919   6.117 -0.0362  0.2693  0.0256
 2012SOL    HW1 6935   4.947   1.995   6.182 -0.4053  0.5693 -0.3480
 2012SOL    HW2 6936   4.860   1.890   6.092  0.1044  0.0023 -0.1883
 2013SOL     OW 6937   4.025   1.498   0.653  0.1140 -0.3859 -0.2255
 2013SOL    HW1 6938   4.066   1.460   0.736 -0.5601 -0.5174  0.0554
 2013SOL    HW2 6939   4.004   1.595   0.668  0.6268 -0.2310 -0.4865
 2014SOL     OW 6940   5.075   2.918   2.904 -0.5142  0.0933  0.0487
 2014SOL    HW1 6941   5.141   2.979   2.949  0.9999 -1.0056 -0.5684
 2014SOL    HW2 6942   4.983   2.940   2.935 -0.2409  3.5419 -1.0900
 2015SOL     OW 6943   2.826   2.203   0.373 -0.4872 -0.4254 -0.2227
 2015SOL    HW1 6944   2.815   2.299   0.348  1.3894 -0.3800 -0.9976
 2015SOL    HW2 6945   2.862   2.196   0.465  1.9257 -0.2456 -1.0920
 2016SOL     OW 6946   1.088   0.562   6.775  0.2746  0.0422 -0.7879
 2016SOL    HW1 6947   1.078   0.502   6.695  0.5053 -0.6900 -0.2815
 2016SOL    HW2 6948   1.184   0.588   6.785 -0.1066  2.2845 -2.2485
 2017SOL     OW 6949   1.001   6.570   3.298 -0.6332  0.1601 -0.2190
 2017SOL    HW1 6950   0.910   6.548   3.333 -0.7219  0.1678 -0.4446
 2017SOL    HW2 6951   1.049   6.629   3.363 -0.7814  0.1399 -0.0911
 2018SOL     OW 6952   3.109   4.726   0.575 -0.8202  0.2070  0.4138
 2018SOL    HW1 6953   3.035   4.663   0.555  0.2397 -0.3585 -2.0624
 2018SOL    HW2 6954   3.102   4.807   0.517  1.1302 -0.4292 -0.8086
 2019SOL     OW 6955   3.404   4.895   0.073 -0.0044 -0.2045  1.0871
 2019SOL    HW1 6956   3.405   4.863   0.168 -0.3301 -0.5757  0.9715
 2019SOL    HW2 6957   3.310   4.912   0.045  0.0860 -0.1571  0.8121
 2020SOL     OW 6958   0.238   3.524   5.529 -0.2127  0.6708 -0.1572
 2020SOL    HW1 6959   0.263   3.427   5.535  0.2140  0.6657 -1.6711
 2020SOL    HW2 6960   0.293   3.568   5.458 -0.9861  1.8467 -0.0455
 2021SOL     OW 6961   3.950   3.083   1.525 -0.3522  0.3348 -0.0598
 2021SOL    HW1 6962   4.013   3.077   1.448  0.2464  0.3698  0.4218
 2021SOL    HW2 6963   3.902   3.170   1.523 -0.4860  0.2562 -0.4972
 2022SOL     OW 6964   5.552   2.234   5.122 -0.1717 -0.1460 -0.2905
 2022SOL    HW1 6965   5.492   2.268   5.050 -1.8342 -1.6341  0.3123
 2022SOL    HW2 6966   5.642   2.276   5.114 -1.1355  1.7816 -1.5423
 2023SOL     OW 6967   5.953   0.513   1.316  0.0860  0.3313 -0.3810
 2023SOL    HW1 6968   5.984   0.517   1.412 -0.7252 -1.2466 -0.0198
 2023SOL    HW2 6969   5.866   0.465   1.311 -0.6037  1.6461 -1.7834
 2024SOL     OW 6970   0.753   6.682   5.210 -0.0863 -0.4003  0.0241
 2024SOL    HW1 6971   0.700   6.632   5.142  0.8526 -1.5495  0.1205
 2024SOL    HW2 6972   0.750   6.780   5.188 -0.7397 -0.6306 -1.0017
 2025SOL     OW 6973   5.953   1.525   0.206  0.0607 -0.2757 -0.2127
 2025SOL    HW1 6974   5.944   1.498   0.302 -2.0278 -0.6789 -0.4902
 2025SOL    HW2 6975   6.040   1.574   0.193  1.2937 -1.8869  1.4646
 2026SOL     OW 6976   3.936   1.362   2.137  0.2607 -0.2240  0.6921
 2026SOL    HW1 6977   3.889   1.435   2.087 -1.3858 -0.9220  1.1690
 2026SOL    HW2 6978   3.919   1.372   2.235  1.0628 -0.5396  0.8691
 2027SOL     OW 6979   3.510   1.070   1.593 -0.6942 -0.0887  0.4556
 2027SOL    HW1 6980   3.425   1.047   1.546 -0.5706  0.7731 -0.2117
 2027SOL    HW2 6981   3.499   1.055   1.691 -2.1491  1.5218  0.5856
 2028SOL     OW 6982   3.093   3.222   5.430 -0.5516  0.5092 -0.4178
 2028SOL    HW1 6983   3.046   3.299   5.472 -1.8038 -0.1817 -0.5060
 2028SOL    HW2 6984   3.034   3.141   5.432  1.4393 -1.0173  1.4268
 2029SOL     OW 6985   6.546   1.728   2.260 -0.0109 -0.3376  0.4536
 2029SOL    HW1 6986   6.588   1.731   2.351  0.5891 -2.0673  0.2743
 2029SOL    HW2 6987   6.500   1.641   2.248 -2.0577  0.7553 -0.1014
 2030SOL     OW 6988   6.389   4.285   0.519  0.2216 -0.8293 -0.1293
 2030SOL    HW1 6989   6.292   4.275   0.538  0.0701 -1.9033 -1.3455
 2030SOL    HW2 6990   6.429   4.195   0.500  1.1145 -0.2461 -1.1443
 2031SOL     OW 6991   4.870   0.748   1.558  0.1899 -0.5020 -0.3871
 2031SOL    HW1 6992   4.773   0.755   1.581  0.1679 -3.0453  0.5919
 2031SOL    HW2 6993   4.898   0.829   1.506 -2.0875  0.9413  0.5007
 2032SOL     OW 6994   2.849   1.190   1.980 -0.4372  0.2483 -0.4470
 2032SOL    HW1 6995   2.851   1.233   2.070  1.4514 -1.0934  0.2113
 2032SOL    HW2 6996   2.825   1.259   1.911 -0.4454  1.6468  0.8935
 2033SOL     OW 6997   3.321   5.808   7.010  0.1050  0.0931  0.2868
 2033SOL    HW1 6998   3.274   5.722   7.028 -2.0608  1.2364  0.4352
 2033SOL    HW2 6999   3.275   5.857   6.935  0.8012  1.4625  0.7048
 2034SOL     OW 7000   6.106   6.659   4.671 -0.7783 -0.3609 -0.5391
 2034SOL    HW1 7001   6.031   6.698   4.725 -1.2427  0.3533 -1.6635
 2034SOL    HW2 7002   6.072   6.580   4.620 -0.5275 -0.5865 -0.3602
 2035SOL     OW 7003   1.395   3.739   3.068  0.4840 -0.0312 -0.0269
 2035SOL    HW1 7004   1.373   3.720   2.972  0.4390  0.5804 -0.1427
 2035SOL    HW2 7005   1.341   3.679   3.127 -2.0171  1.8292 -0.2718
 2036SOL     OW 7006   4.057   0.849   0.770 -0.2687 -0.7170 -0.0137
 2036SOL    HW1 7007   3.966   0.890   0.765  0.4273  0.7822 -0.9750
 2036SOL    HW2 7008   4.070   0.789   0.691  0.5968  1.3588 -1.5370
 2037SOL     OW 7009   6.814   0.487   5.194  0.7548 -0.8670  0.2233
 2037SOL    HW1 7010   6.805   0.572   5.246 -0.6169 -0.6679 -0.3015
 2037SOL    HW2 7011   6.812   0.508   5.096  0.1507 -1.5143  0.0909
 2038SOL     OW 7012   1.236   1.518   4.584 -0.1651  0.3067  0.1465
 2038SOL    HW1 7013   1.237   1.530   4.485 -1.7499 -1.3753 -0.1390
 2038SOL    HW2 7014   1.161   1.571   4.623  0.6402  1.1984  0.4951
 2039SOL     OW 7015   2.743   0.066   1.368  0.6860  0.0601  0.0013
 2039SOL    HW1 7016   2.843   0.071   1.358  0.7058 -0.2650  0.0247
 2039SOL    HW2 7017   2.700   0.106   1.288  0.8195  1.8854  0.7887
 2040SOL     OW 7018   4.166   3.928   5.393 -0.6641  0.1290 -0.4465
 2040SOL    HW1 7019   4.128   3.956   5.481  1.1491  1.1671  0.0418
 2040SOL    HW2 7020   4.122   3.980   5.319  0.2704  1.8633  0.1696
 2041SOL     OW 7021   1.333   6.999   1.238 -0.6038 -0.0795  0.1223
 2041SOL    HW1 7022   1.361   6.915   1.284 -0.1934  0.4232  0.8101
 2041SOL    HW2 7023   1.412   7.060   1.230 -0.4804 -0.4279 -1.8801
 2042SOL     OW 7024   5.008   6.754   3.945  0.4640 -0.3462 -0.3696
 2042SOL    HW1 7025   5.055   6.836   3.976  3.9727 -1.3735 -2.4602
 2042SOL    HW2 7026   4.944   6.778   3.872 -1.4927  0.8880  1.6073
 2043SOL     OW 7027   1.222   3.598   6.401  0.1405 -0.3993 -0.5120
 2043SOL    HW1 7028   1.250   3.602   6.305  1.0919  0.0302 -0.2235
 2043SOL    HW2 7029   1.301   3.577   6.458  0.0767  1.6568  0.4091
 2044SOL     OW 7030   2.763   0.019   5.061  0.2215 -0.4000 -0.2988
 2044SOL    HW1 7031   2.723   0.046   4.974  1.1848  0.5593 -0.4676
 2044SOL    HW2 7032   2.695   0.029   5.133 -0.8136 -1.9276 -1.0285
 2045SOL     OW 7033   3.970   4.808   5.483  0.2030 -0.5379 -1.1510
 2045SOL    HW1 7034   3.926   4.763   5.405 -1.0985  1.2411 -1.5228
 2045SOL    HW2 7035   3.968   4.748   5.563 -1.2918 -1.2177 -1.6737
 2046SOL     OW 7036   4.544   5.141   5.872 -0.5535 -0.3372 -0.2299
 2046SOL    HW1 7037   4.579   5.101   5.788 -0.1567 -0.4774 -0.0010
 2046SOL    HW2 7038   4.482   5.216   5.850  1.4244  1.2465 -0.6520
 2047SOL     OW 7039   4.055   3.293   3.501  0.7436  0.3773  0.1304
 2047SOL    HW1 7040   4.061   3.368   3.435 -0.6733  0.3309 -0.0861
 2047SOL    HW2 7041   4.009   3.215   3.459  1.8905 -0.5067  0.4664
 2048SOL     OW 7042   3.289   4.303   0.123 -0.2628  0.2474  0.6266
 2048SOL    HW1 7043   3.298   4.205   0.103 -1.0090  0.2289  0.3219
 2048SOL    HW2 7044   3.313   4.319   0.219  0.3209 -0.1592  0.5540
 2049SOL     OW 7045   5.752   1.982   1.553  0.1027 -0.0360 -0.0119
 2049SOL    HW1 7046   5.803   1.898   1.565  0.6224  0.4926  1.7596
 2049SOL    HW2 7047   5.809   2.050   1.507 -0.7779 -1.0064 -2.7856
 2050SOL     OW 7048   1.571   1.747   1.805 -1.0251 -0.5907  0.3316
 2050SOL    HW1 7049   1.612   1.672   1.754 -2.4385 -1.5594  0.5810
 2050SOL    HW2 7050   1.479   1.766   1.770 -0.3328  1.7304 -0.4147
 2051SOL     OW 7051   5.009   3.047   1.751 -0.8883  0.3685 -0.1878
 2051SOL    HW1 7052   5.028   3.061   1.848 -1.4537 -1.3907  0.2217
 2051SOL    HW2 7053   4.931   2.985   1.742  0.0119 -0.5982 -1.7414
 2052SOL     OW 7054   4.213   0.666   1.621 -0.1133  0.1611  0.5550
 2052SOL    HW1 7055   4.119   0.693   1.643  0.2733  1.5035  0.6556
 2052SOL    HW2 7056   4.262   0.645   1.705 -0.1708  0.0001  0.5478
 2053SOL     OW 7057   1.123   1.637   2.849 -0.0201  0.0314 -0.1326
 2053SOL    HW1 7058   1.112   1.597   2.758  1.2820  1.7936 -1.1274
 2053SOL    HW2 7059   1.144   1.734   2.841 -1.2112  0.5538  2.1263
 2054SOL     OW 7060   1.797   6.842   6.891  0.2964 -0.1255  0.7802
 2054SOL    HW1 7061   1.746   6.834   6.806 -0.7910 -2.0803  1.5649
 2054SOL    HW2 7062   1.786   6.934   6.928  0.9152  0.8166 -1.2174
 2055SOL     OW 7063   4.613   4.136   6.476 -0.0242  0.0601 -0.0525
 2055SOL    HW1 7064   4.648   4.229   6.488  1.7123 -0.6441  0.6911
 2055SOL    HW2 7065   4.686   4.077   6.438 -0.8484 -1.1613  0.1940
 2056SOL     OW 7066   1.898   3.275   6.330 -0.5760 -0.5230 -0.0660
 2056SOL    HW1 7067   1.979   3.230   6.294 -0.0264  1.2337 -1.1756
 2056SOL    HW2 7068   1.842   3.308   6.254 -1.6196 -0.4888  0.6996
 2057SOL     OW 7069   3.733   6.879   5.066  0.0659  0.1793 -0.2047
 2057SOL    HW1 7070   3.720   6.977   5.055  0.9442  0.3753  0.3557
 2057SOL    HW2 7071   3.820   6.852   5.025  0.6252 -0.0603  1.0719
 2058SOL     OW 7072   3.816   1.655   5.022 -0.3961  0.0790  0.1012
 2058SOL    HW1 7073   3.747   1.722   4.994 -0.1084  0.7629  0.9638
 2058SOL    HW2 7074   3.894   1.703   5.063 -0.5370 -0.8055  1.4910
 2059SOL     OW 7075   4.634   5.571   5.457 -0.3458  0.5868 -0.0510
 2059SOL    HW1 7076   4.671   5.605   5.370  3.0474  1.5896  1.6382
 2059SOL    HW2 7077   4.592   5.646   5.508 -1.2402  0.2397 -0.2463
 2060SOL     OW 7078   3.369   0.786   1.192  0.0433 -0.5856  0.4877
 2060SOL    HW1 7079   3.434   0.730   1.140  0.2077 -0.1476  0.2163
 2060SOL    HW2 7080   3.340   0.864   1.136 -1.4305 -1.2651  0.2353
 2061SOL     OW 7081   6.714   3.939   5.527  0.5001 -0.3038 -1.0192
 2061SOL    HW1 7082   6.803   3.936   5.481  0.8199  0.1720 -0.4452
 2061SOL    HW2 7083   6.645   3.973   5.463  1.3694  2.6016 -0.5596
 2062SOL     OW 7084   4.248   1.011   5.632 -0.0263  0.0006 -0.3460
 2062SOL    HW1 7085   4.178   1.018   5.703 -0.6338  0.0006 -0.9367
 2062SOL    HW2 7086   4.302   1.095   5.631  1.0836 -0.6446  1.2191
 2063SOL     OW 7087   0.019   4.429   5.058 -0.4019  0.0031 -0.5999
 2063SOL    HW1 7088   0.002   4.397   5.152 -0.7656 -0.3034 -0.7671
 2063SOL    HW2 7089  -0.068   4.449   5.014 -0.1509  2.0777 -0.2186
 2064SOL     OW 7090   1.866   1.414   4.191  0.1023  0.0887  0.4832
 2064SOL    HW1 7091   1.890   1.430   4.287  2.1722  0.9411 -0.1235
 2064SOL    HW2 7092   1.947   1.382   4.141 -0.4432  1.4183 -1.3654
 2065SOL     OW 7093   5.461   1.758   1.628 -0.1456  0.4501  0.2097
 2065SOL    HW1 7094   5.417   1.684   1.577 -0.2713  1.1293 -0.7069
 2065SOL    HW2 7095   5.520   1.720   1.699 -4.0953 -0.5522  3.2821
 2066SOL     OW 7096   5.909   1.200   3.966 -0.2005 -0.0797 -0.5878
 2066SOL    HW1 7097   5.857   1.214   4.051 -1.3071 -0.6978 -1.1250
 2066SOL    HW2 7098   5.888   1.273   3.901  2.3821  1.6722  0.4177
 2067SOL     OW 7099   0.641   2.136   1.442  0.1410  0.1070 -0.4893
 2067SOL    HW1 7100   0.650   2.200   1.366 -2.7998 -0.0228 -1.0811
 2067SOL    HW2 7101   0.595   2.053   1.410 -0.6065 -0.2105  1.2865
 2068SOL     OW 7102   4.273   6.165   4.378  0.0488 -0.0807 -0.0347
 2068SOL    HW1 7103   4.200   6.199   4.436  0.7201  0.7852  0.3130
 2068SOL    HW2 7104   4.319   6.089   4.423 -0.6304 -0.6428 -0.2629
 2069SOL     OW 7105   0.370   4.883   5.868 -0.4559  0.4999 -0.3434
 2069SOL    HW1 7106   0.338   4.978   5.870  0.9788  1.0621 -1.7552
 2069SOL    HW2 7107   0.326   4.834   5.793 -0.9143  0.1448  0.1508
 2070SOL     OW 7108   4.471   0.166   5.616  0.4295 -0.3646  0.0569
 2070SOL    HW1 7109   4.492   0.241   5.679 -0.0613 -1.2952  1.3777
 2070SOL    HW2 7110   4.393   0.191   5.559 -0.3665 -0.2181  1.1716
 2071SOL     OW 7111   1.210   6.410   3.197 -0.0297 -0.0020 -0.0525
 2071SOL    HW1 7112   1.142   6.355   3.246  1.1119 -1.2346  0.2235
 2071SOL    HW2 7113   1.178   6.505   3.191 -0.9946 -0.1831  1.5485
 2072SOL     OW 7114   2.236   1.795   1.934  1.0377  0.2098 -0.2702
 2072SOL    HW1 7115   2.274   1.823   2.022 -0.6384 -0.2933  0.6571
 2072SOL    HW2 7116   2.198   1.703   1.942  0.4810  0.3211 -1.4094
 2073SOL     OW 7117   5.856   4.002   5.658 -0.1012 -0.1549  0.4233
 2073SOL    HW1 7118   5.818   3.915   5.626 -0.0421 -0.4006  1.0158
 2073SOL    HW2 7119   5.818   4.077   5.604 -0.4133 -0.5190  0.1352
 2074SOL     OW 7120   1.946   0.583   6.079 -0.2328 -0.4469 -0.0433
 2074SOL    HW1 7121   1.955   0.570   6.177  0.0256  1.8572  0.2983
 2074SOL    HW2 7122   1.854   0.556   6.050 -0.8066  0.1959  1.1038
 2075SOL     OW 7123   1.057   7.000   4.642 -0.1051  0.4575  0.1376
 2075SOL    HW1 7124   0.975   7.013   4.697 -0.3700  2.0062 -0.5779
 2075SOL    HW2 7125   1.040   7.032   4.549  0.2361 -2.3346 -0.9922
 2076SOL     OW 7126   6.315   0.279   0.445 -0.1365  0.3825 -0.1189
 2076SOL    HW1 7127   6.388   0.223   0.406 -0.3851  0.6834 -1.0314
 2076SOL    HW2 7128   6.349   0.324   0.528  0.6309  0.2994 -0.3728
 2077SOL     OW 7129   1.871   0.328   4.634  0.2644 -0.1432  0.3402
 2077SOL    HW1 7130   1.850   0.323   4.732 -0.1996  0.2061  0.2636
 2077SOL    HW2 7131   1.851   0.240   4.592  2.9275 -1.1646  1.0042
 2078SOL     OW 7132   6.574   3.968   1.271  0.2586  0.4022  0.1805
 2078SOL    HW1 7133   6.612   4.043   1.325  2.1950 -0.0465 -0.4777
 2078SOL    HW2 7134   6.548   4.002   1.180  1.2314  0.2930 -0.1542
 2079SOL     OW 7135   5.999   2.772   0.224  0.3061 -1.0293  0.0479
 2079SOL    HW1 7136   5.982   2.755   0.127 -1.4666  0.0375  0.1234
 2079SOL    HW2 7137   6.014   2.685   0.271  2.1718 -1.4975 -1.3130
 2080SOL     OW 7138   0.654   5.373   1.567  0.3646 -0.1123 -0.0282
 2080SOL    HW1 7139   0.581   5.324   1.519 -1.0344  1.0769  0.8140
 2080SOL    HW2 7140   0.739   5.321   1.559 -0.7525 -2.0054 -0.2748
 2081SOL     OW 7141   1.579   1.224   0.565  0.5232  0.0550  0.6799
 2081SOL    HW1 7142   1.639   1.265   0.633  0.1115  0.8460  0.5749
 2081SOL    HW2 7143   1.548   1.134   0.598 -1.9507  1.5610  2.9388
 2082SOL     OW 7144   5.216   1.741   2.181 -0.0727 -0.3994 -0.0322
 2082SOL    HW1 7145   5.144   1.686   2.223 -0.6959 -0.4266 -1.1027
 2082SOL    HW2 7146   5.297   1.684   2.168 -0.0045 -0.4957  0.7406
 2083SOL     OW 7147   5.723   4.383   6.055 -0.4253  0.3234 -0.4968
 2083SOL    HW1 7148   5.719   4.421   5.962  0.4616  0.0851 -0.6415
 2083SOL    HW2 7149   5.810   4.406   6.097 -0.5470 -0.1519  0.0278
 2084SOL     OW 7150   4.179   3.584   2.376  0.0469  0.5460  0.1155
 2084SOL    HW1 7151   4.276   3.600   2.393  0.2684 -1.2088  0.7680
 2084SOL    HW2 7152   4.125   3.624   2.450  0.2494  1.5791 -0.2786
 2085SOL     OW 7153   6.171   0.636   4.557  0.1355 -0.5574  0.6728
 2085SOL    HW1 7154   6.129   0.545   4.569  0.2435 -0.5374  1.2293
 2085SOL    HW2 7155   6.195   0.649   4.461  0.3412 -1.2193  0.6286
 2086SOL     OW 7156   6.006   2.855   3.213 -0.3463 -0.2341  0.2215
 2086SOL    HW1 7157   6.009   2.791   3.136 -0.1107 -0.2588  0.2498
 2086SOL    HW2 7158   6.076   2.925   3.200 -0.9094  0.2911 -0.0463
 2087SOL     OW 7159   0.724   4.712   0.115  0.3587 -0.2201 -0.7285
 2087SOL    HW1 7160   0.694   4.803   0.087  2.9336  1.4635  1.4352
 2087SOL    HW2 7161   0.663   4.676   0.186  0.7346  1.0801  0.3040
 2088SOL     OW 7162   5.227   2.625   4.860  0.3679  0.6603  0.3276
 2088SOL    HW1 7163   5.253   2.716   4.895  0.7557  0.3797  0.7847
 2088SOL    HW2 7164   5.306   2.583   4.817  0.0018  0.8221 -0.5152
 2089SOL     OW 7165   2.708   1.743   2.984 -0.1871 -0.2975 -0.6141
 2089SOL    HW1 7166   2.640   1.670   2.995 -0.6152  0.1756 -0.0787
 2089SOL    HW2 7167   2.665   1.822   2.939 -0.3223  0.4506  0.7910
 2090SOL     OW 7168   4.980   5.232   1.426  0.4402 -0.4493  0.2067
 2090SOL    HW1 7169   4.920   5.278   1.362  2.1133 -1.6298 -2.3583
 2090SOL    HW2 7170   5.049   5.295   1.460  1.1419 -0.3991 -1.2583
 2091SOL     OW 7171   2.141   5.369   1.920  0.4514 -0.1789  0.0812
 2091SOL    HW1 7172   2.130   5.430   1.841 -2.8039 -1.1951 -0.3958
 2091SOL    HW2 7173   2.119   5.419   2.004  0.2675 -0.0620 -0.0369
 2092SOL     OW 7174   0.170   4.698   1.449  0.0731  0.3700 -0.0068
 2092SOL    HW1 7175   0.197   4.761   1.376 -0.4465  0.7103  0.0866
 2092SOL    HW2 7176   0.127   4.617   1.409 -1.4626  1.1694 -0.0425
 2093SOL     OW 7177   5.398   4.820   2.004  0.2422  0.4699  0.5370
 2093SOL    HW1 7178   5.480   4.772   1.970 -0.1397  0.7975 -0.8874
 2093SOL    HW2 7179   5.321   4.799   1.945 -1.2209 -1.3367  2.9022
 2094SOL     OW 7180   5.297   0.879   1.694 -0.3207  0.0694 -0.1554
 2094SOL    HW1 7181   5.387   0.924   1.693 -1.7135  3.1557  1.1070
 2094SOL    HW2 7182   5.291   0.818   1.773  1.1702 -1.5542 -1.2040
 2095SOL     OW 7183   6.209   0.932   4.255  0.5911 -0.0547 -0.2358
 2095SOL    HW1 7184   6.158   0.934   4.170  0.4815  3.3640 -0.2378
 2095SOL    HW2 7185   6.229   0.837   4.281 -1.7645 -1.2861 -2.5565
 2096SOL     OW 7186   4.102   5.442   5.840  0.0546  0.2688  0.3015
 2096SOL    HW1 7187   4.132   5.347   5.849  3.7474  1.0744 -1.6715
 2096SOL    HW2 7188   4.134   5.495   5.919  1.9610  0.6668 -0.6922
 2097SOL     OW 7189   2.426   0.127   0.703 -0.4019  0.0089  0.7424
 2097SOL    HW1 7190   2.480   0.160   0.780  1.4770  1.1164 -0.9461
 2097SOL    HW2 7191   2.417   0.200   0.635  0.5948 -1.7686 -1.4198
 2098SOL     OW 7192   0.426   6.357   6.913  0.8722  0.2863  0.4466
 2098SOL    HW1 7193   0.332   6.390   6.899  1.2052  0.9501 -0.2869
 2098SOL    HW2 7194   0.486   6.435   6.931  1.5262  0.0222 -0.5027
 2099SOL     OW 7195   5.530   1.754   6.771  0.0242 -0.3815 -0.1553
 2099SOL    HW1 7196   5.624   1.789   6.774  0.1213 -0.5789 -0.7880
 2099SOL    HW2 7197   5.528   1.662   6.808 -0.0048 -0.2037  0.2940
 2100SOL     OW 7198   5.500   0.939   0.544  0.4599 -0.0426  0.3419
 2100SOL    HW1 7199   5.537   0.884   0.468  1.3559 -0.0674  0.7859
 2100SOL    HW2 7200   5.564   1.013   0.565  0.1937 -0.0151  1.0571
 2101SOL     OW 7201   0.612   6.258   0.146 -0.0481  0.4858 -0.3517
 2101SOL    HW1 7202   0.675   6.335   0.159  0.1685  0.1330  0.7663
 2101SOL    HW2 7203   0.527   6.291   0.105  0.2869  1.2165 -0.4724
 2102SOL     OW 7204   2.900   2.629   1.613 -0.0481 -0.2891 -0.4094
 2102SOL    HW1 7205   2.874   2.563   1.684 -0.3928  1.2077  0.9245
 2102SOL    HW2 7206   2.991   2.607   1.579  0.7294 -0.2939  1.5324
 2103SOL     OW 7207   2.606   0.381   3.395 -0.3607  0.8103 -0.1278
 2103SOL    HW1 7208   2.611   0.283   3.372 -0.7452  0.7402  0.0667
 2103SOL    HW2 7209   2.575   0.432   3.315  0.1497  0.8158 -0.3255
 2104SOL     OW 7210   4.028   2.267   5.926 -0.0334 -0.1088  0.5667
 2104SOL    HW1 7211   3.944   2.214   5.928  0.1723 -0.6977 -2.3226
 2104SOL    HW2 7212   4.027   2.328   5.847  2.7397 -1.1240 -0.3875
 2105SOL     OW 7213   0.885   1.311   6.590  0.1235 -0.4022  0.0775
 2105SOL    HW1 7214   0.963   1.362   6.627  0.0571 -1.7648  2.2924
 2105SOL    HW2 7215   0.911   1.216   6.574 -0.6759 -0.5134 -0.6444
 2106SOL     OW 7216   2.552   4.680   0.425 -0.0383  0.4840 -0.4136
 2106SOL    HW1 7217   2.580   4.587   0.399 -1.0345  0.5532 -1.8339
 2106SOL    HW2 7218   2.510   4.677   0.516  0.8743 -0.2678  0.0097
 2107SOL     OW 7219   2.962   3.315   3.429 -0.0235  0.5179 -0.1755
 2107SOL    HW1 7220   3.003   3.235   3.386 -0.0055  0.8806 -0.8557
 2107SOL    HW2 7221   2.914   3.288   3.512  1.7183  0.0882  0.7495
 2108SOL     OW 7222   5.192   1.443   4.623 -0.8041  0.0213  0.2017
 2108SOL    HW1 7223   5.163   1.525   4.674  1.1486  0.3462  0.8603
 2108SOL    HW2 7224   5.224   1.470   4.532 -3.0104 -0.4115 -0.7730
 2109SOL     OW 7225   2.951   5.827   0.443 -0.3491 -0.0287 -0.0511
 2109SOL    HW1 7226   2.873   5.765   0.429  1.1294 -2.1113  0.3461
 2109SOL    HW2 7227   3.035   5.780   0.414  0.8454  1.8799  0.1956
 2110SOL     OW 7228   3.104   1.105   4.326 -0.2278 -0.2020  0.2065
 2110SOL    HW1 7229   3.004   1.110   4.323 -0.3221 -0.0906  2.3708
 2110SOL    HW2 7230   3.137   1.153   4.407  1.6087 -0.0992 -0.5696
 2111SOL     OW 7231   5.278   2.382   3.173 -0.6483  0.3518 -0.2467
 2111SOL    HW1 7232   5.339   2.446   3.221 -1.2878  1.9589 -1.4753
 2111SOL    HW2 7233   5.322   2.351   3.089  0.1772 -1.8970  0.9329
 2112SOL     OW 7234   1.350   6.906   2.509  0.2959 -0.0416  0.2189
 2112SOL    HW1 7235   1.311   6.985   2.556 -0.0529 -0.3379  0.4337
 2112SOL    HW2 7236   1.316   6.822   2.551  0.9050 -0.3097  0.1962
 2113SOL     OW 7237   1.923   3.997   1.652  0.4626 -0.1824 -0.5122
 2113SOL    HW1 7238   1.898   4.075   1.708 -0.1410  0.6554 -1.8996
 2113SOL    HW2 7239   1.852   3.927   1.659  0.9926 -0.6330  0.7098
 2114SOL     OW 7240   5.478   3.682   5.740  0.1917  0.0086 -0.0273
 2114SOL    HW1 7241   5.481   3.779   5.762  0.4342 -0.3149  1.4768
 2114SOL    HW2 7242   5.553   3.635   5.786 -1.2650 -1.2455  1.1894
 2115SOL     OW 7243   3.089   6.085   6.509  0.1340 -0.7018  0.1953
 2115SOL    HW1 7244   3.051   6.133   6.430 -1.4939  4.1577  3.4948
 2115SOL    HW2 7245   3.019   6.027   6.549  0.2483 -1.3808 -0.5508
 2116SOL     OW 7246   2.014   5.456   0.353 -0.7903  0.3127 -0.0980
 2116SOL    HW1 7247   2.043   5.433   0.260 -0.5444  0.5181 -0.0741
 2116SOL    HW2 7248   1.945   5.391   0.383 -0.5009 -0.0619 -0.2333
 2117SOL     OW 7249   1.306   0.768   1.845 -0.3168  0.0661 -0.4148
 2117SOL    HW1 7250   1.293   0.853   1.794  1.7395  0.9274  0.3906
 2117SOL    HW2 7251   1.309   0.788   1.942 -1.2393 -1.1623 -0.1078
 2118SOL     OW 7252   0.479   1.267   4.263  0.0196  0.1861 -0.5738
 2118SOL    HW1 7253   0.410   1.236   4.197 -0.5247 -0.5683  0.3341
 2118SOL    HW2 7254   0.558   1.206   4.258  0.8076  1.2358 -1.8425
 2119SOL     OW 7255   6.989   0.699   6.351  0.5039  0.4955  0.1997
 2119SOL    HW1 7256   6.898   0.722   6.385  0.2760 -0.0198 -0.0600
 2119SOL    HW2 7257   7.008   0.752   6.268  1.3041  2.2200  1.4202
 2120SOL     OW 7258   5.218   7.016   3.119 -0.7151  0.0129 -0.0170
 2120SOL    HW1 7259   5.317   7.022   3.122 -0.5590 -1.9408  2.1053
 2120SOL    HW2 7260   5.178   7.104   3.147  0.4480  0.4145  0.4520
 2121SOL     OW 7261   6.284   6.433   6.460  0.7630  0.6371  0.7158
 2121SOL    HW1 7262   6.185   6.433   6.475  0.5235 -1.9183 -0.4187
 2121SOL    HW2 7263   6.322   6.345   6.487  2.4721  0.9738 -0.4520
 2122SOL     OW 7264   1.994   5.420   3.147  0.0953 -0.2620 -0.5166
 2122SOL    HW1 7265   2.061   5.462   3.086 -0.0229  2.3090  1.0141
 2122SOL    HW2 7266   1.931   5.489   3.182 -2.0701 -2.2430 -0.2067
 2123SOL     OW 7267   2.337   6.314   3.476  0.5110  0.3945 -0.0426
 2123SOL    HW1 7268   2.391   6.230   3.479 -0.6126 -0.3388  0.2015
 2123SOL    HW2 7269   2.340   6.360   3.565  0.1074 -0.0571  0.2086
 2124SOL     OW 7270   2.053   0.343   5.280 -0.2902  0.0586  0.0158
 2124SOL    HW1 7271   2.085   0.317   5.189  1.5347  0.1777  0.5820
 2124SOL    HW2 7272   2.013   0.435   5.275  0.1234  0.2159 -0.6118
 2125SOL     OW 7273   6.031   0.601   2.516 -0.4716  0.6869 -0.0799
 2125SOL    HW1 7274   6.054   0.686   2.563  0.0929  2.0096 -2.5970
 2125SOL    HW2 7275   5.959   0.618   2.449 -1.9226 -1.3386  0.8720
 2126SOL     OW 7276   4.633   7.011   4.436  0.0038 -0.0036 -0.1322
 2126SOL    HW1 7277   4.701   6.997   4.365  1.1033 -1.1721  1.0983
 2126SOL    HW2 7278   4.541   6.996   4.399  0.4998  0.1202 -1.4510
 2127SOL     OW 7279   2.159   0.800   0.790 -0.8741  0.3835  0.4479
 2127SOL    HW1 7280   2.121   0.788   0.882 -1.7443  2.3478  0.3891
 2127SOL    HW2 7281   2.199   0.891   0.782  2.0236 -0.8452 -0.1974
 2128SOL     OW 7282   3.212   5.439   5.318  0.9136  0.1935  0.5390
 2128SOL    HW1 7283   3.258   5.470   5.234  2.2159  3.4950  2.2615
 2128SOL    HW2 7284   3.275   5.384   5.373  0.8648 -0.0034  0.3981
 2129SOL     OW 7285   3.715   6.280   4.656 -0.4090 -0.8432  0.3175
 2129SOL    HW1 7286   3.805   6.288   4.698 -0.5917 -0.9701  0.7456
 2129SOL    HW2 7287   3.687   6.184   4.656 -0.5101 -0.8145  0.1151
 2130SOL     OW 7288   6.753   3.059   6.595  0.0604 -0.2125  0.3486
 2130SOL    HW1 7289   6.842   3.047   6.551  0.3055  0.2020  0.7256
 2130SOL    HW2 7290   6.710   3.142   6.559 -1.0069 -1.3958 -1.2157
 2131SOL     OW 7291   1.830   2.783   5.449 -0.0692  0.3021 -0.1398
 2131SOL    HW1 7292   1.774   2.812   5.526 -0.5382  0.9035 -0.7028
 2131SOL    HW2 7293   1.789   2.814   5.363  0.4613 -0.3320 -0.6364
 2132SOL     OW 7294   6.566   1.357   0.810  0.0362 -0.6698  0.3283
 2132SOL    HW1 7295   6.548   1.301   0.730 -0.0550  0.8342 -0.7437
 2132SOL    HW2 7296   6.479   1.388   0.849 -0.0011 -2.6624  2.0044
 2133SOL     OW 7297   6.825   1.238   3.369  0.0065  0.0835  0.4152
 2133SOL    HW1 7298   6.819   1.337   3.351 -5.0164 -0.0814 -0.2417
 2133SOL    HW2 7299   6.827   1.189   3.282 -4.7399 -0.3183  0.2930
 2134SOL     OW 7300   0.610   3.216   0.470 -0.5381  0.2150  0.1498
 2134SOL    HW1 7301   0.597   3.148   0.397  1.4233 -1.1302  0.9723
 2134SOL    HW2 7302   0.532   3.214   0.531 -0.1883 -2.0020  0.6396
 2135SOL     OW 7303   1.366   2.528   2.532  0.6732 -0.2439  0.9462
 2135SOL    HW1 7304   1.397   2.442   2.573  1.2429  0.0409  1.1247
 2135SOL    HW2 7305   1.322   2.584   2.602 -2.3096 -1.5493  0.2701
 2136SOL     OW 7306   6.813   6.431   6.734 -1.0771  0.1905  0.2277
 2136SOL    HW1 7307   6.793   6.388   6.822 -0.4461 -0.2367  0.1656
 2136SOL    HW2 7308   6.786   6.527   6.737 -3.2339 -0.3604  0.1069
 2137SOL     OW 7309   3.259   3.638   0.236  0.4431  0.0194  0.1035
 2137SOL    HW1 7310   3.229   3.628   0.331  1.9555 -2.0181  0.4354
 2137SOL    HW2 7311   3.198   3.702   0.188 -0.8476  0.4507  2.1971
 2138SOL     OW 7312   0.808   4.522   3.180  0.1612  0.0195  0.7126
 2138SOL    HW1 7313   0.744   4.458   3.221  0.6344 -1.4402 -0.7315
 2138SOL    HW2 7314   0.896   4.477   3.165  0.7061  1.2008  0.2445
 2139SOL     OW 7315   3.453   2.486   1.667  0.7392  0.6235 -0.5387
 2139SOL    HW1 7316   3.503   2.448   1.745  0.7264 -1.8848 -1.6527
 2139SOL    HW2 7317   3.357   2.461   1.673  0.3762  1.9805 -0.4572
 2140SOL     OW 7318   2.495   0.867   0.304  0.2069  0.1951 -0.0178
 2140SOL    HW1 7319   2.455   0.884   0.214  0.7876  3.0528  0.1455
 2140SOL    HW2 7320   2.583   0.821   0.295  0.6867  1.2580 -1.0427
 2141SOL     OW 7321   1.015   4.196   5.039 -0.1728 -0.4838 -0.0062
 2141SOL    HW1 7322   0.976   4.114   4.996 -2.6598  1.0188 -0.8376
 2141SOL    HW2 7323   1.015   4.271   4.973 -1.4251  1.1420  1.7348
 2142SOL     OW 7324   1.622   3.539   6.201  0.4405 -0.2391 -0.0680
 2142SOL    HW1 7325   1.645   3.446   6.229  0.6221 -0.7407 -1.7841
 2142SOL    HW2 7326   1.698   3.600   6.220  1.0275 -0.8040 -0.5681
 2143SOL     OW 7327   0.009   3.235   0.162  0.5437 -0.0638 -0.0393
 2143SOL    HW1 7328  -0.059   3.163   0.171 -1.2258  1.4733 -0.4934
 2143SOL    HW2 7329  -0.017   3.313   0.219  1.2800  1.0159 -1.1316
 2144SOL     OW 7330   5.339   6.716   4.871  0.5194  0.4255  0.2260
 2144SOL    HW1 7331   5.288   6.704   4.956  0.6432  1.0025  0.3829
 2144SOL    HW2 7332   5.341   6.813   4.846  3.0840  0.7247  1.2186
 2145SOL     OW 7333   3.447   1.844   4.514 -0.2166  0.3387  0.2135
 2145SOL    HW1 7334   3.442   1.941   4.538 -0.0974  0.2328  0.6714
 2145SOL    HW2 7335   3.475   1.791   4.594 -0.4472 -0.0948  0.0101
 2146SOL     OW 7336   3.592   5.789   4.169 -0.2259  0.1156 -0.1069
 2146SOL    HW1 7337   3.585   5.759   4.074 -0.4178  0.0323 -0.0687
 2146SOL    HW2 7338   3.532   5.732   4.226 -2.6709  2.1845 -0.4079
 2147SOL     OW 7339   3.070   5.142   4.000 -0.0300  0.2422 -0.3055
 2147SOL    HW1 7340   3.151   5.102   3.957  0.6614 -0.0754  1.2406
 2147SOL    HW2 7341   3.090   5.237   4.026 -0.2624  0.2507 -0.1556
 2148SOL     OW 7342   0.705   1.852   1.553  0.3639  0.4886  0.3962
 2148SOL    HW1 7343   0.712   1.755   1.575  0.4176  0.6113  0.9407
 2148SOL    HW2 7344   0.752   1.870   1.467 -1.1319 -0.2589 -0.6213
 2149SOL     OW 7345   6.057   4.182   4.105 -0.1615  0.3529  0.0411
 2149SOL    HW1 7346   6.152   4.154   4.093  0.0247  0.4567  1.1714
 2149SOL    HW2 7347   5.998   4.125   4.047  0.4314 -0.8231  0.5584
 2150SOL     OW 7348   3.225   6.497   4.996 -0.0004  0.2338  0.2516
 2150SOL    HW1 7349   3.152   6.526   4.934  0.3500  0.0395 -0.2528
 2150SOL    HW2 7350   3.314   6.520   4.956  0.2405 -0.3335  0.4538
 2151SOL     OW 7351   5.262   4.880   6.099 -0.3740 -0.0543 -0.1515
 2151SOL    HW1 7352   5.348   4.925   6.076 -0.4606 -0.1538 -0.6878
 2151SOL    HW2 7353   5.186   4.930   6.058 -0.4034 -1.1932 -1.5570
 2152SOL     OW 7354   2.633   1.537   3.676  0.4333  0.2812  0.1426
 2152SOL    HW1 7355   2.541   1.574   3.661  1.3065  2.8380  0.6528
 2152SOL    HW2 7356   2.629   1.469   3.749 -1.0530  0.2984  0.1213
 2153SOL     OW 7357   3.011   0.299   5.065 -0.6286 -0.6671  0.2586
 2153SOL    HW1 7358   2.996   0.289   4.967 -2.8252  0.1324  0.4481
 2153SOL    HW2 7359   3.058   0.218   5.101 -1.1632 -1.6595 -1.2006
 2154SOL     OW 7360   5.896   4.649   0.199  0.2901  0.2535  0.2146
 2154SOL    HW1 7361   5.818   4.697   0.159  0.9879  0.0476 -1.5148
 2154SOL    HW2 7362   5.968   4.639   0.129  0.9796 -1.4749  1.1124
 2155SOL     OW 7363   3.365   4.137   0.978 -0.8575 -0.2954  0.3779
 2155SOL    HW1 7364   3.323   4.196   1.048 -0.1005 -0.6281  1.1386
 2155SOL    HW2 7365   3.318   4.049   0.977 -0.0691 -0.7618  1.4132
 2156SOL     OW 7366   6.014   5.595   1.930  0.3339 -0.1170  0.0381
 2156SOL    HW1 7367   5.978   5.516   1.880 -1.4743  0.9947 -0.5327
 2156SOL    HW2 7368   6.028   5.571   2.026 -1.1213 -0.8900  0.0902
 2157SOL     OW 7369   5.640   2.764   6.869  0.2572  0.4672 -0.1915
 2157SOL    HW1 7370   5.623   2.677   6.822 -3.4789  1.1719 -0.4546
 2157SOL    HW2 7371   5.617   2.840   6.808  0.2800  1.5626  1.1188
 2158SOL     OW 7372   4.725   4.081   0.597 -0.0057 -0.4512  0.0120
 2158SOL    HW1 7373   4.746   4.176   0.622 -1.8120 -0.1462  0.5525
 2158SOL    HW2 7374   4.723   4.025   0.680  1.8577 -1.1711 -0.3891
 2159SOL     OW 7375   6.741   4.579   5.199 -0.2055 -0.1126  0.3463
 2159SOL    HW1 7376   6.791   4.665   5.211  0.4857 -0.7227  2.3071
 2159SOL    HW2 7377   6.665   4.575   5.265 -0.6114 -0.7400 -0.1472
 2160SOL     OW 7378   3.575   3.752   0.516 -0.0563  0.0299  0.1030
 2160SOL    HW1 7379   3.658   3.736   0.463  0.3683  2.1627  0.0455
 2160SOL    HW2 7380   3.528   3.665   0.531  2.3579 -1.3023  0.4674
 2161SOL     OW 7381   3.573   6.917   2.737 -0.7145 -0.6772 -0.2344
 2161SOL    HW1 7382   3.580   6.840   2.674  1.5625 -0.3305 -0.4812
 2161SOL    HW2 7383   3.579   6.884   2.831  0.2623 -0.8219 -0.3392
 2162SOL     OW 7384   1.794   1.288   1.834  0.5015 -0.5453  0.2801
 2162SOL    HW1 7385   1.848   1.349   1.775 -1.4454  1.7059  0.6464
 2162SOL    HW2 7386   1.753   1.216   1.779  1.6701 -0.6873 -0.4406
 2163SOL     OW 7387   4.257   4.124   6.642 -0.0600  0.2547  0.0354
 2163SOL    HW1 7388   4.216   4.144   6.553 -1.0430  1.8285  0.8073
 2163SOL    HW2 7389   4.292   4.030   6.641 -2.4341 -0.7264 -1.1437
 2164SOL     OW 7390   4.789   4.266   0.933  0.3013 -0.7158 -0.4536
 2164SOL    HW1 7391   4.799   4.294   0.838 -0.9637 -1.4225 -0.8275
 2164SOL    HW2 7392   4.799   4.345   0.993  1.9610 -0.4004 -1.0943
 2165SOL     OW 7393   6.717   3.996   4.166  0.2428 -0.2593 -0.1914
 2165SOL    HW1 7394   6.813   4.004   4.192  0.2012  0.6860 -0.2635
 2165SOL    HW2 7395   6.665   4.068   4.213 -0.0553  0.6559 -1.8561
 2166SOL     OW 7396   4.286   6.965   0.553  0.0349  0.2192 -0.0562
 2166SOL    HW1 7397   4.266   7.055   0.593 -0.5218  0.0555  0.0469
 2166SOL    HW2 7398   4.278   6.970   0.454 -0.5031  0.1639 -0.0181
 2167SOL     OW 7399   5.126   1.813   1.938  0.4559  0.3847 -0.0162
 2167SOL    HW1 7400   5.177   1.892   1.904  2.1664 -0.8392 -0.4312
 2167SOL    HW2 7401   5.167   1.782   2.024  1.8153 -1.8747 -1.3924
 2168SOL     OW 7402   3.240   0.325   1.998  0.1838 -0.2093  0.6048
 2168SOL    HW1 7403   3.216   0.230   1.977 -1.7290  0.1186  1.1433
 2168SOL    HW2 7404   3.311   0.326   2.069 -0.1285 -1.2257  0.9578
 2169SOL     OW 7405   2.291   6.972   2.543  0.1325  0.3061  0.1282
 2169SOL    HW1 7406   2.382   6.964   2.504  0.6094 -4.4456  1.6013
 2169SOL    HW2 7407   2.294   7.032   2.623  1.5657  1.3919 -0.6948
 2170SOL     OW 7408   3.686   2.108   5.153 -0.4792 -0.2102 -0.2701
 2170SOL    HW1 7409   3.626   2.188   5.152  1.0280  0.9795  0.3587
 2170SOL    HW2 7410   3.747   2.112   5.074 -0.7538 -1.0438 -0.5314
 2171SOL     OW 7411   5.386   5.344   4.430 -0.1941 -0.1390 -0.3145
 2171SOL    HW1 7412   5.442   5.262   4.418 -1.6766 -0.8053 -4.2770
 2171SOL    HW2 7413   5.445   5.422   4.449  1.4053 -1.7499  1.8225
 2172SOL     OW 7414   0.387   1.361   0.290  0.4901 -0.3902 -0.7229
 2172SOL    HW1 7415   0.341   1.371   0.202 -0.3815  2.0375 -0.0614
 2172SOL    HW2 7416   0.485   1.345   0.274  0.4563  0.6020 -2.1486
 2173SOL     OW 7417   4.148   6.706   4.655  0.2183 -0.0285 -0.1514
 2173SOL    HW1 7418   4.146   6.797   4.612  0.0789 -0.5668 -1.3213
 2173SOL    HW2 7419   4.091   6.643   4.602  0.0720 -0.7384  0.8208
 2174SOL     OW 7420   1.203   4.755   0.939 -0.2003 -0.2014 -0.0044
 2174SOL    HW1 7421   1.112   4.780   0.907  0.0260  0.5799 -0.0699
 2174SOL    HW2 7422   1.254   4.710   0.866 -0.2296  0.1615 -0.2509
 2175SOL     OW 7423   5.244   2.151   5.572  0.3535 -0.3833  0.0160
 2175SOL    HW1 7424   5.162   2.208   5.564  0.9516  0.3465 -1.2013
 2175SOL    HW2 7425   5.325   2.207   5.555  1.1061 -1.1580  0.9195
 2176SOL     OW 7426   6.970   3.931   6.967  0.4656 -0.0057  0.7354
 2176SOL    HW1 7427   6.873   3.954   6.956  0.1151 -1.6678  0.0004
 2176SOL    HW2 7428   7.023   4.015   6.979 -0.7737  1.1322 -1.1783
 2177SOL     OW 7429   3.984   4.817   2.203  0.0907  0.5081 -0.1160
 2177SOL    HW1 7430   3.940   4.791   2.117 -1.3181  0.0478  0.7017
 2177SOL    HW2 7431   4.070   4.768   2.213  0.3131  0.6371 -1.3013
 2178SOL     OW 7432   6.145   1.500   1.320 -0.1589  0.6740  0.1314
 2178SOL    HW1 7433   6.220   1.509   1.386 -0.1631  2.6562 -0.0801
 2178SOL    HW2 7434   6.142   1.406   1.286  1.5984  0.3049  0.8794
 2179SOL     OW 7435   1.921   2.311   0.509  0.1562  0.0963  0.4382
 2179SOL    HW1 7436   1.868   2.323   0.426 -2.0142 -0.1837  1.7196
 2179SOL    HW2 7437   1.927   2.398   0.558 -2.3332 -0.5315  2.0657
 2180SOL     OW 7438   2.360   5.376   5.534 -0.2270  0.2238 -0.6998
 2180SOL    HW1 7439   2.396   5.339   5.619 -2.7035  0.1545  0.4162
 2180SOL    HW2 7440   2.328   5.302   5.475  0.2151  0.3373 -1.0906
 2181SOL     OW 7441   4.387   1.114   0.582 -0.2732 -0.3687  0.1553
 2181SOL    HW1 7442   4.305   1.158   0.619  0.6518  0.7310  0.9582
 2181SOL    HW2 7443   4.395   1.021   0.618 -0.4896 -0.0389  1.0634
 2182SOL     OW 7444   2.086   0.833   1.656 -0.1967  0.3613  0.0490
 2182SOL    HW1 7445   2.037   0.753   1.622  0.1786  0.1350  0.0414
 2182SOL    HW2 7446   2.136   0.809   1.739  0.3475  0.4467 -0.2502
 2183SOL     OW 7447   0.325   2.974   1.911 -0.4561 -0.3996  0.4218
 2183SOL    HW1 7448   0.337   2.949   2.007  2.9231 -1.2203 -0.0712
 2183SOL    HW2 7449   0.301   3.071   1.905  0.4308 -0.0340  2.0892
 2184SOL     OW 7450   2.339   0.348   0.523  0.0648 -0.5761 -0.3462
 2184SOL    HW1 7451   2.314   0.315   0.432 -2.0774  1.6685 -0.6639
 2184SOL    HW2 7452   2.370   0.443   0.517 -0.7078 -0.1914  1.3198
 2185SOL     OW 7453   0.098   2.986   4.842  0.2207  0.6522 -0.0444
 2185SOL    HW1 7454   0.038   2.980   4.922 -0.2648 -0.5875 -0.4780
 2185SOL    HW2 7455   0.048   3.029   4.767  0.4474  1.1759  0.0992
 2186SOL     OW 7456   2.334   4.381   4.542  0.1534  0.2902 -0.7408
 2186SOL    HW1 7457   2.313   4.287   4.514 -1.3533 -0.5430  2.5832
 2186SOL    HW2 7458   2.265   4.443   4.506 -0.5416 -0.3744 -0.5734
 2187SOL     OW 7459   2.402   2.530   4.833  0.0113  0.2284 -0.0600
 2187SOL    HW1 7460   2.357   2.482   4.908 -0.5373  0.3847 -0.2826
 2187SOL    HW2 7461   2.361   2.621   4.823 -0.2913  0.0055 -0.8987
 2188SOL     OW 7462   1.623   5.072   4.309  0.1271 -0.0119  0.5725
 2188SOL    HW1 7463   1.662   5.062   4.218 -1.1463 -0.0502  0.0084
 2188SOL    HW2 7464   1.696   5.086   4.376  1.0420  0.8064 -0.5599
 2189SOL     OW 7465   0.383   0.816   2.343 -0.0984  0.0218  0.0098
 2189SOL    HW1 7466   0.444   0.749   2.301 -0.0094  0.4759 -0.6207
 2189SOL    HW2 7467   0.437   0.894   2.376 -0.1410 -0.4543  1.2411
 2190SOL     OW 7468   0.560   0.032   6.067 -0.2531  0.1122 -0.2237
 2190SOL    HW1 7469   0.617  -0.036   6.022  0.5351  0.2239  0.5718
 2190SOL    HW2 7470   0.466   0.024   6.035  0.2636  0.1793 -1.8619
 2191SOL     OW 7471   2.490   1.968   2.576  0.0680  0.2877 -0.3875
 2191SOL    HW1 7472   2.474   1.870   2.590  1.9243  0.0502  0.5134
 2191SOL    HW2 7473   2.557   1.980   2.503  0.9780  0.7536  0.4881
 2192SOL     OW 7474   2.836   4.931   4.934  0.0600 -0.1318 -0.3839
 2192SOL    HW1 7475   2.834   4.832   4.949  2.1877 -0.1925 -0.2378
 2192SOL    HW2 7476   2.864   4.977   5.018  2.2045  0.3006 -1.2489
 2193SOL     OW 7477   0.169   3.472   1.839  0.8087  0.2264 -0.0840
 2193SOL    HW1 7478   0.212   3.389   1.876 -2.3509  0.0943  4.0742
 2193SOL    HW2 7479   0.134   3.454   1.748  1.2610 -2.6596  0.2230
 2194SOL     OW 7480   2.877   4.600   0.503 -0.0938 -0.3088  0.8175
 2194SOL    HW1 7481   2.868   4.695   0.473 -0.3087 -0.2343  1.1108
 2194SOL    HW2 7482   2.845   4.539   0.430 -0.0466 -0.1532  0.6660
 2195SOL     OW 7483   0.472   0.863   1.930  0.7263 -0.0916  0.2170
 2195SOL    HW1 7484   0.520   0.775   1.933  1.4087  0.2079 -1.0772
 2195SOL    HW2 7485   0.375   0.848   1.909  0.7656 -0.5516  0.3663
 2196SOL     OW 7486   4.045   3.782   3.115 -0.3615  0.0911 -0.1580
 2196SOL    HW1 7487   3.954   3.824   3.124 -0.2985  0.0613  0.6433
 2196SOL    HW2 7488   4.035   3.685   3.096 -0.4980  0.2699 -1.0710
 2197SOL     OW 7489   0.168   3.378   4.446  0.3750 -0.1016  0.2757
 2197SOL    HW1 7490   0.212   3.333   4.369 -0.5864 -0.6623  0.0310
 2197SOL    HW2 7491   0.230   3.444   4.487  0.4470  1.1802 -1.7899
 2198SOL     OW 7492   0.509   0.521   0.612 -0.5038  0.2383  0.2772
 2198SOL    HW1 7493   0.480   0.608   0.573  2.0216  0.7956 -0.5593
 2198SOL    HW2 7494   0.454   0.447   0.574 -0.8172  1.2013 -1.1982
 2199SOL     OW 7495   4.304   5.868   4.085 -0.4097 -0.3349  0.2927
 2199SOL    HW1 7496   4.344   5.801   4.023  2.0350  1.2426  0.0234
 2199SOL    HW2 7497   4.243   5.929   4.033  1.1868  0.6322 -0.5278
 2200SOL     OW 7498   2.304   1.710   0.275 -0.1196 -0.2625 -0.2204
 2200SOL    HW1 7499   2.243   1.637   0.242  1.1506 -0.8806 -1.2994
 2200SOL    HW2 7500   2.354   1.678   0.355 -0.7800  0.0477  0.3284
 2201SOL     OW 7501   3.024   5.221   5.881  0.3071  0.6296 -1.0155
 2201SOL    HW1 7502   3.050   5.203   5.786  1.3097  1.2290 -0.8800
 2201SOL    HW2 7503   3.098   5.192   5.942  1.2225  3.3662 -0.6809
 2202SOL     OW 7504   0.375   2.051   0.603 -0.0113 -0.2302 -0.0281
 2202SOL    HW1 7505   0.387   2.118   0.677  0.5878 -0.0018 -0.3254
 2202SOL    HW2 7506   0.287   2.067   0.558  0.2466  0.5373 -0.2739
 2203SOL     OW 7507   0.187   0.205   6.463 -1.0048 -0.2262  0.1259
 2203SOL    HW1 7508   0.161   0.299   6.440 -0.2275 -0.3983 -1.5935
 2203SOL    HW2 7509   0.160   0.144   6.389 -0.5821 -1.2184  0.7658
 2204SOL     OW 7510   2.294   1.120   2.743 -0.5108 -0.1957 -0.3310
 2204SOL    HW1 7511   2.245   1.178   2.808  0.2565  0.0415  0.0529
 2204SOL    HW2 7512   2.380   1.165   2.717  0.8036 -1.7632  1.0819
 2205SOL     OW 7513   6.401   4.547   5.865 -0.3236  0.2043  0.0334
 2205SOL    HW1 7514   6.314   4.587   5.838 -0.0545 -1.3112 -3.6968
 2205SOL    HW2 7515   6.473   4.577   5.803  1.0734 -1.3694  0.7879
 2206SOL     OW 7516   2.511   3.960   0.453  0.2539 -0.2726 -0.3062
 2206SOL    HW1 7517   2.564   3.930   0.374 -0.4979 -1.1444 -0.5066
 2206SOL    HW2 7518   2.439   3.892   0.472  0.2980  0.0190  1.0023
 2207SOL     OW 7519   5.397   3.733   1.444 -0.5657 -0.5780  0.2411
 2207SOL    HW1 7520   5.483   3.696   1.409  0.0581  1.4472 -0.5262
 2207SOL    HW2 7521   5.400   3.737   1.543  0.3109 -0.3795  0.2185
 2208SOL     OW 7522   0.259   1.214   4.681  0.5713 -0.3681  0.3579
 2208SOL    HW1 7523   0.297   1.122   4.693 -0.1179 -0.8017 -0.6576
 2208SOL    HW2 7524   0.312   1.262   4.610  0.9191  0.0188  0.8736
 2209SOL     OW 7525   1.479   3.394   3.823  0.2193  0.1424 -0.3480
 2209SOL    HW1 7526   1.536   3.335   3.881  1.6123 -0.0084 -1.7919
 2209SOL    HW2 7527   1.387   3.357   3.817  0.6230 -0.9707  0.1111
 2210SOL     OW 7528   4.007   5.600   4.643  0.1380  0.0232 -0.4541
 2210SOL    HW1 7529   4.084   5.590   4.580  0.4676  0.8768 -0.2028
 2210SOL    HW2 7530   3.970   5.692   4.636 -0.3295 -0.1214  0.0375
 2211SOL     OW 7531   6.981   6.536   2.241 -0.1753  0.6664  0.3068
 2211SOL    HW1 7532   7.000   6.439   2.260  0.9792  0.6552 -0.8100
 2211SOL    HW2 7533   6.886   6.557   2.267 -0.7811 -1.0161 -0.4032
 2212SOL     OW 7534   0.350   1.799   4.127 -0.0772 -0.8128 -0.2853
 2212SOL    HW1 7535   0.379   1.704   4.129  0.5819 -0.6241 -0.5061
 2212SOL    HW2 7536   0.310   1.820   4.038  0.2354 -0.7559 -0.4140
 2213SOL     OW 7537   6.445   5.305   0.430  0.2585 -0.5802  1.0211
 2213SOL    HW1 7538   6.538   5.270   0.424  0.3149 -0.2188 -1.2006
 2213SOL    HW2 7539   6.380   5.233   0.406  0.2296  0.0078 -0.9248
 2214SOL     OW 7540   2.845   5.864   6.222  0.1177  0.1397 -0.1859
 2214SOL    HW1 7541   2.918   5.795   6.220  1.6475  1.6348  0.7696
 2214SOL    HW2 7542   2.815   5.883   6.129  2.4500  0.9177 -0.8680
 2215SOL     OW 7543   6.014   5.246   3.467 -0.0520 -0.6696  0.0730
 2215SOL    HW1 7544   6.037   5.180   3.538 -0.1765  0.4855  1.2089
 2215SOL    HW2 7545   5.928   5.291   3.489  0.3711  0.3654 -0.3239
 2216SOL     OW 7546   1.377   1.402   2.598  0.2081  0.5911 -0.2050
 2216SOL    HW1 7547   1.327   1.325   2.638  1.0922  0.4735  0.7225
 2216SOL    HW2 7548   1.352   1.412   2.502 -0.0166 -0.7833 -0.3077
 2217SOL     OW 7549   0.841   1.842   3.919  0.3148 -0.5066 -0.1611
 2217SOL    HW1 7550   0.903   1.916   3.944 -0.0948  0.2615 -1.3682
 2217SOL    HW2 7551   0.839   1.831   3.820  0.3822 -2.1600 -0.0139
 2218SOL     OW 7552   1.619   0.843   5.508 -0.5228 -0.0329 -0.1762
 2218SOL    HW1 7553   1.541   0.822   5.449 -2.1649 -0.2772  1.9490
 2218SOL    HW2 7554   1.604   0.931   5.553 -0.1400 -0.5991  1.1075
 2219SOL     OW 7555   6.333   2.551   4.794  0.1980 -0.0225 -0.7416
 2219SOL    HW1 7556   6.366   2.457   4.787  0.1026 -0.1220  0.0570
 2219SOL    HW2 7557   6.391   2.602   4.857 -0.1391  0.2739 -0.6690
 2220SOL     OW 7558   0.364   2.966   4.897 -0.3030  0.2384 -0.2686
 2220SOL    HW1 7559   0.267   2.979   4.878 -0.3713 -2.5852 -2.6180
 2220SOL    HW2 7560   0.376   2.888   4.959  0.4676  0.2512 -0.3954
 2221SOL     OW 7561   5.203   6.626   2.218 -0.1177  0.3600 -0.3569
 2221SOL    HW1 7562   5.125   6.649   2.276  0.9183 -0.9874  1.6537
 2221SOL    HW2 7563   5.288   6.648   2.265  0.7758  1.3272 -2.3084
 2222SOL     OW 7564   5.821   1.305   5.607 -0.3732 -0.2019  0.4677
 2222SOL    HW1 7565   5.845   1.387   5.659 -1.1947  0.2782  0.1011
 2222SOL    HW2 7566   5.760   1.247   5.661  0.7091 -0.9023  0.9784
 2223SOL     OW 7567   1.266   3.554   0.992  0.1713  0.6619  0.1515
 2223SOL    HW1 7568   1.250   3.653   0.982  0.0419  0.4839 -1.8177
 2223SOL    HW2 7569   1.348   3.528   0.941  0.6300 -0.1637  1.2580
 2224SOL     OW 7570   1.687   0.199   3.859 -0.4068  0.3789 -0.4341
 2224SOL    HW1 7571   1.690   0.281   3.916 -0.0672  1.0611 -1.3941
 2224SOL    HW2 7572   1.592   0.174   3.841 -0.5711 -1.0508  2.0565
 2225SOL     OW 7573   7.002   2.829   5.583 -0.5124 -0.8071 -0.7329
 2225SOL    HW1 7574   7.030   2.750   5.637  1.6073 -0.0206 -0.6074
 2225SOL    HW2 7575   7.082   2.871   5.541 -1.6274  1.0439 -1.1049
 2226SOL     OW 7576   6.749   5.753   1.066  0.0376 -0.1566  0.0017
 2226SOL    HW1 7577   6.711   5.783   0.979  1.8709  1.9741 -0.1485
 2226SOL    HW2 7578   6.684   5.775   1.139 -0.5929  0.0293 -0.5965
 2227SOL     OW 7579   3.789   6.043   6.462  0.0798  0.4332 -0.0307
 2227SOL    HW1 7580   3.753   6.041   6.369 -0.2860  0.3410  0.1100
 2227SOL    HW2 7581   3.804   6.138   6.490 -1.6468  0.5829  0.5014
 2228SOL     OW 7582   2.889   1.870   4.495  0.1673 -0.0013  0.1256
 2228SOL    HW1 7583   2.949   1.807   4.544  0.9880  0.7057  0.0435
 2228SOL    HW2 7584   2.817   1.818   4.449 -0.1085 -0.7407  1.3683
 2229SOL     OW 7585   0.468   3.344   5.217 -0.2997  0.3703 -0.1421
 2229SOL    HW1 7586   0.458   3.378   5.123  0.5494  0.4772 -0.1981
 2229SOL    HW2 7587   0.521   3.409   5.271  1.7010 -0.9857 -0.3545
 2230SOL     OW 7588   2.413   6.879   0.081  0.2102  0.4120  0.9711
 2230SOL    HW1 7589   2.360   6.794   0.085  0.9729 -0.0742  0.9552
 2230SOL    HW2 7590   2.355   6.956   0.107 -1.4216  0.3367 -2.0099
 2231SOL     OW 7591   6.994   2.537   0.248  0.2030 -0.3934  0.0497
 2231SOL    HW1 7592   7.005   2.440   0.270  1.6351 -0.2353  0.1092
 2231SOL    HW2 7593   7.075   2.570   0.200 -1.0332  0.3446 -1.6478
 2232SOL     OW 7594   4.153   3.814   1.922  0.7293  0.3730  0.4349
 2232SOL    HW1 7595   4.242   3.779   1.893 -0.3870 -2.1732 -0.1111
 2232SOL    HW2 7596   4.124   3.768   2.005 -1.4496 -1.2842 -1.1097
 2233SOL     OW 7597   4.474   3.796   6.957  0.0198  0.1321 -0.5576
 2233SOL    HW1 7598   4.512   3.719   7.009  0.3660 -0.2772 -1.3954
 2233SOL    HW2 7599   4.537   3.874   6.964  0.0854  0.0665 -0.3959
 2234SOL     OW 7600   2.094   2.625   6.425  0.3371 -0.2395  0.1564
 2234SOL    HW1 7601   2.102   2.715   6.381  0.0815 -0.9672 -1.4569
 2234SOL    HW2 7602   2.178   2.606   6.477  1.1445  0.2019 -0.9349
 2235SOL     OW 7603   6.715   4.337   1.659  0.6789 -0.3311  0.3965
 2235SOL    HW1 7604   6.620   4.303   1.653 -0.1959  1.8482  0.9876
 2235SOL    HW2 7605   6.768   4.301   1.582 -0.9383 -0.6762 -0.6087
 2236SOL     OW 7606   5.195   4.560   3.572 -0.4241 -0.3482  0.0624
 2236SOL    HW1 7607   5.206   4.659   3.574 -0.4343 -0.3098 -0.9730
 2236SOL    HW2 7608   5.207   4.522   3.664 -1.3856  0.7050  0.6360
 2237SOL     OW 7609   1.832   4.059   0.525 -0.1341  0.4087  0.1012
 2237SOL    HW1 7610   1.751   4.109   0.555 -0.5863 -0.2354 -0.0242
 2237SOL    HW2 7611   1.842   4.069   0.426  0.6096  1.4481  0.2701
 2238SOL     OW 7612   6.596   4.275   3.786 -0.0183  0.4294  0.1449
 2238SOL    HW1 7613   6.613   4.305   3.692 -0.0167 -1.1121 -0.3820
 2238SOL    HW2 7614   6.683   4.261   3.833  0.0222 -0.1152 -0.0816
 2239SOL     OW 7615   3.684   5.902   5.529 -0.5035  0.1653  0.2562
 2239SOL    HW1 7616   3.780   5.878   5.539 -0.2288  1.3891  0.6814
 2239SOL    HW2 7617   3.636   5.828   5.482  0.8722  0.0367 -1.0232
 2240SOL     OW 7618   4.110   0.603   6.479  0.3267  0.0875 -0.0208
 2240SOL    HW1 7619   4.139   0.507   6.477 -1.5857 -0.5035 -0.8878
 2240SOL    HW2 7620   4.011   0.608   6.491  0.3539  1.9575 -0.3095
 2241SOL     OW 7621   5.155   6.045   6.855  0.6133 -0.6551  0.2212
 2241SOL    HW1 7622   5.187   5.954   6.827  0.2582 -0.6844 -0.0976
 2241SOL    HW2 7623   5.108   6.038   6.943  1.2146 -0.6610  0.5487
 2242SOL     OW 7624   2.924   3.826   4.888 -0.3017 -0.3654 -0.2249
 2242SOL    HW1 7625   2.826   3.830   4.868 -0.8921 -0.0748  2.3989
 2242SOL    HW2 7626   2.945   3.740   4.934  0.7304 -0.4973 -0.9170
 2243SOL     OW 7627   0.764   3.889   3.519  0.2217 -0.2793  0.0451
 2243SOL    HW1 7628   0.863   3.877   3.509 -0.0015 -0.2232 -3.6278
 2243SOL    HW2 7629   0.739   3.983   3.496 -0.9652 -1.2826 -3.2278
 2244SOL     OW 7630   2.130   0.394   5.994 -1.0999  0.0642 -0.4712
 2244SOL    HW1 7631   2.213   0.383   6.049 -0.9982 -1.0173 -0.8244
 2244SOL    HW2 7632   2.071   0.463   6.036 -0.7961 -0.3858  0.7194
 2245SOL     OW 7633   0.462   3.420   4.962 -0.0717  0.7413  0.4000
 2245SOL    HW1 7634   0.523   3.421   4.882 -0.7456  1.0444 -0.1212
 2245SOL    HW2 7635   0.371   3.451   4.934 -0.2024  1.2549  1.3858
 2246SOL     OW 7636   4.897   4.884   0.967  0.2737  1.0949 -0.0061
 2246SOL    HW1 7637   4.851   4.950   1.026  0.6877  1.1974  0.1999
 2246SOL    HW2 7638   4.953   4.932   0.900  1.3192  0.9336  0.7430
 2247SOL     OW 7639   0.153   5.555   0.957  0.3714 -0.3048 -0.2758
 2247SOL    HW1 7640   0.110   5.487   1.016  0.6253  0.1182  0.4157
 2247SOL    HW2 7641   0.252   5.557   0.975  0.5095 -0.4674 -1.0207
 2248SOL     OW 7642   4.736   5.027   0.727 -0.0743  0.0447  0.2716
 2248SOL    HW1 7643   4.812   4.977   0.685  0.6812 -0.7029  2.3781
 2248SOL    HW2 7644   4.652   5.011   0.676  0.4260 -2.3442  0.1107
 2249SOL     OW 7645   1.768   3.879   5.054 -0.1491 -0.3752 -0.4742
 2249SOL    HW1 7646   1.854   3.929   5.051 -0.6934  0.6571  0.4160
 2249SOL    HW2 7647   1.786   3.780   5.051  0.9912 -0.1624 -1.3306
 2250SOL     OW 7648   0.274   4.554   2.637  0.5444 -0.2218  0.1224
 2250SOL    HW1 7649   0.208   4.532   2.564  0.6080 -2.5613  0.6995
 2250SOL    HW2 7650   0.293   4.472   2.691  2.1067  0.9744  1.4960
 2251SOL     OW 7651   6.438   1.604   5.122  0.1240  0.0078 -0.0235
 2251SOL    HW1 7652   6.349   1.573   5.090  0.3989 -1.5690  0.6562
 2251SOL    HW2 7653   6.425   1.675   5.191 -0.5114  1.5956 -1.6943
 2252SOL     OW 7654   5.652   5.070   3.841  0.2253  0.0114 -0.2992
 2252SOL    HW1 7655   5.694   4.988   3.880  1.4832  0.4930 -0.5753
 2252SOL    HW2 7656   5.724   5.130   3.806 -0.5402  1.9141  1.1963
 2253SOL     OW 7657   2.889   1.734   2.691 -0.1070 -0.6629  0.1219
 2253SOL    HW1 7658   2.871   1.813   2.749  0.8991  0.0696 -0.5244
 2253SOL    HW2 7659   2.898   1.652   2.747 -0.6490 -0.2279  0.8488
 2254SOL     OW 7660   4.710   2.323   4.166  0.0855 -0.5673 -0.7597
 2254SOL    HW1 7661   4.688   2.385   4.241 -0.9319 -0.7233 -0.9167
 2254SOL    HW2 7662   4.743   2.375   4.088 -1.0284 -0.1716 -0.9886
 2255SOL     OW 7663   0.891   1.180   3.670  0.8533  0.0464 -0.4484
 2255SOL    HW1 7664   0.958   1.126   3.620  0.9398 -0.9089  0.6499
 2255SOL    HW2 7665   0.815   1.204   3.610  0.7177 -1.4741 -0.9238
 2256SOL     OW 7666   0.166   2.089   5.828 -0.8183  0.0296  0.1845
 2256SOL    HW1 7667   0.091   2.068   5.891  0.0670 -2.0120  0.6568
 2256SOL    HW2 7668   0.253   2.075   5.875 -0.1182  1.5467 -0.5993
 2257SOL     OW 7669   6.602   6.170   4.470  0.4620 -0.3419 -0.0421
 2257SOL    HW1 7670   6.609   6.202   4.376  1.1739 -0.5200 -0.0517
 2257SOL    HW2 7671   6.650   6.233   4.531 -2.1245  1.2050  0.5600
 2258SOL     OW 7672   0.900   2.049   6.760  0.4044  0.3438  0.0945
 2258SOL    HW1 7673   0.807   2.074   6.732 -0.3315 -1.0691  1.1141
 2258SOL    HW2 7674   0.923   1.960   6.722  0.3456 -0.4608  1.8534
 2259SOL     OW 7675   6.276   6.470   2.112 -0.7151 -0.2313  0.7906
 2259SOL    HW1 7676   6.237   6.553   2.074 -0.2946  0.0887  1.0563
 2259SOL    HW2 7677   6.232   6.450   2.199  0.8742  1.0876  1.9530
 2260SOL     OW 7678   6.609   5.649   3.438  0.0648 -0.0608 -0.2234
 2260SOL    HW1 7679   6.618   5.552   3.416 -0.0126 -0.2347  0.5062
 2260SOL    HW2 7680   6.512   5.674   3.440  0.0835  0.7115 -3.2632
 2261SOL     OW 7681   4.715   4.231   5.977 -0.4929 -0.6563  0.0538
 2261SOL    HW1 7682   4.639   4.172   6.005 -0.7210 -1.0809 -1.3521
 2261SOL    HW2 7683   4.752   4.197   5.890  1.0665 -0.2326  0.5247
 2262SOL     OW 7684   5.921   3.285   6.962  0.0014  0.7733 -0.1887
 2262SOL    HW1 7685   5.890   3.345   6.888  1.1608  1.6910  0.0383
 2262SOL    HW2 7686   6.015   3.308   6.987  0.0279 -0.2879  0.8026
 2263SOL     OW 7687   1.035   6.143   6.601  0.3024  0.1620 -0.3625
 2263SOL    HW1 7688   1.033   6.052   6.643  1.0898  1.1758  2.0529
 2263SOL    HW2 7689   1.003   6.211   6.667 -0.0089  1.7010 -2.0161
 2264SOL     OW 7690   6.483   2.602   0.715  0.1688  0.2440  0.4359
 2264SOL    HW1 7691   6.401   2.624   0.662  0.2912 -0.9432 -0.2570
 2264SOL    HW2 7692   6.559   2.586   0.653  0.1390 -1.9072  0.9024
 2265SOL     OW 7693   0.864   6.064   4.633 -0.1587 -0.0985  0.3869
 2265SOL    HW1 7694   0.784   6.112   4.597  1.7416  2.2911 -0.9537
 2265SOL    HW2 7695   0.916   6.025   4.558  1.2027  0.5412  0.9625
 2266SOL     OW 7696   1.774   3.163   5.237  0.2879 -0.5415  1.0047
 2266SOL    HW1 7697   1.783   3.066   5.212 -0.7334 -0.2366 -0.6728
 2266SOL    HW2 7698   1.857   3.212   5.212  0.2541 -0.7237  0.5196
 2267SOL     OW 7699   6.072   2.946   0.410  0.7152 -0.4153 -0.4278
 2267SOL    HW1 7700   6.043   2.944   0.506 -0.6504  0.4365 -0.8029
 2267SOL    HW2 7701   6.023   2.874   0.360  1.1158 -0.5819 -0.5851
 2268SOL     OW 7702   5.118   6.752   5.357  0.7677 -0.0363  0.3346
 2268SOL    HW1 7703   5.156   6.845   5.357 -0.5128  0.5105  0.7674
 2268SOL    HW2 7704   5.096   6.726   5.263  1.5089 -0.0735  0.1633
 2269SOL     OW 7705   3.244   6.057   5.146  0.1387 -0.2150  0.2312
 2269SOL    HW1 7706   3.179   6.131   5.128  1.3002  1.2125  1.6576
 2269SOL    HW2 7707   3.328   6.074   5.095 -0.3655 -1.8296 -1.2634
 2270SOL     OW 7708   5.112   3.721   1.435 -0.7521 -0.0497  0.9070
 2270SOL    HW1 7709   5.068   3.810   1.448 -0.7486 -0.0641  1.0146
 2270SOL    HW2 7710   5.211   3.733   1.440 -0.7310  0.0484  0.2606
 2271SOL     OW 7711   2.772   2.280   1.129  0.0734  0.3310  0.1973
 2271SOL    HW1 7712   2.816   2.359   1.171  1.7070 -0.7231  0.5563
 2271SOL    HW2 7713   2.756   2.210   1.198 -0.9618  0.1517 -0.2038
 2272SOL     OW 7714   5.309   4.258   4.996 -0.4555  0.3133 -0.1630
 2272SOL    HW1 7715   5.218   4.256   5.039 -0.6986  1.0712 -0.6306
 2272SOL    HW2 7716   5.301   4.296   4.904  0.3907  0.7340 -0.0673
 2273SOL     OW 7717   4.426   0.530   4.504 -0.3187  0.3844  0.3720
 2273SOL    HW1 7718   4.341   0.541   4.452 -0.6269  0.4002  0.8687
 2273SOL    HW2 7719   4.413   0.461   4.575 -0.0790  0.7573  0.7821
 2274SOL     OW 7720   2.240   5.167   4.441 -0.1946  0.2514  0.2034
 2274SOL    HW1 7721   2.234   5.192   4.538  1.0277 -0.7838  0.5730
 2274SOL    HW2 7722   2.328   5.122   4.424 -1.9737 -3.3258 -0.4872
 2275SOL     OW 7723   4.650   6.654   1.270  0.0186  0.0663  0.1699
 2275SOL    HW1 7724   4.648   6.753   1.284  0.6721  0.3905 -1.7098
 2275SOL    HW2 7725   4.647   6.607   1.358 -5.3236  1.5940  1.2067
 2276SOL     OW 7726   4.204   2.015   1.675 -0.3067  0.7178  0.1859
 2276SOL    HW1 7727   4.132   1.952   1.706  0.3154  0.4744  1.1888
 2276SOL    HW2 7728   4.168   2.074   1.603 -1.0697 -0.4205 -0.4019
 2277SOL     OW 7729   0.696   2.963   2.402  0.3029  0.2958 -0.0039
 2277SOL    HW1 7730   0.677   2.899   2.327  0.1578 -3.2255  2.7765
 2277SOL    HW2 7731   0.619   3.025   2.413  0.1616  0.6649 -2.4206
 2278SOL     OW 7732   3.063   3.908   0.032 -0.3633  0.1015  0.0967
 2278SOL    HW1 7733   3.121   3.913   0.113  2.0492 -1.0382 -1.4346
 2278SOL    HW2 7734   3.068   3.995  -0.018 -0.4379  0.2042  0.2687
 2279SOL     OW 7735   5.313   4.246   2.995 -0.4602  0.0844  0.0641
 2279SOL    HW1 7736   5.294   4.194   3.078  0.7125 -0.7509 -0.1617
 2279SOL    HW2 7737   5.381   4.316   3.014  0.5173 -0.7233 -0.3743
 2280SOL     OW 7738   3.139   4.650   6.118  0.8988  0.1928 -0.1984
 2280SOL    HW1 7739   3.202   4.631   6.044  0.1643 -1.4366 -0.4473
 2280SOL    HW2 7740   3.080   4.728   6.093  1.0740  0.0563 -1.0590
 2281SOL     OW 7741   6.372   1.079   3.795 -0.0085  0.0720 -0.2247
 2281SOL    HW1 7742   6.380   1.103   3.892  0.2651 -0.3838 -0.1318
 2281SOL    HW2 7743   6.454   1.029   3.766 -0.9560 -1.6077 -0.1563
 2282SOL     OW 7744   5.416   1.677   4.374 -0.4935 -0.0651 -0.0287
 2282SOL    HW1 7745   5.393   1.589   4.333 -0.1506  0.2382 -0.8764
 2282SOL    HW2 7746   5.467   1.733   4.309 -0.1329  0.5117  0.7273
 2283SOL     OW 7747   4.727   6.732   3.092  0.4370 -0.1577  0.6785
 2283SOL    HW1 7748   4.658   6.723   3.020  2.8938 -2.1463 -1.6792
 2283SOL    HW2 7749   4.775   6.819   3.082  2.2555 -1.2909 -1.7895
 2284SOL     OW 7750   3.618   2.754   5.802  0.1347  0.4670 -0.0593
 2284SOL    HW1 7751   3.645   2.841   5.842 -1.0245  0.7954  0.0571
 2284SOL    HW2 7752   3.583   2.694   5.874  2.4272 -0.7471  0.1402
 2285SOL     OW 7753   0.325   5.550   1.794 -0.0485  0.4320  0.8369
 2285SOL    HW1 7754   0.317   5.464   1.744 -0.6197  0.6040  0.6213
 2285SOL    HW2 7755   0.384   5.613   1.745  0.6775  0.0328  1.1843
 2286SOL     OW 7756   6.959   0.423   1.967  0.0537 -0.1960  0.3265
 2286SOL    HW1 7757   7.004   0.340   2.000  1.0658  0.2368  0.1008
 2286SOL    HW2 7758   6.893   0.456   2.034 -0.0776 -0.9717  0.5797
 2287SOL     OW 7759   3.235   1.025   1.558  0.2501  0.1028 -0.3843
 2287SOL    HW1 7760   3.240   0.926   1.576 -2.1228  0.3826  2.7623
 2287SOL    HW2 7761   3.143   1.049   1.527  0.6049  1.4005 -0.5024
 2288SOL     OW 7762   2.362   5.855   0.184 -0.1318  0.5425 -0.0634
 2288SOL    HW1 7763   2.434   5.827   0.120 -1.4589  0.5732 -1.6431
 2288SOL    HW2 7764   2.335   5.776   0.239  0.3378  0.2410 -0.2557
 2289SOL     OW 7765   2.978   4.866   3.820  0.3227  0.2801  0.4718
 2289SOL    HW1 7766   2.961   4.940   3.755  0.9282  1.6403  1.7987
 2289SOL    HW2 7767   3.074   4.869   3.847  0.6470 -1.7442 -0.3015
 2290SOL     OW 7768   2.740   3.108   5.284 -0.0458  0.3197  0.1311
 2290SOL    HW1 7769   2.660   3.066   5.242  0.0312 -0.6008  0.8800
 2290SOL    HW2 7770   2.821   3.053   5.262  0.0732  0.1195  1.0469
 2291SOL     OW 7771   0.362   0.659   6.203  0.5230 -0.3667 -0.3024
 2291SOL    HW1 7772   0.448   0.624   6.239  0.3959 -0.3088  0.0594
 2291SOL    HW2 7773   0.356   0.757   6.221  1.0328 -0.0729 -1.6066
 2292SOL     OW 7774   1.973   1.929   5.377 -0.3221  0.2046 -0.3148
 2292SOL    HW1 7775   2.019   2.008   5.417 -0.6645  0.4758 -0.4512
 2292SOL    HW2 7776   2.029   1.892   5.303 -0.0353  0.1527 -0.0762
 2293SOL     OW 7777   5.005   4.100   4.031 -0.4705  0.0143 -0.0427
 2293SOL    HW1 7778   4.973   4.136   3.943 -2.8723  1.8902  1.4449
 2293SOL    HW2 7779   5.070   4.164   4.071  0.6818 -0.8781 -0.4430
 2294SOL     OW 7780   3.401   1.522   6.701 -0.2057 -0.5040  0.2801
 2294SOL    HW1 7781   3.468   1.590   6.670 -1.9146 -0.8001 -5.1221
 2294SOL    HW2 7782   3.449   1.441   6.734  1.9595  0.8257  0.6101
 2295SOL     OW 7783   3.941   4.820   3.296  0.4570  0.1045  0.2397
 2295SOL    HW1 7784   3.852   4.865   3.303  1.4361  2.0586  0.8666
 2295SOL    HW2 7785   3.970   4.788   3.386 -0.2441 -1.9749 -0.1985
 2296SOL     OW 7786   1.199   3.547   5.864  0.3938  0.3869 -0.0708
 2296SOL    HW1 7787   1.139   3.627   5.872 -0.2205 -0.1635  0.9940
 2296SOL    HW2 7788   1.265   3.548   5.939 -0.0742 -0.4699  0.3634
 2297SOL     OW 7789   1.325   5.558   1.949  0.0929  0.4943 -0.4951
 2297SOL    HW1 7790   1.310   5.561   2.048 -1.5945  0.5193 -0.7201
 2297SOL    HW2 7791   1.422   5.543   1.930  0.0978 -2.4335  1.2118
 2298SOL     OW 7792   4.873   4.747   5.660  0.2393 -0.1018  0.1696
 2298SOL    HW1 7793   4.800   4.751   5.727 -2.0918 -1.6759 -2.0752
 2298SOL    HW2 7794   4.901   4.651   5.646 -0.2940 -0.0070 -1.9539
 2299SOL     OW 7795   3.359   0.602   0.759  1.2156 -0.0547  0.4346
 2299SOL    HW1 7796   3.392   0.688   0.799 -0.0079  0.4927  0.3028
 2299SOL    HW2 7797   3.330   0.619   0.665 -1.1454 -0.0860  1.1133
 2300SOL     OW 7798   2.770   3.158   6.316 -0.3182  0.2532 -0.0778
 2300SOL    HW1 7799   2.814   3.176   6.404 -0.7612  0.8057  0.0333
 2300SOL    HW2 7800   2.792   3.232   6.252  0.2267 -0.2855 -0.5186
 2301SOL     OW 7801   4.985   0.930   2.164 -0.3964  0.5075  0.1015
 2301SOL    HW1 7802   4.895   0.924   2.120 -0.7758 -1.0590  1.0022
 2301SOL    HW2 7803   5.038   1.004   2.123 -2.0113  1.3175 -0.6118
 2302SOL     OW 7804   4.267   6.618   1.620  0.2312  0.0318 -0.2769
 2302SOL    HW1 7805   4.212   6.687   1.667 -0.5629  0.0386 -1.1849
 2302SOL    HW2 7806   4.260   6.531   1.669  0.1567  0.2577  0.1205
 2303SOL     OW 7807   4.633   6.287   4.980 -0.1753  0.1155 -0.3930
 2303SOL    HW1 7808   4.729   6.285   4.951 -0.4039 -0.8306 -1.1049
 2303SOL    HW2 7809   4.599   6.194   4.989 -0.8733  0.4359  0.4245
 2304SOL     OW 7810   1.022   1.513   6.729  0.0230 -0.0243  0.2156
 2304SOL    HW1 7811   1.047   1.502   6.825 -0.5197  0.4213  0.4155
 2304SOL    HW2 7812   1.104   1.532   6.675  0.0328  3.2183  1.1177
 2305SOL     OW 7813   3.807   0.747   5.384 -0.2814  0.0441 -0.2051
 2305SOL    HW1 7814   3.786   0.841   5.412  1.1208  1.2523 -2.7893
 2305SOL    HW2 7815   3.892   0.717   5.427 -0.4860  0.1343  0.2644
 2306SOL     OW 7816   5.780   4.518   5.006  0.5936 -0.1829 -0.3158
 2306SOL    HW1 7817   5.708   4.454   5.032  1.2096  0.1963  2.6464
 2306SOL    HW2 7818   5.741   4.590   4.948 -1.3387 -0.2433  0.8369
 2307SOL     OW 7819   3.623   3.405   5.255  0.0166  0.1123 -0.0365
 2307SOL    HW1 7820   3.559   3.334   5.283  1.7244 -1.5505 -0.1024
 2307SOL    HW2 7821   3.588   3.453   5.175 -1.4794 -0.1824  0.4158
 2308SOL     OW 7822   3.486   1.737   3.586  0.2198 -0.0132 -0.1155
 2308SOL    HW1 7823   3.453   1.786   3.505  1.7974  0.1401 -0.6954
 2308SOL    HW2 7824   3.471   1.639   3.574 -2.8631  0.2169  1.0092
 2309SOL     OW 7825   5.424   0.826   3.087  0.2686  0.3670  0.2487
 2309SOL    HW1 7826   5.368   0.759   3.038  1.9272  0.4975 -1.9316
 2309SOL    HW2 7827   5.390   0.918   3.069  1.0677  0.4401 -1.0056
 2310SOL     OW 7828   2.219   5.228   5.333  0.2780 -0.1505 -0.1018
 2310SOL    HW1 7829   2.257   5.194   5.247 -2.8592  0.4270 -1.8869
 2310SOL    HW2 7830   2.193   5.151   5.392  0.1331 -0.6555 -0.8139
 2311SOL     OW 7831   5.803   3.324   2.868 -0.2334 -0.0746  0.0856
 2311SOL    HW1 7832   5.826   3.347   2.773  2.1070  0.8863  0.7984
 2311SOL    HW2 7833   5.739   3.391   2.904  0.3061  0.6485 -0.2751
 2312SOL     OW 7834   5.872   1.468   1.376  0.1568 -0.5272 -0.2267
 2312SOL    HW1 7835   5.831   1.556   1.397  1.9287 -0.3048  3.0681
 2312SOL    HW2 7836   5.956   1.482   1.322  0.0003 -0.2768 -0.4067
 2313SOL     OW 7837   4.623   4.679   0.650 -0.1437 -0.0545  0.3903
 2313SOL    HW1 7838   4.683   4.656   0.573  0.0637  0.3250  0.4388
 2313SOL    HW2 7839   4.678   4.693   0.732 -0.4918 -2.3277  1.0838
 2314SOL     OW 7840   6.429   2.794   2.371  0.2645 -0.4101  0.3788
 2314SOL    HW1 7841   6.330   2.801   2.356  0.4587  1.1060 -0.4188
 2314SOL    HW2 7842   6.447   2.724   2.440 -1.5143  0.5922  1.9873
 2315SOL     OW 7843   1.648   2.883   3.158 -0.2882  0.1288 -0.6027
 2315SOL    HW1 7844   1.742   2.852   3.145 -0.6674 -1.0374 -0.7099
 2315SOL    HW2 7845   1.635   2.972   3.115  0.4436 -0.2656 -1.6626
 2316SOL     OW 7846   5.879   7.008   3.192 -0.0228  0.1633 -0.1825
 2316SOL    HW1 7847   5.841   6.972   3.277 -1.0800 -0.5069 -0.9145
 2316SOL    HW2 7848   5.876   7.108   3.194 -1.4473  0.1408 -0.0268
 2317SOL     OW 7849   1.520   4.759   4.331 -0.3463  0.2398 -0.0312
 2317SOL    HW1 7850   1.523   4.785   4.234 -0.9411  1.7825  0.3433
 2317SOL    HW2 7851   1.559   4.667   4.341 -0.2208  0.0643 -1.7187
 2318SOL     OW 7852   5.449   1.369   5.394 -0.0339  0.1899 -0.1432
 2318SOL    HW1 7853   5.391   1.449   5.411 -2.0740 -0.8010 -2.0384
 2318SOL    HW2 7854   5.449   1.310   5.475  0.0315  1.2172  0.6206
 2319SOL     OW 7855   1.091   6.187   0.716 -0.1335  0.0816 -0.0536
 2319SOL    HW1 7856   1.044   6.119   0.660 -2.7583  2.3478 -0.8220
 2319SOL    HW2 7857   1.113   6.267   0.660 -0.4045  1.3334  1.5418
 2320SOL     OW 7858   3.383   3.919   6.044  0.2376 -0.0795 -0.2956
 2320SOL    HW1 7859   3.350   3.993   5.985  0.7002  1.4402  1.2882
 2320SOL    HW2 7860   3.459   3.952   6.100 -0.1309 -1.4751  1.0998
 2321SOL     OW 7861   1.190   2.176   4.789  0.5260  0.6526  0.5310
 2321SOL    HW1 7862   1.120   2.167   4.718 -0.3131  0.2117  1.3913
 2321SOL    HW2 7863   1.174   2.261   4.840  0.1261  0.1617  1.2372
 2322SOL     OW 7864   0.621   2.856   5.095  0.4582 -0.0947  0.0248
 2322SOL    HW1 7865   0.539   2.803   5.073 -0.4001  1.4283 -0.6142
 2322SOL    HW2 7866   0.635   2.858   5.194 -1.1128  0.8046  0.2495
 2323SOL     OW 7867   2.754   6.527   1.547 -0.1343 -0.0633 -0.3480
 2323SOL    HW1 7868   2.675   6.474   1.519 -1.2300  1.6699 -0.6758
 2323SOL    HW2 7869   2.832   6.506   1.487 -0.6744 -0.9086 -0.7661
 2324SOL     OW 7870   2.957   1.054   3.733  0.0692  0.5242  1.0497
 2324SOL    HW1 7871   3.036   1.090   3.782  0.9391 -0.1245  0.1644
 2324SOL    HW2 7872   2.966   1.074   3.635 -0.7183  0.1814  0.8933
 2325SOL     OW 7873   0.998   0.339   3.040 -0.8420 -0.0404 -0.1871
 2325SOL    HW1 7874   1.050   0.352   3.125 -0.9027  0.0367 -0.1617
 2325SOL    HW2 7875   0.926   0.407   3.035 -0.6313  0.1637 -0.4609
 2326SOL     OW 7876   6.725   1.309   0.356  0.2029  0.1933  0.5192
 2326SOL    HW1 7877   6.683   1.285   0.444  1.2961 -1.5186  0.6151
 2326SOL    HW2 7878   6.782   1.233   0.324  1.8177  1.7425 -0.4694
 2327SOL     OW 7879   0.986   4.387   4.843  0.4024  0.0172 -0.2634
 2327SOL    HW1 7880   1.021   4.471   4.885  0.7431  0.5577 -1.5870
 2327SOL    HW2 7881   0.889   4.399   4.820 -0.2934 -0.9148  1.9364
 2328SOL     OW 7882   5.409   0.605   3.574  0.4962 -0.4021  0.1797
 2328SOL    HW1 7883   5.383   0.638   3.483  2.2875 -1.0696 -0.6340
 2328SOL    HW2 7884   5.468   0.673   3.618 -0.1217 -0.2151  0.7394
 2329SOL     OW 7885   2.384   0.931   0.059 -0.4339 -0.0804 -0.5000
 2329SOL    HW1 7886   2.468   0.881   0.036  1.6469  1.5665  2.7818
 2329SOL    HW2 7887   2.391   1.024   0.025 -0.8049  0.1352  0.0095
 2330SOL     OW 7888   0.354   0.874   5.507 -0.8883  0.0625 -0.0120
 2330SOL    HW1 7889   0.291   0.926   5.564  0.1820  2.4098 -0.8346
 2330SOL    HW2 7890   0.431   0.840   5.562  0.4575  2.8273 -0.0319
 2331SOL     OW 7891   4.084   1.465   6.262  0.0744  0.0768 -0.3104
 2331SOL    HW1 7892   4.120   1.537   6.204  3.3667  0.5433  2.0936
 2331SOL    HW2 7893   4.096   1.376   6.216 -0.0738  0.6350 -1.4740
 2332SOL     OW 7894   6.067   4.569   2.429  0.1609 -0.3533  0.9573
 2332SOL    HW1 7895   6.080   4.662   2.394 -2.4603 -0.4189 -0.5238
 2332SOL    HW2 7896   6.097   4.503   2.360 -1.1232 -0.5262  0.5312
 2333SOL     OW 7897   0.193   6.181   6.356 -0.2179 -0.0458 -0.2590
 2333SOL    HW1 7898   0.113   6.200   6.299  0.3359 -1.0506 -1.4266
 2333SOL    HW2 7899   0.276   6.194   6.302  0.3060 -1.3734  0.1887
 2334SOL     OW 7900   2.644   1.959   2.839 -0.3630 -0.0150 -0.1968
 2334SOL    HW1 7901   2.735   1.997   2.826 -1.0823  1.8058 -0.2175
 2334SOL    HW2 7902   2.592   1.970   2.754 -0.6826 -0.8172 -0.1074
 2335SOL     OW 7903   3.076   1.744   0.252 -0.3700  0.1789 -0.4732
 2335SOL    HW1 7904   3.150   1.681   0.227 -0.8000 -0.3505 -0.4389
 2335SOL    HW2 7905   3.087   1.773   0.347 -0.2125  0.0937 -0.4655
 2336SOL     OW 7906   1.051   5.711   2.734  0.0040  0.3636  0.2707
 2336SOL    HW1 7907   1.066   5.785   2.800 -2.2383  1.9813 -0.8700
 2336SOL    HW2 7908   1.031   5.751   2.644 -2.0621 -1.5661 -0.2214
 2337SOL     OW 7909   4.382   5.730   4.771 -0.3573  0.0514 -0.1469
 2337SOL    HW1 7910   4.356   5.778   4.687 -1.3772  0.5626  0.4412
 2337SOL    HW2 7911   4.374   5.631   4.757 -1.1120  0.1534 -0.4704
 2338SOL     OW 7912   4.936   5.985   3.398  0.1138 -0.3617 -0.2298
 2338SOL    HW1 7913   5.004   5.943   3.338  1.3550  1.0001  0.1895
 2338SOL    HW2 7914   4.963   6.079   3.420 -2.3038  0.5337 -0.7154
 2339SOL     OW 7915   6.384   3.037   5.908  0.3128  0.5303 -0.1260
 2339SOL    HW1 7916   6.458   3.045   5.841  0.3610  0.5767 -0.0668
 2339SOL    HW2 7917   6.325   3.117   5.903  0.3239  0.5401 -0.1051
 2340SOL     OW 7918   5.044   6.316   3.849 -0.6169 -0.2163  0.1494
 2340SOL    HW1 7919   5.016   6.254   3.776  0.5855  0.4357 -0.8978
 2340SOL    HW2 7920   4.982   6.394   3.853 -2.4050 -1.5864  1.7542
 2341SOL     OW 7921   4.245   0.704   4.876 -0.2345  0.1193  0.4165
 2341SOL    HW1 7922   4.281   0.778   4.821 -0.8105  0.1636  0.0935
 2341SOL    HW2 7923   4.313   0.676   4.943 -0.3047  1.4953  1.0975
 2342SOL     OW 7924   6.454   6.877   2.494  0.2732  0.0305 -0.1666
 2342SOL    HW1 7925   6.483   6.781   2.497 -0.9965 -0.3632  0.3303
 2342SOL    HW2 7926   6.354   6.881   2.483  0.4346  1.3130 -1.5103
 2343SOL     OW 7927   3.022   1.700   3.775 -0.0034  0.5297  0.2477
 2343SOL    HW1 7928   2.929   1.735   3.769 -0.7547 -1.4822 -0.8362
 2343SOL    HW2 7929   3.030   1.639   3.855  0.6194  1.2965  0.7838
 2344SOL     OW 7930   2.358   6.651   2.662 -0.0643 -0.1620  0.6329
 2344SOL    HW1 7931   2.296   6.573   2.668 -0.8279  0.5277  4.2569
 2344SOL    HW2 7932   2.305   6.734   2.641  0.1114 -0.0178  0.7584
 2345SOL     OW 7933   4.333   2.133   3.389 -0.1330  0.4496 -0.3338
 2345SOL    HW1 7934   4.248   2.098   3.350  0.2085  1.1757 -1.8409
 2345SOL    HW2 7935   4.338   2.232   3.376  1.1009  0.3746 -0.6497
 2346SOL     OW 7936   4.847   3.051   1.020  0.2368  0.0341 -0.1471
 2346SOL    HW1 7937   4.942   3.018   1.022  0.3957  0.3081 -1.6033
 2346SOL    HW2 7938   4.794   2.995   0.956 -0.4081  0.3408  0.1097
 2347SOL     OW 7939   3.254   1.219   0.552  0.6951 -0.0448 -0.6156
 2347SOL    HW1 7940   3.266   1.123   0.527 -0.2147 -0.4903  0.5599
 2347SOL    HW2 7941   3.192   1.262   0.487 -2.2022 -1.3705  1.0434
 2348SOL     OW 7942   3.290   2.915   5.178 -0.0437 -0.7645  0.0847
 2348SOL    HW1 7943   3.340   3.001   5.178 -1.0725 -0.1547 -0.1283
 2348SOL    HW2 7944   3.347   2.843   5.140  0.4875  0.0224 -0.6307
 2349SOL     OW 7945   3.303   2.675   7.014 -0.2486  0.3687 -0.3129
 2349SOL    HW1 7946   3.367   2.665   7.089 -1.1526  1.1688  0.5904
 2349SOL    HW2 7947   3.240   2.750   7.033 -1.8155 -0.7433 -0.8982
 2350SOL     OW 7948   6.399   0.549   5.002  0.1750 -0.2782 -0.3222
 2350SOL    HW1 7949   6.314   0.500   4.986  0.0230  0.0789 -0.6141
 2350SOL    HW2 7950   6.469   0.517   4.939  0.5021 -1.1675  0.4753
 2351SOL     OW 7951   2.658   4.971   6.553  0.2647 -0.2010 -0.2494
 2351SOL    HW1 7952   2.747   4.933   6.577 -0.1786 -0.0489  1.9037
 2351SOL    HW2 7953   2.637   5.048   6.615 -0.6434  0.8643 -1.8021
 2352SOL     OW 7954   3.742   3.536   4.905 -0.3100  0.1087 -0.3004
 2352SOL    HW1 7955   3.650   3.523   4.942 -0.4552 -0.8359 -0.9548
 2352SOL    HW2 7956   3.810   3.524   4.978 -0.6794  0.1324  0.0481
 2353SOL     OW 7957   1.823   4.778   1.063 -0.6264 -0.4483  0.1232
 2353SOL    HW1 7958   1.833   4.798   0.966  0.0087  0.2704  0.3220
 2353SOL    HW2 7959   1.882   4.839   1.116 -0.9443 -0.8437  0.9616
 2354SOL     OW 7960   0.432   0.306   2.964 -0.1758  0.1673  0.3072
 2354SOL    HW1 7961   0.376   0.341   2.889 -0.9650  1.6211  1.5054
 2354SOL    HW2 7962   0.487   0.230   2.932 -1.2157  0.1094 -1.4842
 2355SOL     OW 7963   4.925   1.028   0.594 -0.3110 -0.0185  0.0921
 2355SOL    HW1 7964   4.944   1.060   0.501  0.3524  0.7144  0.4796
 2355SOL    HW2 7965   4.944   0.930   0.599  0.1458  0.0362 -0.4126
 2356SOL     OW 7966   5.075   0.982   4.709 -0.0247 -0.3884  0.0617
 2356SOL    HW1 7967   5.135   0.949   4.781 -1.1945 -1.3447  0.6125
 2356SOL    HW2 7968   4.984   1.002   4.746 -0.0456  1.2156 -0.7202
 2357SOL     OW 7969   3.756   3.260   3.723  0.3776  0.1550 -0.0905
 2357SOL    HW1 7970   3.787   3.355   3.723  1.2836 -0.1269 -0.4445
 2357SOL    HW2 7971   3.662   3.255   3.758  0.8645  0.9972  1.4459
 2358SOL     OW 7972   6.023   6.003   5.436  0.2330 -0.3366 -0.2592
 2358SOL    HW1 7973   6.069   6.043   5.515  1.0768 -0.1554 -0.8306
 2358SOL    HW2 7974   5.979   6.076   5.383 -1.5017 -0.5863  0.7433
 2359SOL     OW 7975   1.080   5.988   1.721 -0.1297 -0.6697  0.6705
 2359SOL    HW1 7976   0.997   6.004   1.773 -0.4462  0.8146 -0.2156
 2359SOL    HW2 7977   1.056   5.965   1.626  0.4522  0.7051  0.1671
 2360SOL     OW 7978   6.557   3.634   3.063  0.3070 -0.2884 -0.2475
 2360SOL    HW1 7979   6.633   3.607   3.121 -0.0708 -1.5457 -0.3151
 2360SOL    HW2 7980   6.473   3.635   3.117  0.2389  0.3398 -0.3553
 2361SOL     OW 7981   2.501   4.802   0.707  0.2972  0.1805 -0.1202
 2361SOL    HW1 7982   2.516   4.769   0.801 -1.3368 -1.2368 -0.3002
 2361SOL    HW2 7983   2.439   4.880   0.708  0.8118  0.5894  0.0198
 2362SOL     OW 7984   6.623   2.301   0.156  0.2507  0.0024  0.3885
 2362SOL    HW1 7985   6.669   2.340   0.236  0.9054 -0.3578  0.1897
 2362SOL    HW2 7986   6.666   2.335   0.073 -1.5785  1.8440  0.1019
 2363SOL     OW 7987   4.085   1.328   0.853  0.3556 -0.0348  0.3323
 2363SOL    HW1 7988   4.020   1.293   0.920  0.7503 -2.2372 -0.3468
 2363SOL    HW2 7989   4.178   1.322   0.889  0.3186  2.4046  1.0112
 2364SOL     OW 7990   3.727   1.377   1.644  0.0619 -0.0661  0.1024
 2364SOL    HW1 7991   3.752   1.291   1.599 -0.7484 -0.5312  0.5224
 2364SOL    HW2 7992   3.654   1.421   1.593  0.6953  0.5566 -0.2967
 2365SOL     OW 7993   0.167   4.150   3.619  0.2596 -0.0323 -0.4157
 2365SOL    HW1 7994   0.093   4.159   3.686  0.4417  0.4304 -0.2804
 2365SOL    HW2 7995   0.129   4.160   3.527  0.1182 -0.0330 -0.3580
 2366SOL     OW 7996   2.801   3.833   6.981  0.5656 -0.0400  0.4812
 2366SOL    HW1 7997   2.898   3.833   7.008  0.6568 -2.5004  0.3671
 2366SOL    HW2 7998   2.745   3.807   7.060  0.0920  0.3079  0.2625
 2367SOL     OW 7999   6.776   5.201   2.491 -0.8097 -0.1494  0.1047
 2367SOL    HW1 8000   6.862   5.151   2.499 -0.4798  0.4219  0.2103
 2367SOL    HW2 8001   6.712   5.170   2.561 -1.8916 -2.8647 -1.8883
 2368SOL     OW 8002   4.095   0.689   0.535  0.2817 -0.0800 -0.1844
 2368SOL    HW1 8003   4.178   0.638   0.512  0.5385 -0.0657  0.6566
 2368SOL    HW2 8004   4.086   0.767   0.474  1.1067  0.1417 -0.0409
 2369SOL     OW 8005   4.316   5.522   6.044  0.7954 -0.6171 -0.3430
 2369SOL    HW1 8006   4.412   5.539   6.067  0.2900  0.4972  1.0819
 2369SOL    HW2 8007   4.265   5.498   6.127 -0.2239 -0.8628 -1.0239
 2370SOL     OW 8008   1.171   4.399   6.121  0.1935 -0.3899  0.1928
 2370SOL    HW1 8009   1.153   4.360   6.030 -0.8840  1.1475 -0.2785
 2370SOL    HW2 8010   1.093   4.381   6.181  1.2349 -2.1162  1.1177
 2371SOL     OW 8011   1.291   1.605   3.479 -0.0129 -0.0369  0.2736
 2371SOL    HW1 8012   1.281   1.523   3.535 -0.2219 -0.2048 -0.0050
 2371SOL    HW2 8013   1.354   1.668   3.523 -0.4532 -0.0105  0.8719
 2372SOL     OW 8014   4.891   1.804   2.069  1.0822  0.3971  0.0770
 2372SOL    HW1 8015   4.846   1.725   2.028  0.8861 -0.5177  1.9912
 2372SOL    HW2 8016   4.974   1.825   2.016 -1.2635  1.9992 -3.3900
 2373SOL     OW 8017   3.965   2.474   5.305 -0.0655  0.1128  0.8717
 2373SOL    HW1 8018   4.036   2.483   5.235 -0.3660  1.2446  0.6883
 2373SOL    HW2 8019   3.961   2.379   5.336 -1.8605 -1.1441 -2.6899
 2374SOL     OW 8020   6.374   4.384   3.160  0.2408  0.1985  0.2068
 2374SOL    HW1 8021   6.319   4.340   3.089 -0.3636  0.1086  0.7159
 2374SOL    HW2 8022   6.452   4.430   3.118 -0.1424  0.2085 -0.5207
 2375SOL     OW 8023   5.594   3.359   1.574  0.3656  0.2429 -0.3959
 2375SOL    HW1 8024   5.678   3.311   1.600  1.0187  0.8866 -1.2510
 2375SOL    HW2 8025   5.550   3.396   1.655  1.2626  0.4511  0.0028
 2376SOL     OW 8026   6.583   4.397   4.080 -0.3188 -0.2183  0.0444
 2376SOL    HW1 8027   6.594   4.372   3.983  0.6422  1.0179 -0.2075
 2376SOL    HW2 8028   6.494   4.439   4.093 -0.1125  0.4213 -0.5163
 2377SOL     OW 8029   3.727   4.437   0.578 -0.0742 -0.0015  0.0808
 2377SOL    HW1 8030   3.698   4.509   0.514  1.5543  1.5867  1.0558
 2377SOL    HW2 8031   3.732   4.475   0.670  1.9497 -1.0427  0.4394
 2378SOL     OW 8032   5.683   2.596   0.153  0.0624 -0.6528  0.0171
 2378SOL    HW1 8033   5.758   2.636   0.099 -0.1435  0.6505  0.6722
 2378SOL    HW2 8034   5.715   2.511   0.195  0.2809 -1.6495 -1.9908
 2379SOL     OW 8035   0.008   1.434   2.008  0.4387 -0.1811 -0.2339
 2379SOL    HW1 8036   0.033   1.452   2.103  3.7068 -0.1460 -0.9754
 2379SOL    HW2 8037  -0.088   1.407   2.003  0.1994 -0.3293  3.0636
 2380SOL     OW 8038   4.703   1.221   2.698  0.6098 -0.8945 -0.1820
 2380SOL    HW1 8039   4.708   1.124   2.676 -0.5252 -0.7902 -0.9611
 2380SOL    HW2 8040   4.608   1.247   2.714  0.8681  0.1455 -0.2563
 2381SOL     OW 8041   1.098   3.352   3.153  0.1556 -0.5103 -0.0656
 2381SOL    HW1 8042   1.087   3.254   3.141 -1.4646 -0.1720 -1.8232
 2381SOL    HW2 8043   1.022   3.388   3.208  0.5740 -0.1803  0.3091
 2382SOL     OW 8044   1.422   2.108   1.635  0.6127  0.7142  0.3861
 2382SOL    HW1 8045   1.484   2.060   1.696 -1.5635  1.5853  3.5634
 2382SOL    HW2 8046   1.417   2.204   1.662 -1.5455  0.8197 -0.1790
 2383SOL     OW 8047   5.445   6.428   3.246 -0.5699 -0.5482 -0.2159
 2383SOL    HW1 8048   5.352   6.465   3.243  0.1571  1.3075 -1.1341
 2383SOL    HW2 8049   5.471   6.412   3.342 -0.2982  3.1543  0.4780
 2384SOL     OW 8050   4.353   0.172   1.303  0.6143 -0.5599  0.3808
 2384SOL    HW1 8051   4.276   0.176   1.240  2.3402  0.7083 -1.7997
 2384SOL    HW2 8052   4.368   0.077   1.332  0.3466 -1.3605 -1.9463
 2385SOL     OW 8053   6.580   1.293   4.210  0.0266  0.1548  0.3202
 2385SOL    HW1 8054   6.587   1.349   4.127 -0.0845 -2.1473 -1.3243
 2385SOL    HW2 8055   6.650   1.222   4.209 -1.1857 -1.1049  1.2496
 2386SOL     OW 8056   2.038   5.709   4.514  0.1756 -0.8681 -0.2839
 2386SOL    HW1 8057   2.026   5.628   4.572 -1.8938 -0.4443 -0.0409
 2386SOL    HW2 8058   1.983   5.784   4.550  2.2180  0.7611 -0.3849
 2387SOL     OW 8059   6.667   5.596   1.850 -0.1021  0.1407 -0.6591
 2387SOL    HW1 8060   6.705   5.677   1.893  1.3713  0.0787 -1.7571
 2387SOL    HW2 8061   6.739   5.549   1.798 -1.3683 -0.7811 -1.6490
 2388SOL     OW 8062   4.954   5.656   3.140  0.9625  0.6360 -0.1683
 2388SOL    HW1 8063   4.988   5.568   3.173 -0.9264  0.3306  1.1574
 2388SOL    HW2 8064   4.864   5.674   3.181  0.3225  2.1702 -2.0838
 2389SOL     OW 8065   5.236   6.403   2.482  0.2448  0.3395  0.4102
 2389SOL    HW1 8066   5.311   6.409   2.416 -0.5861  1.0248 -0.5059
 2389SOL    HW2 8067   5.247   6.321   2.538  0.9061 -0.3290 -0.6703
 2390SOL     OW 8068   5.820   6.560   1.391  0.2938 -0.1576 -0.4328
 2390SOL    HW1 8069   5.734   6.610   1.381  0.4879  0.8192  1.9552
 2390SOL    HW2 8070   5.815   6.500   1.470  2.5851  1.8890  1.4369
 2391SOL     OW 8071   1.449   0.124   3.724 -0.4687  0.8447 -0.1243
 2391SOL    HW1 8072   1.363   0.122   3.776 -0.7609  0.4074 -0.6212
 2391SOL    HW2 8073   1.465   0.217   3.690 -0.9775  0.8318 -0.4130
 2392SOL     OW 8074   0.848   2.951   6.501 -0.5726  0.3686 -0.5024
 2392SOL    HW1 8075   0.872   3.023   6.435  0.1295  1.4679  0.9100
 2392SOL    HW2 8076   0.820   2.869   6.451  0.2099  1.0663 -2.1749
 2393SOL     OW 8077   5.889   4.318   3.748 -0.1485  0.2453  1.1921
 2393SOL    HW1 8078   5.930   4.387   3.807  0.2332  0.4612  0.6827
 2393SOL    HW2 8079   5.956   4.246   3.730 -0.7598 -0.6300  2.2811
 2394SOL     OW 8080   5.945   3.917   4.506  0.0717 -0.5011 -0.3715
 2394SOL    HW1 8081   5.890   3.991   4.545  0.1814 -0.0957 -0.9570
 2394SOL    HW2 8082   5.940   3.921   4.406  0.0230 -1.3383 -0.4079
 2395SOL     OW 8083   6.568   5.783   1.254  0.3524  0.1247  0.0860
 2395SOL    HW1 8084   6.526   5.694   1.236  0.8545  0.1630 -1.4389
 2395SOL    HW2 8085   6.515   5.832   1.323 -1.8094 -0.0542 -1.3462
 2396SOL     OW 8086   5.781   5.118   2.070 -0.7903 -0.4701  0.6624
 2396SOL    HW1 8087   5.737   5.108   2.160  0.1601 -1.2583  1.0541
 2396SOL    HW2 8088   5.880   5.115   2.081 -0.6621 -2.0595 -0.5645
 2397SOL     OW 8089   2.932   5.791   2.069 -0.1279 -0.3803 -0.0579
 2397SOL    HW1 8090   2.834   5.774   2.077 -0.1788  0.0948  0.4197
 2397SOL    HW2 8091   2.961   5.778   1.974 -0.3573 -2.0255  0.0714
 2398SOL     OW 8092   4.069   4.178   6.913  0.0790 -0.0467 -0.1047
 2398SOL    HW1 8093   4.165   4.202   6.928 -0.3837  1.9271  0.0535
 2398SOL    HW2 8094   4.039   4.110   6.980  1.2142 -0.2562  0.1962
 2399SOL     OW 8095   4.688   1.544   2.140  0.0043  0.2865  0.6956
 2399SOL    HW1 8096   4.696   1.612   2.067  2.5005  0.2986  0.8666
 2399SOL    HW2 8097   4.692   1.452   2.100  1.6729  0.2918  0.7636
 2400SOL     OW 8098   6.622   6.897   1.571 -0.0120  0.1075  0.2059
 2400SOL    HW1 8099   6.667   6.976   1.614 -0.3678  1.0926 -1.1612
 2400SOL    HW2 8100   6.566   6.850   1.639  0.3969  0.8905  1.1122
 2401SOL     OW 8101   1.513   5.591   6.505  0.2064  0.2029  0.9624
 2401SOL    HW1 8102   1.423   5.630   6.482  0.1327 -0.5274 -0.0537
 2401SOL    HW2 8103   1.506   5.491   6.505  1.2387  0.1195 -0.0719
 2402SOL     OW 8104   1.179   5.236   1.004  0.0339 -0.7959  0.3137
 2402SOL    HW1 8105   1.219   5.309   1.060 -0.5665 -1.0861  1.1377
 2402SOL    HW2 8106   1.250   5.171   0.978  0.8222  0.6638 -1.4069
 2403SOL     OW 8107   1.739   5.076   1.619 -0.3496 -0.3087  0.2069
 2403SOL    HW1 8108   1.744   4.978   1.639 -2.0074 -0.5832 -0.5246
 2403SOL    HW2 8109   1.817   5.102   1.562 -0.0888 -1.2834  0.0995
 2404SOL     OW 8110   0.040   3.396   4.915  0.1622 -0.4708  0.6611
 2404SOL    HW1 8111   0.118   3.413   4.975  0.7535  0.7674 -0.4038
 2404SOL    HW2 8112   0.069   3.342   4.836  0.0833  0.4138  0.0058
 2405SOL     OW 8113   6.044   1.618   5.809 -0.5818  0.1546  0.1243
 2405SOL    HW1 8114   5.958   1.588   5.767 -1.3504  1.3499  0.7915
 2405SOL    HW2 8115   6.120   1.596   5.748 -1.1884 -2.0502  0.0537
 2406SOL     OW 8116   4.268   5.248   0.531  0.3086  0.1055  0.2699
 2406SOL    HW1 8117   4.210   5.317   0.574  0.5890  1.1106 -0.8926
 2406SOL    HW2 8118   4.258   5.161   0.579 -0.7496  0.7198  1.2120
 2407SOL     OW 8119   1.066   2.810   3.005 -0.6419 -0.6292 -0.2704
 2407SOL    HW1 8120   1.043   2.814   2.908 -0.1249  0.5489 -0.3625
 2407SOL    HW2 8121   1.162   2.784   3.015 -0.1849  0.9872 -0.1718
 2408SOL     OW 8122   2.294   3.681   1.185  0.2890 -0.5175 -0.3833
 2408SOL    HW1 8123   2.348   3.751   1.232  0.5451 -0.7441 -0.3349
 2408SOL    HW2 8124   2.303   3.692   1.086 -1.4860  0.9257 -0.4341
 2409SOL     OW 8125   0.473   6.672   3.654 -0.2334  0.8067 -0.4298
 2409SOL    HW1 8126   0.565   6.663   3.617  0.8997 -0.3825  2.3950
 2409SOL    HW2 8127   0.422   6.588   3.637  0.9636 -0.5600  2.1899
 2410SOL     OW 8128   4.310   3.065   1.636  0.2496 -0.1365 -0.3722
 2410SOL    HW1 8129   4.312   3.037   1.540  0.1107  0.0451 -0.4296
 2410SOL    HW2 8130   4.261   2.997   1.690  0.2888 -0.2170 -0.4384
 2411SOL     OW 8131   1.008   0.612   5.597 -0.6639 -0.2572  0.1004
 2411SOL    HW1 8132   1.082   0.667   5.558  0.1644 -0.8787  0.7483
 2411SOL    HW2 8133   0.990   0.533   5.537  1.7572 -2.1453  1.6764
 2412SOL     OW 8134   0.730   5.066   5.683  0.4548 -0.3817  0.3732
 2412SOL    HW1 8135   0.749   5.087   5.779  1.1465  1.8060 -0.1795
 2412SOL    HW2 8136   0.641   5.103   5.657  1.3750  1.3856 -0.4391
 2413SOL     OW 8137   0.283   6.756   2.834  0.1322 -0.1237 -0.2317
 2413SOL    HW1 8138   0.343   6.690   2.880 -0.2786 -0.7688 -0.6065
 2413SOL    HW2 8139   0.328   6.845   2.830  0.9262 -0.5198 -0.2235
 2414SOL     OW 8140   0.715   6.622   2.594  0.2400 -0.5315 -0.0482
 2414SOL    HW1 8141   0.685   6.530   2.569  2.0439 -1.1172 -0.1637
 2414SOL    HW2 8142   0.805   6.640   2.554  1.1273  0.2776  2.1861
 2415SOL     OW 8143   2.610   5.303   0.181 -0.0800  0.0132 -0.4156
 2415SOL    HW1 8144   2.582   5.379   0.239  0.9981 -0.8315  1.2741
 2415SOL    HW2 8145   2.638   5.226   0.237 -0.3163 -1.3605 -2.0835
 2416SOL     OW 8146   2.921   0.615   5.625  0.0547  1.4412  0.0852
 2416SOL    HW1 8147   2.997   0.551   5.638 -0.2723  0.8328 -0.9373
 2416SOL    HW2 8148   2.863   0.614   5.707 -0.4066 -0.2143 -0.2165
 2417SOL     OW 8149   1.292   3.377   5.282 -0.1373  0.0923 -0.2070
 2417SOL    HW1 8150   1.355   3.429   5.225 -2.1651  2.4344 -0.5032
 2417SOL    HW2 8151   1.208   3.430   5.295 -1.1912 -1.9226  1.9749
 2418SOL     OW 8152   4.488   3.528   5.373  0.4630  0.1997  0.4264
 2418SOL    HW1 8153   4.546   3.549   5.295 -0.2696  0.7438  0.0157
 2418SOL    HW2 8154   4.428   3.605   5.392 -0.5677 -0.5835  0.4501
 2419SOL     OW 8155   0.954   0.944   5.665 -0.8082  0.2253 -0.0365
 2419SOL    HW1 8156   0.904   0.923   5.750 -1.5986  1.2929 -0.2087
 2419SOL    HW2 8157   1.021   0.872   5.647  0.1884  0.5266  2.0975
 2420SOL     OW 8158   4.194   4.694   4.292 -0.2114 -0.2815  0.0558
 2420SOL    HW1 8159   4.272   4.648   4.335 -0.7503 -0.8166  0.4711
 2420SOL    HW2 8160   4.137   4.736   4.362 -0.5163 -0.2387 -0.2177
 2421SOL     OW 8161   5.527   4.476   6.236 -0.3320 -0.2808  0.4090
 2421SOL    HW1 8162   5.594   4.434   6.176  0.4553 -1.2367  1.9188
 2421SOL    HW2 8163   5.512   4.419   6.316  2.2678  3.0638  3.6126
 2422SOL     OW 8164   3.476   1.315   1.220  0.2476  0.3901 -0.2745
 2422SOL    HW1 8165   3.397   1.299   1.280 -1.8137 -0.0812 -2.9129
 2422SOL    HW2 8166   3.533   1.233   1.216 -1.1418 -0.5806 -1.0427
 2423SOL     OW 8167   6.468   3.789   1.465 -0.0805 -0.5636  0.2229
 2423SOL    HW1 8168   6.497   3.827   1.377 -0.3487 -0.2403  0.2730
 2423SOL    HW2 8169   6.493   3.692   1.469 -0.2474 -0.6337 -0.2950
 2424SOL     OW 8170   1.168   3.280   2.457 -0.4710  0.2796 -0.2773
 2424SOL    HW1 8171   1.219   3.327   2.529 -0.6680  0.6152 -0.3522
 2424SOL    HW2 8172   1.109   3.210   2.499 -0.8019  0.6725 -0.0843
 2425SOL     OW 8173   4.563   5.282   1.750 -0.2928  0.5885  0.0420
 2425SOL    HW1 8174   4.543   5.228   1.669  0.6932 -0.3646  0.4162
 2425SOL    HW2 8175   4.612   5.226   1.817 -1.6483  1.1453  1.5898
 2426SOL     OW 8176   2.011   1.043   0.146 -0.0882  0.6563 -0.3741
 2426SOL    HW1 8177   2.009   0.958   0.093  0.1718 -0.2303  0.9678
 2426SOL    HW2 8178   1.919   1.068   0.173 -0.0177 -0.4104  1.0025
 2427SOL     OW 8179   7.020   0.997   4.809  0.1196  0.1299 -0.2489
 2427SOL    HW1 8180   7.094   0.938   4.841 -1.5314 -1.4494  0.8436
 2427SOL    HW2 8181   7.004   1.070   4.875  0.5220  0.3463 -0.3826
 2428SOL     OW 8182   5.832   4.805   2.200 -0.2480  1.0228  0.1081
 2428SOL    HW1 8183   5.921   4.768   2.172 -0.0126  0.9238  0.9647
 2428SOL    HW2 8184   5.774   4.816   2.119  0.3895  0.6833 -0.4075
 2429SOL     OW 8185   0.350   3.585   1.133  0.0372 -0.5284 -0.3521
 2429SOL    HW1 8186   0.259   3.589   1.174  0.3397  1.7696  0.2283
 2429SOL    HW2 8187   0.419   3.599   1.204  0.8427 -1.5675 -0.8967
 2430SOL     OW 8188   2.358   6.076   0.374 -0.2236  0.3306  0.0623
 2430SOL    HW1 8189   2.357   5.998   0.312 -0.4066  1.3696 -1.2688
 2430SOL    HW2 8190   2.407   6.050   0.458 -0.4860 -1.2737 -0.2414
 2431SOL     OW 8191   2.770   6.778   4.494 -0.1879 -0.0417  0.3364
 2431SOL    HW1 8192   2.760   6.838   4.415  1.1359  1.3943  1.1936
 2431SOL    HW2 8193   2.849   6.808   4.548 -0.8106 -1.2328  1.9766
 2432SOL     OW 8194   3.921   0.724   6.264  0.0546 -0.1435  0.4469
 2432SOL    HW1 8195   3.898   0.820   6.247  1.2131 -0.3268 -3.0239
 2432SOL    HW2 8196   4.016   0.707   6.239  0.0095 -2.1313  1.4203
 2433SOL     OW 8197   6.838   0.757   2.142  0.0803  0.1551  0.0140
 2433SOL    HW1 8198   6.738   0.762   2.152  0.0230 -0.4030 -0.2634
 2433SOL    HW2 8199   6.876   0.707   2.220  0.1815  0.6662  0.2978
 2434SOL     OW 8200   2.530   5.147   3.180  0.2010 -0.0337 -0.8040
 2434SOL    HW1 8201   2.523   5.083   3.103 -0.6099 -0.9789  0.0216
 2434SOL    HW2 8202   2.474   5.114   3.256  1.9477  0.2028  0.6588
 2435SOL     OW 8203   0.548   1.098   2.044 -0.3358  0.4697  0.4594
 2435SOL    HW1 8204   0.505   1.022   1.996 -1.4729  1.8821 -0.8459
 2435SOL    HW2 8205   0.594   1.158   1.979  1.2322  0.5195  1.5526
 2436SOL     OW 8206   3.690   6.985   0.951  0.1970 -0.0781 -0.8337
 2436SOL    HW1 8207   3.606   7.020   0.910  0.0688 -0.5148 -0.9403
 2436SOL    HW2 8208   3.687   6.999   1.050  0.8551  1.7269 -1.0280
 2437SOL     OW 8209   6.508   4.597   1.516  0.0321 -0.4250 -0.1708
 2437SOL    HW1 8210   6.536   4.692   1.515  0.1377 -0.4475  0.2783
 2437SOL    HW2 8211   6.524   4.558   1.607 -0.8032 -0.6303 -0.1037
 2438SOL     OW 8212   3.995   4.889   5.138  0.6524  0.0751  0.7486
 2438SOL    HW1 8213   4.080   4.838   5.127  0.5520  0.0128  0.2244
 2438SOL    HW2 8214   3.920   4.827   5.161  0.4190 -0.1049 -0.4256
 2439SOL     OW 8215   5.117   0.871   0.327  0.0428  0.3375 -0.4252
 2439SOL    HW1 8216   5.192   0.816   0.363 -1.1860 -0.5574  0.8390
 2439SOL    HW2 8217   5.108   0.854   0.228  0.0301 -1.3412 -0.1594
 2440SOL     OW 8218   0.142   3.124   5.973 -0.3690 -0.7666  0.2711
 2440SOL    HW1 8219   0.146   3.131   5.873 -1.2933  0.0344  0.2797
 2440SOL    HW2 8220   0.123   3.214   6.012 -0.3674 -1.1430  1.1587
 2441SOL     OW 8221   2.002   6.054   2.331  0.9631  0.0217 -0.4934
 2441SOL    HW1 8222   2.047   5.982   2.384 -0.6071 -0.2865  0.4832
 2441SOL    HW2 8223   2.011   6.033   2.234  2.7001 -0.1333 -0.3371
 2442SOL     OW 8224   3.085   6.315   6.936  0.3095 -0.8736 -0.2543
 2442SOL    HW1 8225   3.067   6.367   7.020  1.1293 -0.2184 -0.4718
 2442SOL    HW2 8226   3.013   6.248   6.923  0.6886 -1.7040  1.5452
 2443SOL     OW 8227   3.546   2.177   1.684  0.1639  0.2616 -0.4595
 2443SOL    HW1 8228   3.447   2.176   1.671  0.1597 -0.3477 -0.3936
 2443SOL    HW2 8229   3.570   2.244   1.755 -0.4047 -1.1454  1.1255
 2444SOL     OW 8230   3.504   3.475   4.316 -0.8547 -0.0969 -0.0542
 2444SOL    HW1 8231   3.518   3.463   4.218 -0.0790 -0.1982  0.0635
 2444SOL    HW2 8232   3.462   3.393   4.355 -2.1204  0.3364 -0.4730
 2445SOL     OW 8233   6.689   2.528   3.412 -0.4498  0.1952 -0.2415
 2445SOL    HW1 8234   6.712   2.448   3.356  1.0766  0.3610  0.0855
 2445SOL    HW2 8235   6.592   2.526   3.437 -1.0921 -0.0439 -2.5956
 2446SOL     OW 8236   1.337   4.591   0.778 -0.1776 -0.4120  0.0316
 2446SOL    HW1 8237   1.343   4.571   0.680 -0.0044 -0.5682  0.0734
 2446SOL    HW2 8238   1.428   4.607   0.815 -0.3016  0.3290  0.0299
 2447SOL     OW 8239   6.923   1.537   5.838 -0.0737  0.0601  0.2837
 2447SOL    HW1 8240   6.924   1.446   5.795 -2.6751 -0.8342  1.8746
 2447SOL    HW2 8241   6.838   1.584   5.814 -0.5706  0.4233  2.6020
 2448SOL     OW 8242   4.861   4.801   0.152 -0.9058 -0.3981  0.1669
 2448SOL    HW1 8243   4.780   4.744   0.166 -0.5200 -2.4802 -4.3865
 2448SOL    HW2 8244   4.837   4.880   0.097 -0.1253 -0.0711  0.2808
 2449SOL     OW 8245   6.900   1.911   3.993  0.6657 -0.4190  0.2668
 2449SOL    HW1 8246   6.951   1.852   4.056 -1.0758 -0.6286  1.5686
 2449SOL    HW2 8247   6.842   1.972   4.046  0.8868  1.0459 -1.1302
 2450SOL     OW 8248   5.390   3.346   6.340 -0.0835 -0.3744  0.0742
 2450SOL    HW1 8249   5.467   3.288   6.312 -1.2599 -1.5649 -0.8411
 2450SOL    HW2 8250   5.359   3.319   6.431 -0.0215 -0.5435  0.0457
 2451SOL     OW 8251   1.001   1.843   1.872 -0.3406  0.1307  0.0105
 2451SOL    HW1 8252   0.918   1.787   1.874  1.2000 -2.3794 -0.8734
 2451SOL    HW2 8253   1.046   1.839   1.961  0.2844 -0.9473 -0.3354
 2452SOL     OW 8254   5.181   0.489   0.236  0.4571 -0.1187 -0.2484
 2452SOL    HW1 8255   5.209   0.469   0.330  1.5405 -1.4396 -0.8243
 2452SOL    HW2 8256   5.108   0.558   0.237  0.4778 -0.0803  1.5455
 2453SOL     OW 8257   5.303   6.890   6.176 -0.0425  0.0154  0.3952
 2453SOL    HW1 8258   5.335   6.831   6.101  0.8168  0.5746  0.3087
 2453SOL    HW2 8259   5.312   6.986   6.149 -0.6901  0.2066  0.8347
 2454SOL     OW 8260   4.131   6.534   2.682  0.3583 -0.1988  0.9078
 2454SOL    HW1 8261   4.128   6.553   2.780 -0.5303  0.4854  0.7576
 2454SOL    HW2 8262   4.070   6.596   2.634  0.5182 -0.7623 -0.0482
 2455SOL     OW 8263   4.354   5.333   2.098 -0.1049 -0.0488  0.4013
 2455SOL    HW1 8264   4.301   5.388   2.034  0.2430  0.7199  0.7665
 2455SOL    HW2 8265   4.358   5.379   2.187  0.4809 -0.4896  0.6128
 2456SOL     OW 8266   5.794   6.799   6.563  0.3041  0.1933 -0.2330
 2456SOL    HW1 8267   5.721   6.867   6.556  1.4006  1.4694  0.2103
 2456SOL    HW2 8268   5.883   6.845   6.561  1.0953 -1.2449  0.0648
 2457SOL     OW 8269   1.787   4.871   3.445  0.3294  0.0196  0.3747
 2457SOL    HW1 8270   1.823   4.802   3.507 -0.5504 -1.9253 -1.1609
 2457SOL    HW2 8271   1.691   4.888   3.467  0.4162  0.4174  0.4545
 2458SOL     OW 8272   3.226   1.294   1.447  0.0049  0.1273 -0.0977
 2458SOL    HW1 8273   3.184   1.355   1.514  2.1260 -0.4980  1.9123
 2458SOL    HW2 8274   3.245   1.206   1.490 -0.0243 -0.8724 -2.0293
 2459SOL     OW 8275   5.967   2.765   6.462 -0.4506 -0.1832 -0.2766
 2459SOL    HW1 8276   5.992   2.682   6.512 -1.1825 -1.0546 -1.3198
 2459SOL    HW2 8277   6.045   2.827   6.459  1.0402 -1.9942 -1.7841
 2460SOL     OW 8278   3.055   6.906   2.770  0.1186  0.2536 -0.0789
 2460SOL    HW1 8279   3.140   6.957   2.785  1.4860 -1.7848 -0.5576
 2460SOL    HW2 8280   3.064   6.814   2.807 -1.1247 -0.6632 -1.8957
 2461SOL     OW 8281   4.762   3.731   0.995  0.1884 -0.0996  0.3424
 2461SOL    HW1 8282   4.743   3.680   1.079  0.8034  0.4521  0.8274
 2461SOL    HW2 8283   4.757   3.670   0.916 -0.8958 -0.5257  0.7244
 2462SOL     OW 8284   1.802   3.259   3.787 -0.4119 -0.0388  0.3852
 2462SOL    HW1 8285   1.736   3.247   3.862  0.2934  1.6886  1.3112
 2462SOL    HW2 8286   1.879   3.314   3.818 -1.3441  3.0955 -2.2818
 2463SOL     OW 8287   1.442   4.576   5.829 -1.0786 -0.8026  0.3246
 2463SOL    HW1 8288   1.371   4.622   5.881 -0.5993 -0.7195  0.9154
 2463SOL    HW2 8289   1.418   4.481   5.814 -0.8650 -1.0243  1.3626
 2464SOL     OW 8290   4.661   4.620   0.165  0.4236  0.5629 -0.5176
 2464SOL    HW1 8291   4.735   4.555   0.182 -0.0381  0.1438 -0.0698
 2464SOL    HW2 8292   4.628   4.609   0.071 -0.1787 -0.4245 -0.2155
 2465SOL     OW 8293   5.127   2.412   6.203  0.5249  0.0318 -0.0402
 2465SOL    HW1 8294   5.054   2.460   6.251  0.1319 -0.3432 -0.2640
 2465SOL    HW2 8295   5.146   2.459   6.116  0.9403  0.4541  0.2684
 2466SOL     OW 8296   5.505   0.431   0.204  0.1878 -0.6078  0.4294
 2466SOL    HW1 8297   5.416   0.429   0.249  1.0750  0.3474  2.3558
 2466SOL    HW2 8298   5.530   0.338   0.174 -0.7129 -1.1830  1.3956
 2467SOL     OW 8299   6.039   2.221   3.973  0.6580 -0.0726 -0.1042
 2467SOL    HW1 8300   6.123   2.216   3.918 -0.1982 -0.2266 -1.4704
 2467SOL    HW2 8301   5.983   2.140   3.954  0.3799 -0.1899  1.1260
 2468SOL     OW 8302   3.543   2.304   6.163  0.0988  0.4788 -0.6743
 2468SOL    HW1 8303   3.467   2.317   6.100  0.6911 -1.4099 -1.8620
 2468SOL    HW2 8304   3.623   2.354   6.131 -0.0618  0.8190 -0.5427
 2469SOL     OW 8305   6.819   3.882   5.975 -0.0866 -0.3319 -0.6268
 2469SOL    HW1 8306   6.721   3.879   5.953 -0.6570  0.9788  1.4847
 2469SOL    HW2 8307   6.850   3.791   6.002 -1.2933 -0.3587  0.7935
 2470SOL     OW 8308   1.070   3.086   1.202 -0.1500  0.5226 -0.0988
 2470SOL    HW1 8309   1.118   3.174   1.202 -0.7779  0.8722 -0.1820
 2470SOL    HW2 8310   1.011   3.080   1.283 -0.9070  0.6297 -0.6285
 2471SOL     OW 8311   3.170   3.408   0.532  0.1357  0.0919 -0.0568
 2471SOL    HW1 8312   3.078   3.370   0.522 -0.5161  1.8490 -1.1004
 2471SOL    HW2 8313   3.165   3.507   0.541  1.8778  0.1282  1.1312
 2472SOL     OW 8314   1.989   4.222   3.900  0.0232  0.0342  0.1996
 2472SOL    HW1 8315   1.996   4.230   4.000 -1.7620 -0.8532  0.4265
 2472SOL    HW2 8316   1.922   4.287   3.866  0.7516  0.4505 -0.4737
 2473SOL     OW 8317   5.118   3.191   2.330 -0.0066  0.1678 -0.0391
 2473SOL    HW1 8318   5.054   3.153   2.396 -0.5462 -0.7945 -1.0850
 2473SOL    HW2 8319   5.092   3.285   2.309 -0.4812  0.1141  0.2925
 2474SOL     OW 8320   4.243   5.586   5.076  0.1853  0.5305  0.1686
 2474SOL    HW1 8321   4.169   5.521   5.057  1.0253 -0.3541 -0.1065
 2474SOL    HW2 8322   4.208   5.679   5.063 -0.6587  0.1071 -0.7614
 2475SOL     OW 8323   1.670   6.414   3.232  0.0600 -0.5705  0.7448
 2475SOL    HW1 8324   1.712   6.324   3.222  0.2301 -0.3533 -0.7813
 2475SOL    HW2 8325   1.704   6.475   3.160 -3.8420 -0.7895 -1.5452
 2476SOL     OW 8326   4.979   1.405   5.193 -0.0676  0.0910 -0.1282
 2476SOL    HW1 8327   4.905   1.465   5.163 -0.3872  0.2515  0.9289
 2476SOL    HW2 8328   5.067   1.444   5.166 -0.3589 -0.0983 -1.3818
 2477SOL     OW 8329   4.587   2.937   0.306 -0.3763  0.3762 -0.1616
 2477SOL    HW1 8330   4.564   2.858   0.249  0.1369 -0.6706  1.0413
 2477SOL    HW2 8331   4.686   2.944   0.315 -0.3756 -2.2356  4.1786
 2478SOL     OW 8332   4.540   1.361   0.021 -0.4936  0.3829 -0.7052
 2478SOL    HW1 8333   4.478   1.290  -0.013 -1.5403  0.7690  0.2997
 2478SOL    HW2 8334   4.616   1.319   0.071 -1.3873 -0.0516  0.3415
 2479SOL     OW 8335   0.166   1.043   2.353  0.2761 -0.1200 -0.6583
 2479SOL    HW1 8336   0.209   0.957   2.379  0.9282  0.4757  0.3035
 2479SOL    HW2 8337   0.235   1.106   2.317  0.1239  0.6079  0.2723
 2480SOL     OW 8338   2.614   2.756   0.158  0.0791 -0.1628  0.1618
 2480SOL    HW1 8339   2.691   2.779   0.098  0.1774 -0.7366  0.0546
 2480SOL    HW2 8340   2.554   2.835   0.167  0.1351 -0.0247 -0.5814
 2481SOL     OW 8341   4.505   5.591   4.995  0.1773  0.1517  0.4440
 2481SOL    HW1 8342   4.411   5.585   5.028  0.3303 -1.0603  0.7135
 2481SOL    HW2 8343   4.510   5.655   4.919 -1.0737 -0.5393 -0.2574
 2482SOL     OW 8344   2.099   2.702   3.853 -0.3718  0.4590  0.0730
 2482SOL    HW1 8345   2.115   2.606   3.830 -0.8033  0.0726  1.2873
 2482SOL    HW2 8346   2.175   2.757   3.821  0.0521 -0.3404 -0.3332
 2483SOL     OW 8347   6.440   3.457   3.712 -0.4534 -0.5079  0.9526
 2483SOL    HW1 8348   6.382   3.515   3.769 -0.0691  1.8790 -0.8847
 2483SOL    HW2 8349   6.522   3.431   3.762 -0.7180  0.4197  1.8927
 2484SOL     OW 8350   4.535   5.301   0.556 -0.3081  0.2027 -0.3307
 2484SOL    HW1 8351   4.611   5.286   0.492  0.0181  0.3256  0.0228
 2484SOL    HW2 8352   4.450   5.271   0.514  0.2536 -2.4092  0.2083
 2485SOL     OW 8353   6.028   4.109   2.659 -0.2502  0.2047  0.4417
 2485SOL    HW1 8354   6.053   4.047   2.734 -0.0381  0.2946  0.4465
 2485SOL    HW2 8355   6.108   4.128   2.603  0.2474  2.1915  1.6919
 2486SOL     OW 8356   2.125   2.126   6.892  0.1991 -0.3451  0.1632
 2486SOL    HW1 8357   2.123   2.210   6.837  0.1779 -0.7920 -0.5211
 2486SOL    HW2 8358   2.033   2.088   6.899 -0.0517  0.4573  1.6903
 2487SOL     OW 8359   1.009   2.393   4.931  0.0130 -0.1481  0.0112
 2487SOL    HW1 8360   1.046   2.415   5.021  0.6058  0.6856 -0.4250
 2487SOL    HW2 8361   0.931   2.332   4.941 -0.7853  1.0197  1.1855
 2488SOL     OW 8362   5.910   2.886   1.949 -0.2328 -0.0880  0.4315
 2488SOL    HW1 8363   5.926   2.815   1.880 -0.1178  0.8523 -0.5575
 2488SOL    HW2 8364   5.985   2.886   2.015  0.3610 -0.1569 -0.2274
 2489SOL     OW 8365   0.695   1.460   2.872 -0.2541 -0.4517  0.7682
 2489SOL    HW1 8366   0.750   1.465   2.789  1.6039 -1.2308  1.8697
 2489SOL    HW2 8367   0.752   1.485   2.951 -1.9303  0.1853  1.8454
 2490SOL     OW 8368   0.819   1.543   4.234 -0.6260  0.0897  0.2510
 2490SOL    HW1 8369   0.842   1.489   4.315  1.3003 -1.4988 -1.2388
 2490SOL    HW2 8370   0.866   1.631   4.237 -2.9096  1.3877  2.1662
 2491SOL     OW 8371   4.297   3.827   6.113  0.0045 -0.1272 -0.5358
 2491SOL    HW1 8372   4.278   3.734   6.081  0.6599 -0.4047 -0.1447
 2491SOL    HW2 8373   4.313   3.887   6.035  0.4836 -0.5484 -0.7696
 2492SOL     OW 8374   4.933   6.894   2.160  0.3679  0.2618 -0.2664
 2492SOL    HW1 8375   4.876   6.872   2.082  1.2003  2.5213 -1.6175
 2492SOL    HW2 8376   4.928   6.821   2.228 -3.5644  0.0486 -0.5823
 2493SOL     OW 8377   5.421   6.579   0.085 -0.2535 -0.1057  0.3047
 2493SOL    HW1 8378   5.412   6.666   0.133 -1.3439 -0.0362 -0.0056
 2493SOL    HW2 8379   5.437   6.596  -0.012  0.3514 -0.2524  0.3758
 2494SOL     OW 8380   0.012   0.249   2.543 -0.2919 -0.8017  0.1289
 2494SOL    HW1 8381   0.004   0.183   2.617 -1.3292 -0.4648  0.3270
 2494SOL    HW2 8382   0.061   0.330   2.575  0.0892 -1.0501  0.1747
 2495SOL     OW 8383   2.734   4.846   2.450 -0.3674 -0.8850  0.5234
 2495SOL    HW1 8384   2.685   4.768   2.489 -1.3396 -0.8895 -0.6250
 2495SOL    HW2 8385   2.768   4.822   2.359  1.9399 -0.9152  1.3249
 2496SOL     OW 8386   6.292   4.647   0.913 -0.0229 -0.8580 -0.1011
 2496SOL    HW1 8387   6.214   4.637   0.852  0.2371 -1.9199 -0.2809
 2496SOL    HW2 8388   6.264   4.625   1.007 -0.6594  1.6876  0.3811
 2497SOL     OW 8389   6.795   1.686   4.840  0.8110  0.4485 -0.6103
 2497SOL    HW1 8390   6.784   1.586   4.839  1.4156  0.3752 -1.5155
 2497SOL    HW2 8391   6.709   1.729   4.866  0.7408 -0.3308  0.4939
 2498SOL     OW 8392   4.113   6.230   2.081  0.5152 -0.0631 -0.5241
 2498SOL    HW1 8393   4.046   6.175   2.031  1.0848 -0.6000 -0.7231
 2498SOL    HW2 8394   4.130   6.188   2.171  1.7107 -0.8287 -1.0765
 2499SOL     OW 8395   0.480   1.561   5.099  0.1634  0.1173 -0.0614
 2499SOL    HW1 8396   0.482   1.537   5.002 -0.5071  0.5086 -0.1719
 2499SOL    HW2 8397   0.469   1.660   5.110  0.5672  0.1201  0.4178
 2500SOL     OW 8398   0.287   2.966   6.990 -0.2598  0.7561  0.3869
 2500SOL    HW1 8399   0.276   2.918   6.903 -0.6929  0.6279  0.5131
 2500SOL    HW2 8400   0.349   3.043   6.977 -1.0344  1.2870 -0.2556
 2501SOL     OW 8401   3.865   5.840   4.104 -0.1890  0.1939  0.3201
 2501SOL    HW1 8402   3.766   5.841   4.120 -0.0794  0.8476  0.9761
 2501SOL    HW2 8403   3.905   5.764   4.156 -0.6369 -1.6917 -1.9007
 2502SOL     OW 8404   3.554   5.242   0.142 -0.2582  0.1317 -0.0132
 2502SOL    HW1 8405   3.501   5.251   0.057 -0.0241 -1.5358 -0.3584
 2502SOL    HW2 8406   3.520   5.165   0.195 -0.1382  0.9112  1.2501
 2503SOL     OW 8407   5.318   2.699   5.638  0.2892 -0.2857 -0.4036
 2503SOL    HW1 8408   5.347   2.681   5.544 -1.2050  1.7919 -1.3509
 2503SOL    HW2 8409   5.223   2.729   5.638  0.5743  0.8226  1.6520
 2504SOL     OW 8410   0.630   4.530   6.082  0.1812  0.6860 -0.6243
 2504SOL    HW1 8411   0.624   4.624   6.048  0.3456  0.5262 -1.1049
 2504SOL    HW2 8412   0.626   4.466   6.005 -0.3446  0.2800 -0.2700
 2505SOL     OW 8413   6.302   2.218   0.571  0.2526  0.4198 -0.3883
 2505SOL    HW1 8414   6.218   2.210   0.624  0.3193  2.5832  0.1313
 2505SOL    HW2 8415   6.376   2.251   0.630  0.9698  0.4288 -1.2715
 2506SOL     OW 8416   5.139   3.030   1.025  0.0943 -0.8339 -0.1269
 2506SOL    HW1 8417   5.176   2.969   0.955  0.4782 -1.3881  0.5500
 2506SOL    HW2 8418   5.203   3.035   1.102 -0.8731 -1.1891  0.7148
 2507SOL     OW 8419   0.275   5.045   4.962 -0.1581  0.0777  0.1935
 2507SOL    HW1 8420   0.195   5.102   4.944  0.7702  1.1737 -0.5639
 2507SOL    HW2 8421   0.268   4.961   4.909 -1.1428 -0.1711  0.6860
 2508SOL     OW 8422   2.806   6.782   3.371  0.3090 -0.3391 -0.5326
 2508SOL    HW1 8423   2.755   6.812   3.290  0.8158 -0.4603 -0.9017
 2508SOL    HW2 8424   2.771   6.693   3.401  0.6183 -0.6545 -1.0797
 2509SOL     OW 8425   0.492   3.330   6.964 -0.2387 -0.0050  0.0342
 2509SOL    HW1 8426   0.539   3.256   6.916 -2.2950  0.4231 -2.9260
 2509SOL    HW2 8427   0.430   3.377   6.901 -1.5542  2.0951  2.6539
 2510SOL     OW 8428   1.630   2.069   4.402  0.0925 -0.0560 -0.4313
 2510SOL    HW1 8429   1.688   2.010   4.347 -0.5970 -3.4023  2.1228
 2510SOL    HW2 8430   1.534   2.054   4.378 -0.0708  0.2825 -0.0068
 2511SOL     OW 8431   3.597   5.847   6.456  0.1266  0.2311 -0.7403
 2511SOL    HW1 8432   3.516   5.858   6.514 -0.9209 -0.0592 -2.1193
 2511SOL    HW2 8433   3.655   5.928   6.466 -0.2386  0.3729  0.3844
 2512SOL     OW 8434   0.859   2.903   4.995 -0.2876  0.4355 -0.0626
 2512SOL    HW1 8435   0.765   2.895   5.027 -0.3982 -0.0311 -0.4782
 2512SOL    HW2 8436   0.871   2.989   4.945 -0.7749  0.0262 -0.9042
 2513SOL     OW 8437   3.034   1.713   5.476  0.5710  0.0759 -0.8661
 2513SOL    HW1 8438   3.034   1.782   5.403 -1.4368  1.3104  0.2301
 2513SOL    HW2 8439   3.003   1.754   5.561  0.2802 -1.9797  0.0798
 2514SOL     OW 8440   4.575   6.980   3.740 -0.3802  0.1100 -0.1962
 2514SOL    HW1 8441   4.532   7.046   3.679 -1.4507  0.0002  0.4166
 2514SOL    HW2 8442   4.531   6.891   3.730  1.5216 -0.7474 -1.5438
 2515SOL     OW 8443   1.768   0.355   4.274  0.1796  0.1955  0.8121
 2515SOL    HW1 8444   1.798   0.447   4.297 -1.0699  0.6524  0.6795
 2515SOL    HW2 8445   1.678   0.338   4.314 -0.4430 -0.2838 -0.7230
 2516SOL     OW 8446   6.513   3.798   3.365  0.5499  0.1316 -0.2682
 2516SOL    HW1 8447   6.607   3.797   3.331  0.3711 -1.5541 -0.7858
 2516SOL    HW2 8448   6.514   3.805   3.464  1.2754 -1.0498 -0.1754
 2517SOL     OW 8449   5.706   5.727   2.055  0.2184  0.0792 -0.3835
 2517SOL    HW1 8450   5.799   5.754   2.080 -0.3586  0.1420  1.9869
 2517SOL    HW2 8451   5.641   5.796   2.089 -0.8809 -1.5299  0.9817
 2518SOL     OW 8452   1.393   4.011   2.909  0.4042 -0.4828  0.3146
 2518SOL    HW1 8453   1.407   3.915   2.886 -2.8066 -0.8465 -0.5599
 2518SOL    HW2 8454   1.460   4.068   2.859  2.5910 -2.1836  1.1298
 2519SOL     OW 8455   0.416   2.106   2.487  0.7155  0.3182 -0.7209
 2519SOL    HW1 8456   0.450   2.013   2.506 -2.0485 -0.8961 -1.1779
 2519SOL    HW2 8457   0.401   2.154   2.574  1.2842  0.0023 -0.4396
 2520SOL     OW 8458   4.341   0.053   6.792 -0.0481 -0.3958  0.0268
 2520SOL    HW1 8459   4.349   0.040   6.693 -0.4809  2.9882 -0.5864
 2520SOL    HW2 8460   4.259   0.007   6.825  0.1343 -1.6217 -1.1544
 2521SOL     OW 8461   3.407   1.944   3.752  0.0467 -0.0146 -0.0307
 2521SOL    HW1 8462   3.446   1.863   3.707 -0.4802 -1.0944  1.3687
 2521SOL    HW2 8463   3.482   2.003   3.783  0.4653 -0.2770 -0.5141
 2522SOL     OW 8464   1.832   3.623   2.410  0.3603 -0.5185  0.0118
 2522SOL    HW1 8465   1.922   3.665   2.418  0.4046 -0.6493  0.1981
 2522SOL    HW2 8466   1.841   3.530   2.376  0.1658  0.0911 -1.8072
 2523SOL     OW 8467   1.875   5.622   5.669 -0.0718 -0.3349  0.0071
 2523SOL    HW1 8468   1.872   5.716   5.704  0.6360  0.4437 -1.8876
 2523SOL    HW2 8469   1.842   5.621   5.575  0.8702 -1.8366 -0.3360
 2524SOL     OW 8470   3.660   2.084   4.462  0.3225 -0.3604 -0.4248
 2524SOL    HW1 8471   3.685   2.065   4.367  0.8114 -0.8483 -0.2049
 2524SOL    HW2 8472   3.738   2.063   4.522 -0.2397 -0.7913  0.1632
 2525SOL     OW 8473   3.202   0.416   5.880 -0.5650  0.3165 -0.2289
 2525SOL    HW1 8474   3.302   0.417   5.873 -0.4787 -0.9553  0.5338
 2525SOL    HW2 8475   3.163   0.404   5.788  0.1295 -2.4617 -0.2681
 2526SOL     OW 8476   5.263   6.399   1.184 -0.1609 -0.3308 -0.1295
 2526SOL    HW1 8477   5.309   6.485   1.159  1.0739 -1.2216 -1.0321
 2526SOL    HW2 8478   5.182   6.388   1.128 -0.9340  0.7446  0.7340
 2527SOL     OW 8479   0.677   0.015   4.210  0.2644  0.4506 -0.2262
 2527SOL    HW1 8480   0.727   0.074   4.273  1.2705  2.7820 -2.9392
 2527SOL    HW2 8481   0.733  -0.065   4.187  0.4738  0.3085  0.7559
 2528SOL     OW 8482   5.236   1.149   5.875 -0.2621  0.1617  0.6793
 2528SOL    HW1 8483   5.206   1.055   5.890  0.0975 -0.0645 -0.0007
 2528SOL    HW2 8484   5.171   1.197   5.817 -0.3225  0.2667  0.8316
 2529SOL     OW 8485   0.913   0.987   6.501 -0.1730  0.2411 -0.1744
 2529SOL    HW1 8486   0.862   1.018   6.421  1.6189  1.3367 -0.9593
 2529SOL    HW2 8487   1.009   1.011   6.490  0.1042  0.5888  2.4093
 2530SOL     OW 8488   0.200   4.113   4.057  0.0209  0.3235 -0.2726
 2530SOL    HW1 8489   0.235   4.206   4.070  0.5597  0.0001  0.6990
 2530SOL    HW2 8490   0.160   4.080   4.143 -0.7476 -0.1111 -0.7851
 2531SOL     OW 8491   3.721   1.510   6.564  1.0627  0.4023 -0.3994
 2531SOL    HW1 8492   3.810   1.472   6.590  1.0467  0.1918 -0.6420
 2531SOL    HW2 8493   3.652   1.438   6.571  0.6856  0.8587  0.9528
 2532SOL     OW 8494   3.712   4.033   5.486  0.3641  0.3825 -0.3393
 2532SOL    HW1 8495   3.719   3.936   5.462 -0.7810  0.2087  0.0040
 2532SOL    HW2 8496   3.638   4.046   5.551 -0.2243  1.6599 -1.2421
 2533SOL     OW 8497   2.779   5.429   7.007  0.0022 -0.0303 -0.4671
 2533SOL    HW1 8498   2.745   5.501   6.946  0.3253  0.4049 -0.1361
 2533SOL    HW2 8499   2.702   5.375   7.041 -0.2250  0.0339 -0.8692
 2534SOL     OW 8500   4.734   1.418   0.654  0.2252 -0.2131  0.4726
 2534SOL    HW1 8501   4.719   1.507   0.609 -0.8449 -0.3268  0.5751
 2534SOL    HW2 8502   4.704   1.345   0.593  1.3698 -0.5432  0.2724
 2535SOL     OW 8503   3.403   3.410   6.271  0.1011 -0.0735 -0.2759
 2535SOL    HW1 8504   3.383   3.506   6.292 -1.2822  0.3434 -3.1156
 2535SOL    HW2 8505   3.484   3.404   6.214 -0.1903 -0.5435 -0.6453
 2536SOL     OW 8506   5.916   0.388   6.061 -0.1265 -0.2758  0.2158
 2536SOL    HW1 8507   5.944   0.341   5.978 -0.4344 -0.5554  0.2672
 2536SOL    HW2 8508   5.996   0.428   6.106  0.0693 -0.3201 -0.0899
 2537SOL     OW 8509   4.728   5.087   1.923  0.3495  0.2833  0.2201
 2537SOL    HW1 8510   4.815   5.135   1.908  0.8843 -0.1340  1.8051
 2537SOL    HW2 8511   4.687   5.118   2.009 -0.7832  0.0329 -0.2083
 2538SOL     OW 8512   0.140   6.831   6.006  0.4386 -0.0119  0.6181
 2538SOL    HW1 8513   0.132   6.783   6.094  0.8724  2.2812  1.9955
 2538SOL    HW2 8514   0.049   6.839   5.965  0.2448 -1.1984  0.7524
 2539SOL     OW 8515   6.912   2.630   3.317 -0.2231  0.2165  0.1107
 2539SOL    HW1 8516   6.961   2.553   3.277 -0.9349 -0.0337 -0.2937
 2539SOL    HW2 8517   6.825   2.598   3.356 -0.6819  0.8670 -0.3697
 2540SOL     OW 8518   2.851   2.875   6.184 -0.2786 -0.2053  0.4522
 2540SOL    HW1 8519   2.809   2.820   6.112 -1.5582  0.1111  0.9409
 2540SOL    HW2 8520   2.787   2.945   6.215  1.6749  2.3476 -0.9125
 2541SOL     OW 8521   6.338   2.763   6.354 -0.3765  0.6229  0.2810
 2541SOL    HW1 8522   6.323   2.852   6.396  0.3222  0.8030  0.1577
 2541SOL    HW2 8523   6.428   2.729   6.378  0.4240  1.1501 -1.7633
 2542SOL     OW 8524   5.899   3.739   0.315 -0.6833  0.0554 -0.2273
 2542SOL    HW1 8525   5.931   3.645   0.319 -1.0540 -0.1999 -2.3263
 2542SOL    HW2 8526   5.806   3.742   0.279  0.0095  1.3199 -2.0401
 2543SOL     OW 8527   2.643   1.730   1.057 -0.6144  0.2106 -0.1846
 2543SOL    HW1 8528   2.668   1.633   1.063  0.5953  0.5329  0.1223
 2543SOL    HW2 8529   2.616   1.763   1.148 -1.0645  0.1644 -0.2964
 2544SOL     OW 8530   4.663   5.510   3.857  0.6442 -0.3015  0.3643
 2544SOL    HW1 8531   4.660   5.456   3.772  3.3529  0.1464 -0.1082
 2544SOL    HW2 8532   4.663   5.448   3.935 -0.0136 -0.7884  0.0030
 2545SOL     OW 8533   3.450   2.556   6.371  0.1341  0.4215 -0.6056
 2545SOL    HW1 8534   3.427   2.492   6.445 -0.6978  1.1253 -0.2356
 2545SOL    HW2 8535   3.548   2.548   6.350  0.1883 -0.4645 -0.0846
 2546SOL     OW 8536   3.845   3.293   4.073 -0.2374 -0.0277 -0.5418
 2546SOL    HW1 8537   3.849   3.211   4.015  0.8701  0.7817 -1.6497
 2546SOL    HW2 8538   3.919   3.290   4.140  0.1478  0.3297 -0.9495
 2547SOL     OW 8539   4.804   6.359   3.376 -0.3448  0.3600  0.2029
 2547SOL    HW1 8540   4.821   6.399   3.466 -2.7739 -0.3372  1.0803
 2547SOL    HW2 8541   4.705   6.351   3.362 -0.0042 -0.8271 -1.9768
 2548SOL     OW 8542   5.532   4.197   5.673  0.1455 -0.3493 -0.1871
 2548SOL    HW1 8543   5.486   4.173   5.587  0.8049 -1.0796 -0.3497
 2548SOL    HW2 8544   5.631   4.196   5.659  0.2380  0.8776  0.2425
 2549SOL     OW 8545   3.346   2.809   1.186 -0.0819 -0.2739  0.0026
 2549SOL    HW1 8546   3.282   2.857   1.246 -1.1933  0.7232 -1.8680
 2549SOL    HW2 8547   3.364   2.718   1.222 -1.7773 -0.2118  1.1257
 2550SOL     OW 8548   4.336   1.985   6.928 -0.3761  0.2057 -0.1352
 2550SOL    HW1 8549   4.313   1.904   6.981  0.6026  1.0160  1.6011
 2550SOL    HW2 8550   4.252   2.033   6.902 -0.8628  0.2387  1.4233
 2551SOL     OW 8551   4.718   2.779   3.089  0.1725  0.1536  0.8103
 2551SOL    HW1 8552   4.689   2.684   3.101  1.9893 -0.5605 -0.1274
 2551SOL    HW2 8553   4.696   2.830   3.172  1.6246 -1.7462  2.4648
 2552SOL     OW 8554   5.379   3.661   3.711 -0.0069 -0.0040  0.2129
 2552SOL    HW1 8555   5.340   3.749   3.684 -1.6844 -0.9662 -0.6394
 2552SOL    HW2 8556   5.397   3.662   3.810  0.5526  1.4603  0.1286
 2553SOL     OW 8557   5.229   2.473   6.866 -0.3651 -0.0913 -0.3151
 2553SOL    HW1 8558   5.287   2.424   6.930 -1.5479 -0.2631  0.6641
 2553SOL    HW2 8559   5.233   2.571   6.886  1.3111  0.1662 -1.7066
 2554SOL     OW 8560   6.032   0.496   4.215 -0.1389 -0.4444  0.2087
 2554SOL    HW1 8561   5.996   0.515   4.307 -0.3526 -0.7278  0.1841
 2554SOL    HW2 8562   5.962   0.514   4.147  0.0020 -0.2890  0.1046
 2555SOL     OW 8563   3.618   0.944   0.539  0.2113  0.1221  0.4138
 2555SOL    HW1 8564   3.580   1.032   0.510  0.5718  0.1212 -0.0875
 2555SOL    HW2 8565   3.629   0.885   0.459  0.2805 -0.2567  0.7016
 2556SOL     OW 8566   2.083   6.978   2.922 -0.4554 -0.0314 -0.4491
 2556SOL    HW1 8567   2.092   6.907   2.853  1.2428 -0.8683  0.5721
 2556SOL    HW2 8568   2.012   6.952   2.987 -1.5865  0.4401 -1.4614
 2557SOL     OW 8569   2.091   4.970   4.853  0.4813 -0.5588  0.3190
 2557SOL    HW1 8570   2.166   4.910   4.882  0.7214 -1.5062 -2.0708
 2557SOL    HW2 8571   2.067   4.950   4.758 -1.9944  0.5810  0.6308
 2558SOL     OW 8572   4.706   1.544   3.882  0.3182  0.0331 -0.5330
 2558SOL    HW1 8573   4.633   1.612   3.875  1.0941  0.8445 -1.0941
 2558SOL    HW2 8574   4.747   1.547   3.973 -0.7122 -0.8347 -0.0214
 2559SOL     OW 8575   0.603   5.631   6.404  0.3088  0.6780 -0.0114
 2559SOL    HW1 8576   0.520   5.594   6.363 -0.8749  1.7890  1.2406
 2559SOL    HW2 8577   0.614   5.593   6.496 -0.9534  3.2746  1.3162
 2560SOL     OW 8578   0.495   1.102   3.940  0.0040  0.3598  0.1651
 2560SOL    HW1 8579   0.578   1.055   3.910 -0.0986 -0.4231  1.0639
 2560SOL    HW2 8580   0.420   1.037   3.947  0.1066  0.3922  2.4154
 2561SOL     OW 8581   3.304   5.548   1.704 -0.0718  0.5661 -0.7784
 2561SOL    HW1 8582   3.246   5.467   1.703  0.3860  0.2308 -0.4592
 2561SOL    HW2 8583   3.309   5.587   1.612 -1.4368  1.0682 -0.6760
 2562SOL     OW 8584   4.766   1.686   5.341 -0.4621  0.5134  0.2693
 2562SOL    HW1 8585   4.718   1.610   5.297 -1.1117  1.2713 -0.3569
 2562SOL    HW2 8586   4.700   1.744   5.389  0.0644  0.5254  0.9945
 2563SOL     OW 8587   1.198   3.528   2.884  0.2579 -0.2144 -0.1884
 2563SOL    HW1 8588   1.227   3.517   2.979  0.7385  0.3025 -0.2727
 2563SOL    HW2 8589   1.276   3.553   2.828 -0.3161  1.0907 -0.4433
 2564SOL     OW 8590   4.083   6.826   3.743 -0.1879  0.1803 -0.2296
 2564SOL    HW1 8591   4.033   6.868   3.818 -0.1496 -1.6588  0.9097
 2564SOL    HW2 8592   4.027   6.754   3.702  0.0594  0.7126 -1.5219
 2565SOL     OW 8593   1.436   1.747   5.418  0.4121  0.4124 -0.7343
 2565SOL    HW1 8594   1.414   1.683   5.493  0.3502  0.9556 -0.2836
 2565SOL    HW2 8595   1.534   1.743   5.399  0.2027 -0.8509 -1.6713
 2566SOL     OW 8596   6.016   2.482   0.144 -0.0425  0.2057  0.3416
 2566SOL    HW1 8597   6.056   2.469   0.235  0.9223  0.3859 -0.0505
 2566SOL    HW2 8598   5.951   2.407   0.125  0.2276 -0.1809  0.9154
 2567SOL     OW 8599   6.506   2.626   1.876 -0.2329  0.1690 -0.1807
 2567SOL    HW1 8600   6.532   2.690   1.803 -0.0365  1.3684  0.8936
 2567SOL    HW2 8601   6.515   2.672   1.964  0.6069 -1.5921  0.6894
 2568SOL     OW 8602   5.013   4.051   0.285  0.2818  0.1838 -0.0190
 2568SOL    HW1 8603   4.976   4.069   0.194 -0.0784  1.7315  0.4019
 2568SOL    HW2 8604   5.014   4.136   0.338 -0.5629 -0.8887  1.8058
 2569SOL     OW 8605   4.577   6.905   3.454  0.3529  0.2279 -0.1023
 2569SOL    HW1 8606   4.583   6.931   3.550  2.5756 -0.6299  0.0613
 2569SOL    HW2 8607   4.577   6.987   3.397 -0.8413  0.7391  0.6029
 2570SOL     OW 8608   2.929   4.350   1.442 -0.1539 -0.3271  0.1836
 2570SOL    HW1 8609   2.997   4.389   1.504  0.2067 -1.1861  0.3416
 2570SOL    HW2 8610   2.968   4.271   1.395 -1.1815 -1.1127  0.6109
 2571SOL     OW 8611   0.949   5.115   1.116  0.1725  0.3126  0.2627
 2571SOL    HW1 8612   0.964   5.031   1.167  1.1757  0.3686  0.0905
 2571SOL    HW2 8613   1.036   5.145   1.076 -0.4934  0.5035 -1.1073
 2572SOL     OW 8614   2.795   0.956   6.998  0.3664 -0.5619  0.3541
 2572SOL    HW1 8615   2.717   0.898   6.977 -2.0733  2.8394 -0.9714
 2572SOL    HW2 8616   2.804   0.964   7.098 -2.2099  0.2752  0.6026
 2573SOL     OW 8617   3.720   4.774   1.227  0.5043  0.7211 -0.2874
 2573SOL    HW1 8618   3.668   4.727   1.298  0.3502 -0.2170 -0.9968
 2573SOL    HW2 8619   3.786   4.711   1.187  0.8928  1.3601 -0.6766
 2574SOL     OW 8620   3.386   4.816   5.759  0.3131 -0.9235 -0.0807
 2574SOL    HW1 8621   3.350   4.732   5.799 -1.0469  0.1454  1.0447
 2574SOL    HW2 8622   3.394   4.886   5.830  3.8768 -0.7796 -0.4434
 2575SOL     OW 8623   3.453   3.740   6.652 -0.0807 -0.1383 -0.1142
 2575SOL    HW1 8624   3.419   3.781   6.737 -1.2162  0.4269 -0.8120
 2575SOL    HW2 8625   3.533   3.683   6.672 -2.2263 -2.7523  1.8943
 2576SOL     OW 8626   0.542   6.198   6.082 -0.4007  0.4854 -0.6547
 2576SOL    HW1 8627   0.569   6.281   6.131  1.0333 -0.2507 -0.1476
 2576SOL    HW2 8628   0.606   6.124   6.102 -2.1038 -1.0221 -0.4107
 2577SOL     OW 8629   1.892   1.030   5.363  0.8251 -0.4068  0.2613
 2577SOL    HW1 8630   1.869   0.933   5.360  0.6459 -0.3621 -2.2354
 2577SOL    HW2 8631   1.820   1.082   5.316  1.9511  0.6625 -0.3210
 2578SOL     OW 8632   3.260   0.926   3.491 -0.0252 -0.0986 -0.0356
 2578SOL    HW1 8633   3.273   0.930   3.590  1.1315 -0.7282 -0.1526
 2578SOL    HW2 8634   3.304   0.844   3.454 -1.2001 -0.3485 -0.9708
 2579SOL     OW 8635   2.819   3.156   6.601  0.2443 -0.1018 -0.6068
 2579SOL    HW1 8636   2.913   3.130   6.620 -0.0059 -0.8347 -0.3120
 2579SOL    HW2 8637   2.775   3.190   6.684  0.2228  0.1480 -0.7204
 2580SOL     OW 8638   0.199   4.713   6.504 -0.0697  0.2323  0.3967
 2580SOL    HW1 8639   0.102   4.702   6.481  0.2625  0.3253 -1.1367
 2580SOL    HW2 8640   0.216   4.807   6.532 -0.7323 -0.1989  2.4125
 2581SOL     OW 8641   4.543   4.816   2.207 -0.2629 -0.0015 -0.1433
 2581SOL    HW1 8642   4.637   4.790   2.226 -1.3364 -3.0064  1.7994
 2581SOL    HW2 8643   4.515   4.889   2.269  0.3230 -0.2862  0.4726
 2582SOL     OW 8644   2.706   0.495   5.447 -0.1543  0.2035 -0.7069
 2582SOL    HW1 8645   2.775   0.560   5.477  0.3419 -0.4811 -0.3379
 2582SOL    HW2 8646   2.615   0.534   5.460  0.1181  0.5990  0.0476
 2583SOL     OW 8647   5.555   3.928   2.757 -0.5533  0.0196 -0.1527
 2583SOL    HW1 8648   5.615   3.921   2.677 -1.2015  1.7521 -0.8219
 2583SOL    HW2 8649   5.523   3.836   2.783  1.9183 -0.9064 -0.0925
 2584SOL     OW 8650   0.045   3.348   4.143 -0.7171 -0.0856 -0.4985
 2584SOL    HW1 8651   0.050   3.376   4.047 -0.3937  0.6637 -0.2745
 2584SOL    HW2 8652   0.032   3.429   4.200 -0.6586 -0.5011  0.1116
 2585SOL     OW 8653   2.620   3.583   1.735  0.1496 -0.1143 -0.5235
 2585SOL    HW1 8654   2.540   3.542   1.780  1.0601  0.1442  1.4696
 2585SOL    HW2 8655   2.590   3.649   1.666 -1.3471 -2.8197 -2.6569
 2586SOL     OW 8656   3.407   1.197   2.591  0.6511  0.0580 -0.1091
 2586SOL    HW1 8657   3.326   1.201   2.532 -0.5663  1.9341  1.5754
 2586SOL    HW2 8658   3.380   1.162   2.681  1.3901  2.0485  0.9226
 2587SOL     OW 8659   4.426   1.395   3.186  0.3618  0.0465  0.1828
 2587SOL    HW1 8660   4.399   1.460   3.258  0.8439  0.5027 -0.0371
 2587SOL    HW2 8661   4.360   1.320   3.182 -0.1596  0.4787  0.5036
 2588SOL     OW 8662   0.863   0.369   3.377 -0.1730  0.0555 -0.1263
 2588SOL    HW1 8663   0.781   0.375   3.320  0.5692 -1.8938 -1.5543
 2588SOL    HW2 8664   0.862   0.441   3.446 -2.1744  1.2028 -1.2552
 2589SOL     OW 8665   5.354   5.776   3.664  0.5174  0.1025  0.3022
 2589SOL    HW1 8666   5.310   5.686   3.658  0.3995  0.2661 -2.0313
 2589SOL    HW2 8667   5.312   5.838   3.597  0.9081  1.7826  1.5520
 2590SOL     OW 8668   6.535   4.739   2.067 -0.2018 -0.0599 -0.2462
 2590SOL    HW1 8669   6.521   4.825   2.117 -1.6362  0.5299 -1.5489
 2590SOL    HW2 8670   6.447   4.692   2.059  0.2891 -0.8760 -0.8855
 2591SOL     OW 8671   6.840   5.343   4.202  0.2275 -0.3067 -0.3879
 2591SOL    HW1 8672   6.782   5.392   4.267  2.1165  1.4456  0.0936
 2591SOL    HW2 8673   6.855   5.249   4.235 -3.2390 -1.2658 -1.1827
 2592SOL     OW 8674   4.289   4.501   0.038  0.7071  0.1800 -0.0618
 2592SOL    HW1 8675   4.343   4.417   0.027  1.8723  0.9399 -0.3296
 2592SOL    HW2 8676   4.315   4.546   0.124  0.4581  0.5223 -0.1651
 2593SOL     OW 8677   1.488   5.837   4.704  0.5944  0.2952 -0.7341
 2593SOL    HW1 8678   1.439   5.756   4.672  0.7281  0.2865 -0.9154
 2593SOL    HW2 8679   1.423   5.909   4.727  0.5616  1.0485 -2.9740
 2594SOL     OW 8680   5.396   5.124   5.170 -0.6688  0.2874 -0.4412
 2594SOL    HW1 8681   5.298   5.121   5.190 -0.9812  0.3244 -1.8254
 2594SOL    HW2 8682   5.423   5.218   5.148 -0.1979  0.3719  0.4522
 2595SOL     OW 8683   2.217   2.892   1.840 -0.0287 -0.6962 -0.2642
 2595SOL    HW1 8684   2.304   2.854   1.810  0.3863  0.5991 -0.7694
 2595SOL    HW2 8685   2.187   2.961   1.775  0.9639  2.3195  2.2261
 2596SOL     OW 8686   0.823   1.234   6.957  0.3022  0.3113  0.4734
 2596SOL    HW1 8687   0.854   1.169   6.887 -0.4302  1.4564 -0.9646
 2596SOL    HW2 8688   0.890   1.236   7.032  2.8202  1.3375 -1.6264
 2597SOL     OW 8689   1.017   2.132   5.610  0.0604 -0.4250 -0.2701
 2597SOL    HW1 8690   0.946   2.125   5.540  0.1359  2.6664 -0.8233
 2597SOL    HW2 8691   1.003   2.063   5.680 -2.6910 -0.7622 -1.0498
 2598SOL     OW 8692   2.982   2.138   4.459 -0.0080  0.0637  0.0567
 2598SOL    HW1 8693   2.957   2.042   4.464  1.6115 -0.4026 -0.3127
 2598SOL    HW2 8694   3.010   2.170   4.550 -0.5279  0.1991  0.1755
 2599SOL     OW 8695   4.862   2.764   1.995 -0.3270  0.4512  0.0501
 2599SOL    HW1 8696   4.855   2.778   2.094  0.2214  2.0567 -0.1004
 2599SOL    HW2 8697   4.810   2.836   1.948 -0.0061  0.1214 -0.8348
 2600SOL     OW 8698   0.748   5.321   6.992 -0.1550 -0.6335 -0.0598
 2600SOL    HW1 8699   0.803   5.257   7.046  0.3672  0.1097  0.3059
 2600SOL    HW2 8700   0.655   5.325   7.029 -0.2877 -1.4406 -0.3021
 2601SOL     OW 8701   4.180   4.210   1.484  0.4825 -0.3733  0.0385
 2601SOL    HW1 8702   4.220   4.169   1.566  0.3016  0.5354  0.5990
 2601SOL    HW2 8703   4.147   4.138   1.423 -0.4087 -1.0581  1.2797
 2602SOL     OW 8704   6.575   3.122   5.669  0.0485 -0.2341 -0.2350
 2602SOL    HW1 8705   6.530   3.191   5.613  0.3520  0.5573  0.4648
 2602SOL    HW2 8706   6.647   3.077   5.616 -0.1633 -0.0191 -0.7064
 2603SOL     OW 8707   3.135   2.898   7.006 -0.4079 -0.6542  0.1899
 2603SOL    HW1 8708   3.164   2.979   6.955  0.2912 -1.2792 -0.4370
 2603SOL    HW2 8709   3.066   2.848   6.953 -1.0820 -0.3059  0.7236
 2604SOL     OW 8710   1.168   3.078   6.875  0.0982 -0.0519  0.2620
 2604SOL    HW1 8711   1.265   3.055   6.882  0.2510  0.2539 -0.7089
 2604SOL    HW2 8712   1.122   3.056   6.962  0.3441 -3.3605 -0.3103
 2605SOL     OW 8713   2.310   6.663   5.809  0.2121 -0.9170  0.6500
 2605SOL    HW1 8714   2.301   6.658   5.908  2.4362 -0.2122  0.9619
 2605SOL    HW2 8715   2.325   6.571   5.772 -1.0457 -1.2290  0.9016
 2606SOL     OW 8716   2.117   3.049   5.237  0.1862  0.6520  0.2651
 2606SOL    HW1 8717   2.204   3.045   5.190 -0.8175 -0.5950 -1.6005
 2606SOL    HW2 8718   2.074   3.137   5.221  0.7843  1.0216  0.6496
 2607SOL     OW 8719   6.094   0.268   2.132 -0.0688 -0.0048 -0.1780
 2607SOL    HW1 8720   6.108   0.248   2.229 -2.9209  2.5107  0.9252
 2607SOL    HW2 8721   6.022   0.209   2.095  0.9439 -0.8922 -0.7919
 2608SOL     OW 8722   6.977   6.889   6.242 -0.4522 -0.2211 -0.1262
 2608SOL    HW1 8723   7.029   6.974   6.250 -0.1322 -0.4541  0.3083
 2608SOL    HW2 8724   7.041   6.812   6.242 -0.7689 -0.4833 -0.1331
 2609SOL     OW 8725   0.782   0.558   0.515  0.4756  0.2137  0.0349
 2609SOL    HW1 8726   0.870   0.553   0.564 -0.1449  1.4168  1.3232
 2609SOL    HW2 8727   0.712   0.511   0.568  0.4701 -1.5153 -1.4121
 2610SOL     OW 8728   1.834   4.913   6.244  0.4842 -0.6065 -0.1259
 2610SOL    HW1 8729   1.789   4.839   6.295  1.5213 -1.0368  0.1873
 2610SOL    HW2 8730   1.849   4.884   6.149 -0.2178 -0.3207 -0.3307
 2611SOL     OW 8731   3.037   3.130   4.183 -0.4763 -0.3807  0.0835
 2611SOL    HW1 8732   3.004   3.182   4.261  0.8013  0.7461 -0.0817
 2611SOL    HW2 8733   3.117   3.176   4.144  0.8268 -2.5602  0.0203
 2612SOL     OW 8734   5.113   0.276   3.035  0.4921 -0.3128  0.3920
 2612SOL    HW1 8735   5.021   0.290   2.997  0.5032 -0.2087  0.4023
 2612SOL    HW2 8736   5.106   0.263   3.134  0.5683  0.6327  0.5321
 2613SOL     OW 8737   6.735   0.322   0.886 -0.7490 -0.5630  0.6496
 2613SOL    HW1 8738   6.726   0.421   0.872  1.4607 -0.6082 -1.7264
 2613SOL    HW2 8739   6.674   0.274   0.824 -1.0721 -0.7120  1.0787
 2614SOL     OW 8740   0.542   4.232   6.618 -0.4023  0.3907 -0.2111
 2614SOL    HW1 8741   0.501   4.265   6.533  0.8343  1.1707 -0.5206
 2614SOL    HW2 8742   0.520   4.295   6.693  0.9802  1.3355 -0.5682
 2615SOL     OW 8743   6.213   4.218   5.691  0.3248 -0.1103 -0.4856
 2615SOL    HW1 8744   6.202   4.291   5.623  1.4763  2.2093  1.6311
 2615SOL    HW2 8745   6.124   4.198   5.734  0.1583  0.8730 -0.3470
 2616SOL     OW 8746   3.880   2.344   1.303 -0.0095  0.3149  0.0875
 2616SOL    HW1 8747   3.971   2.327   1.342  0.6598  1.6917 -0.8269
 2616SOL    HW2 8748   3.827   2.259   1.307  1.3211 -0.5379  0.5769
 2617SOL     OW 8749   5.621   4.554   3.468 -0.1080  0.4916  0.0200
 2617SOL    HW1 8750   5.627   4.633   3.406  0.5828 -0.0483 -0.6225
 2617SOL    HW2 8751   5.712   4.514   3.478 -0.7769 -1.5008 -1.3690
 2618SOL     OW 8752   1.318   6.279   6.915 -0.3064 -0.0430 -0.7692
 2618SOL    HW1 8753   1.321   6.190   6.961  0.6649  0.4639  0.1930
 2618SOL    HW2 8754   1.302   6.266   6.817 -2.6404 -1.1460 -0.3210
 2619SOL     OW 8755   1.444   2.060   3.743 -0.1643 -0.0432 -0.5903
 2619SOL    HW1 8756   1.425   2.068   3.645 -0.7590 -1.2467 -0.5912
 2619SOL    HW2 8757   1.538   2.029   3.756 -0.2972 -0.5445 -0.8076
 2620SOL     OW 8758   6.606   6.957   2.811  0.2519  0.0744 -0.4519
 2620SOL    HW1 8759   6.542   7.026   2.776 -3.3677 -1.4124  2.5341
 2620SOL    HW2 8760   6.615   6.884   2.743 -0.9977  0.5046 -1.1266
 2621SOL     OW 8761   6.368   1.847   1.435 -0.2787  0.4398  0.0373
 2621SOL    HW1 8762   6.465   1.836   1.413  0.1883  1.0782  1.6673
 2621SOL    HW2 8763   6.342   1.943   1.426 -0.5569  0.3972  0.3730
 2622SOL     OW 8764   1.485   4.930   6.685 -0.0895 -0.1225  0.1870
 2622SOL    HW1 8765   1.404   4.975   6.648 -0.6404 -0.7336  0.6421
 2622SOL    HW2 8766   1.562   4.944   6.623 -0.6292  0.1552 -0.4258
 2623SOL     OW 8767   4.721   2.559   3.985 -0.1684 -0.0830 -0.3846
 2623SOL    HW1 8768   4.642   2.528   3.932 -0.9823  0.3844  0.5208
 2623SOL    HW2 8769   4.698   2.644   4.032  0.1737 -0.9726  1.4906
 2624SOL     OW 8770   2.601   1.172   6.284 -0.5322  0.5926 -0.0458
 2624SOL    HW1 8771   2.676   1.223   6.243  0.5082 -0.2906  0.6719
 2624SOL    HW2 8772   2.620   1.159   6.382 -1.1492 -0.4350 -0.0422
 2625SOL     OW 8773   3.085   6.591   2.717 -0.2434  0.0560  0.2388
 2625SOL    HW1 8774   3.040   6.506   2.743 -1.2688  0.6428  0.4543
 2625SOL    HW2 8775   3.034   6.634   2.642  1.1808 -0.2997 -0.9721
 2626SOL     OW 8776   1.335   5.724   4.184 -0.9314  0.1231  0.0427
 2626SOL    HW1 8777   1.357   5.643   4.130 -0.9637  0.7511 -0.9230
 2626SOL    HW2 8778   1.256   5.705   4.242 -0.6963 -0.6576  0.1216
 2627SOL     OW 8779   1.594   2.902   5.930  0.6520 -0.4807  0.7950
 2627SOL    HW1 8780   1.628   2.937   6.017 -1.0394  2.1355  0.4930
 2627SOL    HW2 8781   1.643   2.946   5.854  0.0689 -0.4913  0.4062
 2628SOL     OW 8782   2.498   0.188   2.967  0.0012  0.2685  0.3998
 2628SOL    HW1 8783   2.447   0.157   2.887  0.3768 -0.3365  0.3931
 2628SOL    HW2 8784   2.596   0.185   2.947  0.3978 -3.8146  2.1958
 2629SOL     OW 8785   0.091   2.122   6.960  0.2557  0.2334 -0.3948
 2629SOL    HW1 8786   0.009   2.083   7.002 -0.7304  0.4386 -2.0390
 2629SOL    HW2 8787   0.065   2.200   6.904  0.9547 -1.9634 -4.0648
 2630SOL     OW 8788   3.853   6.968   4.506  0.5077  0.1337  0.8830
 2630SOL    HW1 8789   3.934   6.982   4.563  1.2111  1.6964 -0.4101
 2630SOL    HW2 8790   3.874   6.899   4.436  1.5184  1.9821 -0.7432
 2631SOL     OW 8791   6.891   4.444   0.469 -0.4525 -0.3659 -0.2409
 2631SOL    HW1 8792   6.838   4.380   0.413  0.3473 -2.5332  1.3581
 2631SOL    HW2 8793   6.848   4.454   0.558  2.6591 -3.8470  1.9275
 2632SOL     OW 8794   5.557   6.756   2.612  0.3495 -0.2523 -0.3936
 2632SOL    HW1 8795   5.458   6.746   2.618  0.2424  1.3145  3.5457
 2632SOL    HW2 8796   5.579   6.825   2.543 -1.3257 -0.2367 -0.9637
 2633SOL     OW 8797   1.682   3.875   2.908 -0.0691  0.0544 -0.0731
 2633SOL    HW1 8798   1.740   3.955   2.893 -3.1125  2.7605  1.4027
 2633SOL    HW2 8799   1.623   3.890   2.988 -0.5658 -3.8841  0.5190
 2634SOL     OW 8800   2.209   0.439   3.008 -0.0780 -0.2611  0.9872
 2634SOL    HW1 8801   2.257   0.394   3.083 -1.1555 -0.2770  1.6868
 2634SOL    HW2 8802   2.203   0.537   3.026  2.5218  0.3020 -0.6729
 2635SOL     OW 8803   3.470   3.498   0.526 -0.0329  0.4030  0.0807
 2635SOL    HW1 8804   3.524   3.418   0.550 -0.7783  0.7874  3.6416
 2635SOL    HW2 8805   3.383   3.496   0.576 -0.6066  2.8033 -0.6683
 2636SOL     OW 8806   3.737   1.936   3.244  0.1365 -0.2189  0.1260
 2636SOL    HW1 8807   3.776   1.975   3.161 -0.4215  1.3768  0.5801
 2636SOL    HW2 8808   3.696   1.847   3.223  0.6011 -0.1500 -1.1556
 2637SOL     OW 8809   6.862   6.000   4.461  0.2795 -0.5074  0.0773
 2637SOL    HW1 8810   6.817   6.037   4.542  0.4455 -0.9865  0.3988
 2637SOL    HW2 8811   6.886   6.074   4.398 -2.3280 -0.3466 -0.8411
 2638SOL     OW 8812   0.229   5.624   6.472 -0.2061 -0.7032  0.2118
 2638SOL    HW1 8813   0.152   5.636   6.409 -1.5606 -0.2119  1.8776
 2638SOL    HW2 8814   0.305   5.580   6.424 -0.8113  0.4992 -1.9843
 2639SOL     OW 8815   2.010   5.896   5.705  0.3344  0.5903  0.9274
 2639SOL    HW1 8816   2.076   5.845   5.760  0.5817 -0.0481  0.0622
 2639SOL    HW2 8817   2.056   5.971   5.658  0.6107 -0.2373 -0.1794
 2640SOL     OW 8818   5.993   2.638   3.037 -0.2710  0.4031  0.5822
 2640SOL    HW1 8819   5.962   2.544   3.053 -0.0098  0.1201 -0.4797
 2640SOL    HW2 8820   5.923   2.688   2.986  1.0634 -0.3550 -2.1793
 2641SOL     OW 8821   6.279   4.200   1.853  0.3340 -0.7522  0.0850
 2641SOL    HW1 8822   6.347   4.173   1.784  0.3785 -1.5562  0.4357
 2641SOL    HW2 8823   6.323   4.260   1.920  0.1690  0.4649 -0.8444
 2642SOL     OW 8824   2.850   1.551   1.003 -0.2410 -0.1725  0.0959
 2642SOL    HW1 8825   2.941   1.511   1.010  0.1850  0.4360 -1.5413
 2642SOL    HW2 8826   2.858   1.651   0.998 -1.0459 -0.0781  0.5174
 2643SOL     OW 8827   1.799   1.231   3.070  0.3575 -0.3628 -0.1597
 2643SOL    HW1 8828   1.796   1.136   3.102 -0.3438 -0.9432 -1.8424
 2643SOL    HW2 8829   1.840   1.234   2.979 -2.6191  0.4959 -1.5798
 2644SOL     OW 8830   7.009   1.394   3.746  0.0364 -0.1867 -0.3868
 2644SOL    HW1 8831   7.009   1.493   3.729 -0.0759 -0.2685 -0.8576
 2644SOL    HW2 8832   6.922   1.367   3.788  0.2140 -0.0266  0.0872
 2645SOL     OW 8833   5.133   1.885   5.585 -0.4452 -0.1843 -0.5148
 2645SOL    HW1 8834   5.053   1.921   5.632 -0.9552 -0.3562 -1.2332
 2645SOL    HW2 8835   5.208   1.951   5.590 -1.1132  0.6326 -1.1416
 2646SOL     OW 8836   6.661   1.885   0.018 -0.1488  0.5646  0.3584
 2646SOL    HW1 8837   6.577   1.880  -0.035 -1.1668  0.3416  1.9284
 2646SOL    HW2 8838   6.738   1.854  -0.038 -1.0900  0.8180 -1.1153
 2647SOL     OW 8839   5.638   2.335   2.637  0.1285  0.0969  0.2835
 2647SOL    HW1 8840   5.553   2.386   2.623  0.1245 -0.0462 -0.2187
 2647SOL    HW2 8841   5.655   2.276   2.558  1.5034  1.2815 -0.3582
 2648SOL     OW 8842   1.797   0.539   1.108 -0.1410  0.5173 -0.1749
 2648SOL    HW1 8843   1.786   0.547   1.207 -0.9370  0.5319 -0.2562
 2648SOL    HW2 8844   1.789   0.630   1.066 -0.0188  0.4846 -0.2709
 2649SOL     OW 8845   1.633   6.415   5.688 -0.0963  0.4051  0.2754
 2649SOL    HW1 8846   1.702   6.344   5.690 -0.1465  0.2935 -0.9830
 2649SOL    HW2 8847   1.579   6.407   5.603  0.0198  2.0405  0.0158
 2650SOL     OW 8848   0.756   0.596   4.463 -0.2062 -0.8007  0.4517
 2650SOL    HW1 8849   0.785   0.691   4.448 -0.2711 -0.9555 -0.7786
 2650SOL    HW2 8850   0.808   0.557   4.539 -0.1748  0.2165  0.9642
 2651SOL     OW 8851   5.166   1.657   5.759 -0.3982 -0.5895  0.6028
 2651SOL    HW1 8852   5.185   1.739   5.705 -1.2269  0.0492  1.2426
 2651SOL    HW2 8853   5.081   1.614   5.726  0.4361 -1.6420 -0.2271
 2652SOL     OW 8854   5.662   5.162   1.520 -0.0323 -0.0709 -0.4557
 2652SOL    HW1 8855   5.592   5.167   1.591  0.4187  0.4966 -0.0403
 2652SOL    HW2 8856   5.620   5.181   1.431 -0.7046 -1.3398 -0.4320
 2653SOL     OW 8857   0.004   3.469   3.566  0.1553  0.6739 -1.0128
 2653SOL    HW1 8858  -0.049   3.501   3.487 -0.2368 -3.2392 -2.5607
 2653SOL    HW2 8859   0.097   3.446   3.537  0.5214  0.6867  0.0918
 2654SOL     OW 8860   3.019   5.610   1.445  0.2446  0.1270 -0.4712
 2654SOL    HW1 8861   3.095   5.669   1.472 -0.0845 -0.5587  2.2441
 2654SOL    HW2 8862   3.048   5.552   1.369  1.1048  2.5176 -2.1101
 2655SOL     OW 8863   4.594   0.099   0.346 -0.5043  0.2144 -0.4241
 2655SOL    HW1 8864   4.544   0.129   0.427  0.6477 -0.7420  0.6697
 2655SOL    HW2 8865   4.673   0.158   0.331  1.0829 -1.4104  1.0381
 2656SOL     OW 8866   5.657   6.357   0.104 -0.0167  0.2901  0.0472
 2656SOL    HW1 8867   5.595   6.433   0.085 -0.3913  0.0164  0.1761
 2656SOL    HW2 8868   5.619   6.273   0.066  0.1368  0.0726  0.3751
 2657SOL     OW 8869   3.819   6.968   0.412 -0.2332  0.5908  0.4435
 2657SOL    HW1 8870   3.911   6.933   0.434 -0.8291 -1.0534  0.4331
 2657SOL    HW2 8871   3.823   7.020   0.327  0.6827  0.5447  0.4445
 2658SOL     OW 8872   5.403   1.083   0.933  0.1972 -0.5081 -0.2016
 2658SOL    HW1 8873   5.441   1.003   0.886  1.5509 -0.5596  0.9134
 2658SOL    HW2 8874   5.334   1.053   0.999 -1.0054 -0.5151 -1.4121
 2659SOL     OW 8875   2.647   2.725   6.335  0.0146 -0.0598  0.2627
 2659SOL    HW1 8876   2.745   2.735   6.321  0.1267 -1.4169  0.0071
 2659SOL    HW2 8877   2.608   2.814   6.357  1.0001  0.8385 -1.4070
 2660SOL     OW 8878   3.252   2.168   1.688 -0.3846  0.4594 -0.0762
 2660SOL    HW1 8879   3.202   2.130   1.766 -1.7067  0.8623 -0.6827
 2660SOL    HW2 8880   3.251   2.102   1.613  0.2300  0.3738 -0.0147
 2661SOL     OW 8881   2.300   5.644   0.354  0.4768  0.4809 -0.6537
 2661SOL    HW1 8882   2.337   5.644   0.447 -0.1469  0.2703 -0.4056
 2661SOL    HW2 8883   2.221   5.583   0.349  0.0496  1.0637 -1.1437
 2662SOL     OW 8884   2.558   3.460   6.289 -0.2658 -0.4245  0.2323
 2662SOL    HW1 8885   2.513   3.547   6.268  0.0562 -0.6885 -1.7177
 2662SOL    HW2 8886   2.651   3.460   6.251 -1.0192 -2.4209 -1.8983
 2663SOL     OW 8887   6.544   4.071   6.688  0.4525 -0.4345  0.3432
 2663SOL    HW1 8888   6.608   4.031   6.754 -1.1024 -0.4902  1.8709
 2663SOL    HW2 8889   6.455   4.027   6.696  0.2706 -0.6345 -2.0287
 2664SOL     OW 8890   5.249   0.917   3.504 -0.4469  0.3046  0.1939
 2664SOL    HW1 8891   5.220   0.877   3.417  0.2586  0.5473 -0.1606
 2664SOL    HW2 8892   5.243   1.017   3.498  2.1417  0.4796 -0.5351
 2665SOL     OW 8893   2.180   4.580   3.157  0.1923  0.2217  0.0058
 2665SOL    HW1 8894   2.136   4.590   3.246 -0.4800 -0.0466 -0.2890
 2665SOL    HW2 8895   2.194   4.670   3.116 -1.6572  0.2554 -0.6412
 2666SOL     OW 8896   0.054   2.742   4.007 -0.2450  0.2322 -0.0054
 2666SOL    HW1 8897   0.049   2.769   4.103  2.4139  3.3610 -0.5855
 2666SOL    HW2 8898   0.131   2.788   3.963 -0.9905 -1.5501 -3.5463
 2667SOL     OW 8899   2.784   6.612   0.915 -0.5126 -0.4661 -0.9425
 2667SOL    HW1 8900   2.707   6.633   0.975 -1.0889 -1.3420 -1.3532
 2667SOL    HW2 8901   2.786   6.676   0.838  0.1801  0.6056 -0.0529
 2668SOL     OW 8902   0.454   0.526   0.157 -0.4249 -0.1707  0.6973
 2668SOL    HW1 8903   0.525   0.577   0.109  0.4322 -2.0839 -0.1559
 2668SOL    HW2 8904   0.404   0.588   0.217 -0.7493  2.0819 -1.7240
 2669SOL     OW 8905   2.102   1.711   5.899  0.8397 -0.5045 -0.2083
 2669SOL    HW1 8906   2.024   1.648   5.905  0.4702  0.0424  0.8331
 2669SOL    HW2 8907   2.115   1.757   5.986  0.4940  1.5870 -1.1924
 2670SOL     OW 8908   1.393   3.030   3.902  0.2231  0.4239 -0.0176
 2670SOL    HW1 8909   1.374   2.962   3.831 -0.2044  1.9541 -1.4077
 2670SOL    HW2 8910   1.340   3.007   3.984 -0.2686 -0.6611 -0.6170
 2671SOL     OW 8911   5.748   4.265   3.222  0.1726  0.4014 -0.6304
 2671SOL    HW1 8912   5.813   4.232   3.153  0.1976 -0.2875 -0.2842
 2671SOL    HW2 8913   5.783   4.245   3.313 -0.7054 -0.3657 -0.4402
 2672SOL     OW 8914   3.808   1.518   6.273 -0.3075  0.1470  0.5026
 2672SOL    HW1 8915   3.776   1.506   6.367  0.5887  0.2063  0.8289
 2672SOL    HW2 8916   3.908   1.508   6.271 -0.1082  1.9369 -0.1343
 2673SOL     OW 8917   5.533   5.359   5.434 -1.3165 -0.7916  0.4089
 2673SOL    HW1 8918   5.534   5.280   5.494  0.0727 -2.4160 -1.6278
 2673SOL    HW2 8919   5.438   5.390   5.421 -1.7547 -1.2756  2.2336
 2674SOL     OW 8920   0.002   0.016   2.736  0.9607 -0.0685 -0.8322
 2674SOL    HW1 8921  -0.075   0.015   2.799  0.7364  0.8665 -1.0666
 2674SOL    HW2 8922   0.019  -0.076   2.701  0.5346 -0.4377 -0.0799
 2675SOL     OW 8923   5.856   0.087   6.741  0.1935 -0.1577 -0.3289
 2675SOL    HW1 8924   5.864   0.114   6.645 -2.1524  0.3882 -0.4269
 2675SOL    HW2 8925   5.907   0.002   6.755  0.6495 -0.2210 -2.0304
 2676SOL     OW 8926   2.570   3.186   0.276  0.0770 -0.5996  0.3855
 2676SOL    HW1 8927   2.600   3.181   0.181 -0.8439  0.5195  0.0111
 2676SOL    HW2 8928   2.475   3.156   0.283 -0.0235 -0.1896  0.8690
 2677SOL     OW 8929   0.721   3.272   6.556  0.2858 -0.2838  0.6575
 2677SOL    HW1 8930   0.800   3.253   6.497 -2.0779 -2.2006 -2.2267
 2677SOL    HW2 8931   0.739   3.237   6.647  2.9027 -0.2123  0.2616
 2678SOL     OW 8932   1.555   0.155   3.061 -0.7622  0.4867 -0.7398
 2678SOL    HW1 8933   1.645   0.170   3.021 -0.4627 -0.0904 -0.2996
 2678SOL    HW2 8934   1.494   0.230   3.035  0.2175  1.5996  0.0443
 2679SOL     OW 8935   1.992   5.141   3.705  0.1400  0.1385 -0.0819
 2679SOL    HW1 8936   1.925   5.072   3.733 -0.3608  1.6240  2.7717
 2679SOL    HW2 8937   1.954   5.232   3.722  2.1740  1.0535 -0.1914
 2680SOL     OW 8938   4.791   5.588   6.945 -0.5202  0.5715 -0.6606
 2680SOL    HW1 8939   4.845   5.562   7.025 -3.4479 -0.1562  1.2165
 2680SOL    HW2 8940   4.827   5.541   6.864  1.1642 -0.4425  0.6106
 2681SOL     OW 8941   3.472   0.076   6.006  0.2679 -0.8009  0.1563
 2681SOL    HW1 8942   3.450   0.006   6.073  1.4186 -0.6695  0.6877
 2681SOL    HW2 8943   3.389   0.104   5.958 -0.9004  0.2749  2.6473
 2682SOL     OW 8944   6.892   4.110   1.868 -0.6669 -0.2340 -0.2605
 2682SOL    HW1 8945   6.990   4.094   1.881 -0.7479 -0.2129  0.4234
 2682SOL    HW2 8946   6.871   4.113   1.771  0.2894  1.4046 -0.4435
 2683SOL     OW 8947   3.049   6.573   4.813 -0.2704 -0.1264 -0.3283
 2683SOL    HW1 8948   2.955   6.606   4.809 -0.5513 -0.9212 -0.4892
 2683SOL    HW2 8949   3.101   6.614   4.738  0.1469  2.1595  1.1363
 2684SOL     OW 8950   6.005   6.783   0.496  0.9038  0.0401 -0.2203
 2684SOL    HW1 8951   6.074   6.761   0.565  0.6217 -0.0866  0.0258
 2684SOL    HW2 8952   6.023   6.731   0.413  1.0125 -0.1160 -0.0997
 2685SOL     OW 8953   5.190   0.053   1.274  0.4324  0.3007  0.3089
 2685SOL    HW1 8954   5.191   0.109   1.356  2.7987  1.2018 -0.2529
 2685SOL    HW2 8955   5.249   0.094   1.204 -0.0494 -1.3937 -1.1831
 2686SOL     OW 8956   3.533   0.247   1.328  0.4177  0.2768  0.1633
 2686SOL    HW1 8957   3.437   0.258   1.302  0.6135 -2.3509 -2.1821
 2686SOL    HW2 8958   3.583   0.330   1.306 -0.7751  0.5656 -1.6972
 2687SOL     OW 8959   1.449   4.187   3.280  0.4163 -0.0538  0.6191
 2687SOL    HW1 8960   1.546   4.186   3.303  1.3900  1.4868 -2.7514
 2687SOL    HW2 8961   1.433   4.130   3.199 -1.8243 -1.4885  1.9674
 2688SOL     OW 8962   6.555   2.188   2.922  0.1213  0.1053 -0.3499
 2688SOL    HW1 8963   6.594   2.162   2.834  0.4750 -1.6987  0.3028
 2688SOL    HW2 8964   6.455   2.184   2.916  0.1457 -0.1402 -0.6285
 2689SOL     OW 8965   3.765   1.906   1.999  0.0411 -0.2378 -0.4499
 2689SOL    HW1 8966   3.826   1.832   2.027  0.4682  0.4563  0.5397
 2689SOL    HW2 8967   3.705   1.930   2.076  0.5417  1.0441 -0.4228
 2690SOL     OW 8968   2.580   6.688   2.810  0.3683  0.8322  0.0708
 2690SOL    HW1 8969   2.604   6.601   2.853 -1.4816  1.4693  2.6770
 2690SOL    HW2 8970   2.491   6.679   2.764 -0.0777  1.4143  0.7893
 2691SOL     OW 8971   1.978   4.000   0.833 -0.5413 -0.0320  0.0304
 2691SOL    HW1 8972   1.904   4.018   0.769  0.5209 -0.9830 -1.5448
 2691SOL    HW2 8973   1.962   3.912   0.878  0.6106 -1.3542 -1.9483
 2692SOL     OW 8974   3.373   1.811   6.115 -0.1688  0.3665  0.2042
 2692SOL    HW1 8975   3.460   1.777   6.152  0.6108  0.2775 -1.6035
 2692SOL    HW2 8976   3.379   1.816   6.016 -2.0273  1.0094  0.0875
 2693SOL     OW 8977   6.564   3.576   4.406  0.3993  0.1525 -0.6181
 2693SOL    HW1 8978   6.574   3.675   4.416 -0.6338  0.3575 -1.4765
 2693SOL    HW2 8979   6.634   3.541   4.344 -1.0893  0.8477 -2.8040
 2694SOL     OW 8980   3.930   1.733   0.127 -0.7630  0.1995 -0.7160
 2694SOL    HW1 8981   3.941   1.762   0.222 -1.2466 -1.3842 -0.1377
 2694SOL    HW2 8982   3.834   1.738   0.102 -0.8578 -0.7960 -0.6077
 2695SOL     OW 8983   5.434   3.233   5.968  0.8958 -0.0320 -0.3522
 2695SOL    HW1 8984   5.437   3.305   5.899  1.3518  0.6739  0.3881
 2695SOL    HW2 8985   5.342   3.225   6.005  0.8858  0.3068 -0.3029
 2696SOL     OW 8986   5.542   2.070   3.836  0.7384  0.4829 -0.2800
 2696SOL    HW1 8987   5.511   2.057   3.930 -0.2498 -3.6383 -0.9713
 2696SOL    HW2 8988   5.473   2.121   3.785 -0.2993 -0.1287  0.4833
 2697SOL     OW 8989   0.057   3.127   1.699  0.1725 -0.0204 -0.3887
 2697SOL    HW1 8990   0.071   3.057   1.629  3.7725 -2.0163  1.9924
 2697SOL    HW2 8991   0.112   3.208   1.677  1.3112 -0.6510  0.0165
 2698SOL     OW 8992   3.647   6.776   2.335  0.1459  0.1084 -0.6683
 2698SOL    HW1 8993   3.579   6.725   2.282  0.2119  1.8723 -2.5915
 2698SOL    HW2 8994   3.734   6.776   2.287  0.4759  1.0026 -0.0975
 2699SOL     OW 8995   5.600   1.823   0.873  0.0950 -0.2137  0.1648
 2699SOL    HW1 8996   5.569   1.844   0.966 -0.4377  2.5077 -0.5330
 2699SOL    HW2 8997   5.559   1.888   0.810  0.3561 -2.0714 -2.0407
 2700SOL     OW 8998   3.250   2.993   2.255 -0.8014  0.4695  0.4426
 2700SOL    HW1 8999   3.323   2.938   2.296 -2.9126 -1.2241  2.2193
 2700SOL    HW2 9000   3.267   3.090   2.274  2.0543  0.4105 -1.1563
 2701SOL     OW 9001   2.934   6.285   0.969  0.1176  0.0652 -0.7860
 2701SOL    HW1 9002   2.901   6.306   0.876 -1.9830 -0.6398 -0.2675
 2701SOL    HW2 9003   2.966   6.368   1.013 -1.5335  0.9676 -1.1978
 2702SOL     OW 9004   6.850   4.790   6.811 -0.0732  0.1230  0.3053
 2702SOL    HW1 9005   6.861   4.693   6.791  0.4210  0.5265 -1.6007
 2702SOL    HW2 9006   6.818   4.802   6.905 -0.3571 -1.8763  0.4963
 2703SOL     OW 9007   1.707   5.679   2.228  0.1382  0.1559 -0.2658
 2703SOL    HW1 9008   1.759   5.719   2.153  1.9418  0.0525  0.8776
 2703SOL    HW2 9009   1.717   5.735   2.310 -0.4102 -0.6267  0.3525
 2704SOL     OW 9010   2.173   1.226   0.997  0.4599  0.5826  0.4279
 2704SOL    HW1 9011   2.186   1.170   1.078  0.7201  0.7386  0.4962
 2704SOL    HW2 9012   2.093   1.194   0.946  0.4705  0.2993  0.5887
 2705SOL     OW 9013   0.445   0.446   4.794 -0.0620  0.2844 -0.0532
 2705SOL    HW1 9014   0.400   0.422   4.880 -1.3389  2.9551  0.1541
 2705SOL    HW2 9015   0.475   0.542   4.798  2.6497 -0.4010 -1.5021
 2706SOL     OW 9016   6.421   3.845   4.754 -0.0376  0.0700  0.5646
 2706SOL    HW1 9017   6.469   3.891   4.828 -0.3758 -0.8986  1.4077
 2706SOL    HW2 9018   6.324   3.838   4.775 -0.5975  1.9093 -1.0786
 2707SOL     OW 9019   4.909   4.881   5.949  0.2935 -0.1464  0.6293
 2707SOL    HW1 9020   4.874   4.973   5.932 -0.0093 -0.1396  1.2517
 2707SOL    HW2 9021   4.834   4.816   5.945 -0.0013 -0.0206  2.8781
 2708SOL     OW 9022   0.317   6.745   4.960 -0.1704 -0.5753  0.3452
 2708SOL    HW1 9023   0.231   6.786   4.989 -0.2081 -0.7966  0.5522
 2708SOL    HW2 9024   0.393   6.806   4.981 -0.3530 -0.0238 -0.5743
 2709SOL     OW 9025   0.373   1.112   6.992  0.0513  0.1734  0.1281
 2709SOL    HW1 9026   0.463   1.092   6.952  0.9736  3.8808 -0.0080
 2709SOL    HW2 9027   0.371   1.082   7.087  2.3711  2.0067  0.8415
 2710SOL     OW 9028   3.156   3.823   6.165 -0.3030  0.0882  0.0532
 2710SOL    HW1 9029   3.082   3.862   6.110 -0.2066  1.8362  1.1075
 2710SOL    HW2 9030   3.241   3.871   6.145 -0.5519  1.8199  2.7627
 2711SOL     OW 9031   0.437   5.031   0.861 -0.0995  0.6080  0.0907
 2711SOL    HW1 9032   0.455   4.952   0.920  0.7528  1.8306  1.5202
 2711SOL    HW2 9033   0.445   5.115   0.913 -0.2000  1.7089 -1.5823
 2712SOL     OW 9034   1.739   5.711   6.591  0.3574 -0.0526 -0.3337
 2712SOL    HW1 9035   1.774   5.795   6.550  0.2406  0.1853  0.0474
 2712SOL    HW2 9036   1.648   5.692   6.555  0.7075 -0.4584 -1.0283
 2713SOL     OW 9037   1.399   2.783   6.055 -0.4944 -0.0952  0.1778
 2713SOL    HW1 9038   1.461   2.839   6.000 -1.8464  1.1508 -0.1704
 2713SOL    HW2 9039   1.444   2.755   6.139  0.5712  0.6738 -0.1161
 2714SOL     OW 9040   0.047   6.325   3.799 -0.1061 -0.9393 -0.0337
 2714SOL    HW1 9041   0.049   6.292   3.893 -1.5344  1.6698  1.0343
 2714SOL    HW2 9042  -0.026   6.279   3.749 -1.1806 -0.4264  1.0046
 2715SOL     OW 9043   4.793   0.267   1.112 -0.7825  0.3451  0.1986
 2715SOL    HW1 9044   4.749   0.310   1.191 -0.3002 -2.0668  1.9095
 2715SOL    HW2 9045   4.892   0.279   1.117 -0.7305 -0.0146  0.1053
 2716SOL     OW 9046   1.518   5.693   5.895  0.2773  0.8503  0.2899
 2716SOL    HW1 9047   1.440   5.680   5.834 -0.1154  0.8098  0.7874
 2716SOL    HW2 9048   1.575   5.611   5.894 -0.3269  0.4166  0.8118
 2717SOL     OW 9049   3.683   6.878   4.765 -0.5000  0.2171  1.0620
 2717SOL    HW1 9050   3.588   6.856   4.746 -0.7006  1.3232  0.7112
 2717SOL    HW2 9051   3.723   6.925   4.685  0.0559  0.5966  1.5564
 2718SOL     OW 9052   4.820   4.984   2.818  0.0279 -0.3139 -0.1594
 2718SOL    HW1 9053   4.828   4.901   2.874 -2.3943 -0.2690  0.3870
 2718SOL    HW2 9054   4.860   5.061   2.868  0.7860 -0.8328  0.0635
 2719SOL     OW 9055   1.692   5.190   3.172 -0.7224  0.9101  0.2991
 2719SOL    HW1 9056   1.612   5.132   3.157  0.6254 -1.1199  0.5287
 2719SOL    HW2 9057   1.673   5.283   3.140 -2.6589  0.1379 -0.9594
 2720SOL     OW 9058   2.496   6.973   4.272  0.1791  0.5320  0.3788
 2720SOL    HW1 9059   2.471   6.907   4.201 -1.0350  0.4420  0.8655
 2720SOL    HW2 9060   2.442   7.056   4.261  2.0950  1.7334 -0.5743
 2721SOL     OW 9061   0.492   1.375   3.879 -0.3427  0.3695  0.3007
 2721SOL    HW1 9062   0.492   1.281   3.911 -1.1901  0.8835  1.9040
 2721SOL    HW2 9063   0.572   1.423   3.915 -0.1865  0.4069 -0.0902
 2722SOL     OW 9064   3.540   6.899   3.461  0.3448 -0.5054  0.0438
 2722SOL    HW1 9065   3.497   6.948   3.386  1.5235  0.5481  0.0288
 2722SOL    HW2 9066   3.635   6.927   3.470  0.2104 -0.5023  2.0184
 2723SOL     OW 9067   0.816   0.999   3.899  0.4636  0.2158 -0.0610
 2723SOL    HW1 9068   0.900   1.011   3.846  0.0034 -2.0211 -1.4459
 2723SOL    HW2 9069   0.838   0.966   3.991  1.1123 -0.8417 -0.5781
 2724SOL     OW 9070   2.267   6.561   2.381 -0.0547  0.4002 -0.4388
 2724SOL    HW1 9071   2.272   6.652   2.340  0.7106  0.1491 -0.9213
 2724SOL    HW2 9072   2.359   6.528   2.401 -0.2819 -0.4873 -0.7697
 2725SOL     OW 9073   0.518   5.505   6.015 -0.0545 -0.1598  0.6088
 2725SOL    HW1 9074   0.507   5.533   5.920 -1.8727  1.9227  1.3275
 2725SOL    HW2 9075   0.614   5.487   6.034  0.8039  2.3079 -0.9112
 2726SOL     OW 9076   2.658   6.043   2.761  0.0005  0.1589  0.2050
 2726SOL    HW1 9077   2.561   6.031   2.740  0.2715 -0.9884 -0.4303
 2726SOL    HW2 9078   2.672   6.035   2.860 -0.3167 -1.4996  0.1415
 2727SOL     OW 9079   1.648   3.273   1.310 -0.2461  0.1407 -0.1913
 2727SOL    HW1 9080   1.730   3.215   1.305 -0.3280 -0.0551  0.6291
 2727SOL    HW2 9081   1.572   3.220   1.347 -0.1250  0.9755  1.3211
 2728SOL     OW 9082   2.058   2.883   3.545 -0.0817 -0.1262 -0.5657
 2728SOL    HW1 9083   2.079   2.964   3.600 -0.4362 -1.4822  1.6685
 2728SOL    HW2 9084   2.141   2.830   3.530  0.0529  0.3389 -1.5820
 2729SOL     OW 9085   6.783   6.280   2.496  0.3136  0.5745 -0.2455
 2729SOL    HW1 9086   6.684   6.295   2.504  0.0894 -0.8806  0.0453
 2729SOL    HW2 9087   6.831   6.344   2.555 -0.4736  1.1214 -0.1815
 2730SOL     OW 9088   2.435   4.238   1.216  0.0464  0.6961  0.2586
 2730SOL    HW1 9089   2.358   4.249   1.154  0.3474  0.9676 -0.0701
 2730SOL    HW2 9090   2.484   4.153   1.195 -0.4220  0.2938  0.7586
 2731SOL     OW 9091   4.179   6.364   5.246  0.0419  0.5460  0.3051
 2731SOL    HW1 9092   4.221   6.452   5.270  0.1420  1.0739 -1.6423
 2731SOL    HW2 9093   4.251   6.298   5.224 -0.0683  0.3972  0.3877
 2732SOL     OW 9094   0.015   3.818   3.930 -0.1971 -0.2124 -0.3123
 2732SOL    HW1 9095   0.030   3.911   3.965  0.5365  0.0244 -1.2120
 2732SOL    HW2 9096  -0.055   3.820   3.859 -0.3907 -0.4040 -0.1304
 2733SOL     OW 9097   1.371   5.422   3.405 -0.0516  0.5273 -0.3008
 2733SOL    HW1 9098   1.326   5.429   3.494 -0.0739  1.3329 -0.3685
 2733SOL    HW2 9099   1.460   5.469   3.409  0.8869 -1.1654 -0.1175
 2734SOL     OW 9100   4.616   2.365   5.846  0.0311  0.1227  0.2344
 2734SOL    HW1 9101   4.620   2.343   5.749 -1.6664 -0.0112  0.1767
 2734SOL    HW2 9102   4.640   2.461   5.860  1.3873 -0.1382 -0.1730
 2735SOL     OW 9103   4.374   0.574   5.576  0.2062  0.5297 -0.1012
 2735SOL    HW1 9104   4.426   0.611   5.653  0.8807  0.3223 -0.4484
 2735SOL    HW2 9105   4.339   0.649   5.519 -0.2266  0.6806  0.3581
 2736SOL     OW 9106   3.335   0.319   0.830 -0.3447 -0.2921  0.0037
 2736SOL    HW1 9107   3.430   0.310   0.859 -0.7573  1.1967  2.0933
 2736SOL    HW2 9108   3.312   0.416   0.819 -1.8110 -0.5758  0.2886
 2737SOL     OW 9109   2.975   5.495   1.793 -0.0255  0.4313 -0.4413
 2737SOL    HW1 9110   2.994   5.502   1.891 -2.2450 -1.1731  0.1783
 2737SOL    HW2 9111   3.042   5.434   1.750 -0.0719 -0.2911  0.4702
 2738SOL     OW 9112   5.103   1.349   1.758  0.2268 -0.3395  0.4500
 2738SOL    HW1 9113   5.112   1.395   1.846  0.2493 -1.2841  0.9529
 2738SOL    HW2 9114   5.141   1.407   1.686  2.4554 -0.5283  1.3727
 2739SOL     OW 9115   1.096   6.224   0.264 -0.0452 -0.1093  0.1834
 2739SOL    HW1 9116   1.125   6.320   0.259 -0.1264 -0.0406  0.9283
 2739SOL    HW2 9117   1.051   6.198   0.179 -1.5678  1.0175  0.6134
 2740SOL     OW 9118   6.601   1.049   6.173 -0.5941  0.2495  0.3007
 2740SOL    HW1 9119   6.603   0.971   6.236  0.4227  0.0552  0.0595
 2740SOL    HW2 9120   6.519   1.102   6.188 -0.6954 -0.1735  1.3351
 2741SOL     OW 9121   5.228   6.035   0.357 -0.3161 -0.1863  0.5295
 2741SOL    HW1 9122   5.184   5.952   0.322 -0.2869  0.5313 -1.3169
 2741SOL    HW2 9123   5.319   6.044   0.317 -0.0017  0.3360  1.3335
 2742SOL     OW 9124   3.990   6.039   2.411  0.4397 -0.5096  0.0910
 2742SOL    HW1 9125   4.016   6.127   2.450 -1.2766 -0.8221  2.1635
 2742SOL    HW2 9126   4.067   5.976   2.416  1.4300  0.6060 -0.6426
 2743SOL     OW 9127   6.874   3.724   4.417  0.0059  0.3111  0.0475
 2743SOL    HW1 9128   6.852   3.627   4.432  0.0196  0.3282  0.1782
 2743SOL    HW2 9129   6.791   3.779   4.428  0.1707  0.4130  0.8732
 2744SOL     OW 9130   3.983   2.713   0.747  0.1749 -0.5226 -0.1825
 2744SOL    HW1 9131   3.900   2.708   0.802 -0.5948 -1.0143 -1.3586
 2744SOL    HW2 9132   3.963   2.755   0.659  1.3950  0.2758 -0.1107
 2745SOL     OW 9133   0.803   6.244   1.830 -0.2804  0.3225 -0.1616
 2745SOL    HW1 9134   0.737   6.315   1.855  0.8291  1.0610  0.7751
 2745SOL    HW2 9135   0.770   6.195   1.748 -0.5928  2.5811 -1.4693
 2746SOL     OW 9136   2.981   1.059   1.442 -0.2442  0.1590 -0.2363
 2746SOL    HW1 9137   2.922   1.131   1.479 -0.3873  1.4356 -2.7351
 2746SOL    HW2 9138   2.959   0.972   1.485 -1.5847  1.2071  1.3115
 2747SOL     OW 9139   2.584   2.364   4.683 -0.2884  0.1394  0.2589
 2747SOL    HW1 9140   2.674   2.391   4.715 -0.1838 -0.7129  0.7065
 2747SOL    HW2 9141   2.516   2.431   4.714  0.3353  1.5179 -1.2035
 2748SOL     OW 9142   0.017   5.374   6.196 -0.3866  0.1045 -0.3116
 2748SOL    HW1 9143   0.038   5.436   6.120 -0.9171 -0.2515 -0.7585
 2748SOL    HW2 9144   0.101   5.335   6.232 -0.1908 -0.4145 -1.3048
 2749SOL     OW 9145   6.376   5.229   2.181 -0.1154 -0.3271  0.3824
 2749SOL    HW1 9146   6.476   5.225   2.178 -0.1168  0.0947 -0.9149
 2749SOL    HW2 9147   6.338   5.188   2.098 -0.9095  1.7216 -0.3426
 2750SOL     OW 9148   4.529   4.793   5.682 -0.0125  0.1818  0.1671
 2750SOL    HW1 9149   4.551   4.725   5.612  0.9683  0.9087 -0.2711
 2750SOL    HW2 9150   4.496   4.876   5.638  1.0496  0.8073  0.5181
 2751SOL     OW 9151   0.944   0.496   4.638  0.5121  0.2289  0.3070
 2751SOL    HW1 9152   0.918   0.400   4.649  0.4857 -0.0336 -1.6532
 2751SOL    HW2 9153   0.927   0.545   4.723 -1.9213 -0.9302  0.5799
 2752SOL     OW 9154   2.640   6.734   5.325  0.0884 -0.3942  0.0454
 2752SOL    HW1 9155   2.689   6.670   5.266 -0.1934 -0.9217  0.3700
 2752SOL    HW2 9156   2.547   6.747   5.290 -0.2064 -1.0123  0.5811
 2753SOL     OW 9157   3.393   6.028   6.348 -0.0989 -0.1640 -0.5346
 2753SOL    HW1 9158   3.339   5.985   6.421  0.7834  0.0886  0.2891
 2753SOL    HW2 9159   3.472   5.970   6.327  0.6714  0.6617  0.0355
 2754SOL     OW 9160   0.757   2.498   4.520 -0.5142 -0.1916 -0.3801
 2754SOL    HW1 9161   0.848   2.510   4.480 -0.3670 -0.6805 -0.1937
 2754SOL    HW2 9162   0.750   2.554   4.603  0.4311 -1.9086  0.9022
 2755SOL     OW 9163   0.112   0.089   0.537  1.1212 -0.3148  0.7243
 2755SOL    HW1 9164   0.101   0.187   0.552  0.4918 -0.3991  0.8168
 2755SOL    HW2 9165   0.184   0.074   0.468  0.6070  0.2429  0.0447
 2756SOL     OW 9166   3.976   4.118   5.507 -0.1864 -0.3398 -0.3252
 2756SOL    HW1 9167   3.995   4.190   5.440 -0.5697  0.3883  0.3247
 2756SOL    HW2 9168   3.881   4.088   5.497 -0.4819  0.3329  0.4010
 2757SOL     OW 9169   0.856   3.253   1.596 -0.9300  0.2838 -0.1536
 2757SOL    HW1 9170   0.952   3.276   1.612 -0.9499  0.9192 -0.9171
 2757SOL    HW2 9171   0.824   3.194   1.670  0.5576 -1.4858 -0.8437
 2758SOL     OW 9172   5.459   0.686   5.998  0.0652  0.4234 -0.5368
 2758SOL    HW1 9173   5.423   0.630   5.924  1.4704 -0.3282 -0.6726
 2758SOL    HW2 9174   5.535   0.638   6.043 -0.3307  1.1389  0.9719
 2759SOL     OW 9175   1.158   2.629   0.061 -0.1065  0.1159 -0.1337
 2759SOL    HW1 9176   1.159   2.671  -0.030 -1.2084 -0.4079 -0.4110
 2759SOL    HW2 9177   1.221   2.677   0.121  2.5023 -0.9893 -1.8149
 2760SOL     OW 9178   5.155   5.682   6.509 -0.2609  0.3335  0.1131
 2760SOL    HW1 9179   5.181   5.586   6.504 -1.4328 -0.0484  1.0093
 2760SOL    HW2 9180   5.059   5.692   6.481  0.2154  1.4348 -1.2551
 2761SOL     OW 9181   1.917   2.001   3.900 -0.1146  0.5795 -0.1150
 2761SOL    HW1 9182   1.909   2.047   3.989  0.4640  0.5044 -0.0226
 2761SOL    HW2 9183   1.956   2.063   3.833  1.9879 -0.1567  0.3460
 2762SOL     OW 9184   0.029   0.235   3.771 -0.0305 -0.1139  0.3319
 2762SOL    HW1 9185  -0.010   0.234   3.679  2.8788 -0.5876 -1.0012
 2762SOL    HW2 9186   0.086   0.316   3.782 -1.1352  0.4947  2.1754
 2763SOL     OW 9187   2.127   6.982   3.767  0.0267 -0.4676 -0.3912
 2763SOL    HW1 9188   2.169   6.928   3.694  0.7970  0.7960 -0.9065
 2763SOL    HW2 9189   2.027   6.975   3.760  0.1066 -2.3269 -0.0436
 2764SOL     OW 9190   6.498   6.732   4.457 -0.1741  0.2037  0.3447
 2764SOL    HW1 9191   6.422   6.784   4.418 -0.9637 -0.4268  1.0034
 2764SOL    HW2 9192   6.465   6.677   4.534  1.2580  1.1160  1.6734
 2765SOL     OW 9193   0.698   4.247   5.021  0.0269  0.2855  0.5242
 2765SOL    HW1 9194   0.723   4.162   4.976 -0.0555  0.6834 -0.2915
 2765SOL    HW2 9195   0.777   4.284   5.070  0.5278  0.5834 -0.4881
 2766SOL     OW 9196   1.292   2.235   5.842  0.1254 -0.1869 -0.5168
 2766SOL    HW1 9197   1.250   2.165   5.899 -1.2083 -0.1667 -1.4416
 2766SOL    HW2 9198   1.227   2.309   5.826  0.9024  0.4037 -1.0310
 2767SOL     OW 9199   0.398   5.798   0.287  0.4354  0.7923  0.1252
 2767SOL    HW1 9200   0.301   5.822   0.282  0.7509  1.9636 -1.0171
 2767SOL    HW2 9201   0.453   5.881   0.286  1.5073  0.1096 -1.1266
 2768SOL     OW 9202   0.520   5.301   2.207 -0.0189 -0.0314  0.2022
 2768SOL    HW1 9203   0.559   5.267   2.292  0.3015 -0.3806 -0.0842
 2768SOL    HW2 9204   0.585   5.288   2.132  0.3806  1.7862  0.1934
 2769SOL     OW 9205   0.733   1.295   3.065 -0.1076  0.2696 -0.6531
 2769SOL    HW1 9206   0.708   1.325   2.973 -0.9057  0.1801 -0.4685
 2769SOL    HW2 9207   0.687   1.209   3.087  0.6307 -0.0815 -0.4293
 2770SOL     OW 9208   1.143   0.025   6.540 -0.2216  0.4530  0.0389
 2770SOL    HW1 9209   1.105  -0.061   6.508  1.4988  0.0105 -0.9378
 2770SOL    HW2 9210   1.114   0.041   6.635 -3.0360  0.3549 -0.7244
 2771SOL     OW 9211   5.454   6.650   5.573  0.0840 -0.0148  0.1205
 2771SOL    HW1 9212   5.448   6.612   5.665  1.8826  0.6335  0.5346
 2771SOL    HW2 9213   5.525   6.602   5.521  1.2848  1.6754  0.1321
 2772SOL     OW 9214   4.890   6.041   1.623 -0.1043 -0.1441 -0.3809
 2772SOL    HW1 9215   4.900   5.941   1.625  1.8440  0.0064  0.5449
 2772SOL    HW2 9216   4.949   6.079   1.552  0.2119  0.4029  0.1559
 2773SOL     OW 9217   5.261   6.265   3.504  0.5121 -0.0038  0.4624
 2773SOL    HW1 9218   5.307   6.220   3.427 -0.1730 -0.7431  0.4807
 2773SOL    HW2 9219   5.319   6.258   3.585  0.8351 -0.0039  0.2379
 2774SOL     OW 9220   3.700   6.737   5.326  0.1598 -0.1668 -0.1231
 2774SOL    HW1 9221   3.693   6.806   5.254  1.3019  0.9216  0.7528
 2774SOL    HW2 9222   3.609   6.700   5.346 -0.4728  0.9950 -0.7150
 2775SOL     OW 9223   6.621   5.595   2.313 -0.1637 -0.2572  0.2256
 2775SOL    HW1 9224   6.614   5.596   2.413 -1.0230 -2.1760  0.2351
 2775SOL    HW2 9225   6.529   5.586   2.274  0.1632  0.4953 -0.7576
 2776SOL     OW 9226   0.854   1.566   0.763 -0.8738 -0.0810 -0.4701
 2776SOL    HW1 9227   0.860   1.589   0.861  0.8441 -0.0798 -0.5632
 2776SOL    HW2 9228   0.772   1.609   0.725 -0.7068  1.2730  0.6101
 2777SOL     OW 9229   1.365   3.645   5.640  0.3047  0.3071 -0.2084
 2777SOL    HW1 9230   1.459   3.622   5.615  1.2767  1.8503  1.6921
 2777SOL    HW2 9231   1.343   3.602   5.728  0.1072  1.8385  0.5191
 2778SOL     OW 9232   3.347   6.271   6.987 -0.2131  0.5897  0.2458
 2778SOL    HW1 9233   3.349   6.199   7.056 -0.3667  1.5655  1.2943
 2778SOL    HW2 9234   3.253   6.303   6.975 -0.1151  0.7698 -0.0412
 2779SOL     OW 9235   5.485   5.368   5.047  0.0991  0.3255  0.6030
 2779SOL    HW1 9236   5.536   5.452   5.033 -1.8369  1.3511 -0.7538
 2779SOL    HW2 9237   5.531   5.292   5.000  1.8670  0.5598  1.8589
 2780SOL     OW 9238   1.125   3.524   5.489 -0.2702  0.3211 -0.0597
 2780SOL    HW1 9239   1.201   3.588   5.496 -0.0997  0.1744 -0.4951
 2780SOL    HW2 9240   1.131   3.456   5.562  0.8484 -0.5540 -0.9154
 2781SOL     OW 9241   4.837   4.664   4.081  0.0644  0.4719 -0.6762
 2781SOL    HW1 9242   4.818   4.651   4.179  0.2546 -2.3443 -0.9282
 2781SOL    HW2 9243   4.839   4.762   4.060 -1.1452  1.1277  1.8878
 2782SOL     OW 9244   4.158   5.181   4.316  0.2648  0.4008  0.2283
 2782SOL    HW1 9245   4.112   5.158   4.402  0.8980 -2.0819 -0.0413
 2782SOL    HW2 9246   4.223   5.110   4.293 -0.6360  0.4497 -2.8809
 2783SOL     OW 9247   6.711   6.627   1.485 -0.3333  0.5749 -0.1767
 2783SOL    HW1 9248   6.665   6.710   1.516 -1.4158  0.0566 -0.3447
 2783SOL    HW2 9249   6.676   6.549   1.536 -0.0936  0.0842 -0.7608
 2784SOL     OW 9250   5.330   0.101   4.202 -0.6451  0.1801  0.1450
 2784SOL    HW1 9251   5.411   0.116   4.145 -0.7642  0.4602  0.0457
 2784SOL    HW2 9252   5.257   0.163   4.172  0.3267  2.7723  2.6789
 2785SOL     OW 9253   6.793   5.402   5.022  0.3022  0.0951  0.3388
 2785SOL    HW1 9254   6.825   5.479   4.966 -0.8865  1.3300  1.2938
 2785SOL    HW2 9255   6.861   5.382   5.092  0.2583  0.8405  0.6052
 2786SOL     OW 9256   6.561   3.890   1.688 -0.3799  0.1219 -0.4176
 2786SOL    HW1 9257   6.534   3.844   1.773  0.3593 -0.0230 -0.2549
 2786SOL    HW2 9258   6.507   3.853   1.612 -0.9090  0.1128 -0.0497
 2787SOL     OW 9259   5.512   5.273   1.317 -0.2445 -0.2886 -0.5858
 2787SOL    HW1 9260   5.438   5.209   1.338  0.2997 -0.5622  0.5787
 2787SOL    HW2 9261   5.531   5.271   1.219 -0.2994 -1.8556 -0.5888
 2788SOL     OW 9262   3.410   2.946   5.479 -0.0174  0.1954 -0.2198
 2788SOL    HW1 9263   3.506   2.967   5.457  0.0360  1.0324  0.7470
 2788SOL    HW2 9264   3.390   2.852   5.451  0.7052  0.4170 -1.6213
 2789SOL     OW 9265   2.301   3.014   1.456  0.0228 -0.0062 -0.1633
 2789SOL    HW1 9266   2.387   3.039   1.499 -0.2867  0.7003  0.0524
 2789SOL    HW2 9267   2.314   2.931   1.401  0.7108 -0.1981  0.2795
 2790SOL     OW 9268   0.308   3.721   4.246 -0.4346  0.1386  0.3170
 2790SOL    HW1 9269   0.292   3.699   4.150  2.0889 -0.7838  0.0421
 2790SOL    HW2 9270   0.298   3.820   4.259  1.5762  0.6722 -1.5063
 2791SOL     OW 9271   2.608   4.586   5.529 -0.4845  0.3644 -0.2136
 2791SOL    HW1 9272   2.643   4.674   5.561 -0.5034  0.6860 -1.0609
 2791SOL    HW2 9273   2.598   4.524   5.607 -0.2077  1.0178  0.3518
 2792SOL     OW 9274   6.613   3.679   0.041  0.1776  0.4689  0.0864
 2792SOL    HW1 9275   6.620   3.619   0.121 -1.5795 -0.2467 -0.2628
 2792SOL    HW2 9276   6.609   3.624  -0.042 -1.1440  1.0528 -0.2630
 2793SOL     OW 9277   4.805   5.563   0.218 -0.5695  0.7347 -0.1090
 2793SOL    HW1 9278   4.803   5.464   0.203  1.2622  0.5939  0.4121
 2793SOL    HW2 9279   4.867   5.585   0.293 -0.8997  2.2991 -0.2453
 2794SOL     OW 9280   6.731   6.399   1.043 -0.0762 -0.6040 -0.3274
 2794SOL    HW1 9281   6.793   6.444   1.107  0.7567 -0.3616 -1.2904
 2794SOL    HW2 9282   6.716   6.304   1.072  1.9602 -1.1469 -0.9018
 2795SOL     OW 9283   1.495   5.187   3.476 -0.3154  0.0494  0.0450
 2795SOL    HW1 9284   1.463   5.282   3.478 -1.7984 -0.4274 -0.0164
 2795SOL    HW2 9285   1.595   5.186   3.484 -0.2832  1.5966  0.2414
 2796SOL     OW 9286   2.616   5.950   2.445  0.2655 -0.3172  0.1793
 2796SOL    HW1 9287   2.571   5.989   2.526  0.2661  2.7057 -1.1082
 2796SOL    HW2 9288   2.712   5.932   2.466  0.1528 -0.0275  1.0001
 2797SOL     OW 9289   4.753   6.937   5.664  0.2151  0.5311  0.3210
 2797SOL    HW1 9290   4.672   6.962   5.718  1.0702  0.9458  1.4521
 2797SOL    HW2 9291   4.742   6.844   5.629  1.0520 -1.2617  4.2306
 2798SOL     OW 9292   6.589   5.926   4.589 -0.0688 -0.0061 -0.3953
 2798SOL    HW1 9293   6.607   5.953   4.683 -1.1359 -0.0552 -0.1576
 2798SOL    HW2 9294   6.582   6.007   4.531 -1.0180  0.1242 -0.1141
 2799SOL     OW 9295   2.347   6.116   4.603 -0.2552  0.4740  0.0293
 2799SOL    HW1 9296   2.306   6.205   4.623 -0.0594  0.3988  0.8020
 2799SOL    HW2 9297   2.438   6.130   4.563 -0.9070  0.6357 -1.4774
 2800SOL     OW 9298   6.196   6.849   2.402  0.7008 -0.1401 -0.1120
 2800SOL    HW1 9299   6.146   6.932   2.426  0.3601 -0.9779  2.3550
 2800SOL    HW2 9300   6.137   6.787   2.352  0.0118 -0.1012  0.6371
 2801SOL     OW 9301   0.827   1.175   1.179  0.5342 -0.2918  0.3526
 2801SOL    HW1 9302   0.740   1.131   1.201  0.3131  0.4878  1.0825
 2801SOL    HW2 9303   0.903   1.119   1.212  0.2579 -0.1379  1.2647
 2802SOL     OW 9304   1.911   6.881   0.514  0.1033 -0.6222 -0.5943
 2802SOL    HW1 9305   1.903   6.948   0.588 -0.1328 -0.6987 -0.5501
 2802SOL    HW2 9306   1.999   6.892   0.469 -0.2008  0.1653 -1.0209
 2803SOL     OW 9307   1.467   4.798   3.167 -0.5520  0.2831  0.1459
 2803SOL    HW1 9308   1.509   4.739   3.236  1.1922  0.3115 -0.8240
 2803SOL    HW2 9309   1.430   4.742   3.093 -0.3606  0.3334  0.0109
 2804SOL     OW 9310   5.184   0.868   1.422 -0.2191  0.4893 -0.2769
 2804SOL    HW1 9311   5.085   0.881   1.420 -0.7744 -1.6960  3.3490
 2804SOL    HW2 9312   5.216   0.874   1.516  2.6410 -1.6996 -0.9769
 2805SOL     OW 9313   0.578   6.695   6.791  0.4775 -0.3511  0.1520
 2805SOL    HW1 9314   0.540   6.637   6.718  0.7461 -0.6881  0.2748
 2805SOL    HW2 9315   0.665   6.734   6.760  1.0173 -1.1718  0.5905
 2806SOL     OW 9316   1.990   6.216   5.140 -0.3596 -0.0170 -0.2050
 2806SOL    HW1 9317   1.949   6.125   5.130 -2.0586  0.7119 -0.1255
 2806SOL    HW2 9318   1.925   6.278   5.182 -0.0779  1.8394 -2.2990
 2807SOL     OW 9319   5.866   3.871   5.275 -0.2681  0.1273 -0.1866
 2807SOL    HW1 9320   5.849   3.800   5.206  0.7568  1.8497 -2.3356
 2807SOL    HW2 9321   5.833   3.839   5.364 -0.6522 -2.6511 -1.2120
 2808SOL     OW 9322   6.949   2.890   3.195 -0.1628  0.2820 -0.2165
 2808SOL    HW1 9323   7.034   2.942   3.193 -1.3047  2.8139  3.9923
 2808SOL    HW2 9324   6.967   2.796   3.225  1.1293  1.2414  2.3303
 2809SOL     OW 9325   1.294   5.005   6.148 -0.0774  0.5963  0.1773
 2809SOL    HW1 9326   1.338   4.919   6.173  1.7246  0.9930 -1.4053
 2809SOL    HW2 9327   1.272   5.056   6.231 -0.2547 -0.9294  1.1003
 2810SOL     OW 9328   2.543   4.550   1.582 -0.1187  0.0183  0.0018
 2810SOL    HW1 9329   2.629   4.501   1.595 -0.4180  0.1480  3.2825
 2810SOL    HW2 9330   2.488   4.502   1.513  2.1117 -0.5819 -1.5052
 2811SOL     OW 9331   4.966   0.776   0.880 -0.1840 -0.0878  0.5202
 2811SOL    HW1 9332   4.926   0.690   0.911 -1.6480  0.3847  0.0017
 2811SOL    HW2 9333   4.899   0.849   0.888  1.1725  1.1213  1.3591
 2812SOL     OW 9334   2.781   5.233   4.307  0.0183  0.0415 -0.4988
 2812SOL    HW1 9335   2.841   5.154   4.298  0.6523  0.7398 -3.7824
 2812SOL    HW2 9336   2.739   5.233   4.397  0.3880 -3.7158 -0.1595
 2813SOL     OW 9337   4.889   4.682   2.052 -0.4931 -0.1516  0.0055
 2813SOL    HW1 9338   4.815   4.670   2.118 -0.4199 -1.1878 -0.0871
 2813SOL    HW2 9339   4.959   4.613   2.067  0.1134  0.3659 -0.3789
 2814SOL     OW 9340   2.853   6.273   4.529  0.5985  0.2839 -0.0479
 2814SOL    HW1 9341   2.877   6.368   4.508 -1.2116  0.9238  0.6315
 2814SOL    HW2 9342   2.910   6.242   4.606  1.3801  0.7100 -0.4336
 2815SOL     OW 9343   4.536   1.672   4.534 -0.0478  0.1940  0.0320
 2815SOL    HW1 9344   4.619   1.617   4.535  0.3208  0.6581 -2.0425
 2815SOL    HW2 9345   4.474   1.638   4.463 -1.0597  0.6895  0.6557
 2816SOL     OW 9346   4.333   3.693   0.471 -0.0736 -0.1618  0.2985
 2816SOL    HW1 9347   4.268   3.752   0.519  0.0893 -1.0226  1.6389
 2816SOL    HW2 9348   4.345   3.608   0.523  0.3953 -0.9909 -1.1008
 2817SOL     OW 9349   5.431   2.531   0.176 -0.2612  0.5813 -0.5079
 2817SOL    HW1 9350   5.413   2.446   0.125  0.4103  0.5696 -0.7330
 2817SOL    HW2 9351   5.528   2.554   0.169 -0.4378  1.3764 -0.4612
 2818SOL     OW 9352   1.494   5.854   2.524  0.3468 -0.0954  0.0703
 2818SOL    HW1 9353   1.424   5.783   2.520 -0.4667  0.5495  1.5764
 2818SOL    HW2 9354   1.585   5.813   2.519 -0.1155 -1.0334 -0.9961
 2819SOL     OW 9355   6.833   1.428   5.229  0.5001 -0.5465  0.2460
 2819SOL    HW1 9356   6.783   1.468   5.152  0.0461  2.8560  2.1032
 2819SOL    HW2 9357   6.775   1.359   5.274 -1.1418  0.7898  0.2597
 2820SOL     OW 9358   6.468   6.848   5.128  0.6461  0.2568  0.8385
 2820SOL    HW1 9359   6.395   6.779   5.131  0.4979  0.3775  0.0036
 2820SOL    HW2 9360   6.538   6.820   5.063  0.7725  0.7115  0.7757
 2821SOL     OW 9361   6.116   2.891   3.489 -0.2100 -0.8465  0.3818
 2821SOL    HW1 9362   6.197   2.912   3.433 -1.3664 -0.3367 -1.1587
 2821SOL    HW2 9363   6.067   2.976   3.508 -1.0068 -1.2917  0.3221
 2822SOL     OW 9364   5.052   4.239   0.525 -0.5374 -0.4610 -0.1650
 2822SOL    HW1 9365   4.985   4.167   0.542 -0.5809 -0.0600  1.4757
 2822SOL    HW2 9366   5.124   4.236   0.594 -1.1247  1.7233  0.6520
 2823SOL     OW 9367   6.784   0.379   4.443 -0.6787  0.0665 -0.3569
 2823SOL    HW1 9368   6.882   0.361   4.446 -0.6561  0.2826  0.2220
 2823SOL    HW2 9369   6.765   0.470   4.478 -1.2894 -0.8429  1.8708
 2824SOL     OW 9370   0.907   4.475   4.245  0.2751  0.4933  0.4875
 2824SOL    HW1 9371   0.923   4.463   4.343  2.0884  1.5011  0.3381
 2824SOL    HW2 9372   0.941   4.564   4.215  1.1495 -0.3957 -1.3447
 2825SOL     OW 9373   6.838   1.877   3.534 -0.2423 -0.3801  0.8866
 2825SOL    HW1 9374   6.769   1.930   3.583  0.4885  1.9917 -0.4794
 2825SOL    HW2 9375   6.877   1.933   3.461  1.4490 -2.4628  0.0882
 2826SOL     OW 9376   0.456   3.180   0.194  0.1110  0.1029  0.0397
 2826SOL    HW1 9377   0.518   3.106   0.171 -1.1267 -1.1181  0.5009
 2826SOL    HW2 9378   0.454   3.246   0.119  1.2232 -0.3245 -0.3806
 2827SOL     OW 9379   0.201   4.979   6.909 -0.5067  0.4395 -0.3813
 2827SOL    HW1 9380   0.300   4.976   6.893 -0.6262  1.7779 -1.5279
 2827SOL    HW2 9381   0.157   4.905   6.858 -0.1232 -0.0535 -0.0058
 2828SOL     OW 9382   2.454   4.954   2.038 -0.0570  0.2193 -0.0080
 2828SOL    HW1 9383   2.554   4.957   2.039 -0.0451  1.0961  2.3226
 2828SOL    HW2 9384   2.418   5.047   2.029 -0.6685 -0.0441 -0.3268
 2829SOL     OW 9385   3.927   1.397   4.271  0.0407  0.0604  0.8677
 2829SOL    HW1 9386   3.831   1.426   4.271 -0.3872 -1.2400 -0.0535
 2829SOL    HW2 9387   3.945   1.339   4.350  0.3849  1.1776  1.6406
 2830SOL     OW 9388   4.344   0.876   0.679  0.1070  0.0289 -0.2357
 2830SOL    HW1 9389   4.347   0.776   0.676  3.2391 -0.1218  1.9788
 2830SOL    HW2 9390   4.271   0.905   0.741  0.1100 -0.9913  0.2773
 2831SOL     OW 9391   4.870   2.416   0.734  0.2497  0.0754 -0.0768
 2831SOL    HW1 9392   4.874   2.378   0.826  1.8449 -0.5080 -0.3627
 2831SOL    HW2 9393   4.939   2.373   0.677 -1.2189 -0.1376 -1.7893
 2832SOL     OW 9394   0.256   3.259   0.346 -0.2483 -0.6537  0.1871
 2832SOL    HW1 9395   0.330   3.223   0.288  0.3503  1.6824 -0.6221
 2832SOL    HW2 9396   0.169   3.252   0.297  0.2126  1.0285 -0.9893
 2833SOL     OW 9397   2.592   2.153   2.316 -0.8617  0.3065  0.1966
 2833SOL    HW1 9398   2.508   2.206   2.324 -0.3507  1.3264 -0.8640
 2833SOL    HW2 9399   2.586   2.092   2.237 -0.7847  0.0543  0.3852
 2834SOL     OW 9400   0.712   1.994   3.050 -0.3441  0.3511 -0.2401
 2834SOL    HW1 9401   0.795   2.022   3.099 -0.3925  2.6970 -1.3381
 2834SOL    HW2 9402   0.632   2.038   3.091 -0.7069  0.2693 -0.8397
 2835SOL     OW 9403   4.323   4.546   1.052  0.5748 -0.9670  0.0066
 2835SOL    HW1 9404   4.283   4.456   1.033  2.2893 -1.4130 -1.8534
 2835SOL    HW2 9405   4.420   4.545   1.027 -0.1905  2.5450 -4.3145
 2836SOL     OW 9406   1.358   0.734   4.205 -0.2774 -0.4545  0.0553
 2836SOL    HW1 9407   1.262   0.760   4.196 -0.4958 -0.4128  1.9703
 2836SOL    HW2 9408   1.368   0.636   4.188 -0.2681 -0.1052 -2.2523
 2837SOL     OW 9409   6.697   2.387   6.948  0.5531  0.0503 -0.4906
 2837SOL    HW1 9410   6.742   2.455   6.889 -0.4199  0.1636 -1.1314
 2837SOL    HW2 9411   6.604   2.373   6.916  0.3547 -0.6937  0.3919
 2838SOL     OW 9412   6.733   1.396   1.992  0.1112  0.2895 -0.0870
 2838SOL    HW1 9413   6.728   1.471   1.926  0.4764 -0.1673 -0.6318
 2838SOL    HW2 9414   6.709   1.310   1.947  1.2471 -0.1634  0.1450
 2839SOL     OW 9415   5.633   3.063   4.564 -0.2735 -0.7131 -1.0780
 2839SOL    HW1 9416   5.625   3.102   4.472  0.0252  0.9324 -0.4519
 2839SOL    HW2 9417   5.557   3.096   4.621  0.8475  0.2652 -0.0913
 2840SOL     OW 9418   6.704   1.336   2.481 -0.6704  0.1605  0.2412
 2840SOL    HW1 9419   6.765   1.258   2.486  0.6616  1.1224 -0.4442
 2840SOL    HW2 9420   6.757   1.421   2.485 -2.0950  1.0556  1.3418
 2841SOL     OW 9421   4.071   3.536   4.127 -0.1206  0.2414 -0.6385
 2841SOL    HW1 9422   4.113   3.447   4.107 -2.5088 -1.4629  1.3612
 2841SOL    HW2 9423   4.006   3.558   4.054  0.0670  0.0787 -0.8585
 2842SOL     OW 9424   1.534   4.336   6.411 -0.1094 -0.2006 -0.0087
 2842SOL    HW1 9425   1.543   4.408   6.480 -0.6529 -0.9411  0.8532
 2842SOL    HW2 9426   1.471   4.266   6.443 -0.6682 -0.3891 -1.4226
 2843SOL     OW 9427   2.472   0.548   1.582 -0.9200  0.0239  0.6649
 2843SOL    HW1 9428   2.441   0.587   1.495 -0.8855 -0.3787  0.4715
 2843SOL    HW2 9429   2.524   0.617   1.632  1.1862 -0.4523 -0.7261
 2844SOL     OW 9430   5.234   4.386   4.763 -0.3199 -0.1188  0.3731
 2844SOL    HW1 9431   5.138   4.361   4.752 -0.2708 -1.2819  2.1828
 2844SOL    HW2 9432   5.269   4.424   4.677 -1.9538 -1.1395 -0.7942
 2845SOL     OW 9433   5.127   5.378   2.700  0.9354  0.1890  0.6606
 2845SOL    HW1 9434   5.184   5.312   2.651  0.5051  0.0871  0.2880
 2845SOL    HW2 9435   5.132   5.467   2.655 -0.2244 -0.1435 -0.1646
 2846SOL     OW 9436   6.191   6.418   5.348  0.5221 -0.2527  0.0169
 2846SOL    HW1 9437   6.222   6.492   5.408  1.7039  1.1995 -2.2060
 2846SOL    HW2 9438   6.110   6.448   5.298  1.4032 -0.1356 -1.4009
 2847SOL     OW 9439   0.406   2.846   6.323 -0.0686  0.3828  0.1944
 2847SOL    HW1 9440   0.470   2.843   6.400  0.5887 -1.8650 -0.3833
 2847SOL    HW2 9441   0.425   2.772   6.260 -3.4400 -0.6295  0.1485
 2848SOL     OW 9442   6.902   0.563   2.636 -0.0868  1.0412 -0.2246
 2848SOL    HW1 9443   6.934   0.469   2.629 -3.1848 -0.0794 -0.6868
 2848SOL    HW2 9444   6.951   0.609   2.711  0.6391 -1.3049  0.8348
 2849SOL     OW 9445   1.693   2.018   0.167  0.0488  0.0241 -0.0718
 2849SOL    HW1 9446   1.662   2.064   0.083 -0.9118 -1.1251 -0.3745
 2849SOL    HW2 9447   1.678   2.079   0.245 -0.0053  0.7183 -0.6077
 2850SOL     OW 9448   0.896   1.562   2.393 -0.4627 -0.3863 -0.3672
 2850SOL    HW1 9449   0.798   1.581   2.396 -0.0907  2.1667 -1.7076
 2850SOL    HW2 9450   0.929   1.570   2.298  1.1071 -0.9367  0.0963
 2851SOL     OW 9451   0.507   1.065   5.816 -0.5816  0.3806  0.7975
 2851SOL    HW1 9452   0.446   1.116   5.756 -0.5535  0.0869  0.5202
 2851SOL    HW2 9453   0.529   0.977   5.775  0.2266  0.5856  0.7730
 2852SOL     OW 9454   0.496   1.902   2.036 -0.0359 -0.2040  0.5263
 2852SOL    HW1 9455   0.432   1.904   2.113  0.7428  1.3636  1.2004
 2852SOL    HW2 9456   0.588   1.924   2.069  0.8407 -2.1392 -0.4608
 2853SOL     OW 9457   5.632   1.671   1.865 -1.0714  0.3704  0.2803
 2853SOL    HW1 9458   5.626   1.714   1.956 -0.5350 -0.3324  0.6567
 2853SOL    HW2 9459   5.727   1.664   1.838 -1.2132  0.2404 -0.1837
 2854SOL     OW 9460   6.072   5.680   5.052 -0.8490 -0.0761 -0.2293
 2854SOL    HW1 9461   6.090   5.777   5.066 -0.9504  0.0193 -0.7471
 2854SOL    HW2 9462   5.974   5.662   5.059 -1.3089  0.4926 -3.7026
 2855SOL     OW 9463   0.110   5.664   4.094  0.1456 -0.1701  0.4321
 2855SOL    HW1 9464   0.137   5.640   4.187 -2.5681  0.1336  1.3961
 2855SOL    HW2 9465   0.061   5.587   4.052 -0.3997  0.3959  0.0134
 2856SOL     OW 9466   6.325   1.339   6.112 -0.1019 -0.3244 -0.8949
 2856SOL    HW1 9467   6.424   1.334   6.099 -0.1486 -0.3691 -1.2395
 2856SOL    HW2 9468   6.304   1.341   6.209  0.2845  0.4494 -0.8143
 2857SOL     OW 9469   1.641   4.409   2.096  0.2585 -0.2453  0.0314
 2857SOL    HW1 9470   1.617   4.506   2.089  1.7465  0.0699 -1.0921
 2857SOL    HW2 9471   1.564   4.353   2.064 -0.3905  0.5746  0.1295
 2858SOL     OW 9472   2.328   5.853   6.637  0.1445  0.0214 -0.4936
 2858SOL    HW1 9473   2.412   5.898   6.607  1.3465 -1.2974  0.7116
 2858SOL    HW2 9474   2.275   5.915   6.694  1.9858 -0.1144  1.5059
 2859SOL     OW 9475   6.466   0.178   3.995  0.3467 -0.5038 -0.0152
 2859SOL    HW1 9476   6.399   0.222   4.056  0.8116 -1.6146  1.3490
 2859SOL    HW2 9477   6.545   0.238   3.984 -0.4709  0.4366 -0.9225
 2860SOL     OW 9478   5.355   1.085   2.927 -0.2267  0.6295  0.1789
 2860SOL    HW1 9479   5.332   1.110   3.021  0.9420 -3.6863  1.8355
 2860SOL    HW2 9480   5.451   1.106   2.909  0.2861 -0.9296  0.9618
 2861SOL     OW 9481   2.716   0.363   1.612  0.0481  0.0882  0.6687
 2861SOL    HW1 9482   2.733   0.282   1.669 -0.9571  0.4770  1.5504
 2861SOL    HW2 9483   2.622   0.395   1.626 -0.1940  0.2479 -1.1753
 2862SOL     OW 9484   2.917   1.444   3.622  0.4338  0.3458 -0.3033
 2862SOL    HW1 9485   2.934   1.375   3.692 -0.0552 -0.2105 -0.7271
 2862SOL    HW2 9486   2.824   1.479   3.632  1.0915  1.9215  0.7438
 2863SOL     OW 9487   2.542   4.928   2.981  0.1746  0.0837 -0.3074
 2863SOL    HW1 9488   2.546   4.975   2.893 -0.5841 -0.3187 -0.5615
 2863SOL    HW2 9489   2.632   4.890   3.002 -0.0848 -1.5307 -1.8678
 2864SOL     OW 9490   2.763   6.212   3.214  0.4063 -0.1076  0.0511
 2864SOL    HW1 9491   2.840   6.264   3.176 -0.6992  1.8125  0.2847
 2864SOL    HW2 9492   2.677   6.254   3.185 -0.5377 -1.2878  1.0196
 2865SOL     OW 9493   5.167   3.931   6.108  0.0141 -0.4685 -0.3825
 2865SOL    HW1 9494   5.174   3.996   6.032 -0.0821  2.8303  2.2295
 2865SOL    HW2 9495   5.258   3.906   6.139  0.0501 -0.6229 -0.6074
 2866SOL     OW 9496   4.430   6.418   3.852  0.1612  0.3024  0.8797
 2866SOL    HW1 9497   4.364   6.358   3.807 -1.3276  2.1120  0.5315
 2866SOL    HW2 9498   4.453   6.382   3.942 -1.0306 -0.5425  0.8620
 2867SOL     OW 9499   4.520   2.453   3.844 -0.0743 -0.7904 -0.4665
 2867SOL    HW1 9500   4.484   2.414   3.928  0.8381  0.5294  0.5918
 2867SOL    HW2 9501   4.460   2.430   3.767 -1.7921 -0.6917  0.8020
 2868SOL     OW 9502   4.628   5.835   4.358 -0.4115  0.2061  0.2883
 2868SOL    HW1 9503   4.590   5.913   4.310 -0.8608  0.5509  1.1811
 2868SOL    HW2 9504   4.725   5.826   4.336 -0.8418 -0.3267 -1.5496
 2869SOL     OW 9505   1.497   6.661   5.057 -0.3777 -0.5514  0.2264
 2869SOL    HW1 9506   1.518   6.757   5.072 -2.3487 -0.1445  0.6559
 2869SOL    HW2 9507   1.545   6.628   4.976  1.9268  0.2034  1.2092
 2870SOL     OW 9508   0.413   6.536   4.811 -0.0674  0.0359 -0.3185
 2870SOL    HW1 9509   0.472   6.581   4.744 -2.0022  0.9176 -1.5150
 2870SOL    HW2 9510   0.375   6.605   4.874 -2.0608 -0.0174 -1.3839
 2871SOL     OW 9511   5.840   3.344   4.563 -0.7210 -0.4208 -0.2402
 2871SOL    HW1 9512   5.820   3.283   4.639 -3.1687  0.5028 -0.0419
 2871SOL    HW2 9513   5.807   3.436   4.585  2.3855  0.9553 -0.7242
 2872SOL     OW 9514   2.320   5.958   5.109  0.0315  0.8977 -0.6962
 2872SOL    HW1 9515   2.246   5.894   5.133 -1.4014  2.4693 -0.7563
 2872SOL    HW2 9516   2.399   5.906   5.076 -0.3795 -0.9387  0.9940
 2873SOL     OW 9517   0.777   5.904   1.490  0.1424  0.0866 -0.1998
 2873SOL    HW1 9518   0.866   5.862   1.475 -0.2783 -1.2539  0.8630
 2873SOL    HW2 9519   0.706   5.845   1.452 -0.2469  1.9869 -2.6533
 2874SOL     OW 9520   5.798   4.529   2.311  0.4051 -0.8327  0.0875
 2874SOL    HW1 9521   5.890   4.563   2.331  0.8838  0.7543 -3.8417
 2874SOL    HW2 9522   5.752   4.592   2.247 -1.6582 -3.8170 -1.6408
 2875SOL     OW 9523   6.705   3.738   6.693 -0.5320  0.1222  0.2363
 2875SOL    HW1 9524   6.750   3.823   6.719 -0.4729 -0.0607  0.7561
 2875SOL    HW2 9525   6.759   3.661   6.728  0.4859 -0.1959 -1.9076
 2876SOL     OW 9526   5.678   3.285   5.556  0.2183 -0.1362  0.4730
 2876SOL    HW1 9527   5.596   3.240   5.521  0.2589 -0.1650  0.4151
 2876SOL    HW2 9528   5.741   3.216   5.591  0.1764 -0.1075  0.6070
 2877SOL     OW 9529   1.905   2.907   1.548 -0.0846 -0.3008 -0.2988
 2877SOL    HW1 9530   1.988   2.953   1.581 -0.0717 -0.7561  0.3288
 2877SOL    HW2 9531   1.929   2.816   1.514 -0.4729 -0.8675  0.9062
 2878SOL     OW 9532   1.187   2.055   6.003 -0.2026 -0.0430  0.3076
 2878SOL    HW1 9533   1.145   2.123   6.063 -1.4983 -1.6162  1.2599
 2878SOL    HW2 9534   1.267   2.016   6.048 -0.4401 -0.3310  0.4821
 2879SOL     OW 9535   0.770   0.728   2.833 -0.2658 -0.0504 -0.1950
 2879SOL    HW1 9536   0.705   0.791   2.791 -0.1674  0.2888  0.1583
 2879SOL    HW2 9537   0.810   0.669   2.763 -0.6181  0.0412 -0.4760
 2880SOL     OW 9538   4.468   1.043   3.282 -0.3560  0.3706  0.0920
 2880SOL    HW1 9539   4.395   1.093   3.236  1.4211  1.8937 -1.2316
 2880SOL    HW2 9540   4.504   0.972   3.221 -0.1165  0.2610  0.3581
 2881SOL     OW 9541   0.896   4.863   5.582 -0.0688 -0.3904 -0.0655
 2881SOL    HW1 9542   0.901   4.805   5.663  0.1341 -0.2580  0.0182
 2881SOL    HW2 9543   0.890   4.959   5.611 -0.2929 -0.3625 -0.2028
 2882SOL     OW 9544   3.661   5.678   1.554  0.4618 -0.2508  0.2342
 2882SOL    HW1 9545   3.749   5.708   1.589 -0.2022  0.9158  0.9437
 2882SOL    HW2 9546   3.624   5.606   1.613 -0.1669  0.9762  1.3976
 2883SOL     OW 9547   4.924   1.055   1.112 -0.2549  0.2591 -0.0174
 2883SOL    HW1 9548   4.907   1.153   1.095  1.3449  0.8659  1.5758
 2883SOL    HW2 9549   5.020   1.035   1.095 -0.4650 -0.9415  0.1742
 2884SOL     OW 9550   6.839   1.429   4.536 -0.5460 -0.0189  0.5916
 2884SOL    HW1 9551   6.917   1.372   4.511 -0.7656 -0.7674  1.5731
 2884SOL    HW2 9552   6.872   1.519   4.564 -0.0083 -0.4105  1.2420
 2885SOL     OW 9553   3.031   5.546   2.058  0.2536 -0.3011 -0.3869
 2885SOL    HW1 9554   3.128   5.551   2.082  0.4381  1.0908 -1.3037
 2885SOL    HW2 9555   2.986   5.631   2.084 -0.5175 -0.5577 -0.8420
 2886SOL     OW 9556   6.028   3.106   2.367  0.4985  0.2122  0.1310
 2886SOL    HW1 9557   6.016   3.140   2.274 -0.6287 -0.5561 -0.0236
 2886SOL    HW2 9558   5.963   3.032   2.385 -0.6905  1.6224  2.1416
 2887SOL     OW 9559   0.117   2.073   1.782 -0.3466 -0.3742 -0.1344
 2887SOL    HW1 9560   0.110   2.165   1.821 -3.4289  0.5680 -2.5160
 2887SOL    HW2 9561   0.098   2.005   1.853  1.4630  0.7457  1.5449
 2888SOL     OW 9562   6.867   4.849   2.816 -0.0092 -0.3697  0.6497
 2888SOL    HW1 9563   6.916   4.811   2.737 -0.1889  1.5996 -0.4713
 2888SOL    HW2 9564   6.770   4.855   2.795 -0.1102 -0.1695  1.1623
 2889SOL     OW 9565   1.894   1.894   2.051  0.1463  0.1960  0.4162
 2889SOL    HW1 9566   1.889   1.904   2.150  2.3837 -0.5063  0.6577
 2889SOL    HW2 9567   1.966   1.953   2.015 -0.5644  0.3621 -0.7892
 2890SOL     OW 9568   2.802   3.796   1.726  0.0374 -0.1495 -0.4403
 2890SOL    HW1 9569   2.743   3.717   1.746  1.7763 -1.2435  0.6525
 2890SOL    HW2 9570   2.859   3.774   1.647 -0.9478  0.9037 -1.4878
 2891SOL     OW 9571   0.524   4.831   6.260 -0.7158 -0.1483 -0.3186
 2891SOL    HW1 9572   0.549   4.749   6.312 -1.7947  0.7498  1.7438
 2891SOL    HW2 9573   0.528   4.811   6.162  0.1136 -2.3207  0.1021
 2892SOL     OW 9574   0.602   4.064   4.286  0.0143 -0.7597  0.1644
 2892SOL    HW1 9575   0.626   4.128   4.213  0.4552 -0.4265  0.5937
 2892SOL    HW2 9576   0.685   4.028   4.328 -0.2328 -1.7823 -0.2093
 2893SOL     OW 9577   0.329   6.286   2.786  0.2646 -0.4516 -0.1307
 2893SOL    HW1 9578   0.246   6.263   2.837  1.8978 -3.1853  1.5645
 2893SOL    HW2 9579   0.385   6.348   2.841  0.2494 -0.1754 -0.4219
 2894SOL     OW 9580   6.450   3.074   2.376  0.1413  0.3364  0.4939
 2894SOL    HW1 9581   6.530   3.106   2.325  0.6747  0.5269  1.4307
 2894SOL    HW2 9582   6.444   2.974   2.369  0.1646  0.3679 -0.0039
 2895SOL     OW 9583   1.191   0.112   6.022  0.1141 -0.2199  0.0824
 2895SOL    HW1 9584   1.140   0.058   5.956 -0.9029  1.3019 -0.4188
 2895SOL    HW2 9585   1.288   0.085   6.020 -0.0270 -0.6889 -1.5152
 2896SOL     OW 9586   6.771   0.422   0.134  0.0448  0.2504  0.6671
 2896SOL    HW1 9587   6.830   0.378   0.202 -1.7045 -1.0880  1.4167
 2896SOL    HW2 9588   6.752   0.357   0.060  0.2700  0.9920 -0.0588
 2897SOL     OW 9589   5.527   1.481   6.783  0.4127 -0.2410  0.0805
 2897SOL    HW1 9590   5.587   1.411   6.821  1.6389  1.2170  0.8977
 2897SOL    HW2 9591   5.546   1.492   6.685  0.0677 -1.1622 -0.1018
 2898SOL     OW 9592   6.634   4.820   1.478  0.1768 -0.0125  0.4710
 2898SOL    HW1 9593   6.626   4.868   1.390 -0.6264  0.4594  0.7940
 2898SOL    HW2 9594   6.730   4.819   1.506  0.2941  0.8219  0.1278
 2899SOL     OW 9595   5.978   3.482   0.304  0.0906 -0.5950 -0.4805
 2899SOL    HW1 9596   5.993   3.406   0.368  0.9371 -0.4057 -0.4528
 2899SOL    HW2 9597   6.059   3.494   0.246 -0.9146 -1.2408 -2.1087
 2900SOL     OW 9598   4.874   0.851   5.460  0.0956 -0.2653  0.1592
 2900SOL    HW1 9599   4.838   0.914   5.390  1.9290  1.2249  0.4826
 2900SOL    HW2 9600   4.798   0.800   5.500 -1.0666 -0.8434 -2.5662
 2901SOL     OW 9601   3.735   3.805   6.227 -0.0293  0.0345 -0.6024
 2901SOL    HW1 9602   3.816   3.805   6.286 -0.2258  1.4956 -0.3004
 2901SOL    HW2 9603   3.671   3.875   6.258 -0.9565 -0.4137 -1.4595
 2902SOL     OW 9604   6.131   4.295   0.544  0.4013  0.3111 -0.5557
 2902SOL    HW1 9605   6.090   4.262   0.629  0.5407 -1.8437 -1.2550
 2902SOL    HW2 9606   6.069   4.358   0.498 -0.9625 -0.8020 -0.2882
 2903SOL     OW 9607   4.423   5.196   2.699  0.6318  0.2817 -0.2505
 2903SOL    HW1 9608   4.447   5.118   2.756  0.9693 -0.9469 -1.9800
 2903SOL    HW2 9609   4.325   5.195   2.680  0.0218  2.1541  2.2988
 2904SOL     OW 9610   1.366   4.196   5.455  0.2886 -0.6796  0.0333
 2904SOL    HW1 9611   1.324   4.203   5.364  0.5782 -0.3215 -0.0731
 2904SOL    HW2 9612   1.357   4.283   5.503  0.7950 -0.6383  0.0579
 2905SOL     OW 9613   1.668   0.633   5.207 -0.5635  0.3918 -0.4143
 2905SOL    HW1 9614   1.578   0.637   5.249 -1.2608 -0.6253 -1.7511
 2905SOL    HW2 9615   1.692   0.538   5.189  1.4147  0.5099  1.2037
 2906SOL     OW 9616   5.785   2.226   4.880  0.0342  0.1648 -0.0624
 2906SOL    HW1 9617   5.792   2.268   4.971  1.3433 -1.3821  0.6048
 2906SOL    HW2 9618   5.877   2.208   4.845 -0.4676  0.0200 -1.3646
 2907SOL     OW 9619   3.702   3.726   2.756 -0.0792  0.7704 -0.3235
 2907SOL    HW1 9620   3.659   3.748   2.844 -2.2209  3.1611 -1.8490
 2907SOL    HW2 9621   3.637   3.740   2.682  1.3538 -2.0866 -2.3367
 2908SOL     OW 9622   1.250   4.702   4.786  0.5720  0.0746 -0.1320
 2908SOL    HW1 9623   1.298   4.779   4.830  1.4694  0.1620 -1.2326
 2908SOL    HW2 9624   1.316   4.629   4.767 -0.4163 -1.3551  1.6656
 2909SOL     OW 9625   1.587   4.138   2.763  0.4004 -0.1494  0.3576
 2909SOL    HW1 9626   1.562   4.235   2.759  0.0561 -0.2378  0.2946
 2909SOL    HW2 9627   1.625   4.110   2.674 -2.2104 -0.7770 -0.6547
 2910SOL     OW 9628   1.332   5.207   6.949 -0.4244 -0.0184 -0.3095
 2910SOL    HW1 9629   1.372   5.259   7.024  0.6977 -1.0214 -0.1911
 2910SOL    HW2 9630   1.307   5.115   6.981  0.0522 -0.4533 -1.1501
 2911SOL     OW 9631   4.543   6.331   4.387 -0.4308  0.3312  0.3479
 2911SOL    HW1 9632   4.477   6.328   4.462  0.1659  2.1612  0.9924
 2911SOL    HW2 9633   4.633   6.304   4.422 -0.2832  0.5664  0.1510
 2912SOL     OW 9634   0.245   5.973   5.102  0.2425  0.1286  0.2889
 2912SOL    HW1 9635   0.158   6.020   5.121 -0.5392 -1.3373  0.4580
 2912SOL    HW2 9636   0.293   5.956   5.188  0.9880  1.4251  0.1544
 2913SOL     OW 9637   1.140   1.603   1.228  0.4076  0.2986 -0.0217
 2913SOL    HW1 9638   1.236   1.601   1.200 -0.0660 -2.1002 -1.7424
 2913SOL    HW2 9639   1.119   1.520   1.280 -0.9658  0.2769 -0.5733
 2914SOL     OW 9640   1.071   6.810   3.402 -1.0088 -0.1218 -0.2174
 2914SOL    HW1 9641   1.022   6.873   3.342 -0.5268  0.8472  0.3759
 2914SOL    HW2 9642   1.070   6.844   3.496  1.2604  0.2716 -0.2690
 2915SOL     OW 9643   4.822   0.433   4.670 -0.2451  0.0840  0.2858
 2915SOL    HW1 9644   4.907   0.482   4.692 -0.2132  0.1527  0.0177
 2915SOL    HW2 9645   4.783   0.394   4.753 -0.3007  0.6200  0.5152
 2916SOL     OW 9646   5.948   3.418   0.985 -0.5544 -0.2524 -0.6269
 2916SOL    HW1 9647   5.958   3.471   0.901 -0.3044 -0.1749 -0.5481
 2916SOL    HW2 9648   5.853   3.424   1.016 -0.7060 -0.5012 -1.0464
 2917SOL     OW 9649   6.988   1.922   5.545  0.3306 -0.2673  0.0301
 2917SOL    HW1 9650   7.039   1.864   5.481 -0.5785 -0.2567 -0.7446
 2917SOL    HW2 9651   7.011   1.897   5.639  1.8612 -0.1370 -0.2813
 2918SOL     OW 9652   1.181   1.636   6.027 -0.2797  0.3217  0.2500
 2918SOL    HW1 9653   1.223   1.548   6.003 -1.7625 -0.1223 -0.8832
 2918SOL    HW2 9654   1.233   1.711   5.987  0.8490 -0.0386  0.9984
 2919SOL     OW 9655   3.668   1.455   0.117  1.2948 -0.1056  0.2184
 2919SOL    HW1 9656   3.711   1.427   0.203  1.9049  0.4672  0.1125
 2919SOL    HW2 9657   3.700   1.547   0.093  1.5455 -0.4662 -0.8888
 2920SOL     OW 9658   2.308   4.820   3.069  0.2978 -0.3770 -0.1580
 2920SOL    HW1 9659   2.394   4.855   3.032 -0.7311  0.8620 -1.4798
 2920SOL    HW2 9660   2.248   4.896   3.092 -1.3530 -1.1995 -1.4926
 2921SOL     OW 9661   5.217   3.346   0.036 -0.1448  0.1989 -0.0881
 2921SOL    HW1 9662   5.148   3.375   0.102 -0.0543 -1.0045  0.5671
 2921SOL    HW2 9663   5.174   3.293  -0.037  0.0403 -0.2797  0.1484
 2922SOL     OW 9664   1.009   5.809   6.388  0.3513  0.2011 -0.5982
 2922SOL    HW1 9665   0.910   5.811   6.403  0.5072 -0.1784  0.5825
 2922SOL    HW2 9666   1.031   5.866   6.309 -1.0013 -1.2936 -2.1449
 2923SOL     OW 9667   6.056   5.394   3.887 -0.3707 -0.4490  0.5691
 2923SOL    HW1 9668   6.109   5.319   3.847 -0.2552  0.0183 -0.1731
 2923SOL    HW2 9669   6.045   5.467   3.819 -2.7679 -0.9114  0.3460
 2924SOL     OW 9670   0.752   3.872   1.074 -0.2058 -0.4129 -0.3845
 2924SOL    HW1 9671   0.764   3.797   1.009  0.5352 -0.5779 -0.0685
 2924SOL    HW2 9672   0.835   3.927   1.077 -0.4355 -0.0825  0.0207
 2925SOL     OW 9673   4.871   3.962   2.437  0.0093 -0.0346 -0.2241
 2925SOL    HW1 9674   4.960   3.947   2.393  0.7988 -1.9008  1.8096
 2925SOL    HW2 9675   4.859   3.896   2.512 -2.7610  0.7006  0.0994
 2926SOL     OW 9676   3.149   5.296   1.694  0.7337  0.4259  0.3680
 2926SOL    HW1 9677   3.197   5.239   1.761 -1.0568 -1.8035 -0.1468
 2926SOL    HW2 9678   3.156   5.254   1.604 -0.0871  1.3813 -0.1480
 2927SOL     OW 9679   1.968   0.958   5.674 -0.1515  0.0905 -0.1733
 2927SOL    HW1 9680   1.999   0.909   5.755  0.1228  1.1796  0.4020
 2927SOL    HW2 9681   2.043   1.012   5.636 -0.7437  0.9965 -0.0864
 2928SOL     OW 9682   5.006   4.933   2.546 -0.4627 -0.5439 -0.6817
 2928SOL    HW1 9683   4.912   4.955   2.573 -0.3899  1.2786 -1.7569
 2928SOL    HW2 9684   5.012   4.925   2.447  0.2699 -2.0552 -0.5463
 2929SOL     OW 9685   2.346   0.558   3.252 -0.6135  0.4647 -0.0649
 2929SOL    HW1 9686   2.356   0.462   3.228 -0.6640  0.5118 -0.2801
 2929SOL    HW2 9687   2.431   0.592   3.291 -0.3808  0.4993 -0.5856
 2930SOL     OW 9688   3.035   3.186   5.041  0.2643 -0.1061  0.5393
 2930SOL    HW1 9689   3.032   3.096   5.084 -1.0883 -0.6468 -0.6022
 2930SOL    HW2 9690   2.957   3.240   5.071 -0.4147 -0.3085 -0.7860
 2931SOL     OW 9691   4.455   1.352   2.821 -0.5160  0.1038 -0.2089
 2931SOL    HW1 9692   4.496   1.430   2.869 -0.9614  1.4819 -1.9785
 2931SOL    HW2 9693   4.375   1.383   2.770 -0.8542 -1.5828 -0.7435
 2932SOL     OW 9694   1.473   6.926   2.879 -0.2611  0.2504 -0.3201
 2932SOL    HW1 9695   1.544   6.916   2.809 -0.0237  0.0974 -0.0625
 2932SOL    HW2 9696   1.492   7.007   2.934 -0.3172  0.2410 -0.2875
 2933SOL     OW 9697   4.512   1.962   2.446 -0.2347  0.0167  0.3983
 2933SOL    HW1 9698   4.569   1.881   2.434  1.3317  0.8059  2.0205
 2933SOL    HW2 9699   4.418   1.941   2.417  0.5209 -1.7624 -0.9827
 2934SOL     OW 9700   0.751   3.397   5.460 -0.4868 -0.4610  0.0485
 2934SOL    HW1 9701   0.680   3.466   5.443 -0.7174 -0.3828  1.2179
 2934SOL    HW2 9702   0.708   3.309   5.480 -0.3135 -0.2287  1.5768
 2935SOL     OW 9703   4.932   2.617   5.325 -0.5989 -0.3181  0.3971
 2935SOL    HW1 9704   4.902   2.576   5.239  1.3815 -0.0740 -0.4854
 2935SOL    HW2 9705   4.959   2.712   5.308  2.0422 -0.9429  0.7082
 2936SOL     OW 9706   5.904   0.020   0.515  0.5654 -0.0019  0.5182
 2936SOL    HW1 9707   5.964   0.076   0.457  1.2077  0.4160  1.5352
 2936SOL    HW2 9708   5.945  -0.070   0.528  0.6772  0.0737  0.7081
 2937SOL     OW 9709   1.016   6.439   0.882  0.2506 -0.2929  0.3453
 2937SOL    HW1 9710   1.076   6.517   0.864 -1.1784  0.5654 -1.0572
 2937SOL    HW2 9711   1.032   6.368   0.813  0.9229 -0.8705  1.0824
 2938SOL     OW 9712   3.870   1.862   5.239  0.0477 -0.3616 -0.6176
 2938SOL    HW1 9713   3.770   1.858   5.241  0.0161 -0.9126 -2.2445
 2938SOL    HW2 9714   3.900   1.905   5.154  1.1885  1.0756  0.4659
 2939SOL     OW 9715   0.455   5.865   2.883 -0.0543 -0.0529  0.0490
 2939SOL    HW1 9716   0.477   5.825   2.794 -0.9470  1.2058 -0.7641
 2939SOL    HW2 9717   0.533   5.852   2.945  1.2506  0.4983 -1.4176
 2940SOL     OW 9718   1.883   6.690   3.304 -0.0330  0.2971  0.0543
 2940SOL    HW1 9719   1.814   6.677   3.233  0.7991  2.8423 -1.3712
 2940SOL    HW2 9720   1.855   6.766   3.364  2.1252  2.5114 -1.5513
 2941SOL     OW 9721   3.383   5.626   1.955  0.0777 -0.0899 -0.2366
 2941SOL    HW1 9722   3.341   5.610   1.866  1.0405  0.9412 -0.9111
 2941SOL    HW2 9723   3.454   5.558   1.972 -0.1886 -0.3589 -0.2036
 2942SOL     OW 9724   5.239   3.357   2.706 -0.1373  0.6404  0.0308
 2942SOL    HW1 9725   5.233   3.257   2.713  1.1855  0.6217  1.2430
 2942SOL    HW2 9726   5.314   3.390   2.762  1.1066  2.1134 -2.3411
 2943SOL     OW 9727   1.543   3.897   6.086 -0.3322  0.6357 -0.2545
 2943SOL    HW1 9728   1.519   3.890   5.989  0.0051 -3.6316 -0.2133
 2943SOL    HW2 9729   1.637   3.865   6.100 -0.8643 -0.2619  1.6059
 2944SOL     OW 9730   5.635   6.073   6.639 -0.0947 -0.2313 -0.1627
 2944SOL    HW1 9731   5.561   6.068   6.706 -2.1045 -2.5138 -2.2988
 2944SOL    HW2 9732   5.596   6.073   6.546  2.5891  0.2932 -1.3994
 2945SOL     OW 9733   4.701   1.716   0.558 -0.7780  0.5235 -0.3145
 2945SOL    HW1 9734   4.691   1.794   0.619  2.5099  2.0575 -1.4868
 2945SOL    HW2 9735   4.620   1.709   0.499 -2.1140  1.6029  1.2844
 2946SOL     OW 9736   4.649   6.492   0.128 -0.7203  0.2898  0.8577
 2946SOL    HW1 9737   4.623   6.436   0.049 -3.6349  1.2007  1.0552
 2946SOL    HW2 9738   4.726   6.551   0.103  0.4749 -1.6201 -0.2674
 2947SOL     OW 9739   1.677   4.614   2.740 -0.6677  0.1055 -0.1946
 2947SOL    HW1 9740   1.722   4.531   2.707  1.7192  0.3242  2.2027
 2947SOL    HW2 9741   1.586   4.591   2.773 -0.7610 -1.1765 -1.2545
 2948SOL     OW 9742   3.018   0.142   2.341 -0.2927 -0.1787 -0.0406
 2948SOL    HW1 9743   2.981   0.112   2.429  1.5376  0.8494  1.1442
 2948SOL    HW2 9744   3.118   0.143   2.345 -0.1737  0.4048 -1.9794
 2949SOL     OW 9745   2.728   0.382   6.972 -0.8822 -0.3783  0.3252
 2949SOL    HW1 9746   2.818   0.343   6.952 -0.7167  0.3485 -0.4055
 2949SOL    HW2 9747   2.698   0.439   6.895 -3.5804 -3.4261 -1.1169
 2950SOL     OW 9748   4.906   3.128   3.797  0.4836  0.3298 -0.2670
 2950SOL    HW1 9749   4.967   3.205   3.779 -0.6076  0.8250 -1.9661
 2950SOL    HW2 9750   4.902   3.069   3.717 -0.0111 -0.6003  0.4227
 2951SOL     OW 9751   0.635   0.880   6.233  0.2217  0.0819 -0.3612
 2951SOL    HW1 9752   0.696   0.955   6.259 -1.4491  1.7809 -1.0413
 2951SOL    HW2 9753   0.612   0.825   6.314  1.3396  0.4052  0.1896
 2952SOL     OW 9754   4.379   2.391   2.551  0.2332  0.5552  0.6350
 2952SOL    HW1 9755   4.381   2.376   2.650 -0.0389  1.4938  0.7931
 2952SOL    HW2 9756   4.435   2.470   2.529  0.3054  0.3368  0.0309
 2953SOL     OW 9757   3.920   0.894   2.603 -0.0553 -0.6370 -0.5202
 2953SOL    HW1 9758   3.839   0.951   2.613 -0.6538 -1.5822  0.1564
 2953SOL    HW2 9759   3.981   0.909   2.682  1.6027  1.8308 -2.1455
 2954SOL     OW 9760   5.485   4.195   4.257 -0.2221 -0.0754  0.1382
 2954SOL    HW1 9761   5.545   4.274   4.251 -1.9773  1.3003 -0.2978
 2954SOL    HW2 9762   5.464   4.161   4.165  0.9060 -1.4139  0.3336
 2955SOL     OW 9763   3.508   1.206   3.720  0.2164  0.1432 -0.2181
 2955SOL    HW1 9764   3.483   1.301   3.705  2.4847  1.0669  1.2571
 2955SOL    HW2 9765   3.608   1.198   3.721  0.2619 -3.0027 -4.4816
 2956SOL     OW 9766   1.516   2.825   1.325 -0.0992 -0.6354 -0.1414
 2956SOL    HW1 9767   1.567   2.838   1.410 -0.2429  1.2369 -0.3021
 2956SOL    HW2 9768   1.422   2.854   1.338  0.3212  1.4895 -1.4044
 2957SOL     OW 9769   1.967   5.811   1.704  0.0860 -0.3712  0.4348
 2957SOL    HW1 9770   1.879   5.854   1.686 -0.8608 -2.2901  0.2614
 2957SOL    HW2 9771   1.988   5.744   1.633  1.1232 -0.7778  1.0816
 2958SOL     OW 9772   4.503   1.242   4.368  0.5592 -0.7462  0.8505
 2958SOL    HW1 9773   4.594   1.274   4.341 -0.9967  2.0355 -1.6986
 2958SOL    HW2 9774   4.474   1.168   4.308  0.2594 -0.0435  0.1167
 2959SOL     OW 9775   1.072   0.246   4.452 -0.2974  0.2698  0.2314
 2959SOL    HW1 9776   0.973   0.243   4.467 -0.5265  1.4490 -0.8125
 2959SOL    HW2 9777   1.117   0.280   4.535 -0.7644 -0.2863  0.7191
 2960SOL     OW 9778   2.603   4.014   1.117 -0.4717  0.1737 -0.4520
 2960SOL    HW1 9779   2.569   3.962   1.039 -0.8414  0.1467 -0.2753
 2960SOL    HW2 9780   2.691   4.056   1.094 -0.4707 -0.0203 -0.8031
 2961SOL     OW 9781   5.053   2.300   2.651 -0.0742 -0.2920 -0.0616
 2961SOL    HW1 9782   5.152   2.312   2.639 -0.1157 -1.3613 -1.7350
 2961SOL    HW2 9783   5.004   2.374   2.605 -0.1095  2.1261  3.4186
 2962SOL     OW 9784   4.522   5.973   0.185  0.5122  0.1475  0.6340
 2962SOL    HW1 9785   4.467   6.018   0.254 -0.0105  0.6580 -0.0983
 2962SOL    HW2 9786   4.545   5.881   0.215 -0.1310  0.1868  1.2594
 2963SOL     OW 9787   5.636   5.067   4.241  0.0101  0.8731 -0.2588
 2963SOL    HW1 9788   5.716   5.126   4.227 -0.8590  2.1824  0.1441
 2963SOL    HW2 9789   5.601   5.080   4.334 -0.3219 -0.1307 -0.2408
 2964SOL     OW 9790   0.709   4.700   2.370 -0.5026 -0.5848  0.1911
 2964SOL    HW1 9791   0.667   4.703   2.279  1.2374 -0.7160 -0.6465
 2964SOL    HW2 9792   0.688   4.612   2.413 -1.5387 -0.4279  0.0376
 2965SOL     OW 9793   0.023   5.045   5.562  0.3705 -0.4019 -0.0105
 2965SOL    HW1 9794   0.066   4.962   5.599  1.5790 -0.4229 -1.3533
 2965SOL    HW2 9795   0.029   5.044   5.462 -1.5494  0.2961 -0.1717
 2966SOL     OW 9796   5.901   0.089   2.062 -0.6442  0.1188 -0.3405
 2966SOL    HW1 9797   5.857   0.003   2.084 -1.7064  0.9021  0.6959
 2966SOL    HW2 9798   5.916   0.095   1.963 -1.9283 -0.6048 -0.5960
 2967SOL     OW 9799   1.954   1.545   3.088  0.3796 -0.2587 -0.2590
 2967SOL    HW1 9800   1.991   1.532   2.995 -0.2232  0.3198 -0.5898
 2967SOL    HW2 9801   2.015   1.502   3.154  1.6712  0.7049 -0.7792
 2968SOL     OW 9802   5.406   5.578   2.745  0.6122  0.0338 -0.2189
 2968SOL    HW1 9803   5.446   5.667   2.725  1.5813 -0.5932 -1.2447
 2968SOL    HW2 9804   5.337   5.555   2.676  1.2720 -0.5321 -0.7084
 2969SOL     OW 9805   4.987   3.811   5.060 -0.4547  0.0302  0.2174
 2969SOL    HW1 9806   4.948   3.855   5.141 -1.8849 -0.3403 -0.2484
 2969SOL    HW2 9807   4.924   3.741   5.026  1.5335 -2.0870  0.6492
 2970SOL     OW 9808   0.742   5.639   4.580  0.6492  0.1584 -0.2729
 2970SOL    HW1 9809   0.790   5.644   4.493  1.0018 -0.6581 -0.1298
 2970SOL    HW2 9810   0.656   5.590   4.568  1.1824 -0.8725  0.0384
 2971SOL     OW 9811   6.061   0.810   1.631  0.4532 -0.0216  0.2489
 2971SOL    HW1 9812   6.025   0.900   1.607  0.6084  0.2805  1.0955
 2971SOL    HW2 9813   5.986   0.746   1.644  0.3378  0.0036 -0.2738
 2972SOL     OW 9814   6.649   5.125   2.707  0.2799 -0.2681 -0.5149
 2972SOL    HW1 9815   6.583   5.179   2.759 -0.4865  0.0680 -1.7874
 2972SOL    HW2 9816   6.628   5.028   2.717  0.9034 -0.2905  0.7796
 2973SOL     OW 9817   3.632   2.545   0.685 -0.1237 -0.1853  0.1562
 2973SOL    HW1 9818   3.676   2.573   0.770 -0.2136 -0.1171  0.1810
 2973SOL    HW2 9819   3.698   2.546   0.610  0.0248 -0.5219  0.2793
 2974SOL     OW 9820   4.112   6.031   5.064 -0.3686 -0.0445 -0.2520
 2974SOL    HW1 9821   4.101   6.086   4.981 -0.6121 -0.4031 -0.4593
 2974SOL    HW2 9822   4.098   5.935   5.043 -2.2765  0.0119  0.5382
 2975SOL     OW 9823   5.212   1.185   3.442 -0.6332  0.3086  0.1475
 2975SOL    HW1 9824   5.165   1.261   3.487 -2.8758  0.3646 -2.0593
 2975SOL    HW2 9825   5.291   1.221   3.391 -0.6326  0.8715  0.5314
 2976SOL     OW 9826   6.712   2.443   1.540  0.0216 -0.5437 -0.5659
 2976SOL    HW1 9827   6.669   2.404   1.459  0.6721 -1.5958 -0.4239
 2976SOL    HW2 9828   6.663   2.411   1.622 -1.9704  2.2006 -0.5791
 2977SOL     OW 9829   1.728   4.701   3.681 -0.0760  0.5887 -0.1940
 2977SOL    HW1 9830   1.786   4.657   3.750 -0.5481  0.5791  0.1946
 2977SOL    HW2 9831   1.642   4.651   3.673 -0.0529  0.6274 -0.7465
 2978SOL     OW 9832   3.458   2.678   5.992 -0.0584 -0.0475 -0.0030
 2978SOL    HW1 9833   3.393   2.634   6.053  0.3729 -0.5921  0.0767
 2978SOL    HW2 9834   3.433   2.773   5.979 -2.3945 -0.8448 -2.0370
 2979SOL     OW 9835   0.027   4.518   6.696  0.9322 -0.1717 -0.2210
 2979SOL    HW1 9836   0.095   4.449   6.671  0.5775 -0.7810  0.4774
 2979SOL    HW2 9837   0.074   4.600   6.730  1.3114 -0.9489  1.1752
 2980SOL     OW 9838   3.990   5.155   4.555  0.2182  0.8057  0.4340
 2980SOL    HW1 9839   3.946   5.066   4.561  2.0904 -0.2619 -1.0002
 2980SOL    HW2 9840   3.921   5.225   4.538 -1.0075 -0.7328 -1.2395
 2981SOL     OW 9841   4.906   6.300   6.425 -0.1086 -0.3360 -0.8254
 2981SOL    HW1 9842   4.850   6.377   6.395 -0.2650 -0.7084 -1.5011
 2981SOL    HW2 9843   4.929   6.311   6.522 -2.2156 -0.7121 -0.2373
 2982SOL     OW 9844   2.595   6.154   4.486  0.1734 -0.5941 -0.0499
 2982SOL    HW1 9845   2.640   6.094   4.421 -0.1928 -0.8397 -0.0787
 2982SOL    HW2 9846   2.660   6.223   4.518  0.4575 -0.7018 -0.3881
 2983SOL     OW 9847   5.212   3.099   3.936  0.2885  0.4618 -0.0142
 2983SOL    HW1 9848   5.290   3.044   3.966  1.3990  1.1394 -1.4620
 2983SOL    HW2 9849   5.207   3.095   3.836 -2.6576 -0.9856  0.1071
 2984SOL     OW 9850   2.635   3.774   5.648  0.0025  0.2805 -0.0030
 2984SOL    HW1 9851   2.678   3.693   5.608 -1.2554  0.8998 -2.7851
 2984SOL    HW2 9852   2.539   3.756   5.667 -0.2169  1.0460 -0.3666
 2985SOL     OW 9853   1.767   6.887   1.620  0.3983 -0.1778 -0.4279
 2985SOL    HW1 9854   1.815   6.800   1.613  0.3143 -0.2329 -0.3296
 2985SOL    HW2 9855   1.817   6.948   1.681  0.7231  0.0243 -0.8897
 2986SOL     OW 9856   3.092   2.998   2.510  0.1608  0.0537  0.4402
 2986SOL    HW1 9857   3.024   3.071   2.518 -0.3184 -0.2736 -0.4263
 2986SOL    HW2 9858   3.077   2.950   2.424  2.0895  0.5736 -0.2310
 2987SOL     OW 9859   1.584   3.198   3.972  0.0762 -0.4723 -0.3623
 2987SOL    HW1 9860   1.578   3.239   4.063 -0.0281  2.3618 -1.5152
 2987SOL    HW2 9861   1.501   3.146   3.953 -1.0922  1.0759  0.2596
 2988SOL     OW 9862   4.129   1.632   2.276 -1.0954  0.2055 -0.0371
 2988SOL    HW1 9863   4.087   1.577   2.348 -1.8967  2.8613  1.6826
 2988SOL    HW2 9864   4.228   1.616   2.275 -1.4013 -1.8801 -0.2474
 2989SOL     OW 9865   5.897   2.694   0.691 -0.3992 -0.3645  0.5635
 2989SOL    HW1 9866   5.889   2.682   0.790  0.9477  0.4704  0.7943
 2989SOL    HW2 9867   5.964   2.766   0.671 -0.6510 -0.5209 -0.9575
 2990SOL     OW 9868   6.876   6.737   0.467  0.2092  0.1532 -0.5937
 2990SOL    HW1 9869   6.829   6.653   0.438 -1.6793  1.8089 -2.6494
 2990SOL    HW2 9870   6.837   6.769   0.553 -1.3999  0.6225 -1.4560
 2991SOL     OW 9871   6.118   5.989   1.501  0.4528 -0.4051  0.0045
 2991SOL    HW1 9872   6.114   5.889   1.499  3.0999 -0.5626 -1.7181
 2991SOL    HW2 9873   6.162   6.023   1.418  0.4853  2.1751  0.9746
 2992SOL     OW 9874   6.857   3.287   0.915  0.8461 -0.7181  0.1515
 2992SOL    HW1 9875   6.805   3.228   0.976  0.6439  1.1060  1.8381
 2992SOL    HW2 9876   6.939   3.319   0.962 -0.1307  2.0199  0.1322
 2993SOL     OW 9877   5.737   2.063   5.262  0.2393 -0.5668 -0.7690
 2993SOL    HW1 9878   5.664   2.127   5.237 -1.7124 -1.1524  2.7687
 2993SOL    HW2 9879   5.819   2.114   5.287 -1.3524  0.8145  2.2405
 2994SOL     OW 9880   4.789   1.398   2.914  0.2248 -0.4496  0.0854
 2994SOL    HW1 9881   4.694   1.418   2.887 -0.4573 -1.2355  1.7730
 2994SOL    HW2 9882   4.813   1.306   2.883 -0.0209 -0.7476  0.7624
 2995SOL     OW 9883   3.709   2.074   6.622  0.2924  0.1666  0.0462
 2995SOL    HW1 9884   3.779   2.025   6.673 -0.5525 -0.1126  0.9811
 2995SOL    HW2 9885   3.619   2.036   6.644 -0.0206 -0.7804 -2.6188
 2996SOL     OW 9886   2.433   2.363   4.253 -0.1515  0.4208 -0.2638
 2996SOL    HW1 9887   2.396   2.303   4.181  0.1879 -0.1284  0.0144
 2996SOL    HW2 9888   2.508   2.417   4.216 -0.7968  1.0726 -0.6588
 2997SOL     OW 9889   3.003   6.313   5.896 -0.5232  1.0139 -0.5977
 2997SOL    HW1 9890   2.971   6.359   5.813 -2.2828  0.5409 -0.2244
 2997SOL    HW2 9891   3.103   6.312   5.897 -0.4623  2.1212 -2.0914
 2998SOL     OW 9892   6.062   4.558   1.568  0.1076  0.0441  0.4944
 2998SOL    HW1 9893   5.973   4.594   1.540  0.8735  1.1848 -0.5886
 2998SOL    HW2 9894   6.051   4.465   1.602 -1.4133 -0.0616 -0.1889
 2999SOL     OW 9895   0.455   5.224   4.759  0.1464  0.2767 -0.0417
 2999SOL    HW1 9896   0.473   5.243   4.856 -3.1667  1.5342  0.4569
 2999SOL    HW2 9897   0.470   5.307   4.706  0.8933 -0.1169 -0.4638
 3000SOL     OW 9898   0.361   3.898   3.961  0.5740 -0.0290 -0.0723
 3000SOL    HW1 9899   0.307   3.961   4.016  0.5641  0.0874 -0.2156
 3000SOL    HW2 9900   0.368   3.932   3.867  2.0334  0.6851  0.2526
 3001SOL     OW 9901   6.131   3.117   4.456 -0.2829  0.2166 -0.5213
 3001SOL    HW1 9902   6.200   3.101   4.527 -0.3122 -0.1035 -0.5613
 3001SOL    HW2 9903   6.119   3.215   4.442 -0.4577  0.2834  0.0890
 3002SOL     OW 9904   3.671   3.973   2.360 -0.0192  0.2452 -0.6462
 3002SOL    HW1 9905   3.672   4.034   2.281 -1.3093  0.3182 -0.6289
 3002SOL    HW2 9906   3.612   3.894   2.341 -0.6563  0.4542  0.3620
 3003SOL     OW 9907   5.426   5.045   0.046  0.2631 -0.2278  0.0955
 3003SOL    HW1 9908   5.343   5.100   0.047  1.1342  1.1317  0.2444
 3003SOL    HW2 9909   5.487   5.075   0.119  1.4420 -0.2987 -0.8299
 3004SOL     OW 9910   6.784   1.110   3.128 -0.2564 -0.4143  0.3953
 3004SOL    HW1 9911   6.832   1.164   3.058 -1.6607 -0.2269 -0.4619
 3004SOL    HW2 9912   6.762   1.020   3.090 -3.5559  0.6414 -0.5408
 3005SOL     OW 9913   5.844   4.925   5.025  0.4470  0.2909  0.1931
 3005SOL    HW1 9914   5.889   4.937   5.113  2.9466 -0.0984 -0.9523
 3005SOL    HW2 9915   5.913   4.918   4.953 -1.5031  0.1197 -1.7575
 3006SOL     OW 9916   0.693   2.839   5.833 -0.0626  0.2317 -0.5971
 3006SOL    HW1 9917   0.773   2.836   5.773  0.2469 -0.5767 -0.1560
 3006SOL    HW2 9918   0.613   2.867   5.780  0.4960  1.0392 -1.0480
 3007SOL     OW 9919   2.734   4.829   1.870  0.0036 -0.0781  0.1145
 3007SOL    HW1 9920   2.767   4.758   1.933 -0.3642 -0.0007  0.3967
 3007SOL    HW2 9921   2.742   4.919   1.914 -1.5888 -0.1504  0.6186
 3008SOL     OW 9922   4.842   6.694   0.105 -0.1576 -0.0293 -0.3918
 3008SOL    HW1 9923   4.912   6.669   0.038  1.5534  1.6297  0.6905
 3008SOL    HW2 9924   4.816   6.789   0.093 -1.0319 -0.1673  0.2839
 3009SOL     OW 9925   4.609   6.191   3.986 -0.0674 -0.1383 -0.3097
 3009SOL    HW1 9926   4.654   6.130   3.921  0.2917  0.4684 -0.6378
 3009SOL    HW2 9927   4.576   6.138   4.064  1.5295 -0.5669  0.1107
 3010SOL     OW 9928   3.552   3.305   1.288  0.4309 -0.0113 -0.1437
 3010SOL    HW1 9929   3.647   3.284   1.312  0.7648  0.5489 -0.9326
 3010SOL    HW2 9930   3.524   3.246   1.212  0.4823  0.5102 -0.5709
 3011SOL     OW 9931   4.711   3.366   0.239 -0.3392 -0.1802 -0.5755
 3011SOL    HW1 9932   4.746   3.459   0.238 -1.4505  0.2605 -0.1995
 3011SOL    HW2 9933   4.785   3.302   0.217  1.6212  0.3821  3.4243
 3012SOL     OW 9934   0.171   4.443   3.654 -0.3898  0.0226  0.1907
 3012SOL    HW1 9935   0.189   4.352   3.617 -2.3538 -0.1065 -0.5607
 3012SOL    HW2 9936   0.246   4.470   3.715  1.5470 -0.9600 -1.6319
 3013SOL     OW 9937   3.760   6.425   6.279 -0.3120 -0.5025 -0.0791
 3013SOL    HW1 9938   3.687   6.372   6.238  0.7228 -0.8421 -1.5481
 3013SOL    HW2 9939   3.849   6.384   6.257  0.3722  0.3184  1.0192
 3014SOL     OW 9940   1.625   4.562   3.311 -0.3426 -0.0757  0.1209
 3014SOL    HW1 9941   1.691   4.586   3.240 -0.2610  1.7784  0.7492
 3014SOL    HW2 9942   1.660   4.591   3.400 -0.6339 -1.9491  0.8923
 3015SOL     OW 9943   1.424   1.022   6.665 -0.5195 -0.6043  0.0452
 3015SOL    HW1 9944   1.507   1.073   6.641  0.0369 -1.7603 -0.6452
 3015SOL    HW2 9945   1.369   1.075   6.729  0.4394  0.4689  0.0235
 3016SOL     OW 9946   4.916   1.870   3.484  0.3781 -0.3923 -0.1221
 3016SOL    HW1 9947   4.939   1.816   3.566  2.2705  0.5429  0.0150
 3016SOL    HW2 9948   4.974   1.842   3.409 -0.7101 -0.5846 -0.9180
 3017SOL     OW 9949   3.823   4.685   5.280  0.0642 -0.4404  0.2896
 3017SOL    HW1 9950   3.819   4.586   5.289 -1.5602 -0.3052  1.5664
 3017SOL    HW2 9951   3.732   4.724   5.297  0.9104  1.3369  1.0725
 3018SOL     OW 9952   3.164   2.770   0.401 -0.1532  0.2929  0.2739
 3018SOL    HW1 9953   3.094   2.749   0.470 -0.1172  1.3723  0.6495
 3018SOL    HW2 9954   3.137   2.851   0.350  0.7710  0.6649  0.3579
 3019SOL     OW 9955   6.659   2.484   5.116 -0.4851  0.7158 -0.1080
 3019SOL    HW1 9956   6.711   2.505   5.199  1.0699  0.5640 -1.0069
 3019SOL    HW2 9957   6.574   2.438   5.141  0.3705 -0.1368  1.3788
 3020SOL     OW 9958   0.681   3.454   6.022  0.1807  0.2819 -0.5691
 3020SOL    HW1 9959   0.687   3.355   6.037 -0.9135  0.3609  0.5300
 3020SOL    HW2 9960   0.683   3.473   5.924  1.7887 -0.7155 -0.7680
 3021SOL     OW 9961   0.407   4.233   3.485 -0.0610  0.5369  0.9091
 3021SOL    HW1 9962   0.429   4.297   3.411  2.0575 -1.1978 -0.0708
 3021SOL    HW2 9963   0.340   4.166   3.453 -0.9394  1.1678  1.3723
 3022SOL     OW 9964   3.613   0.727   4.581  0.1116 -0.2316  0.1629
 3022SOL    HW1 9965   3.586   0.783   4.659 -1.9419 -0.9674  0.0234
 3022SOL    HW2 9966   3.541   0.729   4.511 -0.2625 -3.3292  0.3408
 3023SOL     OW 9967   4.018   3.925   6.242 -0.5372  0.0276 -0.2948
 3023SOL    HW1 9968   4.107   3.902   6.282 -0.5544 -0.0429 -0.2972
 3023SOL    HW2 9969   3.956   3.957   6.314 -0.4869  0.1475 -0.3044
 3024SOL     OW 9970   2.974   4.309   6.860  0.4343  0.3478 -0.3478
 3024SOL    HW1 9971   3.036   4.232   6.874 -1.6958 -1.2752  0.6722
 3024SOL    HW2 9972   3.012   4.370   6.790  2.0451 -1.7862 -1.4446
 3025SOL     OW 9973   1.776   5.167   2.100 -0.7175  0.4922 -0.6762
 3025SOL    HW1 9974   1.827   5.138   2.181 -0.1473 -1.9277 -1.8276
 3025SOL    HW2 9975   1.838   5.177   2.023 -1.7787 -2.0453 -1.9936
 3026SOL     OW 9976   5.018   4.499   2.918 -0.0113  0.2538  0.2999
 3026SOL    HW1 9977   5.049   4.441   2.842  3.1406  1.3259  0.6006
 3026SOL    HW2 9978   4.987   4.441   2.993 -2.3613 -0.8398 -1.3906
 3027SOL     OW 9979   2.343   3.141   6.624 -0.5115  0.6025  0.2468
 3027SOL    HW1 9980   2.277   3.212   6.647 -1.0344 -0.0058  0.6687
 3027SOL    HW2 9981   2.346   3.072   6.697 -0.1589  0.0873 -0.2371
 3028SOL     OW 9982   1.779   3.703   6.900 -0.1956  0.2102 -0.8271
 3028SOL    HW1 9983   1.779   3.660   6.810 -0.2808 -0.1587 -0.6528
 3028SOL    HW2 9984   1.701   3.669   6.953  1.3389 -1.6369  0.3527
 3029SOL     OW 9985   3.910   1.760   6.581 -0.0742  0.4984  0.3128
 3029SOL    HW1 9986   3.885   1.707   6.662  1.1476 -0.4253  0.1129
 3029SOL    HW2 9987   3.981   1.711   6.530  0.4330  1.9084 -0.3808
 3030SOL     OW 9988   5.019   0.377   1.225 -0.0164 -0.6189  0.3186
 3030SOL    HW1 9989   4.969   0.416   1.303  0.5869  4.3551 -1.4253
 3030SOL    HW2 9990   5.115   0.400   1.232  0.1065 -0.3682 -1.7110
 3031SOL     OW 9991   6.037   1.221   6.508  0.2564  0.1771  0.6122
 3031SOL    HW1 9992   5.980   1.202   6.428 -0.4900  0.8682  0.9661
 3031SOL    HW2 9993   6.013   1.158   6.581  1.0086 -0.5214  0.2748
 3032SOL     OW 9994   1.920   3.842   6.046 -0.6614  0.0684  0.2773
 3032SOL    HW1 9995   1.893   3.920   5.989 -0.8162 -0.4479 -0.3715
 3032SOL    HW2 9996   1.889   3.757   6.003  1.9800 -0.5815 -0.5270
 3033SOL     OW 9997   1.555   4.812   0.666 -0.4705  0.0939 -0.8443
 3033SOL    HW1 9998   1.621   4.803   0.591 -2.6655  0.2871 -2.9375
 3033SOL    HW2 9999   1.593   4.870   0.738  1.9218 -0.5060 -1.5633
 3034SOL     OW10000   6.101   6.984   4.786 -0.0928 -0.1199 -0.0870
 3034SOL    HW110001   6.178   6.972   4.723  0.3402  1.3497  0.1312
 3034SOL    HW210002   6.025   7.027   4.737 -1.1654 -2.3847 -0.5429
 3035SOL     OW10003   3.893   5.986   0.958 -0.6161  0.3120 -0.5516
 3035SOL    HW110004   3.899   6.085   0.973 -0.2953  0.0977  0.8974
 3035SOL    HW210005   3.903   5.939   1.046  2.3112 -1.1450 -1.5378
 3036SOL     OW10006   0.698   4.038   6.752 -0.1488 -0.2078 -0.0168
 3036SOL    HW110007   0.681   4.073   6.844  0.7765 -0.1390  0.1372
 3036SOL    HW210008   0.637   4.084   6.687 -0.0139  0.5863  0.4010
 3037SOL     OW10009   2.703   2.333   5.485  0.0466 -0.2302 -0.6516
 3037SOL    HW110010   2.646   2.251   5.497  0.3411 -0.3416 -0.0168
 3037SOL    HW210011   2.792   2.318   5.526 -0.5253  1.1085  1.1822
 3038SOL     OW10012   3.354   3.342   1.715  0.2011  0.7669 -0.0645
 3038SOL    HW110013   3.338   3.343   1.813  1.6037 -0.4654  0.2213
 3038SOL    HW210014   3.364   3.247   1.684 -2.7652  0.9149 -1.8904
 3039SOL     OW10015   4.418   1.547   3.407  0.3498 -0.5623 -0.0659
 3039SOL    HW110016   4.502   1.529   3.458  1.3017  0.3511 -1.2636
 3039SOL    HW210017   4.384   1.638   3.429  0.0472 -0.6636 -0.1072
 3040SOL     OW10018   3.781   6.457   3.872  0.1201  0.5443  0.6503
 3040SOL    HW110019   3.862   6.404   3.849 -0.5949 -0.8060  1.1086
 3040SOL    HW210020   3.807   6.536   3.927  1.3282  1.3221 -0.9897
 3041SOL     OW10021   0.749   3.088   2.030 -0.7690  0.0199 -0.0791
 3041SOL    HW110022   0.830   3.082   2.089 -0.9147 -2.0084 -0.0369
 3041SOL    HW210023   0.689   3.160   2.064  0.0032  0.1073  1.1591
 3042SOL     OW10024   2.165   0.685   5.699 -0.3774  0.3722 -0.2182
 3042SOL    HW110025   2.099   0.625   5.653 -1.0190 -0.3773  1.6150
 3042SOL    HW210026   2.127   0.716   5.786  3.0208 -3.2756  2.9267
 3043SOL     OW10027   0.413   5.351   3.713 -0.3083 -0.0948  0.6937
 3043SOL    HW110028   0.401   5.438   3.667  0.5547 -0.5603 -0.4382
 3043SOL    HW210029   0.335   5.335   3.774 -1.6931  0.3439 -0.8998
 3044SOL     OW10030   0.788   5.918   0.389 -0.3842 -0.2368  0.6447
 3044SOL    HW110031   0.740   5.957   0.311  1.2019  1.8558  0.6413
 3044SOL    HW210032   0.724   5.904   0.464 -1.2959  0.9200  0.1039
 3045SOL     OW10033   1.076   1.715   6.298 -0.0873  0.4504 -0.1052
 3045SOL    HW110034   1.010   1.640   6.309 -0.3400  0.7611  0.5842
 3045SOL    HW210035   1.126   1.703   6.212  0.7748 -1.2139  0.5688
 3046SOL     OW10036   4.087   6.399   0.682  0.8068  0.2580  0.2729
 3046SOL    HW110037   4.010   6.463   0.685  1.2778  1.1187 -2.6903
 3046SOL    HW210038   4.146   6.421   0.604  2.7420 -1.8793  1.0146
 3047SOL     OW10039   5.246   5.126   5.930  0.6171 -0.0514  0.0068
 3047SOL    HW110040   5.168   5.188   5.927  1.7372  1.3737 -1.6676
 3047SOL    HW210041   5.264   5.091   5.839  2.2944  0.1416  0.2376
 3048SOL     OW10042   6.551   0.259   0.679  0.1206  0.6559 -0.0400
 3048SOL    HW110043   6.515   0.348   0.653  1.1467  0.7729 -1.1781
 3048SOL    HW210044   6.564   0.203   0.596  0.6329 -0.0980  0.5336
 3049SOL     OW10045   5.590   6.268   5.295 -0.0432 -0.0392  0.2782
 3049SOL    HW110046   5.572   6.261   5.197  0.3480  1.3196  0.0833
 3049SOL    HW210047   5.503   6.272   5.344 -0.3206  1.6702 -0.2530
 3050SOL     OW10048   1.128   4.426   2.483  0.0398 -0.0473 -0.4491
 3050SOL    HW110049   1.165   4.514   2.514  1.1261 -1.2620  1.9707
 3050SOL    HW210050   1.030   4.424   2.498  0.1849  0.3261  0.6728
 3051SOL     OW10051   1.384   4.276   1.013  0.1288 -0.7488  0.1127
 3051SOL    HW110052   1.328   4.348   1.053 -0.6919 -1.7738  0.8579
 3051SOL    HW210053   1.479   4.286   1.044 -0.0687 -0.2668  0.5725
 3052SOL     OW10054   3.966   2.608   5.962  0.2576  0.0242 -0.4158
 3052SOL    HW110055   3.926   2.696   5.936  2.5836  1.1595 -0.4001
 3052SOL    HW210056   3.934   2.583   6.054 -0.7754  0.5873 -0.6013
 3053SOL     OW10057   3.476   0.840   5.049  0.1909 -0.0270 -0.4138
 3053SOL    HW110058   3.511   0.909   5.113 -0.2983 -0.8891  0.8140
 3053SOL    HW210059   3.527   0.755   5.060 -0.5885 -0.5057 -0.4390
 3054SOL     OW10060   2.833   2.073   0.789  0.1364  0.7491  0.1763
 3054SOL    HW110061   2.872   2.160   0.758 -2.1339  1.4022 -1.0769
 3054SOL    HW210062   2.740   2.089   0.822  0.2322 -1.0001  1.3992
 3055SOL     OW10063   6.324   5.967   0.711  0.4357  0.2126  0.5679
 3055SOL    HW110064   6.383   6.047   0.718 -0.4186  1.1352 -1.7732
 3055SOL    HW210065   6.272   5.971   0.626  0.8495 -3.1850 -0.0113
 3056SOL     OW10066   4.897   2.603   6.608  0.3179  0.3348 -0.7376
 3056SOL    HW110067   4.884   2.548   6.691 -1.2056  0.2463 -1.0028
 3056SOL    HW210068   4.966   2.673   6.625 -1.1136  1.3748  1.1583
 3057SOL     OW10069   6.375   4.938   3.163  0.1818  0.5079  0.7406
 3057SOL    HW110070   6.295   4.882   3.188 -0.4078 -0.6091 -3.0417
 3057SOL    HW210071   6.344   5.026   3.128  0.4779 -0.0895 -1.1421
 3058SOL     OW10072   0.116   1.065   6.033 -0.1237  0.6204 -0.0587
 3058SOL    HW110073   0.052   1.038   6.104 -1.7063 -2.7316 -2.5211
 3058SOL    HW210074   0.082   1.148   5.987 -0.4719  1.2454  1.2835
 3059SOL     OW10075   3.836   6.642   1.740 -0.1568 -0.1204 -0.0229
 3059SOL    HW110076   3.809   6.692   1.822  3.0708  2.7878 -0.4715
 3059SOL    HW210077   3.922   6.594   1.758 -1.0562 -2.1648 -0.8673
 3060SOL     OW10078   5.988   5.906   1.943  0.4881 -0.6444  0.1072
 3060SOL    HW110079   6.055   5.937   1.876  1.9516 -0.4649  1.5831
 3060SOL    HW210080   5.992   5.806   1.952  0.3956 -0.6548  0.0316
 3061SOL     OW10081   4.768   2.784   6.061 -0.0237  0.1705  0.4491
 3061SOL    HW110082   4.808   2.867   6.098  1.1155 -0.6631  1.1719
 3061SOL    HW210083   4.688   2.757   6.115 -1.3991  1.6194 -0.7523
 3062SOL     OW10084   3.307   0.251   3.289 -0.3949  0.1435 -0.5755
 3062SOL    HW110085   3.374   0.321   3.312 -0.2888  0.4382 -1.6868
 3062SOL    HW210086   3.239   0.290   3.226 -1.8166 -0.0502  0.7879
 3063SOL     OW10087   0.189   4.695   6.840 -0.1008 -0.5795 -0.2253
 3063SOL    HW110088   0.284   4.711   6.869 -0.7241 -0.3550  1.8246
 3063SOL    HW210089   0.153   4.614   6.885 -1.1406 -0.2009 -0.3377
 3064SOL     OW10090   2.680   3.127   0.020 -0.1341  0.0318 -0.0972
 3064SOL    HW110091   2.720   3.038  -0.003 -0.8582 -0.1964 -0.5123
 3064SOL    HW210092   2.621   3.156  -0.054 -1.0835  0.1524  0.6866
 3065SOL     OW10093   2.700   4.988   1.005  0.0004  0.1381  0.3347
 3065SOL    HW110094   2.611   4.952   1.031 -0.6521  1.1002 -0.4851
 3065SOL    HW210095   2.690   5.047   0.925  1.2706  0.8012  0.6314
 3066SOL     OW10096   1.151   6.438   0.599  0.3234  0.2562 -0.1503
 3066SOL    HW110097   1.210   6.500   0.651  0.0559  2.0009 -1.7779
 3066SOL    HW210098   1.197   6.411   0.515 -0.3782 -0.0659 -0.4396
 3067SOL     OW10099   1.439   1.836   3.336 -0.4436  0.0396  0.1991
 3067SOL    HW110100   1.418   1.853   3.432  0.0807 -2.3954  0.8013
 3067SOL    HW210101   1.510   1.900   3.306 -2.1014  2.2804  0.7352
 3068SOL     OW10102   2.748   4.161   5.321 -0.3887 -0.6109  0.4758
 3068SOL    HW110103   2.686   4.123   5.390  0.1232  1.7474  2.3568
 3068SOL    HW210104   2.754   4.260   5.332  5.1201 -0.7937  1.6687
 3069SOL     OW10105   3.481   0.491   1.617 -0.0060  0.1989 -0.4479
 3069SOL    HW110106   3.385   0.461   1.609  0.0971 -0.0388 -0.8620
 3069SOL    HW210107   3.486   0.573   1.673 -0.5109  0.4928 -0.8286
 3070SOL     OW10108   0.280   5.277   3.451 -0.0296  0.3925 -0.0407
 3070SOL    HW110109   0.316   5.296   3.542 -2.3386 -1.3688  1.3730
 3070SOL    HW210110   0.255   5.363   3.407 -0.6276  1.2245  1.8085
 3071SOL     OW10111   3.417   6.553   0.083 -0.6746  0.0944 -0.0795
 3071SOL    HW110112   3.514   6.557   0.107 -0.2044 -0.0877 -1.8318
 3071SOL    HW210113   3.394   6.462   0.048 -1.2620  0.4108 -0.5397
 3072SOL     OW10114   0.564   0.209   2.483  0.5051  0.0583 -0.5114
 3072SOL    HW110115   0.626   0.216   2.405  1.1298 -0.1908 -0.0483
 3072SOL    HW210116   0.513   0.123   2.477 -0.1869  0.5010 -1.1665
 3073SOL     OW10117   6.745   6.482   3.088 -0.7789 -0.6612 -0.0878
 3073SOL    HW110118   6.665   6.477   3.146 -0.1788 -1.1290  0.7224
 3073SOL    HW210119   6.795   6.395   3.093  0.4685  0.0627  0.4432
 3074SOL     OW10120   5.425   0.367   3.738  0.4452  0.1422  0.1321
 3074SOL    HW110121   5.520   0.360   3.707  0.8887  1.6333  1.0148
 3074SOL    HW210122   5.381   0.445   3.693 -1.2552 -2.0289 -2.2877
 3075SOL     OW10123   7.009   6.241   2.311  0.1846 -0.7221 -0.1014
 3075SOL    HW110124   6.941   6.265   2.380 -0.1115  0.7693 -0.8608
 3075SOL    HW210125   7.093   6.208   2.356 -0.4348 -0.9621  0.9004
 3076SOL     OW10126   0.981   1.221   2.427  0.6177 -0.4049  0.8475
 3076SOL    HW110127   1.017   1.207   2.335 -0.3967 -0.1767  0.4093
 3076SOL    HW210128   1.056   1.210   2.493  1.0421 -2.1870  0.1320
 3077SOL     OW10129   6.800   3.951   6.397 -0.4511  0.1114  0.1953
 3077SOL    HW110130   6.777   3.872   6.340 -0.6731  2.2154 -2.8615
 3077SOL    HW210131   6.867   3.924   6.466 -0.3791 -2.6593 -0.8443
 3078SOL     OW10132   4.062   4.837   6.247  0.1330  0.2871 -0.8412
 3078SOL    HW110133   4.158   4.822   6.270 -0.1901  0.6358  0.8806
 3078SOL    HW210134   4.011   4.752   6.261  0.3195 -0.1975 -2.7551
 3079SOL     OW10135   1.154   0.208   6.339 -0.1537 -0.4393 -0.8021
 3079SOL    HW110136   1.061   0.244   6.328  0.0968  0.2386 -0.7820
 3079SOL    HW210137   1.151   0.124   6.393 -0.5399  0.7681  1.1707
 3080SOL     OW10138   0.993   3.818   5.191  0.2520 -0.1583  0.0708
 3080SOL    HW110139   1.000   3.865   5.102  2.7111  0.9187  0.7526
 3080SOL    HW210140   1.084   3.789   5.220 -0.3093  0.5597  2.7697
 3081SOL     OW10141   1.088   4.912   3.182  0.2798  0.1200  0.3833
 3081SOL    HW110142   1.081   5.003   3.221  0.5468  0.3301 -0.0419
 3081SOL    HW210143   1.006   4.892   3.128  0.1104  0.0091  0.6827
 3082SOL     OW10144   3.675   3.015   5.932 -0.1327 -0.9464  0.0360
 3082SOL    HW110145   3.714   3.059   6.012  2.0053 -0.4509 -1.1932
 3082SOL    HW210146   3.592   3.064   5.904  0.5983  0.5291  0.3850
 3083SOL     OW10147   6.843   2.672   1.548  0.4504 -0.2958  0.0729
 3083SOL    HW110148   6.781   2.593   1.551 -0.7388  0.6280  1.5115
 3083SOL    HW210149   6.896   2.675   1.633  0.4716  0.4453  0.0390
 3084SOL     OW10150   5.558   0.006   2.804  0.4280 -0.3057  0.2931
 3084SOL    HW110151   5.635   0.014   2.741  0.1553 -1.6823 -0.2477
 3084SOL    HW210152   5.519  -0.086   2.798 -0.6640  0.0660  1.2564
 3085SOL     OW10153   6.581   4.319   2.713 -0.0313  0.2652 -0.2687
 3085SOL    HW110154   6.576   4.243   2.778  0.3865  0.1739 -0.3384
 3085SOL    HW210155   6.639   4.391   2.751 -1.0836  0.9183  0.1596
 3086SOL     OW10156   2.026   1.671   3.777  0.2132 -0.1699 -0.0952
 3086SOL    HW110157   2.034   1.665   3.677  0.3773 -0.4337 -0.0670
 3086SOL    HW210158   2.067   1.756   3.809  0.9414 -0.4860 -0.1673
 3087SOL     OW10159   2.744   5.633   6.819  0.1854 -0.3862  0.1675
 3087SOL    HW110160   2.717   5.727   6.796 -0.3564 -0.4614  0.5090
 3087SOL    HW210161   2.837   5.634   6.857  0.7020 -0.1403 -1.0275
 3088SOL     OW10162   0.425   3.256   6.315  0.1739 -0.2406 -0.1919
 3088SOL    HW110163   0.408   3.355   6.318 -0.6053 -0.2458 -2.4947
 3088SOL    HW210164   0.481   3.235   6.235  0.4603 -1.6645  0.3586
 3089SOL     OW10165   1.925   0.175   2.655 -0.0424 -0.2098  0.1316
 3089SOL    HW110166   1.992   0.236   2.696  0.8439 -0.4029 -1.0010
 3089SOL    HW210167   1.971   0.108   2.597 -1.2392 -0.0438 -1.0604
 3090SOL     OW10168   0.839   0.300   5.724 -0.5440  0.1914  0.6265
 3090SOL    HW110169   0.822   0.357   5.804 -2.1599  0.7024 -0.0465
 3090SOL    HW210170   0.752   0.273   5.683  0.2138 -1.6374  0.1224
 3091SOL     OW10171   3.605   6.614   6.665  0.3438  0.2021 -0.2755
 3091SOL    HW110172   3.601   6.527   6.617 -0.5280  0.5598 -0.8662
 3091SOL    HW210173   3.682   6.668   6.630  1.9253 -0.9498  1.2227
 3092SOL     OW10174   2.952   3.203   1.924  0.0463  0.1772  0.1763
 3092SOL    HW110175   2.904   3.290   1.934 -0.5048 -0.1529  0.3769
 3092SOL    HW210176   2.908   3.149   1.852  1.3285  0.7040 -1.0629
 3093SOL     OW10177   1.822   5.706   0.415  0.2855 -0.0751 -0.2521
 3093SOL    HW110178   1.742   5.677   0.363 -0.3491 -1.8734  1.5620
 3093SOL    HW210179   1.904   5.663   0.377  0.0135 -0.3588 -0.5204
 3094SOL     OW10180   0.851   4.461   4.520 -0.5961 -0.4748 -0.2382
 3094SOL    HW110181   0.833   4.548   4.565  2.5149  0.2927 -0.2904
 3094SOL    HW210182   0.835   4.386   4.585  2.0061  0.5094  1.6953
 3095SOL     OW10183   0.533   1.440   6.436  0.6811 -0.4205 -0.0412
 3095SOL    HW110184   0.628   1.424   6.409  0.8717 -1.0652  0.9636
 3095SOL    HW210185   0.530   1.514   6.503  0.5237 -0.6702  0.2282
 3096SOL     OW10186   3.359   5.549   6.526  0.5095 -0.4601  0.2823
 3096SOL    HW110187   3.421   5.570   6.451  0.7100  2.0794  1.0796
 3096SOL    HW210188   3.412   5.519   6.605  0.8751  2.1048  1.0969
 3097SOL     OW10189   5.915   2.732   2.654  0.6168  0.0758  0.0483
 3097SOL    HW110190   5.837   2.708   2.597  1.5881 -2.1136 -0.4786
 3097SOL    HW210191   5.882   2.769   2.741 -0.9261  1.3625 -1.0331
 3098SOL     OW10192   0.253   3.442   0.930  0.2948  0.2591  0.1997
 3098SOL    HW110193   0.212   3.358   0.965 -1.0442  1.7903  2.5754
 3098SOL    HW210194   0.299   3.490   1.005  0.6324  1.8570 -0.9878
 3099SOL     OW10195   4.784   2.122   3.417  0.2221 -0.1610  0.4050
 3099SOL    HW110196   4.849   2.133   3.342  0.5879  0.7879  0.8434
 3099SOL    HW210197   4.811   2.045   3.474  0.0467 -0.7718 -0.3221
 3100SOL     OW10198   5.030   5.393   3.207  0.1799 -0.3567  0.1688
 3100SOL    HW110199   5.092   5.336   3.260 -0.8399 -2.2521 -0.5929
 3100SOL    HW210200   5.048   5.383   3.110 -1.3153 -1.0146 -0.0761
 3101SOL     OW10201   1.092   1.674   0.685  1.0854 -0.0694  0.1348
 3101SOL    HW110202   1.010   1.627   0.716  0.3288  0.4044 -1.0712
 3101SOL    HW210203   1.148   1.612   0.630  0.7566  0.0388 -0.3301
 3102SOL     OW10204   4.749   4.199   2.877 -0.5600 -0.3600 -0.0057
 3102SOL    HW110205   4.673   4.189   2.941 -1.9418  1.8419 -1.1873
 3102SOL    HW210206   4.823   4.252   2.920 -0.6489 -0.5616  0.3963
 3103SOL     OW10207   2.507   1.033   5.037  0.5081  0.0626  0.1999
 3103SOL    HW110208   2.591   0.982   5.057  0.2409  0.2071  1.8840
 3103SOL    HW210209   2.531   1.125   5.006  0.9707 -0.3347 -0.6471
 3104SOL     OW10210   2.682   2.495   1.406  0.2801 -0.2220  0.0086
 3104SOL    HW110211   2.775   2.482   1.373  0.5740  0.2573  0.6334
 3104SOL    HW210212   2.678   2.477   1.504  0.3270  2.4595  0.5708
 3105SOL     OW10213   4.243   6.522   2.327  0.3709 -0.3754  0.0957
 3105SOL    HW110214   4.174   6.561   2.266 -0.1198  1.3957  1.7121
 3105SOL    HW210215   4.249   6.423   2.310 -0.3561 -0.0914 -2.1692
 3106SOL     OW10216   5.840   2.553   5.837 -0.2600  0.2202 -0.1444
 3106SOL    HW110217   5.776   2.623   5.867 -1.8182 -0.7754 -0.9966
 3106SOL    HW210218   5.891   2.585   5.757  1.4554  1.5845  1.4190
 3107SOL     OW10219   6.186   0.189   1.740  0.6020  0.3979 -0.3316
 3107SOL    HW110220   6.237   0.225   1.819  0.3612  1.9544 -0.8410
 3107SOL    HW210221   6.246   0.129   1.687  1.1781  0.3615  0.3379
 3108SOL     OW10222   1.770   1.965   4.987  0.1988  0.3849  0.1360
 3108SOL    HW110223   1.861   1.999   4.966  0.0704 -0.1321 -1.3914
 3108SOL    HW210224   1.737   2.006   5.072  2.1591 -0.0259  1.1494
 3109SOL     OW10225   4.503   6.588   2.367  0.5610 -0.3184 -0.6455
 3109SOL    HW110226   4.410   6.553   2.354 -0.4219  1.9153 -0.1900
 3109SOL    HW210227   4.555   6.525   2.424 -1.1040 -1.0390  0.1346
 3110SOL     OW10228   5.068   6.766   6.043 -0.7199  0.2175 -0.3908
 3110SOL    HW110229   5.116   6.851   6.065  1.2179 -1.0614  0.6164
 3110SOL    HW210230   5.042   6.720   6.127  0.2403 -1.2252 -0.8425
 3111SOL     OW10231   6.240   1.052   5.742 -0.1187 -0.2544  0.3692
 3111SOL    HW110232   6.233   1.147   5.772  0.5576 -0.5030  1.3961
 3111SOL    HW210233   6.222   1.046   5.644 -1.6751  0.7109  0.5614
 3112SOL     OW10234   3.418   3.672   6.338 -0.0081 -0.6290  0.1230
 3112SOL    HW110235   3.426   3.746   6.272 -1.1026 -0.9428 -0.3814
 3112SOL    HW210236   3.387   3.708   6.426 -1.3492 -0.5697 -0.3500
 3113SOL     OW10237   4.235   3.612   1.225 -0.0538 -0.3108 -0.3743
 3113SOL    HW110238   4.315   3.663   1.256  0.8145 -2.4649  1.1640
 3113SOL    HW210239   4.243   3.517   1.253 -4.3409 -0.1942  2.2290
 3114SOL     OW10240   4.229   6.248   5.511  0.0293 -0.9577  0.1939
 3114SOL    HW110241   4.173   6.241   5.593  0.4699  0.8928  0.7011
 3114SOL    HW210242   4.174   6.285   5.436 -0.2812 -2.3193 -0.2701
 3115SOL     OW10243   1.431   0.194   2.146 -1.1014  0.5077  0.2710
 3115SOL    HW110244   1.470   0.130   2.213 -1.7187  0.0683  0.2116
 3115SOL    HW210245   1.504   0.252   2.111 -0.1748 -1.3114 -0.9810
 3116SOL     OW10246   2.216   5.754   6.964 -0.8365 -0.0008  0.0645
 3116SOL    HW110247   2.288   5.724   6.901 -0.2617  3.2724 -1.0325
 3116SOL    HW210248   2.257   5.786   7.049 -1.0684  0.8433 -0.1319
 3117SOL     OW10249   0.479   2.318   4.023  0.4483  0.6671  0.6349
 3117SOL    HW110250   0.481   2.352   4.118  0.9035  1.1552  0.4522
 3117SOL    HW210251   0.564   2.270   4.003 -0.0802 -0.3779  0.8026
 3118SOL     OW10252   4.412   2.406   3.345 -0.0658  0.0715  0.2195
 3118SOL    HW110253   4.407   2.406   3.246  0.0434 -0.7129  0.2064
 3118SOL    HW210254   4.507   2.394   3.374 -0.0570  0.6061  0.4229
 3119SOL     OW10255   5.731   2.649   1.804  0.5679 -0.0973  0.3073
 3119SOL    HW110256   5.817   2.639   1.755  0.1930  2.3409 -0.9846
 3119SOL    HW210257   5.655   2.638   1.741  0.0542  2.1797  0.4515
 3120SOL     OW10258   6.223   4.088   6.926 -0.1815  0.2838  0.2511
 3120SOL    HW110259   6.132   4.130   6.923 -1.1934 -1.5846  2.0390
 3120SOL    HW210260   6.230   4.021   6.852 -0.9039 -0.7011  1.0489
 3121SOL     OW10261   5.462   4.884   4.128  0.6332 -0.0267  0.7118
 3121SOL    HW110262   5.531   4.943   4.169  1.6638 -2.2399  2.3568
 3121SOL    HW210263   5.391   4.940   4.085  2.0011  2.3424  1.3772
 3122SOL     OW10264   6.215   6.734   3.789  0.2094 -0.2262  0.0801
 3122SOL    HW110265   6.275   6.801   3.832  0.1067 -0.9085  1.3594
 3122SOL    HW210266   6.249   6.642   3.808 -0.2969 -0.5766 -0.6520
 3123SOL     OW10267   0.485   5.890   6.691 -0.0498 -0.4701 -0.3675
 3123SOL    HW110268   0.473   5.922   6.785 -1.5810 -0.2222 -0.6326
 3123SOL    HW210269   0.405   5.914   6.637  0.8669 -0.4860 -1.7876
 3124SOL     OW10270   6.440   6.117   3.331  0.0483  0.4869  0.5422
 3124SOL    HW110271   6.388   6.101   3.248  0.7290  0.8766  0.0353
 3124SOL    HW210272   6.527   6.160   3.309 -0.0446  1.2115  1.5125
 3125SOL     OW10273   6.052   6.563   2.690 -0.0653  0.4462 -0.2594
 3125SOL    HW110274   6.146   6.586   2.666  0.8553 -1.6874  0.9409
 3125SOL    HW210275   6.004   6.645   2.721  1.7073  1.4246  0.0322
 3126SOL     OW10276   3.378   1.696   1.043 -0.0366 -0.4088 -0.4095
 3126SOL    HW110277   3.367   1.607   0.999 -1.5190 -0.4785  0.0586
 3126SOL    HW210278   3.357   1.688   1.140 -0.8379  0.5863 -0.4876
 3127SOL     OW10279   6.165   3.351   0.506  0.2391  0.3459 -0.3205
 3127SOL    HW110280   6.195   3.318   0.595 -0.1471  2.1898  0.5296
 3127SOL    HW210281   6.181   3.449   0.499 -0.1368  0.3249 -2.1300
 3128SOL     OW10282   6.336   2.811   3.254  0.7516 -0.1649 -0.2180
 3128SOL    HW110283   6.411   2.806   3.320  0.5729  2.5098  0.3014
 3128SOL    HW210284   6.270   2.739   3.275  2.4091 -1.6490  0.2309
 3129SOL     OW10285   0.144   4.944   3.981  0.0716 -0.2209 -0.0146
 3129SOL    HW110286   0.148   4.868   3.916 -2.3147 -0.1752 -0.2779
 3129SOL    HW210287   0.066   5.002   3.961 -0.2032  0.3423  2.3208
 3130SOL     OW10288   4.332   4.613   2.084 -0.3133  0.4466 -0.2216
 3130SOL    HW110289   4.246   4.595   2.131 -0.3348  2.2519  0.5114
 3130SOL    HW210290   4.399   4.650   2.150  0.9029 -0.5348 -0.8544
 3131SOL     OW10291   5.677   1.987   6.003  0.3965  0.0421 -0.2530
 3131SOL    HW110292   5.623   1.987   6.087 -1.9276  1.0649 -1.6622
 3131SOL    HW210293   5.669   1.898   5.958 -0.4746  0.3331 -0.6746
 3132SOL     OW10294   0.223   4.211   5.531  0.1453 -0.4406 -0.2250
 3132SOL    HW110295   0.285   4.144   5.490 -1.5462 -2.3479  0.2017
 3132SOL    HW210296   0.221   4.199   5.630  0.4185  0.8155 -0.0478
 3133SOL     OW10297   4.739   2.888   3.352  0.2020  0.0182 -0.3255
 3133SOL    HW110298   4.683   2.847   3.424 -0.3153 -0.6023 -1.0589
 3133SOL    HW210299   4.778   2.974   3.385  2.5005 -1.6727  1.7846
 3134SOL     OW10300   3.081   6.037   1.533 -0.3968 -0.2143  0.2062
 3134SOL    HW110301   3.115   5.956   1.581  0.2987  0.0105  0.1012
 3134SOL    HW210302   3.118   6.120   1.576 -0.7567  0.0294  0.0461
 3135SOL     OW10303   4.414   5.763   6.774 -0.3024 -0.0548  0.1900
 3135SOL    HW110304   4.454   5.847   6.738 -0.2245 -1.0841 -2.2920
 3135SOL    HW210305   4.487   5.701   6.805 -0.2111 -0.1816 -0.2727
 3136SOL     OW10306   6.072   5.101   2.039  0.4445 -0.2337 -0.9743
 3136SOL    HW110307   6.135   5.029   2.068  2.3471  0.9209 -2.0295
 3136SOL    HW210308   6.066   5.102   1.939  1.0754  1.5138 -1.0375
 3137SOL     OW10309   1.578   6.109   2.422  0.0443 -0.3065  0.6296
 3137SOL    HW110310   1.539   6.197   2.449 -0.0056  0.5739 -2.0047
 3137SOL    HW210311   1.541   6.037   2.479 -1.0833  1.1928  1.8726
 3138SOL     OW10312   1.735   0.995   6.471 -0.7057 -0.0042  0.1060
 3138SOL    HW110313   1.771   1.049   6.395  1.6282 -1.3363  0.1660
 3138SOL    HW210314   1.811   0.955   6.522 -2.2796 -1.7774  1.1956
 3139SOL     OW10315   4.424   6.574   3.569 -0.2237 -0.4013 -0.2423
 3139SOL    HW110316   4.428   6.486   3.616  2.9324  0.5637  1.6897
 3139SOL    HW210317   4.497   6.579   3.501  1.5263  1.4869  1.5703
 3140SOL     OW10318   0.766   5.641   1.270  0.1501  0.4953 -0.1044
 3140SOL    HW110319   0.674   5.657   1.234 -0.2459 -1.1243  0.0910
 3140SOL    HW210320   0.825   5.717   1.246 -0.9769  1.0721 -1.1519
 3141SOL     OW10321   1.829   3.681   2.766 -0.4771 -0.5226 -0.1741
 3141SOL    HW110322   1.777   3.748   2.819 -0.5448 -1.0809  0.4765
 3141SOL    HW210323   1.796   3.681   2.671  0.5823  1.4538 -0.5869
 3142SOL     OW10324   3.460   2.066   3.098  0.5649 -0.4802  0.1432
 3142SOL    HW110325   3.541   2.115   3.130  0.2556  0.1532 -0.0326
 3142SOL    HW210326   3.479   2.027   3.007  0.6894 -0.3723  0.1226
 3143SOL     OW10327   0.687   2.718   6.395 -0.5924  0.7322  0.7498
 3143SOL    HW110328   0.743   2.663   6.457  0.2689  1.5220  0.6853
 3143SOL    HW210329   0.665   2.664   6.313  1.2398  0.8585  0.1361
 3144SOL     OW10330   1.937   6.879   0.959 -0.2504 -0.2650 -1.1885
 3144SOL    HW110331   2.025   6.862   1.003 -0.5318 -0.2848 -0.6256
 3144SOL    HW210332   1.948   6.948   0.887  0.6742 -1.9146 -2.6883
 3145SOL     OW10333   1.857   2.528   6.332 -0.1107  0.1299  0.0155
 3145SOL    HW110334   1.949   2.556   6.360  1.0150 -2.8421 -0.2882
 3145SOL    HW210335   1.853   2.526   6.232 -0.4502  0.1195  0.0296
 3146SOL     OW10336   3.581   0.868   3.450 -0.3253  0.0850 -0.2861
 3146SOL    HW110337   3.562   0.816   3.533 -0.4466  1.5546  0.6381
 3146SOL    HW210338   3.649   0.938   3.469  0.8288 -0.5439 -1.8406
 3147SOL     OW10339   5.349   6.362   2.157 -0.4081  0.1553 -0.2971
 3147SOL    HW110340   5.263   6.366   2.105  0.2107  0.1963 -1.3431
 3147SOL    HW210341   5.364   6.448   2.205 -0.5883  0.4111 -0.7009
 3148SOL     OW10342   4.768   2.280   5.458  0.6843 -0.2725 -0.6664
 3148SOL    HW110343   4.759   2.311   5.364  0.3305 -2.2143 -1.3235
 3148SOL    HW210344   4.762   2.180   5.461 -1.6786 -0.1864  1.6684
 3149SOL     OW10345   4.973   6.464   2.426  0.9192  0.7279 -0.0859
 3149SOL    HW110346   4.930   6.399   2.364 -0.7439  1.7979 -0.1056
 3149SOL    HW210347   5.070   6.440   2.438  1.0353 -0.0721 -2.2894
 3150SOL     OW10348   4.144   6.688   3.206 -0.0514 -0.0929 -0.1007
 3150SOL    HW110349   4.230   6.729   3.238 -0.0556  1.3500 -1.7744
 3150SOL    HW210350   4.068   6.747   3.232 -0.2858 -0.1436 -0.6638
 3151SOL     OW10351   4.769   1.523   4.553 -0.6643 -0.2338  0.5339
 3151SOL    HW110352   4.772   1.453   4.481  1.0146 -1.4092  1.6683
 3151SOL    HW210353   4.764   1.478   4.642  0.7464  1.0822  1.3084
 3152SOL     OW10354   3.557   1.174   3.050  0.0632 -0.3862 -0.2041
 3152SOL    HW110355   3.555   1.184   3.150 -0.0045  0.3589 -0.2773
 3152SOL    HW210356   3.627   1.106   3.025 -0.5598 -1.2741  0.3955
 3153SOL     OW10357   0.628   4.039   1.867  0.0928  0.5903  0.4908
 3153SOL    HW110358   0.624   4.127   1.915 -0.2272  0.4342  0.7572
 3153SOL    HW210359   0.632   4.055   1.769  1.7619  0.9452  0.5797
 3154SOL     OW10360   0.346   4.445   3.019 -0.6428  0.5540  0.3094
 3154SOL    HW110361   0.338   4.460   3.117 -1.7228  0.2440  0.2829
 3154SOL    HW210362   0.276   4.499   2.971  0.3622  1.3054 -0.3587
 3155SOL     OW10363   2.759   5.613   4.003  0.2567  0.0825 -0.0875
 3155SOL    HW110364   2.758   5.538   3.937 -0.7525 -0.3824  0.4254
 3155SOL    HW210365   2.827   5.681   3.976  0.1019 -0.2585 -1.4065
 3156SOL     OW10366   3.179   6.965   3.901  0.2184  0.1813 -0.2896
 3156SOL    HW110367   3.256   6.947   3.841  1.1098  0.5785  0.7132
 3156SOL    HW210368   3.096   6.979   3.846  0.4649 -1.9748 -1.3064
 3157SOL     OW10369   2.407   2.047   4.358  0.5664 -0.2992  0.2612
 3157SOL    HW110370   2.469   2.072   4.432  0.1737  2.9775 -0.3659
 3157SOL    HW210371   2.329   2.110   4.357  0.3414 -0.4918 -2.6547
 3158SOL     OW10372   0.107   4.508   3.208  0.0092 -0.0180 -0.3661
 3158SOL    HW110373   0.142   4.601   3.221 -1.6703  0.5348  0.4971
 3158SOL    HW210374   0.042   4.507   3.133 -1.1289 -0.1362  0.5884
 3159SOL     OW10375   5.282   5.275   2.085 -0.0187 -0.0881  0.4912
 3159SOL    HW110376   5.335   5.220   2.020  0.4572  1.7849 -0.8051
 3159SOL    HW210377   5.213   5.327   2.036 -0.9703 -0.1081  1.7723
 3160SOL     OW10378   2.497   0.931   4.336 -0.4088  0.0069  0.5497
 3160SOL    HW110379   2.446   0.866   4.391 -2.6970  2.4575  1.5322
 3160SOL    HW210380   2.455   0.939   4.245  2.1278 -2.5061 -1.0076
 3161SOL     OW10381   3.634   4.057   4.002  0.0869  1.3232  0.5826
 3161SOL    HW110382   3.654   3.960   4.021 -0.7492  1.2181  0.9405
 3161SOL    HW210383   3.638   4.073   3.904 -0.3223  0.7961  0.4756
 3162SOL     OW10384   2.020   4.995   4.102  0.0501 -0.5545 -0.2762
 3162SOL    HW110385   2.076   5.001   4.019 -1.3649 -0.4266 -1.2731
 3162SOL    HW210386   2.048   5.067   4.166 -0.0234  0.5483 -1.4310
 3163SOL     OW10387   5.594   3.681   0.491  0.2190  0.0032 -0.6195
 3163SOL    HW110388   5.622   3.603   0.547 -0.0612  0.6183  0.4013
 3163SOL    HW210389   5.525   3.651   0.425 -1.6256 -0.2066  1.2712
 3164SOL     OW10390   1.074   6.875   2.297  0.3870 -0.0358  0.7178
 3164SOL    HW110391   1.045   6.969   2.314  0.3487 -0.1949  1.5649
 3164SOL    HW210392   1.168   6.874   2.263 -0.0112  0.3739 -0.4408
 3165SOL     OW10393   2.100   1.543   4.407 -0.3100  0.0007  0.1726
 3165SOL    HW110394   2.143   1.471   4.461 -0.7657  0.6714  1.4845
 3165SOL    HW210395   2.158   1.566   4.329  0.5077 -0.8019  0.5338
 3166SOL     OW10396   6.090   4.196   3.573 -0.4085 -0.1731 -0.1734
 3166SOL    HW110397   6.120   4.105   3.544 -0.7461  0.0134 -1.1765
 3166SOL    HW210398   6.122   4.214   3.666 -0.5294 -1.4015  0.1303
 3167SOL     OW10399   0.089   4.848   4.639  0.2271 -0.1804  0.3781
 3167SOL    HW110400   0.159   4.919   4.633 -1.1454  1.2906  1.1532
 3167SOL    HW210401   0.034   4.848   4.555 -0.4612  0.4420  0.8178
 3168SOL     OW10402   4.142   4.169   6.402  0.2026  0.3207  0.2346
 3168SOL    HW110403   4.086   4.093   6.369  1.4256 -0.1669 -0.8362
 3168SOL    HW210404   4.090   4.254   6.397 -1.2933 -0.4566  1.7371
 3169SOL     OW10405   0.756   6.248   5.143  0.0505 -0.3716 -0.5143
 3169SOL    HW110406   0.685   6.267   5.210  0.5728  0.9814 -0.3236
 3169SOL    HW210407   0.719   6.190   5.070 -0.2923 -2.6871  1.3724
 3170SOL     OW10408   0.339   3.521   0.462  0.2735 -0.1084 -0.0491
 3170SOL    HW110409   0.305   3.515   0.556 -0.8939  0.0644 -0.4420
 3170SOL    HW210410   0.312   3.439   0.412 -1.8314  1.0933 -1.0538
 3171SOL     OW10411   5.103   5.800   5.465  0.3198 -0.4786 -0.2981
 3171SOL    HW110412   5.098   5.832   5.560  0.2761 -1.6805  0.1278
 3171SOL    HW210413   5.158   5.864   5.411 -1.4060  1.3735  0.0067
 3172SOL     OW10414   6.970   0.136   2.178 -0.6561 -0.4387  0.3043
 3172SOL    HW110415   7.063   0.153   2.209 -0.1025 -1.1850 -0.8727
 3172SOL    HW210416   6.911   0.116   2.256  0.2731 -0.3944  1.0191
 3173SOL     OW10417   1.411   1.763   6.339 -0.2443 -0.0269  0.0053
 3173SOL    HW110418   1.505   1.754   6.371 -0.2990 -0.7945 -0.0312
 3173SOL    HW210419   1.366   1.838   6.387 -0.0080 -0.4835  0.9587
 3174SOL     OW10420   1.926   3.725   1.993  0.1298  0.3967 -0.1896
 3174SOL    HW110421   2.001   3.697   2.053 -1.7914  0.1569  2.2945
 3174SOL    HW210422   1.893   3.815   2.020 -1.6030 -0.2552  0.0353
 3175SOL     OW10423   0.255   0.397   5.889  0.3718 -0.5400 -0.2224
 3175SOL    HW110424   0.267   0.422   5.985  1.1379  1.1512 -0.7205
 3175SOL    HW210425   0.282   0.473   5.831  0.7145 -1.8194 -1.8250
 3176SOL     OW10426   1.483   4.548   1.775  0.1582 -0.1742  0.2802
 3176SOL    HW110427   1.460   4.495   1.856  1.0955  0.1283  0.7565
 3176SOL    HW210428   1.509   4.641   1.801 -0.7626  0.3169 -0.4849
 3177SOL     OW10429   5.098   2.388   0.577  0.3190  0.2279  0.0076
 3177SOL    HW110430   5.191   2.360   0.600  0.4850 -2.0502 -2.7774
 3177SOL    HW210431   5.101   2.449   0.497 -0.5616  0.0010 -0.2069
 3178SOL     OW10432   0.806   1.992   1.222  0.0608  0.0990  0.4011
 3178SOL    HW110433   0.808   2.091   1.208  1.2548 -0.1238 -1.3128
 3178SOL    HW210434   0.735   1.951   1.165  1.4555 -0.2862 -1.1303
 3179SOL     OW10435   1.190   1.001   0.981  0.7569  0.2235  0.0940
 3179SOL    HW110436   1.231   1.051   0.904  0.6831  2.6614  1.5292
 3179SOL    HW210437   1.232   0.910   0.987  0.9371  0.0236 -2.6251
 3180SOL     OW10438   6.314   2.776   1.557  0.6336  0.4799  0.3854
 3180SOL    HW110439   6.398   2.798   1.507  0.7834  0.6793  0.7259
 3180SOL    HW210440   6.310   2.829   1.641  0.0050  0.7148  0.2120
 3181SOL     OW10441   5.175   6.666   1.443  0.3194 -0.3102  0.4521
 3181SOL    HW110442   5.233   6.586   1.429 -0.6116 -0.7708 -1.0567
 3181SOL    HW210443   5.109   6.648   1.516  1.3789 -0.1622  1.4663
 3182SOL     OW10444   1.024   2.455   2.859  0.6070 -0.3818 -0.4792
 3182SOL    HW110445   0.934   2.488   2.830  0.4214  0.4147  0.9070
 3182SOL    HW210446   1.013   2.382   2.926  0.8979  1.1940  1.3847
 3183SOL     OW10447   2.026   4.231   6.046 -0.1366 -0.0685 -0.2978
 3183SOL    HW110448   2.034   4.225   5.946 -3.8827 -0.9230 -0.7099
 3183SOL    HW210449   1.994   4.322   6.071 -1.5064 -0.5421 -0.2028
 3184SOL     OW10450   3.211   2.179   4.339  0.2678  0.1672  0.2507
 3184SOL    HW110451   3.140   2.152   4.403  1.1067 -0.2325  1.0310
 3184SOL    HW210452   3.170   2.230   4.263 -1.2091 -2.2527 -0.6818
 3185SOL     OW10453   4.673   5.802   6.092 -0.2678 -0.1156  0.9409
 3185SOL    HW110454   4.634   5.859   6.164  1.2730 -1.3816  2.8801
 3185SOL    HW210455   4.772   5.797   6.104  0.1353  0.1376 -1.7078
 3186SOL     OW10456   6.447   3.898   0.763 -0.0506 -0.7211 -0.6436
 3186SOL    HW110457   6.357   3.871   0.728 -0.6062  1.0331 -0.6656
 3186SOL    HW210458   6.518   3.855   0.708 -0.8315 -2.9077 -0.0315
 3187SOL     OW10459   0.066   5.941   1.243 -0.2728  0.1310  0.1987
 3187SOL    HW110460   0.149   5.971   1.197  0.0286 -0.9939 -0.0293
 3187SOL    HW210461  -0.011   5.996   1.212  0.1430  0.2336 -0.6926
 3188SOL     OW10462   5.705   3.689   1.851  0.0231 -0.7782  0.5311
 3188SOL    HW110463   5.642   3.612   1.838  0.2538 -0.6462 -2.0262
 3188SOL    HW210464   5.771   3.667   1.923 -3.1039 -0.7153  3.6530
 3189SOL     OW10465   2.719   0.396   2.881 -0.5698  0.2313 -0.4709
 3189SOL    HW110466   2.754   0.414   2.789  1.5333  0.7824  0.3813
 3189SOL    HW210467   2.741   0.302   2.908  1.2653  0.8708  0.4366
 3190SOL     OW10468   6.496   2.011   5.659  0.2415 -0.0824  0.1350
 3190SOL    HW110469   6.555   1.987   5.582 -0.3411 -0.4203 -0.2060
 3190SOL    HW210470   6.467   1.928   5.706 -0.3370  0.0548  0.0236
 3191SOL     OW10471   0.505   2.637   6.693 -0.2463 -0.6295 -0.5315
 3191SOL    HW110472   0.600   2.626   6.664  0.4204 -0.4547  1.4524
 3191SOL    HW210473   0.473   2.729   6.671 -0.1842 -0.8896 -1.7703
 3192SOL     OW10474   6.903   2.652   4.649 -0.1750 -0.5198  1.1446
 3192SOL    HW110475   6.836   2.578   4.652  1.2974 -2.1515 -1.6620
 3192SOL    HW210476   6.992   2.618   4.681  0.5282 -0.0501 -0.2030
 3193SOL     OW10477   2.775   6.001   5.195  0.0069 -0.0540 -0.2247
 3193SOL    HW110478   2.712   6.030   5.266  0.9401  1.7644 -0.0829
 3193SOL    HW210479   2.813   5.911   5.218 -0.8215 -0.1614  0.7924
 3194SOL     OW10480   6.842   0.221   3.568  0.2986 -0.2415 -0.0562
 3194SOL    HW110481   6.871   0.296   3.508  0.3241  0.5495  0.9256
 3194SOL    HW210482   6.777   0.163   3.519  0.9212 -0.0729 -1.1143
 3195SOL     OW10483   2.319   5.328   3.969  0.0651  0.0952 -0.4960
 3195SOL    HW110484   2.286   5.422   3.965 -1.2035 -0.2756  0.7130
 3195SOL    HW210485   2.404   5.324   4.022  0.2295  0.5785 -0.7210
 3196SOL     OW10486   0.241   1.717   1.933  0.0371 -0.1929  0.1101
 3196SOL    HW110487   0.203   1.710   1.840  1.2608 -0.1736 -0.4081
 3196SOL    HW210488   0.279   1.809   1.947  0.5399 -0.4363  0.3603
 3197SOL     OW10489   6.748   3.355   1.331  0.5439 -0.0055 -0.1818
 3197SOL    HW110490   6.664   3.303   1.313  0.4114 -0.2551  1.0756
 3197SOL    HW210491   6.775   3.404   1.248 -0.6948 -0.1322 -0.6797
 3198SOL     OW10492   2.409   4.725   2.656 -0.5656 -0.3556 -0.0329
 3198SOL    HW110493   2.335   4.693   2.715 -0.2085  1.0406  1.2616
 3198SOL    HW210494   2.491   4.669   2.672 -1.1263 -1.4613 -0.9556
 3199SOL     OW10495   5.322   2.976   1.225 -0.3343  0.2349 -0.3194
 3199SOL    HW110496   5.322   3.052   1.290 -0.7900  0.1603 -0.2261
 3199SOL    HW210497   5.323   2.889   1.274 -2.6570  0.1418 -0.3251
 3200SOL     OW10498   6.037   3.266   6.621 -0.3970 -0.1874 -0.4223
 3200SOL    HW110499   5.971   3.302   6.686 -0.1816  1.1377 -0.9104
 3200SOL    HW210500   5.994   3.254   6.532  0.0129  0.7090 -0.7496
 3201SOL     OW10501   1.820   3.870   2.308  0.5799 -0.0697  0.1666
 3201SOL    HW110502   1.811   3.773   2.333  0.1266 -0.2619 -0.6884
 3201SOL    HW210503   1.801   3.880   2.210  0.2830  0.9319  0.3198
 3202SOL     OW10504   1.843   2.419   2.543  0.1090 -0.1849 -0.2725
 3202SOL    HW110505   1.825   2.382   2.634 -1.1452 -0.4780 -0.6098
 3202SOL    HW210506   1.831   2.347   2.475 -0.4981  0.3822 -0.7849
 3203SOL     OW10507   2.315   3.427   1.294 -0.0544 -0.1540  0.1821
 3203SOL    HW110508   2.401   3.385   1.265 -0.4121  0.1577 -1.4007
 3203SOL    HW210509   2.309   3.520   1.257  0.4077  1.1289  3.0274
 3204SOL     OW10510   5.884   2.397   1.424  0.0400 -0.4735  0.1850
 3204SOL    HW110511   5.821   2.467   1.390 -0.4325 -1.1748 -0.4119
 3204SOL    HW210512   5.857   2.368   1.516  0.8530  0.8577  0.8825
 3205SOL     OW10513   4.740   0.604   3.737  0.1009  0.1988 -0.1402
 3205SOL    HW110514   4.709   0.642   3.824  2.0661  1.2157  0.1861
 3205SOL    HW210515   4.751   0.505   3.747 -2.8371 -0.2324 -0.2938
 3206SOL     OW10516   1.752   4.766   1.612  0.3487  0.2644 -0.2477
 3206SOL    HW110517   1.832   4.767   1.672  0.9216 -0.1879 -0.9929
 3206SOL    HW210518   1.755   4.686   1.553 -1.4169 -0.5449  0.7008
 3207SOL     OW10519   5.437   0.754   4.772 -0.3323 -0.5479  0.1665
 3207SOL    HW110520   5.393   0.742   4.683 -0.4164  1.9098 -0.1757
 3207SOL    HW210521   5.383   0.817   4.828  1.3413  0.4463  0.7392
 3208SOL     OW10522   0.099   1.726   1.664  0.0360  0.6791  0.1043
 3208SOL    HW110523   0.169   1.796   1.647 -0.2891  0.6115 -1.6565
 3208SOL    HW210524   0.019   1.744   1.607  0.7574 -2.2748 -2.1365
 3209SOL     OW10525   2.140   5.161   1.322  0.2848  0.5435  0.4034
 3209SOL    HW110526   2.222   5.110   1.295 -0.6106 -0.5572 -0.3645
 3209SOL    HW210527   2.140   5.250   1.277  0.8964  0.4104  0.1276
 3210SOL     OW10528   4.448   2.650   0.176 -0.2252  0.2491 -0.3070
 3210SOL    HW110529   4.486   2.645   0.083 -0.4394 -3.0125 -0.3439
 3210SOL    HW210530   4.517   2.617   0.241 -0.7543  0.6385  0.4597
 3211SOL     OW10531   2.553   1.508   6.144 -0.6213 -0.5326  0.4759
 3211SOL    HW110532   2.541   1.582   6.078  0.7093  0.0512  0.8496
 3211SOL    HW210533   2.605   1.434   6.103 -0.2539 -0.4020  0.7042
 3212SOL     OW10534   0.649   6.125   0.833 -0.2762  0.2052 -0.2670
 3212SOL    HW110535   0.635   6.223   0.847 -0.8489  0.1021 -0.0887
 3212SOL    HW210536   0.710   6.090   0.904 -0.0845  0.4247 -0.3192
 3213SOL     OW10537   1.375   5.930   5.967  0.3968 -0.1554  0.0936
 3213SOL    HW110538   1.424   5.847   5.941 -0.3860 -0.2436 -1.1439
 3213SOL    HW210539   1.423   6.010   5.929  1.5981  0.0680  1.9381
 3214SOL     OW10540   0.443   2.621   3.603  0.3098 -0.0425  0.2693
 3214SOL    HW110541   0.351   2.584   3.610  0.7249 -0.9118  1.3887
 3214SOL    HW210542   0.489   2.582   3.523 -0.1783  0.1603 -0.1148
 3215SOL     OW10543   0.278   5.890   4.406  0.1597  0.8060 -0.1465
 3215SOL    HW110544   0.335   5.858   4.481 -0.6842  0.2181  0.2674
 3215SOL    HW210545   0.312   5.853   4.320  1.5574  2.0637 -0.1662
 3216SOL     OW10546   5.847   0.967   3.093  0.0379  0.0852  0.4158
 3216SOL    HW110547   5.894   0.997   3.010 -1.3068 -0.2326 -0.4895
 3216SOL    HW210548   5.859   0.869   3.106 -0.6724 -0.0726 -0.0423
 3217SOL     OW10549   3.963   2.627   0.136 -0.5404  0.1183  0.5067
 3217SOL    HW110550   3.945   2.529   0.123  0.3882  0.3096 -3.8302
 3217SOL    HW210551   3.877   2.677   0.125 -0.4718 -0.0805 -1.4365
 3218SOL     OW10552   1.908   3.943   4.364 -0.0414  0.2015  0.3040
 3218SOL    HW110553   1.892   3.978   4.456 -0.0724 -1.8435  1.1237
 3218SOL    HW210554   1.824   3.948   4.311 -0.7592 -1.0611  1.2781
 3219SOL     OW10555   6.978   3.353   6.272 -0.2047 -0.4427 -0.4109
 3219SOL    HW110556   6.925   3.323   6.193  0.6014 -0.2231 -1.0508
 3219SOL    HW210557   6.975   3.453   6.277 -1.8182 -0.5083  0.9633
 3220SOL     OW10558   5.019   0.316   3.640  0.7856 -0.4527  0.1005
 3220SOL    HW110559   5.041   0.413   3.650  0.2164 -0.3508  0.4167
 3220SOL    HW210560   5.097   0.268   3.601  1.1516  0.0946  0.1481
 3221SOL     OW10561   1.998   2.884   5.035 -0.3660  0.0123  0.1654
 3221SOL    HW110562   2.001   2.788   5.064 -1.9762  0.5808  2.5623
 3221SOL    HW210563   2.029   2.942   5.111 -1.9983  1.5011 -0.2568
 3222SOL     OW10564   2.127   3.456   1.489 -0.5947 -0.4020  0.3382
 3222SOL    HW110565   2.038   3.442   1.446 -0.0994 -1.8300 -0.2716
 3222SOL    HW210566   2.198   3.462   1.419  0.0523 -1.4466  0.8687
 3223SOL     OW10567   6.228   1.278   0.244  0.2664 -0.1446 -0.0746
 3223SOL    HW110568   6.219   1.302   0.147 -1.4467  1.6412  0.4811
 3223SOL    HW210569   6.288   1.198   0.252 -1.4998 -1.9392 -2.8191
 3224SOL     OW10570   0.040   4.621   5.320  0.0960  0.2374 -0.2856
 3224SOL    HW110571   0.001   4.684   5.253  2.4927  0.3422 -1.7266
 3224SOL    HW210572   0.126   4.584   5.284  1.3648  0.0732  2.6529
 3225SOL     OW10573   3.669   5.865   6.010  1.0316 -0.2864  0.1678
 3225SOL    HW110574   3.634   5.900   5.924 -1.8835  0.7890  1.6579
 3225SOL    HW210575   3.613   5.788   6.040  1.5591 -0.2087  1.4228
 3226SOL     OW10576   5.360   1.480   2.886 -0.6782 -0.1337  0.3051
 3226SOL    HW110577   5.438   1.514   2.940 -0.3563 -0.9423  0.3601
 3226SOL    HW210578   5.323   1.555   2.831  0.4520  0.1625 -0.0958
 3227SOL     OW10579   5.104   3.526   6.034 -0.3758  0.3782 -0.0865
 3227SOL    HW110580   5.057   3.606   5.996 -0.5543  0.1041 -0.4433
 3227SOL    HW210581   5.115   3.457   5.964  0.7686  0.5163 -0.0608
 3228SOL     OW10582   2.487   1.116   2.046 -0.1061  0.6454  0.0709
 3228SOL    HW110583   2.524   1.063   1.970 -2.4090 -3.6092  1.5507
 3228SOL    HW210584   2.401   1.159   2.019 -0.6949 -0.4933  0.0548
 3229SOL     OW10585   1.629   2.254   4.637 -0.5809  0.0607 -0.4949
 3229SOL    HW110586   1.642   2.180   4.571 -0.7497 -2.1801  1.8271
 3229SOL    HW210587   1.718   2.278   4.677 -0.6825  0.3026 -0.4158
 3230SOL     OW10588   5.039   3.482   1.351 -0.2096  0.2737  0.3115
 3230SOL    HW110589   5.128   3.447   1.322 -0.5271 -1.1196  0.9067
 3230SOL    HW210590   5.048   3.577   1.379  1.6577 -0.4629  2.6065
 3231SOL     OW10591   4.244   4.280   1.057 -0.1191  0.5618 -0.2705
 3231SOL    HW110592   4.317   4.247   0.998  0.7184  1.5440  0.1916
 3231SOL    HW210593   4.159   4.286   1.005  0.3353  0.3070 -1.0552
 3232SOL     OW10594   6.420   2.645   4.546 -0.3402 -1.0951  0.1738
 3232SOL    HW110595   6.364   2.626   4.466  0.3551  0.3130 -0.6947
 3232SOL    HW210596   6.372   2.615   4.628 -3.0390  1.2400 -0.3923
 3233SOL     OW10597   6.643   0.943   4.323  0.1236 -0.0348 -0.1088
 3233SOL    HW110598   6.707   1.011   4.286 -3.0380  2.0037 -2.2675
 3233SOL    HW210599   6.614   0.972   4.415  1.6478 -0.6010  0.5891
 3234SOL     OW10600   0.006   5.264   1.378  0.2353  0.0734 -0.2151
 3234SOL    HW110601  -0.010   5.187   1.317 -0.9042  0.0245  0.1268
 3234SOL    HW210602   0.061   5.333   1.331  2.4648 -1.4958 -0.1010
 3235SOL     OW10603   5.435   6.899   0.612  0.0950  0.0720  0.1275
 3235SOL    HW110604   5.427   6.984   0.559  1.0407  0.6760  0.9207
 3235SOL    HW210605   5.497   6.836   0.564 -0.3386 -0.0441 -0.2907
 3236SOL     OW10606   3.577   5.808   2.714 -0.6511 -0.2018 -0.5449
 3236SOL    HW110607   3.648   5.845   2.653 -0.8245  1.8290  0.3915
 3236SOL    HW210608   3.488   5.815   2.670 -0.5094 -0.9705 -0.9711
 3237SOL     OW10609   0.044   1.645   4.605  0.2000 -0.1716 -0.1166
 3237SOL    HW110610   0.046   1.577   4.679 -1.2164 -0.2853 -0.1438
 3237SOL    HW210611   0.133   1.648   4.560  0.0722 -2.6557 -0.6716
 3238SOL     OW10612   6.025   6.401   0.757  0.2239 -0.5231 -0.2525
 3238SOL    HW110613   6.052   6.386   0.662  0.0524  0.0674 -0.3983
 3238SOL    HW210614   6.036   6.498   0.780 -0.4822 -0.5222  0.0940
 3239SOL     OW10615   6.258   2.032   1.153  0.3779 -0.2687  0.5657
 3239SOL    HW110616   6.313   2.082   1.087  1.2429 -1.9868 -0.0815
 3239SOL    HW210617   6.282   2.062   1.246  1.4109 -0.0141  0.2296
 3240SOL     OW10618   3.493   6.525   0.742  0.1357 -0.2429  0.0471
 3240SOL    HW110619   3.445   6.599   0.696 -1.0129 -0.9901  0.0157
 3240SOL    HW210620   3.543   6.561   0.821  0.8044  0.7847 -0.8366
 3241SOL     OW10621   2.337   6.703   1.582  0.4201 -0.4418 -0.3773
 3241SOL    HW110622   2.416   6.753   1.548  1.4299 -0.4046  1.8936
 3241SOL    HW210623   2.361   6.654   1.666 -1.4066 -2.1449 -0.7608
 3242SOL     OW10624   3.513   5.743   1.029 -0.1786 -0.4428 -0.4394
 3242SOL    HW110625   3.492   5.798   1.111 -1.8683 -2.4403  0.5671
 3242SOL    HW210626   3.591   5.684   1.048  0.1134 -0.1258 -0.6558
 3243SOL     OW10627   2.207   1.213   0.220  0.1626 -0.1320  0.1732
 3243SOL    HW110628   2.153   1.131   0.201  0.3051 -0.2570  0.2969
 3243SOL    HW210629   2.157   1.272   0.284 -1.2893  1.3215 -2.1445
 3244SOL     OW10630   5.384   2.512   3.577 -0.1403  0.1199 -0.2322
 3244SOL    HW110631   5.399   2.510   3.478 -0.5885  1.6190 -0.3604
 3244SOL    HW210632   5.464   2.475   3.624  0.4898  0.3314 -1.1258
 3245SOL     OW10633   1.456   4.575   5.026  0.3058  0.4184  0.2677
 3245SOL    HW110634   1.387   4.520   5.073  0.7171 -0.5821 -0.2832
 3245SOL    HW210635   1.547   4.546   5.054  0.5362  0.5282 -0.3452
 3246SOL     OW10636   2.194   6.196   6.979 -0.9168 -1.0019  0.1371
 3246SOL    HW110637   2.282   6.151   6.992  0.1740  0.5372 -1.3936
 3246SOL    HW210638   2.161   6.232   7.066  1.4217  0.8502  0.3627
 3247SOL     OW10639   4.278   2.210   0.659 -0.0120  0.3682  0.2045
 3247SOL    HW110640   4.220   2.290   0.677  0.6305  0.7210  0.7131
 3247SOL    HW210641   4.344   2.233   0.587  0.0354  0.2218  0.2014
 3248SOL     OW10642   6.435   5.492   4.558 -0.1588 -0.0333  0.1070
 3248SOL    HW110643   6.365   5.422   4.568  1.0712 -1.2392  0.4966
 3248SOL    HW210644   6.458   5.502   4.461  0.3597 -0.8995  0.1299
 3249SOL     OW10645   1.393   3.547   1.930 -0.0730  0.3969  0.0585
 3249SOL    HW110646   1.377   3.624   1.868 -0.9677  1.6187  1.7294
 3249SOL    HW210647   1.332   3.553   2.009  1.4870 -0.6795  1.4469
 3250SOL     OW10648   3.627   0.722   2.531  0.4564  0.6011 -0.6223
 3250SOL    HW110649   3.628   0.800   2.594 -1.1189  0.5303 -0.4643
 3250SOL    HW210650   3.670   0.643   2.574 -0.8202  0.4804  0.4997
 3251SOL     OW10651   0.723   1.487   0.088  0.4451  0.3148 -0.2291
 3251SOL    HW110652   0.745   1.460  -0.006  0.1366  0.3197 -0.3045
 3251SOL    HW210653   0.720   1.405   0.146  0.8854  0.3390 -0.1707
 3252SOL     OW10654   5.294   4.503   6.720 -0.5291  0.3508  0.4523
 3252SOL    HW110655   5.240   4.443   6.779 -1.0160  0.4436  0.1015
 3252SOL    HW210656   5.389   4.470   6.718 -0.1784  1.1220  2.3412
 3253SOL     OW10657   1.056   5.336   2.129  0.3469 -0.6720 -0.1820
 3253SOL    HW110658   1.021   5.407   2.067  0.2574 -1.2234 -0.7713
 3253SOL    HW210659   0.999   5.333   2.211 -1.1652 -1.7199 -1.2321
 3254SOL     OW10660   7.006   3.689   1.016 -0.0471  0.6427 -0.6252
 3254SOL    HW110661   7.058   3.632   1.080  2.5695  1.3382 -1.9492
 3254SOL    HW210662   7.063   3.766   0.988 -1.4544  0.9021 -3.0067
 3255SOL     OW10663   2.390   4.939   4.012 -0.4038  0.4238  0.0882
 3255SOL    HW110664   2.322   4.993   3.963 -0.9673 -0.2384  0.1191
 3255SOL    HW210665   2.381   4.843   3.986 -0.1598  0.1826  0.8608
 3256SOL     OW10666   6.162   0.725   1.241 -0.1254  0.0903 -0.4590
 3256SOL    HW110667   6.230   0.750   1.310 -0.8532  0.7358  0.0590
 3256SOL    HW210668   6.093   0.666   1.283 -0.0638 -0.2854 -0.8865
 3257SOL     OW10669   1.693   3.921   6.441  0.3751 -0.4865  0.4670
 3257SOL    HW110670   1.709   3.961   6.531 -0.9161  0.6927  0.2055
 3257SOL    HW210671   1.760   3.956   6.376  0.5681 -0.4192  0.7033
 3258SOL     OW10672   4.977   2.866   5.556  0.6397  0.0217 -0.3260
 3258SOL    HW110673   5.011   2.919   5.634 -0.4367  1.7022 -0.9410
 3258SOL    HW210674   4.915   2.795   5.589 -0.3743  1.1708  0.3478
 3259SOL     OW10675   2.048   3.451   2.612  0.3203 -0.3954 -0.5651
 3259SOL    HW110676   2.051   3.549   2.590  0.7388  0.0705  1.3742
 3259SOL    HW210677   2.108   3.401   2.548  0.1653  0.6090 -1.5244
 3260SOL     OW10678   3.189   5.961   2.846  0.2637  0.5031  0.4753
 3260SOL    HW110679   3.237   5.983   2.931  1.6310 -1.0939  0.1641
 3260SOL    HW210680   3.211   5.868   2.818 -0.8669  0.6832 -1.1747
 3261SOL     OW10681   2.309   6.146   1.526 -0.2670 -0.0352  0.6270
 3261SOL    HW110682   2.279   6.080   1.594 -0.6174 -0.1656  0.3522
 3261SOL    HW210683   2.389   6.110   1.477  0.1773  0.1956  1.1772
 3262SOL     OW10684   2.022   2.372   0.183  0.2437  0.1812  0.2254
 3262SOL    HW110685   1.927   2.359   0.211  0.2208 -0.4001 -0.1109
 3262SOL    HW210686   2.070   2.285   0.185  0.6370  0.3868 -0.0814
 3263SOL     OW10687   1.984   5.346   2.710  0.2953  0.4596 -0.1918
 3263SOL    HW110688   1.956   5.296   2.629 -0.9735 -0.0389  0.5406
 3263SOL    HW210689   1.949   5.301   2.792 -1.0020  2.5831  0.4873
 3264SOL     OW10690   4.753   1.471   3.485 -0.0091 -0.4787  0.1950
 3264SOL    HW110691   4.754   1.423   3.398 -0.7428 -0.0692 -0.0450
 3264SOL    HW210692   4.738   1.406   3.559  0.9536 -0.8750  0.0636
 3265SOL     OW10693   0.622   6.168   4.577 -0.1325 -0.6064  0.3981
 3265SOL    HW110694   0.604   6.215   4.490  2.4496  1.5323  0.8853
 3265SOL    HW210695   0.565   6.208   4.649 -1.4845 -1.6520 -0.0362
 3266SOL     OW10696   3.831   4.888   4.583 -0.4826  0.2885 -0.3285
 3266SOL    HW110697   3.825   4.891   4.683 -2.1631  1.5998 -0.4232
 3266SOL    HW210698   3.739   4.878   4.545  0.2038 -1.1345 -1.7528
 3267SOL     OW10699   5.435   5.023   2.921  0.3472 -1.2691  0.0443
 3267SOL    HW110700   5.376   4.984   2.851  0.5277 -2.8515  0.7424
 3267SOL    HW210701   5.404   5.116   2.943 -0.6701 -1.3494 -0.9801
 3268SOL     OW10702   4.674   6.430   6.070 -0.5934 -0.2793 -0.2417
 3268SOL    HW110703   4.731   6.374   6.011 -1.7730 -0.0731 -1.6457
 3268SOL    HW210704   4.606   6.478   6.015  0.6255  2.9157  0.8287
 3269SOL     OW10705   1.588   4.981   4.809 -0.4831 -0.0126  0.4373
 3269SOL    HW110706   1.497   5.005   4.775 -0.0575  0.1279 -0.6169
 3269SOL    HW210707   1.639   4.931   4.739 -0.1569 -1.1396  1.4336
 3270SOL     OW10708   0.560   5.926   2.212  0.1928 -0.6924 -0.1397
 3270SOL    HW110709   0.625   5.869   2.262  0.4798 -0.9365 -0.7712
 3270SOL    HW210710   0.554   5.893   2.117 -0.7291 -0.5704 -0.1314
 3271SOL     OW10711   6.510   1.557   4.396 -0.8044 -0.4921  0.4520
 3271SOL    HW110712   6.559   1.516   4.320 -1.3374 -1.5877  0.6768
 3271SOL    HW210713   6.552   1.644   4.420  1.2014 -1.5058  0.8274
 3272SOL     OW10714   1.063   5.567   3.510  0.3914  0.1136 -0.3454
 3272SOL    HW110715   1.070   5.474   3.545  2.4134 -0.3075 -1.6535
 3272SOL    HW210716   0.976   5.579   3.463 -0.3382 -0.7600  0.7282
 3273SOL     OW10717   6.253   2.036   3.242 -0.3827 -0.5279 -0.4187
 3273SOL    HW110718   6.272   2.080   3.330 -1.3494 -0.2538 -0.3364
 3273SOL    HW210719   6.328   2.055   3.178  0.0463 -0.2412  0.1638
 3274SOL     OW10720   6.881   2.755   6.465 -0.2425  0.0542  0.4853
 3274SOL    HW110721   6.837   2.750   6.375  1.7213  0.0041 -0.5074
 3274SOL    HW210722   6.930   2.842   6.474 -0.7698  0.2599  1.7221
 3275SOL     OW10723   6.240   6.106   6.524 -0.8023 -0.3609 -0.3209
 3275SOL    HW110724   6.295   6.061   6.453  0.1976  1.1322 -0.5323
 3275SOL    HW210725   6.145   6.110   6.494 -0.7187 -1.3721 -0.7598
 3276SOL     OW10726   5.109   3.218   6.414  0.1755  0.0618 -0.1772
 3276SOL    HW110727   5.024   3.169   6.433 -0.3983  0.9120 -0.4842
 3276SOL    HW210728   5.174   3.203   6.488 -0.2020 -0.6795  0.0112
 3277SOL     OW10729   6.562   4.768   3.915  0.3877  0.4118  0.1578
 3277SOL    HW110730   6.576   4.821   3.831  0.9587 -1.5073 -1.0119
 3277SOL    HW210731   6.533   4.676   3.891 -1.6524  0.4638  2.1757
 3278SOL     OW10732   3.700   5.491   6.017 -0.2511 -0.1545 -0.6632
 3278SOL    HW110733   3.753   5.470   6.100 -0.9686 -0.8154 -0.3520
 3278SOL    HW210734   3.750   5.458   5.937  0.1784 -0.0495 -0.4434
 3279SOL     OW10735   4.448   1.020   4.261  0.0922  0.1011  0.5869
 3279SOL    HW110736   4.503   0.997   4.181  0.3575  0.4132  0.6734
 3279SOL    HW210737   4.396   0.941   4.291  0.5582 -0.2229  0.5470
 3280SOL     OW10738   0.270   0.300   5.481  0.1119  0.0312 -0.2322
 3280SOL    HW110739   0.191   0.239   5.477 -0.1566  0.2403  1.4096
 3280SOL    HW210740   0.331   0.270   5.554 -0.0193  1.6974  0.5963
 3281SOL     OW10741   5.996   3.085   3.941 -0.1822  0.5818  0.9452
 3281SOL    HW110742   6.001   3.079   4.041  2.8347 -1.0882  0.8012
 3281SOL    HW210743   6.059   3.156   3.909  1.4166 -1.0996  0.1529
 3282SOL     OW10744   2.780   5.415   0.555  0.0124  0.5890 -0.0103
 3282SOL    HW110745   2.785   5.346   0.483 -1.2432  0.6188 -0.1554
 3282SOL    HW210746   2.862   5.410   0.612  1.3120  0.9361 -1.7471
 3283SOL     OW10747   6.108   4.163   6.273 -0.1449 -0.2411 -0.0642
 3283SOL    HW110748   6.178   4.231   6.250 -1.4310  0.6674 -1.5099
 3283SOL    HW210749   6.097   4.100   6.196 -2.8447  1.3700 -1.1563
 3284SOL     OW10750   2.432   0.292   1.387 -0.2550  0.2746 -0.9692
 3284SOL    HW110751   2.478   0.381   1.388 -0.6306  0.4658 -0.7740
 3284SOL    HW210752   2.370   0.287   1.309 -0.5650  0.3516 -0.7274
 3285SOL     OW10753   5.608   6.592   4.294 -0.1657 -0.2698 -0.1292
 3285SOL    HW110754   5.654   6.579   4.382 -0.1590  0.2447 -0.0541
 3285SOL    HW210755   5.516   6.553   4.298  0.9196 -3.2156 -0.9337
 3286SOL     OW10756   2.873   2.054   3.673  0.0353  0.0588 -0.1909
 3286SOL    HW110757   2.969   2.081   3.677 -0.3710  1.3642  1.1969
 3286SOL    HW210758   2.868   1.954   3.674  1.3905 -0.0617 -1.2293
 3287SOL     OW10759   0.031   6.838   4.318  0.3030 -0.0818  0.6282
 3287SOL    HW110760   0.031   6.925   4.369 -0.4990  0.0919  0.3451
 3287SOL    HW210761   0.125   6.805   4.309  0.4213 -0.5954  3.0386
 3288SOL     OW10762   1.272   2.896   5.240  0.4103  0.3217  0.1651
 3288SOL    HW110763   1.346   2.927   5.300  0.7147  1.0869 -0.5857
 3288SOL    HW210764   1.309   2.873   5.150  0.0639 -1.4566  0.4342
 3289SOL     OW10765   4.213   0.845   0.974 -0.4676  0.0720 -0.5763
 3289SOL    HW110766   4.156   0.844   0.892  0.0099  2.8148 -1.0375
 3289SOL    HW210767   4.160   0.879   1.051  0.1001  1.1696 -0.6545
 3290SOL     OW10768   3.975   0.173   6.653  0.2040  0.3138  0.7098
 3290SOL    HW110769   3.921   0.226   6.587  0.0443 -0.9525 -0.2142
 3290SOL    HW210770   4.061   0.221   6.672 -0.2993  1.3060  0.5553
 3291SOL     OW10771   1.823   4.776   6.646  0.6892  0.1658 -0.1854
 3291SOL    HW110772   1.780   4.864   6.627  0.4447  0.3974  1.3872
 3291SOL    HW210773   1.787   4.738   6.731  0.5976 -1.5910 -0.9650
 3292SOL     OW10774   3.152   4.002   3.590  0.0900  0.1656 -0.1254
 3292SOL    HW110775   3.078   4.068   3.601  1.2728  1.4981  0.0977
 3292SOL    HW210776   3.240   4.045   3.612  1.1207 -0.9384 -1.8080
 3293SOL     OW10777   5.015   2.345   3.273 -0.1549  0.3334 -0.7641
 3293SOL    HW110778   4.996   2.418   3.338  1.7821 -0.7216  1.0999
 3293SOL    HW210779   5.100   2.365   3.224  1.0135 -1.0956  0.5656
 3294SOL     OW10780   0.808   2.382   5.392 -0.0403  0.1433  0.4586
 3294SOL    HW110781   0.809   2.457   5.459 -1.4288 -0.0014  0.6684
 3294SOL    HW210782   0.799   2.295   5.439 -3.5246  0.1590  0.1199
 3295SOL     OW10783   2.011   0.577   1.574  0.9378 -0.1391 -0.1711
 3295SOL    HW110784   2.049   0.488   1.549  4.1900  0.8550  0.7578
 3295SOL    HW210785   1.974   0.573   1.666 -0.4369 -0.8753 -0.7228
 3296SOL     OW10786   0.123   6.652   2.433 -0.0502  0.1460  0.4084
 3296SOL    HW110787   0.182   6.706   2.373 -0.9779  0.4376 -0.2692
 3296SOL    HW210788   0.065   6.592   2.377 -1.3737  0.8720  0.9523
 3297SOL     OW10789   4.567   4.463   4.801 -0.2197 -0.0258 -0.2213
 3297SOL    HW110790   4.482   4.420   4.832  0.5157 -1.1143  0.3631
 3297SOL    HW210791   4.606   4.518   4.874  0.5497 -1.0871  0.2002
 3298SOL     OW10792   3.979   1.840   1.733 -0.6392 -0.0313  0.1369
 3298SOL    HW110793   3.971   1.743   1.756 -0.8444 -0.4725 -1.6212
 3298SOL    HW210794   3.890   1.885   1.744 -0.6968 -0.1928  0.3260
 3299SOL     OW10795   4.516   4.301   5.220 -0.1376 -0.6991  0.5656
 3299SOL    HW110796   4.426   4.275   5.184  0.2717 -1.7584  0.2467
 3299SOL    HW210797   4.540   4.241   5.296  0.1869 -0.2627  0.8056
 3300SOL     OW10798   2.030   4.895   0.171  0.1108 -1.0305  0.4304
 3300SOL    HW110799   1.939   4.904   0.130 -0.5064 -3.3622  1.1518
 3300SOL    HW210800   2.073   4.985   0.177 -0.4156 -0.2893 -3.7612
 3301SOL     OW10801   0.162   1.460   5.077 -0.4713 -0.5923  0.5905
 3301SOL    HW110802   0.123   1.523   5.143 -0.3384 -0.0340  0.1518
 3301SOL    HW210803   0.187   1.511   4.994  1.8827 -0.7535  1.1252
 3302SOL     OW10804   4.051   5.189   2.053 -0.6949  0.3949 -0.3664
 3302SOL    HW110805   4.023   5.129   1.978 -1.7883 -1.5172  1.4591
 3302SOL    HW210806   4.082   5.133   2.131  1.5091  2.3259  0.2477
 3303SOL     OW10807   4.978   5.180   6.836  0.2573  0.1565  0.4242
 3303SOL    HW110808   5.068   5.215   6.863  0.3190 -2.3159  3.9757
 3303SOL    HW210809   4.990   5.108   6.768  0.7989  0.7263 -0.1102
 3304SOL     OW10810   1.708   1.655   6.898 -0.1301 -0.1504  0.3157
 3304SOL    HW110811   1.704   1.676   6.996 -1.0640 -0.5250  0.3618
 3304SOL    HW210812   1.655   1.723   6.847  1.3452  0.7741 -0.0769
 3305SOL     OW10813   4.529   0.747   1.998  0.1599 -0.6300  0.0426
 3305SOL    HW110814   4.471   0.804   1.940 -0.2847 -1.9759 -0.8931
 3305SOL    HW210815   4.475   0.708   2.072 -0.2055 -1.9180 -0.8537
 3306SOL     OW10816   2.132   3.803   2.154  0.6327 -0.1305  0.0216
 3306SOL    HW110817   2.120   3.873   2.224 -2.0446  0.5242 -1.0083
 3306SOL    HW210818   2.223   3.813   2.113  0.4216  2.5887  0.0637
 3307SOL     OW10819   6.798   0.535   3.973  0.5319 -0.0773  0.2061
 3307SOL    HW110820   6.807   0.476   4.054 -1.7974  1.3549  1.6255
 3307SOL    HW210821   6.744   0.488   3.904 -0.6636  0.0553  1.0234
 3308SOL     OW10822   5.868   0.929   1.992  0.0280 -0.0667 -0.0736
 3308SOL    HW110823   5.807   0.993   2.038 -0.3838 -0.4266 -0.1114
 3308SOL    HW210824   5.950   0.977   1.960 -0.0620  0.3425  0.3098
 3309SOL     OW10825   4.109   2.185   2.789 -0.2033  0.0279  0.2115
 3309SOL    HW110826   4.194   2.217   2.747  0.3126 -2.2225 -0.5765
 3309SOL    HW210827   4.033   2.198   2.726  0.3153 -1.9046 -0.8905
 3310SOL     OW10828   6.149   0.403   6.410  0.4567 -0.0668 -0.3762
 3310SOL    HW110829   6.059   0.433   6.440  1.0232 -2.1316  4.3513
 3310SOL    HW210830   6.143   0.309   6.375  0.7132  0.0900 -0.8579
 3311SOL     OW10831   2.936   4.713   1.704  0.5499 -0.5972 -0.0873
 3311SOL    HW110832   2.863   4.758   1.756 -0.4284 -1.7923 -0.3653
 3311SOL    HW210833   2.943   4.618   1.732  2.9880 -0.1977  0.9158
 3312SOL     OW10834   5.147   1.330   6.052  0.4169 -0.1320  0.7322
 3312SOL    HW110835   5.189   1.421   6.052 -1.8324  1.0015  1.2930
 3312SOL    HW210836   5.174   1.281   5.969 -1.3159  2.6168 -1.6915
 3313SOL     OW10837   2.721   4.261   6.911 -0.2049  0.1911  0.1078
 3313SOL    HW110838   2.815   4.278   6.882  0.0738 -1.2655  0.0895
 3313SOL    HW210839   2.658   4.281   6.836  0.2237 -0.2624 -0.3772
 3314SOL     OW10840   2.474   2.536   6.867  0.6174  0.1901  0.3774
 3314SOL    HW110841   2.434   2.526   6.958  0.6480  1.8634  0.6045
 3314SOL    HW210842   2.531   2.457   6.846  0.4471 -0.3079  1.7342
 3315SOL     OW10843   0.363   1.356   6.040 -0.4262 -0.4590 -0.1682
 3315SOL    HW110844   0.383   1.264   6.073 -1.8370 -0.1894  1.6296
 3315SOL    HW210845   0.279   1.389   6.082 -0.0434  1.6022 -0.8777
 3316SOL     OW10846   1.840   3.467   1.884  0.4157 -0.0264 -0.4964
 3316SOL    HW110847   1.914   3.473   1.818  0.4177 -0.7744 -0.5689
 3316SOL    HW210848   1.850   3.540   1.952  0.6351  0.5042 -1.0861
 3317SOL     OW10849   6.317   0.737   6.133  0.4097 -0.0831  0.0073
 3317SOL    HW110850   6.339   0.743   6.036  0.4434 -0.0279  0.0187
 3317SOL    HW210851   6.387   0.682   6.179 -0.5490 -1.6352 -0.3156
 3318SOL     OW10852   1.420   0.695   5.326 -0.2148  0.3827  0.0299
 3318SOL    HW110853   1.391   0.748   5.246 -0.8716  0.1519  0.1026
 3318SOL    HW210854   1.358   0.714   5.402  0.3992  0.5901  0.4826
 3319SOL     OW10855   2.830   3.416   5.149 -0.3537 -0.6860 -0.3157
 3319SOL    HW110856   2.764   3.492   5.147 -1.8617 -1.8612  1.2122
 3319SOL    HW210857   2.822   3.368   5.237  1.1136 -2.1401 -0.9333
 3320SOL     OW10858   0.051   5.339   2.110 -0.1794  0.1655  0.0069
 3320SOL    HW110859  -0.029   5.396   2.126 -0.4512  0.3333 -1.7128
 3320SOL    HW210860   0.120   5.393   2.060  1.0377  0.0422  1.5070
 3321SOL     OW10861   1.406   4.187   0.093 -0.0577 -0.3349  0.0140
 3321SOL    HW110862   1.464   4.116   0.054 -0.4479 -0.2022 -0.8402
 3321SOL    HW210863   1.420   4.273   0.042  0.3643  0.1876  0.9874
 3322SOL     OW10864   5.499   5.836   6.855 -0.4067 -0.4606 -0.0493
 3322SOL    HW110865   5.571   5.876   6.911 -1.3466 -0.3328  1.1073
 3322SOL    HW210866   5.489   5.739   6.878  0.1362 -0.7592 -1.0126
 3323SOL     OW10867   4.208   0.419   2.186 -0.0483 -0.0952  0.4290
 3323SOL    HW110868   4.217   0.323   2.160  0.8259  0.5365 -1.8217
 3323SOL    HW210869   4.174   0.472   2.108  2.3064  1.8703  0.6032
 3324SOL     OW10870   2.315   1.423   6.869 -0.2348 -0.0571  0.7215
 3324SOL    HW110871   2.314   1.497   6.935 -0.9106  1.0479 -0.4900
 3324SOL    HW210872   2.233   1.427   6.812 -0.5248 -2.0277  0.9208
 3325SOL     OW10873   6.514   2.662   4.970 -0.1523 -0.5867 -0.5186
 3325SOL    HW110874   6.552   2.744   5.013  2.4085 -1.0655 -1.7187
 3325SOL    HW210875   6.557   2.581   5.009 -0.4589 -1.2095 -1.4379
 3326SOL     OW10876   3.222   3.917   0.982 -0.3773  0.1356 -0.3098
 3326SOL    HW110877   3.245   3.832   1.030  1.0974 -0.4335 -1.9351
 3326SOL    HW210878   3.136   3.905   0.933  0.5989 -1.0180 -1.8183
 3327SOL     OW10879   3.441   1.392   1.672  0.0374  0.0604  0.1179
 3327SOL    HW110880   3.386   1.421   1.750 -2.0814  0.2836 -1.3913
 3327SOL    HW210881   3.419   1.297   1.649  1.0456 -0.1819  0.0647
 3328SOL     OW10882   1.872   0.778   5.486 -0.1308 -0.2506  0.3452
 3328SOL    HW110883   1.773   0.793   5.489 -0.2594 -0.0997 -2.1294
 3328SOL    HW210884   1.918   0.849   5.539 -1.3171 -0.0979  1.2177
 3329SOL     OW10885   6.259   2.568   5.303  0.1635 -0.4818 -0.4176
 3329SOL    HW110886   6.344   2.620   5.315  0.7716 -0.6638 -3.1081
 3329SOL    HW210887   6.281   2.478   5.264 -1.2799 -0.1381 -2.1605
 3330SOL     OW10888   2.998   6.293   3.081  0.8747 -0.2270  0.0426
 3330SOL    HW110889   3.024   6.386   3.056 -1.4055  0.3781 -0.3671
 3330SOL    HW210890   2.965   6.244   2.999 -1.2274 -0.1680  0.7807
 3331SOL     OW10891   0.045   4.813   1.873  0.3856  0.3880  0.1733
 3331SOL    HW110892   0.104   4.852   1.802  1.3391 -0.9319  0.2159
 3331SOL    HW210893   0.076   4.844   1.963  0.1357  0.8139  0.1165
 3332SOL     OW10894   1.620   5.843   5.065  0.0835  0.1005  0.9235
 3332SOL    HW110895   1.632   5.746   5.088 -0.7200  0.1022  1.3943
 3332SOL    HW210896   1.527   5.858   5.033  0.3680  0.6240  0.3250
 3333SOL     OW10897   3.193   2.154   3.952 -0.5437  0.7688 -0.5316
 3333SOL    HW110898   3.160   2.130   3.860 -0.9210 -0.0193 -0.2007
 3333SOL    HW210899   3.124   2.208   4.000 -0.1157  1.6751 -0.9001
 3334SOL     OW10900   0.373   0.959   4.543  0.5803 -0.0641 -0.8877
 3334SOL    HW110901   0.336   0.867   4.555  0.6318 -0.0822 -0.8649
 3334SOL    HW210902   0.439   0.958   4.468  0.9532 -0.1556 -0.5650
 3335SOL     OW10903   3.873   5.651   2.471  0.1483  0.4067  0.1073
 3335SOL    HW110904   3.902   5.609   2.557  0.9081  0.9858  0.1455
 3335SOL    HW210905   3.805   5.593   2.427  0.0776 -0.1151  0.8828
 3336SOL     OW10906   1.652   1.427   2.697  0.0245  0.3378  0.2550
 3336SOL    HW110907   1.556   1.429   2.669  0.6455  1.6980 -2.0332
 3336SOL    HW210908   1.662   1.466   2.788 -1.5320  0.5975  0.3295
 3337SOL     OW10909   1.399   3.407   0.080 -0.8009 -0.0711  0.2803
 3337SOL    HW110910   1.469   3.335   0.078 -0.4539  0.2546  0.5999
 3337SOL    HW210911   1.313   3.371   0.042 -0.0367  0.0045 -1.6449
 3338SOL     OW10912   3.479   4.999   2.494 -0.0719  0.1084 -0.5629
 3338SOL    HW110913   3.533   4.969   2.415  1.8449  0.2092  0.6461
 3338SOL    HW210914   3.400   4.938   2.505  1.7475 -2.3835 -0.2944
 3339SOL     OW10915   1.509   6.185   5.880  0.3879  0.1507 -0.3007
 3339SOL    HW110916   1.543   6.136   5.800 -1.9391 -0.1626 -1.1745
 3339SOL    HW210917   1.433   6.244   5.853 -1.6756 -1.3370  1.9362
 3340SOL     OW10918   6.790   5.125   5.037  0.0871  0.3087 -0.1456
 3340SOL    HW110919   6.766   5.101   5.130  2.6253 -0.5868  0.3730
 3340SOL    HW210920   6.799   5.225   5.030  2.8731  0.2810  1.5006
 3341SOL     OW10921   1.429   5.996   6.951  0.2592 -0.5610  0.2245
 3341SOL    HW110922   1.525   6.022   6.967  0.2251 -0.3679  0.1198
 3341SOL    HW210923   1.423   5.938   6.871  0.1093  0.7040 -0.7174
 3342SOL     OW10924   3.637   6.159   5.567  0.7289 -0.1040 -0.3918
 3342SOL    HW110925   3.566   6.180   5.633  1.0359  3.4713 -1.0061
 3342SOL    HW210926   3.648   6.060   5.560 -0.6043 -0.6799  3.4348
 3343SOL     OW10927   0.964   5.192   2.419 -0.2134 -0.1012 -0.1282
 3343SOL    HW110928   0.935   5.097   2.426 -1.6936  0.3920  0.8970
 3343SOL    HW210929   1.020   5.215   2.499  2.1270 -0.6924 -1.4808
 3344SOL     OW10930   3.181   5.516   5.039 -0.6078  0.2014  0.4364
 3344SOL    HW110931   3.172   5.582   4.964 -1.7442 -1.6187 -1.1255
 3344SOL    HW210932   3.098   5.517   5.095 -0.3280  0.5757  0.8551
 3345SOL     OW10933   3.739   5.511   4.358  0.8701  0.0724  0.0701
 3345SOL    HW110934   3.724   5.413   4.371  1.1872 -0.3363 -2.2076
 3345SOL    HW210935   3.652   5.559   4.369  0.5886 -0.5385  0.5948
 3346SOL     OW10936   5.729   0.028   3.774 -0.2643 -0.0889  0.2329
 3346SOL    HW110937   5.642   0.053   3.732 -0.4433  0.9573  1.1799
 3346SOL    HW210938   5.743   0.082   3.857  1.6868  0.3734 -0.3481
 3347SOL     OW10939   3.054   3.995   4.466  0.1938  0.5943 -0.3978
 3347SOL    HW110940   3.049   4.020   4.563  0.9802  0.9770 -0.4446
 3347SOL    HW210941   3.026   3.900   4.454  1.3883  0.1227  0.4020
 3348SOL     OW10942   4.837   5.200   1.091  0.3400 -0.0125 -0.0764
 3348SOL    HW110943   4.855   5.292   1.056  0.5569  0.2933  0.8047
 3348SOL    HW210944   4.741   5.194   1.120 -0.1247 -0.5904 -1.6527
 3349SOL     OW10945   3.194   3.517   2.449  0.3525  0.0847 -0.0109
 3349SOL    HW110946   3.122   3.554   2.509  0.8375  0.2014  0.5151
 3349SOL    HW210947   3.172   3.538   2.354 -0.2496  0.2215  0.1514
 3350SOL     OW10948   0.070   2.691   0.455 -0.2337  0.0477  0.1447
 3350SOL    HW110949   0.168   2.691   0.434 -0.4961  1.9643 -1.4468
 3350SOL    HW210950   0.022   2.633   0.390 -0.2938  0.1352  0.1113
 3351SOL     OW10951   2.534   4.562   4.959 -0.0026 -0.0685  0.3106
 3351SOL    HW110952   2.625   4.603   4.964 -0.3550  0.6186  1.4149
 3351SOL    HW210953   2.520   4.504   5.039 -1.3991  1.7089  1.4333
 3352SOL     OW10954   1.252   2.329   4.113  0.8436 -0.1206  0.6280
 3352SOL    HW110955   1.229   2.292   4.202 -1.8196 -0.0597  0.0364
 3352SOL    HW210956   1.295   2.419   4.124  1.2681 -0.4587  1.8356
 3353SOL     OW10957   0.171   4.646   5.006  0.0337 -0.1100 -0.0045
 3353SOL    HW110958   0.106   4.714   4.971  0.0703 -0.0875 -0.0286
 3353SOL    HW210959   0.121   4.563   5.032  0.0198 -0.1624 -0.2044
 3354SOL     OW10960   0.807   0.278   4.499  0.2826 -0.2708  0.9783
 3354SOL    HW110961   0.795   0.331   4.415  0.6119  2.2203  2.3991
 3354SOL    HW210962   0.730   0.216   4.510 -0.5856  0.5023 -0.3711
 3355SOL     OW10963   5.362   2.358   2.240 -0.1836  0.2282  0.0116
 3355SOL    HW110964   5.418   2.438   2.215 -0.6351  0.3516 -0.6502
 3355SOL    HW210965   5.383   2.283   2.177  0.3309 -0.2218  0.7134
 3356SOL     OW10966   6.034   6.277   1.313  0.0995  0.5520 -0.0041
 3356SOL    HW110967   5.962   6.284   1.243  1.3602  1.6567 -1.2642
 3356SOL    HW210968   6.117   6.241   1.271  0.2915 -0.7825  1.4482
 3357SOL     OW10969   3.199   5.071   5.703 -0.6436 -0.3997 -0.8102
 3357SOL    HW110970   3.274   5.120   5.749 -0.1086 -2.7980  1.0735
 3357SOL    HW210971   3.198   5.095   5.606  2.3761 -0.0462 -0.8413
 3358SOL     OW10972   0.630   5.626   1.697  0.0067 -0.1833 -0.2655
 3358SOL    HW110973   0.666   5.533   1.684 -2.9109 -1.6035  0.8083
 3358SOL    HW210974   0.596   5.660   1.609 -0.5665 -0.9266 -0.3457
 3359SOL     OW10975   5.161   5.234   5.339 -0.0802 -0.2337 -0.7989
 3359SOL    HW110976   5.164   5.325   5.297 -0.3915  0.0110 -0.2924
 3359SOL    HW210977   5.100   5.175   5.286 -2.3121  0.7379  0.5661
 3360SOL     OW10978   4.602   0.178   5.340 -0.0687  0.3728  0.2539
 3360SOL    HW110979   4.569   0.204   5.431  0.9532 -2.8826  1.7262
 3360SOL    HW210980   4.680   0.234   5.316  1.9900 -0.9394  3.1797
 3361SOL     OW10981   6.262   2.160   2.968  0.4324  0.2661  0.1880
 3361SOL    HW110982   6.208   2.244   2.972  1.1288  0.7078  0.4856
 3361SOL    HW210983   6.203   2.082   2.987 -1.4491  0.0770 -4.9331
 3362SOL     OW10984   1.529   1.438   6.372  0.3095 -0.2883  0.0368
 3362SOL    HW110985   1.536   1.536   6.359  0.0273 -0.5090 -2.1324
 3362SOL    HW210986   1.604   1.392   6.325  0.6989 -1.1292  1.3915
 3363SOL     OW10987   1.317   3.315   0.465  0.1166  0.1610  0.0164
 3363SOL    HW110988   1.402   3.350   0.505  0.4419  1.0148 -1.3791
 3363SOL    HW210989   1.291   3.371   0.387  1.2684 -3.2601 -3.0951
 3364SOL     OW10990   3.260   3.285   2.263  0.6884 -0.2612 -0.5253
 3364SOL    HW110991   3.233   3.331   2.347  2.2581  0.8128 -0.5526
 3364SOL    HW210992   3.347   3.323   2.231  1.0551 -1.9226 -1.6350
 3365SOL     OW10993   0.447   0.803   0.857  0.3630 -0.0676  0.0526
 3365SOL    HW110994   0.493   0.722   0.893 -3.4346 -1.9442  1.1540
 3365SOL    HW210995   0.407   0.855   0.932  2.1445  2.6148 -0.6918
 3366SOL     OW10996   1.045   1.348   0.959  0.2429  0.2472 -0.2567
 3366SOL    HW110997   0.971   1.331   1.024  1.4135  0.4535  1.1891
 3366SOL    HW210998   1.014   1.327   0.866 -1.7659  0.7945  0.2420
 3367SOL     OW10999   1.239   4.686   2.099  0.2863  0.1007  0.0468
 3367SOL    HW111000   1.264   4.779   2.128  1.3026 -0.3400  0.6691
 3367SOL    HW211001   1.145   4.667   2.125  0.1371  0.8795  0.1060
 3368SOL     OW11002   0.482   5.233   1.053  0.1799  0.4178 -0.1007
 3368SOL    HW111003   0.572   5.203   1.085  0.3567  0.0712 -0.8749
 3368SOL    HW211004   0.484   5.330   1.030  0.2685  0.4835  0.1925
 3369SOL     OW11005   2.928   1.929   6.967  0.4481 -0.2497 -0.5238
 3369SOL    HW111006   2.851   1.979   7.007 -2.1775 -1.5975 -3.4016
 3369SOL    HW211007   3.013   1.977   6.987 -1.1558  1.7860  2.1713
 3370SOL     OW11008   0.224   0.445   3.791 -0.9469 -0.0172 -0.1609
 3370SOL    HW111009   0.242   0.538   3.824  1.5161 -0.9249  1.3483
 3370SOL    HW211010   0.240   0.380   3.865  2.1664 -1.9796 -2.3111
 3371SOL     OW11011   5.752   2.899   0.866 -0.3394 -0.1655 -0.5443
 3371SOL    HW111012   5.694   2.819   0.853 -0.0148 -1.2196  3.2861
 3371SOL    HW211013   5.695   2.980   0.875 -0.8021 -0.2897 -1.9800
 3372SOL     OW11014   4.115   1.729   1.477  0.5149  0.5406 -0.7276
 3372SOL    HW111015   4.108   1.727   1.576 -0.4472  1.2607 -0.7531
 3372SOL    HW211016   4.084   1.642   1.439 -2.1651  1.2674 -0.4811
 3373SOL     OW11017   1.575   4.530   6.585 -0.4460 -0.3162 -0.1480
 3373SOL    HW111018   1.616   4.595   6.521  1.6207 -2.1813 -0.8111
 3373SOL    HW211019   1.618   4.540   6.675  0.8554 -1.6249 -0.5971
 3374SOL     OW11020   4.455   5.454   2.789  0.1891  0.0514 -0.3882
 3374SOL    HW111021   4.365   5.490   2.812 -0.0003 -1.3210  1.1648
 3374SOL    HW211022   4.447   5.357   2.766  1.4870 -0.6142  1.7238
 3375SOL     OW11023   4.017   3.339   2.727 -0.0585  0.1336  0.6233
 3375SOL    HW111024   3.944   3.405   2.712 -1.5360 -0.8742  2.7782
 3375SOL    HW211025   4.105   3.385   2.728 -0.8199  1.6630 -0.2599
 3376SOL     OW11026   4.722   1.403   3.199  0.3405 -0.6969  0.0723
 3376SOL    HW111027   4.759   1.395   3.106  0.3934 -0.1490  0.0435
 3376SOL    HW211028   4.630   1.364   3.202  0.2684 -0.5528 -0.2543
 3377SOL     OW11029   5.433   5.130   6.778 -0.0815 -0.3004 -0.0029
 3377SOL    HW111030   5.465   5.053   6.724 -0.2871 -0.2536 -0.1949
 3377SOL    HW211031   5.422   5.103   6.874 -1.2467 -0.8343 -0.2656
 3378SOL     OW11032   5.980   1.845   0.002 -0.3505 -0.0386 -0.7685
 3378SOL    HW111033   5.953   1.826   0.096 -0.4990  0.8718 -0.6178
 3378SOL    HW211034   6.052   1.781  -0.026 -0.4436 -0.4384 -0.1073
 3379SOL     OW11035   5.668   2.041   3.106 -0.4738  0.1801 -0.3031
 3379SOL    HW111036   5.628   2.097   3.179 -0.2639 -0.8992  0.6643
 3379SOL    HW211037   5.601   2.030   3.033 -1.2949 -0.0766  0.4670
 3380SOL     OW11038   0.264   1.852   3.035  0.1929 -0.2739  0.3391
 3380SOL    HW111039   0.307   1.887   3.119 -0.1355 -1.7676  1.1706
 3380SOL    HW211040   0.320   1.875   2.956  0.4362  1.3058  0.9294
 3381SOL     OW11041   1.597   0.786   2.247 -0.4452 -0.1866 -0.0693
 3381SOL    HW111042   1.561   0.701   2.284 -0.4911 -0.5995 -1.0328
 3381SOL    HW211043   1.550   0.864   2.290 -0.0496 -0.6213  1.1767
 3382SOL     OW11044   0.191   1.317   5.414  0.1194  0.0194  0.0872
 3382SOL    HW111045   0.192   1.243   5.482 -0.1550  0.7307  0.8731
 3382SOL    HW211046   0.267   1.379   5.431  0.0679  0.1831 -0.2803
 3383SOL     OW11047   4.972   0.634   0.305 -0.5603  0.2983  0.3489
 3383SOL    HW111048   4.919   0.572   0.364  0.0088 -0.9986 -0.4561
 3383SOL    HW211049   5.020   0.701   0.362 -1.4728  0.2331  1.2227
 3384SOL     OW11050   3.428   6.919   6.206  0.0252 -0.2678  0.6709
 3384SOL    HW111051   3.409   6.901   6.303 -0.1242 -0.4762  0.6027
 3384SOL    HW211052   3.515   6.876   6.181 -0.8943 -1.9465  0.2066
 3385SOL     OW11053   2.550   6.379   0.116 -0.0646  0.3768 -0.6417
 3385SOL    HW111054   2.645   6.408   0.120  0.1750 -0.4902  0.6339
 3385SOL    HW211055   2.543   6.293   0.066 -0.0855  0.1534 -0.2627
 3386SOL     OW11056   4.252   3.015   6.385 -0.0242 -0.5341  0.1859
 3386SOL    HW111057   4.233   3.080   6.459  1.3210 -0.3573  0.4100
 3386SOL    HW211058   4.189   3.031   6.310  0.0517  0.8207  0.3800
 3387SOL     OW11059   2.208   0.212   0.263 -0.8409  0.1966  0.0685
 3387SOL    HW111060   2.225   0.199   0.165 -2.3023  2.0529 -0.4972
 3387SOL    HW211061   2.109   0.213   0.280 -0.6253  0.7229  1.4228
 3388SOL     OW11062   2.097   6.808   0.069  1.0300 -0.1732 -0.2029
 3388SOL    HW111063   2.041   6.727   0.052  0.4135  0.4037 -1.0329
 3388SOL    HW211064   2.133   6.806   0.163  0.6422 -1.1619 -0.0687
 3389SOL     OW11065   1.468   5.750   3.378 -0.4516  0.4789  0.4061
 3389SOL    HW111066   1.384   5.720   3.424 -0.4172 -1.8045 -0.8773
 3389SOL    HW211067   1.517   5.813   3.437 -1.9839  0.1669  2.1185
 3390SOL     OW11068   3.496   4.492   6.358  0.0238 -0.1239  0.5603
 3390SOL    HW111069   3.455   4.408   6.394 -0.2985 -0.0943  0.2641
 3390SOL    HW211070   3.429   4.542   6.304  0.3526  0.0919  0.3453
 3391SOL     OW11071   1.553   2.376   4.011  0.5050  0.0972 -0.2811
 3391SOL    HW111072   1.626   2.375   4.079  0.6331  0.7350 -0.4031
 3391SOL    HW211073   1.480   2.437   4.041  0.6615  0.5582 -0.8043
 3392SOL     OW11074   5.804   3.888   1.431 -0.3916  0.2019 -0.2032
 3392SOL    HW111075   5.797   3.828   1.352 -1.9483 -0.1025  0.1277
 3392SOL    HW211076   5.753   3.972   1.414  2.2711  1.7653 -0.8972
 3393SOL     OW11077   2.880   0.871   1.986 -0.0707  0.2771  0.6479
 3393SOL    HW111078   2.977   0.847   1.985  0.1312  0.9637  1.7377
 3393SOL    HW211079   2.869   0.967   1.959 -0.5238  0.0028 -0.1731
 3394SOL     OW11080   1.265   5.378   6.750 -0.5440 -0.2459 -0.0615
 3394SOL    HW111081   1.299   5.334   6.833 -0.0912  0.4190  0.1137
 3394SOL    HW211082   1.329   5.362   6.675  0.1453  0.9279  0.2463
 3395SOL     OW11083   6.703   0.232   1.407  0.0697 -0.4534  0.6057
 3395SOL    HW111084   6.695   0.168   1.331  0.3465  1.3807 -1.0431
 3395SOL    HW211085   6.615   0.238   1.455 -0.6100 -0.4232 -0.6191
 3396SOL     OW11086   3.057   6.152   4.304  0.4007 -0.2898 -0.1385
 3396SOL    HW111087   3.086   6.200   4.387  0.1774 -0.8324  0.2590
 3396SOL    HW211088   2.990   6.082   4.328  0.5104 -0.6097 -0.7526
 3397SOL     OW11089   0.867   6.352   5.804  0.2116 -0.3984 -0.3191
 3397SOL    HW111090   0.914   6.377   5.719  2.5778  0.9702  1.2659
 3397SOL    HW211091   0.776   6.392   5.804  0.1342 -0.4873 -2.2315
 3398SOL     OW11092   3.650   6.046   1.100 -0.1005 -0.0043  0.1730
 3398SOL    HW111093   3.702   5.965   1.072 -1.5297 -0.3442 -1.6555
 3398SOL    HW211094   3.630   6.103   1.021 -0.2176  1.5057  1.2470
 3399SOL     OW11095   0.497   6.209   1.390 -0.1628 -0.0452  0.2562
 3399SOL    HW111096   0.524   6.300   1.360 -0.2248 -0.5337 -1.3772
 3399SOL    HW211097   0.404   6.212   1.426 -0.2195  0.5106  0.0645
 3400SOL     OW11098   0.524   4.933   4.524 -0.1383 -0.3783  0.6636
 3400SOL    HW111099   0.585   4.958   4.599 -0.5251  0.6331  0.6577
 3400SOL    HW211100   0.430   4.959   4.547 -0.0455  1.4407 -0.7991
 3401SOL     OW11101   4.674   6.120   5.759 -0.5848 -0.0562 -0.3872
 3401SOL    HW111102   4.602   6.189   5.766  0.6297  1.2846 -0.5653
 3401SOL    HW211103   4.706   6.115   5.664  2.5518  2.6389  0.3722
 3402SOL     OW11104   1.894   6.768   2.664  0.1188  0.6318 -0.4229
 3402SOL    HW111105   1.981   6.728   2.692 -0.4548  0.3158  0.9571
 3402SOL    HW211106   1.833   6.696   2.632 -1.3074  0.1073  3.0756
 3403SOL     OW11107   2.706   6.469   0.405  0.2487  0.1902 -0.3967
 3403SOL    HW111108   2.701   6.561   0.366  0.0175  0.2398 -0.2523
 3403SOL    HW211109   2.724   6.475   0.503 -0.6082  0.1054 -0.2296
 3404SOL     OW11110   6.179   5.415   1.403 -0.3498  0.3820 -0.6886
 3404SOL    HW111111   6.156   5.391   1.498  1.6253 -2.7677 -0.8706
 3404SOL    HW211112   6.256   5.479   1.403  0.0222 -0.0515 -0.1351
 3405SOL     OW11113   4.582   1.130   4.639  0.0833  0.2239  0.5146
 3405SOL    HW111114   4.554   1.181   4.558  1.6837  1.1483  0.5005
 3405SOL    HW211115   4.521   1.052   4.652  0.0920 -0.2626 -1.8768
 3406SOL     OW11116   5.349   5.173   3.674 -0.1602  0.0026  0.6106
 3406SOL    HW111117   5.339   5.154   3.772 -2.8028  0.6394  0.5482
 3406SOL    HW211118   5.298   5.105   3.622  2.6821 -1.4276 -0.5347
 3407SOL     OW11119   1.311   6.310   6.384  0.0129 -0.1119 -0.4910
 3407SOL    HW111120   1.303   6.273   6.477  2.4554  1.6203  0.5276
 3407SOL    HW211121   1.377   6.255   6.333 -0.1563 -0.1327 -0.6877
 3408SOL     OW11122   2.725   1.400   2.879  0.0039  0.6130 -0.2824
 3408SOL    HW111123   2.701   1.417   2.975 -0.4367  1.4308 -0.5270
 3408SOL    HW211124   2.820   1.369   2.873 -0.2051 -0.2052  0.4844
 3409SOL     OW11125   6.493   6.260   6.984  0.2714  0.6942  0.0152
 3409SOL    HW111126   6.446   6.171   6.980  1.0184  0.3237 -0.8865
 3409SOL    HW211127   6.501   6.289   7.079  1.7847 -1.1907  0.5350
 3410SOL     OW11128   6.191   6.616   1.748  0.6205 -0.1924  0.2617
 3410SOL    HW111129   6.185   6.648   1.842  2.8456 -0.1446  0.4465
 3410SOL    HW211130   6.223   6.521   1.747  2.5268  0.4190 -0.4551
 3411SOL     OW11131   0.974   3.381   5.329  0.5047  0.1834 -0.5795
 3411SOL    HW111132   0.886   3.376   5.376  0.8984 -2.0030  0.0525
 3411SOL    HW211133   1.036   3.443   5.378  0.0604 -0.0530  0.2861
 3412SOL     OW11134   6.197   4.775   3.305 -0.6719 -0.6936  0.0732
 3412SOL    HW111135   6.256   4.696   3.291  1.8305  1.2460 -0.9982
 3412SOL    HW211136   6.216   4.815   3.395  0.1888  0.3319 -0.5485
 3413SOL     OW11137   5.941   1.246   4.633  0.0287  0.1751 -0.1808
 3413SOL    HW111138   5.957   1.313   4.706  0.3382  0.1899 -0.2586
 3413SOL    HW211139   5.888   1.288   4.560  0.3681  0.3936 -0.3073
 3414SOL     OW11140   0.914   1.170   0.459 -0.7815  0.2963 -0.3697
 3414SOL    HW111141   1.005   1.143   0.489 -0.2892  1.2290 -0.9901
 3414SOL    HW211142   0.856   1.088   0.451 -0.3264 -0.1992  1.0307
 3415SOL     OW11143   1.931   4.144   4.876  0.1459 -0.2529 -0.0448
 3415SOL    HW111144   2.030   4.147   4.870  0.0827  0.6470 -0.7233
 3415SOL    HW211145   1.896   4.233   4.907 -0.4494 -0.5511  0.1623
 3416SOL     OW11146   5.949   4.418   2.630  0.0114  0.3354 -0.5265
 3416SOL    HW111147   5.997   4.331   2.640 -0.1124  0.3243 -0.0175
 3416SOL    HW211148   5.987   4.468   2.552 -0.1539 -0.3265 -1.0427
 3417SOL     OW11149   5.337   0.546   0.918 -0.2005  0.5888  0.0656
 3417SOL    HW111150   5.251   0.496   0.914  0.7293 -1.2330  1.2515
 3417SOL    HW211151   5.374   0.556   0.826 -0.8669 -0.1209 -0.2929
 3418SOL     OW11152   0.725   6.228   0.504 -0.0108 -0.2960 -0.2971
 3418SOL    HW111153   0.739   6.199   0.598 -0.6499 -0.0316 -0.1120
 3418SOL    HW211154   0.797   6.293   0.478 -0.3844  0.3947  0.3402
 3419SOL     OW11155   5.533   5.088   1.954  0.1031 -0.2126 -0.4952
 3419SOL    HW111156   5.525   4.990   1.974  1.2811 -0.5345 -1.4477
 3419SOL    HW211157   5.613   5.125   2.000 -1.1216  0.6674  1.0204
 3420SOL     OW11158   6.031   3.392   2.269  0.4436  0.2600  0.5480
 3420SOL    HW111159   6.059   3.424   2.179  0.5897 -1.3739 -0.0028
 3420SOL    HW211160   6.107   3.347   2.314 -0.0138 -0.1406  0.9295
 3421SOL     OW11161   2.508   5.867   4.278 -0.1767 -0.0054 -0.3284
 3421SOL    HW111162   2.428   5.832   4.327 -1.3208  0.9112 -1.4466
 3421SOL    HW211163   2.478   5.936   4.211  1.2597 -1.2595 -2.3840
 3422SOL     OW11164   5.364   2.356   2.935 -0.0393  0.3835  0.6717
 3422SOL    HW111165   5.333   2.436   2.884  3.6945  0.8977 -1.1616
 3422SOL    HW211166   5.360   2.276   2.875  0.0420  0.0210  1.1496
 3423SOL     OW11167   4.167   6.956   6.564  0.3836 -0.0920 -0.2477
 3423SOL    HW111168   4.089   7.009   6.598 -0.7755 -2.1830  0.5614
 3423SOL    HW211169   4.165   6.955   6.464 -1.0206 -0.5702 -0.2487
 3424SOL     OW11170   5.071   4.364   2.688 -0.0773  0.5790  0.0692
 3424SOL    HW111171   5.023   4.352   2.602  2.9837  0.9234 -1.8591
 3424SOL    HW211172   5.093   4.274   2.727  1.6962  0.2428 -1.5417
 3425SOL     OW11173   4.678   6.193   4.661  0.2693 -0.3580 -0.0822
 3425SOL    HW111174   4.738   6.252   4.606  0.4267 -1.8171 -1.5509
 3425SOL    HW211175   4.728   6.111   4.689 -0.5077 -0.7159  0.2870
 3426SOL     OW11176   2.070   2.635   1.878 -0.0758 -0.4711 -0.0239
 3426SOL    HW111177   2.133   2.711   1.865  0.2293 -0.6796  0.2306
 3426SOL    HW211178   1.978   2.664   1.852  0.4374 -0.7672 -2.3076
 3427SOL     OW11179   3.041   0.902   0.932 -0.6391 -1.0263  0.2119
 3427SOL    HW111180   3.009   0.812   0.962 -0.0667 -0.9555  1.0670
 3427SOL    HW211181   3.050   0.962   1.012  0.1537 -0.5840 -0.2038
 3428SOL     OW11182   5.341   4.754   0.031 -0.2082 -0.3923 -0.2827
 3428SOL    HW111183   5.247   4.778   0.008 -0.5845 -1.6965 -0.1365
 3428SOL    HW211184   5.389   4.836   0.062 -1.2761  0.2912 -0.3860
 3429SOL     OW11185   6.052   6.920   6.798  0.5753 -0.5031  0.6272
 3429SOL    HW111186   6.051   6.893   6.894  1.5274 -0.4704  0.6584
 3429SOL    HW211187   6.069   6.840   6.741 -3.0287 -1.1263  0.2122
 3430SOL     OW11188   6.655   1.049   6.568 -0.0961 -0.1796 -0.5963
 3430SOL    HW111189   6.721   1.074   6.497 -1.0550  1.3996 -0.9843
 3430SOL    HW211190   6.675   0.956   6.601  1.9827  0.0539 -1.0398
 3431SOL     OW11191   1.279   6.785   3.711 -0.2905 -0.2636 -0.0791
 3431SOL    HW111192   1.223   6.858   3.672  0.2981 -0.4814 -1.3957
 3431SOL    HW211193   1.226   6.700   3.716 -0.6251 -0.0320  0.4041
 3432SOL     OW11194   3.528   1.871   0.692 -0.3128  0.0815 -0.6309
 3432SOL    HW111195   3.600   1.802   0.692 -0.8883 -0.5352  0.2977
 3432SOL    HW211196   3.548   1.940   0.622 -0.8811 -2.2154 -3.2177
 3433SOL     OW11197   3.941   1.653   6.872  0.0966  0.4591 -0.1589
 3433SOL    HW111198   3.927   1.671   6.969  0.4923  1.1510 -0.2249
 3433SOL    HW211199   4.035   1.622   6.857 -0.2922 -0.7746 -0.1774
 3434SOL     OW11200   6.860   6.807   5.018  0.7063  0.4296  0.2955
 3434SOL    HW111201   6.826   6.770   5.105  0.6527 -0.8179 -0.2396
 3434SOL    HW211202   6.785   6.814   4.953  1.3615 -2.2684 -0.8673
 3435SOL     OW11203   6.408   6.178   0.466  0.1899  0.5717  0.2696
 3435SOL    HW111204   6.479   6.110   0.448  0.4825  0.8787  0.2615
 3435SOL    HW211205   6.318   6.137   0.451  0.3159 -0.1921  1.4878
 3436SOL     OW11206   6.249   3.375   2.495 -0.2150  0.0340  0.3590
 3436SOL    HW111207   6.164   3.349   2.541 -1.0602 -0.5324 -1.4375
 3436SOL    HW211208   6.301   3.293   2.472  0.1245  0.2970  0.1829
 3437SOL     OW11209   4.626   2.872   5.641  0.3452  0.5944 -0.0562
 3437SOL    HW111210   4.548   2.933   5.630 -0.9218 -0.8029  0.9074
 3437SOL    HW211211   4.708   2.926   5.663 -0.0036  2.2024 -2.3507
 3438SOL     OW11212   2.809   0.451   6.653  0.3100  0.1185 -0.0002
 3438SOL    HW111213   2.870   0.501   6.590  0.2047  0.3459  0.0756
 3438SOL    HW211214   2.849   0.362   6.675 -0.3112 -0.5460 -1.4765
 3439SOL     OW11215   2.172   4.657   0.038  0.0063  0.1651 -0.0411
 3439SOL    HW111216   2.163   4.587   0.108  1.2895  0.7538  0.7545
 3439SOL    HW211217   2.121   4.738   0.065  1.5152  0.8574  0.8947
 3440SOL     OW11218   2.245   1.438   0.451 -0.3619  0.0818 -0.7315
 3440SOL    HW111219   2.184   1.399   0.520 -0.5403 -1.0102 -1.4705
 3440SOL    HW211220   2.193   1.456   0.367  0.3748 -1.2863 -1.5248
 3441SOL     OW11221   0.383   1.770   1.618 -0.1467 -0.1153 -0.1822
 3441SOL    HW111222   0.417   1.846   1.674  1.6411  0.0202 -1.3834
 3441SOL    HW211223   0.432   1.687   1.644  0.1675 -0.1982 -1.0221
 3442SOL     OW11224   6.732   2.277   3.279 -0.5206 -0.4156 -0.2089
 3442SOL    HW111225   6.778   2.204   3.330 -2.9904 -3.3546 -1.8384
 3442SOL    HW211226   6.798   2.327   3.225  1.4260 -0.6709  1.8036
 3443SOL     OW11227   4.802   5.294   3.391  0.6730 -0.2038 -0.6093
 3443SOL    HW111228   4.874   5.338   3.338 -0.6255  0.5205 -1.8278
 3443SOL    HW211229   4.733   5.257   3.329 -0.3030 -0.3675  0.5419
 3444SOL     OW11230   1.543   1.338   3.117 -0.1162  0.0323  0.0988
 3444SOL    HW111231   1.629   1.293   3.090 -0.9861 -0.5624 -1.8643
 3444SOL    HW211232   1.559   1.435   3.129  1.0121 -0.1995  0.6002
 3445SOL     OW11233   1.609   0.594   3.784  0.1356 -0.2625  0.0456
 3445SOL    HW111234   1.681   0.621   3.721  0.5667  0.4123  0.8076
 3445SOL    HW211235   1.650   0.557   3.868 -0.3313  1.6303  1.1545
 3446SOL     OW11236   0.732   4.056   1.572 -0.4983 -0.2473  0.6952
 3446SOL    HW111237   0.755   4.051   1.475  3.2422 -1.5963  1.4891
 3446SOL    HW211238   0.757   4.147   1.608 -1.7806  0.2139  0.4722
 3447SOL     OW11239   0.936   3.498   6.663 -0.1554 -0.4808  0.1579
 3447SOL    HW111240   0.884   3.583   6.667  0.6673 -0.0060  1.0553
 3447SOL    HW211241   0.923   3.455   6.573  1.1303  1.6958 -1.1554
 3448SOL     OW11242   6.998   0.161   5.740 -0.0480  0.6121 -0.7024
 3448SOL    HW111243   6.928   0.226   5.709 -1.3849 -0.3647  0.1754
 3448SOL    HW211244   7.012   0.171   5.838  0.0124 -0.1667 -0.6295
 3449SOL     OW11245   4.477   5.072   0.334  0.4110  0.0641  0.3804
 3449SOL    HW111246   4.406   5.134   0.301 -0.4328  0.2969  2.4251
 3449SOL    HW211247   4.520   5.025   0.257 -0.8641  1.1031 -1.0188
 3450SOL     OW11248   3.819   1.595   5.811 -0.5875  0.1552  0.4171
 3450SOL    HW111249   3.748   1.533   5.776 -0.2020  0.3700 -0.7911
 3450SOL    HW211250   3.884   1.615   5.739 -0.3266  1.4492  0.9816
 3451SOL     OW11251   3.764   3.347   2.937  0.4642  0.6452 -0.7748
 3451SOL    HW111252   3.856   3.332   2.902  0.4644 -0.7230 -0.2545
 3451SOL    HW211253   3.705   3.272   2.907  0.1160  0.2077  0.9078
 3452SOL     OW11254   3.722   1.393   0.405 -0.2743  0.2403 -0.4715
 3452SOL    HW111255   3.693   1.461   0.471  0.7810 -0.2186  0.4963
 3452SOL    HW211256   3.812   1.358   0.430 -0.2700 -0.6416 -1.6197
 3453SOL     OW11257   2.662   2.846   1.461  0.2373  0.3771 -0.4037
 3453SOL    HW111258   2.690   2.753   1.438 -0.1021  0.4913 -1.3314
 3453SOL    HW211259   2.630   2.892   1.378  0.4506  1.3357  0.0334
 3454SOL     OW11260   0.160   0.015   3.339 -0.1040 -0.0591  0.6947
 3454SOL    HW111261   0.143   0.092   3.278 -0.8707 -1.4190 -0.9069
 3454SOL    HW211262   0.084   0.005   3.403 -0.9834 -0.6399 -0.4086
 3455SOL     OW11263   5.841   5.278   4.287 -0.9669 -0.0804 -0.6720
 3455SOL    HW111264   5.925   5.307   4.241 -0.3553  0.9443  0.9817
 3455SOL    HW211265   5.774   5.352   4.282 -1.7749 -0.8504 -1.8821
 3456SOL     OW11266   4.021   3.599   1.399 -0.5068 -0.0937 -0.1862
 3456SOL    HW111267   4.059   3.518   1.443  0.5800 -0.8355 -2.3464
 3456SOL    HW211268   4.074   3.621   1.317 -1.2287  2.3848 -0.0909
 3457SOL     OW11269   5.936   4.074   3.157 -0.2089 -0.2119  0.0878
 3457SOL    HW111270   6.031   4.046   3.142 -0.3717 -0.7068 -0.0211
 3457SOL    HW211271   5.898   4.021   3.233  0.5201  2.0425  2.1470
 3458SOL     OW11272   1.445   2.411   5.517  0.2132  0.0806  0.0181
 3458SOL    HW111273   1.525   2.399   5.575  0.6459  2.0141 -0.1127
 3458SOL    HW211274   1.367   2.363   5.556  1.1821 -0.9957  0.6750
 3459SOL     OW11275   0.908   5.985   3.868 -0.5410 -0.2806  0.6209
 3459SOL    HW111276   0.957   6.034   3.941 -0.3212  0.7483 -0.1958
 3459SOL    HW211277   0.952   5.898   3.851  1.0137  0.6115 -0.0711
 3460SOL     OW11278   6.802   1.083   5.863  0.2493  0.3928  0.3175
 3460SOL    HW111279   6.718   1.058   5.815  1.8107 -0.7903 -2.0015
 3460SOL    HW211280   6.853   1.000   5.886  2.9049  1.0566 -2.5147
 3461SOL     OW11281   0.322   4.199   0.521  0.2771  0.3942 -0.4404
 3461SOL    HW111282   0.406   4.155   0.488 -0.2308 -0.5063 -0.5461
 3461SOL    HW211283   0.243   4.162   0.472 -0.3982 -0.2413  1.0575
 3462SOL     OW11284   0.980   3.673   6.997 -0.2486  0.5097 -0.1075
 3462SOL    HW111285   0.923   3.728   6.935  0.1632  1.2979  0.1966
 3462SOL    HW211286   1.063   3.645   6.951  0.2245  1.3987  0.1818
 3463SOL     OW11287   1.144   4.674   1.614  0.0118 -0.2577 -0.0524
 3463SOL    HW111288   1.182   4.742   1.552  0.3581  0.1935  0.6438
 3463SOL    HW211289   1.195   4.589   1.606 -1.9446 -1.3451 -2.7774
 3464SOL     OW11290   4.046   0.904   4.372  0.7526 -0.4666  0.2689
 3464SOL    HW111291   4.043   0.845   4.453  1.3104 -0.1651  0.5145
 3464SOL    HW211292   3.971   0.879   4.310 -0.8639  0.5533  1.7459
 3465SOL     OW11293   5.148   4.907   4.184 -0.2803 -0.0179 -0.0730
 3465SOL    HW111294   5.198   4.896   4.098  0.8825  1.2601  0.3934
 3465SOL    HW211295   5.201   4.868   4.259 -0.5218  0.3206  0.2757
 3466SOL     OW11296   2.160   0.797   1.067  0.1451  0.1322  0.4119
 3466SOL    HW111297   2.169   0.711   1.118  0.5178  0.0591  0.2296
 3466SOL    HW211298   2.158   0.874   1.131 -0.2159 -0.0132  0.5771
 3467SOL     OW11299   4.554   4.579   1.430  0.8247 -0.0867 -0.1718
 3467SOL    HW111300   4.496   4.505   1.396  2.1062 -0.1701 -2.3853
 3467SOL    HW211301   4.502   4.636   1.494 -0.5911 -2.0980  0.5901
 3468SOL     OW11302   2.843   6.412   0.730 -0.0580  0.0670  0.1733
 3468SOL    HW111303   2.934   6.441   0.699  0.8570 -1.4939  1.2720
 3468SOL    HW211304   2.814   6.469   0.807  0.0808  0.4347 -0.0448
 3469SOL     OW11305   6.412   4.020   5.678  0.2641 -0.2123 -0.0085
 3469SOL    HW111306   6.439   3.996   5.585  0.1754  1.4834 -0.4981
 3469SOL    HW211307   6.327   4.072   5.676  0.9939  1.0776  0.8801
 3470SOL     OW11308   6.470   4.783   2.919  1.0283  0.4937  0.2415
 3470SOL    HW111309   6.370   4.782   2.913  0.8813 -0.4613  2.2125
 3470SOL    HW211310   6.499   4.837   2.997  2.0859  0.9914 -0.4737
 3471SOL     OW11311   5.805   0.748   6.516  0.5843 -0.9895  0.1300
 3471SOL    HW111312   5.803   0.741   6.616  1.9141 -0.8897  0.1824
 3471SOL    HW211313   5.862   0.826   6.490 -2.7055  1.3459 -0.6592
 3472SOL     OW11314   3.126   3.710   4.608 -0.1973  0.4326  0.1320
 3472SOL    HW111315   3.161   3.787   4.662 -0.4170  0.6678 -0.0579
 3472SOL    HW211316   3.120   3.629   4.666  0.7615  0.3602  0.1364
 3473SOL     OW11317   4.146   5.455   4.407  0.7678  0.4312  0.0127
 3473SOL    HW111318   4.147   5.357   4.387  0.2045 -0.2405  2.9175
 3473SOL    HW211319   4.235   5.482   4.444  0.7523  0.9331 -0.3097
 3474SOL     OW11320   3.091   1.860   1.083 -0.4206 -0.3381  0.5953
 3474SOL    HW111321   3.009   1.872   1.027  1.0021 -1.9801 -2.0092
 3474SOL    HW211322   3.145   1.943   1.081 -0.0793 -0.5774 -1.0676
 3475SOL     OW11323   1.073   0.294   0.538  0.2729  0.0624  0.2559
 3475SOL    HW111324   1.021   0.210   0.556  0.0868 -0.0734 -0.8477
 3475SOL    HW211325   1.089   0.303   0.440  0.8748  0.9827  0.4260
 3476SOL     OW11326   5.913   4.712   1.202  0.0005 -0.0588 -0.2445
 3476SOL    HW111327   6.010   4.721   1.182 -0.4188  0.8419 -2.0592
 3476SOL    HW211328   5.884   4.618   1.185  0.5620 -0.3667  0.4401
 3477SOL     OW11329   6.546   5.682   5.779 -0.2465  0.0562  0.5791
 3477SOL    HW111330   6.559   5.769   5.730 -1.0296 -0.3981 -0.4574
 3477SOL    HW211331   6.468   5.691   5.841 -0.9125 -0.1760 -0.2053
 3478SOL     OW11332   5.055   6.133   3.638 -0.1712  0.1920 -0.0471
 3478SOL    HW111333   5.112   6.198   3.589  0.3836  0.5671  1.0869
 3478SOL    HW211334   5.102   6.045   3.643 -0.5278 -0.0466 -0.7822
 3479SOL     OW11335   5.413   2.464   4.743  0.0970  0.4039  0.2904
 3479SOL    HW111336   5.410   2.375   4.788  0.3940 -0.4635 -1.3185
 3479SOL    HW211337   5.465   2.457   4.658 -0.3462  1.9947 -0.1521
 3480SOL     OW11338   1.906   4.075   2.977  0.2266 -0.1427  0.0193
 3480SOL    HW111339   1.986   4.020   2.952  0.3180 -0.6340  1.2957
 3480SOL    HW211340   1.896   4.151   2.912  1.3976 -0.3994 -0.4902
 3481SOL     OW11341   1.356   0.028   5.015 -0.5516 -0.2712  0.9658
 3481SOL    HW111342   1.273  -0.026   5.031 -2.3637  2.7908  3.0983
 3481SOL    HW211343   1.434  -0.015   5.061 -0.9611 -2.9956 -0.7128
 3482SOL     OW11344   0.068   3.350   6.544 -0.0996 -0.1979 -0.1241
 3482SOL    HW111345   0.041   3.339   6.448  1.4516  0.2820 -0.6366
 3482SOL    HW211346   0.065   3.447   6.568  4.3170  0.4445 -1.2690
 3483SOL     OW11347   4.507   2.054   5.006  0.3275  0.2022  0.4978
 3483SOL    HW111348   4.545   2.099   4.925  0.4972 -0.6053  0.1254
 3483SOL    HW211349   4.442   1.984   4.979  1.2829 -0.9101  1.0012
 3484SOL     OW11350   6.661   0.013   5.333 -0.3130 -0.1398  0.1428
 3484SOL    HW111351   6.672   0.052   5.425  0.2029  2.4994 -0.9312
 3484SOL    HW211352   6.580   0.052   5.290 -0.0839 -0.7065 -0.8281
 3485SOL     OW11353   0.007   2.956   0.003 -0.3896 -0.6803  0.1221
 3485SOL    HW111354   0.106   2.956   0.015 -0.3094  0.9451 -0.2967
 3485SOL    HW211355  -0.023   2.866  -0.032  1.1555 -0.6659 -1.3695
 3486SOL     OW11356   1.471   4.793   6.258 -0.4518 -0.2118  0.3428
 3486SOL    HW111357   1.393   4.732   6.270 -0.0612 -0.4932  1.6088
 3486SOL    HW211358   1.536   4.779   6.333  0.7097  0.1845 -0.5675
 3487SOL     OW11359   5.774   6.009   0.871  0.1241  0.0765  0.0080
 3487SOL    HW111360   5.787   6.022   0.969 -0.2819 -0.5996  0.1580
 3487SOL    HW211361   5.857   5.970   0.831  0.5176  0.9386 -0.0380
 3488SOL     OW11362   0.145   4.672   5.923 -0.4608 -0.4045  0.5022
 3488SOL    HW111363   0.158   4.764   5.886  1.6848 -0.8184  0.1349
 3488SOL    HW211364   0.108   4.678   6.016  0.9904  0.8933  1.0318
 3489SOL     OW11365   3.776   1.189   3.723  0.2823 -0.2066  0.3607
 3489SOL    HW111366   3.864   1.169   3.766 -0.2180 -3.0026  0.2900
 3489SOL    HW211367   3.767   1.135   3.639 -0.3840  2.2015 -1.2254
 3490SOL     OW11368   0.677   2.788   2.140 -0.3829 -0.1521  0.1046
 3490SOL    HW111369   0.697   2.869   2.084  0.0604 -1.5657 -1.8895
 3490SOL    HW211370   0.584   2.757   2.122  0.6111 -2.2159 -2.1419
 3491SOL     OW11371   4.753   1.763   0.162  0.0580  0.3985 -0.3629
 3491SOL    HW111372   4.655   1.779   0.172  0.0248 -0.3438  0.7215
 3491SOL    HW211373   4.779   1.774   0.066 -0.9880  1.0920 -0.5809
 3492SOL     OW11374   3.074   0.790   3.873  0.4421  0.1540  0.6168
 3492SOL    HW111375   3.056   0.888   3.867 -2.9101 -0.4503 -1.8881
 3492SOL    HW211376   3.010   0.749   3.938  1.4051 -0.5059  1.1737
 3493SOL     OW11377   5.691   1.121   0.652  0.0001  0.8121  0.6673
 3493SOL    HW111378   5.643   1.197   0.609  0.3145  0.1274 -0.9365
 3493SOL    HW211379   5.788   1.142   0.660  0.0678  0.6361  0.3301
 3494SOL     OW11380   4.553   4.015   6.085 -0.2788  0.1768 -0.4145
 3494SOL    HW111381   4.522   4.044   6.175  0.7636  2.6256 -0.7797
 3494SOL    HW211382   4.612   3.934   6.095 -0.8246 -0.0738  0.9926
 3495SOL     OW11383   1.330   2.140   2.943  0.1156  0.8047 -0.4434
 3495SOL    HW111384   1.304   2.045   2.927 -1.2421  1.1086 -0.1153
 3495SOL    HW211385   1.421   2.156   2.906  0.0280 -0.4119 -1.2233
 3496SOL     OW11386   0.208   5.301   3.878  0.1874  0.1818  0.1338
 3496SOL    HW111387   0.166   5.383   3.919 -0.9203 -0.4714  0.3307
 3496SOL    HW211388   0.243   5.242   3.951  0.9097  0.4225 -0.0064
 3497SOL     OW11389   2.047   0.747   3.255 -0.1804 -0.1415 -0.1574
 3497SOL    HW111390   2.057   0.661   3.307 -2.7530 -2.1910 -2.7354
 3497SOL    HW211391   2.125   0.758   3.194  1.0892  0.4097  1.5003
 3498SOL     OW11392   2.670   0.030   6.845 -0.5097  0.0383  0.1305
 3498SOL    HW111393   2.735   0.084   6.792 -1.2970  0.9513  0.0710
 3498SOL    HW211394   2.657   0.072   6.935 -2.2068  0.8164 -0.4225
 3499SOL     OW11395   2.360   2.959   6.833  0.0540  0.0392  0.5206
 3499SOL    HW111396   2.430   2.891   6.815 -0.8977 -0.1746 -3.0179
 3499SOL    HW211397   2.274   2.913   6.855  0.0854  0.2063  1.0130
 3500SOL     OW11398   2.332   4.727   5.991  0.2945 -0.8500 -0.1542
 3500SOL    HW111399   2.298   4.634   5.976 -0.6222 -0.8958  1.8516
 3500SOL    HW211400   2.382   4.730   6.078  1.0696  0.3664 -0.6143
 3501SOL     OW11401   0.483   4.403   5.770  0.0050  0.9766  0.6660
 3501SOL    HW111402   0.542   4.325   5.747  1.6124  1.5021  2.7236
 3501SOL    HW211403   0.483   4.468   5.694  0.4560  0.0476 -0.1613
 3502SOL     OW11404   1.453   5.451   4.865 -0.2588 -0.2270 -0.0562
 3502SOL    HW111405   1.370   5.506   4.879  0.0202 -0.4086  3.0170
 3502SOL    HW211406   1.527   5.489   4.920  0.9311 -1.6685 -0.6155
 3503SOL     OW11407   1.358   6.634   6.714 -0.3016  0.0167 -0.0214
 3503SOL    HW111408   1.390   6.581   6.792 -0.5232  0.6769  0.5254
 3503SOL    HW211409   1.320   6.721   6.746 -1.8461 -0.3609 -0.7172
 3504SOL     OW11410   5.181   0.087   0.897 -0.0158  0.4004 -0.5125
 3504SOL    HW111411   5.273   0.059   0.924  0.0527  0.4789 -0.6628
 3504SOL    HW211412   5.114   0.046   0.959 -0.0006 -1.0188 -1.3864
 3505SOL     OW11413   1.213   4.667   5.980 -0.0608 -0.1261 -0.5767
 3505SOL    HW111414   1.154   4.741   6.011  1.4220  1.2722 -0.9306
 3505SOL    HW211415   1.190   4.583   6.029 -0.6154  0.9886  1.1739
 3506SOL     OW11416   1.029   1.852   0.165  0.1849 -0.0233 -0.3344
 3506SOL    HW111417   0.994   1.763   0.193 -1.3730 -0.0481 -2.1711
 3506SOL    HW211418   0.989   1.923   0.223 -0.2493 -0.3575 -0.2167
 3507SOL     OW11419   6.707   1.940   5.483  0.4976  0.7028  0.2848
 3507SOL    HW111420   6.703   2.024   5.429  0.2062 -0.1756 -1.0929
 3507SOL    HW211421   6.796   1.934   5.528  0.0477  2.3887  1.5207
 3508SOL     OW11422   5.525   2.911   3.392  0.1783 -0.1166 -0.5843
 3508SOL    HW111423   5.625   2.918   3.381  0.0554 -1.0111 -2.6258
 3508SOL    HW211424   5.499   2.952   3.479  2.3808 -0.2476  0.2066
 3509SOL     OW11425   4.881   0.779   2.562 -1.6349  0.1029 -0.1239
 3509SOL    HW111426   4.881   0.696   2.506 -1.8487  0.2470 -0.3377
 3509SOL    HW211427   4.891   0.859   2.503  2.1064  0.0969  0.3068
 3510SOL     OW11428   1.062   2.975   3.304 -0.0186  0.4981 -0.0811
 3510SOL    HW111429   0.969   2.947   3.284  0.2237 -0.0056 -0.5088
 3510SOL    HW211430   1.125   2.900   3.285  0.3606  0.4222  1.3368
 3511SOL     OW11431   6.203   2.598   3.349  0.2355 -0.1817  0.8260
 3511SOL    HW111432   6.159   2.535   3.286  2.0358 -2.5008  1.7308
 3511SOL    HW211433   6.147   2.607   3.432 -0.2330 -0.2257  0.5165
 3512SOL     OW11434   5.600   1.761   3.323 -0.1608  0.4106 -0.4164
 3512SOL    HW111435   5.619   1.667   3.352  0.2015  1.1076  1.7118
 3512SOL    HW211436   5.686   1.807   3.301 -0.1694  0.7812  0.3048
 3513SOL     OW11437   4.945   3.837   6.558 -0.3194  0.2576 -0.2014
 3513SOL    HW111438   4.877   3.765   6.550 -0.1303  0.2173 -1.6622
 3513SOL    HW211439   5.032   3.797   6.587 -0.9623  0.3652  2.0690
 3514SOL     OW11440   3.686   1.991   4.204  0.0347  0.5751  0.4578
 3514SOL    HW111441   3.587   2.008   4.201  0.0543  0.5894 -0.2029
 3514SOL    HW211442   3.727   2.015   4.116  0.7456  1.2676  0.9594
 3515SOL     OW11443   2.266   1.997   5.538 -0.2056 -0.3985 -0.2463
 3515SOL    HW111444   2.302   2.082   5.500  0.1903 -0.1686  0.6152
 3515SOL    HW211445   2.270   1.925   5.469  1.2529 -0.1977 -0.3951
 3516SOL     OW11446   1.491   5.125   2.117  0.2391 -0.0575  0.0835
 3516SOL    HW111447   1.583   5.144   2.081  0.5006 -2.9565 -1.0193
 3516SOL    HW211448   1.424   5.180   2.067  1.1565  0.2820 -0.8164
 3517SOL     OW11449   6.931   2.538   3.868 -0.0589 -0.4277 -0.7446
 3517SOL    HW111450   6.984   2.602   3.923 -4.1985  1.2387  1.7590
 3517SOL    HW211451   6.922   2.451   3.916 -1.6015  0.1860  0.1598
 3518SOL     OW11452   5.217   2.497   5.145  0.2249 -0.6289  0.0491
 3518SOL    HW111453   5.193   2.497   5.047 -1.5059 -0.4418  0.4304
 3518SOL    HW211454   5.244   2.405   5.172 -0.2885 -0.9201 -0.3960
 3519SOL     OW11455   0.957   4.941   1.416  0.3095  0.4490  0.1924
 3519SOL    HW111456   1.010   5.021   1.444 -1.2104  1.8897 -0.8029
 3519SOL    HW211457   1.004   4.894   1.341  1.1269  0.5162  0.6576
 3520SOL     OW11458   5.216   1.697   3.244  0.0559 -0.0017  0.0741
 3520SOL    HW111459   5.123   1.665   3.229 -0.3627  0.8432  0.7525
 3520SOL    HW211460   5.262   1.640   3.312  0.2047 -0.7036 -0.6041
 3521SOL     OW11461   5.637   0.708   2.386 -0.2313  1.0728  0.6749
 3521SOL    HW111462   5.717   0.653   2.360 -0.6637  0.8599 -0.2780
 3521SOL    HW211463   5.607   0.683   2.477 -0.1392  0.0489  0.4341
 3522SOL     OW11464   0.696   3.111   0.717 -0.3176 -0.5254  0.0964
 3522SOL    HW111465   0.657   3.139   0.629  2.1559  0.4167 -0.7653
 3522SOL    HW211466   0.750   3.028   0.705  0.9805  0.2373  0.4381
 3523SOL     OW11467   3.913   2.338   1.731 -0.4084  0.5941  0.2347
 3523SOL    HW111468   3.814   2.347   1.742 -0.7218 -2.7482  1.4885
 3523SOL    HW211469   3.954   2.310   1.818  1.5128  0.9729 -0.4999
 3524SOL     OW11470   3.473   6.984   5.472  0.1260  0.4388  0.0198
 3524SOL    HW111471   3.435   6.931   5.395 -0.9173 -0.8621  1.3716
 3524SOL    HW211472   3.572   6.990   5.462  0.1791 -1.0804 -0.6218
 3525SOL     OW11473   6.763   4.357   2.234  0.1718  0.0643 -0.0752
 3525SOL    HW111474   6.749   4.271   2.284  2.3266 -0.3178 -0.0376
 3525SOL    HW211475   6.757   4.339   2.136 -0.2526  0.0678 -0.0549
 3526SOL     OW11476   4.457   6.343   3.228 -0.0084 -0.3332  0.1495
 3526SOL    HW111477   4.460   6.322   3.326 -1.2455 -1.5900 -0.0451
 3526SOL    HW211478   4.362   6.348   3.199  0.3472  0.4020 -0.9331
 3527SOL     OW11479   1.996   5.365   4.055 -0.1682 -0.4260 -0.2586
 3527SOL    HW111480   2.039   5.303   4.121  1.4725  1.0746  0.1571
 3527SOL    HW211481   1.946   5.312   3.987 -0.4107 -2.0947  1.1660
 3528SOL     OW11482   4.817   6.841   3.744 -0.2487  0.6687 -0.3484
 3528SOL    HW111483   4.803   6.776   3.669 -1.8060  0.3202  0.2231
 3528SOL    HW211484   4.757   6.920   3.731 -1.0661  0.2657  0.9171
 3529SOL     OW11485   5.991   1.591   6.293  0.1289  0.3043  0.0159
 3529SOL    HW111486   6.017   1.598   6.196 -0.3013 -0.3059 -0.1525
 3529SOL    HW211487   6.073   1.596   6.350  0.3799  0.7319 -0.3778
 3530SOL     OW11488   2.467   0.836   3.552  0.4691 -0.4699  0.8792
 3530SOL    HW111489   2.508   0.799   3.469  1.1272 -0.5998  1.2579
 3530SOL    HW211490   2.523   0.912   3.585 -0.5306  0.4810  0.4529
 3531SOL     OW11491   5.810   1.333   3.730  0.2686  0.0360 -0.8259
 3531SOL    HW111492   5.854   1.296   3.649  1.3851 -1.6636  0.4815
 3531SOL    HW211493   5.835   1.429   3.741  0.7060  0.0816 -2.0582
 3532SOL     OW11494   6.765   3.050   3.344  0.0576 -0.4270  0.6261
 3532SOL    HW111495   6.797   2.983   3.277  0.5040 -0.6653  1.0638
 3532SOL    HW211496   6.823   3.045   3.426 -0.7823 -0.4941  1.2317
 3533SOL     OW11497   1.336   0.550   0.695  0.0024  0.1116  0.1205
 3533SOL    HW111498   1.345   0.583   0.601  1.2755 -1.4925 -0.3695
 3533SOL    HW211499   1.425   0.518   0.727 -0.8861 -1.5890  1.0014
 3534SOL     OW11500   1.180   3.437   3.524  0.2911 -0.0878  0.1032
 3534SOL    HW111501   1.233   3.385   3.592  0.1344  0.0224  0.3100
 3534SOL    HW211502   1.103   3.382   3.494  1.9405 -1.3379 -2.1545
 3535SOL     OW11503   4.441   5.685   3.916 -0.4526  0.3683  0.2555
 3535SOL    HW111504   4.371   5.631   3.869  0.2998  0.3708 -0.9052
 3535SOL    HW211505   4.528   5.635   3.914 -0.5626 -0.0245  2.4091
 3536SOL     OW11506   3.016   4.158   5.243  0.4000  0.0969 -0.4774
 3536SOL    HW111507   3.032   4.100   5.163 -1.2138 -1.9128  0.5465
 3536SOL    HW211508   2.917   4.166   5.259  0.6753  0.9710  0.9388
 3537SOL     OW11509   5.979   5.901   4.588  0.0152 -0.1361  0.6714
 3537SOL    HW111510   5.968   5.838   4.511 -0.0477 -0.0413  0.6039
 3537SOL    HW211511   6.026   5.853   4.663  0.9995  0.0637  0.1992
 3538SOL     OW11512   0.609   0.529   6.263  0.4116 -0.6165 -0.4615
 3538SOL    HW111513   0.580   0.457   6.201  0.0290  1.0888 -2.3614
 3538SOL    HW211514   0.707   0.546   6.252  0.3654 -0.3793 -0.5113
 3539SOL     OW11515   4.206   4.671   5.377  0.0370 -0.2625 -0.2208
 3539SOL    HW111516   4.137   4.742   5.362 -0.1052 -0.4731 -0.5679
 3539SOL    HW211517   4.179   4.615   5.456  0.0166 -0.0928 -0.1065
 3540SOL     OW11518   0.415   5.531   6.268 -0.4732  0.5541 -0.2013
 3540SOL    HW111519   0.464   5.523   6.181  0.0187  0.8038  0.0485
 3540SOL    HW211520   0.411   5.442   6.312  0.7585  0.7393  0.3089
 3541SOL     OW11521   2.758   4.075   1.534  0.3015 -0.3854 -0.1264
 3541SOL    HW111522   2.796   4.039   1.620 -1.8697 -0.6309  0.7868
 3541SOL    HW211523   2.678   4.131   1.554  0.4978  0.6176 -1.9383
 3542SOL     OW11524   2.183   5.119   6.181  0.9315 -0.0412 -0.0374
 3542SOL    HW111525   2.266   5.169   6.154  1.1832 -0.2910  0.2624
 3542SOL    HW211526   2.179   5.033   6.131  0.1698  0.5518 -1.0249
 3543SOL     OW11527   5.059   0.574   5.938 -0.3099 -0.1440  0.1091
 3543SOL    HW111528   5.018   0.665   5.932 -0.2011 -0.1725 -1.7056
 3543SOL    HW211529   5.023   0.526   6.018 -1.3415  1.0110  0.3674
 3544SOL     OW11530   0.635   3.090   3.237 -0.0411  0.4292 -0.4945
 3544SOL    HW111531   0.577   3.162   3.200 -0.4939  0.7780  0.8398
 3544SOL    HW211532   0.586   3.040   3.308  0.3489 -1.0689 -1.2285
 3545SOL     OW11533   5.273   3.410   1.204  0.2962 -0.0671  0.6445
 3545SOL    HW111534   5.226   3.417   1.116  0.4650  0.1408  0.5702
 3545SOL    HW211535   5.368   3.437   1.193  0.1388  0.6769  1.0451
 3546SOL     OW11536   5.349   2.102   6.407  0.1247  0.0230 -0.3574
 3546SOL    HW111537   5.274   2.048   6.444 -0.3108  0.1970 -0.9712
 3546SOL    HW211538   5.319   2.197   6.395  0.0061 -0.1795 -1.8423
 3547SOL     OW11539   6.429   3.208   4.952 -0.5217 -0.4743 -0.7882
 3547SOL    HW111540   6.398   3.124   4.997 -1.0129 -1.2462 -2.5089
 3547SOL    HW211541   6.526   3.198   4.927  0.5311  0.9094  2.1694
 3548SOL     OW11542   1.576   0.612   6.572  0.6078  0.5326  0.5482
 3548SOL    HW111543   1.555   0.701   6.531 -0.1309 -0.5699 -1.6292
 3548SOL    HW211544   1.652   0.570   6.521 -1.7140 -1.8042 -1.2447
 3549SOL     OW11545   0.503   1.442   6.784  0.4340  0.2509 -0.1265
 3549SOL    HW111546   0.592   1.481   6.806  0.2231  0.1689  0.9236
 3549SOL    HW211547   0.435   1.477   6.848 -0.3610  0.5444 -1.0989
 3550SOL     OW11548   2.798   2.703   5.971 -0.5122 -0.5537  0.3560
 3550SOL    HW111549   2.799   2.611   6.009 -2.5583 -0.9246 -0.3552
 3550SOL    HW211550   2.805   2.698   5.871  0.5140  0.1484  0.3729
 3551SOL     OW11551   4.775   2.099   1.929 -0.5585 -0.2180 -0.1850
 3551SOL    HW111552   4.837   2.036   1.976  0.5185  1.2408  0.4375
 3551SOL    HW211553   4.686   2.099   1.976 -0.4165 -0.9092  0.0944
 3552SOL     OW11554   5.490   5.688   4.226  0.3385 -0.1301  0.1528
 3552SOL    HW111555   5.460   5.640   4.309  0.1841 -2.3064 -1.1145
 3552SOL    HW211556   5.426   5.762   4.206 -0.2495 -0.2953  1.3274
 3553SOL     OW11557   6.700   1.872   6.406 -0.4035 -0.4921  0.3399
 3553SOL    HW111558   6.621   1.876   6.344  0.2560 -1.2789 -0.5742
 3553SOL    HW211559   6.774   1.929   6.370 -0.8436  0.9934  1.6733
 3554SOL     OW11560   0.305   0.993   0.196  0.4235  0.5273 -0.2801
 3554SOL    HW111561   0.341   0.995   0.289 -0.9414  1.8795  0.2515
 3554SOL    HW211562   0.303   0.898   0.164 -1.5602 -0.3479  2.0894
 3555SOL     OW11563   3.540   3.381   0.271  0.5285 -0.2920 -0.7130
 3555SOL    HW111564   3.465   3.355   0.210 -0.4423 -2.8420  1.3642
 3555SOL    HW211565   3.503   3.421   0.355  1.7298  1.3418 -0.9018
 3556SOL     OW11566   6.502   1.920   2.711 -0.1629 -0.7700 -0.8376
 3556SOL    HW111567   6.492   1.829   2.752 -0.3640  0.9593  3.4232
 3556SOL    HW211568   6.412   1.963   2.705  0.2901  0.5605  1.0533
 3557SOL     OW11569   3.442   5.757   4.956  0.5907  0.5393  0.0869
 3557SOL    HW111570   3.413   5.816   4.881 -0.4411  1.2236  1.0012
 3557SOL    HW211571   3.380   5.768   5.033  2.3341  0.7722  1.5143
 3558SOL     OW11572   5.332   5.269   3.317  0.8142  0.1045  0.0826
 3558SOL    HW111573   5.315   5.187   3.263  0.9333  0.7107 -0.8836
 3558SOL    HW211574   5.423   5.262   3.360  1.1289  0.0450 -0.5837
 3559SOL     OW11575   1.541   0.994   6.142 -0.0158  0.3435  0.0489
 3559SOL    HW111576   1.547   0.993   6.242  0.2125  0.2153  0.0335
 3559SOL    HW211577   1.553   0.902   6.107 -2.5813 -0.0493  0.0398
 3560SOL     OW11578   6.255   1.105   4.968 -0.0516  0.1547 -0.1482
 3560SOL    HW111579   6.193   1.149   5.033 -0.0782 -0.8145  0.5040
 3560SOL    HW211580   6.243   1.006   4.973  0.7661  0.0135 -0.8141
 3561SOL     OW11581   2.994   0.244   4.784 -0.7097  1.0462  0.1773
 3561SOL    HW111582   3.069   0.266   4.722 -0.9292 -1.0422 -0.9515
 3561SOL    HW211583   2.909   0.238   4.733 -1.2338  1.0973  1.0190
 3562SOL     OW11584   1.810   2.909   2.344  0.1783 -0.0155 -0.6328
 3562SOL    HW111585   1.766   2.940   2.428 -1.0616 -1.7861 -0.5595
 3562SOL    HW211586   1.852   2.820   2.360  2.1972  0.7816 -1.2360
 3563SOL     OW11587   6.709   1.571   0.694 -0.4467  0.9832 -0.5495
 3563SOL    HW111588   6.643   1.510   0.738 -1.0910  1.8233 -0.3150
 3563SOL    HW211589   6.671   1.603   0.607 -0.6024  1.8954 -0.1609
 3564SOL     OW11590   2.162   2.075   1.668 -0.4962  0.3844  0.2918
 3564SOL    HW111591   2.194   1.981   1.652  0.4779  0.6896  0.3932
 3564SOL    HW211592   2.118   2.080   1.757  0.3542  0.2404  0.7305
 3565SOL     OW11593   3.650   5.588   4.969  0.0412  0.3582  0.1415
 3565SOL    HW111594   3.582   5.660   4.985 -2.0261 -1.5687  0.5950
 3565SOL    HW211595   3.740   5.619   5.000 -0.6808  2.8572 -0.0825
 3566SOL     OW11596   5.606   0.978   4.264 -0.0738  0.0489  0.6416
 3566SOL    HW111597   5.701   0.976   4.233 -0.2009  0.4022  0.2160
 3566SOL    HW211598   5.568   1.069   4.249 -0.4217 -0.0354  0.9911
 3567SOL     OW11599   6.924   6.143   1.143 -0.0243  0.1115 -0.4024
 3567SOL    HW111600   6.960   6.186   1.060 -0.1163 -0.0866 -0.5442
 3567SOL    HW211601   6.824   6.144   1.141 -0.1646 -3.4399 -2.1954
 3568SOL     OW11602   5.252   0.412   0.486 -0.3289  0.0614  0.1970
 3568SOL    HW111603   5.181   0.397   0.555 -1.2318  1.6987 -0.3051
 3568SOL    HW211604   5.341   0.420   0.531 -0.8243  0.5383  1.1407
 3569SOL     OW11605   3.241   3.280   4.115  0.5418  0.3266  0.2718
 3569SOL    HW111606   3.240   3.379   4.128  0.1396  0.1460  1.7927
 3569SOL    HW211607   3.277   3.259   4.024 -0.8326  1.9157 -0.7067
 3570SOL     OW11608   5.874   1.849   2.525  0.6690  0.3963  0.2279
 3570SOL    HW111609   5.906   1.938   2.557  1.3431  0.7885 -1.3880
 3570SOL    HW211610   5.778   1.837   2.548  0.9743  0.8357  1.8657
 3571SOL     OW11611   2.104   0.175   3.584 -0.0841 -0.6209  0.6742
 3571SOL    HW111612   2.187   0.228   3.604  0.7340 -1.8417  0.5836
 3571SOL    HW211613   2.091   0.105   3.654 -0.3277 -1.2796 -0.0168
 3572SOL     OW11614   0.005   6.353   5.611 -0.2692 -0.0436  0.0528
 3572SOL    HW111615  -0.004   6.347   5.711 -0.2111 -0.2972  0.0433
 3572SOL    HW211616  -0.044   6.277   5.569 -1.2876  0.7130 -0.1657
 3573SOL     OW11617   0.759   3.179   6.815 -0.9504  0.1394 -0.4928
 3573SOL    HW111618   0.798   3.094   6.852 -2.9376 -0.3795  0.5269
 3573SOL    HW211619   0.805   3.257   6.859 -0.4632 -0.4246  0.0368
 3574SOL     OW11620   5.503   0.872   6.919 -0.0124  0.8642  0.2177
 3574SOL    HW111621   5.552   0.917   6.845 -0.4348 -1.6798 -1.7413
 3574SOL    HW211622   5.552   0.790   6.947 -2.2288 -0.9390 -0.7808
 3575SOL     OW11623   5.586   5.773   3.025 -0.3908  0.2388  0.2037
 3575SOL    HW111624   5.668   5.794   3.080  1.4223 -1.7019 -1.5758
 3575SOL    HW211625   5.529   5.707   3.073  0.0653  0.1862  0.6839
 3576SOL     OW11626   0.525   3.648   0.640 -0.5023  0.1035 -0.4365
 3576SOL    HW111627   0.473   3.613   0.562 -1.8749 -0.4342  0.6822
 3576SOL    HW211628   0.514   3.587   0.718 -1.1437  1.8412  0.9112
 3577SOL     OW11629   2.891   0.065   6.578  0.4478 -0.0463  0.2872
 3577SOL    HW111630   2.853   0.118   6.502  1.4102 -0.7078 -0.6918
 3577SOL    HW211631   2.937  -0.016   6.542 -0.5469 -1.2814  1.7160
 3578SOL     OW11632   1.006   1.642   3.075 -0.3989 -0.1773 -0.0474
 3578SOL    HW111633   1.073   1.682   3.138 -1.0856  0.7424  0.1169
 3578SOL    HW211634   1.051   1.620   2.989  0.5719 -1.5179  0.7565
 3579SOL     OW11635   4.014   1.913   3.868 -0.0781  0.0739 -0.3509
 3579SOL    HW111636   3.973   1.907   3.777  0.9132 -1.6495 -0.7236
 3579SOL    HW211637   4.087   1.980   3.867 -0.5754  0.6259 -0.6047
 3580SOL     OW11638   1.186   2.934   1.505  0.1104  0.0063  0.1210
 3580SOL    HW111639   1.195   2.859   1.570 -1.5844  0.6553  1.1746
 3580SOL    HW211640   1.191   2.898   1.412 -1.7372 -1.6111  0.5782
 3581SOL     OW11641   3.518   0.884   3.195  0.0820  0.0964 -0.8146
 3581SOL    HW111642   3.525   0.855   3.290 -1.0717 -1.2101 -1.0950
 3581SOL    HW211643   3.609   0.905   3.160  0.5686  0.1870  0.4401
 3582SOL     OW11644   0.151   3.215   3.328 -0.4119  0.1469  0.3180
 3582SOL    HW111645   0.136   3.137   3.389 -0.6639 -0.5891 -0.6639
 3582SOL    HW211646   0.185   3.293   3.381  0.2246 -0.7457  1.2525
 3583SOL     OW11647   2.694   5.167   2.774  0.0980 -0.2586 -0.0059
 3583SOL    HW111648   2.641   5.232   2.828  0.2785 -1.3861  1.6146
 3583SOL    HW211649   2.792   5.182   2.790  0.1446 -0.8158  0.2750
 3584SOL     OW11650   6.319   6.410   3.005  0.6334 -0.0941 -0.7165
 3584SOL    HW111651   6.392   6.425   3.071  0.2446 -0.1412 -0.2655
 3584SOL    HW211652   6.241   6.469   3.028 -0.0506 -1.1410 -0.2743
 3585SOL     OW11653   0.288   1.374   0.005  0.1979 -0.1285 -0.3073
 3585SOL    HW111654   0.210   1.406  -0.049 -0.6569 -1.9009 -0.1826
 3585SOL    HW211655   0.315   1.283  -0.026  1.3472 -0.1045  0.5696
 3586SOL     OW11656   4.861   3.257   0.674  0.1716 -0.5093 -0.1239
 3586SOL    HW111657   4.913   3.230   0.593  1.5123  2.9060 -0.5767
 3586SOL    HW211658   4.770   3.286   0.647 -0.0460 -1.1539 -0.1069
 3587SOL     OW11659   3.115   0.556   5.165 -0.2833  0.0056  0.0182
 3587SOL    HW111660   3.166   0.510   5.238 -0.8102  0.3164  0.5928
 3587SOL    HW211661   3.086   0.488   5.097  0.4370 -0.2482 -0.0491
 3588SOL     OW11662   1.471   2.904   0.214  0.3278  0.0509  0.6072
 3588SOL    HW111663   1.437   2.813   0.238 -1.7095  1.0907  1.9380
 3588SOL    HW211664   1.402   2.973   0.236  1.2801  1.8408 -1.5740
 3589SOL     OW11665   0.007   0.790   0.357  0.7350 -0.3316 -0.2739
 3589SOL    HW111666  -0.014   0.696   0.385  0.6137 -0.3143 -0.3077
 3589SOL    HW211667   0.045   0.789   0.265 -1.9014 -0.1025 -1.4379
 3590SOL     OW11668   1.221   2.835   1.249 -0.0282  0.3772  0.1971
 3590SOL    HW111669   1.209   2.760   1.184  0.0844  0.1115  0.4810
 3590SOL    HW211670   1.184   2.919   1.209 -2.5159 -0.3005  0.8739
 3591SOL     OW11671   1.524   3.949   1.175  0.1466  0.2908 -0.0423
 3591SOL    HW111672   1.565   3.955   1.266 -1.3681  0.2434  0.6740
 3591SOL    HW211673   1.461   3.871   1.172 -0.0618  0.4790 -1.0360
 3592SOL     OW11674   1.534   5.816   3.928 -0.2149  0.4370  0.4055
 3592SOL    HW111675   1.542   5.775   4.019  1.3875  0.5479  0.3495
 3592SOL    HW211676   1.508   5.913   3.937  0.5501  0.6183  0.8032
 3593SOL     OW11677   4.022   6.763   0.952  0.4843 -0.0283 -0.1697
 3593SOL    HW111678   4.100   6.755   0.889  0.6687 -0.3258  0.0937
 3593SOL    HW211679   4.002   6.674   0.992  0.5480  0.2092  0.4087
 3594SOL     OW11680   1.959   6.721   4.940  0.6931 -0.4044 -0.8214
 3594SOL    HW111681   1.886   6.734   4.872 -0.9626  1.8809  1.1951
 3594SOL    HW211682   1.930   6.653   5.007  0.3894  0.4463 -0.0621
 3595SOL     OW11683   1.536   1.406   3.489 -0.3768 -0.3701  0.5165
 3595SOL    HW111684   1.603   1.403   3.563  0.6563  0.9959 -0.3130
 3595SOL    HW211685   1.448   1.373   3.523  0.4133 -1.1306  1.9456
 3596SOL     OW11686   2.755   6.806   1.837  0.2616 -0.3702  0.2519
 3596SOL    HW111687   2.786   6.711   1.840  0.1713 -0.4170 -0.2662
 3596SOL    HW211688   2.694   6.819   1.759  2.2032  0.7092 -1.1565
 3597SOL     OW11689   0.445   2.197   3.036  0.0282  0.1902  0.1705
 3597SOL    HW111690   0.530   2.244   3.062 -1.4190  2.8614  0.5193
 3597SOL    HW211691   0.369   2.234   3.091 -1.7493 -0.3380 -1.8077
 3598SOL     OW11692   1.258   2.895   5.830  0.1219 -0.0689  0.0857
 3598SOL    HW111693   1.263   2.821   5.762 -1.7120 -0.3974  0.2651
 3598SOL    HW211694   1.313   2.869   5.910 -0.1494 -1.0541 -0.0293
 3599SOL     OW11695   6.499   2.927   1.321  0.0812 -0.1883 -0.0725
 3599SOL    HW111696   6.543   2.893   1.238  0.2239  1.0328 -0.5187
 3599SOL    HW211697   6.424   2.988   1.297 -1.2197 -1.4229  0.6977
 3600SOL     OW11698   6.701   2.504   1.109  0.0210 -1.0473 -0.3780
 3600SOL    HW111699   6.786   2.488   1.060  0.5896 -0.6020  0.4407
 3600SOL    HW211700   6.652   2.580   1.067  1.4773  0.6827  0.9161
 3601SOL     OW11701   0.537   6.982   0.269 -1.5034 -0.5212  0.2692
 3601SOL    HW111702   0.608   7.052   0.268 -2.9362  1.0069 -1.0629
 3601SOL    HW211703   0.575   6.896   0.305  0.5072  0.6919  1.2072
 3602SOL     OW11704   5.482   4.284   6.403  0.3187  0.4614 -0.4070
 3602SOL    HW111705   5.455   4.191   6.377 -1.9821  1.3227 -1.3420
 3602SOL    HW211706   5.527   4.281   6.493  0.3572 -1.5361 -0.4402
 3603SOL     OW11707   2.519   6.453   2.450  0.1094  0.4328  0.3846
 3603SOL    HW111708   2.531   6.439   2.548  0.0829  0.0047  0.3290
 3603SOL    HW211709   2.522   6.365   2.403  3.6828  0.7978 -0.4101
 3604SOL     OW11710   2.552   1.154   6.822  0.3805 -0.2480 -0.4757
 3604SOL    HW111711   2.639   1.204   6.820 -0.3292  0.9969 -0.8993
 3604SOL    HW211712   2.493   1.194   6.892 -0.4629 -0.0279 -1.2953
 3605SOL     OW11713   5.955   5.125   3.222  0.0388 -0.4971 -0.0326
 3605SOL    HW111714   5.973   5.158   3.129 -1.3183  2.9771  0.7637
 3605SOL    HW211715   5.992   5.191   3.288 -1.3455 -1.4968  1.8373
 3606SOL     OW11716   6.381   5.523   2.165  0.0147  0.1445 -0.1763
 3606SOL    HW111717   6.371   5.596   2.098 -0.2252 -0.8280 -1.2267
 3606SOL    HW211718   6.389   5.435   2.118  3.0252 -0.2877  0.9250
 3607SOL     OW11719   0.380   0.989   1.459  0.6789 -0.2581 -0.2550
 3607SOL    HW111720   0.367   1.086   1.440  0.8669 -0.2599 -0.4007
 3607SOL    HW211721   0.291   0.943   1.459  0.5225  0.0416  0.5564
 3608SOL     OW11722   3.092   2.029   0.220  0.1954  0.0836  0.0850
 3608SOL    HW111723   3.145   2.017   0.135  0.7065  0.9611  0.2686
 3608SOL    HW211724   3.058   1.940   0.250  0.0294 -0.2442 -1.0276
 3609SOL     OW11725   0.588   1.000   1.258  0.1906 -0.0336  0.8278
 3609SOL    HW111726   0.605   0.903   1.241 -0.0585 -0.0659  0.7572
 3609SOL    HW211727   0.502   1.010   1.309 -0.6310  0.2377 -0.5546
 3610SOL     OW11728   2.428   6.060   6.466 -0.2812 -0.3315 -0.2022
 3610SOL    HW111729   2.336   6.099   6.454 -1.0496 -1.7716  0.7558
 3610SOL    HW211730   2.470   6.045   6.376 -2.1026 -2.1989 -0.8111
 3611SOL     OW11731   5.581   4.944   6.671  0.1029  0.7650  0.7942
 3611SOL    HW111732   5.615   4.911   6.759  0.3782  2.0652  1.2054
 3611SOL    HW211733   5.577   4.869   6.606  2.9192  0.3532  0.9922
 3612SOL     OW11734   3.745   3.729   1.810 -0.0094 -0.4219  0.7294
 3612SOL    HW111735   3.807   3.789   1.861 -0.2053  1.1429 -0.7696
 3612SOL    HW211736   3.795   3.688   1.734 -0.4428 -0.3265  0.3915
 3613SOL     OW11737   6.749   0.317   4.163 -0.2188  0.4785  0.4825
 3613SOL    HW111738   6.787   0.263   4.088 -1.2408  1.8410 -1.0886
 3613SOL    HW211739   6.813   0.316   4.241  0.3232 -1.9351  0.0881
 3614SOL     OW11740   2.529   1.193   4.248 -0.3439 -0.6000  0.3153
 3614SOL    HW111741   2.529   1.098   4.280 -1.0621 -0.8614 -0.4345
 3614SOL    HW211742   2.497   1.253   4.321 -0.0077 -0.9451  0.7517
 3615SOL     OW11743   0.624   2.620   4.713  0.1348  0.2513  0.0742
 3615SOL    HW111744   0.532   2.591   4.738 -0.1942  0.3120 -0.9897
 3615SOL    HW211745   0.681   2.626   4.795 -0.6926 -0.1748  0.6975
 3616SOL     OW11746   0.475   4.388   5.080 -0.1231 -0.5024 -0.1814
 3616SOL    HW111747   0.562   4.340   5.067  0.5308  0.2541  1.1456
 3616SOL    HW211748   0.444   4.425   4.993  0.9773 -0.6513 -0.6540
 3617SOL     OW11749   4.089   3.617   2.122  0.3529  0.1378  0.2589
 3617SOL    HW111750   4.002   3.666   2.129 -0.0871 -0.6199  0.1071
 3617SOL    HW211751   4.119   3.589   2.213  0.2593  0.0884  0.2745
 3618SOL     OW11752   3.409   5.511   3.448  0.1674  0.1522  0.3337
 3618SOL    HW111753   3.482   5.453   3.485 -0.6785 -0.3281  1.3027
 3618SOL    HW211754   3.412   5.508   3.349  0.6124 -0.9629  0.3622
 3619SOL     OW11755   5.019   4.912   2.001  0.1325 -0.4594  0.4803
 3619SOL    HW111756   4.973   4.825   2.019  0.4712 -0.7582 -0.0603
 3619SOL    HW211757   4.955   4.975   1.958 -0.7417  0.3299  2.7907
 3620SOL     OW11758   3.045   0.842   5.500  0.0344  0.1975  0.1584
 3620SOL    HW111759   3.011   0.764   5.553  1.3410 -0.1319  0.5581
 3620SOL    HW211760   3.072   0.915   5.562  4.7861 -1.4313  0.4169
 3621SOL     OW11761   5.577   4.460   6.708  0.5213 -0.2279 -0.0778
 3621SOL    HW111762   5.602   4.495   6.798  0.3421 -0.1400 -0.0623
 3621SOL    HW211763   5.658   4.424   6.663  0.5404 -0.6451  0.2859
 3622SOL     OW11764   3.698   6.213   4.010  0.4515  0.0581 -0.1313
 3622SOL    HW111765   3.690   6.298   3.959  0.6772  0.9769  1.3027
 3622SOL    HW211766   3.672   6.136   3.952 -0.9322  1.2176 -1.0983
 3623SOL     OW11767   1.651   3.817   4.544  0.6507  0.9418  0.6541
 3623SOL    HW111768   1.690   3.741   4.492  0.1840  1.0286  0.1615
 3623SOL    HW211769   1.611   3.782   4.629 -1.1860  0.3191 -0.3961
 3624SOL     OW11770   3.190   0.508   6.961 -0.2771 -0.2648 -0.2055
 3624SOL    HW111771   3.194   0.529   6.864  0.4030 -1.3001 -0.4151
 3624SOL    HW211772   3.113   0.447   6.979 -0.4156 -0.0563 -0.0976
 3625SOL     OW11773   1.266   3.049   6.205 -0.2212  0.1939  0.1038
 3625SOL    HW111774   1.216   3.056   6.290  0.1661  0.6254  0.2978
 3625SOL    HW211775   1.310   2.959   6.200 -3.5474 -1.5321 -1.4928
 3626SOL     OW11776   1.041   0.134   4.128 -0.6544  0.2116 -0.2611
 3626SOL    HW111777   1.035   0.056   4.065  0.0629 -0.3834  0.3805
 3626SOL    HW211778   0.988   0.210   4.092 -1.4066 -0.5859 -0.8896
 3627SOL     OW11779   5.210   1.957   3.284 -0.0949  0.1797  0.0908
 3627SOL    HW111780   5.230   1.862   3.257  0.3132  0.4414 -0.5602
 3627SOL    HW211781   5.117   1.980   3.255  0.6249  0.7319 -1.9816
 3628SOL     OW11782   4.797   1.293   4.277 -0.3649 -0.1450 -0.2236
 3628SOL    HW111783   4.839   1.242   4.352 -2.2276  0.2589  1.1676
 3628SOL    HW211784   4.811   1.244   4.191  0.4215 -1.4785  0.6343
 3629SOL     OW11785   2.537   0.164   4.030 -0.2467 -0.4343 -0.0066
 3629SOL    HW111786   2.543   0.180   4.129  1.6178  0.1069 -0.1763
 3629SOL    HW211787   2.451   0.118   4.009 -0.9475 -0.0169  1.7928
 3630SOL     OW11788   4.054   6.439   1.934 -0.1991  0.7926  0.0419
 3630SOL    HW111789   4.109   6.436   1.850 -1.0973  0.5263 -0.5532
 3630SOL    HW211790   4.080   6.363   1.994 -2.4526 -1.7161 -1.9074
 3631SOL     OW11791   0.132   1.999   1.517 -0.3260 -0.2762 -0.1975
 3631SOL    HW111792   0.138   2.085   1.468  0.3919 -0.1787  0.0500
 3631SOL    HW211793   0.116   2.016   1.614  0.6359 -0.3834 -0.0094
 3632SOL     OW11794   6.115   6.298   6.694  0.6502  0.1220 -0.1828
 3632SOL    HW111795   6.213   6.283   6.704  0.8086  1.2784  0.2297
 3632SOL    HW211796   6.065   6.217   6.724  1.4687 -0.2998  0.0620
 3633SOL     OW11797   0.379   6.519   0.637 -0.3696  0.0339  0.1677
 3633SOL    HW111798   0.294   6.571   0.624 -1.1600 -0.8372  1.5151
 3633SOL    HW211799   0.451   6.580   0.669 -1.1788  0.3997  1.3749
 3634SOL     OW11800   6.819   5.445   2.601  0.8445  0.2023  0.5941
 3634SOL    HW111801   6.879   5.431   2.679  0.6927 -0.1242  0.6523
 3634SOL    HW211802   6.796   5.357   2.559 -0.2471  0.2360  1.0709
 3635SOL     OW11803   2.475   6.394   1.561 -0.3009  1.0788  0.0834
 3635SOL    HW111804   2.451   6.297   1.571  0.7010  0.8461  0.4000
 3635SOL    HW211805   2.440   6.445   1.640 -1.7070  1.1703 -0.5743
 3636SOL     OW11806   1.461   1.399   0.365  1.3406 -0.0780 -0.2873
 3636SOL    HW111807   1.526   1.412   0.289  1.5419 -2.9360 -0.7248
 3636SOL    HW211808   1.490   1.320   0.419 -0.6308 -0.1055  0.7885
 3637SOL     OW11809   5.517   0.743   3.337 -0.5506 -0.4132 -0.6158
 3637SOL    HW111810   5.584   0.798   3.388 -1.0927  0.4543 -0.8131
 3637SOL    HW211811   5.491   0.792   3.253 -1.2248 -0.8643 -0.6775
 3638SOL     OW11812   6.737   4.380   1.945  0.0105  0.3934  0.0506
 3638SOL    HW111813   6.794   4.461   1.930  0.8003 -0.4983 -2.2566
 3638SOL    HW211814   6.752   4.314   1.871 -3.2969 -0.3322 -0.1555
 3639SOL     OW11815   3.957   1.335   3.298  1.0189  0.3809 -0.9249
 3639SOL    HW111816   4.041   1.349   3.352  0.6196  0.2707 -0.2665
 3639SOL    HW211817   3.939   1.416   3.243  1.0780  0.7552 -0.3976
 3640SOL     OW11818   0.927   3.524   6.085  0.0003 -0.0055  0.5486
 3640SOL    HW111819   0.970   3.601   6.038 -0.7624  0.3607  0.4257
 3640SOL    HW211820   0.831   3.519   6.058 -0.0370 -0.7994  0.8146
 3641SOL     OW11821   4.989   3.514   0.684 -0.6155 -0.2768  0.2210
 3641SOL    HW111822   4.954   3.421   0.677 -0.0686 -0.5344  0.8576
 3641SOL    HW211823   4.913   3.578   0.692 -1.0368 -0.5779 -1.0244
 3642SOL     OW11824   6.307   4.114   4.064 -0.2497  0.2297  0.2335
 3642SOL    HW111825   6.372   4.128   3.989 -0.7163  0.9820 -0.0417
 3642SOL    HW211826   6.345   4.049   4.130  0.4585  0.0928 -0.3046
 3643SOL     OW11827   4.563   3.743   1.569 -0.2516  0.1672 -0.0118
 3643SOL    HW111828   4.612   3.656   1.572 -0.0965  0.2634  0.3256
 3643SOL    HW211829   4.627   3.818   1.584 -0.3708  0.3481 -0.3849
 3644SOL     OW11830   1.350   1.133   3.726  0.5005 -0.1915  0.5216
 3644SOL    HW111831   1.263   1.089   3.748  0.5569 -0.0505  1.0592
 3644SOL    HW211832   1.425   1.076   3.758  0.6368 -0.7327 -0.7302
 3645SOL     OW11833   1.598   2.025   2.275 -0.4078 -0.1434 -0.2748
 3645SOL    HW111834   1.528   2.057   2.339  0.5685  2.3288 -0.3164
 3645SOL    HW211835   1.556   2.005   2.186 -1.3581 -0.9077  0.3287
 3646SOL     OW11836   3.054   3.590   3.343  0.3403 -0.1511  0.4140
 3646SOL    HW111837   3.048   3.490   3.351  1.4903 -0.2343  0.4210
 3646SOL    HW211838   3.059   3.630   3.434  2.2768 -0.2782  0.3912
 3647SOL     OW11839   1.680   3.815   0.760 -0.1722  0.1751 -0.7284
 3647SOL    HW111840   1.624   3.768   0.692  1.1164 -0.5989 -1.2947
 3647SOL    HW211841   1.633   3.898   0.791 -1.6563 -0.4967 -1.0889
 3648SOL     OW11842   4.025   1.190   3.826 -0.0677 -0.0360 -0.2082
 3648SOL    HW111843   4.080   1.121   3.873  0.7769  0.1702 -0.8679
 3648SOL    HW211844   4.015   1.271   3.884 -0.4201 -0.4128  0.2609
 3649SOL     OW11845   4.888   5.222   4.383 -0.0438  0.6629 -0.5934
 3649SOL    HW111846   4.979   5.181   4.379  0.5493  1.9670 -1.0543
 3649SOL    HW211847   4.848   5.221   4.292 -0.2984  0.5153 -0.4795
 3650SOL     OW11848   3.737   3.783   5.414  0.2638 -0.7295  0.3466
 3650SOL    HW111849   3.652   3.737   5.437 -0.5237 -0.1294 -1.1986
 3650SOL    HW211850   3.811   3.716   5.407 -0.9865 -1.9615 -2.5296
 3651SOL     OW11851   0.529   1.952   1.765 -0.3267  1.1882 -0.0376
 3651SOL    HW111852   0.523   1.940   1.864 -0.2564 -0.5137 -0.2123
 3651SOL    HW211853   0.621   1.927   1.734 -1.2302 -1.4402 -0.8653
 3652SOL     OW11854   0.610   2.772   4.460 -0.3206 -0.0175  0.3692
 3652SOL    HW111855   0.665   2.719   4.395 -0.6684 -1.8481  1.4902
 3652SOL    HW211856   0.604   2.722   4.547 -1.1174  1.6503  1.3225
 3653SOL     OW11857   0.798   2.607   4.921 -0.3203  0.0573 -0.6009
 3653SOL    HW111858   0.883   2.554   4.930  0.1548  0.8372 -0.4252
 3653SOL    HW211859   0.814   2.701   4.950 -1.5575 -0.0733  0.5792
 3654SOL     OW11860   0.067   4.261   5.280  0.4899  0.3174  0.3111
 3654SOL    HW111861   0.036   4.167   5.297  0.8627 -0.1235 -1.2219
 3654SOL    HW211862   0.167   4.262   5.269  0.5622  1.0104  0.9330
 3655SOL     OW11863   3.785   3.539   4.463 -0.4978  0.4447 -0.2336
 3655SOL    HW111864   3.785   3.439   4.461  2.0279  0.2166  2.7282
 3655SOL    HW211865   3.866   3.573   4.416 -0.8462  1.0222 -0.4136
 3656SOL     OW11866   4.129   1.387   5.798 -0.3280 -0.5033 -0.6490
 3656SOL    HW111867   4.207   1.352   5.747  0.4685 -0.0540  0.2159
 3656SOL    HW211868   4.083   1.458   5.745  1.0748  0.6565 -0.3782
 3657SOL     OW11869   1.372   3.928   5.218  0.1858  0.2211  0.6036
 3657SOL    HW111870   1.313   3.872   5.160 -2.9895  2.1677  1.6427
 3657SOL    HW211871   1.359   3.900   5.314  4.5710 -2.2808  0.7101
 3658SOL     OW11872   6.824   0.365   5.668 -0.1692 -0.6934  0.3321
 3658SOL    HW111873   6.847   0.458   5.695  0.6374 -1.3754  2.1232
 3658SOL    HW211874   6.802   0.364   5.570  0.8394  1.1835  0.0280
 3659SOL     OW11875   3.383   3.533   2.658  0.0515  0.2489  0.6603
 3659SOL    HW111876   3.335   3.506   2.741  3.1825 -1.7704  2.0266
 3659SOL    HW211877   3.332   3.504   2.577 -0.7790 -2.2241  1.9932
 3660SOL     OW11878   0.013   0.281   1.326  0.3087  0.0763 -0.1057
 3660SOL    HW111879   0.007   0.376   1.356 -2.6317 -0.1208  0.2148
 3660SOL    HW211880   0.076   0.274   1.249 -0.9834  2.6929 -1.5203
 3661SOL     OW11881   1.686   4.828   0.443  0.6099  0.3048 -0.0807
 3661SOL    HW111882   1.774   4.783   0.428  1.5806  1.6036  1.3680
 3661SOL    HW211883   1.688   4.921   0.406 -0.4859  0.0629 -0.8145
 3662SOL     OW11884   3.582   3.877   2.972 -0.1263 -0.0891 -0.1302
 3662SOL    HW111885   3.582   3.867   3.072 -0.3067  1.4176  0.0429
 3662SOL    HW211886   3.488   3.870   2.938 -0.1017 -0.2618 -0.1665
 3663SOL     OW11887   0.859   1.515   6.348 -0.1413  0.0944  0.5704
 3663SOL    HW111888   0.842   1.435   6.405 -2.3646  0.2287  0.1808
 3663SOL    HW211889   0.898   1.486   6.261 -0.2837 -0.5036  0.6995
 3664SOL     OW11890   6.922   0.585   1.748  0.1052 -0.0003  0.1855
 3664SOL    HW111891   6.951   0.542   1.663 -0.0873 -0.1702  0.2060
 3664SOL    HW211892   6.933   0.521   1.824 -1.3285 -0.4502  0.0436
 3665SOL     OW11893   1.650   2.426   3.761 -0.1048  0.1574 -0.2564
 3665SOL    HW111894   1.609   2.401   3.848 -0.1372 -0.7779 -0.5288
 3665SOL    HW211895   1.716   2.356   3.734  2.3694  2.0083  0.5858
 3666SOL     OW11896   3.410   0.135   6.607  0.0407  0.9307 -0.2078
 3666SOL    HW111897   3.492   0.167   6.654  0.1112  0.6089 -0.1081
 3666SOL    HW211898   3.375   0.053   6.653  0.5777  0.1325 -1.1889
 3667SOL     OW11899   0.076   5.551   4.335  0.3350  0.2556 -0.4649
 3667SOL    HW111900   0.050   5.612   4.410  0.1404 -1.0705  0.5830
 3667SOL    HW211901   0.009   5.477   4.327 -0.7441  1.4095 -3.2502
 3668SOL     OW11902   0.064   5.200   0.570 -0.5255  0.2786 -0.1391
 3668SOL    HW111903   0.074   5.132   0.643 -1.4124 -0.1705 -0.4348
 3668SOL    HW211904   0.000   5.271   0.599 -0.4910  0.3689 -0.2826
 3669SOL     OW11905   1.689   5.901   5.410  0.4557 -0.3443  0.3342
 3669SOL    HW111906   1.639   5.815   5.417  0.2077 -0.0493  3.3546
 3669SOL    HW211907   1.647   5.959   5.340  0.4369 -2.4714 -1.5278
 3670SOL     OW11908   5.406   5.119   3.934  0.1390 -0.1601  0.5437
 3670SOL    HW111909   5.421   5.186   4.007  2.1818  0.2805 -0.2103
 3670SOL    HW211910   5.489   5.112   3.878 -0.3334 -2.6512  0.0360
 3671SOL     OW11911   5.444   4.184   4.538 -0.0164 -0.2938 -0.0822
 3671SOL    HW111912   5.370   4.130   4.499 -0.1406 -0.1178 -0.0874
 3671SOL    HW211913   5.514   4.201   4.468  0.8895 -1.9537  0.3564
 3672SOL     OW11914   0.616   0.126   1.850  0.0490 -0.7616  0.2255
 3672SOL    HW111915   0.599   0.040   1.801  0.8532 -0.3815 -0.7568
 3672SOL    HW211916   0.715   0.139   1.861 -0.0302  0.4188 -0.3327
 3673SOL     OW11917   2.361   0.818   2.569  0.0293  0.0334  0.7324
 3673SOL    HW111918   2.332   0.914   2.572  0.0772  0.1046 -0.5437
 3673SOL    HW211919   2.373   0.790   2.474  2.0108 -0.6291  1.1262
 3674SOL     OW11920   3.459   2.707   5.320 -0.2695 -0.2932 -0.0197
 3674SOL    HW111921   3.418   2.617   5.304 -1.3476  0.3661 -1.1560
 3674SOL    HW211922   3.557   2.703   5.305 -0.5259 -0.9229 -1.6654
 3675SOL     OW11923   5.667   4.430   4.215 -0.1110  0.4489 -0.2136
 3675SOL    HW111924   5.706   4.399   4.128  3.1071  0.4095  1.0907
 3675SOL    HW211925   5.593   4.494   4.197  0.4698  0.4905 -2.9804
 3676SOL     OW11926   4.976   4.173   1.745 -0.5916 -0.0228 -0.5089
 3676SOL    HW111927   5.039   4.121   1.802 -0.3237 -0.2680 -1.0223
 3676SOL    HW211928   4.898   4.203   1.800 -0.4537 -0.4592 -0.0703
 3677SOL     OW11929   5.645   4.168   0.606  0.0871 -0.9649 -0.6939
 3677SOL    HW111930   5.560   4.219   0.593 -0.1401 -1.2042 -0.1417
 3677SOL    HW211931   5.628   4.071   0.590  0.7586 -0.7881 -2.8784
 3678SOL     OW11932   1.277   5.726   0.328 -0.4734 -0.2542 -0.2341
 3678SOL    HW111933   1.204   5.660   0.345  0.1901 -0.7267  0.8762
 3678SOL    HW211934   1.260   5.773   0.241 -2.8167  0.6357  0.6400
 3679SOL     OW11935   6.806   6.684   2.917  0.2289 -0.1248 -0.2590
 3679SOL    HW111936   6.791   6.597   2.965  1.7542 -0.1243  0.2992
 3679SOL    HW211937   6.898   6.717   2.939 -0.0190  1.1999 -1.1589
 3680SOL     OW11938   0.588   4.579   3.804  0.1908 -0.1591 -0.2874
 3680SOL    HW111939   0.621   4.632   3.726 -0.0952  0.8163  0.2425
 3680SOL    HW211940   0.666   4.537   3.851  0.5308  0.6435 -0.1157
 3681SOL     OW11941   3.850   0.878   1.855 -0.8330 -0.2898  0.3386
 3681SOL    HW111942   3.809   0.791   1.829 -0.5811 -0.4392  0.4411
 3681SOL    HW211943   3.812   0.909   1.942 -1.9388  0.3831 -0.3638
 3682SOL     OW11944   5.927   6.462   6.196  0.2375  0.1801 -0.2713
 3682SOL    HW111945   5.915   6.549   6.244 -0.0942 -0.1004  0.1606
 3682SOL    HW211946   5.874   6.391   6.243  1.4567 -0.5129  0.0992
 3683SOL     OW11947   4.418   1.689   0.441 -0.2005 -0.0445  0.1714
 3683SOL    HW111948   4.394   1.758   0.509  0.5663  0.3324  0.0738
 3683SOL    HW211949   4.379   1.601   0.467  1.2575 -0.2404  1.8892
 3684SOL     OW11950   3.623   3.674   3.994 -0.0798 -0.0650  0.3629
 3684SOL    HW111951   3.615   3.581   4.029  1.1440  0.1839  1.3731
 3684SOL    HW211952   3.713   3.686   3.952  0.5747  1.2103  2.0258
 3685SOL     OW11953   2.229   5.807   2.079  0.0647  0.7233 -0.5588
 3685SOL    HW111954   2.174   5.887   2.057  0.8908  1.3366 -0.4328
 3685SOL    HW211955   2.316   5.836   2.120 -0.3891 -0.2893  1.2410
 3686SOL     OW11956   6.638   2.119   5.081 -0.1468  0.0719 -0.2573
 3686SOL    HW111957   6.547   2.154   5.105  0.6635  2.4382 -0.4140
 3686SOL    HW211958   6.691   2.106   5.165 -0.2766 -0.3821 -0.2380
 3687SOL     OW11959   6.656   2.078   1.236  0.2512  0.0964  0.1050
 3687SOL    HW111960   6.642   2.176   1.249  2.0291  0.5261 -0.9811
 3687SOL    HW211961   6.726   2.046   1.298 -0.1862 -0.4610  0.3168
 3688SOL     OW11962   1.643   1.455   2.357  0.1653 -0.0534 -0.7487
 3688SOL    HW111963   1.594   1.539   2.335  1.9323  1.1524 -0.2514
 3688SOL    HW211964   1.670   1.456   2.453 -0.7369 -1.7196 -0.4395
 3689SOL     OW11965   4.515   6.331   1.703 -0.5047  0.0654  0.1035
 3689SOL    HW111966   4.556   6.241   1.693 -1.3260 -0.2069 -1.0455
 3689SOL    HW211967   4.503   6.373   1.613  3.0373  2.8525  0.7077
 3690SOL     OW11968   4.075   3.984   1.335  0.6025  0.6791 -0.0455
 3690SOL    HW111969   4.115   3.897   1.362  0.0640  0.5460  0.3541
 3690SOL    HW211970   4.088   3.999   1.237 -2.2127 -1.4589 -0.8962
 3691SOL     OW11971   3.382   5.854   6.623 -0.0421  0.0001  0.3772
 3691SOL    HW111972   3.299   5.825   6.671  0.2914 -0.1248  0.8906
 3691SOL    HW211973   3.430   5.922   6.679  0.6375 -0.5540  0.4694
 3692SOL     OW11974   1.472   3.417   6.457  0.3929  0.2851 -0.4099
 3692SOL    HW111975   1.496   3.514   6.455 -1.9330  0.9136 -1.7148
 3692SOL    HW211976   1.423   3.393   6.373  1.2914 -2.1558 -0.3262
 3693SOL     OW11977   6.494   6.409   3.217  0.6695 -0.9445 -0.4282
 3693SOL    HW111978   6.480   6.430   3.314  0.8275 -0.7843 -0.4395
 3693SOL    HW211979   6.549   6.326   3.208  1.1879 -0.6101 -0.3772
 3694SOL     OW11980   6.442   5.764   4.183 -0.0572  0.1795 -0.1750
 3694SOL    HW111981   6.381   5.801   4.252 -0.6297  2.1645 -1.6589
 3694SOL    HW211982   6.532   5.807   4.191 -0.8197  2.3191 -2.1199
 3695SOL     OW11983   3.231   5.714   3.944 -0.0699  0.4739  0.2989
 3695SOL    HW111984   3.251   5.790   3.883 -1.7915  0.4519 -0.3430
 3695SOL    HW211985   3.285   5.634   3.917  0.7011  1.0555  0.1024
 3696SOL     OW11986   0.043   6.183   0.221  0.0333 -0.0493  0.2156
 3696SOL    HW111987   0.081   6.158   0.310 -1.0983 -0.2460  0.6541
 3696SOL    HW211988   0.118   6.194   0.155  0.8455 -0.4000  1.0557
 3697SOL     OW11989   3.098   1.608   1.186  0.8156  0.1065  0.0205
 3697SOL    HW111990   3.091   1.686   1.124 -0.9819 -0.2138 -0.2257
 3697SOL    HW211991   3.190   1.604   1.225  1.6853  0.9005 -1.8457
 3698SOL     OW11992   0.501   4.654   0.256  0.1574 -0.2595 -0.4446
 3698SOL    HW111993   0.442   4.586   0.300 -0.1517  0.1959 -0.1574
 3698SOL    HW211994   0.502   4.738   0.310  0.0110  0.2024 -1.1472
 3699SOL     OW11995   0.911   3.221   6.354  0.1749  0.1510  0.6908
 3699SOL    HW111996   0.924   3.166   6.271  0.7622  0.2145  0.7316
 3699SOL    HW211997   0.964   3.306   6.345 -1.4201  1.1290  0.2496
 3700SOL     OW11998   0.516   1.653   3.114  0.1502 -0.0516  0.4631
 3700SOL    HW111999   0.446   1.724   3.105 -0.7821 -1.0500 -0.3876
 3700SOL    HW212000   0.602   1.685   3.072 -0.6219  0.1056 -1.0619
 3701SOL     OW12001   3.204   6.924   6.033  0.0857  0.2327 -0.3735
 3701SOL    HW112002   3.195   7.008   5.979  1.2601  0.8173  0.3165
 3701SOL    HW212003   3.223   6.947   6.129 -1.7190 -0.7953  0.2755
 3702SOL     OW12004   2.959   6.425   5.625 -0.3359  0.3415  0.5418
 3702SOL    HW112005   2.950   6.333   5.588 -1.0418  0.4339  0.4661
 3702SOL    HW212006   2.871   6.454   5.663 -0.5365  1.5515 -0.7625
 3703SOL     OW12007   5.553   1.830   3.664  0.3653  0.0527 -0.2260
 3703SOL    HW112008   5.563   1.907   3.727  1.0490  0.2436 -0.5628
 3703SOL    HW212009   5.502   1.860   3.583  2.4555  0.7562 -1.3456
 3704SOL     OW12010   5.740   5.462   1.537  0.3848 -0.1738 -0.0415
 3704SOL    HW112011   5.726   5.363   1.538  0.1982 -0.1627  1.6415
 3704SOL    HW212012   5.836   5.483   1.550  0.6523 -0.1194 -1.8441
 3705SOL     OW12013   6.225   4.718   5.719  0.1533  0.1035  0.0692
 3705SOL    HW112014   6.194   4.665   5.640 -0.2719  0.2625  0.1255
 3705SOL    HW212015   6.170   4.694   5.799  1.1539 -0.6993  0.5311
 3706SOL     OW12016   2.923   1.412   0.000 -0.0884 -0.4581 -0.5175
 3706SOL    HW112017   2.922   1.365   0.089  3.0515 -0.4663 -0.3780
 3706SOL    HW212018   2.920   1.511   0.015  0.2333 -0.4637 -0.4064
 3707SOL     OW12019   2.366   4.280   4.154  0.0133 -0.3328  0.1429
 3707SOL    HW112020   2.377   4.373   4.190  2.9140 -0.0752 -1.0768
 3707SOL    HW212021   2.365   4.284   4.054  2.3845 -1.6797 -0.0110
 3708SOL     OW12022   3.255   3.688   1.129  0.3327 -0.6470  0.3055
 3708SOL    HW112023   3.339   3.641   1.158  0.6372  1.3084  3.0702
 3708SOL    HW212024   3.176   3.643   1.172  0.4453  0.1312  1.3748
 3709SOL     OW12025   6.342   1.925   0.504 -1.6364  0.0661 -0.1962
 3709SOL    HW112026   6.360   2.024   0.512 -0.6857 -0.0416 -0.8586
 3709SOL    HW212027   6.397   1.876   0.572  0.1549 -0.2012 -1.7216
 3710SOL     OW12028   1.434   1.646   3.909 -0.7376 -0.1030 -0.0669
 3710SOL    HW112029   1.459   1.550   3.913 -0.1361 -0.0232 -1.4456
 3710SOL    HW212030   1.447   1.688   3.999 -1.6346 -1.4338  0.7216
 3711SOL     OW12031   5.175   3.598   5.450  0.1980  0.1123  0.0992
 3711SOL    HW112032   5.200   3.682   5.499  0.4217  0.4872 -0.6458
 3711SOL    HW212033   5.193   3.610   5.352 -1.3790 -0.1888 -0.2575
 3712SOL     OW12034   5.059   5.380   2.288 -0.2609 -0.6711  0.2698
 3712SOL    HW112035   5.093   5.288   2.305 -0.6722 -0.9923 -0.5881
 3712SOL    HW212036   5.133   5.436   2.250 -0.7106 -1.4832 -1.9852
 3713SOL     OW12037   3.445   1.857   1.911 -0.2463  0.2728  0.4933
 3713SOL    HW112038   3.519   1.883   1.849  0.5854 -2.8856 -0.0223
 3713SOL    HW212039   3.465   1.768   1.951 -2.9142  0.1882  1.8535
 3714SOL     OW12040   5.022   2.815   6.275  0.0065 -0.1272  0.4277
 3714SOL    HW112041   5.107   2.783   6.235  0.2302 -0.2664  1.0085
 3714SOL    HW212042   4.983   2.887   6.218 -0.2064 -1.0230 -0.5842
 3715SOL     OW12043   3.402   2.137   6.569  0.3042  0.5777  0.1580
 3715SOL    HW112044   3.305   2.111   6.563  0.5762 -0.5092  0.3490
 3715SOL    HW212045   3.447   2.119   6.482  0.7186 -0.5736  0.5884
 3716SOL     OW12046   3.871   5.179   3.919  0.2571  0.5213  1.1057
 3716SOL    HW112047   3.905   5.185   4.013 -0.0971 -1.1492  1.3787
 3716SOL    HW212048   3.783   5.225   3.912 -0.5809 -0.8827  2.0614
 3717SOL     OW12049   0.806   4.959   4.607 -0.2204 -0.1482 -0.1031
 3717SOL    HW112050   0.800   5.031   4.676  0.1131  0.1981 -0.4306
 3717SOL    HW212051   0.788   4.997   4.517  0.4487 -0.3708 -0.3353
 3718SOL     OW12052   2.395   0.606   0.461 -0.1037 -0.2396 -0.2488
 3718SOL    HW112053   2.342   0.685   0.491  0.7143  0.3740 -0.3814
 3718SOL    HW212054   2.401   0.606   0.361 -0.2889 -0.5989 -0.2618
 3719SOL     OW12055   3.642   1.448   4.152  0.2757 -0.2938 -0.3077
 3719SOL    HW112056   3.635   1.515   4.079  0.0551  1.8486  1.5711
 3719SOL    HW212057   3.577   1.472   4.225  0.6539 -2.1981  0.7152
 3720SOL     OW12058   6.007   2.119   4.782 -0.2120 -0.1140  0.2335
 3720SOL    HW112059   6.066   2.159   4.711 -1.5715  0.7543 -0.4391
 3720SOL    HW212060   6.042   2.028   4.806  1.6238  0.5284  0.1593
 3721SOL     OW12061   0.143   6.645   0.564 -0.7741  0.2493  0.1194
 3721SOL    HW112062   0.058   6.680   0.522  0.5442  2.9641 -0.5017
 3721SOL    HW212063   0.212   6.717   0.563  1.0700 -1.3837  2.0924
 3722SOL     OW12064   3.541   1.434   2.598 -0.2370 -0.4065  0.2756
 3722SOL    HW112065   3.579   1.457   2.688  1.6427 -3.0017  0.2652
 3722SOL    HW212066   3.486   1.351   2.605 -2.2186  0.7628 -0.5864
 3723SOL     OW12067   2.065   6.024   2.078  0.6856 -0.2354 -0.2158
 3723SOL    HW112068   1.982   6.051   2.030  0.3541  0.0408  0.4921
 3723SOL    HW212069   2.140   6.085   2.054  0.1721  0.7879  0.6710
 3724SOL     OW12070   5.933   2.133   1.417 -0.1737 -0.1743 -0.2585
 3724SOL    HW112071   5.935   2.227   1.384  1.4782  0.5807  1.7824
 3724SOL    HW212072   5.980   2.074   1.351 -1.1667  0.3988 -1.5239
 3725SOL     OW12073   6.580   5.344   4.030 -0.5227  0.4047  0.0837
 3725SOL    HW112074   6.587   5.266   4.093 -0.4066 -0.6722 -1.2118
 3725SOL    HW212075   6.498   5.396   4.050 -0.8805 -0.3584  0.6399
 3726SOL     OW12076   4.564   1.829   5.463  0.0157  0.2586 -0.6467
 3726SOL    HW112077   4.514   1.865   5.543 -1.0140 -2.2712 -0.0637
 3726SOL    HW212078   4.501   1.819   5.386  0.2122 -0.4978 -0.7170
 3727SOL     OW12079   1.325   4.958   2.247  0.6353  0.0181  0.3513
 3727SOL    HW112080   1.377   4.995   2.170  2.3237 -0.9318  0.9828
 3727SOL    HW212081   1.309   5.031   2.315 -0.5483  0.7681 -0.6963
 3728SOL     OW12082   6.061   5.359   4.152 -0.6798 -0.3030  0.0404
 3728SOL    HW112083   6.047   5.411   4.068 -0.7813  0.1575  0.3367
 3728SOL    HW212084   6.136   5.295   4.140  0.4102  0.9164  0.1166
 3729SOL     OW12085   0.272   3.792   0.474  0.0422  0.4845  0.3544
 3729SOL    HW112086   0.248   3.833   0.386 -0.9302 -0.3768  0.2040
 3729SOL    HW212087   0.318   3.704   0.458 -1.2196 -0.2672  0.6867
 3730SOL     OW12088   5.764   1.711   6.363 -0.3676 -0.2411  0.3332
 3730SOL    HW112089   5.694   1.679   6.299  0.5866 -0.2491 -0.7346
 3730SOL    HW212090   5.851   1.668   6.341  0.7598  2.3241 -0.5867
 3731SOL     OW12091   1.240   1.988   4.173  0.2732 -0.0935 -0.2608
 3731SOL    HW112092   1.212   2.072   4.220 -1.1020  0.7124 -2.3772
 3731SOL    HW212093   1.329   2.002   4.130 -0.3225  0.6151 -1.3066
 3732SOL     OW12094   1.249   1.149   4.408  0.0304 -0.0249  0.2624
 3732SOL    HW112095   1.266   1.182   4.315 -0.8802  0.9081  0.4050
 3732SOL    HW212096   1.283   1.056   4.418 -0.5588 -0.4194 -1.2430
 3733SOL     OW12097   4.605   6.722   5.504  0.1132 -0.2541  0.0419
 3733SOL    HW112098   4.554   6.793   5.552  1.0285  0.4393  0.0240
 3733SOL    HW212099   4.576   6.632   5.537  0.6968  0.1988  1.9173
 3734SOL     OW12100   2.276   0.952   6.464  0.5393  0.0809 -0.6499
 3734SOL    HW112101   2.339   0.877   6.482 -2.7284 -2.9879 -1.0402
 3734SOL    HW212102   2.259   0.958   6.366 -0.3806  0.3210 -0.4812
 3735SOL     OW12103   2.621   5.855   3.904  0.1020 -0.6421  0.3265
 3735SOL    HW112104   2.662   5.771   3.941 -1.3478 -2.3723 -1.7559
 3735SOL    HW212105   2.689   5.903   3.848  0.2882 -1.7372 -0.4278
 3736SOL     OW12106   4.478   6.410   6.766  0.4190 -0.5152  0.5846
 3736SOL    HW112107   4.534   6.488   6.739  0.0801 -0.2800  0.5560
 3736SOL    HW212108   4.412   6.389   6.694  1.5270 -1.8173 -0.0981
 3737SOL     OW12109   5.096   0.595   3.939  0.3504 -0.6911 -0.4803
 3737SOL    HW112110   5.115   0.607   3.841 -2.0945 -2.3138 -1.2393
 3737SOL    HW212111   5.003   0.624   3.959  0.4374 -1.4184  1.1549
 3738SOL     OW12112   6.504   1.879   6.207  0.0274  0.4576  0.5331
 3738SOL    HW112113   6.509   1.877   6.107  0.0450  1.8085  0.4936
 3738SOL    HW212114   6.410   1.860   6.236 -0.5614  2.5161  0.1312
 3739SOL     OW12115   4.841   0.809   6.031  0.0286 -0.1061  0.4522
 3739SOL    HW112116   4.804   0.864   5.957 -1.1787 -0.1296  1.0055
 3739SOL    HW212117   4.920   0.855   6.071 -0.5053  0.8654  0.4215
 3740SOL     OW12118   5.463   2.747   2.126 -0.5613 -0.1860 -0.2061
 3740SOL    HW112119   5.500   2.833   2.161  0.2930 -0.2625 -0.8788
 3740SOL    HW212120   5.373   2.763   2.086 -0.9505  0.1543  0.7607
 3741SOL     OW12121   3.418   4.268   6.507 -0.0234  0.2398  0.2604
 3741SOL    HW112122   3.375   4.179   6.490  2.3317 -0.4194 -3.2586
 3741SOL    HW212123   3.501   4.256   6.561  0.7084  0.1265 -0.8567
 3742SOL     OW12124   1.339   3.198   6.630  0.7562  0.1806 -0.5494
 3742SOL    HW112125   1.287   3.275   6.667 -0.2425 -0.4005 -0.6896
 3742SOL    HW212126   1.433   3.226   6.613  1.8066  0.0940  3.9377
 3743SOL     OW12127   4.594   6.675   5.159 -0.4531 -0.5210  0.1132
 3743SOL    HW112128   4.620   6.749   5.222 -0.4287  0.8034 -1.3936
 3743SOL    HW212129   4.582   6.590   5.211  1.7181 -0.0051  1.6128
 3744SOL     OW12130   1.826   1.130   3.497  0.0574 -0.2610  0.0003
 3744SOL    HW112131   1.831   1.230   3.493 -0.9865 -0.1028  1.7411
 3744SOL    HW212132   1.744   1.100   3.448  1.2265 -0.4494 -1.9670
 3745SOL     OW12133   3.154   2.370   0.909 -0.4982 -0.6292  0.4094
 3745SOL    HW112134   3.093   2.443   0.879  2.0239  1.4327  0.0062
 3745SOL    HW212135   3.243   2.408   0.934  0.5838 -3.4561  1.2911
 3746SOL     OW12136   6.013   1.950   1.228  0.8446 -0.5074 -0.0774
 3746SOL    HW112137   5.944   1.894   1.182 -0.7450  2.4135 -1.5408
 3746SOL    HW212138   6.104   1.930   1.190  0.2020 -1.4261 -1.1875
 3747SOL     OW12139   6.864   4.713   1.245 -0.2138 -0.8434  0.4085
 3747SOL    HW112140   6.799   4.655   1.295  0.0567 -0.4963  1.1812
 3747SOL    HW212141   6.818   4.798   1.217  0.0934 -0.2463  1.6447
 3748SOL     OW12142   4.682   5.758   1.642 -0.3672  0.7752 -0.1294
 3748SOL    HW112143   4.600   5.802   1.678 -0.7537  0.7306 -0.9443
 3748SOL    HW212144   4.700   5.791   1.550 -0.4153 -0.4582 -0.5949
 3749SOL     OW12145   2.628   4.563   2.728  0.2062  0.4393 -0.1851
 3749SOL    HW112146   2.663   4.517   2.646  1.0509 -0.5048  0.6731
 3749SOL    HW212147   2.570   4.499   2.780 -0.4553  1.0813 -0.1222
 3750SOL     OW12148   2.191   0.625   2.692  0.2528 -1.2248  0.1595
 3750SOL    HW112149   2.271   0.600   2.746  0.2042 -0.5159  0.5681
 3750SOL    HW212150   2.213   0.703   2.633  0.1303 -1.6108 -0.4116
 3751SOL     OW12151   6.623   6.869   3.894  0.2804  0.4016  0.0816
 3751SOL    HW112152   6.542   6.899   3.843  0.3191  0.7752  0.2325
 3751SOL    HW212153   6.692   6.942   3.893 -0.2917  1.0399  1.9216
 3752SOL     OW12154   1.116   1.267   4.626  0.1609 -0.5252 -0.0302
 3752SOL    HW112155   1.150   1.202   4.557 -0.6329 -0.4495 -0.5002
 3752SOL    HW212156   1.181   1.342   4.635 -0.4056  0.2316 -1.7810
 3753SOL     OW12157   4.371   6.964   2.833 -0.2229 -0.1372  0.5781
 3753SOL    HW112158   4.291   6.910   2.806 -0.1604 -0.8703  1.8147
 3753SOL    HW212159   4.384   7.038   2.767  0.7716 -2.6106 -2.2315
 3754SOL     OW12160   2.302   2.308   6.365  0.0600  0.0941  0.1163
 3754SOL    HW112161   2.306   2.232   6.429 -1.3264 -1.0968 -1.1291
 3754SOL    HW212162   2.393   2.347   6.352  1.0332 -2.1899 -0.1950
 3755SOL     OW12163   2.030   4.396   2.316  0.3352  0.1091 -0.0086
 3755SOL    HW112164   2.086   4.326   2.274  1.2806  0.5439  0.4987
 3755SOL    HW212165   2.050   4.485   2.274 -1.0783  0.0509 -0.8652
 3756SOL     OW12166   3.296   0.979   2.132 -0.3677 -0.1770 -0.4141
 3756SOL    HW112167   3.261   0.903   2.078  0.1141 -0.9047  0.2672
 3756SOL    HW212168   3.396   0.975   2.134 -0.3821 -0.2563  0.6406
 3757SOL     OW12169   5.490   1.343   5.025 -0.0009  0.9540 -0.1999
 3757SOL    HW112170   5.555   1.288   5.077  0.4085  0.5574 -1.0936
 3757SOL    HW212171   5.526   1.356   4.932 -0.9627  1.1690 -0.5490
 3758SOL     OW12172   5.394   2.953   5.426  0.0718  0.3899  0.1773
 3758SOL    HW112173   5.422   2.857   5.419 -0.4823  0.0833  1.8438
 3758SOL    HW212174   5.345   2.979   5.343 -1.1164 -1.2273  0.3250
 3759SOL     OW12175   6.767   3.949   2.053  0.1781  0.1697  0.7981
 3759SOL    HW112176   6.770   3.860   2.006 -0.6864 -1.4047  3.4809
 3759SOL    HW212177   6.790   4.021   1.989  2.0962 -2.0828 -1.2408
 3760SOL     OW12178   2.023   2.428   6.890  0.3595  0.3254  0.3968
 3760SOL    HW112179   1.965   2.509   6.901  1.0614  0.8916 -0.0267
 3760SOL    HW212180   2.027   2.378   6.977 -2.4456 -0.8938 -0.0656
 3761SOL     OW12181   6.075   1.920   2.925  0.1217 -0.5914 -0.1514
 3761SOL    HW112182   6.043   1.966   3.008  0.8319  2.3889 -1.3834
 3761SOL    HW212183   6.126   1.838   2.949  0.0423  0.0299  2.3421
 3762SOL     OW12184   4.730   4.299   2.192  0.3854  0.2732  0.2157
 3762SOL    HW112185   4.783   4.215   2.198  1.5993  0.8512 -1.7295
 3762SOL    HW212186   4.651   4.286   2.132  0.4228  0.4538  0.1257
 3763SOL     OW12187   5.962   4.030   0.116 -0.8955 -0.4078  0.3057
 3763SOL    HW112188   5.884   4.024   0.178 -2.3681 -0.8525 -1.4653
 3763SOL    HW212189   5.967   3.946   0.061  1.3810 -0.7430  0.9363
 3764SOL     OW12190   3.144   3.104   2.940  0.2860 -0.0782  0.0692
 3764SOL    HW112191   3.111   3.165   2.868 -0.2426 -0.0967  0.2949
 3764SOL    HW212192   3.144   3.010   2.907 -2.1455 -0.4039  0.8063
 3765SOL     OW12193   0.021   2.653   3.579 -0.1517 -0.1550 -0.2559
 3765SOL    HW112194  -0.010   2.645   3.484 -1.5513  1.8939 -0.0284
 3765SOL    HW212195  -0.056   2.677   3.637  0.8927 -0.3695  1.2663
 3766SOL     OW12196   2.863   5.998   4.025  0.5972  0.0976  0.3528
 3766SOL    HW112197   2.834   6.020   4.118  3.7434  0.2530  1.4123
 3766SOL    HW212198   2.930   6.064   3.994  0.9436 -0.9838 -1.3565
 3767SOL     OW12199   0.081   2.884   6.727 -0.2483  0.0635 -0.3577
 3767SOL    HW112200   0.140   2.865   6.649 -1.7425 -1.7334 -1.1403
 3767SOL    HW212201   0.047   2.978   6.722  0.3684  0.2433 -1.3635
 3768SOL     OW12202   6.887   4.108   3.468 -0.2062  0.8582 -0.4113
 3768SOL    HW112203   6.793   4.107   3.502 -0.0000 -1.3354  0.2487
 3768SOL    HW212204   6.897   4.181   3.401 -2.5554  0.7373 -0.9841
 3769SOL     OW12205   1.082   1.134   3.256 -0.8487 -0.4778 -0.0566
 3769SOL    HW112206   1.069   1.220   3.206 -1.2880 -0.8965 -0.6848
 3769SOL    HW212207   1.177   1.127   3.286 -0.8190  0.2383  0.0216
 3770SOL     OW12208   3.410   1.521   4.612  0.3131 -0.6042 -0.3345
 3770SOL    HW112209   3.458   1.588   4.669 -0.7696  0.2892 -0.4271
 3770SOL    HW212210   3.312   1.528   4.629  0.1109 -1.5180 -1.0626
 3771SOL     OW12211   5.987   4.840   0.464 -0.0589  0.1400  0.2097
 3771SOL    HW112212   5.901   4.828   0.414 -0.4864  1.7995  0.4832
 3771SOL    HW212213   5.988   4.780   0.544 -0.3418 -0.9107 -0.5626
 3772SOL     OW12214   3.816   1.002   0.707  0.0980 -0.1831 -0.1223
 3772SOL    HW112215   3.869   1.056   0.642  0.4936  0.6154  0.8184
 3772SOL    HW212216   3.726   0.980   0.669  0.3667  0.1681 -0.9637
 3773SOL     OW12217   2.207   0.548   3.705 -0.2774  0.2731 -0.4876
 3773SOL    HW112218   2.211   0.494   3.788 -0.3936  0.3043 -0.4604
 3773SOL    HW212219   2.299   0.570   3.674 -0.2211 -0.2543 -0.7053
 3774SOL     OW12220   6.384   3.205   6.878  0.2454  0.2090 -0.5002
 3774SOL    HW112221   6.299   3.226   6.927  0.1597 -0.3366 -0.4131
 3774SOL    HW212222   6.403   3.107   6.884 -0.2036 -0.0101 -2.2765
 3775SOL     OW12223   2.197   1.092   1.220 -0.1030  0.1012  0.7215
 3775SOL    HW112224   2.162   1.064   1.309  0.0347  0.2783  0.8311
 3775SOL    HW212225   2.286   1.048   1.203  0.0561  0.3781  0.8413
 3776SOL     OW12226   0.216   3.213   2.346  0.0589  0.3465 -0.2917
 3776SOL    HW112227   0.189   3.298   2.393  1.1627  1.7654 -2.0842
 3776SOL    HW212228   0.171   3.209   2.257 -0.8074 -1.5292  0.1940
 3777SOL     OW12229   6.577   4.603   6.678  0.3376 -0.3326 -0.4589
 3777SOL    HW112230   6.484   4.568   6.688 -0.6734  0.7761 -4.3248
 3777SOL    HW212231   6.585   4.690   6.726 -1.2527  0.4129 -1.4376
 3778SOL     OW12232   6.586   0.683   0.110  0.4258 -0.3444 -0.5313
 3778SOL    HW112233   6.580   0.626   0.192 -3.1491  1.6900  0.8952
 3778SOL    HW212234   6.673   0.732   0.109  1.7830 -2.5991  0.4009
 3779SOL     OW12235   5.562   2.765   3.021  0.1198 -0.9739 -0.0285
 3779SOL    HW112236   5.545   2.680   3.071  1.2789 -1.1881  0.0404
 3779SOL    HW212237   5.475   2.807   2.995 -0.4922 -1.4156  1.2203
 3780SOL     OW12238   6.320   6.673   0.884  0.0502 -0.0797 -0.4469
 3780SOL    HW112239   6.347   6.769   0.878 -0.7097  0.1581 -0.1490
 3780SOL    HW212240   6.320   6.645   0.980 -0.6335 -0.1068 -0.4515
 3781SOL     OW12241   3.857   0.896   4.850 -0.1711  0.0129  0.2616
 3781SOL    HW112242   3.766   0.889   4.811 -0.2076 -0.2819  0.3946
 3781SOL    HW212243   3.894   0.988   4.834 -0.3634  0.0321 -0.0676
 3782SOL     OW12244   6.558   1.506   3.445  0.5616 -0.8229 -0.0366
 3782SOL    HW112245   6.482   1.555   3.402  2.2377 -1.0542 -3.6046
 3782SOL    HW212246   6.527   1.468   3.532 -1.8460  3.3524  1.2258
 3783SOL     OW12247   0.884   2.246   3.889  0.0406 -0.6633  0.3130
 3783SOL    HW112248   0.946   2.173   3.920  0.9466 -0.2696 -0.5235
 3783SOL    HW212249   0.891   2.255   3.790 -2.0876 -1.2518  0.0444
 3784SOL     OW12250   6.618   1.270   2.942 -0.5198 -0.4719 -0.3091
 3784SOL    HW112251   6.544   1.235   2.999  0.9908 -0.7149  1.5937
 3784SOL    HW212252   6.663   1.347   2.988  0.0228  0.0992 -1.7245
 3785SOL     OW12253   4.538   0.052   6.997 -0.9773  0.6775  0.2865
 3785SOL    HW112254   4.470   0.024   6.929 -0.8715 -0.2312  0.5530
 3785SOL    HW212255   4.501   0.128   7.051 -1.2314  1.1216 -0.4907
 3786SOL     OW12256   1.577   3.084   2.756  0.2356 -0.3072  0.2690
 3786SOL    HW112257   1.480   3.060   2.752  0.2070 -0.2732  0.7243
 3786SOL    HW212258   1.589   3.180   2.732 -0.0012  0.0656  1.5988
 3787SOL     OW12259   4.512   1.844   5.949  0.2057 -0.0948  0.0421
 3787SOL    HW112260   4.523   1.932   5.994 -2.1325 -0.2607  1.0920
 3787SOL    HW212261   4.467   1.857   5.861  2.0344 -0.0569 -0.9227
 3788SOL     OW12262   4.008   1.892   2.817 -0.4239 -0.2957  0.0563
 3788SOL    HW112263   3.961   1.882   2.729 -1.1228  0.0345  0.3823
 3788SOL    HW212264   4.069   1.970   2.814  0.7122 -1.1845 -0.6261
 3789SOL     OW12265   3.162   5.567   0.041 -0.8848 -0.2613 -0.0972
 3789SOL    HW112266   3.095   5.559   0.115 -1.4366 -1.0372 -0.6677
 3789SOL    HW212267   3.173   5.478  -0.003 -0.4563  0.1625 -0.8658
 3790SOL     OW12268   5.801   1.643   5.145 -0.2125 -0.5184 -0.3225
 3790SOL    HW112269   5.804   1.720   5.082 -0.1384 -0.3607 -0.1289
 3790SOL    HW212270   5.723   1.652   5.206  0.3429 -0.0776  0.3450
 3791SOL     OW12271   3.346   3.958   2.724 -0.2847 -0.1251 -0.0894
 3791SOL    HW112272   3.297   3.920   2.803 -0.3035  0.5519  0.2252
 3791SOL    HW212273   3.288   4.023   2.676  0.7078  1.6864  1.0413
 3792SOL     OW12274   4.894   6.954   3.063  0.1252 -0.1730 -0.6282
 3792SOL    HW112275   4.915   7.037   3.012 -0.8036  0.5395  0.1029
 3792SOL    HW212276   4.975   6.924   3.114  0.5506  0.1021 -1.1407
 3793SOL     OW12277   3.869   3.608   1.616  0.1056  0.5237 -0.6445
 3793SOL    HW112278   3.771   3.601   1.598 -0.2477  0.1261  1.1923
 3793SOL    HW212279   3.920   3.597   1.531 -1.4700  2.4136 -1.9256
 3794SOL     OW12280   5.774   3.377   3.572  0.6723  0.1351  0.0171
 3794SOL    HW112281   5.856   3.387   3.515  0.3069  0.0586 -0.5335
 3794SOL    HW212282   5.753   3.280   3.583  1.2525  0.1162  1.0348
 3795SOL     OW12283   1.553   4.282   4.902 -0.1835  0.6252 -0.8003
 3795SOL    HW112284   1.625   4.282   4.832  1.4875  1.6550  0.8399
 3795SOL    HW212285   1.563   4.201   4.960 -1.5258 -0.1917 -1.6592
 3796SOL     OW12286   1.687   6.513   0.626 -0.2786  0.1835 -0.2134
 3796SOL    HW112287   1.680   6.568   0.709  0.5711  2.1618 -1.3731
 3796SOL    HW212288   1.766   6.452   0.632  0.2705  0.9236  0.1043
 3797SOL     OW12289   3.405   2.495   5.789  0.0250 -0.9644  0.3019
 3797SOL    HW112290   3.440   2.573   5.842  1.0703 -2.3490  1.7569
 3797SOL    HW212291   3.311   2.475   5.817  0.5735 -1.6922  1.7234
 3798SOL     OW12292   3.817   0.539   6.765  0.8241  0.7402  0.0344
 3798SOL    HW112293   3.777   0.561   6.675 -0.1667  0.3604  0.3723
 3798SOL    HW212294   3.778   0.453   6.799  0.4437  1.3789  1.2689
 3799SOL     OW12295   1.853   1.346   6.522 -0.3693  0.6233 -0.1179
 3799SOL    HW112296   1.934   1.343   6.582  0.2113  2.4717 -0.7405
 3799SOL    HW212297   1.882   1.333   6.427 -0.9107  0.5374 -0.2715
 3800SOL     OW12298   2.589   5.948   1.873 -0.2817  0.0746  0.4639
 3800SOL    HW112299   2.686   5.943   1.848 -0.5500 -2.5188 -0.2836
 3800SOL    HW212300   2.545   6.021   1.820  1.0813  0.8414  0.3300
 3801SOL     OW12301   1.659   6.904   0.187 -0.3478 -0.2460  0.4402
 3801SOL    HW112302   1.654   6.814   0.231 -0.9406 -0.8406 -0.8002
 3801SOL    HW212303   1.753   6.939   0.193 -0.2570 -0.6300  1.5202
 3802SOL     OW12304   3.827   1.836   5.941 -0.1892  0.0719 -0.9242
 3802SOL    HW112305   3.803   1.766   5.874  0.8872  1.1898 -2.5679
 3802SOL    HW212306   3.927   1.844   5.946 -0.2823  0.8065 -0.0454
 3803SOL     OW12307   1.047   6.794   2.860 -0.1306 -0.2069  0.7156
 3803SOL    HW112308   1.132   6.760   2.819 -1.7433 -0.5752 -2.6363
 3803SOL    HW212309   1.060   6.889   2.888  0.4118  1.1790 -3.5537
 3804SOL     OW12310   2.798   1.117   0.923  0.0352  0.3552  0.1308
 3804SOL    HW112311   2.864   1.128   0.849  0.3481 -0.4114  0.2875
 3804SOL    HW212312   2.844   1.077   1.003 -0.5105  0.2778  0.4094
 3805SOL     OW12313   1.386   5.381   1.167  0.8078  0.1736  0.7888
 3805SOL    HW112314   1.417   5.324   1.242  1.1069 -2.0204 -0.9057
 3805SOL    HW212315   1.466   5.413   1.114  0.6150  1.8266  1.4216
 3806SOL     OW12316   5.072   2.143   1.688  0.9798  1.1912  0.1300
 3806SOL    HW112317   5.119   2.191   1.615 -0.0843  1.5112 -0.3711
 3806SOL    HW212318   5.045   2.209   1.759 -0.6756  1.4335 -0.6615
 3807SOL     OW12319   6.381   1.374   0.454  0.4578  0.0363 -0.3117
 3807SOL    HW112320   6.318   1.352   0.380 -1.7496  2.5360  0.6853
 3807SOL    HW212321   6.437   1.453   0.429 -0.0142  0.6446  0.4793
 3808SOL     OW12322   6.439   0.259   6.245 -0.1137 -0.1639  0.6692
 3808SOL    HW112323   6.514   0.197   6.267  0.9170  0.5922 -0.5736
 3808SOL    HW212324   6.352   0.215   6.268  0.6767 -1.1049  2.0260
 3809SOL     OW12325   0.245   6.691   5.327  0.3599  0.1933  0.2932
 3809SOL    HW112326   0.152   6.661   5.346 -0.1069  1.1376 -0.4067
 3809SOL    HW212327   0.288   6.629   5.262 -0.2220  0.4339 -0.3316
 3810SOL     OW12328   6.106   5.679   3.027 -0.3443 -0.1062  0.0356
 3810SOL    HW112329   6.076   5.686   2.932 -0.0487  2.6927  0.0521
 3810SOL    HW212330   6.026   5.663   3.086 -0.8709  0.4985 -0.4992
 3811SOL     OW12331   6.176   0.133   6.289 -0.5271  0.3058  0.1904
 3811SOL    HW112332   6.106   0.086   6.235 -0.6456 -0.4227  0.9443
 3811SOL    HW212333   6.176   0.096   6.382 -0.5649  1.7645  0.7937
 3812SOL     OW12334   3.479   5.616   4.352 -0.0278 -0.1358  0.4371
 3812SOL    HW112335   3.443   5.671   4.428 -0.4877 -0.3068  0.3493
 3812SOL    HW212336   3.403   5.567   4.308  0.3364 -0.6017  0.3220
 3813SOL     OW12337   3.636   6.377   4.409 -0.9353  0.1764  0.0656
 3813SOL    HW112338   3.664   6.324   4.489 -1.0853 -0.0534 -0.0323
 3813SOL    HW212339   3.553   6.429   4.430 -1.3535 -0.3993 -0.1437
 3814SOL     OW12340   5.176   4.045   1.227  0.2495  0.0586 -0.3800
 3814SOL    HW112341   5.195   4.036   1.325  2.9148 -0.7604 -0.9003
 3814SOL    HW212342   5.124   3.966   1.196  1.9197 -1.2106 -0.1170
 3815SOL     OW12343   6.126   5.390   4.422  0.2792 -0.4776 -0.0347
 3815SOL    HW112344   6.086   5.379   4.332  2.3311  0.4464 -1.1256
 3815SOL    HW212345   6.135   5.487   4.443 -0.0351 -0.6807  1.1181
 3816SOL     OW12346   1.676   2.226   5.864 -0.4128 -0.6043  0.2596
 3816SOL    HW112347   1.719   2.215   5.953  1.1920  1.0863 -0.2638
 3816SOL    HW212348   1.743   2.208   5.792 -1.2726 -0.4120 -0.6065
 3817SOL     OW12349   1.391   4.190   4.373  0.3991 -0.7236  0.1371
 3817SOL    HW112350   1.313   4.195   4.310 -1.2070  0.8548  2.0889
 3817SOL    HW212351   1.395   4.099   4.415 -0.2071 -0.9199 -0.2246
 3818SOL     OW12352   0.383   4.138   6.001 -0.0128 -0.1644  0.2107
 3818SOL    HW112353   0.381   4.081   5.919  2.3784 -0.1836  0.1003
 3818SOL    HW212354   0.376   4.234   5.975  0.8639 -0.1626 -0.0544
 3819SOL     OW12355   5.540   2.528   1.625 -0.0666  0.2830 -0.5586
 3819SOL    HW112356   5.448   2.515   1.590 -0.0789  0.6867 -0.6869
 3819SOL    HW212357   5.590   2.442   1.623 -1.0435 -0.3897  1.2995
 3820SOL     OW12358   6.717   3.414   2.390  0.0387  0.3760  0.1102
 3820SOL    HW112359   6.635   3.466   2.364 -0.2503 -0.3347 -0.4447
 3820SOL    HW212360   6.701   3.369   2.478  0.3704  1.3858  0.6994
 3821SOL     OW12361   0.755   5.640   2.069  0.0154 -0.2497 -0.1276
 3821SOL    HW112362   0.801   5.665   1.984 -1.0611 -1.0601 -0.9703
 3821SOL    HW212363   0.801   5.561   2.110  0.7848  0.3934  0.2813
 3822SOL     OW12364   2.059   3.403   5.885  0.3186  0.3758  0.4689
 3822SOL    HW112365   2.090   3.456   5.964  2.8952 -1.5928  0.9008
 3822SOL    HW212366   1.982   3.345   5.912  1.3550 -0.4911  1.6650
 3823SOL     OW12367   6.789   1.830   2.844 -0.4158  0.3182  0.3233
 3823SOL    HW112368   6.793   1.733   2.819 -0.8751  0.1683  0.8166
 3823SOL    HW212369   6.821   1.885   2.767 -0.4240 -0.2064 -0.0636
 3824SOL     OW12370   3.599   3.705   1.478 -0.7867  0.5668 -0.5541
 3824SOL    HW112371   3.621   3.796   1.512  0.3220  0.1553 -0.1263
 3824SOL    HW212372   3.584   3.644   1.555  1.5843 -0.3404 -0.7428
 3825SOL     OW12373   2.264   5.351   2.742  0.2284 -0.4481  0.0436
 3825SOL    HW112374   2.306   5.376   2.655 -0.2357 -0.3989 -0.1686
 3825SOL    HW212375   2.165   5.360   2.735  0.2710  1.5290  1.1999
 3826SOL     OW12376   5.348   1.442   4.299  0.2003 -0.3426 -0.0276
 3826SOL    HW112377   5.382   1.432   4.206 -2.9135  1.5282 -1.5231
 3826SOL    HW212378   5.250   1.421   4.301 -0.2839  1.6926  2.3718
 3827SOL     OW12379   4.412   5.894   2.037 -0.2610  0.1266 -0.7911
 3827SOL    HW112380   4.395   5.865   2.131 -1.3434  0.2675 -0.9216
 3827SOL    HW212381   4.481   5.835   1.996 -0.9264 -0.9638 -0.3964
 3828SOL     OW12382   5.136   3.721   2.097  0.6833 -0.6615 -0.2309
 3828SOL    HW112383   5.046   3.677   2.087  0.3494 -0.6525  2.1083
 3828SOL    HW212384   5.129   3.818   2.075  0.1165 -0.6779 -0.1358
 3829SOL     OW12385   2.142   0.411   4.128  0.3376  0.2646 -0.0038
 3829SOL    HW112386   2.142   0.362   4.215 -2.8508 -0.6126 -0.3762
 3829SOL    HW212387   2.201   0.492   4.135  0.3191  0.1188  2.9048
 3830SOL     OW12388   4.857   3.527   1.164 -0.1554 -0.5491  0.3313
 3830SOL    HW112389   4.865   3.450   1.100 -1.1148 -0.4597  0.0875
 3830SOL    HW212390   4.923   3.515   1.238  0.1171 -1.3005 -0.0139
 3831SOL     OW12391   6.547   1.138   4.881  0.1421  0.0001  0.0500
 3831SOL    HW112392   6.584   1.190   4.804 -0.6083 -0.1134 -0.3908
 3831SOL    HW212393   6.461   1.178   4.911 -1.7661 -2.2878 -1.8642
 3832SOL     OW12394   1.380   2.046   2.087  0.2990  0.0832  0.1171
 3832SOL    HW112395   1.335   2.096   2.013 -0.6581 -1.5315 -0.4407
 3832SOL    HW212396   1.359   2.091   2.174  0.6826  1.4695 -0.4693
 3833SOL     OW12397   3.791   5.334   1.978 -0.7195 -0.4016 -0.0402
 3833SOL    HW112398   3.868   5.373   1.927  0.2863 -2.5925 -0.3160
 3833SOL    HW212399   3.826   5.284   2.057 -2.0714  0.4793  1.1534
 3834SOL     OW12400   3.970   6.867   3.273  0.3189  0.5012  0.0249
 3834SOL    HW112401   3.926   6.874   3.184  0.4496  0.6936 -0.0239
 3834SOL    HW212402   4.013   6.954   3.296  0.6372  0.3260  0.0925
 3835SOL     OW12403   3.373   5.753   4.555 -0.4246 -0.5156  0.0294
 3835SOL    HW112404   3.311   5.825   4.587 -1.1175 -2.0205  2.3130
 3835SOL    HW212405   3.438   5.730   4.627  0.3894 -1.5735 -0.9968
 3836SOL     OW12406   4.407   6.741   4.435 -0.0254 -1.1358 -0.8317
 3836SOL    HW112407   4.327   6.683   4.449 -0.5060 -0.1478  0.9408
 3836SOL    HW212408   4.487   6.685   4.415 -0.4598 -2.4211  0.8374
 3837SOL     OW12409   1.402   1.795   3.681  0.1769 -0.2896  0.0458
 3837SOL    HW112410   1.401   1.753   3.771  0.7421  1.0138  0.6916
 3837SOL    HW212411   1.417   1.893   3.690 -0.2991 -0.0466 -1.4450
 3838SOL     OW12412   5.516   1.717   4.844  0.2778 -0.4478 -0.2795
 3838SOL    HW112413   5.612   1.695   4.825  0.7668 -1.2707  2.5636
 3838SOL    HW212414   5.462   1.633   4.839 -0.8052  0.3208 -3.9126
 3839SOL     OW12415   0.847   5.594   5.171 -0.1710  0.4953  0.1016
 3839SOL    HW112416   0.754   5.623   5.149 -0.4358  0.6907  1.3570
 3839SOL    HW212417   0.873   5.633   5.260  0.2723 -1.3492  0.8156
 3840SOL     OW12418   3.207   2.515   0.592 -0.5356  0.4535  0.4803
 3840SOL    HW112419   3.227   2.561   0.679 -2.1663 -0.4585  1.3841
 3840SOL    HW212420   3.124   2.554   0.552  0.9633  1.8510 -1.4566
 3841SOL     OW12421   5.856   3.406   6.737 -0.3084  0.2470  0.2412
 3841SOL    HW112422   5.763   3.404   6.701  0.2235  1.1858 -1.2684
 3841SOL    HW212423   5.892   3.498   6.731  1.1729 -0.3492 -0.4189
 3842SOL     OW12424   4.890   2.013   2.372  0.6340 -0.5433  0.1134
 3842SOL    HW112425   4.860   1.919   2.388 -0.6837 -0.3101 -0.7758
 3842SOL    HW212426   4.813   2.075   2.390  0.9793  0.2083 -0.9332
 3843SOL     OW12427   5.667   3.599   3.186 -0.1662  0.3615  0.0541
 3843SOL    HW112428   5.705   3.507   3.193  1.7912  1.0223 -0.8988
 3843SOL    HW212429   5.604   3.603   3.109 -0.2665 -0.1788  0.1039
 3844SOL     OW12430   6.623   3.678   5.222  0.3090  0.5757  0.0707
 3844SOL    HW112431   6.708   3.731   5.221  0.7041 -0.0107  0.8950
 3844SOL    HW212432   6.640   3.590   5.267 -0.1514 -0.5521 -1.8817
 3845SOL     OW12433   6.633   5.499   4.295 -0.0594  0.1243 -0.3476
 3845SOL    HW112434   6.632   5.438   4.216  0.1985  0.1249 -0.3550
 3845SOL    HW212435   6.665   5.589   4.266  2.0255 -0.4102  0.1123
 3846SOL     OW12436   5.241   0.068   3.890 -1.0602  0.0879  0.0953
 3846SOL    HW112437   5.296   0.125   3.950 -0.1976  0.4248 -0.9648
 3846SOL    HW212438   5.233   0.112   3.800  0.8685 -2.0461 -1.2315
 3847SOL     OW12439   5.978   0.786   3.468  0.1713  0.3926 -0.3079
 3847SOL    HW112440   5.994   0.761   3.373 -2.5297  1.0208 -1.0196
 3847SOL    HW212441   5.897   0.845   3.474 -0.7400 -0.9707  2.5439
 3848SOL     OW12442   4.605   2.160   4.788 -0.2020  0.6100  0.4823
 3848SOL    HW112443   4.694   2.205   4.776 -0.4526  0.6062 -1.8876
 3848SOL    HW212444   4.532   2.224   4.763 -0.6411 -0.5546 -1.4102
 3849SOL     OW12445   4.952   5.947   5.888 -0.2283  0.1698  0.4725
 3849SOL    HW112446   4.894   6.027   5.876  1.2803  1.2000 -0.2082
 3849SOL    HW212447   4.913   5.870   5.836 -1.5871  0.4757  0.9856
 3850SOL     OW12448   2.870   4.080   1.079  0.3420 -0.3675  0.0769
 3850SOL    HW112449   2.870   4.178   1.100 -2.4093 -0.0446 -1.0002
 3850SOL    HW212450   2.881   4.066   0.981  1.1001 -1.1951  0.2593
 3851SOL     OW12451   4.723   5.128   4.588 -0.0433 -0.4616 -0.0143
 3851SOL    HW112452   4.795   5.085   4.534 -0.2103  1.4321 -1.8708
 3851SOL    HW212453   4.673   5.193   4.531 -0.7479  1.0885  2.2336
 3852SOL     OW12454   4.410   6.391   6.332  0.4503 -0.8413  0.2694
 3852SOL    HW112455   4.479   6.318   6.327  2.3534  0.9471 -1.2530
 3852SOL    HW212456   4.415   6.435   6.422  0.7877 -1.1638  0.4120
 3853SOL     OW12457   5.378   4.377   3.813  0.3674 -0.2056 -0.3377
 3853SOL    HW112458   5.466   4.419   3.794 -0.2756  1.1626 -0.3985
 3853SOL    HW212459   5.378   4.340   3.906  0.9250 -0.0391 -0.2694
 3854SOL     OW12460   1.649   5.443   0.526  0.2531  0.2461  0.4167
 3854SOL    HW112461   1.619   5.524   0.577 -1.1630  0.1863 -0.2871
 3854SOL    HW212462   1.648   5.463   0.428  0.6612 -0.3892  0.2747
 3855SOL     OW12463   3.048   0.313   2.803  0.5117 -0.4742 -0.0965
 3855SOL    HW112464   3.051   0.280   2.897  1.5425  0.9082  0.3982
 3855SOL    HW212465   3.083   0.242   2.741 -1.0646 -1.7495  0.4172
 3856SOL     OW12466   3.590   2.815   2.145 -0.0180 -0.9992  1.0978
 3856SOL    HW112467   3.551   2.815   2.237  2.0190 -2.8443  2.0414
 3856SOL    HW212468   3.655   2.739   2.136  3.0339  1.5821 -0.4748
 3857SOL     OW12469   4.599   5.009   4.975  0.0483  0.0838  0.5900
 3857SOL    HW112470   4.550   4.923   4.963  0.8373 -0.0547 -2.3479
 3857SOL    HW212471   4.534   5.083   4.992 -0.7376 -0.8488  1.7631
 3858SOL     OW12472   0.514   0.299   6.137  0.4559  0.0811 -0.1973
 3858SOL    HW112473   0.538   0.203   6.120 -0.3568  0.1143 -1.6808
 3858SOL    HW212474   0.417   0.313   6.117  0.3180  1.0001  1.0231
 3859SOL     OW12475   5.103   6.381   1.992 -0.5452 -0.7045  0.0451
 3859SOL    HW112476   5.117   6.333   1.905  0.2765  0.1302 -0.3040
 3859SOL    HW212477   5.063   6.471   1.975  2.2964  0.6931  0.1920
 3860SOL     OW12478   2.374   0.894   5.699  0.4413 -0.8447 -0.1194
 3860SOL    HW112479   2.389   0.939   5.611  0.5446  1.5658  1.0528
 3860SOL    HW212480   2.289   0.841   5.695 -1.3642  1.8614 -0.7860
 3861SOL     OW12481   4.219   6.579   6.365  0.1795 -0.7705  0.0737
 3861SOL    HW112482   4.266   6.631   6.437 -1.1437  0.8340 -0.1726
 3861SOL    HW212483   4.268   6.493   6.350  2.1629  0.1413  0.8577
 3862SOL     OW12484   6.248   6.141   5.213  0.8712  0.7977  0.1632
 3862SOL    HW112485   6.294   6.080   5.278  0.2159  0.8310  0.6757
 3862SOL    HW212486   6.254   6.235   5.246  2.0271  1.0510 -0.7125
 3863SOL     OW12487   1.890   5.733   6.227  0.1135  0.5802 -0.6193
 3863SOL    HW112488   1.958   5.666   6.196  0.9881  1.2989 -0.2770
 3863SOL    HW212489   1.931   5.792   6.296 -0.6284  1.5142 -0.9621
 3864SOL     OW12490   5.234   0.816   0.963  0.1925  0.4403 -0.3388
 3864SOL    HW112491   5.289   0.739   0.931  0.2144  0.9252 -1.5045
 3864SOL    HW212492   5.146   0.816   0.915  0.1330  1.0529 -0.2347
 3865SOL     OW12493   1.363   0.532   3.185  0.1544 -0.0250 -0.7584
 3865SOL    HW112494   1.354   0.629   3.164  0.3238  0.1240 -0.1557
 3865SOL    HW212495   1.279   0.500   3.231  1.8098  1.0003  3.4508
 3866SOL     OW12496   6.010   5.567   5.859 -0.2384  0.2785  0.5451
 3866SOL    HW112497   5.978   5.540   5.769  1.1960  1.2614 -0.3137
 3866SOL    HW212498   5.970   5.655   5.884 -0.1607  0.3042  0.5815
 3867SOL     OW12499   3.050   6.665   5.576 -0.1774  0.1103  0.5249
 3867SOL    HW112500   3.004   6.698   5.493  0.4243 -0.9457 -0.2535
 3867SOL    HW212501   3.024   6.570   5.592  2.2491 -0.7870 -0.3795
 3868SOL     OW12502   3.247   3.004   3.673  0.2677  0.1347  0.0276
 3868SOL    HW112503   3.217   3.026   3.766 -0.1568  2.1852 -0.5279
 3868SOL    HW212504   3.282   3.087   3.629 -2.2334 -0.0617 -2.6259
 3869SOL     OW12505   2.692   6.058   2.116  0.5647 -0.3652 -0.7698
 3869SOL    HW112506   2.774   6.008   2.146  0.1909 -1.3553 -1.3643
 3869SOL    HW212507   2.671   6.034   2.021 -0.7893 -0.6090 -0.4163
 3870SOL     OW12508   2.824   4.023   6.488 -0.2714 -0.5256  0.6870
 3870SOL    HW112509   2.899   4.074   6.448  0.1146 -2.0437 -0.6634
 3870SOL    HW212510   2.743   4.081   6.494  0.3291  0.4200 -0.1271
 3871SOL     OW12511   4.931   4.791   6.598  0.1962  0.3568 -0.6924
 3871SOL    HW112512   4.961   4.696   6.587  0.3816  0.3306 -0.0008
 3871SOL    HW212513   4.837   4.793   6.631  0.3165  0.4133 -0.3566
 3872SOL     OW12514   4.899   5.827   4.241  0.1182 -0.3591  0.2284
 3872SOL    HW112515   4.983   5.786   4.277  0.0614 -0.3957  0.3200
 3872SOL    HW212516   4.909   5.844   4.143 -0.2445 -1.5818 -0.0326
 3873SOL     OW12517   6.107   1.950   5.680 -0.4028 -0.0080  0.4322
 3873SOL    HW112518   6.027   1.918   5.730 -0.2420 -0.9249  0.1211
 3873SOL    HW212519   6.107   1.912   5.587 -0.2926  1.0437 -0.0210
 3874SOL     OW12520   6.000   5.763   0.378 -0.7712  0.6196  0.3796
 3874SOL    HW112521   6.000   5.664   0.396 -2.4492  0.7246  1.1873
 3874SOL    HW212522   6.010   5.779   0.280  1.7618 -0.2349  0.4212
 3875SOL     OW12523   4.016   4.113   5.195 -0.7029  0.1876 -0.5340
 3875SOL    HW112524   4.007   4.068   5.106  1.0163 -2.2735  0.4325
 3875SOL    HW212525   4.086   4.184   5.189  0.9428 -1.3968 -0.7010
 3876SOL     OW12526   0.711   3.680   4.083 -0.2973 -0.1217  0.0599
 3876SOL    HW112527   0.777   3.751   4.059 -1.0608  0.2358 -1.0874
 3876SOL    HW212528   0.638   3.677   4.014 -0.9268 -1.2090  0.7297
 3877SOL     OW12529   2.968   2.222   5.267 -0.1798 -0.2122 -0.5978
 3877SOL    HW112530   2.900   2.286   5.231  0.4229  0.5630 -0.3743
 3877SOL    HW212531   3.058   2.244   5.230 -0.2423 -2.1288 -2.0572
 3878SOL     OW12532   3.105   0.872   6.504  0.0881 -0.6534  0.0254
 3878SOL    HW112533   3.201   0.868   6.532  0.9323 -2.5175 -2.6767
 3878SOL    HW212534   3.096   0.931   6.424 -1.3831  0.8856  1.2726
 3879SOL     OW12535   4.861   5.667   2.646  0.5298  0.2956 -0.1437
 3879SOL    HW112536   4.901   5.667   2.555  0.6718 -0.2768 -0.0868
 3879SOL    HW212537   4.799   5.745   2.656  1.1870  0.8647 -0.4285
 3880SOL     OW12538   6.777   3.601   1.639 -0.6465  0.2721 -0.4420
 3880SOL    HW112539   6.875   3.594   1.616 -0.7936  0.4993 -1.1674
 3880SOL    HW212540   6.767   3.613   1.737  0.1015  1.0136 -0.4413
 3881SOL     OW12541   5.091   2.157   0.179  0.3578  0.1509  1.1197
 3881SOL    HW112542   5.147   2.093   0.231 -1.4624 -0.5512  2.3021
 3881SOL    HW212543   5.088   2.129   0.084  2.1311  0.3204  0.9791
 3882SOL     OW12544   1.295   1.333   3.564 -0.1743 -0.2088  0.0855
 3882SOL    HW112545   1.308   1.246   3.611 -0.5954 -0.2525  0.1298
 3882SOL    HW212546   1.197   1.356   3.564 -0.1181  0.0399 -0.3192
 3883SOL     OW12547   3.512   2.196   1.057 -0.2837  0.1502 -0.5652
 3883SOL    HW112548   3.565   2.196   1.142  0.4019  1.7196 -0.9495
 3883SOL    HW212549   3.506   2.103   1.021  0.3786 -0.3721  0.6079
 3884SOL     OW12550   5.692   4.452   5.788 -0.1935 -0.0442  0.0209
 3884SOL    HW112551   5.609   4.485   5.744  0.6481  0.7828 -0.9806
 3884SOL    HW212552   5.772   4.487   5.740  0.7472 -0.8678  0.9363
 3885SOL     OW12553   6.106   6.179   4.221 -0.1989 -0.7862 -0.3159
 3885SOL    HW112554   6.155   6.257   4.260  2.3980 -2.9188  1.0312
 3885SOL    HW212555   6.028   6.156   4.278  1.2724 -1.4430  1.5275
 3886SOL     OW12556   4.672   3.404   5.805 -0.3554 -0.1393 -0.3003
 3886SOL    HW112557   4.647   3.500   5.818 -3.6963 -0.9968  0.6055
 3886SOL    HW212558   4.629   3.369   5.721 -1.5841 -1.4888  0.8286
 3887SOL     OW12559   3.781   1.926   2.448 -0.0208 -0.1270 -0.0383
 3887SOL    HW112560   3.875   1.919   2.481  0.0649  0.5988 -0.1201
 3887SOL    HW212561   3.779   1.976   2.361 -0.6165  1.1369  0.6712
 3888SOL     OW12562   2.356   3.275   1.624 -0.0681  0.3154  0.5141
 3888SOL    HW112563   2.389   3.347   1.686  0.8186  1.8626 -1.6331
 3888SOL    HW212564   2.276   3.309   1.574 -0.7143 -0.8712  0.7141
 3889SOL     OW12565   1.336   5.063   4.752 -0.2887  0.4993  0.4205
 3889SOL    HW112566   1.321   4.990   4.686 -0.0406 -2.0217  2.9450
 3889SOL    HW212567   1.268   5.135   4.738 -1.0804 -0.5770 -1.6650
 3890SOL     OW12568   0.551   4.938   2.381 -0.0226 -0.6992 -0.3050
 3890SOL    HW112569   0.599   4.854   2.409  1.1963 -1.0264 -3.0780
 3890SOL    HW212570   0.487   4.916   2.308  0.0020  0.7190 -0.7666
 3891SOL     OW12571   6.612   5.801   3.197  0.3603  0.7469  0.2785
 3891SOL    HW112572   6.521   5.802   3.155  0.3522 -0.8320  0.2204
 3891SOL    HW212573   6.604   5.774   3.293  0.7324  1.0731  0.4067
 3892SOL     OW12574   4.908   2.073   1.404 -0.0792 -0.3980  0.0811
 3892SOL    HW112575   4.964   2.108   1.479 -1.6127 -0.1507  1.1710
 3892SOL    HW212576   4.820   2.121   1.403 -0.3144 -0.8060 -1.5267
 3893SOL     OW12577   6.890   4.661   3.325 -1.2370 -0.7937 -0.6680
 3893SOL    HW112578   6.983   4.657   3.286 -0.2466  0.1032  1.4478
 3893SOL    HW212579   6.850   4.751   3.306  0.6141  1.0220  3.0373
 3894SOL     OW12580   5.497   0.211   5.987  0.0226  0.0163  0.2789
 3894SOL    HW112581   5.594   0.210   6.011 -0.5236  0.4542  2.7001
 3894SOL    HW212582   5.485   0.260   5.900  2.1131 -1.6681 -1.0653
 3895SOL     OW12583   0.324   0.280   4.473 -0.3632  0.0791 -0.2203
 3895SOL    HW112584   0.247   0.302   4.414 -0.3035 -0.2114 -0.4075
 3895SOL    HW212585   0.375   0.364   4.494 -1.2043  0.4090  0.5911
 3896SOL     OW12586   0.578   3.596   2.425  0.4034 -0.3764 -0.2225
 3896SOL    HW112587   0.551   3.502   2.443  0.7615 -0.2936  0.7832
 3896SOL    HW212588   0.558   3.619   2.329 -1.3596 -0.8906 -0.0095
 3897SOL     OW12589   3.650   1.497   0.665  0.4039  0.0682  0.0325
 3897SOL    HW112590   3.571   1.469   0.720 -0.5144  1.2832 -0.6068
 3897SOL    HW212591   3.702   1.566   0.715  0.6298 -0.1707  0.1309
 3898SOL     OW12592   5.395   5.322   4.138 -0.0151 -0.2327 -0.6133
 3898SOL    HW112593   5.304   5.353   4.110 -0.7248 -3.4187 -2.2739
 3898SOL    HW212594   5.394   5.300   4.236 -0.7613  0.5171 -0.4398
 3899SOL     OW12595   1.634   0.342   5.155 -0.6635 -0.0465  0.0971
 3899SOL    HW112596   1.648   0.268   5.221 -0.1290  0.1436  0.2024
 3899SOL    HW212597   1.627   0.304   5.063  0.1582 -0.1942  0.0876
 3900SOL     OW12598   4.291   6.837   3.527 -0.1744 -0.2507 -0.1175
 3900SOL    HW112599   4.380   6.815   3.566  1.2509  2.9864 -1.1588
 3900SOL    HW212600   4.222   6.840   3.600  0.2599 -3.6409  0.5836
 3901SOL     OW12601   3.732   5.441   3.035 -0.7904 -0.6991 -0.0247
 3901SOL    HW112602   3.676   5.469   2.957  0.6514  0.9364 -0.5330
 3901SOL    HW212603   3.727   5.342   3.045 -1.9293 -0.8285 -1.4717
 3902SOL     OW12604   1.168   3.825   0.942  0.0813 -0.1874 -0.3906
 3902SOL    HW112605   1.207   3.883   1.013  1.2942 -1.7276  0.2767
 3902SOL    HW212606   1.084   3.866   0.906 -1.4686 -0.0663  3.0076
 3903SOL     OW12607   6.392   4.417   4.450 -0.8191 -0.3118  0.4227
 3903SOL    HW112608   6.293   4.430   4.442 -0.6769 -0.6108 -3.9386
 3903SOL    HW212609   6.437   4.506   4.460 -1.4229  0.0479 -0.0201
 3904SOL     OW12610   2.651   0.698   0.155 -0.0303 -0.1614 -0.3330
 3904SOL    HW112611   2.746   0.671   0.172  0.3329  1.3134  0.1036
 3904SOL    HW212612   2.636   0.709   0.057 -0.5604 -3.0991 -0.6921
 3905SOL     OW12613   3.753   0.134   6.029  0.6831  0.2322 -0.6069
 3905SOL    HW112614   3.653   0.143   6.032  0.8242  2.2198  0.3658
 3905SOL    HW212615   3.786   0.159   5.939  0.3255 -0.3650 -0.9132
 3906SOL     OW12616   6.379   4.897   1.747  0.0445  0.0703 -0.3247
 3906SOL    HW112617   6.478   4.898   1.732  0.6173 -0.3021  2.7835
 3906SOL    HW212618   6.358   4.842   1.827 -2.5347  1.5664  0.1273
 3907SOL     OW12619   0.907   0.684   3.269 -0.2679 -0.5893  0.1793
 3907SOL    HW112620   0.877   0.780   3.271  2.5059  0.3914  2.5404
 3907SOL    HW212621   0.841   0.627   3.317 -1.0191  0.4889  0.4584
 3908SOL     OW12622   6.401   0.141   0.992 -0.0730  0.0350 -0.2444
 3908SOL    HW112623   6.426   0.231   1.030  2.6168 -1.1361  1.0557
 3908SOL    HW212624   6.484   0.095   0.960 -1.0428 -2.8252  1.0859
 3909SOL     OW12625   6.150   3.274   5.335  0.3384  0.0936  0.0127
 3909SOL    HW112626   6.211   3.232   5.267  2.4348 -1.4638  2.6435
 3909SOL    HW212627   6.160   3.373   5.333 -0.2934  0.1622 -2.4313
 3910SOL     OW12628   4.042   5.189   3.717  0.3190  0.1635  0.0308
 3910SOL    HW112629   4.116   5.125   3.735  0.2417 -0.2174 -0.9438
 3910SOL    HW212630   3.971   5.179   3.787  1.1567  0.5160  0.9530
 3911SOL     OW12631   0.410   1.498   4.813  0.3966  0.0058 -0.0295
 3911SOL    HW112632   0.425   1.586   4.767 -0.8676  0.1514 -0.1971
 3911SOL    HW212633   0.379   1.430   4.746  1.9997 -0.7750 -0.0251
 3912SOL     OW12634   3.103   1.721   4.578 -0.0804  0.0425 -0.0897
 3912SOL    HW112635   3.153   1.747   4.495  0.3944  0.0612  0.1949
 3912SOL    HW212636   3.168   1.713   4.654 -0.4988 -0.0649  0.2579
 3913SOL     OW12637   2.969   6.713   2.484  0.0789  0.0959  0.1180
 3913SOL    HW112638   2.969   6.801   2.532  0.6327  0.8772 -1.2646
 3913SOL    HW212639   2.876   6.690   2.457  0.0976  0.9461 -0.7100
 3914SOL     OW12640   0.770   6.446   6.580 -0.2037  0.3130  0.0199
 3914SOL    HW112641   0.786   6.414   6.487 -0.3678  0.9601 -0.2402
 3914SOL    HW212642   0.785   6.371   6.645  1.9317  0.3527 -0.3427
 3915SOL     OW12643   6.053   1.552   4.649 -0.0338  0.1905 -0.3244
 3915SOL    HW112644   5.964   1.541   4.605 -1.0164  2.0959  1.0211
 3915SOL    HW212645   6.123   1.507   4.594 -1.8304 -1.6341 -1.2784
 3916SOL     OW12646   2.145   1.828   5.173 -0.3392  0.3614  0.6188
 3916SOL    HW112647   2.214   1.817   5.244 -0.2645  1.6677  0.7767
 3916SOL    HW212648   2.169   1.773   5.094  1.1409  1.1473  0.4924
 3917SOL     OW12649   3.184   0.969   6.871  0.1170 -0.1829  0.0978
 3917SOL    HW112650   3.138   1.051   6.904  0.5614 -0.6606  2.0853
 3917SOL    HW212651   3.278   0.968   6.904  0.2902 -1.2129 -0.3840
 3918SOL     OW12652   1.815   3.213   0.148  0.0218  0.2862 -0.6396
 3918SOL    HW112653   1.818   3.283   0.219  0.1148  0.2019 -0.5582
 3918SOL    HW212654   1.769   3.132   0.183  0.7634 -0.0479 -0.4010
 3919SOL     OW12655   5.380   0.765   1.272  0.7818  0.2749 -0.0824
 3919SOL    HW112656   5.298   0.787   1.325  0.5774  0.3671 -0.4381
 3919SOL    HW212657   5.461   0.796   1.322  0.6108  0.0995  0.3139
 3920SOL     OW12658   3.767   0.265   2.875 -0.2615  0.4130  0.2221
 3920SOL    HW112659   3.825   0.201   2.826 -1.5202 -0.3338 -0.3604
 3920SOL    HW212660   3.786   0.358   2.844  1.2895  0.2926  0.7675
 3921SOL     OW12661   1.780   3.127   2.204 -0.0287  0.4600  0.2933
 3921SOL    HW112662   1.834   3.203   2.240 -0.0279  1.7227 -2.1472
 3921SOL    HW212663   1.786   3.049   2.266  1.4590  1.8253  1.9709
 3922SOL     OW12664   6.745   4.467   4.312  0.4831 -0.9567  0.0102
 3922SOL    HW112665   6.712   4.482   4.405  0.9476  0.2428 -0.0001
 3922SOL    HW212666   6.669   4.473   4.247  0.2863 -0.9945  0.2360
 3923SOL     OW12667   5.470   1.578   0.919  0.5846  0.1355  0.2423
 3923SOL    HW112668   5.473   1.500   0.856  3.2287  1.1258 -1.0200
 3923SOL    HW212669   5.513   1.657   0.876 -3.2058  2.8276  0.9323
 3924SOL     OW12670   3.770   1.124   1.543 -0.0978 -0.2991 -0.0658
 3924SOL    HW112671   3.815   1.045   1.502 -1.0516 -0.8772 -0.0421
 3924SOL    HW212672   3.671   1.109   1.543 -0.2907  0.8829 -0.0242
 3925SOL     OW12673   6.056   3.744   4.683  0.2019  0.7162 -0.3230
 3925SOL    HW112674   6.033   3.806   4.608  1.4711  0.8384 -0.6321
 3925SOL    HW212675   6.076   3.798   4.765 -1.0609  0.5884  0.0934
 3926SOL     OW12676   0.041   5.816   4.487  0.4044 -0.1907  0.0306
 3926SOL    HW112677   0.125   5.840   4.440 -0.2354 -0.7721 -1.4764
 3926SOL    HW212678  -0.022   5.893   4.485  0.1201 -0.4298 -0.7064
 3927SOL     OW12679   3.955   0.001   0.969 -0.0243 -0.7657  0.1428
 3927SOL    HW112680   3.859  -0.006   0.942  0.4500 -0.3703 -1.8237
 3927SOL    HW212681   3.996  -0.090   0.973 -0.1996 -0.8573 -0.1533
 3928SOL     OW12682   4.597   3.149   1.689 -0.1769  0.2470 -0.0160
 3928SOL    HW112683   4.503   3.123   1.668 -0.4985  1.9234 -0.8649
 3928SOL    HW212684   4.620   3.120   1.782 -1.3265 -0.6973 -0.0081
 3929SOL     OW12685   6.472   1.914   1.693 -0.0364  1.1108  0.3375
 3929SOL    HW112686   6.529   1.888   1.615  1.5569  1.0226  1.4628
 3929SOL    HW212687   6.387   1.863   1.691 -0.3125  1.5719 -1.6649
 3930SOL     OW12688   6.051   2.920   0.701 -0.4712  0.8935 -0.0238
 3930SOL    HW112689   5.996   2.960   0.774  2.9964 -0.9940  4.0045
 3930SOL    HW212690   6.143   2.959   0.701  0.1653 -0.3529 -2.3745
 3931SOL     OW12691   2.836   6.242   1.621  0.7595 -0.0248  0.0380
 3931SOL    HW112692   2.805   6.336   1.634 -0.6206 -0.4942  0.3478
 3931SOL    HW212693   2.935   6.238   1.629  0.9046  1.5042 -0.6667
 3932SOL     OW12694   2.122   1.096   5.510  0.2144 -0.2678  0.5435
 3932SOL    HW112695   2.190   1.152   5.463  0.7195 -0.1639  1.3631
 3932SOL    HW212696   2.044   1.080   5.450  0.3528  0.7611  0.0679
 3933SOL     OW12697   4.246   6.140   6.488  0.3261  0.1008  0.3484
 3933SOL    HW112698   4.178   6.083   6.535  0.3550 -0.1297  0.1115
 3933SOL    HW212699   4.236   6.129   6.389  0.9401 -0.2010  0.3184
 3934SOL     OW12700   6.823   0.123   2.409 -0.0306  0.5975 -0.0920
 3934SOL    HW112701   6.874   0.202   2.444  1.1238 -0.6997  1.3198
 3934SOL    HW212702   6.740   0.110   2.464  0.9660 -0.4866  1.2450
 3935SOL     OW12703   4.637   1.676   0.876  0.5146  0.1289  0.5182
 3935SOL    HW112704   4.615   1.755   0.819  0.8526  1.2275  1.8606
 3935SOL    HW212705   4.553   1.633   0.907  0.3047  0.6906  0.7459
 3936SOL     OW12706   5.977   5.969   3.699 -0.4990  0.3263 -0.2795
 3936SOL    HW112707   5.921   5.938   3.622  1.1555  0.4415 -1.5975
 3936SOL    HW212708   5.953   5.917   3.781 -0.9518 -1.2390 -1.3559
 3937SOL     OW12709   1.074   1.604   7.001 -0.3850  0.4731  0.3864
 3937SOL    HW112710   1.124   1.517   7.004  0.1608  0.7906  0.5162
 3937SOL    HW212711   0.998   1.600   7.066  0.1784  0.4183  1.0553
 3938SOL     OW12712   3.124   0.156   0.703 -0.3482 -0.1777  0.1970
 3938SOL    HW112713   3.070   0.217   0.645 -1.2139  1.1867  2.3057
 3938SOL    HW212714   3.204   0.206   0.738  0.1284 -0.9540  0.2282
 3939SOL     OW12715   2.409   5.170   0.658  0.7256 -0.3324  0.0426
 3939SOL    HW112716   2.351   5.088   0.665  0.2095  0.1008  1.3160
 3939SOL    HW212717   2.359   5.241   0.608  0.7163 -0.4338 -0.0911
 3940SOL     OW12718   6.417   6.508   3.469 -0.1559 -0.0386  0.1381
 3940SOL    HW112719   6.445   6.599   3.498 -2.5546  1.6173 -2.2211
 3940SOL    HW212720   6.326   6.488   3.505 -1.6156  0.5531 -2.8545
 3941SOL     OW12721   3.298   6.943   6.716  0.4107  0.4566 -0.0992
 3941SOL    HW112722   3.390   6.915   6.746  0.1120  0.1830  0.5737
 3941SOL    HW212723   3.230   6.898   6.773 -0.2174 -0.9892 -1.8928
 3942SOL     OW12724   1.868   6.551   2.195 -0.4646 -0.0596  0.1242
 3942SOL    HW112725   1.857   6.619   2.267 -3.1944  0.2748 -0.5023
 3942SOL    HW212726   1.858   6.459   2.234  0.7365 -0.0254  0.5586
 3943SOL     OW12727   1.640   1.756   2.074 -0.2294 -0.1652 -0.1340
 3943SOL    HW112728   1.599   1.718   1.992 -0.8307 -0.7607  0.4275
 3943SOL    HW212729   1.738   1.769   2.060 -0.6103  1.6414 -1.6408
 3944SOL     OW12730   0.538   0.771   6.013 -0.3186 -0.0617  0.3044
 3944SOL    HW112731   0.500   0.684   6.044 -1.2766  0.6173  1.0804
 3944SOL    HW212732   0.567   0.825   6.092 -0.0544  0.4635 -0.1479
 3945SOL     OW12733   5.299   2.735   3.682 -0.2157 -0.3597  0.1495
 3945SOL    HW112734   5.360   2.814   3.679 -0.1834 -0.4325 -1.8083
 3945SOL    HW212735   5.335   2.662   3.625 -1.7923 -0.6552 -0.5270
 3946SOL     OW12736   1.964   1.917   0.116  0.4224 -0.1738 -0.2052
 3946SOL    HW112737   1.869   1.949   0.112  0.0563 -1.3204 -1.5558
 3946SOL    HW212738   1.982   1.879   0.207  0.1331  1.5582  0.6146
 3947SOL     OW12739   5.994   1.222   1.791  0.0127 -0.2705  0.0369
 3947SOL    HW112740   6.027   1.134   1.757 -0.7563 -0.3459 -0.5311
 3947SOL    HW212741   5.896   1.230   1.775 -0.1758  0.1319  1.3093
 3948SOL     OW12742   1.099   3.482   1.414 -0.3253  0.0791  0.4772
 3948SOL    HW112743   1.061   3.479   1.507  1.0236 -1.8555  1.0245
 3948SOL    HW212744   1.195   3.508   1.418  0.3690 -2.1954 -0.0808
 3949SOL     OW12745   6.129   4.845   2.323  0.1741 -0.2707 -0.3097
 3949SOL    HW112746   6.061   4.917   2.335  0.3293 -0.2491  0.4725
 3949SOL    HW212747   6.221   4.885   2.325  0.2530 -0.4612 -0.1323
 3950SOL     OW12748   2.354   2.855   4.614  0.8467 -0.2055 -0.2248
 3950SOL    HW112749   2.335   2.844   4.711  2.5027  0.6115  0.2218
 3950SOL    HW212750   2.453   2.863   4.599  0.5688  0.7840 -1.8492
 3951SOL     OW12751   5.623   1.703   2.871  0.4864 -0.7048  0.0662
 3951SOL    HW112752   5.690   1.633   2.846  0.6494 -0.7146  0.5303
 3951SOL    HW212753   5.569   1.672   2.950  0.4096 -0.4015  0.1344
 3952SOL     OW12754   4.941   6.225   4.897 -0.7475 -0.0342 -0.0940
 3952SOL    HW112755   4.992   6.312   4.893 -0.8990  0.1869  1.8265
 3952SOL    HW212756   4.966   6.169   4.819  0.1179  1.3367 -0.8513
 3953SOL     OW12757   0.388   6.860   0.567  0.2719  0.3208  0.2458
 3953SOL    HW112758   0.432   6.817   0.646 -0.0968  0.0957  0.3343
 3953SOL    HW212759   0.400   6.959   0.571  0.3425  0.3008  0.5317
 3954SOL     OW12760   1.912   1.437   5.955 -0.8180 -0.0484  1.0915
 3954SOL    HW112761   1.919   1.359   5.893  1.0110  0.2276  0.8984
 3954SOL    HW212762   1.956   1.415   6.042 -0.0570  0.8395  0.9426
 3955SOL     OW12763   6.291   3.296   5.646 -0.0871  0.4714  0.0348
 3955SOL    HW112764   6.191   3.290   5.641  0.0223 -0.3473 -2.0929
 3955SOL    HW212765   6.327   3.323   5.556  1.5384  2.3333  1.1682
 3956SOL     OW12766   4.242   1.018   5.107  0.3302 -0.0187  0.0881
 3956SOL    HW112767   4.181   0.946   5.073  0.8082 -1.2813  1.7522
 3956SOL    HW212768   4.210   1.048   5.197  0.1299  1.9090 -0.5932
 3957SOL     OW12769   0.107   5.861   3.321 -0.5481  0.0568  0.2677
 3957SOL    HW112770   0.022   5.888   3.275 -0.4060 -1.6276 -1.1130
 3957SOL    HW212771   0.126   5.765   3.301  2.2540  0.6473 -0.3880
 3958SOL     OW12772   4.336   5.837   0.865  0.6315  0.2826 -0.1351
 3958SOL    HW112773   4.367   5.914   0.811 -1.3562  0.3176 -1.3349
 3958SOL    HW212774   4.281   5.775   0.808  0.6519 -1.0661  1.2263
 3959SOL     OW12775   5.973   6.567   1.085  0.1081 -0.1247 -0.3593
 3959SOL    HW112776   5.915   6.648   1.084 -1.7133 -1.1898 -4.5485
 3959SOL    HW212777   5.920   6.488   1.054  2.3313 -2.5338  1.5714
 3960SOL     OW12778   3.769   4.063   2.856  0.0086 -0.5271  0.2318
 3960SOL    HW112779   3.727   3.979   2.891  0.9760 -1.1534 -0.0722
 3960SOL    HW212780   3.738   4.080   2.762 -0.7783 -0.1127  0.5538
 3961SOL     OW12781   5.793   1.567   5.714 -0.2622  0.0397  0.1967
 3961SOL    HW112782   5.741   1.592   5.796  1.9182  0.8442  1.4290
 3961SOL    HW212783   5.759   1.619   5.636 -1.2331  0.6115  0.9700
 3962SOL     OW12784   2.173   6.971   1.324 -0.4729  0.0377  0.2910
 3962SOL    HW112785   2.174   6.871   1.312 -2.3374 -0.1087  0.9966
 3962SOL    HW212786   2.112   7.011   1.255  0.3935  0.7262 -0.0906
 3963SOL     OW12787   4.359   1.171   6.939 -0.5752  0.3674  0.2245
 3963SOL    HW112788   4.269   1.206   6.963 -0.9955  0.5714 -1.4899
 3963SOL    HW212789   4.351   1.114   6.856  0.7848 -0.0468  0.3601
 3964SOL     OW12790   0.325   3.290   5.853  0.0430 -0.4816  0.4532
 3964SOL    HW112791   0.397   3.233   5.892 -1.2996 -1.8239  1.0648
 3964SOL    HW212792   0.267   3.325   5.927 -0.1589  0.2723 -0.0541
 3965SOL     OW12793   3.302   6.336   5.939 -0.3472 -0.7775  0.2665
 3965SOL    HW112794   3.313   6.251   5.991  1.2807 -0.4750  0.4680
 3965SOL    HW212795   3.308   6.414   6.002  0.0018 -0.4571 -0.1607
 3966SOL     OW12796   4.153   1.050   3.592  0.3814 -0.0520  0.1340
 3966SOL    HW112797   4.095   1.115   3.640 -0.5528 -0.7089 -0.0711
 3966SOL    HW212798   4.249   1.079   3.598 -0.0185  1.3643 -0.0224
 3967SOL     OW12799   4.522   5.589   0.610 -0.3171 -0.3193  0.0503
 3967SOL    HW112800   4.533   5.490   0.598 -1.0765 -0.4628  0.4714
 3967SOL    HW212801   4.425   5.611   0.618 -0.2531  0.6487 -1.5101
 3968SOL     OW12802   1.133   4.872   0.225 -0.4064  0.5251 -0.3587
 3968SOL    HW112803   1.064   4.807   0.255 -0.7398  0.9634 -0.1690
 3968SOL    HW212804   1.117   4.895   0.129 -0.1083  0.1028 -0.5128
 3969SOL     OW12805   2.915   2.185   3.134  0.6820  0.1574  0.3537
 3969SOL    HW112806   2.952   2.197   3.042 -0.9218  1.7098 -0.1517
 3969SOL    HW212807   2.815   2.185   3.130  0.5819 -0.5943  2.0192
 3970SOL     OW12808   2.611   6.849   4.706  0.0018 -0.2616 -0.6329
 3970SOL    HW112809   2.675   6.867   4.631 -0.5662 -0.5532 -1.1975
 3970SOL    HW212810   2.565   6.762   4.690 -0.2574 -0.2385 -0.0337
 3971SOL     OW12811   6.033   5.261   2.577  0.0555 -0.5217 -0.3603
 3971SOL    HW112812   5.970   5.205   2.524 -2.1563  1.2138  0.3123
 3971SOL    HW212813   6.093   5.312   2.514 -0.5883 -0.6490 -1.0859
 3972SOL     OW12814   6.843   0.308   5.389  0.0939  0.7897 -0.4365
 3972SOL    HW112815   6.847   0.389   5.330 -1.4814 -1.1613 -3.4188
 3972SOL    HW212816   6.822   0.227   5.335  0.7334 -1.5705  2.5491
 3973SOL     OW12817   5.627   5.335   6.963 -0.0386 -0.2652  0.4170
 3973SOL    HW112818   5.638   5.236   6.951 -0.3066 -0.6135  2.5069
 3973SOL    HW212819   5.530   5.357   6.968  0.0245 -0.0854  1.0105
 3974SOL     OW12820   1.218   3.733   4.399 -0.6992  0.2388  0.0914
 3974SOL    HW112821   1.134   3.753   4.348 -0.2362 -0.0319 -0.8171
 3974SOL    HW212822   1.197   3.673   4.476 -0.9849 -2.4010 -1.8795
 3975SOL     OW12823   2.551   3.253   6.107  0.4436  0.5451  0.1116
 3975SOL    HW112824   2.623   3.185   6.096 -0.4146 -0.3801  0.0339
 3975SOL    HW212825   2.546   3.282   6.203  0.8854  0.5915  0.1208
 3976SOL     OW12826   5.151   3.802   4.831 -0.0729 -0.2629 -0.3503
 3976SOL    HW112827   5.223   3.734   4.847 -0.6390 -0.5480  1.1457
 3976SOL    HW212828   5.097   3.813   4.914 -2.0362 -0.3532 -1.5680
 3977SOL     OW12829   4.319   3.371   5.741  0.2019  0.5091  0.3927
 3977SOL    HW112830   4.352   3.356   5.834 -0.1250 -0.4750  0.3632
 3977SOL    HW212831   4.397   3.385   5.680  0.3671  3.1950  1.1103
 3978SOL     OW12832   4.216   1.166   3.203  0.3835  0.3763 -0.0312
 3978SOL    HW112833   4.159   1.207   3.274 -0.1870 -0.8348  0.2421
 3978SOL    HW212834   4.165   1.093   3.157  1.3272  0.0196 -0.5494
 3979SOL     OW12835   4.554   1.800   3.171 -0.0534  0.5299  0.5295
 3979SOL    HW112836   4.548   1.883   3.225  0.5219  1.6174 -0.9937
 3979SOL    HW212837   4.549   1.720   3.231 -0.3648  1.6477  2.0509
 3980SOL     OW12838   3.531   4.937   3.125  0.4325  0.1230  0.1139
 3980SOL    HW112839   3.431   4.930   3.128  0.1845  2.6312 -0.0040
 3980SOL    HW212840   3.564   4.901   3.038 -0.3504 -0.8162  0.1939
 3981SOL     OW12841   6.265   4.320   6.135 -0.1664 -0.0265  0.0726
 3981SOL    HW112842   6.315   4.310   6.049 -0.7167 -1.5133 -0.1011
 3981SOL    HW212843   6.280   4.412   6.171 -0.9286  1.0884 -2.2481
 3982SOL     OW12844   1.245   4.410   2.174 -0.3721 -0.4731 -0.1517
 3982SOL    HW112845   1.219   4.497   2.133 -0.0875  0.0850  0.8333
 3982SOL    HW212846   1.169   4.375   2.230  0.1431  0.0273  0.8788
 3983SOL     OW12847   2.310   0.965   5.243 -0.7668  0.0541 -0.1210
 3983SOL    HW112848   2.377   0.981   5.171 -0.4980  0.0886  0.1354
 3983SOL    HW212849   2.261   0.880   5.224  0.5042 -0.8569  0.5475
 3984SOL     OW12850   1.780   3.802   3.509  0.1978 -0.1386  0.6011
 3984SOL    HW112851   1.845   3.864   3.464  0.8398 -3.2101 -3.3554
 3984SOL    HW212852   1.825   3.756   3.585  1.5446  0.3186  0.1198
 3985SOL     OW12853   5.619   6.968   2.136 -0.4017 -0.4004  0.2799
 3985SOL    HW112854   5.637   7.016   2.050 -0.1431  0.3244  0.7232
 3985SOL    HW212855   5.576   6.880   2.118 -1.8215  0.4299 -0.5286
 3986SOL     OW12856   3.849   3.135   5.530 -0.8025 -0.1989 -0.5769
 3986SOL    HW112857   3.804   3.224   5.540  0.5102  0.2670  2.4664
 3986SOL    HW212858   3.947   3.149   5.514 -0.3200 -0.9808  1.3480
 3987SOL     OW12859   3.258   0.960   0.462  0.7515  0.3541 -0.7605
 3987SOL    HW112860   3.272   0.868   0.497  0.5209  0.2883 -0.8419
 3987SOL    HW212861   3.271   0.960   0.362 -0.3214  0.1918 -0.9069
 3988SOL     OW12862   5.301   5.533   3.406  0.5237 -0.8838  0.0693
 3988SOL    HW112863   5.307   5.445   3.359  1.5738 -0.5347 -0.4731
 3988SOL    HW212864   5.372   5.539   3.476  1.6447  0.2237 -1.1170
 3989SOL     OW12865   0.239   0.475   3.511 -0.1653 -0.6351  0.5116
 3989SOL    HW112866   0.329   0.505   3.479 -0.4385 -0.5479 -0.1977
 3989SOL    HW212867   0.243   0.455   3.609  0.4958 -0.1297  0.5946
 3990SOL     OW12868   5.640   2.173   1.341 -0.1758  0.0408 -0.2627
 3990SOL    HW112869   5.713   2.202   1.279 -1.5667  1.8605 -1.1178
 3990SOL    HW212870   5.680   2.155   1.431  1.4844 -0.0624 -0.9760
 3991SOL     OW12871   4.667   5.133   5.615  0.5756 -0.4219 -0.3254
 3991SOL    HW112872   4.678   5.232   5.625  0.8912 -0.5965  1.2055
 3991SOL    HW212873   4.757   5.089   5.613  0.5077 -1.0508  3.5718
 3992SOL     OW12874   4.458   5.978   3.103 -0.0571  0.1145 -0.0840
 3992SOL    HW112875   4.382   6.043   3.106 -0.4876 -0.4360  1.0310
 3992SOL    HW212876   4.535   6.015   3.156  0.5603  0.7682 -1.3793
 3993SOL     OW12877   2.357   5.414   2.486 -0.1818 -0.0499  1.1174
 3993SOL    HW112878   2.384   5.327   2.444 -1.6690 -1.1724  2.3825
 3993SOL    HW212879   2.342   5.482   2.414  1.5058 -0.6472  0.1319
 3994SOL     OW12880   6.556   2.118   5.915  0.0446 -0.6628  0.0178
 3994SOL    HW112881   6.468   2.159   5.938 -0.0455 -1.2784  0.7967
 3994SOL    HW212882   6.546   2.061   5.834 -0.4440 -1.3139  0.5291
 3995SOL     OW12883   2.737   4.442   5.326  0.1063 -0.1392 -0.2547
 3995SOL    HW112884   2.784   4.505   5.263 -0.0596  0.7290  0.4652
 3995SOL    HW212885   2.699   4.494   5.402 -1.0973 -0.9708 -0.2646
 3996SOL     OW12886   2.464   6.521   1.798  0.7234  0.1672  0.0807
 3996SOL    HW112887   2.463   6.613   1.838 -1.6506 -0.5552  1.8863
 3996SOL    HW212888   2.500   6.456   1.864  0.0149 -0.5600 -0.2349
 3997SOL     OW12889   4.590   4.221   0.300  0.3848  0.7610 -0.1962
 3997SOL    HW112890   4.625   4.128   0.309 -1.5807 -0.0067 -0.0978
 3997SOL    HW212891   4.607   4.254   0.207  1.0272  0.2941 -0.2547
 3998SOL     OW12892   3.746   2.685   5.559  0.0103 -0.2950 -0.6465
 3998SOL    HW112893   3.793   2.597   5.573 -1.2634 -0.8593  0.3366
 3998SOL    HW212894   3.689   2.705   5.639 -1.7700  0.1133 -1.9439
 3999SOL     OW12895   1.030   2.673   4.138 -0.7496 -0.5338  0.1373
 3999SOL    HW112896   1.077   2.754   4.102  0.0212 -0.7116  0.7286
 3999SOL    HW212897   1.019   2.605   4.065 -1.2997  0.0464 -0.3356
 4000SOL     OW12898   2.393   0.938   4.081 -0.1976  0.9171  0.2281
 4000SOL    HW112899   2.319   0.972   4.024  0.5352  0.1182 -1.2638
 4000SOL    HW212900   2.480   0.970   4.045  0.2714  0.4833  0.9616
 4001SOL     OW12901   6.519   0.042   4.790 -0.5656  0.0531  0.1860
 4001SOL    HW112902   6.476   0.105   4.854 -2.4646 -0.6615 -0.3316
 4001SOL    HW212903   6.548   0.091   4.708 -0.2433  0.5715  0.6047
 4002SOL     OW12904   2.878   3.462   4.618  0.0999  0.4650  0.5810
 4002SOL    HW112905   2.807   3.483   4.686 -1.2338 -0.5325 -0.4637
 4002SOL    HW212906   2.968   3.465   4.663 -0.7502 -0.5458  2.5001
 4003SOL     OW12907   3.656   4.762   5.997 -0.0456 -0.0857  0.0486
 4003SOL    HW112908   3.574   4.818   6.013  0.3134  0.8572 -1.2512
 4003SOL    HW212909   3.675   4.758   5.899 -0.6197 -3.3480 -0.0601
 4004SOL     OW12910   0.032   1.535   5.327 -0.2053  0.3039 -0.0193
 4004SOL    HW112911   0.080   1.452   5.358  0.2258  0.6259  0.1820
 4004SOL    HW212912  -0.051   1.508   5.277 -0.8693 -0.2312  1.3154
 4005SOL     OW12913   3.094   3.206   0.111  1.0495 -0.3023  0.0552
 4005SOL    HW112914   3.167   3.271   0.093 -0.4710  1.5262  0.1450
 4005SOL    HW212915   3.011   3.234   0.064 -0.3755 -0.7141  2.1433
 4006SOL     OW12916   3.707   0.735   6.907 -0.5732 -0.2017  0.5510
 4006SOL    HW112917   3.773   0.669   6.872  0.3411 -0.0933  1.9885
 4006SOL    HW212918   3.615   0.698   6.897 -0.2171 -0.8405 -0.4619
 4007SOL     OW12919   3.329   5.851   0.437 -0.1877 -0.3799  0.4843
 4007SOL    HW112920   3.362   5.864   0.344  0.5966  0.1094  0.8202
 4007SOL    HW212921   3.401   5.874   0.502 -1.5338  1.9589  1.2953
 4008SOL     OW12922   3.467   1.016   5.320  0.1656  0.4789 -1.1238
 4008SOL    HW112923   3.396   0.951   5.346 -2.1270  3.0098 -0.5099
 4008SOL    HW212924   3.548   1.002   5.378 -1.6412  0.4758  1.6192
 4009SOL     OW12925   1.906   0.580   2.670  0.0025  0.1742  0.1321
 4009SOL    HW112926   1.841   0.504   2.662 -1.4769  1.1644  1.8561
 4009SOL    HW212927   1.997   0.544   2.690 -0.4734 -1.1803 -0.0316
 4010SOL     OW12928   6.826   0.244   6.743  0.2147  0.3267  0.4089
 4010SOL    HW112929   6.854   0.150   6.723  0.5353  0.3797  0.5971
 4010SOL    HW212930   6.907   0.300   6.759 -0.0191  0.3620  1.5140
 4011SOL     OW12931   3.967   4.418   1.187 -0.1251 -0.3018 -0.4574
 4011SOL    HW112932   4.058   4.375   1.187 -0.0503 -0.1774 -1.7698
 4011SOL    HW212933   3.898   4.350   1.208  0.0878 -0.8479 -1.5019
 4012SOL     OW12934   1.776   5.578   5.432 -0.1233 -0.5383 -0.2333
 4012SOL    HW112935   1.838   5.542   5.362  1.6867 -1.2274  1.6413
 4012SOL    HW212936   1.709   5.509   5.457 -0.4989 -0.4412 -0.9459
 4013SOL     OW12937   3.255   1.786   3.922  0.3072 -0.1206  0.3374
 4013SOL    HW112938   3.162   1.766   3.889  0.0191  0.7704  0.5686
 4013SOL    HW212939   3.298   1.851   3.859  0.5967 -0.1667  0.4915
 4014SOL     OW12940   0.856   4.358   2.132 -0.0260 -0.0432 -0.0180
 4014SOL    HW112941   0.882   4.435   2.073 -0.1538  0.4161  0.5173
 4014SOL    HW212942   0.896   4.273   2.096 -1.1123  0.0290 -1.4712
 4015SOL     OW12943   5.645   5.326   1.061 -0.5180  0.2538 -0.1594
 4015SOL    HW112944   5.605   5.318   0.970 -0.0476 -1.6552 -0.2407
 4015SOL    HW212945   5.692   5.414   1.069 -0.1048  0.2402 -1.9512
 4016SOL     OW12946   3.319   7.003   2.707  0.2435 -0.1934  0.2483
 4016SOL    HW112947   3.299   6.983   2.611  0.0430  2.6185 -0.4015
 4016SOL    HW212948   3.412   6.974   2.730  1.4963  1.8796 -1.7969
 4017SOL     OW12949   6.199   0.421   2.773 -0.6181  0.0025 -0.4828
 4017SOL    HW112950   6.207   0.366   2.856  0.7896  0.1307 -0.5034
 4017SOL    HW212951   6.104   0.447   2.759 -0.7580  0.7726  1.6059
 4018SOL     OW12952   6.850   5.162   6.192  0.4138  0.2992 -0.6883
 4018SOL    HW112953   6.913   5.089   6.168  0.3371 -0.0757  0.2288
 4018SOL    HW212954   6.901   5.245   6.214  0.5590  0.1760 -0.5587
 4019SOL     OW12955   4.380   4.669   0.244  0.1319 -0.3356  0.2952
 4019SOL    HW112956   4.303   4.733   0.248 -0.6669 -0.8431 -3.4478
 4019SOL    HW212957   4.461   4.715   0.209  0.9014 -0.4102  1.8558
 4020SOL     OW12958   3.210   1.966   6.964  0.0910  0.7240  0.4990
 4020SOL    HW112959   3.210   1.903   6.886 -0.5562 -0.7874  1.6758
 4020SOL    HW212960   3.228   2.059   6.931  0.1915  0.0855 -1.3954
 4021SOL     OW12961   1.130   4.002   4.086  0.7787 -0.4788  0.5939
 4021SOL    HW112962   1.095   3.997   3.992  2.6237 -1.3491 -0.1078
 4021SOL    HW212963   1.126   4.096   4.119 -0.1268 -0.2050 -0.2468
 4022SOL     OW12964   4.794   1.863   3.035  0.2939 -0.6585  0.1037
 4022SOL    HW112965   4.848   1.782   3.011 -1.2015 -0.7782 -3.5181
 4022SOL    HW212966   4.703   1.834   3.066 -0.5846 -0.5125 -2.1129
 4023SOL     OW12967   6.760   4.698   6.510 -0.3400 -0.6074  0.0059
 4023SOL    HW112968   6.691   4.661   6.572  0.6410 -1.9670  0.3307
 4023SOL    HW212969   6.826   4.753   6.562 -1.6889  1.5869 -0.4478
 4024SOL     OW12970   0.420   5.981   6.950 -0.1009  0.1510  1.0091
 4024SOL    HW112971   0.475   5.967   7.033 -0.1426 -0.5419  0.9297
 4024SOL    HW212972   0.352   6.053   6.967  0.2183  0.3605  1.4127
 4025SOL     OW12973   3.554   6.931   0.050  0.0179  0.0274  0.2468
 4025SOL    HW112974   3.576   6.889  -0.038 -0.2109 -0.6529  0.5093
 4025SOL    HW212975   3.471   6.889   0.088 -1.2707  1.9453 -0.3157
 4026SOL     OW12976   5.633   5.998   4.350  0.0875 -0.3999  0.3047
 4026SOL    HW112977   5.547   5.965   4.311  0.5547  0.0005 -1.1256
 4026SOL    HW212978   5.616   6.038   4.440 -1.7246  2.2169 -1.0642
 4027SOL     OW12979   4.869   5.101   3.563 -0.9771  0.0201 -0.0549
 4027SOL    HW112980   4.840   5.118   3.657  2.1274 -0.0910  1.0678
 4027SOL    HW212981   4.851   5.182   3.508  0.6277  1.6728  1.6674
 4028SOL     OW12982   1.905   4.222   1.834 -0.2556 -0.9995  0.2537
 4028SOL    HW112983   1.933   4.303   1.782 -0.1140 -0.4996  1.0897
 4028SOL    HW212984   1.922   4.237   1.932 -0.6985 -1.8424  0.4738
 4029SOL     OW12985   1.117   0.979   3.787  0.1487 -0.3573  0.2625
 4029SOL    HW112986   1.083   0.886   3.802 -0.1316 -0.6249 -1.7474
 4029SOL    HW212987   1.084   1.013   3.699 -1.1240  2.3085  1.6642
 4030SOL     OW12988   5.176   4.246   2.340  0.1909 -0.1860  0.6464
 4030SOL    HW112989   5.165   4.153   2.305 -1.1436  0.3446 -0.4508
 4030SOL    HW212990   5.263   4.283   2.308  0.1037 -0.5853 -0.0880
 4031SOL     OW12991   5.783   4.790   6.083  0.6240  0.7985  0.0779
 4031SOL    HW112992   5.844   4.869   6.087  2.4271 -0.5007 -0.5116
 4031SOL    HW212993   5.763   4.768   5.988 -0.1397  0.7166  0.2476
 4032SOL     OW12994   3.138   2.799   5.374 -0.5243  0.2320  0.3613
 4032SOL    HW112995   3.151   2.701   5.360 -1.6891 -0.0450  1.0743
 4032SOL    HW212996   3.200   2.850   5.314  0.5068 -0.9312  0.3997
 4033SOL     OW12997   1.608   5.454   5.988  0.3262  0.4104  0.2117
 4033SOL    HW112998   1.543   5.382   5.967  1.1106 -0.3097  0.1928
 4033SOL    HW212999   1.622   5.460   6.087 -0.9481  1.6445  0.3559
 4034SOL     OW13000   6.518   1.520   1.233  0.1811  0.3416 -0.0233
 4034SOL    HW113001   6.594   1.518   1.168  0.1243  0.4390 -0.0939
 4034SOL    HW213002   6.446   1.580   1.197  0.4044  0.8796  0.4171
 4035SOL     OW13003   3.335   2.886   3.969 -0.1130 -0.0460  0.3527
 4035SOL    HW113004   3.400   2.925   3.904 -2.0834  1.1706 -0.9914
 4035SOL    HW213005   3.297   2.801   3.932 -0.8686  0.3880  0.1026
 4036SOL     OW13006   4.293   6.202   3.018  0.3156  0.4927  0.2591
 4036SOL    HW113007   4.194   6.190   3.006  0.0381 -1.8273  3.4319
 4036SOL    HW213008   4.341   6.156   2.944 -0.9490  1.1558 -1.0257
 4037SOL     OW13009   1.258   1.764   3.132 -0.6613 -0.2615  0.6658
 4037SOL    HW113010   1.296   1.720   3.051 -1.0535 -1.1526  0.9587
 4037SOL    HW213011   1.333   1.790   3.194 -0.3754  0.2549  0.1150
 4038SOL     OW13012   5.018   2.077   4.678 -0.1196 -0.2759 -0.1584
 4038SOL    HW113013   5.089   2.113   4.617  0.3276 -1.0246 -0.0938
 4038SOL    HW213014   5.052   1.995   4.723 -0.4698  0.2081  1.0373
 4039SOL     OW13015   6.288   4.955   0.610 -0.0840  0.2486  0.2971
 4039SOL    HW113016   6.232   4.913   0.539 -0.5286  0.4842  0.5024
 4039SOL    HW213017   6.261   5.050   0.622  0.2928  0.3376  0.4741
 4040SOL     OW13018   3.843   0.985   0.212 -0.5006 -0.2145 -0.2409
 4040SOL    HW113019   3.762   0.926   0.218 -0.0453 -0.7683  0.8016
 4040SOL    HW213020   3.863   1.005   0.116 -0.8998 -1.4531 -0.6053
 4041SOL     OW13021   7.006   3.320   3.798  0.1697  0.3058 -0.9765
 4041SOL    HW113022   6.922   3.344   3.847  1.6851  3.3405  0.3672
 4041SOL    HW213023   7.005   3.362   3.707 -0.4560 -1.1102 -1.6517
 4042SOL     OW13024   5.820   3.612   4.590  0.4224  0.2016  0.2445
 4042SOL    HW113025   5.902   3.619   4.647  0.2706 -0.6196  0.5680
 4042SOL    HW213026   5.838   3.656   4.502  1.0917  0.3375  0.4374
 4043SOL     OW13027   4.059   3.524   4.384 -0.1728  0.5041  0.3255
 4043SOL    HW113028   4.097   3.436   4.410 -0.0967  0.4735  0.1165
 4043SOL    HW213029   4.080   3.542   4.287  0.1375  0.9183  0.4631
 4044SOL     OW13030   3.957   6.010   1.966 -0.0194  0.1585  0.5579
 4044SOL    HW113031   3.892   6.012   1.890 -2.6030  0.7263  2.6026
 4044SOL    HW213032   3.921   5.950   2.038  3.1192 -1.6719  0.7643
 4045SOL     OW13033   1.490   5.637   2.836 -0.0166 -0.1400  0.4795
 4045SOL    HW113034   1.424   5.707   2.862 -1.4591 -0.7379 -1.3697
 4045SOL    HW213035   1.499   5.571   2.911 -2.3007 -0.5791  0.4321
 4046SOL     OW13036   5.795   6.793   3.365  0.4436 -0.3906 -0.4870
 4046SOL    HW113037   5.804   6.787   3.464 -0.8643 -2.4786 -0.4240
 4046SOL    HW213038   5.846   6.718   3.322 -0.4741 -0.6086 -1.2419
 4047SOL     OW13039   0.971   2.838   5.483 -0.0530 -0.2572 -0.7202
 4047SOL    HW113040   1.025   2.911   5.522 -1.3159  0.2890  0.0668
 4047SOL    HW213041   0.961   2.853   5.384  1.5210 -0.5896 -0.9548
 4048SOL     OW13042   2.818   0.519   3.533  0.3663 -0.6188 -0.2058
 4048SOL    HW113043   2.795   0.482   3.624 -0.9392  1.8655  0.5494
 4048SOL    HW213044   2.770   0.466   3.463 -1.4239 -0.4317  0.8192
 4049SOL     OW13045   2.790   3.999   5.671  0.6065  0.1412 -0.7503
 4049SOL    HW113046   2.724   3.927   5.652  1.1158 -0.6219  0.3258
 4049SOL    HW213047   2.873   3.959   5.711  1.4016  1.1736 -1.3173
 4050SOL     OW13048   0.787   4.241   0.960 -0.1105  0.0421  0.0919
 4050SOL    HW113049   0.782   4.234   0.860  0.6813  1.8533 -0.1044
 4050SOL    HW213050   0.716   4.303   0.992 -0.7897 -1.0451  0.7547
 4051SOL     OW13051   6.312   0.790   5.835  0.0583 -0.3738 -0.1806
 4051SOL    HW113052   6.355   0.868   5.790  1.6157 -1.8769 -1.4541
 4051SOL    HW213053   6.245   0.748   5.773 -1.0273  0.1304  0.6259
 4052SOL     OW13054   4.684   6.653   4.739  0.5577 -0.1364  0.7892
 4052SOL    HW113055   4.730   6.665   4.827 -1.0083  0.8462  1.5169
 4052SOL    HW213056   4.752   6.649   4.666  1.8481 -0.2192  1.9580
 4053SOL     OW13057   2.855   2.081   6.309  0.2067  0.1846  0.5794
 4053SOL    HW113058   2.903   2.007   6.263  2.1191  1.5614  0.2332
 4053SOL    HW213059   2.817   2.144   6.241  0.0201  0.3815  0.8625
 4054SOL     OW13060   5.399   5.805   5.407  0.1455 -0.2503  0.0539
 4054SOL    HW113061   5.456   5.887   5.406 -1.0147  0.5843  0.1316
 4054SOL    HW213062   5.395   5.769   5.501  0.0514  0.0589  0.1725
 4055SOL     OW13063   6.231   2.000   6.515  0.4044  0.2681 -0.0341
 4055SOL    HW113064   6.153   2.060   6.499  1.1048  1.1408 -0.3060
 4055SOL    HW213065   6.220   1.952   6.602  0.6853  2.2406  1.1596
 4056SOL     OW13066   4.171   3.367   2.023 -0.6127 -0.3830 -0.5952
 4056SOL    HW113067   4.165   3.466   2.035  1.5693 -0.1191 -1.1757
 4056SOL    HW213068   4.194   3.346   1.928 -1.5143 -1.4941 -0.5918
 4057SOL     OW13069   6.617   3.530   0.272  0.4189  0.2138 -0.6416
 4057SOL    HW113070   6.581   3.558   0.362  0.2516  0.5043 -0.7969
 4057SOL    HW213071   6.584   3.438   0.251  2.1786 -0.7408  0.5327
 4058SOL     OW13072   3.154   5.963   6.848  0.0866  0.2844 -0.1176
 4058SOL    HW113073   3.121   5.947   6.755 -0.8762  0.0335  0.2486
 4058SOL    HW213074   3.131   6.057   6.875  0.2564  0.3180 -0.0888
 4059SOL     OW13075   6.244   5.456   3.497  0.1478 -0.1345 -0.2477
 4059SOL    HW113076   6.199   5.541   3.469  1.4158  0.7637  0.3754
 4059SOL    HW213077   6.174   5.385   3.509 -1.1541  1.2204  0.7517
 4060SOL     OW13078   0.430   6.616   2.037 -0.1272  0.0830 -0.0237
 4060SOL    HW113079   0.485   6.573   1.966  1.2587  0.7766  0.5843
 4060SOL    HW213080   0.390   6.546   2.096 -1.8229 -0.5409 -1.8053
 4061SOL     OW13081   2.006   5.946   0.780  0.6796  0.4365  0.1275
 4061SOL    HW113082   2.033   6.003   0.858  2.1001  1.7764 -1.2633
 4061SOL    HW213083   1.918   5.979   0.744  0.9850  1.0965 -0.0301
 4062SOL     OW13084   5.609   3.211   0.902 -0.0956  0.2626 -0.0488
 4062SOL    HW113085   5.587   3.153   0.981  0.3360 -1.5262 -1.1984
 4062SOL    HW213086   5.612   3.307   0.932  0.0484 -0.3497  2.1004
 4063SOL     OW13087   1.084   4.676   4.509  0.0615  0.1653  0.0255
 4063SOL    HW113088   1.053   4.718   4.424 -0.9099  1.8045  1.1364
 4063SOL    HW213089   1.089   4.577   4.497 -0.5515  0.3144 -1.7733
 4064SOL     OW13090   1.705   0.204   0.754 -0.0568  0.3434 -0.4121
 4064SOL    HW113091   1.636   0.142   0.792 -1.0393  1.5664 -0.1132
 4064SOL    HW213092   1.669   0.248   0.672  0.0038  1.6332  0.2173
 4065SOL     OW13093   1.655   1.080   1.721 -0.0247 -0.0487 -0.1869
 4065SOL    HW113094   1.618   1.049   1.633 -0.8712 -1.4158  0.5983
 4065SOL    HW213095   1.659   1.002   1.783 -0.9032  1.1813  1.4774
 4066SOL     OW13096   1.919   1.828   1.712 -0.6799  0.0016 -0.3164
 4066SOL    HW113097   1.879   1.804   1.800  0.2711  0.4888  0.2633
 4066SOL    HW213098   1.887   1.920   1.686  0.6771  0.7514  0.5562
 4067SOL     OW13099   6.965   0.711   0.690 -0.1361 -0.2936  0.0740
 4067SOL    HW113100   7.052   0.696   0.737  0.9578  0.9762 -1.4810
 4067SOL    HW213101   6.934   0.805   0.707 -0.4627 -0.2862 -0.5426
 4068SOL     OW13102   5.433   1.145   0.350  0.3328  0.6758 -0.1564
 4068SOL    HW113103   5.352   1.164   0.294  1.4467  0.9671 -1.7547
 4068SOL    HW213104   5.421   1.058   0.398 -0.7885  0.5584 -0.6100
 4069SOL     OW13105   3.472   5.647   5.672 -0.0012 -0.1438 -0.1789
 4069SOL    HW113106   3.494   5.718   5.738 -1.1786 -0.8110  0.9840
 4069SOL    HW213107   3.556   5.607   5.636  0.7479 -1.5062  2.8414
 4070SOL     OW13108   0.764   0.505   2.136 -0.2827 -0.0138  0.5030
 4070SOL    HW113109   0.858   0.533   2.156  1.2033 -1.8618 -2.9835
 4070SOL    HW213110   0.741   0.424   2.190 -0.6136  1.4446  2.6592
 4071SOL     OW13111   1.837   6.382   5.292 -0.2215  0.5047  0.3115
 4071SOL    HW113112   1.784   6.329   5.358 -1.1271  2.4028  1.1791
 4071SOL    HW213113   1.847   6.476   5.325 -0.0423  1.3169 -1.8914
 4072SOL     OW13114   3.552   1.100   0.851  0.1483 -0.1419  0.3949
 4072SOL    HW113115   3.647   1.116   0.875  0.5121 -0.5996 -0.6729
 4072SOL    HW213116   3.518   1.175   0.795 -0.6555  0.8564  2.1338
 4073SOL     OW13117   0.035   6.566   4.944  0.1012  0.0658 -0.0515
 4073SOL    HW113118   0.032   6.593   4.848 -2.7166 -1.0898 -0.3741
 4073SOL    HW213119   0.009   6.644   5.001 -0.2117  0.1989 -0.3705
 4074SOL     OW13120   1.227   2.206   0.055 -0.7917 -0.2323  0.2733
 4074SOL    HW113121   1.149   2.260   0.085 -1.1777 -0.4466 -0.3246
 4074SOL    HW213122   1.311   2.260   0.065 -1.1364  0.3714 -0.0331
 4075SOL     OW13123   5.146   5.608   0.972 -0.1946  0.0110 -0.2997
 4075SOL    HW113124   5.186   5.655   1.051  1.8014 -0.2526 -1.0842
 4075SOL    HW213125   5.133   5.673   0.897  0.4236 -0.2310 -0.6237
 4076SOL     OW13126   3.971   6.280   6.314  0.2770  0.1326  0.6864
 4076SOL    HW113127   3.963   6.266   6.413  1.0762  0.5800  0.8267
 4076SOL    HW213128   4.062   6.252   6.284 -0.3045 -0.9591 -0.1093
 4077SOL     OW13129   3.729   0.534   0.769  0.0845 -0.2756  0.0280
 4077SOL    HW113130   3.692   0.444   0.793 -0.5101  0.4461  1.9864
 4077SOL    HW213131   3.823   0.523   0.738  0.9760 -1.3887  2.7751
 4078SOL     OW13132   6.993   2.371   6.852 -0.3802  0.0114  0.1698
 4078SOL    HW113133   6.919   2.367   6.785 -0.4989  0.5761  0.2666
 4078SOL    HW213134   7.039   2.459   6.846  0.4319 -0.4154 -0.0409
 4079SOL     OW13135   5.339   3.157   1.854  0.3554 -0.0726 -0.4820
 4079SOL    HW113136   5.316   3.070   1.898 -0.2524 -0.1155 -0.8658
 4079SOL    HW213137   5.340   3.145   1.755 -0.4575  0.5136 -0.5726
 4080SOL     OW13138   1.625   6.129   4.883 -0.4278 -0.4190 -0.4907
 4080SOL    HW113139   1.679   6.058   4.928  1.2599  0.6693 -0.7235
 4080SOL    HW213140   1.658   6.141   4.789 -2.8327 -1.5355 -1.5561
 4081SOL     OW13141   1.613   1.442   4.011  0.1788  0.3068  0.0357
 4081SOL    HW113142   1.556   1.433   4.093 -0.7128 -1.2249 -0.6992
 4081SOL    HW213143   1.709   1.433   4.036 -0.0127  0.9425  1.0429
 4082SOL     OW13144   1.759   1.151   4.180  0.2738  0.2162  0.1597
 4082SOL    HW113145   1.778   1.245   4.207 -1.7448 -0.1842  3.5039
 4082SOL    HW213146   1.820   1.125   4.105  4.1810  2.6706  2.1421
 4083SOL     OW13147   4.217   5.124   2.463  0.1934  0.1832 -0.2926
 4083SOL    HW113148   4.161   5.094   2.386 -2.5027  0.3480  1.4681
 4083SOL    HW213149   4.255   5.214   2.442 -0.4990  0.2390 -1.4335
 4084SOL     OW13150   1.304   4.222   3.733 -0.7017  0.1517  0.5076
 4084SOL    HW113151   1.268   4.315   3.735  0.0284  0.4281  1.1882
 4084SOL    HW213152   1.362   4.210   3.653  0.8003  0.9109  1.4398
 4085SOL     OW13153   3.935   4.612   6.355 -0.9188 -0.6485 -0.7726
 4085SOL    HW113154   3.848   4.657   6.374 -1.0474 -0.0880 -2.4891
 4085SOL    HW213155   3.946   4.533   6.415 -1.2705  0.9181  1.4477
 4086SOL     OW13156   2.382   1.584   1.601  0.8237 -0.4475  0.0619
 4086SOL    HW113157   2.378   1.550   1.508 -1.1475 -1.3442  0.4232
 4086SOL    HW213158   2.333   1.671   1.607  1.8415  0.1355  0.0706
 4087SOL     OW13159   4.996   6.741   5.592 -0.6045  0.7839 -0.7416
 4087SOL    HW113160   5.022   6.734   5.496  0.3978  0.8341 -0.4841
 4087SOL    HW213161   5.066   6.792   5.642 -0.4718 -0.3382  0.2667
 4088SOL     OW13162   6.668   1.489   5.011 -0.1356  0.3707  0.0398
 4088SOL    HW113163   6.588   1.532   5.053 -1.1394 -1.9885  0.7618
 4088SOL    HW213164   6.639   1.431   4.935  0.5310 -2.0171  1.4768
 4089SOL     OW13165   0.449   6.267   6.668  0.7157 -0.7787 -0.6216
 4089SOL    HW113166   0.353   6.239   6.668  0.5944 -0.3879 -1.7995
 4089SOL    HW213167   0.481   6.273   6.763 -0.6432 -0.1329 -0.1719
 4090SOL     OW13168   1.196   0.598   5.800 -0.0827 -0.0408  0.5564
 4090SOL    HW113169   1.187   0.526   5.869  0.4057 -0.9279 -0.2814
 4090SOL    HW213170   1.119   0.592   5.736  0.5172 -0.5114 -0.1322
 4091SOL     OW13171   2.772   6.980   0.933 -0.6449 -0.0677  0.3990
 4091SOL    HW113172   2.674   6.964   0.930 -0.8728  1.2731 -2.2117
 4091SOL    HW213173   2.793   7.053   0.998 -1.4580  0.0686  0.5097
 4092SOL     OW13174   6.359   5.810   0.349 -0.3448 -0.0195  0.1488
 4092SOL    HW113175   6.449   5.796   0.307  0.3843  0.6269  1.4345
 4092SOL    HW213176   6.360   5.774   0.443 -1.5184 -0.2355  0.0949
 4093SOL     OW13177   2.779   6.656   4.863  0.4235  0.2941  0.2826
 4093SOL    HW113178   2.714   6.584   4.887  0.6676 -0.0473 -0.0633
 4093SOL    HW213179   2.731   6.735   4.826  0.2713 -0.3291 -0.8961
 4094SOL     OW13180   2.846   0.103   6.155 -0.0998 -0.2198  0.6943
 4094SOL    HW113181   2.798   0.126   6.239  1.2394 -0.0067  1.4091
 4094SOL    HW213182   2.940   0.078   6.175  0.2644 -0.1145 -0.7489
 4095SOL     OW13183   4.819   6.965   2.545  0.0595  0.8267  0.4289
 4095SOL    HW113184   4.817   6.914   2.631  0.2232  1.2010  0.6605
 4095SOL    HW213185   4.881   7.043   2.555  3.0363 -1.1536 -1.2027
 4096SOL     OW13186   4.789   0.564   6.140  0.4859  0.2233  0.0157
 4096SOL    HW113187   4.880   0.546   6.176  1.4019 -0.1222 -2.3024
 4096SOL    HW213188   4.794   0.638   6.073 -1.4556  2.1471  1.8280
 4097SOL     OW13189   1.390   3.280   6.089 -0.2630  0.5553 -0.1118
 4097SOL    HW113190   1.337   3.222   6.151 -1.8769  1.4164 -0.6392
 4097SOL    HW213191   1.341   3.366   6.074  0.0392  0.3395 -2.6485
 4098SOL     OW13192   0.231   6.349   1.132  0.4941 -0.1820 -0.1056
 4098SOL    HW113193   0.296   6.376   1.061  2.1863 -0.7321  1.1660
 4098SOL    HW213194   0.138   6.368   1.101  1.3267  2.7507 -1.0924
 4099SOL     OW13195   1.530   1.774   1.033  0.3401 -0.6299 -0.3508
 4099SOL    HW113196   1.479   1.694   1.066 -0.5861 -0.4976 -1.4208
 4099SOL    HW213197   1.524   1.779   0.934 -0.7735  1.5417 -0.2255
 4100SOL     OW13198   5.575   3.624   2.225 -0.0458 -0.2743  1.1635
 4100SOL    HW113199   5.617   3.713   2.241 -1.5122  0.7168 -0.3087
 4100SOL    HW213200   5.635   3.569   2.166 -0.4735  0.8666 -0.3685
 4101SOL     OW13201   5.267   2.179   3.690 -0.3004  0.4819 -0.3562
 4101SOL    HW113202   5.288   2.275   3.711  2.1747  0.0522 -0.6326
 4101SOL    HW213203   5.264   2.167   3.591  0.7564  0.0342 -0.3440
 4102SOL     OW13204   5.259   1.666   4.090 -0.5118  0.5641 -0.1979
 4102SOL    HW113205   5.254   1.722   4.172 -0.8637  0.9971 -0.5158
 4102SOL    HW213206   5.305   1.717   4.017 -0.7211  0.3963 -0.4487
 4103SOL     OW13207   4.666   5.904   6.704  0.0542 -0.6894  0.5551
 4103SOL    HW113208   4.609   5.962   6.646 -1.3693  0.1648  2.6741
 4103SOL    HW213209   4.688   5.819   6.656 -0.6282  0.1751 -1.3650
 4104SOL     OW13210   3.847   0.513   3.605 -0.1384 -0.1416 -0.2232
 4104SOL    HW113211   3.874   0.519   3.509 -0.2135 -1.4082 -0.3447
 4104SOL    HW213212   3.750   0.491   3.611 -0.6276  1.9289  0.1910
 4105SOL     OW13213   3.978   6.525   1.058  0.6015  0.3558  0.6116
 4105SOL    HW113214   4.041   6.478   0.996  0.3870  1.9783 -0.9188
 4105SOL    HW213215   3.902   6.465   1.080  0.3956 -0.0919 -1.1739
 4106SOL     OW13216   6.134   1.086   3.662 -0.1294  0.2409 -0.6888
 4106SOL    HW113217   6.145   1.102   3.564  1.0744  4.0242 -0.1302
 4106SOL    HW213218   6.224   1.067   3.702 -0.1984  1.1471 -0.0598
 4107SOL     OW13219   3.574   6.530   3.718 -0.7147  0.1623 -0.1895
 4107SOL    HW113220   3.504   6.587   3.761 -1.5264 -1.3410  0.5640
 4107SOL    HW213221   3.637   6.497   3.787  0.2275  0.7666 -0.7380
 4108SOL     OW13222   3.942   1.311   6.516 -0.2684  0.3941  0.1671
 4108SOL    HW113223   4.019   1.371   6.540  0.3364 -0.6499  0.8968
 4108SOL    HW213224   3.974   1.235   6.460 -0.5927 -0.5003  1.1494
 4109SOL     OW13225   6.642   1.084   3.495 -0.9301  0.1356 -0.0173
 4109SOL    HW113226   6.712   1.135   3.445 -0.9607  0.1269 -0.0689
 4109SOL    HW213227   6.565   1.065   3.435  0.1195 -2.1456 -0.7609
 4110SOL     OW13228   4.605   3.111   0.605  0.5690 -0.2541 -0.4461
 4110SOL    HW113229   4.631   3.070   0.518  1.0828  2.1011 -1.4890
 4110SOL    HW213230   4.688   3.137   0.655  0.2646 -0.9124  0.4254
 4111SOL     OW13231   1.993   6.352   3.799  0.0339  0.4183 -0.3803
 4111SOL    HW113232   2.010   6.304   3.714  0.8738  1.7582 -1.0081
 4111SOL    HW213233   1.933   6.430   3.782  1.6837  1.8098 -0.1666
 4112SOL     OW13234   2.763   4.886   0.661 -0.2757 -0.3147 -0.3017
 4112SOL    HW113235   2.748   4.981   0.689 -1.2083 -0.9887  1.6401
 4112SOL    HW213236   2.675   4.840   0.650  0.1807 -1.1355 -0.6204
 4113SOL     OW13237   4.110   2.124   6.834 -0.4588  1.3906 -0.2443
 4113SOL    HW113238   4.112   2.212   6.881 -0.5363  1.9172 -1.1942
 4113SOL    HW213239   4.121   2.139   6.735  1.2240  0.2133 -0.2727
 4114SOL     OW13240   6.418   1.799   5.347 -0.2434 -0.2286 -0.2216
 4114SOL    HW113241   6.484   1.797   5.422  0.6111 -0.7091 -0.9790
 4114SOL    HW213242   6.389   1.893   5.331  1.5915  0.2327 -1.0317
 4115SOL     OW13243   2.489   6.518   4.122  0.2317  0.3030 -0.1815
 4115SOL    HW113244   2.574   6.566   4.103  0.7863 -0.7455 -0.3999
 4115SOL    HW213245   2.488   6.431   4.072 -0.2473 -0.4475  1.1074
 4116SOL     OW13246   1.885   3.942   6.962  0.0162 -0.0337 -0.1247
 4116SOL    HW113247   1.854   3.865   6.907  0.7182  0.4563 -1.2553
 4116SOL    HW213248   1.985   3.950   6.955  0.1581 -0.1303  1.4725
 4117SOL     OW13249   0.308   0.898   1.059 -0.1132  0.0511  0.2256
 4117SOL    HW113250   0.341   0.844   1.135  1.3634  0.0563 -0.3759
 4117SOL    HW213251   0.208   0.896   1.056 -0.1170 -1.5145  1.0051
 4118SOL     OW13252   6.853   1.803   0.677  0.7113  0.1497 -0.2224
 4118SOL    HW113253   6.791   1.728   0.701 -0.1075  0.6808 -0.6202
 4118SOL    HW213254   6.805   1.868   0.618  1.0347  1.6105  1.0728
 4119SOL     OW13255   5.721   3.463   2.055 -0.2929  0.5630  0.3255
 4119SOL    HW113256   5.811   3.508   2.048  0.2227 -0.4889 -0.0090
 4119SOL    HW213257   5.734   3.364   2.055 -1.3735  0.4034  1.5341
 4120SOL     OW13258   1.505   0.029   2.335 -0.2083  0.0596  0.0670
 4120SOL    HW113259   1.437  -0.023   2.388 -0.1703 -2.1611 -1.9017
 4120SOL    HW213260   1.594   0.021   2.380 -0.4975 -0.2725  0.6034
 4121SOL     OW13261   6.530   1.290   5.611 -0.5193 -0.4505  0.3204
 4121SOL    HW113262   6.569   1.370   5.658  1.1756 -0.0361 -1.6742
 4121SOL    HW213263   6.438   1.312   5.579 -0.3573  0.4409  0.4365
 4122SOL     OW13264   1.794   1.691   4.743  0.0527  0.0581 -0.6666
 4122SOL    HW113265   1.825   1.682   4.838  0.4788 -0.6977 -0.8675
 4122SOL    HW213266   1.773   1.787   4.724  0.2601  0.2662  0.0965
 4123SOL     OW13267   1.136   3.603   4.621 -0.2524 -0.0517  0.0878
 4123SOL    HW113268   1.062   3.615   4.687 -0.8827 -0.2862 -0.5608
 4123SOL    HW213269   1.119   3.522   4.566  0.9559 -0.6160  0.5104
 4124SOL     OW13270   3.993   5.451   0.143  0.6315 -0.1693 -0.9079
 4124SOL    HW113271   3.912   5.440   0.200  1.1680  0.2117 -0.0428
 4124SOL    HW213272   4.060   5.508   0.191  1.4313 -0.5180 -1.5770
 4125SOL     OW13273   6.977   0.224   0.945 -0.3298 -0.7075 -0.4099
 4125SOL    HW113274   7.040   0.302   0.945  0.4858 -1.3627 -0.3426
 4125SOL    HW213275   6.885   0.256   0.920 -0.0316  0.2927 -0.2707
 4126SOL     OW13276   3.342   0.289   6.370 -0.2471 -0.0124 -0.1421
 4126SOL    HW113277   3.422   0.304   6.311  0.2654  2.8795  1.1181
 4126SOL    HW213278   3.369   0.235   6.450  0.3180  0.4879  0.0082
 4127SOL     OW13279   3.184   1.181   0.189  0.6025 -0.7130  0.2440
 4127SOL    HW113280   3.268   1.233   0.174 -0.0640 -0.0526 -1.4546
 4127SOL    HW213281   3.202   1.084   0.177  1.1549 -0.5837  0.0035
 4128SOL     OW13282   4.702   1.245   2.064 -0.4051 -0.1415  0.4372
 4128SOL    HW113283   4.667   1.183   1.994 -2.1571  0.9923  0.2412
 4128SOL    HW213284   4.694   1.201   2.154  0.1538 -0.9103  0.1160
 4129SOL     OW13285   2.813   5.174   3.920 -0.2572 -0.2832  0.4616
 4129SOL    HW113286   2.909   5.147   3.915 -0.6919 -1.8707  0.2136
 4129SOL    HW213287   2.769   5.130   3.998 -0.5040  1.4730  1.3703
 4130SOL     OW13288   3.808   5.424   5.772  0.3684 -0.3412 -0.3554
 4130SOL    HW113289   3.782   5.490   5.701  0.5873  0.0968 -0.0330
 4130SOL    HW213290   3.898   5.448   5.808  0.3784 -0.7246 -0.1259
 4131SOL     OW13291   6.566   0.811   2.256  0.0537  0.5685 -0.5665
 4131SOL    HW113292   6.506   0.891   2.260 -0.6750 -0.0228  2.0611
 4131SOL    HW213293   6.535   0.749   2.184 -0.6356  1.6685 -1.2359
 4132SOL     OW13294   2.414   4.424   3.188 -0.0007  0.4996 -0.0468
 4132SOL    HW113295   2.323   4.465   3.183 -0.3311 -0.3399 -1.7517
 4132SOL    HW213296   2.483   4.496   3.201 -0.9134  1.0776  2.1230
 4133SOL     OW13297   0.678   1.206   0.264 -0.0265  0.3829 -0.2394
 4133SOL    HW113298   0.715   1.141   0.197 -1.8740 -1.2390  0.2376
 4133SOL    HW213299   0.662   1.159   0.351  0.3606  1.9591  0.7245
 4134SOL     OW13300   2.972   1.380   2.991 -0.5427  0.0916 -0.4134
 4134SOL    HW113301   3.051   1.332   3.030 -0.7979 -0.8869 -1.0826
 4134SOL    HW213302   2.987   1.479   2.999  1.2904 -0.0449 -1.5681
 4135SOL     OW13303   5.179   0.907   4.406  0.0327 -0.1839  0.5040
 4135SOL    HW113304   5.249   0.844   4.441  2.0754  0.8728 -1.4438
 4135SOL    HW213305   5.194   0.998   4.444 -0.6505 -0.0558  0.4843
 4136SOL     OW13306   5.804   6.166   3.663 -0.5435 -0.7139 -0.0157
 4136SOL    HW113307   5.765   6.177   3.754  0.7498  3.0680  0.2855
 4136SOL    HW213308   5.894   6.124   3.670 -0.9459 -1.5353  0.2888
 4137SOL     OW13309   3.890   1.463   5.339  0.4770 -0.6635  0.2834
 4137SOL    HW113310   3.919   1.368   5.351 -2.9492 -1.6418  2.0219
 4137SOL    HW213311   3.816   1.467   5.272  0.8962  0.9065 -0.1341
 4138SOL     OW13312   4.540   6.417   0.610 -0.0202  0.4073 -0.1725
 4138SOL    HW113313   4.486   6.416   0.526  0.3294  0.9905 -0.4172
 4138SOL    HW213314   4.486   6.457   0.684 -0.3229 -0.0917 -0.1214
 4139SOL     OW13315   3.857   6.104   5.184  0.5437 -0.5125 -0.1096
 4139SOL    HW113316   3.946   6.080   5.145  1.0091  0.3801  0.3684
 4139SOL    HW213317   3.850   6.204   5.190 -1.3313 -0.4616 -2.0814
 4140SOL     OW13318   0.995   2.338   6.814 -0.1157 -0.4321 -0.1159
 4140SOL    HW113319   1.080   2.390   6.816  0.0269 -0.5917 -1.2664
 4140SOL    HW213320   1.016   2.241   6.823 -0.2393 -0.4143  0.3576
 4141SOL     OW13321   3.353   4.057   0.039 -0.3122 -0.4838 -0.1655
 4141SOL    HW113322   3.451   4.037   0.036 -0.4471 -1.3556  0.5094
 4141SOL    HW213323   3.309   3.995   0.105 -1.1149  0.7407  0.4893
 4142SOL     OW13324   2.155   6.592   3.719 -0.2300  0.0999 -0.1244
 4142SOL    HW113325   2.220   6.663   3.745 -0.0008  0.0610 -0.5953
 4142SOL    HW213326   2.184   6.504   3.759 -1.0330  0.4370  1.2700
 4143SOL     OW13327   3.055   6.051   1.017 -0.2317 -0.2376 -0.3972
 4143SOL    HW113328   2.997   6.128   0.991 -0.4058 -0.7698 -1.6580
 4143SOL    HW213329   3.111   6.076   1.096 -1.1882  0.7425 -0.0137
 4144SOL     OW13330   1.624   6.727   2.141 -0.6528  0.0495  0.1459
 4144SOL    HW113331   1.635   6.633   2.108  0.9871  0.2640 -0.0002
 4144SOL    HW213332   1.627   6.790   2.064  2.3542  0.4893  0.5024
 4145SOL     OW13333   4.955   7.019   6.487 -0.3700 -0.3515  0.2485
 4145SOL    HW113334   4.947   7.025   6.387 -2.1888 -1.7467  0.2699
 4145SOL    HW213335   4.968   6.924   6.514 -2.0125 -0.2680  1.4553
 4146SOL     OW13336   3.251   6.858   4.150  0.4676  0.4974 -0.1783
 4146SOL    HW113337   3.236   6.946   4.194  0.3401  0.7945 -0.8080
 4146SOL    HW213338   3.221   6.862   4.055  1.2379  0.0299 -0.4572
 4147SOL     OW13339   1.492   6.359   5.450 -0.0940  0.0409 -0.6892
 4147SOL    HW113340   1.506   6.263   5.474 -4.1781 -0.4207  0.5917
 4147SOL    HW213341   1.401   6.371   5.411  1.6585  2.9016 -4.5348
 4148SOL     OW13342   4.500   4.418   3.535  0.2982 -0.1793  1.2946
 4148SOL    HW113343   4.529   4.466   3.619 -0.7380 -1.6193  2.5340
 4148SOL    HW213344   4.407   4.444   3.512  0.1243 -0.7587  1.3354
 4149SOL     OW13345   6.679   5.134   3.825  0.0199 -0.0605 -0.0483
 4149SOL    HW113346   6.770   5.094   3.834  0.1559  0.0603 -0.8253
 4149SOL    HW213347   6.635   5.138   3.915  0.9643  0.3196  0.4070
 4150SOL     OW13348   0.969   4.011   0.847 -0.2903 -0.0516  0.3766
 4150SOL    HW113349   0.957   3.951   0.768  0.7746  2.4306 -1.8362
 4150SOL    HW213350   0.880   4.048   0.874 -0.6669 -0.8965  0.3316
 4151SOL     OW13351   3.198   0.597   4.488 -0.5167 -0.3887  0.0191
 4151SOL    HW113352   3.133   0.660   4.530 -1.2056 -0.7726 -0.4362
 4151SOL    HW213353   3.192   0.508   4.532  1.7228  0.2851  1.8645
 4152SOL     OW13354   3.255   6.463   3.234 -0.1234  0.2107  0.5469
 4152SOL    HW113355   3.253   6.560   3.260  1.2301  0.1878  0.7625
 4152SOL    HW213356   3.273   6.456   3.136 -2.1876  0.2025  0.1131
 4153SOL     OW13357   3.328   2.386   5.522  1.0280  0.4295 -0.2234
 4153SOL    HW113358   3.348   2.442   5.603  0.6922  0.0215  0.1532
 4153SOL    HW213359   3.412   2.371   5.470  1.6864 -0.9578  1.1373
 4154SOL     OW13360   6.280   5.164   4.120 -0.4617  0.2336  0.1945
 4154SOL    HW113361   6.276   5.066   4.142  3.4929 -0.0517  0.4352
 4154SOL    HW213362   6.291   5.176   4.022 -0.7739  0.4576  0.1848
 4155SOL     OW13363   6.234   5.747   6.779  0.5383 -0.2122 -0.1248
 4155SOL    HW113364   6.266   5.663   6.735  5.5873  2.1944 -1.7820
 4155SOL    HW213365   6.278   5.757   6.868 -1.6762 -0.1757  1.0448
 4156SOL     OW13366   1.380   6.129   0.357 -0.3362 -0.3347  0.0837
 4156SOL    HW113367   1.365   6.066   0.433 -0.7689 -0.2535  0.0694
 4156SOL    HW213368   1.292   6.150   0.314 -0.2035  0.3096  0.1174
 4157SOL     OW13369   4.777   1.551   6.571 -0.3083 -0.1124 -0.1812
 4157SOL    HW113370   4.848   1.588   6.631  0.7808  0.4765 -1.7715
 4157SOL    HW213371   4.818   1.492   6.502 -1.1112  1.5119 -2.1420
 4158SOL     OW13372   1.622   0.903   1.087  0.3177  0.4618 -0.5831
 4158SOL    HW113373   1.710   0.919   1.131  0.7153  0.3696 -1.3207
 4158SOL    HW213374   1.634   0.839   1.010 -0.8004 -1.5705  0.8199
 4159SOL     OW13375   4.143   4.027   0.329  0.6190 -0.0879  0.0062
 4159SOL    HW113376   4.057   4.011   0.377 -0.8625  3.0543 -1.3290
 4159SOL    HW213377   4.211   4.063   0.393  0.6446 -1.5027  0.8279
 4160SOL     OW13378   2.907   1.902   2.170  0.1940 -0.2132  0.8688
 4160SOL    HW113379   2.961   1.985   2.167 -0.2753  0.0811  0.4113
 4160SOL    HW213380   2.968   1.822   2.169  0.6235  0.1149  0.7161
 4161SOL     OW13381   1.047   1.029   1.239 -0.1036  0.3021 -0.2103
 4161SOL    HW113382   1.112   1.003   1.167 -0.8297  0.9809 -1.1384
 4161SOL    HW213383   1.094   1.081   1.310  0.8118 -1.1677  0.3016
 4162SOL     OW13384   4.456   4.337   0.855  0.3078  0.5114 -0.0812
 4162SOL    HW113385   4.455   4.279   0.774 -0.3419  1.5674 -0.8488
 4162SOL    HW213386   4.550   4.363   0.876  0.4375  0.6455 -0.8055
 4163SOL     OW13387   4.667   0.927   1.176 -0.4685  0.6364 -0.0379
 4163SOL    HW113388   4.753   0.969   1.148  0.2639 -0.4897  0.4631
 4163SOL    HW213389   4.594   0.955   1.114  0.8755 -0.8655 -2.4551
 4164SOL     OW13390   1.433   0.430   6.934  0.3973 -0.4333 -0.8998
 4164SOL    HW113391   1.515   0.437   6.877  2.3669  0.0127  1.7673
 4164SOL    HW213392   1.425   0.337   6.970 -0.1460 -0.4276 -1.0062
 4165SOL     OW13393   4.481   3.213   0.229  0.0869  0.4347 -0.1519
 4165SOL    HW113394   4.567   3.263   0.240  1.1072 -1.1317 -0.6200
 4165SOL    HW213395   4.489   3.124   0.273 -2.0972  1.0550  1.6993
 4166SOL     OW13396   1.814   6.134   1.062 -0.4391 -0.0151  0.5729
 4166SOL    HW113397   1.719   6.104   1.054 -0.7163  1.1064 -0.5422
 4166SOL    HW213398   1.823   6.229   1.033  0.9703  0.0262  1.0250
 4167SOL     OW13399   0.248   0.271   1.165 -0.2982  0.3583  0.3261
 4167SOL    HW113400   0.322   0.251   1.230 -0.0523  1.3638  0.3658
 4167SOL    HW213401   0.255   0.365   1.133 -0.7471  0.0461 -0.7521
 4168SOL     OW13402   1.147   3.040   5.561 -0.1430 -0.4692 -0.5525
 4168SOL    HW113403   1.140   3.126   5.509  0.5818 -1.1831 -1.8909
 4168SOL    HW213404   1.203   3.054   5.642 -0.9218  0.5695 -0.1683
 4169SOL     OW13405   2.769   0.993   0.235 -0.1947  0.1804 -0.5526
 4169SOL    HW113406   2.778   0.915   0.297 -1.1124 -1.1206 -2.0050
 4169SOL    HW213407   2.690   1.048   0.261 -0.6078 -0.3899 -0.5990
 4170SOL     OW13408   0.897   4.332   5.270 -0.4335  0.2515 -0.1332
 4170SOL    HW113409   0.932   4.290   5.186  0.7963  0.4520  0.2515
 4170SOL    HW213410   0.955   4.409   5.295 -0.8892  0.3076  0.8079
 4171SOL     OW13411   2.551   2.982   1.258  0.2761 -0.2492  0.2913
 4171SOL    HW113412   2.491   2.959   1.182  1.4233  1.2891 -1.1341
 4171SOL    HW213413   2.509   3.055   1.312 -0.4642 -1.2322  1.0875
 4172SOL     OW13414   5.139   4.145   2.820 -0.1743  0.4456 -0.1179
 4172SOL    HW113415   5.074   4.075   2.850 -1.5520  1.3775 -0.8079
 4172SOL    HW213416   5.206   4.161   2.892  1.1616 -2.6397 -0.5040
 4173SOL     OW13417   6.333   6.161   4.583 -0.7734 -0.0908 -0.0601
 4173SOL    HW113418   6.420   6.125   4.548 -0.3503  0.4667  0.3943
 4173SOL    HW213419   6.332   6.261   4.573 -2.1983 -0.2325 -1.9267
 4174SOL     OW13420   1.976   1.295   4.826 -0.1916  0.5891 -0.4980
 4174SOL    HW113421   1.990   1.196   4.831 -1.2831  0.4315 -0.3110
 4174SOL    HW213422   2.054   1.342   4.866 -1.0604 -0.2720  2.5031
 4175SOL     OW13423   1.691   1.098   0.325  0.2449  0.3249 -0.6972
 4175SOL    HW113424   1.657   1.165   0.391  1.2051  0.6545 -0.5149
 4175SOL    HW213425   1.640   1.106   0.240  0.1882  1.1420 -0.5973
 4176SOL     OW13426   4.340   1.541   2.082 -0.2263 -0.0614  0.6553
 4176SOL    HW113427   4.317   1.613   2.017 -0.2033 -0.4705  0.1806
 4176SOL    HW213428   4.437   1.517   2.074 -0.4539 -0.8480  0.0710
 4177SOL     OW13429   3.688   5.249   4.572  0.2463  0.2443 -0.5542
 4177SOL    HW113430   3.608   5.281   4.520  0.9305  1.1601 -1.0646
 4177SOL    HW213431   3.659   5.222   4.664 -1.2056 -2.4946 -1.6738
 4178SOL     OW13432   6.899   3.695   5.128  0.0246  0.2902 -0.0732
 4178SOL    HW113433   6.930   3.628   5.195  1.3307  0.5367 -0.4019
 4178SOL    HW213434   6.910   3.657   5.036 -2.1348 -0.2070 -0.1876
 4179SOL     OW13435   4.116   3.366   1.467 -0.4369 -0.0638  0.9342
 4179SOL    HW113436   4.183   3.352   1.394 -0.0478  3.0667  0.5676
 4179SOL    HW213437   4.162   3.365   1.555 -0.2275  0.0700  0.8283
 4180SOL     OW13438   6.145   1.729   0.479 -0.6441 -0.8651  0.1718
 4180SOL    HW113439   6.097   1.768   0.558 -1.8938  0.0530 -0.9977
 4180SOL    HW213440   6.182   1.803   0.422 -1.3698 -1.4255 -1.0682
 4181SOL     OW13441   4.947   6.110   6.234 -0.2695 -0.3654 -0.6406
 4181SOL    HW113442   4.866   6.057   6.209 -0.1064 -1.3120  0.7490
 4181SOL    HW213443   4.925   6.171   6.310  0.2686 -0.5102 -0.3619
 4182SOL     OW13444   1.590   5.973   3.572 -0.0469  0.0813  0.1691
 4182SOL    HW113445   1.614   5.952   3.667  0.1683  0.7754  0.2732
 4182SOL    HW213446   1.572   6.071   3.564 -0.1895  0.0013 -0.4829
 4183SOL     OW13447   4.679   6.525   2.087 -0.0018  0.0924  0.0398
 4183SOL    HW113448   4.682   6.588   2.165 -1.7286 -0.7878  0.8559
 4183SOL    HW213449   4.584   6.503   2.065  0.5443 -1.7325 -0.6522
 4184SOL     OW13450   0.846   6.861   4.965 -0.0962  0.0096 -0.2109
 4184SOL    HW113451   0.815   6.923   5.038 -1.2322  0.4206 -1.0158
 4184SOL    HW213452   0.825   6.900   4.876  0.8740 -0.6957 -0.7726
 4185SOL     OW13453   2.025   6.568   0.496  0.6576 -0.0453 -0.3393
 4185SOL    HW113454   1.997   6.640   0.560  1.4927 -0.3762  0.4292
 4185SOL    HW213455   2.122   6.578   0.475  1.1388 -1.6713  0.8321
 4186SOL     OW13456   2.117   1.694   1.115  0.4127 -0.5505 -0.0317
 4186SOL    HW113457   2.149   1.782   1.081 -1.5083 -0.2918 -1.2831
 4186SOL    HW213458   2.182   1.622   1.088  1.7370  0.3742  0.5859
 4187SOL     OW13459   4.936   3.530   4.787 -0.2894 -0.0337 -0.0868
 4187SOL    HW113460   4.875   3.580   4.848 -0.4073 -0.1145 -0.1376
 4187SOL    HW213461   5.015   3.497   4.839  0.9603  2.1513 -0.5038
 4188SOL     OW13462   0.889   1.306   3.953  0.1407 -0.2514 -0.0371
 4188SOL    HW113463   0.834   1.387   3.968  1.7776  0.5399  2.2689
 4188SOL    HW213464   0.855   1.256   3.873 -1.9024  1.8007 -0.5331
 4189SOL     OW13465   4.196   4.995   2.214 -0.2935  0.3095 -0.2720
 4189SOL    HW113466   4.209   4.904   2.252  1.0834  1.0143  1.0238
 4189SOL    HW213467   4.253   5.006   2.133 -1.8797 -0.5779 -1.5724
 4190SOL     OW13468   3.869   4.923   4.241  0.1629 -0.4298  0.1602
 4190SOL    HW113469   3.893   4.857   4.169  0.5095 -1.5420  1.2580
 4190SOL    HW213470   3.935   4.915   4.316 -1.3254 -0.6944  1.4709
 4191SOL     OW13471   2.722   0.048   3.832 -0.1256  0.0584 -0.5198
 4191SOL    HW113472   2.657   0.071   3.904  1.3240  0.5981  0.6605
 4191SOL    HW213473   2.706   0.106   3.752 -0.5608  0.7569  0.0660
 4192SOL     OW13474   6.357   2.257   5.595  0.0410  0.2418 -0.4350
 4192SOL    HW113475   6.257   2.258   5.603  0.0243 -0.5051 -0.4006
 4192SOL    HW213476   6.391   2.168   5.627  0.6742  0.3042 -0.9201
 4193SOL     OW13477   6.388   5.539   3.756  0.1052  0.2435 -0.0292
 4193SOL    HW113478   6.353   5.506   3.668 -0.1297 -0.7071  0.4033
 4193SOL    HW213479   6.432   5.628   3.743  0.2119  0.0506 -1.1388
 4194SOL     OW13480   2.409   0.018   4.658 -0.2124  0.2522  0.5223
 4194SOL    HW113481   2.391   0.013   4.756  1.3186 -1.0606  0.7680
 4194SOL    HW213482   2.463  -0.061   4.630 -0.9537  0.3927 -1.4679
 4195SOL     OW13483   7.016   5.791   0.967 -0.6107  0.1576  0.0915
 4195SOL    HW113484   7.072   5.709   0.972 -0.3831  0.3613  1.0194
 4195SOL    HW213485   6.942   5.786   1.034 -0.1716  1.0210  0.6517
 4196SOL     OW13486   3.032   1.159   6.502  0.1989 -1.0497  0.6367
 4196SOL    HW113487   3.079   1.180   6.588  2.8621 -0.7841 -0.7773
 4196SOL    HW213488   2.952   1.219   6.492  0.1572 -0.7099  2.6208
 4197SOL     OW13489   4.537   4.524   2.781 -0.1242 -0.2108  0.9562
 4197SOL    HW113490   4.490   4.587   2.720 -2.4909 -1.4360  1.3914
 4197SOL    HW213491   4.598   4.464   2.728 -0.0732  0.5027  0.1930
 4198SOL     OW13492   4.899   1.643   2.919  0.2798 -0.2423  0.0097
 4198SOL    HW113493   4.880   1.682   2.829  0.0799  0.8507  0.5164
 4198SOL    HW213494   4.855   1.553   2.926  0.2294 -0.3023 -0.9420
 4199SOL     OW13495   1.002   5.189   3.311 -0.0372 -0.2578  0.3586
 4199SOL    HW113496   0.961   5.254   3.374 -2.2126 -0.6048 -0.5904
 4199SOL    HW213497   1.076   5.233   3.260 -1.5344  1.5633 -0.3612
 4200SOL     OW13498   6.535   2.991   0.523  0.2996  0.1166  0.7170
 4200SOL    HW113499   6.600   3.059   0.489  1.5473 -0.7291  1.3336
 4200SOL    HW213500   6.479   2.957   0.448  1.7201 -0.3504 -0.1653
 4201SOL     OW13501   1.452   1.206   5.128  0.1307  0.0395  0.6858
 4201SOL    HW113502   1.444   1.305   5.128  0.3734  0.0642  0.2427
 4201SOL    HW213503   1.383   1.167   5.068  0.5701 -0.0002  0.1895
 4202SOL     OW13504   1.445   3.043   6.846  1.2581  0.4587 -0.1022
 4202SOL    HW113505   1.536   3.023   6.812  0.6297 -0.3476 -1.3705
 4202SOL    HW213506   1.398   3.105   6.783 -0.5279 -2.3585 -1.7268
 4203SOL     OW13507   0.055   5.282   1.679  0.5427  0.4676 -0.2121
 4203SOL    HW113508   0.152   5.261   1.692  0.2422 -1.2863 -0.6548
 4203SOL    HW213509   0.032   5.276   1.582  0.4960  3.3728 -0.4787
 4204SOL     OW13510   6.321   4.505   6.707  0.8790  0.0767  0.0325
 4204SOL    HW113511   6.344   4.484   6.612 -0.6775  1.4576 -0.7116
 4204SOL    HW213512   6.243   4.449   6.735 -0.1458  1.2869 -0.3182
 4205SOL     OW13513   3.204   1.241   3.066  0.1764  0.3291  0.3449
 4205SOL    HW113514   3.275   1.301   3.029  0.5304  0.0445  0.5477
 4205SOL    HW213515   3.246   1.177   3.131 -0.0426 -0.7402 -0.5431
 4206SOL     OW13516   5.829   2.771   6.230 -0.2396  0.0612  0.3516
 4206SOL    HW113517   5.896   2.797   6.161 -0.6962 -1.7014 -0.8041
 4206SOL    HW213518   5.875   2.754   6.317  0.5307  0.7743  0.0922
 4207SOL     OW13519   3.458   4.753   0.818  0.0948  0.3987  0.0626
 4207SOL    HW113520   3.482   4.834   0.871  0.8463  1.6520 -2.0781
 4207SOL    HW213521   3.383   4.705   0.864  0.7076  1.3669  2.2266
 4208SOL     OW13522   2.483   6.129   7.012  0.4675 -0.2907  0.4070
 4208SOL    HW113523   2.512   6.078   7.093  0.4632 -1.1776 -0.1361
 4208SOL    HW213524   2.454   6.065   6.941 -0.4480  0.5044  0.0383
 4209SOL     OW13525   5.925   5.708   4.059 -0.3581  0.3506 -0.5961
 4209SOL    HW113526   5.876   5.777   4.006 -0.1839 -2.6764 -5.2596
 4209SOL    HW213527   6.022   5.732   4.065 -0.5472  1.1809 -0.8271
 4210SOL     OW13528   6.924   1.549   2.864 -0.6854  0.5653 -0.0555
 4210SOL    HW113529   6.969   1.475   2.814 -0.9525  0.9824 -0.9285
 4210SOL    HW213530   6.979   1.633   2.855 -0.6756  0.6179  0.4555
 4211SOL     OW13531   5.278   0.978   4.901 -0.0079  0.4093 -0.0891
 4211SOL    HW113532   5.338   0.954   4.977 -2.1520  1.0467  1.9487
 4211SOL    HW213533   5.252   1.074   4.909 -1.0198  0.2373 -1.0902
 4212SOL     OW13534   6.427   2.183   1.014  0.2212 -0.1894 -0.1600
 4212SOL    HW113535   6.513   2.132   1.019 -0.3484 -1.2505 -0.7543
 4212SOL    HW213536   6.439   2.265   0.958  1.3092  0.6898  1.3056
 4213SOL     OW13537   5.240   2.926   1.961  0.0870 -1.0824  0.9627
 4213SOL    HW113538   5.173   2.975   2.015 -1.1881 -0.0058 -1.4485
 4213SOL    HW213539   5.206   2.834   1.939  0.1691 -1.1567  1.1419
 4214SOL     OW13540   3.535   4.748   5.304 -0.9940 -0.4526  0.3929
 4214SOL    HW113541   3.491   4.837   5.292 -0.7934  0.0355  2.8893
 4214SOL    HW213542   3.466   4.676   5.294 -1.4333  0.0371 -0.2168
 4215SOL     OW13543   2.257   3.645   0.249 -0.6717 -0.2659 -0.2425
 4215SOL    HW113544   2.176   3.605   0.206 -0.3848 -1.7486  0.5164
 4215SOL    HW213545   2.304   3.704   0.184 -1.5322 -0.5783 -1.1725
 4216SOL     OW13546   5.372   1.551   6.332  0.2850  0.1043 -0.1486
 4216SOL    HW113547   5.276   1.553   6.359  0.5443  1.5925  0.7398
 4216SOL    HW213548   5.389   1.469   6.277 -2.0651  1.0904 -2.5820
 4217SOL     OW13549   3.189   6.840   1.775 -0.1685 -0.4385 -0.5132
 4217SOL    HW113550   3.256   6.887   1.718 -1.7435 -0.0518 -2.1613
 4217SOL    HW213551   3.099   6.882   1.761 -1.1442 -2.2825 -0.0419
 4218SOL     OW13552   4.280   0.541   2.986  0.0563 -0.7371 -0.4086
 4218SOL    HW113553   4.190   0.518   3.024  1.7587 -1.3307  3.8288
 4218SOL    HW213554   4.311   0.466   2.927 -1.3638 -1.4817 -0.2691
 4219SOL     OW13555   5.800   4.110   4.654 -0.2390  0.6777  0.0218
 4219SOL    HW113556   5.742   4.190   4.644  0.0454  0.8206 -0.4899
 4219SOL    HW213557   5.764   4.052   4.728 -2.7446 -0.6865 -2.1164
 4220SOL     OW13558   1.806   2.745   3.981  0.4755 -0.0700 -0.7001
 4220SOL    HW113559   1.833   2.727   4.075  0.5148  0.8564 -0.5327
 4220SOL    HW213560   1.865   2.694   3.919 -0.2289 -1.5480 -0.2086
 4221SOL     OW13561   0.054   3.262   1.115  0.0279 -0.2594 -0.9523
 4221SOL    HW113562   0.007   3.174   1.115  0.5500 -0.5403 -1.1213
 4221SOL    HW213563   0.137   3.255   1.170  0.0202  0.1578 -0.8867
 4222SOL     OW13564   5.691   2.836   0.293 -0.3163  0.1414  0.5689
 4222SOL    HW113565   5.762   2.902   0.269  1.6607 -1.5589  1.3995
 4222SOL    HW213566   5.705   2.751   0.242 -2.8106  0.2718 -0.4948
 4223SOL     OW13567   1.055   0.582   0.699  0.7736 -0.3080  0.0939
 4223SOL    HW113568   1.130   0.517   0.691  1.3189  0.2694  0.5193
 4223SOL    HW213569   1.086   0.673   0.672  0.0858 -0.1587 -0.2322
 4224SOL     OW13570   3.551   1.704   3.173 -0.1299  0.4793 -0.1307
 4224SOL    HW113571   3.550   1.604   3.181  0.2892  0.4292 -0.6495
 4224SOL    HW213572   3.477   1.733   3.113  0.6909  0.3496 -1.2403
 4225SOL     OW13573   3.793   6.784   6.601 -0.2670 -0.1137  0.0160
 4225SOL    HW113574   3.826   6.818   6.513  0.8702 -1.3226 -0.0618
 4225SOL    HW213575   3.865   6.794   6.670 -0.4152 -1.0031  0.3170
 4226SOL     OW13576   6.700   5.174   5.300 -0.5050  0.1523 -0.0889
 4226SOL    HW113577   6.670   5.239   5.370  0.0785 -0.7703  1.0536
 4226SOL    HW213578   6.620   5.124   5.265 -0.6235 -0.5568  1.1425
 4227SOL     OW13579   2.448   2.658   2.604 -0.1865  0.4945 -0.0415
 4227SOL    HW113580   2.526   2.600   2.583  0.5448  2.1519 -2.3836
 4227SOL    HW213581   2.444   2.676   2.702  2.8837  0.9985  0.0720
 4228SOL     OW13582   0.216   4.225   0.770 -0.6419 -0.1197  0.4635
 4228SOL    HW113583   0.121   4.200   0.754 -0.4095 -1.0407  0.4874
 4228SOL    HW213584   0.270   4.207   0.688 -0.6668  1.3925  0.0850
 4229SOL     OW13585   2.305   0.545   0.842 -0.1663 -0.1127 -0.6765
 4229SOL    HW113586   2.254   0.461   0.821 -1.8971  0.3470  1.3109
 4229SOL    HW213587   2.266   0.621   0.789 -0.4429 -0.0759 -0.4252
 4230SOL     OW13588   3.501   5.449   1.128 -0.6683  0.5630 -0.0866
 4230SOL    HW113589   3.556   5.522   1.170  0.6079 -1.4863  2.0144
 4230SOL    HW213590   3.555   5.365   1.124 -2.6898 -0.7606 -0.7954
 4231SOL     OW13591   4.576   0.815   6.398 -0.1197 -0.7770  0.2117
 4231SOL    HW113592   4.578   0.868   6.313 -1.4363  1.5460  1.5169
 4231SOL    HW213593   4.668   0.812   6.437 -0.3491  3.3986  1.6030
 4232SOL     OW13594   2.931   2.309   6.831 -0.3158  0.0171 -0.0051
 4232SOL    HW113595   2.909   2.400   6.794  0.2972 -0.4524 -1.6149
 4232SOL    HW213596   2.903   2.239   6.765 -1.6977 -1.0617  1.6348
 4233SOL     OW13597   1.888   5.310   0.127 -0.1265 -0.3741  0.0609
 4233SOL    HW113598   1.793   5.328   0.152 -0.4628 -2.3531  0.4052
 4233SOL    HW213599   1.912   5.361   0.045 -1.2282  0.7634  0.4294
 4234SOL     OW13600   3.742   5.032   2.093 -0.0811  0.2743  0.1142
 4234SOL    HW113601   3.704   4.984   2.014  2.3863 -0.5554 -0.6637
 4234SOL    HW213602   3.834   4.996   2.113  1.2257  3.5452  0.5292
 4235SOL     OW13603   5.971   6.624   3.524 -0.7005 -0.0087 -0.6990
 4235SOL    HW113604   5.923   6.540   3.550  0.3704 -0.2191  0.7585
 4235SOL    HW213605   5.933   6.701   3.575  3.0495 -0.7887  3.9823
 4236SOL     OW13606   1.742   5.930   2.872 -0.3278 -1.2075 -0.2600
 4236SOL    HW113607   1.663   5.931   2.934 -1.7763 -0.9778 -2.0243
 4236SOL    HW213608   1.774   5.836   2.860 -1.2198 -1.4818 -0.5728
 4237SOL     OW13609   5.244   2.714   6.956  0.4241 -0.3374  0.0677
 4237SOL    HW113610   5.329   2.745   7.000  0.3521  0.2320 -0.1787
 4237SOL    HW213611   5.199   2.793   6.913  0.1197 -0.7528 -0.3837
 4238SOL     OW13612   1.586   3.987   6.981 -0.1877  0.2243  0.4974
 4238SOL    HW113613   1.603   4.073   6.933 -0.7764 -0.8091 -1.6869
 4238SOL    HW213614   1.673   3.941   6.999  0.0172  0.3619 -0.1151
 4239SOL     OW13615   5.548   6.838   5.389 -0.3054 -0.2351 -0.0848
 4239SOL    HW113616   5.520   6.786   5.469  0.7321 -4.2095 -2.0685
 4239SOL    HW213617   5.472   6.846   5.325 -1.0560  2.6989  0.9957
 4240SOL     OW13618   6.604   6.174   6.511  0.4779 -0.2867  0.5659
 4240SOL    HW113619   6.586   6.084   6.469  1.9720 -0.0823 -0.5855
 4240SOL    HW213620   6.685   6.168   6.569  0.7227  0.3753  0.2937
 4241SOL     OW13621   5.636   0.221   6.819  0.4394  0.3019  0.1920
 4241SOL    HW113622   5.565   0.171   6.768 -0.5653  0.4209  1.4289
 4241SOL    HW213623   5.726   0.189   6.789 -0.1178  0.0401 -1.3118
 4242SOL     OW13624   2.384   0.317   6.058 -0.3791  0.4161 -0.4321
 4242SOL    HW113625   2.434   0.256   6.120  0.9428  0.9274 -0.9552
 4242SOL    HW213626   2.421   0.309   5.966 -1.1787  0.9295 -0.8141
 4243SOL     OW13627   1.201   0.262   2.831 -0.0269 -0.0257 -0.4840
 4243SOL    HW113628   1.126   0.307   2.879  0.5124  0.7101 -0.3018
 4243SOL    HW213629   1.288   0.291   2.871  0.3463 -0.9973 -0.5831
 4244SOL     OW13630   4.136   0.314   3.762 -0.3692  0.4576 -0.0098
 4244SOL    HW113631   4.165   0.291   3.669 -0.1148  0.0161  0.1788
 4244SOL    HW213632   4.200   0.274   3.828 -1.8401 -1.2531  0.4512
 4245SOL     OW13633   1.694   0.224   6.202  0.0993  0.1017  0.1368
 4245SOL    HW113634   1.784   0.181   6.207 -0.4420 -1.3755 -1.5138
 4245SOL    HW213635   1.629   0.172   6.259 -0.1149 -0.0111 -0.2077
 4246SOL     OW13636   5.673   0.574   0.409 -0.8982  0.0944 -0.3991
 4246SOL    HW113637   5.768   0.569   0.377 -0.8530 -0.8720 -0.1574
 4246SOL    HW213638   5.615   0.517   0.350 -1.5989  1.7991 -1.4244
 4247SOL     OW13639   2.598   6.796   6.919 -0.0710 -0.3161 -0.0976
 4247SOL    HW113640   2.529   6.818   6.988 -1.7889  0.8407 -2.0998
 4247SOL    HW213641   2.651   6.878   6.897  0.9915 -0.8589  0.3522
 4248SOL     OW13642   4.356   3.531   0.773 -0.0119  0.0307  0.0936
 4248SOL    HW113643   4.289   3.560   0.841 -0.0417 -0.1300  0.1328
 4248SOL    HW213644   4.443   3.577   0.791 -0.2158  0.5181 -0.1815
 4249SOL     OW13645   2.249   2.123   1.195 -0.3312 -0.1509  0.1335
 4249SOL    HW113646   2.306   2.067   1.255 -0.0442 -0.8315 -0.7618
 4249SOL    HW213647   2.211   2.199   1.248 -0.7733 -1.1994  1.3814
 4250SOL     OW13648   1.048   6.807   1.013  0.0806  0.4261  0.5240
 4250SOL    HW113649   1.133   6.757   1.026  0.8340  1.6453  0.4256
 4250SOL    HW213650   1.067   6.905   1.005 -1.2936  0.6902  0.1223
 4251SOL     OW13651   2.829   5.780   0.707  0.2468 -0.4137  0.1949
 4251SOL    HW113652   2.898   5.779   0.635  1.4608  2.4517  1.1649
 4251SOL    HW213653   2.863   5.731   0.787  0.9953  0.5949  0.5068
 4252SOL     OW13654   1.900   1.167   2.842 -0.3364  0.2303 -0.6076
 4252SOL    HW113655   1.900   1.099   2.769 -1.0822 -2.5916  1.8344
 4252SOL    HW213656   1.994   1.195   2.861 -0.1064  0.7532 -2.3548
 4253SOL     OW13657   6.406   3.783   5.116  0.1434 -0.7209  0.1628
 4253SOL    HW113658   6.449   3.847   5.052 -2.0040 -0.1838 -0.8183
 4253SOL    HW213659   6.477   3.743   5.175  1.8420  0.7604 -0.7597
 4254SOL     OW13660   2.381   5.114   1.172  0.5708  0.0834 -0.7402
 4254SOL    HW113661   2.350   5.188   1.111  0.6709  1.2370  0.5544
 4254SOL    HW213662   2.415   5.154   1.257  3.9124 -1.2169 -1.3188
 4255SOL     OW13663   0.276   4.843   0.549 -0.2740 -0.2676 -0.2736
 4255SOL    HW113664   0.308   4.858   0.642  0.5625  0.8461 -0.7203
 4255SOL    HW213665   0.354   4.843   0.486 -0.9900  1.0814 -1.2198
 4256SOL     OW13666   5.277   1.621   0.612  0.3763  0.1901  0.1276
 4256SOL    HW113667   5.258   1.540   0.668 -0.2835  1.1602  1.3527
 4256SOL    HW213668   5.212   1.625   0.536 -0.1757  0.0363  0.5837
 4257SOL     OW13669   6.973   1.459   6.423  0.0122 -0.2828 -0.4069
 4257SOL    HW113670   6.878   1.430   6.411 -0.0920 -1.8456  3.0321
 4257SOL    HW213671   7.006   1.431   6.513  3.0551  2.2529 -0.5386
 4258SOL     OW13672   1.904   1.467   2.661  0.1931 -0.5214 -0.2353
 4258SOL    HW113673   1.901   1.566   2.649  0.3837 -0.3351  1.0478
 4258SOL    HW213674   1.813   1.432   2.682  0.3943 -0.3463  1.0306
 4259SOL     OW13675   3.606   0.608   5.527 -0.0973 -0.2976  0.1038
 4259SOL    HW113676   3.524   0.589   5.472 -0.1843 -0.2777  0.2243
 4259SOL    HW213677   3.641   0.699   5.505  0.1771 -0.4965 -0.2984
 4260SOL     OW13678   6.340   2.044   5.320  0.3298 -0.0532 -0.0561
 4260SOL    HW113679   6.341   2.144   5.310 -0.0990  0.0931  1.1241
 4260SOL    HW213680   6.252   2.008   5.290 -0.3339  0.1923  1.4915
 4261SOL     OW13681   4.496   4.191   6.793 -0.2008  0.2422 -0.0024
 4261SOL    HW113682   4.486   4.289   6.811 -0.5989  0.3591 -0.8244
 4261SOL    HW213683   4.432   4.164   6.722 -1.5452 -1.0322  1.6210
 4262SOL     OW13684   6.260   1.434   4.529 -0.1043 -0.1577  0.1683
 4262SOL    HW113685   6.241   1.339   4.508 -0.6717 -0.8103  3.1831
 4262SOL    HW213686   6.338   1.466   4.475 -1.1069 -1.6673 -2.3214
 4263SOL     OW13687   3.364   0.404   2.573  0.3178 -0.3704  0.3953
 4263SOL    HW113688   3.391   0.406   2.669 -0.8413 -1.6071  0.7906
 4263SOL    HW213689   3.399   0.321   2.530  1.2979  0.4394 -0.4314
 4264SOL     OW13690   5.178   4.218   3.644 -0.4865 -0.2780  0.2455
 4264SOL    HW113691   5.237   4.281   3.694  2.5334 -2.5615 -0.1325
 4264SOL    HW213692   5.097   4.197   3.699 -0.4483  2.0848  1.3246
 4265SOL     OW13693   3.073   4.923   0.233  0.0714 -0.0220  0.3643
 4265SOL    HW113694   3.075   4.869   0.149 -0.6353 -0.7942  0.8246
 4265SOL    HW213695   3.164   4.922   0.275  0.4104  0.3141 -0.3431
 4266SOL     OW13696   5.719   1.985   4.795  0.0936  0.3775  0.9584
 4266SOL    HW113697   5.746   2.081   4.804 -0.6055  0.6338  0.3692
 4266SOL    HW213698   5.620   1.977   4.803  0.1266 -0.2656  0.7853
 4267SOL     OW13699   1.223   6.366   5.395 -0.1226  0.0164 -0.0382
 4267SOL    HW113700   1.239   6.447   5.451 -2.0783 -0.5597  1.4434
 4267SOL    HW213701   1.196   6.394   5.303  0.1397  1.0292  0.1861
 4268SOL     OW13702   6.824   2.870   4.787  0.0077  0.0677  0.6928
 4268SOL    HW113703   6.838   2.855   4.885 -0.8481 -0.1704  0.7787
 4268SOL    HW213704   6.850   2.787   4.737  0.3579  0.1587  0.7155
 4269SOL     OW13705   2.575   1.426   1.023 -0.0632  0.1950  0.0815
 4269SOL    HW113706   2.523   1.351   0.982  0.5468 -0.8694  1.1922
 4269SOL    HW213707   2.655   1.446   0.967  0.7682 -1.2483  0.6837
 4270SOL     OW13708   1.076   5.920   2.075  0.2403  0.3735  0.0979
 4270SOL    HW113709   1.157   5.921   2.017 -0.5151 -1.0332 -1.0447
 4270SOL    HW213710   1.079   5.841   2.136  0.3022  1.0160  0.9627
 4271SOL     OW13711   6.046   2.563   1.187  0.8166 -0.3976 -0.8797
 4271SOL    HW113712   6.023   2.597   1.278  0.7550 -1.0702 -0.6465
 4271SOL    HW213713   5.989   2.609   1.119 -0.5164 -1.3101 -0.4059
 4272SOL     OW13714   3.788   2.616   1.744 -0.1467 -0.4558 -0.3143
 4272SOL    HW113715   3.748   2.533   1.782 -0.2771 -0.3491 -0.2136
 4272SOL    HW213716   3.853   2.593   1.671 -0.0100 -0.6524 -0.1282
 4273SOL     OW13717   6.944   2.517   5.041  0.0987  0.6672  0.8885
 4273SOL    HW113718   6.846   2.514   5.060  0.0096 -0.5494  0.3476
 4273SOL    HW213719   6.987   2.434   5.077  0.5595  0.1996 -0.6580
 4274SOL     OW13720   3.234   1.757   1.708 -0.3101 -1.0372 -0.6232
 4274SOL    HW113721   3.237   1.833   1.644  1.3533 -0.6079 -0.0827
 4274SOL    HW213722   3.160   1.772   1.774  0.2258  0.3031 -0.3039
 4275SOL     OW13723   2.945   0.561   2.722 -0.0184 -0.2173  0.0740
 4275SOL    HW113724   2.989   0.599   2.641 -0.6600  1.9923  0.6906
 4275SOL    HW213725   2.988   0.474   2.746  1.9031  0.3385 -1.1383
 4276SOL     OW13726   5.074   4.255   1.068  0.2276 -0.4213 -0.2957
 4276SOL    HW113727   5.126   4.193   1.127 -0.6197 -0.9388 -0.0670
 4276SOL    HW213728   5.001   4.204   1.023  0.9448 -0.0668 -1.9399
 4277SOL     OW13729   4.932   0.966   1.419  0.4017 -0.1060  0.0441
 4277SOL    HW113730   4.835   0.972   1.445  0.5352  0.0143  0.5256
 4277SOL    HW213731   4.947   1.018   1.335  0.2594  0.8243  0.5796
 4278SOL     OW13732   2.918   6.327   2.737  0.4180  0.0510 -0.0529
 4278SOL    HW113733   2.943   6.247   2.791 -1.8577 -0.4091  0.4114
 4278SOL    HW213734   2.970   6.327   2.651 -0.1010 -2.3685 -0.4152
 4279SOL     OW13735   1.086   5.494   3.078 -0.4980 -0.5124 -0.4186
 4279SOL    HW113736   1.144   5.577   3.078 -1.1198  0.0005  2.1854
 4279SOL    HW213737   1.137   5.418   3.118 -1.3282 -0.2484  1.1999
 4280SOL     OW13738   4.578   4.871   6.193  0.0844  0.3031 -0.3008
 4280SOL    HW113739   4.637   4.797   6.162 -0.1381 -0.8434  1.8338
 4280SOL    HW213740   4.619   4.959   6.169  2.3292 -0.4551  0.4870
 4281SOL     OW13741   5.790   3.903   0.513  1.0400 -0.3027  0.0074
 4281SOL    HW113742   5.832   3.834   0.454 -1.0255 -0.6042 -1.1945
 4281SOL    HW213743   5.720   3.861   0.570  0.6307  0.5916  0.1879
 4282SOL     OW13744   3.258   5.899   3.652 -0.3983 -0.3195 -0.7169
 4282SOL    HW113745   3.260   5.799   3.649  0.5912 -0.2972 -2.8713
 4282SOL    HW213746   3.295   5.935   3.567 -0.3364  1.9103  0.1973
 4283SOL     OW13747   5.425   0.109   4.487  0.4777  0.0847 -0.0328
 4283SOL    HW113748   5.465   0.189   4.443  0.2228  0.7066  0.8152
 4283SOL    HW213749   5.347   0.077   4.433 -0.3987  1.3885  0.3849
 4284SOL     OW13750   6.660   4.231   6.133 -0.0612  0.6810  0.2295
 4284SOL    HW113751   6.666   4.279   6.046  0.3647  0.6907  0.2607
 4284SOL    HW213752   6.750   4.197   6.159 -0.3274  0.0032  0.2878
 4285SOL     OW13753   4.375   0.951   0.341  0.3756  0.7103 -0.2500
 4285SOL    HW113754   4.466   0.909   0.347 -0.7355 -2.1714 -1.4883
 4285SOL    HW213755   4.359   1.009   0.420  3.1236  1.0034  0.1836
 4286SOL     OW13756   3.803   2.869   1.812 -0.4118  0.2927  0.2637
 4286SOL    HW113757   3.716   2.917   1.824  0.0513  0.9600  1.0222
 4286SOL    HW213758   3.787   2.783   1.762 -1.2929  1.0582 -0.8297
 4287SOL     OW13759   6.443   6.785   1.727  0.0925 -0.1612  0.0794
 4287SOL    HW113760   6.430   6.875   1.769 -1.2750  0.9044 -2.3898
 4287SOL    HW213761   6.354   6.745   1.706  0.6946 -0.8460 -1.2878
 4288SOL     OW13762   5.380   6.477   4.217  0.6254 -0.4834  0.8081
 4288SOL    HW113763   5.301   6.518   4.171 -0.1199 -0.9455  1.6490
 4288SOL    HW213764   5.407   6.394   4.168  0.6554 -0.2719  0.4613
 4289SOL     OW13765   1.005   5.436   4.927 -0.3443 -0.2012  1.0787
 4289SOL    HW113766   1.092   5.467   4.888 -0.9621 -1.5446 -1.6058
 4289SOL    HW213767   0.942   5.513   4.934 -0.6799 -0.0319 -2.1535
 4290SOL     OW13768   1.517   6.631   3.659  0.5582  0.2288  0.6336
 4290SOL    HW113769   1.438   6.680   3.694  0.3108 -0.0227  0.4303
 4290SOL    HW213770   1.493   6.584   3.574  0.9339  0.1802  0.5498
 4291SOL     OW13771   4.838   2.094   0.813 -0.2410 -0.2434  0.2616
 4291SOL    HW113772   4.745   2.119   0.787  0.0719  0.2668 -0.4168
 4291SOL    HW213773   4.838   2.001   0.851 -0.9176 -0.5433 -0.4340
 4292SOL     OW13774   5.082   2.828   4.686  0.1787  0.3168  0.1430
 4292SOL    HW113775   5.007   2.765   4.704  0.5654 -0.3212 -0.4345
 4292SOL    HW213776   5.169   2.779   4.690  0.5149  0.8903  0.0545
 4293SOL     OW13777   4.717   6.239   6.844 -0.4526 -0.4237 -0.1421
 4293SOL    HW113778   4.686   6.145   6.851 -1.3560 -0.0689  0.9204
 4293SOL    HW213779   4.648   6.294   6.798  0.3385 -0.3785 -1.3244
 4294SOL     OW13780   0.177   4.516   1.202 -0.1119 -0.3425  0.0779
 4294SOL    HW113781   0.170   4.440   1.137  1.7325  0.1397 -0.7699
 4294SOL    HW213782   0.274   4.538   1.217 -0.5538  0.6985  1.6766
 4295SOL     OW13783   5.386   1.551   2.471 -0.5590  0.7478 -0.0854
 4295SOL    HW113784   5.366   1.638   2.515  3.2181  1.3959  0.6411
 4295SOL    HW213785   5.397   1.480   2.541 -0.3785  0.4350 -0.4285
 4296SOL     OW13786   2.749   0.612   1.944  0.2185 -0.4834  0.6299
 4296SOL    HW113787   2.812   0.536   1.960  0.5333 -0.2234  0.6344
 4296SOL    HW213788   2.788   0.696   1.981 -0.1254 -0.3170  0.6185
 4297SOL     OW13789   6.645   1.189   1.608 -0.0771  0.4694  0.1013
 4297SOL    HW113790   6.739   1.203   1.637  0.2087 -0.0898 -0.5198
 4297SOL    HW213791   6.630   1.235   1.520  0.2458 -1.1603 -0.8607
 4298SOL     OW13792   2.683   0.621   3.080  0.8051 -0.6519 -0.5062
 4298SOL    HW113793   2.657   0.526   3.062  0.6474 -0.3713 -1.8958
 4298SOL    HW213794   2.712   0.664   2.994  2.0987  0.1954  0.3312
 4299SOL     OW13795   3.995   1.476   3.941 -0.7199  0.3849 -0.6327
 4299SOL    HW113796   3.903   1.490   3.977 -0.2834  0.8560  0.3298
 4299SOL    HW213797   3.992   1.470   3.841 -2.0565 -1.6034 -0.5375
 4300SOL     OW13798   0.734   1.336   2.308 -0.0294  1.1705 -0.4681
 4300SOL    HW113799   0.833   1.326   2.300 -0.2505 -1.0807 -1.1428
 4300SOL    HW213800   0.707   1.335   2.404  0.4757  0.0475 -0.3306
 4301SOL     OW13801   6.271   6.361   1.490  0.5340  0.5111  0.0682
 4301SOL    HW113802   6.316   6.292   1.434  1.5795  2.1091 -1.1453
 4301SOL    HW213803   6.179   6.379   1.454  0.8754  0.9017 -0.6363
 4302SOL     OW13804   0.485   5.708   2.667  0.1412 -0.4359  0.0559
 4302SOL    HW113805   0.565   5.648   2.670 -0.5576 -1.5558 -1.8194
 4302SOL    HW213806   0.408   5.658   2.628 -1.3053  0.8370  1.1578
 4303SOL     OW13807   2.553   2.511   1.994 -0.1516 -0.1302 -0.2541
 4303SOL    HW113808   2.470   2.481   2.042 -0.0451 -0.7414 -0.4432
 4303SOL    HW213809   2.633   2.466   2.034  0.0594  0.2353 -0.2628
 4304SOL     OW13810   6.903   6.632   4.423 -0.0007  0.2122 -0.0585
 4304SOL    HW113811   6.948   6.712   4.383 -0.9036  0.6214 -0.3049
 4304SOL    HW213812   6.804   6.649   4.426 -0.2889 -1.1950 -0.7943
 4305SOL     OW13813   0.519   2.983   5.677  0.2421 -0.5716 -0.2221
 4305SOL    HW113814   0.564   3.070   5.661  0.2754 -0.0696  2.1684
 4305SOL    HW213815   0.523   2.927   5.594  0.1561  1.6906 -1.8175
 4306SOL     OW13816   4.794   1.561   5.057  0.1036  0.0837 -0.1003
 4306SOL    HW113817   4.772   1.651   5.019  0.0474  0.3222  0.4760
 4306SOL    HW213818   4.715   1.527   5.109  0.6430  0.4017  0.9664
 4307SOL     OW13819   5.524   5.791   0.237 -0.3321  0.4216  0.4210
 4307SOL    HW113820   5.521   5.891   0.228  0.7904  0.6945  2.4492
 4307SOL    HW213821   5.440   5.759   0.282 -1.4004  0.2247 -1.6185
 4308SOL     OW13822   2.756   2.864   6.980  0.2440  0.5170  0.4734
 4308SOL    HW113823   2.839   2.810   6.966 -0.6094 -1.5959  2.8073
 4308SOL    HW213824   2.688   2.840   6.911  1.2181  1.7122 -0.9884
 4309SOL     OW13825   0.693   1.946   5.181  0.0018  0.0642 -0.1927
 4309SOL    HW113826   0.633   2.025   5.167  0.8700  0.6139 -0.9130
 4309SOL    HW213827   0.697   1.893   5.096 -0.7122 -0.8761  0.3341
 4310SOL     OW13828   1.017   6.704   6.855 -0.1398 -0.4060  0.0686
 4310SOL    HW113829   1.073   6.786   6.846 -0.4568 -0.0692  1.1265
 4310SOL    HW213830   0.981   6.697   6.948 -0.9992 -1.1737 -0.3029
 4311SOL     OW13831   1.725   3.782   3.854 -0.0393 -0.1710  0.2024
 4311SOL    HW113832   1.696   3.718   3.926  0.6751  1.1039  1.6775
 4311SOL    HW213833   1.658   3.780   3.780 -2.8981  1.1468  2.5276
 4312SOL     OW13834   0.638   2.067   6.745 -0.3108 -0.1240 -0.3849
 4312SOL    HW113835   0.621   2.107   6.655 -0.7119 -1.1218 -0.7652
 4312SOL    HW213836   0.589   1.980   6.753  2.3408 -1.7643 -0.4869
 4313SOL     OW13837   2.281   0.116   0.019 -0.2292  0.3266 -0.2511
 4313SOL    HW113838   2.256   0.029  -0.023  1.1137  1.2234 -3.1565
 4313SOL    HW213839   2.337   0.169  -0.044 -0.7721  3.2412  1.5155
 4314SOL     OW13840   1.928   2.787   0.299  0.3656  0.0432 -0.3478
 4314SOL    HW113841   1.865   2.814   0.226 -0.3987 -0.9554 -0.0751
 4314SOL    HW213842   1.989   2.864   0.320 -0.3897  0.8440 -0.9991
 4315SOL     OW13843   4.053   1.232   5.378 -0.3040  0.4702 -0.2479
 4315SOL    HW113844   4.048   1.199   5.472  4.1264  1.2202  0.4752
 4315SOL    HW213845   4.035   1.156   5.316 -0.0407 -0.8939  1.2678
 4316SOL     OW13846   0.698   0.252   2.247 -0.5981  1.0360 -0.5598
 4316SOL    HW113847   0.633   0.195   2.196  0.7828 -0.1591 -1.0377
 4316SOL    HW213848   0.776   0.196   2.276 -0.3912  2.1440  1.1521
 4317SOL     OW13849   5.914   0.277   3.169  0.1166 -0.5622 -0.3379
 4317SOL    HW113850   5.875   0.358   3.125 -0.5882 -0.4947  0.4004
 4317SOL    HW213851   5.971   0.305   3.247 -0.0185 -0.7664 -0.1633
 4318SOL     OW13852   0.443   2.808   1.174  0.2102 -0.3623 -0.0687
 4318SOL    HW113853   0.465   2.790   1.078  1.2572  1.9935 -0.3405
 4318SOL    HW213854   0.360   2.864   1.180 -0.2477 -1.0748  0.4620
 4319SOL     OW13855   6.811   3.258   5.066  0.0646  0.0005  0.4540
 4319SOL    HW113856   6.755   3.224   4.990  0.4263 -0.0008  0.1890
 4319SOL    HW213857   6.888   3.311   5.030 -0.9724  1.9083  0.8583
 4320SOL     OW13858   6.600   0.789   4.853 -0.3258  0.7686  0.0422
 4320SOL    HW113859   6.677   0.817   4.796 -1.2554  0.6855 -1.3095
 4320SOL    HW213860   6.545   0.870   4.875 -0.0522  0.7770  0.7084
 4321SOL     OW13861   4.512   4.492   5.490  0.1517  0.7153 -0.1842
 4321SOL    HW113862   4.600   4.449   5.471  0.5118  1.7527 -0.8947
 4321SOL    HW213863   4.478   4.460   5.579 -0.0075 -1.6825 -1.0387
 4322SOL     OW13864   4.364   5.546   1.874 -0.2097  0.1912 -0.2158
 4322SOL    HW113865   4.301   5.619   1.901 -2.4383 -1.3294 -0.9845
 4322SOL    HW213866   4.455   5.584   1.861 -1.4327  3.0076 -1.3863
 4323SOL     OW13867   0.471   0.178   1.283 -0.3021 -0.4928  0.3958
 4323SOL    HW113868   0.550   0.129   1.244 -1.4045 -1.4575 -0.6929
 4323SOL    HW213869   0.479   0.178   1.383  1.4581  0.1007  0.2828
 4324SOL     OW13870   0.643   1.446   3.266 -0.0060 -0.5128  0.3529
 4324SOL    HW113871   0.697   1.401   3.196 -0.5722  0.1085 -0.5048
 4324SOL    HW213872   0.576   1.507   3.223 -1.4573 -1.3174  1.3784
 4325SOL     OW13873   3.319   5.468   3.182  0.5555 -0.0624 -0.0301
 4325SOL    HW113874   3.226   5.465   3.147  0.5969 -1.0125 -0.0732
 4325SOL    HW213875   3.374   5.396   3.139  0.8641 -0.6174  1.2311
 4326SOL     OW13876   6.787   4.450   4.956  0.1171  0.5235 -0.1787
 4326SOL    HW113877   6.715   4.432   4.890 -1.4300 -1.3039  1.8739
 4326SOL    HW213878   6.748   4.491   5.038  1.4620 -0.1211  0.8244
 4327SOL     OW13879   1.526   6.949   1.543 -0.2463 -0.3549  0.4145
 4327SOL    HW113880   1.545   7.042   1.511 -1.5242 -0.3437 -0.3896
 4327SOL    HW213881   1.612   6.905   1.568  0.2904  1.3997  1.8691
 4328SOL     OW13882   4.759   6.945   0.048  0.6467 -0.4612  0.4275
 4328SOL    HW113883   4.817   7.012   0.096 -0.9433 -0.7923  3.0185
 4328SOL    HW213884   4.670   6.987   0.028  1.3559 -0.2201 -2.7626
 4329SOL     OW13885   3.476   2.882   2.384 -0.2766 -0.7769  0.2018
 4329SOL    HW113886   3.573   2.883   2.407  0.1257  0.8317 -1.3223
 4329SOL    HW213887   3.422   2.901   2.466  0.7090 -1.1703  0.9622
 4330SOL     OW13888   4.035   5.392   1.220  0.4500  0.3339 -0.0859
 4330SOL    HW113889   4.001   5.307   1.180 -0.1947  0.5916 -0.1111
 4330SOL    HW213890   4.051   5.380   1.317  0.8316  0.0477 -0.1830
 4331SOL     OW13891   4.195   2.260   4.041 -0.0671 -0.1248  0.0801
 4331SOL    HW113892   4.272   2.277   4.104  0.4261  0.8951 -0.7801
 4331SOL    HW213893   4.116   2.230   4.094  0.8253 -0.9051  1.0209
 4332SOL     OW13894   6.772   1.678   3.896  0.1111 -0.0862  0.1970
 4332SOL    HW113895   6.794   1.771   3.927 -0.2882  0.4203 -1.0081
 4332SOL    HW213896   6.847   1.643   3.839  0.8605 -1.0366  1.6798
 4333SOL     OW13897   5.396   0.286   5.255 -0.0000 -0.1792 -0.1577
 4333SOL    HW113898   5.377   0.322   5.163 -0.6226  1.7514  0.6532
 4333SOL    HW213899   5.440   0.197   5.248 -1.3024 -0.7285 -2.3030
 4334SOL     OW13900   0.851   3.300   2.713  0.3177  0.6180  0.2641
 4334SOL    HW113901   0.764   3.276   2.757 -0.5145  1.8251 -0.6560
 4334SOL    HW213902   0.872   3.233   2.642  0.1579  0.3248  0.4874
 4335SOL     OW13903   6.791   3.652   6.389  0.4105  0.4953 -0.0832
 4335SOL    HW113904   6.784   3.641   6.489  0.7946  0.6150 -0.0404
 4335SOL    HW213905   6.886   3.637   6.361  0.0361 -1.0601 -0.6319
 4336SOL     OW13906   3.850   5.744   6.293  0.3290 -0.1825  0.0599
 4336SOL    HW113907   3.803   5.798   6.363  0.3801 -0.3859  0.2517
 4336SOL    HW213908   3.942   5.781   6.279  0.2844 -0.0821  0.0296
 4337SOL     OW13909   1.967   0.530   6.351 -0.3427  0.2692 -0.8173
 4337SOL    HW113910   2.019   0.614   6.366 -0.2631  0.4575 -2.0129
 4337SOL    HW213911   1.918   0.506   6.434  0.8072  0.6776  0.0009
 4338SOL     OW13912   4.215   1.763   0.032 -0.0383 -0.1213  0.4957
 4338SOL    HW113913   4.128   1.769   0.082 -0.1769 -1.8833  0.5459
 4338SOL    HW213914   4.200   1.712  -0.053  0.6102  1.0822 -0.3633
 4339SOL     OW13915   0.305   5.913   0.602 -0.2491 -0.2573  0.9838
 4339SOL    HW113916   0.283   5.949   0.692 -4.1728  0.4465 -0.0475
 4339SOL    HW213917   0.252   5.830   0.585 -1.0549  0.6244 -1.2467
 4340SOL     OW13918   3.359   5.715   2.537 -0.6256  0.1158  0.9531
 4340SOL    HW113919   3.365   5.741   2.440 -0.5875  0.3455  1.0164
 4340SOL    HW213920   3.419   5.636   2.554  1.4776  1.6989  1.3398
 4341SOL     OW13921   6.679   0.026   0.994  0.2178 -0.5985  0.1799
 4341SOL    HW113922   6.692  -0.073   1.004  0.1665 -0.6675 -0.3743
 4341SOL    HW213923   6.729   0.074   1.066 -0.0075 -1.0416  0.6359
 4342SOL     OW13924   1.524   2.459   5.247 -0.5805 -0.0710  0.3491
 4342SOL    HW113925   1.490   2.448   5.340 -3.1958  0.4472 -0.4755
 4342SOL    HW213926   1.474   2.399   5.185  0.5919  0.1473 -0.8614
 4343SOL     OW13927   6.783   6.758   5.268  0.5350  0.1029  0.4630
 4343SOL    HW113928   6.714   6.687   5.253  0.2769  0.6043 -0.8285
 4343SOL    HW213929   6.741   6.834   5.319  0.2921  0.1546  0.1886
 4344SOL     OW13930   6.880   2.839   5.331  0.0299 -0.3181 -0.0898
 4344SOL    HW113931   6.829   2.925   5.325 -0.2565 -0.4992 -0.3143
 4344SOL    HW213932   6.920   2.830   5.422  0.5177  0.3050 -0.2343
 4345SOL     OW13933   2.511   4.423   5.187 -0.1938 -0.5117 -0.1226
 4345SOL    HW113934   2.604   4.431   5.222  0.0592  0.9570 -1.0597
 4345SOL    HW213935   2.463   4.350   5.236  1.6080 -1.6779 -0.0111
 4346SOL     OW13936   3.127   5.969   2.586  0.3420 -0.2265 -0.9213
 4346SOL    HW113937   3.144   5.943   2.680 -2.3843  1.2360  0.0982
 4346SOL    HW213938   3.069   5.901   2.542  1.6554 -0.9356 -1.6047
 4347SOL     OW13939   3.936   5.882   3.715 -0.6238 -0.5630 -0.3140
 4347SOL    HW113940   3.915   5.786   3.696 -0.8061 -0.3315 -1.3325
 4347SOL    HW213941   3.852   5.929   3.744 -0.6159 -0.6233 -0.1934
 4348SOL     OW13942   4.010   1.078   6.382  0.1946  0.1657 -0.1080
 4348SOL    HW113943   3.944   1.044   6.315 -0.1973 -0.7464  0.7194
 4348SOL    HW213944   4.103   1.055   6.353  0.0499  0.0431 -0.4764
 4349SOL     OW13945   6.290   3.040   4.066  0.2858  0.0548 -0.3376
 4349SOL    HW113946   6.343   2.956   4.082 -2.7563 -1.7559  1.2438
 4349SOL    HW213947   6.195   3.024   4.093 -0.1150  4.5992  1.7476
 4350SOL     OW13948   5.464   3.249   0.024  0.2482 -0.6669 -0.1505
 4350SOL    HW113949   5.375   3.293   0.010  1.7826  3.2776  1.0996
 4350SOL    HW213950   5.509   3.237  -0.065 -0.2371  0.4147 -0.5605
 4351SOL     OW13951   5.322   3.732   6.917  0.1903 -0.2345 -0.2219
 4351SOL    HW113952   5.374   3.783   6.849 -0.1770 -0.9742 -1.0815
 4351SOL    HW213953   5.224   3.746   6.902  0.1126  0.5511  0.9150
 4352SOL     OW13954   0.179   2.069   6.174  0.2669 -0.5063 -0.6254
 4352SOL    HW113955   0.142   2.084   6.266  0.7258 -0.2790 -0.4735
 4352SOL    HW213956   0.188   1.971   6.157 -3.0287 -0.7434 -1.7279
 4353SOL     OW13957   3.906   2.561   6.213 -0.6363 -0.3917  0.3281
 4353SOL    HW113958   3.995   2.600   6.236  0.3402 -0.0602 -3.4336
 4353SOL    HW213959   3.833   2.617   6.252  0.7742  1.2042  0.7510
 4354SOL     OW13960   4.314   4.967   4.247  0.5462  0.4626  0.1489
 4354SOL    HW113961   4.267   4.886   4.282  1.1713  1.1809  2.8937
 4354SOL    HW213962   4.321   4.962   4.148  0.0816 -2.5618  0.1939
 4355SOL     OW13963   5.626   6.043   3.468 -0.2663  0.4142  0.1523
 4355SOL    HW113964   5.701   6.096   3.508  0.6043 -0.8215  0.2158
 4355SOL    HW213965   5.610   5.961   3.523 -0.8865  0.0754 -0.5180
 4356SOL     OW13966   0.200   4.811   5.638  0.0674  0.1405 -0.4199
 4356SOL    HW113967   0.225   4.779   5.546  0.3259 -0.3789 -0.1726
 4356SOL    HW213968   0.146   4.741   5.683 -0.5040  0.6098 -0.3616
 4357SOL     OW13969   0.318   0.525   6.805 -0.5152 -0.1466 -0.0441
 4357SOL    HW113970   0.279   0.552   6.716 -0.7484  2.5050  0.7816
 4357SOL    HW213971   0.417   0.514   6.796 -0.5418  0.0597 -0.6409
 4358SOL     OW13972   5.131   4.787   5.785 -0.0577 -0.3854 -0.3383
 4358SOL    HW113973   5.164   4.699   5.820 -0.7713 -0.6013 -0.1911
 4358SOL    HW213974   5.042   4.807   5.826  0.6197  0.9622  0.5386
 4359SOL     OW13975   4.923   4.664   2.710  0.1792  0.6445  0.1805
 4359SOL    HW113976   4.970   4.745   2.676  0.5274  0.9108  1.2381
 4359SOL    HW213977   4.988   4.608   2.762 -0.1191 -0.1907 -0.3250
 4360SOL     OW13978   0.885   0.092   3.417  0.3068  0.6782  0.1379
 4360SOL    HW113979   0.928   0.027   3.354 -0.3570 -1.2026  1.5195
 4360SOL    HW213980   0.872   0.180   3.371  1.4903 -0.0646 -1.7285
 4361SOL     OW13981   5.120   4.583   5.137  0.1527  0.0689 -0.1307
 4361SOL    HW113982   5.178   4.513   5.178  0.9830  1.0562  0.4130
 4361SOL    HW213983   5.060   4.622   5.207 -2.6891 -2.2938 -1.0187
 4362SOL     OW13984   6.176   6.942   3.598 -0.4931  0.1447 -0.0701
 4362SOL    HW113985   6.190   6.870   3.666 -1.0172 -0.7630 -0.9040
 4362SOL    HW213986   6.129   6.905   3.519  0.5163  1.0710 -1.1495
 4363SOL     OW13987   6.151   6.903   3.307 -0.0229  0.8143  0.3829
 4363SOL    HW113988   6.068   6.930   3.259  0.3244  1.1357 -0.0447
 4363SOL    HW213989   6.150   6.804   3.323  0.1822  0.5766 -0.9480
 4364SOL     OW13990   1.816   2.687   1.195  0.4016 -0.0937  0.8908
 4364SOL    HW113991   1.910   2.683   1.162  0.9894  0.5019  2.3618
 4364SOL    HW213992   1.772   2.770   1.161  0.6372 -0.0375  0.7240
 4365SOL     OW13993   1.646   3.633   4.264  0.3541 -0.3441  0.0234
 4365SOL    HW113994   1.724   3.615   4.324 -1.3704  0.8275  2.7974
 4365SOL    HW213995   1.648   3.728   4.234  1.1166 -0.8809 -1.7545
 4366SOL     OW13996   6.051   1.629   5.284 -0.2499  0.1489 -0.1793
 4366SOL    HW113997   5.958   1.631   5.248  0.5233  1.2516 -2.2862
 4366SOL    HW213998   6.092   1.540   5.268 -0.5912 -0.0089 -0.1746
 4367SOL     OW13999   0.309   6.624   0.067 -0.4704 -0.0555 -0.3919
 4367SOL    HW114000   0.405   6.609   0.046 -0.6221 -0.2978 -0.9086
 4367SOL    HW214001   0.271   6.692   0.004 -0.6342  0.0658 -0.1670
 4368SOL     OW14002   1.810   2.298   6.609 -0.5965 -0.3534 -0.1304
 4368SOL    HW114003   1.900   2.276   6.571 -0.2236 -2.3237  1.7156
 4368SOL    HW214004   1.739   2.281   6.539  0.2789 -0.9860 -0.8943
 4369SOL     OW14005   0.696   2.371   3.473 -0.4695  0.0050 -0.4404
 4369SOL    HW114006   0.656   2.437   3.409 -1.2456  2.0573  1.9705
 4369SOL    HW214007   0.790   2.398   3.494 -1.1594  1.1609  1.4410
 4370SOL     OW14008   6.439   3.900   0.075  0.4709  0.2546 -0.7801
 4370SOL    HW114009   6.456   3.969   0.005  0.4331 -0.1017 -1.1431
 4370SOL    HW214010   6.485   3.815   0.051  0.8192  0.2596 -0.1497
 4371SOL     OW14011   3.149   2.786   0.968  0.1751  0.5212 -0.4285
 4371SOL    HW114012   3.228   2.823   1.016 -0.7096  1.0715  0.6588
 4371SOL    HW214013   3.083   2.859   0.951 -0.6183 -0.1276 -0.2521
 4372SOL     OW14014   2.943   6.792   5.801  0.4267 -0.0194 -0.2254
 4372SOL    HW114015   2.865   6.828   5.750  1.0983  2.1030  0.1328
 4372SOL    HW214016   2.994   6.728   5.744 -0.5403 -0.0381 -1.0954
 4373SOL     OW14017   3.340   5.967   4.811 -0.2199  0.2320  0.2636
 4373SOL    HW114018   3.300   5.983   4.721 -0.5308  0.8221  0.4990
 4373SOL    HW214019   3.413   6.033   4.827  0.9991 -0.9718 -0.2425
 4374SOL     OW14020   3.693   5.775   4.469  0.7703  0.0025  0.3031
 4374SOL    HW114021   3.652   5.830   4.396 -0.2605 -0.3520  0.5911
 4374SOL    HW214022   3.759   5.711   4.429 -0.1644 -0.5577 -0.4199
 4375SOL     OW14023   0.990   3.042   0.755  0.2573  0.7162 -0.1947
 4375SOL    HW114024   0.955   2.968   0.697  1.5804 -1.0596  1.1345
 4375SOL    HW214025   0.949   3.035   0.846  1.3329  0.7903  0.3197
 4376SOL     OW14026   2.219   1.326   1.622 -0.4759 -0.7314  0.6427
 4376SOL    HW114027   2.243   1.322   1.525  0.6909 -0.8659  0.9207
 4376SOL    HW214028   2.264   1.404   1.665  1.1043 -2.0931  1.5866
 4377SOL     OW14029   4.974   4.288   6.072  0.7841 -0.2443 -0.1641
 4377SOL    HW114030   4.988   4.377   6.115  2.5308 -0.3250 -0.5136
 4377SOL    HW214031   4.878   4.280   6.044  0.8551  2.0734 -1.3432
 4378SOL     OW14032   1.515   3.519   2.432 -0.1480  0.1896 -0.0101
 4378SOL    HW114033   1.611   3.547   2.443 -0.0131 -0.6962  1.3296
 4378SOL    HW214034   1.493   3.513   2.334  2.0352 -2.3533 -0.4516
 4379SOL     OW14035   6.931   1.418   0.685 -0.1637  0.1853  0.1674
 4379SOL    HW114036   6.975   1.491   0.737  0.4267 -0.6599  0.8854
 4379SOL    HW214037   6.836   1.443   0.667 -0.2930  0.6511  1.3764
 4380SOL     OW14038   6.574   6.091   1.400  0.3553 -0.4269  0.0379
 4380SOL    HW114039   6.555   6.008   1.452 -1.4518  0.6840  1.2586
 4380SOL    HW214040   6.579   6.169   1.463  1.8702  0.4322 -1.0921
 4381SOL     OW14041   3.654   6.321   2.304 -0.1167 -0.0947 -0.1421
 4381SOL    HW114042   3.633   6.332   2.207  0.8887 -0.8614 -0.4636
 4381SOL    HW214043   3.724   6.388   2.331 -0.6351  0.3388  0.1421
 4382SOL     OW14044   2.977   1.812   5.721  0.1705  0.2004 -0.2760
 4382SOL    HW114045   2.979   1.765   5.809  1.2822  0.2207 -0.2698
 4382SOL    HW214046   2.999   1.908   5.734  1.0044  0.0673 -0.6384
 4383SOL     OW14047   3.440   1.961   4.783 -0.7062  0.1673  0.3222
 4383SOL    HW114048   3.436   2.007   4.871 -0.8987  1.9132 -0.5634
 4383SOL    HW214049   3.474   2.024   4.713  2.4723 -1.9929 -0.3419
 4384SOL     OW14050   5.986   2.099   6.397  0.2415 -0.1162  0.2516
 4384SOL    HW114051   6.009   2.195   6.414 -0.9074 -0.1795  2.5431
 4384SOL    HW214052   5.889   2.084   6.414 -0.0139 -1.3546 -1.9023
 4385SOL     OW14053   1.178   3.388   6.732  0.0668 -0.6756  0.1127
 4385SOL    HW114054   1.160   3.365   6.827  0.0495 -0.3620  0.1868
 4385SOL    HW214055   1.097   3.430   6.691  1.2295  2.8858  1.1103
 4386SOL     OW14056   1.587   2.043   1.848 -0.5084  0.4105  0.2764
 4386SOL    HW114057   1.619   1.953   1.878  0.3171  0.6556  0.1515
 4386SOL    HW214058   1.551   2.094   1.926 -0.0524  0.3521  0.5259
 4387SOL     OW14059   0.273   4.493   0.712  0.0694  0.1881 -0.2216
 4387SOL    HW114060   0.208   4.497   0.636  0.6739 -0.7426 -0.8110
 4387SOL    HW214061   0.271   4.402   0.754  0.1380  0.5240  0.5319
 4388SOL     OW14062   4.957   1.679   0.609  0.9623 -0.5679 -0.4730
 4388SOL    HW114063   4.862   1.694   0.584  1.0045  0.6928  0.0665
 4388SOL    HW214064   5.004   1.631   0.535 -0.5562 -3.1041  0.0778
 4389SOL     OW14065   5.794   1.218   1.435  0.3888  0.0420  0.1272
 4389SOL    HW114066   5.831   1.307   1.408  1.0417 -0.1377  0.3973
 4389SOL    HW214067   5.726   1.189   1.369  0.4439  0.5699 -0.1711
 4390SOL     OW14068   3.703   0.443   1.226  0.0925 -0.8709  0.2468
 4390SOL    HW114069   3.738   0.414   1.137  2.9209  0.3469  0.8712
 4390SOL    HW214070   3.675   0.539   1.222 -1.4425 -1.2778  0.2948
 4391SOL     OW14071   6.542   4.399   3.531 -0.2766 -0.1268  0.5840
 4391SOL    HW114072   6.598   4.446   3.463 -0.7528  0.9175  0.8907
 4391SOL    HW214073   6.502   4.316   3.490 -2.0587  1.4328 -1.0638
 4392SOL     OW14074   5.735   4.955   0.032  0.1803 -0.2259  0.4256
 4392SOL    HW114075   5.833   4.956   0.050 -0.0474  0.7842  1.8389
 4392SOL    HW214076   5.690   5.025   0.089 -1.5557 -1.7507  1.0280
 4393SOL     OW14077   6.052   0.835   4.050 -0.3385  0.1147 -0.5955
 4393SOL    HW114078   6.122   0.782   4.002 -0.9972 -0.5611 -0.8281
 4393SOL    HW214079   5.995   0.883   3.984 -0.1197  0.6402 -0.4074
 4394SOL     OW14080   4.939   5.911   1.263  0.2009  0.3177  0.5749
 4394SOL    HW114081   5.021   5.955   1.298  0.4390  1.0488 -0.8528
 4394SOL    HW214082   4.935   5.920   1.164 -0.1779 -2.1359  0.2942
 4395SOL     OW14083   5.535   5.734   2.304 -0.2457 -0.7106 -0.4842
 4395SOL    HW114084   5.556   5.812   2.245  0.1038  0.1421  0.7159
 4395SOL    HW214085   5.470   5.762   2.374  0.3119 -1.3320  0.3024
 4396SOL     OW14086   3.501   0.604   1.053 -0.3559 -0.2749  0.0319
 4396SOL    HW114087   3.493   0.516   1.004 -1.3319 -0.8495  1.1584
 4396SOL    HW214088   3.566   0.663   1.006 -0.8097 -1.0303 -1.6137
 4397SOL     OW14089   1.676   0.301   6.750 -0.7751  0.0921 -0.1969
 4397SOL    HW114090   1.741   0.233   6.785 -1.2772 -0.0117  0.5553
 4397SOL    HW214091   1.588   0.259   6.733 -0.4381  0.0427 -2.0674
 4398SOL     OW14092   3.265   4.954   3.074 -0.3480  0.1968  0.1273
 4398SOL    HW114093   3.171   4.976   3.098 -1.1068 -2.2780 -0.3134
 4398SOL    HW214094   3.275   4.955   2.974  0.2453  0.9065  0.1804
 4399SOL     OW14095   5.067   1.147   3.142  0.3013 -0.1233 -0.0125
 4399SOL    HW114096   5.102   1.226   3.091  0.6936  1.0333  1.9569
 4399SOL    HW214097   5.117   1.138   3.228 -1.3377 -1.0980  0.8846
 4400SOL     OW14098   6.569   1.367   6.711  0.3693  0.2441  0.1251
 4400SOL    HW114099   6.565   1.430   6.633  1.6580  1.2565  0.8399
 4400SOL    HW214100   6.604   1.416   6.791  1.8178 -1.4569  0.5960
 4401SOL     OW14101   0.596   6.643   4.051 -0.2310 -0.7043 -0.4972
 4401SOL    HW114102   0.645   6.686   4.127  1.5224 -0.0977 -1.8875
 4401SOL    HW214103   0.609   6.544   4.054  0.9148 -0.5739 -0.6848
 4402SOL     OW14104   0.629   4.455   1.031  0.2085 -0.2101  0.4702
 4402SOL    HW114105   0.682   4.537   1.054 -0.0101  1.0563 -2.9595
 4402SOL    HW214106   0.561   4.438   1.102  0.9961  1.9161  1.8238
 4403SOL     OW14107   1.671   5.633   3.181  0.3469 -0.0546 -0.6088
 4403SOL    HW114108   1.593   5.603   3.126 -0.1910  1.1281 -0.5336
 4403SOL    HW214109   1.638   5.683   3.261  1.1616 -0.6884  0.1405
 4404SOL     OW14110   1.831   2.975   2.644  0.5494 -0.4821  0.4193
 4404SOL    HW114111   1.733   2.990   2.661 -0.0294 -0.9056 -2.0889
 4404SOL    HW214112   1.869   2.918   2.716 -0.7644  0.6151  2.0526
 4405SOL     OW14113   2.127   3.227   2.396 -0.1560 -0.2993  0.1711
 4405SOL    HW114114   2.108   3.130   2.412  1.7867 -0.6410  0.7234
 4405SOL    HW214115   2.203   3.236   2.331  2.1076  0.6823  2.7468
 4406SOL     OW14116   5.320   1.549   3.451 -0.4851  0.2097 -0.1826
 4406SOL    HW114117   5.393   1.494   3.491 -0.5902  1.0421  1.2142
 4406SOL    HW214118   5.255   1.575   3.522 -3.8873 -2.9974 -1.7973
 4407SOL     OW14119   6.114   4.509   5.260 -0.2272 -0.2215  0.2253
 4407SOL    HW114120   6.182   4.503   5.186 -0.0950  0.9914  0.2340
 4407SOL    HW214121   6.037   4.565   5.230  1.0088  2.5272  1.8401
 4408SOL     OW14122   2.318   6.084   3.815  0.4637 -0.0291  0.5960
 4408SOL    HW114123   2.375   6.033   3.751  0.2307 -0.8878  1.0590
 4408SOL    HW214124   2.347   6.064   3.909  0.5001  0.8532  0.7820
 4409SOL     OW14125   5.288   4.070   3.205 -0.4764 -0.0993  0.2280
 4409SOL    HW114126   5.368   4.031   3.159 -0.9097 -0.2994 -0.3735
 4409SOL    HW214127   5.313   4.098   3.298 -0.3481 -2.5966  1.0089
 4410SOL     OW14128   5.573   1.818   5.803  0.4021 -0.0734 -0.0087
 4410SOL    HW114129   5.532   1.737   5.845 -0.9434 -0.1004 -1.2898
 4410SOL    HW214130   5.504   1.890   5.796  1.1573  0.6340 -0.3363
 4411SOL     OW14131   0.880   6.707   0.663 -0.3496 -0.1928 -0.6537
 4411SOL    HW114132   0.855   6.611   0.651 -1.7762  0.1758 -0.8296
 4411SOL    HW214133   0.804   6.757   0.705 -0.7799  1.4353 -3.1310
 4412SOL     OW14134   0.687   6.851   0.487  0.2713  0.2029  0.3499
 4412SOL    HW114135   0.770   6.855   0.542  1.4281  2.1758 -1.3569
 4412SOL    HW214136   0.656   6.944   0.467 -2.2916 -0.4870  0.7820
 4413SOL     OW14137   3.578   6.059   2.379 -0.2538  0.1028  0.0151
 4413SOL    HW114138   3.632   6.143   2.377  0.7774 -0.5408 -0.6613
 4413SOL    HW214139   3.633   5.986   2.421 -0.7352 -0.4827 -0.3527
 4414SOL     OW14140   4.362   1.292   5.653 -0.7334 -0.2319  0.3601
 4414SOL    HW114141   4.369   1.378   5.602  0.4668 -0.5270 -0.0150
 4414SOL    HW214142   4.414   1.300   5.738  0.8867 -1.1385 -0.5004
 4415SOL     OW14143   0.242   7.017   4.046  0.6372 -0.0898  0.1337
 4415SOL    HW114144   0.185   6.941   4.017 -0.5516  1.2362 -1.1837
 4415SOL    HW214145   0.337   7.002   4.016  0.0867 -0.3133 -1.6040
 4416SOL     OW14146   0.923   4.892   0.002 -0.0791  0.3591  0.5100
 4416SOL    HW114147   0.953   4.895  -0.093  2.0459 -1.1867  1.0404
 4416SOL    HW214148   0.848   4.826   0.011  0.9198 -0.8580  0.1565
 4417SOL     OW14149   4.155   5.020   6.876 -0.2585 -0.3438 -0.3102
 4417SOL    HW114150   4.145   4.926   6.908 -2.7211  0.0254  0.2041
 4417SOL    HW214151   4.098   5.081   6.932  0.1325  1.2259 -1.5482
 4418SOL     OW14152   6.976   5.497   0.030  0.2322 -0.0126 -0.4008
 4418SOL    HW114153   6.900   5.504  -0.034  1.4548  1.3568 -1.7899
 4418SOL    HW214154   7.005   5.402   0.039 -0.9111 -0.3967 -0.7222
 4419SOL     OW14155   2.481   5.806   4.603 -0.1357  0.1746 -0.6154
 4419SOL    HW114156   2.399   5.800   4.546  0.2844  0.5972 -1.2806
 4419SOL    HW214157   2.483   5.895   4.648  2.3256  2.3004 -4.3943
 4420SOL     OW14158   1.269   5.804   3.780 -0.6062 -0.1935 -0.5223
 4420SOL    HW114159   1.279   5.836   3.685  1.0334 -0.1241 -0.3607
 4420SOL    HW214160   1.352   5.827   3.831 -1.3816 -0.4239  0.8857
 4421SOL     OW14161   2.954   2.680   6.941  0.2870 -0.9635  0.4195
 4421SOL    HW114162   2.970   2.625   6.859 -2.1242  0.8327 -1.3882
 4421SOL    HW214163   2.987   2.630   7.021  3.4655 -2.4565 -1.6255
 4422SOL     OW14164   1.248   5.303   6.112  0.4925  0.2857  0.6186
 4422SOL    HW114165   1.245   5.245   6.030  3.8824  1.1272 -0.2661
 4422SOL    HW214166   1.189   5.383   6.098 -1.5217 -1.1534  0.4328
 4423SOL     OW14167   3.640   2.829   1.399 -0.3974 -0.0767 -0.0537
 4423SOL    HW114168   3.599   2.825   1.490  1.5443  2.6109  1.0827
 4423SOL    HW214169   3.721   2.771   1.396 -1.3934 -1.5064 -0.7064
 4424SOL     OW14170   4.122   0.010   4.866 -0.2841 -0.2262 -0.5973
 4424SOL    HW114171   4.181  -0.058   4.909 -0.7325 -0.6039 -0.5743
 4424SOL    HW214172   4.128   0.096   4.917 -1.0967 -0.7755  0.4727
 4425SOL     OW14173   6.131   6.729   5.860 -0.0019 -0.5304 -0.5437
 4425SOL    HW114174   6.041   6.762   5.888  1.0912  1.5431  0.7809
 4425SOL    HW214175   6.149   6.641   5.903 -0.2616  0.4180  1.6243
 4426SOL     OW14176   5.108   3.035   5.736  0.6701 -0.0724  0.2481
 4426SOL    HW114177   5.156   3.021   5.823  0.8012 -0.3753  0.1248
 4426SOL    HW214178   5.135   3.124   5.698 -0.5152  0.7622  1.2552
 4427SOL     OW14179   0.018   2.399   0.498 -0.0985  0.4819  0.0019
 4427SOL    HW114180   0.118   2.407   0.501 -0.1119  0.5975  0.1849
 4427SOL    HW214181  -0.022   2.474   0.552 -0.2604 -0.1868  0.8227
 4428SOL     OW14182   0.396   6.703   1.507 -0.1731 -0.1223 -0.5272
 4428SOL    HW114183   0.308   6.734   1.470  0.8984  1.5268 -1.8213
 4428SOL    HW214184   0.379   6.639   1.582 -2.4857  0.7190 -0.2318
 4429SOL     OW14185   0.154   4.978   0.168 -0.3480  0.4693  0.1715
 4429SOL    HW114186   0.143   4.948   0.074  2.0472 -1.9414  0.5275
 4429SOL    HW214187   0.241   5.027   0.178  0.0295 -0.3701  1.3096
 4430SOL     OW14188   5.525   3.524   3.543 -0.6847  0.3004  0.1831
 4430SOL    HW114189   5.483   3.577   3.617  0.4893  1.1435  0.2589
 4430SOL    HW214190   5.610   3.483   3.576  0.3100  1.4118 -0.9446
 4431SOL     OW14191   3.678   5.980   3.853 -0.1934 -0.2036 -0.0868
 4431SOL    HW114192   3.642   5.899   3.899 -1.3770 -0.3782 -1.2575
 4431SOL    HW214193   3.606   6.020   3.796  0.0616  2.2068  1.1427
 4432SOL     OW14194   2.727   5.411   5.150 -0.0391 -0.2436 -0.7736
 4432SOL    HW114195   2.659   5.441   5.217 -0.4117  0.0595 -1.2900
 4432SOL    HW214196   2.787   5.342   5.193 -0.6902 -0.5481 -0.3350
 4433SOL     OW14197   5.436   0.333   3.129 -0.1439 -0.1365  0.2894
 4433SOL    HW114198   5.391   0.375   3.050  0.2044 -0.6974 -0.2221
 4433SOL    HW214199   5.476   0.245   3.101  0.3224 -0.1551  0.9952
 4434SOL     OW14200   4.735   0.944   2.716 -0.6600 -0.4263  0.5724
 4434SOL    HW114201   4.750   0.913   2.810  0.7293 -0.6035  0.3072
 4434SOL    HW214202   4.801   0.900   2.655 -0.4826  0.9107 -0.2391
 4435SOL     OW14203   4.356   7.000   4.357 -0.3081 -0.1057 -0.0702
 4435SOL    HW114204   4.290   7.000   4.282 -1.2296 -0.0866  0.7187
 4435SOL    HW214205   4.374   6.906   4.386  0.1020 -0.1171 -0.3623
 4436SOL     OW14206   5.750   4.815   2.989  0.0511 -0.4522 -0.1386
 4436SOL    HW114207   5.714   4.898   3.031 -0.3964 -0.4934 -0.4253
 4436SOL    HW214208   5.822   4.776   3.046  1.0932  0.7812 -0.5702
 4437SOL     OW14209   6.422   3.892   2.959 -0.2658  0.3016  0.1181
 4437SOL    HW114210   6.475   3.822   3.007  2.0769  2.4927  0.9334
 4437SOL    HW214211   6.336   3.908   3.008  1.0743  0.9333  2.4281
 4438SOL     OW14212   5.361   3.552   0.375 -0.2181 -0.3025 -0.0911
 4438SOL    HW114213   5.270   3.564   0.414 -0.4181 -0.3972 -0.5204
 4438SOL    HW214214   5.381   3.455   0.365  0.0159 -0.2853  0.1972
 4439SOL     OW14215   6.603   6.394   3.829  0.2102 -0.0528  0.0633
 4439SOL    HW114216   6.631   6.298   3.828 -0.7769 -0.3419 -0.7034
 4439SOL    HW214217   6.646   6.440   3.906  2.7052 -0.4977 -0.9704
 4440SOL     OW14218   5.854   4.197   3.464 -0.3116  0.4000 -0.2660
 4440SOL    HW114219   5.943   4.192   3.509  0.0111 -0.7584 -0.9768
 4440SOL    HW214220   5.804   4.112   3.480 -0.0689 -0.1728 -2.2929
 4441SOL     OW14221   1.520   6.630   5.369 -0.0091  0.3182 -0.2694
 4441SOL    HW114222   1.508   6.545   5.421  2.0908  0.6745  0.9181
 4441SOL    HW214223   1.487   6.617   5.276 -2.3443 -0.8806  0.6552
 4442SOL     OW14224   4.638   4.696   3.451  0.0635 -0.1491  0.5501
 4442SOL    HW114225   4.645   4.645   3.536 -1.4717  1.2501  1.6028
 4442SOL    HW214226   4.709   4.766   3.447 -0.5326  0.5220  1.2682
 4443SOL     OW14227   6.442   0.342   3.587 -0.8434  0.6373 -0.3499
 4443SOL    HW114228   6.487   0.369   3.502 -0.0088  0.8449  0.1456
 4443SOL    HW214229   6.362   0.285   3.566  0.7303 -1.3774 -1.2152
 4444SOL     OW14230   6.230   5.142   3.058 -0.2594 -0.4800  0.6577
 4444SOL    HW114231   6.180   5.094   2.986  1.0907 -0.3474 -0.4182
 4444SOL    HW214232   6.191   5.232   3.072 -0.7362 -0.6309  0.3099
 4445SOL     OW14233   6.108   0.621   3.263 -0.5581  0.8797 -1.0139
 4445SOL    HW114234   6.134   0.574   3.347 -0.8291  2.7322  0.1745
 4445SOL    HW214235   6.188   0.666   3.224 -1.0823  3.5032  0.6311
 4446SOL     OW14236   0.257   5.598   2.507 -0.0248 -0.0773 -0.0224
 4446SOL    HW114237   0.184   5.649   2.552  0.3338  0.9362 -0.5583
 4446SOL    HW214238   0.290   5.649   2.427  1.2842 -0.4927  0.2220
 4447SOL     OW14239   2.186   2.453   5.940 -0.6251 -0.1169  0.1166
 4447SOL    HW114240   2.165   2.364   5.898  0.7915 -0.8701  0.9369
 4447SOL    HW214241   2.284   2.460   5.956 -0.9842  0.5372  2.3782
 4448SOL     OW14242   3.183   2.240   0.409  0.1296  0.5433  0.1200
 4448SOL    HW114243   3.275   2.242   0.369 -0.3199  1.5464 -0.9372
 4448SOL    HW214244   3.131   2.163   0.370 -0.0403  1.0347 -0.6579
 4449SOL     OW14245   2.374   3.975   6.752  0.7422  0.2378  0.5111
 4449SOL    HW114246   2.472   3.973   6.772  1.0886  1.0284 -0.9347
 4449SOL    HW214247   2.346   4.069   6.730  0.2141 -0.3254 -1.4769
 4450SOL     OW14248   6.661   0.824   4.066 -0.6466 -0.3832  0.1037
 4450SOL    HW114249   6.638   0.885   4.142 -1.2197  0.6508 -0.8621
 4450SOL    HW214250   6.749   0.780   4.083 -1.0104 -0.5801  1.5954
 4451SOL     OW14251   0.551   1.271   4.898  0.0312 -0.5448 -0.0116
 4451SOL    HW114252   0.515   1.358   4.864  0.4530 -0.9690 -1.6638
 4451SOL    HW214253   0.478   1.204   4.902 -0.5120  0.1183  2.2523
 4452SOL     OW14254   5.054   0.327   0.043  0.7322 -0.2037  0.2283
 4452SOL    HW114255   5.018   0.366  -0.042 -1.4882 -0.0493  1.1799
 4452SOL    HW214256   5.098   0.399   0.096  2.2614 -0.3271 -0.8202
 4453SOL     OW14257   6.496   0.469   2.270 -0.1672  0.5457 -0.4713
 4453SOL    HW114258   6.464   0.375   2.262  1.6769 -0.2823  0.9736
 4453SOL    HW214259   6.441   0.517   2.338 -0.3988  0.1408 -0.3694
 4454SOL     OW14260   0.806   5.343   5.118  0.0031 -1.0116  0.1688
 4454SOL    HW114261   0.814   5.441   5.136  1.2466 -1.0400 -0.1679
 4454SOL    HW214262   0.877   5.314   5.054 -0.7292 -2.0269 -0.2218
 4455SOL     OW14263   4.830   4.511   1.376  0.5776 -0.0123  0.5142
 4455SOL    HW114264   4.744   4.552   1.404  0.5033 -1.4737  2.6638
 4455SOL    HW214265   4.848   4.430   1.432  3.1414  0.0051 -0.1666
 4456SOL     OW14266   0.960   5.501   1.944 -0.0637  0.5589 -1.2823
 4456SOL    HW114267   0.959   5.433   1.871  0.6143  0.8594 -1.5742
 4456SOL    HW214268   0.967   5.593   1.905 -2.0401  0.9004 -0.9475
 4457SOL     OW14269   2.617   6.513   1.226  0.4662  0.3119 -0.4642
 4457SOL    HW114270   2.531   6.515   1.276  1.5020  1.1890  1.3902
 4457SOL    HW214271   2.661   6.424   1.240  0.6718  0.4925  0.0896
 4458SOL     OW14272   5.523   1.106   4.649 -0.6408  0.2436  0.2159
 4458SOL    HW114273   5.548   1.014   4.620 -1.6101 -0.2743  0.9307
 4458SOL    HW214274   5.423   1.115   4.648 -0.7128  0.4429  2.4771
 4459SOL     OW14275   1.899   5.787   1.248  0.5047 -0.1449  0.3220
 4459SOL    HW114276   1.935   5.879   1.258 -4.2715  2.1260 -0.4914
 4459SOL    HW214277   1.898   5.762   1.151 -1.2977  0.5084  0.1348
 4460SOL     OW14278   3.725   5.001   3.287 -0.3835 -0.8633 -0.0698
 4460SOL    HW114279   3.694   5.048   3.370 -1.0156 -0.9806 -0.2342
 4460SOL    HW214280   3.646   4.973   3.233 -0.0415  2.3524 -2.5125
 4461SOL     OW14281   1.344   1.661   0.182 -0.1564 -0.2555  0.5882
 4461SOL    HW114282   1.410   1.598   0.140 -0.1528  0.1973 -0.0961
 4461SOL    HW214283   1.386   1.706   0.260  0.7717  0.9032 -0.5347
 4462SOL     OW14284   1.960   3.819   6.674  0.3768  0.5698 -0.3966
 4462SOL    HW114285   1.911   3.891   6.722 -0.2327 -1.5633  2.4949
 4462SOL    HW214286   2.056   3.819   6.703  0.9720  1.6527 -2.2458
 4463SOL     OW14287   1.257   4.939   6.998 -0.0968 -0.9328  0.7921
 4463SOL    HW114288   1.231   4.900   6.910  2.5841 -0.8383 -0.1262
 4463SOL    HW214289   1.259   4.867   7.067  1.0023 -1.7085 -0.0123
 4464SOL     OW14290   5.723   4.124   5.338 -0.2260  0.1794  0.0099
 4464SOL    HW114291   5.770   4.038   5.320 -0.1233  0.5174 -1.4479
 4464SOL    HW214292   5.769   4.172   5.413  1.1506  0.0247 -0.7005
 4465SOL     OW14293   1.450   2.262   6.240  0.5004  0.4986  0.2050
 4465SOL    HW114294   1.354   2.252   6.216  0.9885 -1.9011 -1.0180
 4465SOL    HW214295   1.489   2.341   6.192 -0.5382  0.7178 -0.3007
 4466SOL     OW14296   0.125   1.531   3.135  0.5514  0.1019  0.2032
 4466SOL    HW114297   0.209   1.509   3.084  0.7179 -0.7376  0.8198
 4466SOL    HW214298   0.054   1.558   3.070  1.3733  1.1265 -0.3103
 4467SOL     OW14299   3.463   2.379   1.420 -0.2683  0.2628  0.0995
 4467SOL    HW114300   3.364   2.365   1.424 -0.0779 -1.0297  2.6424
 4467SOL    HW214301   3.494   2.418   1.506  1.8558 -3.2301  1.1358
 4468SOL     OW14302   5.390   0.071   6.782 -0.0889  0.0682 -0.0218
 4468SOL    HW114303   5.372  -0.023   6.813 -0.0025  0.2065  0.4555
 4468SOL    HW214304   5.373   0.135   6.857  0.6331  0.3640 -0.0959
 4469SOL     OW14305   2.786   5.182   6.736  0.0337  0.3321 -0.0596
 4469SOL    HW114306   2.807   5.116   6.809  0.0800 -1.7781 -1.8694
 4469SOL    HW214307   2.866   5.239   6.719  1.0958 -1.1915 -0.4341
 4470SOL     OW14308   4.691   1.349   4.789  0.1422  0.7529  0.1499
 4470SOL    HW114309   4.645   1.377   4.874 -1.6913  2.9815 -1.4567
 4470SOL    HW214310   4.640   1.273   4.748  1.8911 -1.3650  1.6924
 4471SOL     OW14311   2.626   0.754   2.639 -0.0412  0.3870 -0.2136
 4471SOL    HW114312   2.533   0.789   2.643 -0.2144 -0.0895  0.0268
 4471SOL    HW214313   2.671   0.767   2.727 -0.1489 -0.1013 -0.0841
 4472SOL     OW14314   1.286   1.283   1.090 -0.2577  0.0050  0.1236
 4472SOL    HW114315   1.281   1.296   1.189  0.3900  0.6193  0.0835
 4472SOL    HW214316   1.194   1.287   1.052 -0.5313 -0.4411  0.7234
 4473SOL     OW14317   5.260   4.277   4.095 -0.1351 -0.3321 -0.3105
 4473SOL    HW114318   5.234   4.374   4.100 -0.5741 -0.4793  0.4855
 4473SOL    HW214319   5.239   4.233   4.182 -0.7120 -1.3368 -0.9473
 4474SOL     OW14320   6.999   4.745   2.619  0.0824 -0.1040  0.2828
 4474SOL    HW114321   6.947   4.800   2.553  0.4701  0.7740  0.7018
 4474SOL    HW214322   7.052   4.676   2.570  0.6599  0.7806 -0.3728
 4475SOL     OW14323   1.492   5.094   2.622  0.1713  0.2345 -0.3028
 4475SOL    HW114324   1.514   5.156   2.546  0.0756  1.0428  0.3068
 4475SOL    HW214325   1.574   5.043   2.648  0.7702  1.4726  0.3815
 4476SOL     OW14326   5.201   5.435   5.150  0.2694  0.4216 -0.6599
 4476SOL    HW114327   5.169   5.528   5.165  1.0888  0.5705  0.2435
 4476SOL    HW214328   5.284   5.436   5.095  1.4890  0.4179  1.0788
 4477SOL     OW14329   4.808   1.768   2.357  0.5174  0.2137  0.2278
 4477SOL    HW114330   4.732   1.702   2.360 -0.7350  1.6314  0.7046
 4477SOL    HW214331   4.834   1.785   2.262 -1.4727  1.5641 -0.1278
 4478SOL     OW14332   3.103   1.775   0.515  0.3970  0.2650 -0.1421
 4478SOL    HW114333   3.093   1.727   0.602  1.8099 -0.2937 -0.2545
 4478SOL    HW214334   3.176   1.843   0.523 -0.5836  1.3818 -0.4281
 4479SOL     OW14335   1.475   5.698   1.013  0.2280 -0.4530 -0.2240
 4479SOL    HW114336   1.546   5.690   0.943  1.5676  1.3385  0.8374
 4479SOL    HW214337   1.518   5.714   1.102 -1.5061 -0.0226  0.5757
 4480SOL     OW14338   3.185   4.882   6.514 -0.7735  0.2187 -0.6470
 4480SOL    HW114339   3.282   4.885   6.489 -0.6944 -0.5964 -0.4746
 4480SOL    HW214340   3.131   4.926   6.443 -0.2143  1.3659 -0.3845
 4481SOL     OW14341   4.840   1.985   1.701 -0.0471  0.0397  0.0914
 4481SOL    HW114342   4.786   2.018   1.779  0.2567  0.6619  0.0390
 4481SOL    HW214343   4.930   2.029   1.702 -0.5597  1.2071 -1.4555
 4482SOL     OW14344   1.784   6.825   4.760 -0.2895 -0.6906  0.0150
 4482SOL    HW114345   1.785   6.925   4.762  0.6105 -0.7026  0.2582
 4482SOL    HW214346   1.786   6.794   4.665 -2.4453 -0.4871 -0.1611
 4483SOL     OW14347   3.275   5.568   0.411  0.4921  0.0964 -0.3836
 4483SOL    HW114348   3.293   5.664   0.390  0.1393  0.3330  0.3662
 4483SOL    HW214349   3.362   5.518   0.411  1.1977  1.1170  2.6265
 4484SOL     OW14350   1.375   2.093   6.813 -0.0280 -0.5102 -0.5033
 4484SOL    HW114351   1.296   2.101   6.875  0.7536  0.7697  0.3857
 4484SOL    HW214352   1.362   2.153   6.734  0.5670  0.7079  0.2762
 4485SOL     OW14353   1.654   0.914   1.977  0.1761 -0.5354  0.5009
 4485SOL    HW114354   1.644   0.859   2.060  2.5649 -0.8180  0.6746
 4485SOL    HW214355   1.664   1.011   2.002  1.3520 -0.6693  0.6279
 4486SOL     OW14356   6.412   6.312   6.724  0.4521 -0.3893 -0.0043
 4486SOL    HW114357   6.498   6.319   6.674  0.4508 -0.0284  0.0442
 4486SOL    HW214358   6.429   6.322   6.822  0.1829  1.1881 -0.0926
 4487SOL     OW14359   6.651   4.519   1.300  0.6733  0.2105  0.3741
 4487SOL    HW114360   6.598   4.536   1.383 -0.5804 -0.5095 -0.2429
 4487SOL    HW214361   6.617   4.579   1.227  0.2971 -0.6692 -0.1868
 4488SOL     OW14362   6.802   4.232   3.962 -0.2486  0.0623  0.7069
 4488SOL    HW114363   6.857   4.270   4.037 -0.4806  1.0216  0.4013
 4488SOL    HW214364   6.746   4.158   3.997  1.0914 -0.8281  1.0729
 4489SOL     OW14365   5.716   1.842   1.217  0.1122  0.5108 -0.0169
 4489SOL    HW114366   5.774   1.787   1.157 -0.5152 -0.3355  0.1436
 4489SOL    HW214367   5.624   1.803   1.221  0.2528  0.2612  1.8394
 4490SOL     OW14368   4.340   0.596   0.703  0.6328  0.0850 -0.0718
 4490SOL    HW114369   4.383   0.525   0.648 -0.7530 -1.9757  1.3699
 4490SOL    HW214370   4.375   0.592   0.797 -1.1403 -0.3101  0.6206
 4491SOL     OW14371   2.033   1.226   6.088 -0.2400  0.1010  0.2000
 4491SOL    HW114372   1.966   1.162   6.050  0.7048 -0.0273 -1.3000
 4491SOL    HW214373   2.119   1.219   6.038  0.2829  1.6742  0.8128
 4492SOL     OW14374   1.520   3.331   4.648 -0.4771 -0.0736  0.3198
 4492SOL    HW114375   1.587   3.299   4.715 -1.3780  0.4416  1.5044
 4492SOL    HW214376   1.444   3.374   4.696 -0.9116  0.7592 -1.0733
 4493SOL     OW14377   3.755   6.127   5.837  0.0763 -0.7080 -0.0529
 4493SOL    HW114378   3.733   6.143   5.740 -0.4988  0.2264  0.2162
 4493SOL    HW214379   3.750   6.214   5.887 -1.1082 -1.4071  1.1033
 4494SOL     OW14380   4.603   2.833   1.486 -0.1213 -0.0883  0.2477
 4494SOL    HW114381   4.591   2.735   1.497  1.7556 -0.5684 -1.4487
 4494SOL    HW214382   4.520   2.873   1.447 -1.1129 -0.8467  1.4939
 4495SOL     OW14383   6.115   2.266   1.655  0.8363 -0.6290  0.1936
 4495SOL    HW114384   6.075   2.203   1.588 -0.9691 -0.1695  0.8023
 4495SOL    HW214385   6.205   2.296   1.622  1.3864 -2.8414 -0.5055
 4496SOL     OW14386   2.107   1.345   4.114 -0.4026  0.2178 -0.5112
 4496SOL    HW114387   2.181   1.372   4.051 -0.4199  1.4182 -0.0448
 4496SOL    HW214388   2.147   1.305   4.196 -0.3026  0.0830 -0.6260
 4497SOL     OW14389   5.818   6.229   4.277 -0.2908  0.1444  0.0448
 4497SOL    HW114390   5.731   6.185   4.299 -1.0693  1.1188 -0.9846
 4497SOL    HW214391   5.874   6.234   4.360 -0.9880 -0.9564  0.6084
 4498SOL     OW14392   5.838   5.541   1.059 -0.8220 -0.4544  0.6239
 4498SOL    HW114393   5.864   5.593   0.978 -0.8015 -0.2307  0.7721
 4498SOL    HW214394   5.912   5.479   1.085  0.2175  1.2312  1.9178
 4499SOL     OW14395   2.861   3.896   5.264  0.3351 -0.0102  0.2288
 4499SOL    HW114396   2.954   3.911   5.232 -0.0084 -0.5013 -1.0687
 4499SOL    HW214397   2.819   3.984   5.286  1.0528  0.2227  0.6896
 4500SOL     OW14398   0.066   4.839   0.385 -0.2437 -0.0149 -0.2805
 4500SOL    HW114399   0.134   4.843   0.459 -0.7689 -1.0514  0.2772
 4500SOL    HW214400   0.107   4.873   0.301  1.3525 -1.6367 -0.2231
 4501SOL     OW14401   4.364   4.762   1.263  0.1116  0.5217  0.0680
 4501SOL    HW114402   4.362   4.739   1.360 -2.7671 -1.2047 -0.2944
 4501SOL    HW214403   4.410   4.690   1.212 -0.4492  0.2620 -0.0773
 4502SOL     OW14404   4.063   5.514   0.965 -0.4283  0.0012  0.3841
 4502SOL    HW114405   3.989   5.574   0.936 -0.2594  0.6419  1.2308
 4502SOL    HW214406   4.057   5.497   1.063 -0.1013 -0.8619  0.2685
 4503SOL     OW14407   3.602   3.420   2.505  0.5492 -0.5539  0.1808
 4503SOL    HW114408   3.555   3.502   2.536  1.3832  0.3946 -0.9689
 4503SOL    HW214409   3.697   3.421   2.538  0.7221 -0.7671 -0.2925
 4504SOL     OW14410   0.353   0.418   2.444  0.3015 -0.0897 -0.4682
 4504SOL    HW114411   0.429   0.360   2.472  0.4566 -0.5512 -1.7863
 4504SOL    HW214412   0.290   0.430   2.521  1.5432  0.0693  0.5483
 4505SOL     OW14413   3.614   1.350   2.272 -0.4629 -0.8344 -0.0360
 4505SOL    HW114414   3.570   1.364   2.184 -0.1195  0.0116 -0.0878
 4505SOL    HW214415   3.561   1.286   2.327 -1.6520 -0.0080 -0.1754
 4506SOL     OW14416   6.372   5.768   3.036 -0.0961  0.3355  0.6211
 4506SOL    HW114417   6.406   5.725   2.952  1.3717 -2.2735  2.4039
 4506SOL    HW214418   6.287   5.724   3.065 -0.1371  0.6325  0.9622
 4507SOL     OW14419   2.952   3.378   3.872 -0.5446  0.3624  0.2925
 4507SOL    HW114420   2.917   3.421   3.789  0.1730  0.8223  0.2172
 4507SOL    HW214421   2.909   3.421   3.952 -0.4765  0.6253  0.1900
 4508SOL     OW14422   4.561   4.754   4.024 -0.4219  0.0024  0.1266
 4508SOL    HW114423   4.638   4.691   4.022  0.9155  1.5181  1.2181
 4508SOL    HW214424   4.583   4.836   3.972 -1.6554  0.1075 -0.2695
 4509SOL     OW14425   1.755   1.418   4.699 -0.2401 -0.5160  0.5439
 4509SOL    HW114426   1.828   1.373   4.750  1.2405  2.0025  0.8236
 4509SOL    HW214427   1.741   1.511   4.734 -2.2859 -0.2516 -0.7581
 4510SOL     OW14428   0.086   1.032   3.181 -0.5125 -0.3592  0.1567
 4510SOL    HW114429   0.057   1.106   3.120 -0.8280  0.2902  1.0814
 4510SOL    HW214430   0.094   1.067   3.274  0.8293 -1.1378  0.3475
 4511SOL     OW14431   3.383   6.918   2.384 -0.4052 -0.0830  0.0009
 4511SOL    HW114432   3.319   6.842   2.379  0.3879 -0.6922 -0.9761
 4511SOL    HW214433   3.474   6.884   2.404 -0.1822  0.6899  0.3413
 4512SOL     OW14434   5.384   2.152   1.374 -0.8329  0.0387  0.2036
 4512SOL    HW114435   5.366   2.054   1.365 -0.1199 -0.2538  1.6282
 4512SOL    HW214436   5.475   2.173   1.337 -1.3400  0.3496 -0.9274
 4513SOL     OW14437   0.311   5.604   5.414  0.3962 -0.7451 -0.0446
 4513SOL    HW114438   0.226   5.652   5.438 -0.2435 -1.7574 -0.2209
 4513SOL    HW214439   0.296   5.505   5.420  1.3600 -0.9503 -0.7850
 4514SOL     OW14440   5.402   2.308   0.017 -0.1956  0.2951  0.8455
 4514SOL    HW114441   5.334   2.237   0.000 -0.5501  0.7615  0.2682
 4514SOL    HW214442   5.471   2.305  -0.056 -0.4614  0.8282  0.5668
 4515SOL     OW14443   5.819   6.532   2.142  0.1529 -0.3651 -0.4804
 4515SOL    HW114444   5.851   6.454   2.090 -1.6858 -1.4634 -0.0555
 4515SOL    HW214445   5.812   6.508   2.238 -0.9625  0.1321 -0.4222
 4516SOL     OW14446   5.447   1.582   2.211 -0.2397  0.4384  0.1428
 4516SOL    HW114447   5.523   1.646   2.197  0.6800 -0.7615 -0.4361
 4516SOL    HW214448   5.440   1.560   2.308 -1.3085  2.2650  0.5484
 4517SOL     OW14449   2.454   6.785   1.870 -0.2916  0.0761 -0.0997
 4517SOL    HW114450   2.428   6.793   1.967 -1.9598 -0.7818 -0.4414
 4517SOL    HW214451   2.424   6.867   1.821 -0.0823  0.1958 -0.0301
 4518SOL     OW14452   1.725   5.900   1.721 -0.1709  0.7092 -0.0859
 4518SOL    HW114453   1.679   5.989   1.717 -1.8086 -0.0376  0.9698
 4518SOL    HW214454   1.671   5.837   1.777  1.8303 -0.4512  0.6683
 4519SOL     OW14455   1.448   1.004   4.674 -0.2086  0.2006  0.2107
 4519SOL    HW114456   1.413   1.088   4.714  0.9673  1.4797 -1.3071
 4519SOL    HW214457   1.500   1.025   4.591 -0.9934 -2.1612 -0.9714
 4520SOL     OW14458   1.610   3.628   1.735  0.6286  0.0938  0.0012
 4520SOL    HW114459   1.629   3.589   1.825  0.3938  0.0940  0.0492
 4520SOL    HW214460   1.520   3.671   1.735  0.8406  0.5565 -0.0745
 4521SOL     OW14461   2.388   6.012   2.725  0.3626 -0.1415 -0.8756
 4521SOL    HW114462   2.308   6.000   2.667  1.2223  2.6237 -2.8330
 4521SOL    HW214463   2.361   6.002   2.821 -2.0293 -0.5922 -1.5395
 4522SOL     OW14464   3.873   3.706   0.408 -0.0954 -0.1007  0.1586
 4522SOL    HW114465   3.906   3.663   0.324 -0.5326  0.0974 -0.1162
 4522SOL    HW214466   3.930   3.677   0.485  1.9450  1.7169 -0.5876
 4523SOL     OW14467   6.481   4.218   4.610 -0.2690 -0.6158  0.3394
 4523SOL    HW114468   6.416   4.145   4.591  1.0754 -1.5953 -0.6407
 4523SOL    HW214469   6.455   4.300   4.558 -0.0995 -1.3601 -0.9532
 4524SOL     OW14470   4.956   3.765   4.639  0.0303  0.0939 -0.0159
 4524SOL    HW114471   4.957   3.679   4.691  1.6278 -0.7592 -1.3991
 4524SOL    HW214472   5.038   3.818   4.660  1.3635 -0.8325 -2.4843
 4525SOL     OW14473   0.798   3.351   1.236  0.5787 -0.3063  0.2312
 4525SOL    HW114474   0.879   3.378   1.289  0.0666  1.6139  0.1155
 4525SOL    HW214475   0.802   3.395   1.146 -0.9207  0.4077  0.4905
 4526SOL     OW14476   4.549   2.475   4.964 -0.0719  0.7420  0.0113
 4526SOL    HW114477   4.576   2.556   5.017  1.3428 -0.9624  2.1035
 4526SOL    HW214478   4.455   2.451   4.986  0.2363  0.5364  1.1673
 4527SOL     OW14479   5.743   3.611   0.796  0.3415  0.3362 -0.0604
 4527SOL    HW114480   5.839   3.636   0.807  0.5796 -0.4561 -0.2928
 4527SOL    HW214481   5.732   3.552   0.716 -0.4172  0.8240 -0.3246
 4528SOL     OW14482   1.679   1.200   2.380 -0.3040 -0.7883  0.2379
 4528SOL    HW114483   1.648   1.295   2.377 -0.4782 -0.8653 -1.2135
 4528SOL    HW214484   1.763   1.191   2.326  0.6618 -1.1495  1.7499
 4529SOL     OW14485   1.829   6.197   3.201 -0.0076  0.2416 -0.4022
 4529SOL    HW114486   1.906   6.144   3.164  0.3046  0.7523 -0.4810
 4529SOL    HW214487   1.786   6.144   3.275 -1.2016 -1.2001 -2.0415
 4530SOL     OW14488   5.559   6.431   1.742 -0.0387  0.0552 -0.1470
 4530SOL    HW114489   5.642   6.468   1.702  0.0204  0.3465  0.2455
 4530SOL    HW214490   5.544   6.338   1.707  0.6724 -0.1598  0.0930
 4531SOL     OW14491   6.935   4.313   4.182 -0.0140  0.5077  0.7460
 4531SOL    HW114492   7.020   4.365   4.171  1.4627 -1.8146  0.5295
 4531SOL    HW214493   6.871   4.366   4.237  1.6032  2.3006  1.0105
 4532SOL     OW14494   5.558   2.617   5.785  0.1525  0.5037  0.0203
 4532SOL    HW114495   5.576   2.681   5.859 -1.4229  1.5560 -0.4471
 4532SOL    HW214496   5.488   2.655   5.725 -0.7224 -1.5943 -0.3746
 4533SOL     OW14497   6.972   2.509   1.011 -0.7627  0.3636 -0.5212
 4533SOL    HW114498   7.049   2.497   1.074  0.2807 -0.8488 -1.9529
 4533SOL    HW214499   6.997   2.573   0.939 -0.9229 -0.3487 -1.2254
 4534SOL     OW14500   1.633   4.778   4.051 -0.1241 -0.5212 -0.4010
 4534SOL    HW114501   1.700   4.710   4.022 -1.1198 -1.6717 -0.0748
 4534SOL    HW214502   1.678   4.866   4.063  0.5352  0.0014 -4.8296
 4535SOL     OW14503   2.733   6.012   4.287 -0.5721  0.2751  0.8954
 4535SOL    HW114504   2.665   5.938   4.294  0.7228 -0.9409  1.0251
 4535SOL    HW214505   2.817   5.985   4.334 -0.0056  1.7806  0.7976
 4536SOL     OW14506   0.885   6.120   5.478  0.1760 -0.4757  0.3056
 4536SOL    HW114507   0.897   6.108   5.379 -2.0303 -1.6400  0.1120
 4536SOL    HW214508   0.943   6.055   5.526  0.6711 -0.4489 -0.2385
 4537SOL     OW14509   2.192   5.516   1.663  1.1890  0.1026  0.3971
 4537SOL    HW114510   2.181   5.568   1.579  0.3989  1.2658  1.1785
 4537SOL    HW214511   2.239   5.430   1.644 -0.7879 -0.6235 -1.5677
 4538SOL     OW14512   6.772   1.531   0.188 -0.3324  0.8654  0.2816
 4538SOL    HW114513   6.811   1.490   0.105  1.7739  0.3444  1.4490
 4538SOL    HW214514   6.729   1.460   0.244 -0.6456  1.0086  0.2239
 4539SOL     OW14515   2.644   3.931   6.778 -0.8465 -0.5862 -0.3372
 4539SOL    HW114516   2.710   3.923   6.853 -0.7124  0.1851 -0.3706
 4539SOL    HW214517   2.627   3.840   6.739 -1.1610 -1.0449  0.8276
 4540SOL     OW14518   0.883   5.721   1.807  0.2231  0.1621 -0.1049
 4540SOL    HW114519   0.877   5.821   1.807 -0.0987  0.1442  0.0368
 4540SOL    HW214520   0.794   5.682   1.784 -0.1114 -0.1074  1.5369
 4541SOL     OW14521   5.261   6.354   1.465 -0.0860  0.2592  0.2215
 4541SOL    HW114522   5.238   6.361   1.368 -2.2473  0.4218  0.6856
 4541SOL    HW214523   5.234   6.265   1.500  1.1337  0.0187  0.5795
 4542SOL     OW14524   4.176   6.405   0.920  0.1867  0.0916  0.1087
 4542SOL    HW114525   4.155   6.389   0.824  0.0277  0.5479  0.0636
 4542SOL    HW214526   4.180   6.318   0.969 -1.3753 -0.0433  0.0264
 4543SOL     OW14527   5.276   1.484   5.134  0.1782 -0.2275 -0.2118
 4543SOL    HW114528   5.262   1.573   5.091 -0.7875 -1.1582 -1.9761
 4543SOL    HW214529   5.365   1.447   5.108  0.6523  0.2895  0.6645
 4544SOL     OW14530   0.730   5.742   2.339  0.0602 -0.0343 -0.4042
 4544SOL    HW114531   0.687   5.688   2.412  0.7193 -1.3876 -0.9692
 4544SOL    HW214532   0.748   5.683   2.261  3.3116  0.3012 -0.0519
 4545SOL     OW14533   6.871   2.423   3.112  0.4630  0.0370  0.2188
 4545SOL    HW114534   6.835   2.454   3.024  0.8701 -0.2961 -0.0719
 4545SOL    HW214535   6.969   2.403   3.102  0.0958 -1.9677  0.2159
 4546SOL     OW14536   2.102   4.004   0.549 -0.0069  0.5301 -0.1121
 4546SOL    HW114537   2.017   4.056   0.556  0.0005  0.5984 -0.4919
 4546SOL    HW214538   2.086   3.921   0.496  0.0472  0.2847  0.2531
 4547SOL     OW14539   1.216   2.728   3.305 -0.1406  0.3407 -0.1137
 4547SOL    HW114540   1.190   2.768   3.392  1.5824  0.5545  0.3342
 4547SOL    HW214541   1.313   2.703   3.307  0.4124  1.9027 -2.5206
 4548SOL     OW14542   1.259   5.679   5.776 -0.3173 -0.0020 -0.1500
 4548SOL    HW114543   1.270   5.760   5.718 -0.6709  1.6703  1.9718
 4548SOL    HW214544   1.164   5.673   5.806 -0.0800 -0.6474  0.4925
 4549SOL     OW14545   2.803   2.377   5.108 -0.3081 -0.0278 -0.1149
 4549SOL    HW114546   2.741   2.453   5.091  1.4221  1.2565 -1.0880
 4549SOL    HW214547   2.848   2.351   5.022  0.2324 -1.1571  0.4807
 4550SOL     OW14548   0.359   2.629   2.315  0.1051  0.0544  0.1872
 4550SOL    HW114549   0.356   2.608   2.217 -0.6949 -0.4228  0.3043
 4550SOL    HW214550   0.266   2.628   2.352  0.5025 -0.9791  1.2016
 4551SOL     OW14551   2.531   2.267   5.725 -0.0144 -0.0883 -0.8764
 4551SOL    HW114552   2.468   2.250   5.800  0.8580 -0.3386 -0.1751
 4551SOL    HW214553   2.507   2.352   5.680  0.6955  1.2379  1.0762
 4552SOL     OW14554   3.672   1.718   0.032 -0.1852 -0.2217  0.0653
 4552SOL    HW114555   3.645   1.674  -0.053 -1.5173  1.0706 -0.2336
 4552SOL    HW214556   3.591   1.757   0.076  0.5358 -0.5882  1.7652
 4553SOL     OW14557   5.619   2.266   6.839  0.1215 -0.1602 -0.6628
 4553SOL    HW114558   5.583   2.227   6.754  0.8697 -0.0114 -1.0605
 4553SOL    HW214559   5.651   2.359   6.822 -1.7429  0.7146  0.2987
 4554SOL     OW14560   2.399   6.354   0.341  0.2674 -0.4213 -0.6834
 4554SOL    HW114561   2.466   6.364   0.267 -0.6427 -1.9018 -1.7829
 4554SOL    HW214562   2.385   6.256   0.359 -1.4182 -0.1400 -0.3327
 4555SOL     OW14563   1.193   2.533   4.542 -0.0476 -0.3629  0.2316
 4555SOL    HW114564   1.257   2.456   4.540  2.1893  1.3860  1.1477
 4555SOL    HW214565   1.169   2.554   4.636 -1.0373 -0.2181 -0.0421
 4556SOL     OW14566   7.014   4.091   1.268  0.6832  0.0328 -0.0439
 4556SOL    HW114567   6.995   4.132   1.179  1.8064  1.2088  0.2383
 4556SOL    HW214568   7.082   4.145   1.317  0.3118 -0.7504  1.4239
 4557SOL     OW14569   0.437   5.105   0.216  0.0463 -0.1602 -0.0010
 4557SOL    HW114570   0.425   5.157   0.300 -2.6399 -2.2507  1.0684
 4557SOL    HW214571   0.453   5.168   0.140  2.6735  1.7833  2.0000
 4558SOL     OW14572   4.224   1.940   0.309 -0.0975 -0.3444 -0.4566
 4558SOL    HW114573   4.190   1.910   0.220 -1.9988 -0.2310  0.1829
 4558SOL    HW214574   4.294   1.876   0.341 -0.0201 -0.8750 -1.6432
 4559SOL     OW14575   6.494   4.180   1.684  0.1058  0.4620 -0.2540
 4559SOL    HW114576   6.526   4.086   1.680 -0.0297  0.4567 -1.4073
 4559SOL    HW214577   6.474   4.213   1.592  1.1666  1.9642  0.0132
 4560SOL     OW14578   5.769   6.253   0.373 -0.0767 -0.0567  1.2314
 4560SOL    HW114579   5.708   6.318   0.417  0.9245  1.0609  1.0030
 4560SOL    HW214580   5.803   6.291   0.287 -0.7339 -1.5572  0.2634
 4561SOL     OW14581   5.498   4.228   5.976  0.5438 -0.1254 -0.0754
 4561SOL    HW114582   5.562   4.297   6.011 -0.5376  1.1283 -0.5207
 4561SOL    HW214583   5.509   4.219   5.877  0.1903 -0.0780 -0.1199
 4562SOL     OW14584   0.561   5.261   5.581 -0.5249  0.6652 -0.0202
 4562SOL    HW114585   0.461   5.262   5.573 -0.4740 -0.4478 -1.2458
 4562SOL    HW214586   0.601   5.246   5.490  0.6939 -0.3052  0.6407
 4563SOL     OW14587   4.112   5.801   4.871 -0.1793 -0.6415 -0.2129
 4563SOL    HW114588   4.204   5.762   4.869 -0.9950 -2.7077 -2.2258
 4563SOL    HW214589   4.083   5.824   4.778 -1.8277 -0.3909  0.3283
 4564SOL     OW14590   0.116   6.581   3.202  0.3774 -0.3359 -0.3431
 4564SOL    HW114591   0.177   6.646   3.248 -1.4606 -0.5230  2.6244
 4564SOL    HW214592   0.043   6.631   3.155  0.2648 -0.1968 -0.0222
 4565SOL     OW14593   6.107   6.331   3.930 -0.2455 -0.2315 -0.0819
 4565SOL    HW114594   6.173   6.363   3.999  1.3081 -2.5293 -0.3808
 4565SOL    HW214595   6.105   6.396   3.854  0.9330  0.4019  0.3922
 4566SOL     OW14596   1.813   6.181   0.161  0.3131  0.4046  0.4855
 4566SOL    HW114597   1.880   6.133   0.218 -0.4131  0.7504  1.6698
 4566SOL    HW214598   1.804   6.275   0.193 -0.5977  0.4103  0.2226
 4567SOL     OW14599   1.233   3.847   1.373 -0.1326  0.0710 -0.2912
 4567SOL    HW114600   1.140   3.862   1.340 -0.7439 -0.1041  1.2524
 4567SOL    HW214601   1.280   3.782   1.313  0.1890  2.6778 -3.0409
 4568SOL     OW14602   3.565   0.337   4.472 -0.5378  0.4470 -0.6329
 4568SOL    HW114603   3.520   0.354   4.560 -0.5849 -0.8432 -0.3867
 4568SOL    HW214604   3.501   0.288   4.411 -0.1157  0.3140 -0.9735
 4569SOL     OW14605   0.391   4.798   2.646  0.1493  0.3340 -0.5628
 4569SOL    HW114606   0.318   4.857   2.610  1.1258  1.4305 -0.7931
 4569SOL    HW214607   0.372   4.703   2.621  0.1104  0.8924 -2.8934
 4570SOL     OW14608   4.346   5.427   0.009 -0.7182  0.2397  0.0330
 4570SOL    HW114609   4.265   5.465  -0.036 -1.9429 -0.4692  1.5496
 4570SOL    HW214610   4.319   5.381   0.093  1.3420  0.3653  0.8199
 4571SOL     OW14611   3.300   3.915   0.643 -0.0695  0.3590 -0.9092
 4571SOL    HW114612   3.400   3.923   0.640  0.2709 -2.6625 -0.8021
 4571SOL    HW214613   3.271   3.898   0.737 -0.1971 -2.5863 -1.3969
 4572SOL     OW14614   5.512   5.805   3.882  0.0070  0.0627  0.7851
 4572SOL    HW114615   5.513   5.712   3.919 -0.8091  0.1122  0.9568
 4572SOL    HW214616   5.461   5.807   3.796  0.8880  0.1726  0.2492
 4573SOL     OW14617   3.580   0.915   4.787  0.0328 -0.2019  0.0703
 4573SOL    HW114618   3.608   1.010   4.802 -1.6734  0.1831  1.1133
 4573SOL    HW214619   3.524   0.885   4.864 -0.2919 -1.7258 -0.7346
 4574SOL     OW14620   2.479   6.578   6.853  0.2548  0.2772 -0.3736
 4574SOL    HW114621   2.427   6.574   6.939 -0.4168  1.7966 -0.6775
 4574SOL    HW214622   2.526   6.666   6.847 -1.6377  1.2433 -2.6041
 4575SOL     OW14623   6.560   1.017   4.565 -0.3026  0.1623  0.8637
 4575SOL    HW114624   6.570   1.115   4.545 -0.4368  0.3419  1.6393
 4575SOL    HW214625   6.477   1.001   4.618  0.0179 -0.2853  1.2532
 4576SOL     OW14626   6.229   5.207   0.681  0.4379 -0.0141  0.1936
 4576SOL    HW114627   6.194   5.226   0.773 -1.8916 -0.6203 -0.4913
 4576SOL    HW214628   6.233   5.292   0.629  2.2644  0.4184  0.9526
 4577SOL     OW14629   4.578   4.451   3.067 -0.3045  0.6218  0.0510
 4577SOL    HW114630   4.582   4.448   2.967  0.2916 -1.2615  0.0805
 4577SOL    HW214631   4.670   4.436   3.104 -0.6941  0.1402  0.8613
 4578SOL     OW14632   6.720   4.529   0.682 -0.1507  0.2539 -0.4797
 4578SOL    HW114633   6.724   4.615   0.733 -0.0315 -0.0554  0.0442
 4578SOL    HW214634   6.646   4.473   0.717  1.2094 -0.8336  0.7852
 4579SOL     OW14635   0.347   6.386   0.197 -0.2912 -0.2242  0.7554
 4579SOL    HW114636   0.309   6.473   0.166 -0.2728  0.0080  1.3619
 4579SOL    HW214637   0.353   6.386   0.297 -0.1624 -0.8710  0.7538
 4580SOL     OW14638   2.678   6.317   5.415 -0.3258  0.7633 -0.3313
 4580SOL    HW114639   2.651   6.224   5.441  0.7637  0.1817 -1.1854
 4580SOL    HW214640   2.596   6.372   5.399 -1.0039 -0.4087 -1.0464
 4581SOL     OW14641   6.916   3.899   2.294 -0.0219 -0.0105 -0.2250
 4581SOL    HW114642   6.874   3.928   2.380 -1.3326 -0.3219 -0.7433
 4581SOL    HW214643   6.858   3.925   2.218  1.2286  0.4554 -1.0591
 4582SOL     OW14644   2.359   4.365   5.704 -0.6915 -0.1260 -0.0737
 4582SOL    HW114645   2.311   4.422   5.638  0.2085  0.4495 -0.2394
 4582SOL    HW214646   2.354   4.269   5.675 -2.5981 -0.2369  0.4475
 4583SOL     OW14647   0.216   4.172   6.268 -0.4077 -0.2062 -0.4834
 4583SOL    HW114648   0.167   4.259   6.270 -0.7613 -0.4165  0.5101
 4583SOL    HW214649   0.249   4.154   6.175  0.0083  1.1727 -0.6158
 4584SOL     OW14650   1.995   6.704   4.094 -0.3111  0.1605 -0.3559
 4584SOL    HW114651   2.063   6.771   4.123  0.7114 -0.3600 -1.4580
 4584SOL    HW214652   2.039   6.615   4.081 -1.4309 -0.4766 -0.0104
 4585SOL     OW14653   4.949   3.944   2.929  0.2034  0.3832 -0.2598
 4585SOL    HW114654   4.934   3.895   3.015  0.8902  0.3342 -0.1625
 4585SOL    HW214655   4.862   3.976   2.893 -0.4737 -2.0800 -1.0111
 4586SOL     OW14656   5.630   4.644   2.626 -0.1547  0.3073  0.3638
 4586SOL    HW114657   5.582   4.628   2.540 -1.8090  0.3048  1.2342
 4586SOL    HW214658   5.633   4.742   2.645  2.9138  0.6174 -1.1032
 4587SOL     OW14659   3.738   5.839   0.790 -0.2123  0.6251 -0.4174
 4587SOL    HW114660   3.804   5.874   0.857  0.6607  0.4926 -1.1885
 4587SOL    HW214661   3.681   5.914   0.758 -1.4226  0.4959  1.3028
 4588SOL     OW14662   4.451   1.710   3.914  0.1079  1.4241  0.6490
 4588SOL    HW114663   4.464   1.707   4.013 -0.4032 -0.1035  0.6989
 4588SOL    HW214664   4.457   1.805   3.883  1.9774  1.7600  1.8824
 4589SOL     OW14665   1.002   4.368   6.356 -0.5804 -0.0322 -0.6573
 4589SOL    HW114666   1.043   4.277   6.368 -2.2062 -0.5090  2.1271
 4589SOL    HW214667   1.026   4.426   6.434 -3.6130  0.2179  0.2090
 4590SOL     OW14668   0.972   1.603   5.213 -0.2205  0.8421  0.2272
 4590SOL    HW114669   0.930   1.565   5.296 -0.8147  0.7548 -0.1114
 4590SOL    HW214670   1.041   1.670   5.239  0.5374 -0.1404  0.8313
 4591SOL     OW14671   2.035   4.708   3.350  0.4272 -0.2869  0.4922
 4591SOL    HW114672   2.019   4.800   3.386  1.4292  0.6643 -1.3826
 4591SOL    HW214673   2.072   4.650   3.422 -1.5891  0.3284  2.1119
 4592SOL     OW14674   3.520   3.225   0.608 -0.2157  0.0677 -0.3662
 4592SOL    HW114675   3.509   3.149   0.672 -1.2891 -0.4806 -1.1592
 4592SOL    HW214676   3.448   3.220   0.539  0.4293  1.1161 -1.1373
 4593SOL     OW14677   2.446   6.418   5.683  0.0412  0.1671 -0.0838
 4593SOL    HW114678   2.358   6.376   5.704 -1.0880  1.7527 -1.3829
 4593SOL    HW214679   2.456   6.428   5.584  2.1994 -0.9812 -0.0254
 4594SOL     OW14680   0.302   2.789   4.694  0.0440  0.4461 -0.2998
 4594SOL    HW114681   0.230   2.793   4.763  0.4926 -0.5215  0.2455
 4594SOL    HW214682   0.345   2.880   4.686  1.8134  0.0422  2.7415
 4595SOL     OW14683   2.059   2.343   6.485 -0.4345 -0.2198  0.4765
 4595SOL    HW114684   2.029   2.422   6.430  0.4268  0.6036  1.1485
 4595SOL    HW214685   2.154   2.322   6.463 -0.1817 -0.0911  1.4087
 4596SOL     OW14686   1.946   1.969   0.500  0.0474  0.7645  0.0694
 4596SOL    HW114687   1.874   1.992   0.566 -0.4394  1.2899 -0.6421
 4596SOL    HW214688   2.024   2.031   0.512  0.3728  0.2409  0.7901
 4597SOL     OW14689   0.793   1.064   2.534 -0.3947  0.4316 -0.1681
 4597SOL    HW114690   0.781   1.090   2.630 -0.2472  0.1668 -0.0770
 4597SOL    HW214691   0.853   1.130   2.489 -2.1627  1.7836 -0.6307
 4598SOL     OW14692   1.109   5.909   6.035  0.0150 -0.3105  0.5151
 4598SOL    HW114693   1.208   5.919   6.027  0.0407 -0.5019  0.5893
 4598SOL    HW214694   1.081   5.821   5.998 -0.1449 -0.1977  0.3665
 4599SOL     OW14695   4.464   6.632   6.522 -0.2928 -0.0353  0.0622
 4599SOL    HW114696   4.484   6.685   6.440  0.3126 -1.1799 -0.5434
 4599SOL    HW214697   4.548   6.615   6.573 -0.6189  0.3861  0.7739
 4600SOL     OW14698   4.075   5.682   1.873  0.2834  0.3331  0.1474
 4600SOL    HW114699   4.122   5.770   1.877  0.9811 -0.0567  1.6536
 4600SOL    HW214700   4.035   5.662   1.963 -2.0469  0.2387 -0.8504
 4601SOL     OW14701   4.963   3.787   5.971  0.8591 -0.4908  0.4151
 4601SOL    HW114702   5.029   3.826   6.034  1.4111  1.2800 -1.1649
 4601SOL    HW214703   4.985   3.815   5.878 -2.2521  0.4205 -0.1589
 4602SOL     OW14704   6.823   3.144   6.938 -0.0755 -0.2860 -0.0621
 4602SOL    HW114705   6.740   3.095   6.965  0.2338 -0.8022 -0.0354
 4602SOL    HW214706   6.896   3.078   6.922  0.1943  0.1353 -0.5658
 4603SOL     OW14707   4.539   4.960   0.565 -0.1235  0.4931 -0.5193
 4603SOL    HW114708   4.514   4.864   0.567  0.9004  0.2198  1.3898
 4603SOL    HW214709   4.511   5.000   0.477 -0.4294 -1.5443 -1.4022
 4604SOL     OW14710   3.988   3.003   5.285  0.2738 -0.3176 -1.3654
 4604SOL    HW114711   3.957   3.098   5.293  1.1454 -0.0177 -1.4615
 4604SOL    HW214712   3.909   2.943   5.284 -0.2627  0.2610  0.5715
 4605SOL     OW14713   6.572   6.575   2.800 -0.4509 -0.2134  0.0958
 4605SOL    HW114714   6.571   6.476   2.808 -0.1073 -0.2558 -0.3196
 4605SOL    HW214715   6.658   6.611   2.839 -1.3967  0.1017  2.0308
 4606SOL     OW14716   6.692   3.156   0.409  0.0973  0.0307  0.3212
 4606SOL    HW114717   6.669   3.206   0.325  0.7747  1.6015  1.0554
 4606SOL    HW214718   6.787   3.125   0.404 -0.3707 -1.4402 -0.2175
 4607SOL     OW14719   6.094   0.804   2.898 -0.3733 -0.3026 -0.3414
 4607SOL    HW114720   6.037   0.749   2.959 -1.3017  0.3039 -0.6336
 4607SOL    HW214721   6.190   0.794   2.923 -0.3628 -3.0227 -1.1312
 4608SOL     OW14722   0.428   2.934   2.523 -0.4954  0.4137 -0.3712
 4608SOL    HW114723   0.333   2.959   2.502 -0.6289 -0.3859 -0.7576
 4608SOL    HW214724   0.432   2.839   2.553 -0.2539  1.3512  2.9568
 4609SOL     OW14725   1.370   3.158   2.100  0.3463 -0.0556 -0.6830
 4609SOL    HW114726   1.453   3.156   2.045 -0.8625  0.3535 -2.6441
 4609SOL    HW214727   1.393   3.175   2.195  2.4164  1.4014 -1.3681
 4610SOL     OW14728   1.964   5.888   5.316 -0.6299 -0.2572 -0.7769
 4610SOL    HW114729   2.014   5.856   5.396 -0.6189 -0.9549 -1.0611
 4610SOL    HW214730   1.867   5.867   5.326 -0.7003  0.0794 -0.7360
 4611SOL     OW14731   0.016   1.237   0.511 -0.1803  0.3220 -0.0818
 4611SOL    HW114732  -0.025   1.277   0.593  0.5678 -0.0612  0.4909
 4611SOL    HW214733   0.011   1.303   0.436 -0.6380  0.7771  0.3381
 4612SOL     OW14734   5.103   2.410   0.138  0.2627  0.1918 -0.1594
 4612SOL    HW114735   5.121   2.314   0.156  0.2309  0.3490  0.7810
 4612SOL    HW214736   5.180   2.451   0.090  1.4617  0.3044  1.7379
 4613SOL     OW14737   3.794   2.896   3.339  0.0482 -0.1460  0.0106
 4613SOL    HW114738   3.835   2.809   3.366 -0.7210 -0.6041 -0.2742
 4613SOL    HW214739   3.834   2.969   3.394  2.0376 -0.4015 -1.0019
 4614SOL     OW14740   4.965   5.899   3.979  0.8502 -0.0589 -0.1256
 4614SOL    HW114741   5.010   5.983   3.949  1.0053 -0.3257 -0.6601
 4614SOL    HW214742   4.945   5.842   3.899 -0.6856  0.1697  0.0711
 4615SOL     OW14743   2.403   0.456   2.793  0.3519  0.3950 -0.4470
 4615SOL    HW114744   2.369   0.452   2.887 -1.2673 -0.8067 -1.0413
 4615SOL    HW214745   2.500   0.431   2.791 -0.4219 -3.1918  0.5295
 4616SOL     OW14746   1.905   4.181   5.472 -0.3679 -0.0623  0.4840
 4616SOL    HW114747   1.849   4.101   5.451  1.2119 -0.8692 -0.7936
 4616SOL    HW214748   1.893   4.250   5.401 -0.5788  0.2262  0.7956
 4617SOL     OW14749   5.623   0.522   3.212  0.3227  0.0735 -0.3283
 4617SOL    HW114750   5.584   0.593   3.270  1.7120  0.6098 -0.0087
 4617SOL    HW214751   5.551   0.459   3.183 -0.5784  0.4085  1.0954
 4618SOL     OW14752   0.277   6.316   5.558  0.2764  0.1687 -0.3451
 4618SOL    HW114753   0.305   6.373   5.635  0.7765  0.3208 -0.6413
 4618SOL    HW214754   0.178   6.298   5.564  0.6200 -1.4063  1.3836
 4619SOL     OW14755   4.868   0.324   2.937 -0.1653  0.0549 -0.2520
 4619SOL    HW114756   4.809   0.402   2.918  0.2945  0.2103 -1.0778
 4619SOL    HW214757   4.832   0.273   3.015 -0.4481  1.1113  0.3240
 4620SOL     OW14758   2.305   4.244   2.770  0.2448 -0.0072 -0.3946
 4620SOL    HW114759   2.365   4.314   2.809 -3.1228  3.1039 -0.2878
 4620SOL    HW214760   2.272   4.274   2.681 -2.9642 -0.2997  0.5712
 4621SOL     OW14761   3.003   5.784   2.437  0.1199 -0.2064 -0.0406
 4621SOL    HW114762   3.040   5.841   2.363  1.6271 -0.6986  0.3027
 4621SOL    HW214763   3.008   5.688   2.410 -2.4887 -0.2460 -0.6542
 4622SOL     OW14764   4.646   6.193   2.354  0.6622  0.0271 -0.9419
 4622SOL    HW114765   4.572   6.225   2.296  0.6567  2.9673  0.5144
 4622SOL    HW214766   4.734   6.219   2.314  0.6747  1.5561  0.0062
 4623SOL     OW14767   1.796   6.127   6.579  0.2343 -0.4485 -0.0172
 4623SOL    HW114768   1.746   6.070   6.514  0.0067 -0.0434 -0.2028
 4623SOL    HW214769   1.843   6.069   6.645  0.1113 -0.8536 -0.2797
 4624SOL     OW14770   2.148   0.974   4.240  0.2489 -0.1099 -0.3654
 4624SOL    HW114771   2.160   1.067   4.273 -0.1762 -0.2730  0.2612
 4624SOL    HW214772   2.127   0.976   4.142 -1.4192  0.5650 -0.0273
 4625SOL     OW14773   2.712   1.579   2.534 -0.4531 -0.3080  0.3299
 4625SOL    HW114774   2.768   1.660   2.520  1.8860 -1.8079  0.5573
 4625SOL    HW214775   2.633   1.603   2.592  1.9446  1.1606  3.3026
 4626SOL     OW14776   1.524   2.761   1.028 -0.3160 -0.0657  0.7212
 4626SOL    HW114777   1.615   2.796   1.002 -0.8210  1.2352  0.6120
 4626SOL    HW214778   1.500   2.797   1.118 -0.5944 -0.6523  0.8795
 4627SOL     OW14779   4.654   4.916   3.162 -0.0469 -0.5172  0.1598
 4627SOL    HW114780   4.722   4.868   3.218 -0.7378 -1.1699  0.4679
 4627SOL    HW214781   4.652   4.875   3.071  0.0306 -0.4476  0.1271
 4628SOL     OW14782   3.142   5.243   4.969 -0.5543 -0.0629 -0.2219
 4628SOL    HW114783   3.150   5.333   5.011  2.1251 -1.3118  2.3282
 4628SOL    HW214784   3.196   5.240   4.885  0.3126  0.4333  0.2982
 4629SOL     OW14785   4.636   1.243   6.547  0.0723 -0.3061  0.2120
 4629SOL    HW114786   4.684   1.175   6.602  1.3128  0.8150  0.5588
 4629SOL    HW214787   4.601   1.316   6.606 -2.4368 -1.2512  0.0186
 4630SOL     OW14788   1.493   3.659   3.738  0.3054  0.3511 -0.5573
 4630SOL    HW114789   1.516   3.566   3.767  2.7736  0.8992 -0.5235
 4630SOL    HW214790   1.400   3.681   3.767  0.5997 -1.1687  1.8321
 4631SOL     OW14791   5.902   0.561   5.390 -0.1851  0.1116 -0.2520
 4631SOL    HW114792   5.904   0.651   5.433  0.0135 -0.5476  1.2150
 4631SOL    HW214793   5.983   0.547   5.334 -0.8947  1.3494 -1.6500
 4632SOL     OW14794   4.597   5.225   2.117 -0.9902 -0.6448 -0.3264
 4632SOL    HW114795   4.589   5.171   2.201 -2.0091  1.2693  0.8846
 4632SOL    HW214796   4.515   5.281   2.106 -0.0088  0.5983 -1.5451
 4633SOL     OW14797   0.130   0.075   5.212  0.1102  0.5540 -0.1877
 4633SOL    HW114798   0.107   0.083   5.309  0.5482 -2.3235  0.2478
 4633SOL    HW214799   0.229   0.081   5.201 -0.0572  2.8604 -0.7595
 4634SOL     OW14800   2.568   0.499   1.252  0.1583 -0.6748 -0.5215
 4634SOL    HW114801   2.626   0.483   1.331 -0.2928 -3.1432 -0.6291
 4634SOL    HW214802   2.494   0.562   1.278  2.2007  1.7383 -0.1390
 4635SOL     OW14803   4.145   0.921   3.111  0.7360  0.4003  0.1179
 4635SOL    HW114804   4.225   0.868   3.082  0.1658 -0.4200  0.0437
 4635SOL    HW214805   4.093   0.870   3.179 -0.6430  0.2069 -1.0430
 4636SOL     OW14806   4.536   1.560   2.981  0.5765  0.6492  0.4291
 4636SOL    HW114807   4.544   1.656   3.008 -0.0251  0.4539  1.3702
 4636SOL    HW214808   4.494   1.508   3.056  0.6549 -0.2991 -0.1680
 4637SOL     OW14809   4.470   2.695   6.919 -0.3728 -0.7170  0.2968
 4637SOL    HW114810   4.526   2.622   6.881 -0.1320 -1.7316  2.4274
 4637SOL    HW214811   4.497   2.783   6.880 -0.0947 -1.6436 -1.6838
 4638SOL     OW14812   1.140   0.404   6.566  0.3104  0.2825 -0.3274
 4638SOL    HW114813   1.239   0.403   6.562  0.4668 -2.3263  1.5042
 4638SOL    HW214814   1.104   0.319   6.526 -1.1318  0.7814 -0.1619
 4639SOL     OW14815   1.690   0.209   5.671  0.1855  0.0820 -0.1171
 4639SOL    HW114816   1.615   0.230   5.734 -0.9366  3.2087 -2.2425
 4639SOL    HW214817   1.763   0.276   5.682  1.9871 -1.8785  0.6775
 4640SOL     OW14818   2.335   2.087   6.553  0.0081 -0.5449  0.3218
 4640SOL    HW114819   2.324   1.988   6.561 -0.3455 -0.5559 -0.2245
 4640SOL    HW214820   2.423   2.115   6.593  0.3902 -1.1608 -0.0742
 4641SOL     OW14821   5.937   0.185   4.079 -0.1581 -0.1767  0.5265
 4641SOL    HW114822   6.032   0.217   4.078  0.1238 -0.9738  0.8101
 4641SOL    HW214823   5.889   0.220   3.998  1.4923 -2.9299 -1.8612
 4642SOL     OW14824   1.006   1.218   0.149 -0.1012 -0.4744  0.3539
 4642SOL    HW114825   0.966   1.142   0.200  0.5566 -0.6949  0.5427
 4642SOL    HW214826   1.103   1.227   0.171 -0.3564  0.9843  1.0290
 4643SOL     OW14827   6.557   6.264   1.771 -0.1040 -0.8420 -0.0600
 4643SOL    HW114828   6.654   6.240   1.768 -0.4336 -2.2549  0.1793
 4643SOL    HW214829   6.509   6.201   1.831 -1.0626  0.3039  0.4136
 4644SOL     OW14830   3.104   4.923   4.465 -0.2496 -0.0582  0.8022
 4644SOL    HW114831   3.038   4.943   4.537 -1.4964 -0.5412 -0.1668
 4644SOL    HW214832   3.063   4.943   4.376  1.1414  0.2214  0.2067
 4645SOL     OW14833   5.763   0.219   4.970 -0.5283 -0.5330 -0.1245
 4645SOL    HW114834   5.747   0.309   5.011  0.7001  0.2789 -1.3365
 4645SOL    HW214835   5.817   0.163   5.033  0.3507  0.2859 -0.1106
 4646SOL     OW14836   1.818   6.407   6.797 -0.0186 -0.3866 -0.5918
 4646SOL    HW114837   1.838   6.315   6.830 -0.7116 -0.9478 -1.6659
 4646SOL    HW214838   1.729   6.437   6.832 -0.0387 -0.3458 -0.6776
 4647SOL     OW14839   5.460   1.984   3.430  0.8527 -0.1492 -0.3698
 4647SOL    HW114840   5.371   2.019   3.402  0.7437 -1.1476 -1.3034
 4647SOL    HW214841   5.481   1.901   3.380  2.9615  0.8450 -1.2432
 4648SOL     OW14842   2.546   4.129   6.496 -0.2647 -0.2311  0.7456
 4648SOL    HW114843   2.481   4.122   6.572 -0.0773 -3.2470  0.7480
 4648SOL    HW214844   2.512   4.078   6.418  1.6905 -1.2034  0.4624
 4649SOL     OW14845   3.968   2.122   4.156 -0.3999  0.7623  0.1004
 4649SOL    HW114846   3.900   2.146   4.087 -1.0871 -1.0696  0.1079
 4649SOL    HW214847   3.963   2.025   4.177  1.7436  0.7029  0.6472
 4650SOL     OW14848   6.959   0.511   6.005 -0.4249  0.4943 -0.0375
 4650SOL    HW114849   7.011   0.590   6.040 -2.6549  1.5902  1.0541
 4650SOL    HW214850   6.867   0.513   6.044 -1.7426 -0.6251 -2.8312
 4651SOL     OW14851   5.518   0.582   1.112  0.0881  0.2442 -0.1600
 4651SOL    HW114852   5.487   0.645   1.184  0.7103 -0.4693  0.7575
 4651SOL    HW214853   5.462   0.595   1.030 -0.0678  1.6892  0.1498
 4652SOL     OW14854   0.953   0.055   0.603 -0.6821 -0.2901  0.3226
 4652SOL    HW114855   0.901   0.072   0.686 -0.9495 -0.4552  0.1918
 4652SOL    HW214856   1.031  -0.004   0.624 -0.2768  0.3390  0.6055
 4653SOL     OW14857   5.894   6.131   6.718 -0.1929 -0.5326 -0.0957
 4653SOL    HW114858   5.949   6.051   6.741 -0.9223 -1.3954 -1.2663
 4653SOL    HW214859   5.810   6.102   6.673 -1.8358  0.7336  1.9826
 4654SOL     OW14860   4.485   6.485   4.858  0.3049  0.7587  0.1277
 4654SOL    HW114861   4.558   6.536   4.813 -0.7369  1.0059 -1.3774
 4654SOL    HW214862   4.524   6.423   4.925  1.7869  1.7610  0.2402
 4655SOL     OW14863   6.494   2.962   4.799  0.2465  0.3931 -0.1044
 4655SOL    HW114864   6.464   2.958   4.894 -0.0127 -2.2677 -0.2408
 4655SOL    HW214865   6.582   2.916   4.790  0.2040  0.4956 -1.1778
 4656SOL     OW14866   2.966   2.886   1.323 -0.0628 -0.5499 -0.3344
 4656SOL    HW114867   3.023   2.807   1.347  1.3657  0.2925 -0.7997
 4656SOL    HW214868   2.980   2.959   1.390  0.3573  0.0964 -1.1008
 4657SOL     OW14869   4.646   5.478   3.000 -0.5781  0.1753  0.7090
 4657SOL    HW114870   4.580   5.488   2.925 -1.0668 -2.0439  0.7768
 4657SOL    HW214871   4.653   5.565   3.050 -1.6302  1.1559 -0.7599
 4658SOL     OW14872   3.465   1.901   0.117  0.7206 -0.2476  0.2560
 4658SOL    HW114873   3.474   1.949   0.205  0.8680  1.0337 -0.4236
 4658SOL    HW214874   3.369   1.888   0.096  0.6872 -0.7023  0.6814
 4659SOL     OW14875   3.315   3.937   3.376 -0.5205 -0.0045  1.0674
 4659SOL    HW114876   3.268   3.930   3.464 -0.2363 -0.6743  1.1735
 4659SOL    HW214877   3.348   4.031   3.363 -2.4684  0.6645  0.6745
 4660SOL     OW14878   4.394   1.500   6.615  0.2123 -0.3085  0.1043
 4660SOL    HW114879   4.458   1.465   6.683  0.5122 -1.0912 -0.5648
 4660SOL    HW214880   4.444   1.545   6.542  0.0296 -1.1831 -0.5697
 4661SOL     OW14881   3.965   1.999   1.361  0.5304  1.2471  0.1047
 4661SOL    HW114882   4.011   1.917   1.392  1.0622  1.5076  0.0120
 4661SOL    HW214883   3.880   2.011   1.412  0.3183  0.5007 -0.0695
 4662SOL     OW14884   4.763   7.018   1.040 -0.2487 -0.0983 -0.1973
 4662SOL    HW114885   4.748   7.114   1.061 -0.9592  0.1643 -1.7716
 4662SOL    HW214886   4.861   6.997   1.045  0.1329  1.1711 -1.6273
 4663SOL     OW14887   0.502   3.179   6.039 -0.3987 -0.2260  0.3200
 4663SOL    HW114888   0.462   3.090   6.058  0.4798 -0.5881  0.5279
 4663SOL    HW214889   0.596   3.167   6.006  0.1588  0.6608  1.5096
 4664SOL     OW14890   6.183   3.740   3.563  0.4238 -0.7209  0.6009
 4664SOL    HW114891   6.239   3.797   3.502 -0.5629 -1.3641 -0.9635
 4664SOL    HW214892   6.180   3.782   3.654  0.2475  1.4200 -0.3179
 4665SOL     OW14893   0.187   5.593   6.067  0.1326  0.2317 -0.3187
 4665SOL    HW114894   0.283   5.573   6.087 -0.2426 -0.0185  1.2950
 4665SOL    HW214895   0.170   5.690   6.082 -0.7476 -0.3599  3.4482
 4666SOL     OW14896   1.845   2.742   1.799  0.5977 -0.0932 -0.2213
 4666SOL    HW114897   1.819   2.772   1.891 -1.0838 -2.1872  0.0633
 4666SOL    HW214898   1.861   2.822   1.742 -2.0400  1.3690  0.8888
 4667SOL     OW14899   1.449   6.973   3.221  0.3076  0.6050 -0.0446
 4667SOL    HW114900   1.481   7.054   3.173 -0.6898  1.9078  1.3833
 4667SOL    HW214901   1.439   6.994   3.318  0.0394 -1.2502  0.3644
 4668SOL     OW14902   6.935   5.989   2.121  0.0702  0.1668  0.1748
 4668SOL    HW114903   7.001   5.961   2.191  0.2075  1.0130  0.4025
 4668SOL    HW214904   6.842   5.977   2.156  0.1064 -0.5597  0.0390
 4669SOL     OW14905   6.081   5.781   0.110 -0.1290  0.0708 -0.1836
 4669SOL    HW114906   6.125   5.692   0.124  0.9034  0.7815  1.4130
 4669SOL    HW214907   6.151   5.852   0.102 -0.9296  1.1226  1.5831
 4670SOL     OW14908   6.170   1.951   6.775  0.2474  0.4662  0.3156
 4670SOL    HW114909   6.121   2.022   6.826 -0.7902  0.3614 -0.4998
 4670SOL    HW214910   6.104   1.892   6.729  1.0825 -1.1426  1.0918
 4671SOL     OW14911   2.328   0.401   5.357 -0.2938  0.2516 -0.4950
 4671SOL    HW114912   2.365   0.336   5.291 -2.2588 -1.4826  0.0229
 4671SOL    HW214913   2.236   0.373   5.384  0.5750  0.5702  3.3693
 4672SOL     OW14914   2.909   3.662   3.112  0.6081  0.5122  0.0646
 4672SOL    HW114915   2.826   3.706   3.145  1.2764  1.3079  0.7268
 4672SOL    HW214916   2.948   3.606   3.185  0.3688 -0.3095 -0.4216
 4673SOL     OW14917   0.214   0.060   2.949 -0.5874 -0.5644  0.3254
 4673SOL    HW114918   0.133   0.031   2.898 -0.1856 -0.1817 -0.5569
 4673SOL    HW214919   0.189   0.131   3.014 -0.8314  0.1139 -0.4978
 4674SOL     OW14920   5.783   4.206   2.224  0.0805 -0.0496 -0.6638
 4674SOL    HW114921   5.785   4.248   2.314  1.0788  0.1283 -0.7505
 4674SOL    HW214922   5.812   4.110   2.231  0.2163 -0.0189 -0.7990
 4675SOL     OW14923   1.414   6.086   4.343 -0.7866  0.4190  0.5081
 4675SOL    HW114924   1.478   6.009   4.338  3.5821  3.7360 -0.1548
 4675SOL    HW214925   1.356   6.075   4.424  1.1323 -2.4886  1.6478
 4676SOL     OW14926   1.926   3.680   3.708  0.1400 -0.9601 -0.1328
 4676SOL    HW114927   2.022   3.688   3.682  0.5126  0.9930  1.5585
 4676SOL    HW214928   1.913   3.720   3.799 -2.7696  1.5735 -1.4772
 4677SOL     OW14929   1.488   3.857   2.202 -0.0330 -0.0066 -0.7759
 4677SOL    HW114930   1.500   3.954   2.224 -0.8199  0.3805 -1.9710
 4677SOL    HW214931   1.426   3.816   2.268 -1.0085  0.7183 -1.2195
 4678SOL     OW14932   5.891   0.070   0.024  0.8650  0.4383 -0.1847
 4678SOL    HW114933   5.837  -0.005  -0.014  0.5824 -0.0871  1.2134
 4678SOL    HW214934   5.930   0.123  -0.051 -0.7540  0.2355 -1.2216
 4679SOL     OW14935   2.438   2.861   0.602 -0.0363 -0.2515  0.6775
 4679SOL    HW114936   2.516   2.808   0.636  0.0530  0.3392  1.4109
 4679SOL    HW214937   2.403   2.818   0.518  1.2338 -0.3682  0.1926
 4680SOL     OW14938   4.837   4.179   5.707 -0.6787  0.0702 -0.5510
 4680SOL    HW114939   4.799   4.088   5.721  2.3472 -1.0229  1.6991
 4680SOL    HW214940   4.937   4.173   5.702 -0.4540  3.0800 -2.5834
 4681SOL     OW14941   4.604   2.142   1.012  0.0567 -0.3221 -0.0371
 4681SOL    HW114942   4.544   2.150   0.932 -0.0265  0.5128  0.0957
 4681SOL    HW214943   4.618   2.046   1.033  0.1282 -0.5551 -1.0886
 4682SOL     OW14944   2.496   6.861   0.918  0.1115 -0.0616  0.0758
 4682SOL    HW114945   2.456   6.771   0.934  0.3454 -0.1678  0.0639
 4682SOL    HW214946   2.492   6.883   0.821 -1.0368  0.4547  0.2210
 4683SOL     OW14947   1.687   1.233   5.484  1.0648 -0.4960  0.2739
 4683SOL    HW114948   1.711   1.236   5.387  0.2392  1.6122  0.0748
 4683SOL    HW214949   1.695   1.325   5.523 -2.8094 -0.3516  1.0948
 4684SOL     OW14950   3.979   5.967   6.146  0.8811 -0.1227 -0.1963
 4684SOL    HW114951   3.899   6.024   6.163  1.1290  0.2320 -0.2167
 4684SOL    HW214952   3.985   5.946   6.048 -0.5367 -2.1515  0.0778
 4685SOL     OW14953   1.558   0.794   1.419 -0.5237  0.4233 -0.4884
 4685SOL    HW114954   1.539   0.892   1.418  1.3293  0.8119 -0.4370
 4685SOL    HW214955   1.522   0.754   1.503 -0.2375  1.2983  0.0720
 4686SOL     OW14956   5.748   1.766   5.469 -0.0799  0.1292 -0.1285
 4686SOL    HW114957   5.692   1.717   5.404  1.8917  0.1691 -1.9676
 4686SOL    HW214958   5.696   1.843   5.507 -2.0167 -1.2532  0.1546
 4687SOL     OW14959   3.860   3.322   1.388  0.1353  0.3369 -0.3766
 4687SOL    HW114960   3.956   3.345   1.405  1.2043 -1.1626 -3.5465
 4687SOL    HW214961   3.806   3.406   1.380  1.2256  1.2115  0.9638
 4688SOL     OW14962   3.555   2.873   0.978 -0.3401  0.5061  0.2691
 4688SOL    HW114963   3.514   2.833   1.060  2.8256 -2.9718  0.4418
 4688SOL    HW214964   3.622   2.942   1.005  0.1232 -0.0619  0.5937
 4689SOL     OW14965   0.322   5.521   4.446 -0.0214  0.6486 -0.3729
 4689SOL    HW114966   0.235   5.537   4.399 -0.2242 -1.5785 -0.8434
 4689SOL    HW214967   0.397   5.540   4.383 -0.2215  0.3137 -0.7159
 4690SOL     OW14968   1.885   4.388   3.257  0.0629  0.5977  0.2632
 4690SOL    HW114969   1.866   4.482   3.230 -2.0140  0.4463  0.9738
 4690SOL    HW214970   1.917   4.336   3.178 -0.6149  1.4653 -0.6072
 4691SOL     OW14971   1.568   5.833   4.283  0.0611  0.3403 -0.3868
 4691SOL    HW114972   1.485   5.781   4.263  0.0390  0.7576 -1.4554
 4691SOL    HW214973   1.646   5.792   4.236  0.5648 -0.3124  0.9743
 4692SOL     OW14974   0.388   6.536   6.241 -0.3003  0.2179  0.1462
 4692SOL    HW114975   0.475   6.559   6.196 -0.7729 -0.8461 -1.3922
 4692SOL    HW214976   0.402   6.457   6.300 -0.6004 -1.2748 -1.6894
 4693SOL     OW14977   1.541   3.912   3.596 -0.2970 -0.3138  0.2744
 4693SOL    HW114978   1.618   3.878   3.541 -1.4686 -1.0008 -1.0153
 4693SOL    HW214979   1.492   3.835   3.635 -0.5965  0.0998  0.7224
 4694SOL     OW14980   5.452   2.948   6.505  0.0189  0.2545 -0.0651
 4694SOL    HW114981   5.447   2.977   6.409 -1.4751  0.2948 -0.0004
 4694SOL    HW214982   5.438   2.849   6.510  2.3553 -0.1139 -0.0529
 4695SOL     OW14983   4.831   6.628   3.580 -0.0352  0.2108 -0.0879
 4695SOL    HW114984   4.925   6.644   3.611 -0.4177  1.6705  0.3951
 4695SOL    HW214985   4.819   6.669   3.489  0.2934 -1.6244 -1.0136
 4696SOL     OW14986   0.037   5.738   7.017 -0.2764  0.3036  0.6892
 4696SOL    HW114987  -0.030   5.792   6.965  0.1049  0.9665  0.8761
 4696SOL    HW214988   0.004   5.644   7.025 -0.7791  0.4145  0.0448
 4697SOL     OW14989   1.644   1.738   3.052  0.6080 -0.1474 -0.2358
 4697SOL    HW114990   1.600   1.680   3.120  0.6319  0.2971  0.1707
 4697SOL    HW214991   1.707   1.801   3.098 -0.5926  1.2916 -0.4548
 4698SOL     OW14992   2.131   2.733   5.909 -0.2239  0.1508 -0.6947
 4698SOL    HW114993   2.196   2.776   5.971 -0.6257  2.9847 -2.0766
 4698SOL    HW214994   2.156   2.637   5.895  2.3665  0.5770  0.4560
 4699SOL     OW14995   4.928   3.405   3.477 -0.2094 -0.0215  0.1964
 4699SOL    HW114996   4.937   3.492   3.525 -0.1440 -0.5857  1.2564
 4699SOL    HW214997   4.968   3.332   3.533 -2.3725 -1.1014  0.4315
 4700SOL     OW14998   6.200   2.835   3.759  0.0509 -0.3861 -0.4206
 4700SOL    HW114999   6.139   2.823   3.680 -0.1378 -0.2026 -0.3026
 4700SOL    HW215000   6.240   2.926   3.758 -0.8677  0.0457  0.3317
 4701SOL     OW15001   6.387   3.923   4.217 -0.1113 -0.2426  0.7987
 4701SOL    HW115002   6.348   3.899   4.306  1.1323  0.3319  1.5164
 4701SOL    HW215003   6.439   3.846   4.182  1.2588  0.2616  1.6385
 4702SOL     OW15004   5.565   0.190   0.098 -0.7361 -0.4567  0.8143
 4702SOL    HW115005   5.592   0.099   0.131  1.6341 -0.2691 -0.3867
 4702SOL    HW215006   5.604   0.205   0.007 -2.6101  1.1021  0.2048
 4703SOL     OW15007   1.476   6.894   6.998 -0.1538 -0.0634  0.2437
 4703SOL    HW115008   1.546   6.894   7.069 -1.0551 -0.4117  1.1443
 4703SOL    HW215009   1.398   6.840   7.027 -0.4813 -0.3478 -1.0844
 4704SOL     OW15010   5.535   3.493   1.815  0.2775 -0.3609  0.0144
 4704SOL    HW115011   5.555   3.453   1.905 -0.5174 -0.7623  0.0183
 4704SOL    HW215012   5.456   3.554   1.822  0.3336 -0.2445 -0.3750
 4705SOL     OW15013   2.797   0.233   5.456 -0.2218 -0.0155 -0.1210
 4705SOL    HW115014   2.763   0.327   5.459 -0.3055 -0.0361 -0.3607
 4705SOL    HW215015   2.781   0.189   5.544 -0.3367  0.1416 -0.0626
 4706SOL     OW15016   1.187   1.170   0.535  0.3334  0.0446  0.2761
 4706SOL    HW115017   1.230   1.141   0.620 -0.3333 -1.4043  0.1578
 4706SOL    HW215018   1.190   1.269   0.528  2.5939  0.0616  0.8070
 4707SOL     OW15019   0.895   5.155   6.090  0.3362  0.2518 -0.1366
 4707SOL    HW115020   0.964   5.139   6.019 -1.5619 -2.8560 -1.5146
 4707SOL    HW215021   0.937   5.201   6.168  3.3562  0.6063 -1.8188
 4708SOL     OW15022   2.446   4.897   1.006 -0.1607 -0.1496 -0.0921
 4708SOL    HW115023   2.421   4.986   1.043  0.0417  0.1549 -0.6752
 4708SOL    HW215024   2.385   4.827   1.044 -1.2184  0.4267 -0.6743
 4709SOL     OW15025   4.695   1.855   6.321  0.0280 -0.0188 -0.4298
 4709SOL    HW115026   4.656   1.911   6.249 -0.2744  0.4019  0.0561
 4709SOL    HW215027   4.789   1.831   6.298 -1.2348 -3.3030 -2.9599
 4710SOL     OW15028   5.643   4.632   0.823 -0.2430 -0.2997  0.1563
 4710SOL    HW115029   5.632   4.685   0.739 -0.5710 -1.6418 -0.6824
 4710SOL    HW215030   5.553   4.598   0.853  0.1106 -1.5795 -0.1543
 4711SOL     OW15031   6.343   6.485   3.849 -0.1435 -0.1505 -0.3936
 4711SOL    HW115032   6.436   6.449   3.855  0.4127  1.0704 -1.2183
 4711SOL    HW215033   6.300   6.451   3.766  0.1950  0.6264 -0.9004
 4712SOL     OW15034   0.480   6.255   1.756  0.1967  0.9547 -1.2996
 4712SOL    HW115035   0.557   6.211   1.710  0.6999 -0.5390  0.7809
 4712SOL    HW215036   0.402   6.193   1.755  0.5136  0.4543  0.5651
 4713SOL     OW15037   0.950   4.994   0.441 -0.3876 -0.2154 -0.8186
 4713SOL    HW115038   1.031   4.989   0.384  0.6378  2.5113  0.2155
 4713SOL    HW215039   0.976   4.984   0.537 -1.2132  0.8491 -0.4619
 4714SOL     OW15040   1.178   0.774   5.435  0.0532 -0.5545 -0.3926
 4714SOL    HW115041   1.166   0.873   5.444 -0.6436 -0.7835  1.5456
 4714SOL    HW215042   1.110   0.738   5.372  0.1453  0.1525 -0.9082
 4715SOL     OW15043   5.342   6.017   4.238 -0.4500  0.3110 -0.4735
 4715SOL    HW115044   5.295   6.035   4.151  0.4648 -1.6546 -1.4229
 4715SOL    HW215045   5.384   6.102   4.271  1.2560  0.6307 -3.2217
 4716SOL     OW15046   0.097   4.415   6.299 -0.7044  0.5617 -0.1463
 4716SOL    HW115047   0.138   4.507   6.296 -0.9301  0.7664  2.0448
 4716SOL    HW215048   0.027   4.412   6.370  0.4228 -1.7598  0.9399
 4717SOL     OW15049   3.926   0.502   0.580 -0.3225 -0.4147  0.1336
 4717SOL    HW115050   3.869   0.481   0.500 -1.6717  2.4282  0.2468
 4717SOL    HW215051   3.994   0.571   0.556 -0.2205 -0.1029  1.2585
 4718SOL     OW15052   5.510   5.352   2.214  0.0990  0.6315 -0.1856
 4718SOL    HW115053   5.534   5.262   2.252 -1.1491  0.7738  1.0402
 4718SOL    HW215054   5.434   5.342   2.150 -0.7184  0.9104  0.7182
 4719SOL     OW15055   5.759   3.008   4.250  0.0498 -0.0110  0.3788
 4719SOL    HW115056   5.753   2.944   4.327 -0.5456 -0.5474 -0.0986
 4719SOL    HW215057   5.682   3.072   4.255 -1.2636 -1.3973 -0.9279
 4720SOL     OW15058   1.539   6.338   5.056  0.2437  0.4865  0.0376
 4720SOL    HW115059   1.567   6.264   4.995 -0.7759 -3.0237  3.4081
 4720SOL    HW215060   1.577   6.425   5.024  2.2679 -1.5619 -3.7050
 4721SOL     OW15061   6.814   5.638   5.770 -0.0308 -0.2761 -0.7596
 4721SOL    HW115062   6.829   5.694   5.689 -3.0689 -0.1716 -1.3777
 4721SOL    HW215063   6.715   5.627   5.785  0.4418 -2.8785  1.1504
 4722SOL     OW15064   1.128   4.103   2.969 -0.0792 -0.0371  0.1921
 4722SOL    HW115065   1.209   4.076   2.918  0.5884  0.6022  0.8932
 4722SOL    HW215066   1.125   4.054   3.056 -0.8401 -0.5949 -0.1328
 4723SOL     OW15067   0.823   3.544   2.561 -0.0409 -0.2498 -0.7320
 4723SOL    HW115068   0.825   3.461   2.616  1.0221 -0.5138 -1.1486
 4723SOL    HW215069   0.731   3.558   2.526 -0.3727 -0.9162 -0.1509
 4724SOL     OW15070   3.566   5.443   4.757  0.2402  0.4243  0.2867
 4724SOL    HW115071   3.639   5.409   4.698 -0.8296  0.2730 -0.9928
 4724SOL    HW215072   3.604   5.504   4.826  1.9184 -1.5627  1.2459
 4725SOL     OW15073   5.103   1.863   0.105 -0.0285  0.6470 -0.5532
 4725SOL    HW115074   5.089   1.866   0.204  0.0377 -2.2360 -0.3723
 4725SOL    HW215075   5.194   1.828   0.086 -0.5780 -0.2715 -1.6037
 4726SOL     OW15076   2.024   5.914   6.377  0.3405  0.3130  0.4981
 4726SOL    HW115077   1.995   6.010   6.376 -0.1536  0.1836 -1.4749
 4726SOL    HW215078   2.123   5.910   6.385  0.4922  1.0605 -0.7364
 4727SOL     OW15079   0.768   6.259   3.307  0.0179 -0.7424 -0.6162
 4727SOL    HW115080   0.734   6.343   3.264  0.3115 -1.0231 -1.4110
 4727SOL    HW215081   0.787   6.191   3.237  1.6148 -0.8105 -0.1535
 4728SOL     OW15082   4.339   2.658   5.328 -0.5497 -0.1313  0.1244
 4728SOL    HW115083   4.439   2.662   5.328 -0.4101 -2.3985  0.3753
 4728SOL    HW215084   4.308   2.592   5.259 -1.9276  0.8639 -0.2692
 4729SOL     OW15085   3.488   6.738   1.992 -0.0014 -0.7622  0.4323
 4729SOL    HW115086   3.479   6.700   1.900  0.7938 -1.5801  0.6746
 4729SOL    HW215087   3.463   6.835   1.991 -1.2961 -1.0899 -0.3667
 4730SOL     OW15088   5.943   1.301   6.226  0.7160 -0.7362 -0.6144
 4730SOL    HW115089   5.954   1.400   6.221  1.4613 -0.7306  0.7956
 4730SOL    HW215090   5.954   1.261   6.135 -0.4508  0.5450 -1.3443
 4731SOL     OW15091   6.229   2.884   2.625 -0.0857 -0.1273  0.3422
 4731SOL    HW115092   6.174   2.865   2.707 -0.2063  1.1276  0.5595
 4731SOL    HW215093   6.192   2.833   2.548 -0.3765 -0.8033  0.9153
 4732SOL     OW15094   3.794   0.114   3.652  0.3786 -0.0062  0.1519
 4732SOL    HW115095   3.694   0.121   3.650  0.3954  0.1994  0.0207
 4732SOL    HW215096   3.826   0.117   3.746  0.0489 -3.1050  0.4820
 4733SOL     OW15097   4.007   0.359   5.461  0.3174 -0.0680  0.0200
 4733SOL    HW115098   3.912   0.389   5.470 -0.1600 -1.4309 -0.2122
 4733SOL    HW215099   4.010   0.274   5.408  1.7898  0.6102 -1.0778
 4734SOL     OW15100   6.712   6.677   6.730 -0.1479 -0.3998  0.3119
 4734SOL    HW115101   6.687   6.733   6.808 -0.9447 -0.8944  0.4238
 4734SOL    HW215102   6.630   6.631   6.694  0.0828  0.3065 -1.2054
 4735SOL     OW15103   3.838   4.993   1.600 -0.2445  0.7308 -0.3759
 4735SOL    HW115104   3.840   5.020   1.504  0.3186 -0.3779 -0.6922
 4735SOL    HW215105   3.747   4.959   1.623 -0.0253 -0.2583 -0.8986
 4736SOL     OW15106   5.352   1.235   3.201 -0.0294 -0.0692 -0.2411
 4736SOL    HW115107   5.295   1.301   3.152 -0.4701  0.2849  0.7217
 4736SOL    HW215108   5.449   1.251   3.179 -0.2769 -1.0469 -2.3483
 4737SOL     OW15109   4.638   5.484   1.581 -0.0796  0.1148  0.1249
 4737SOL    HW115110   4.665   5.572   1.620  2.0637 -0.6755  0.5442
 4737SOL    HW215111   4.627   5.417   1.654 -1.7562 -0.0051 -0.1901
 4738SOL     OW15112   2.570   2.785   6.774 -0.4421 -0.3031 -0.2941
 4738SOL    HW115113   2.553   2.690   6.803 -1.9274 -0.4593 -1.5232
 4738SOL    HW215114   2.635   2.785   6.698 -0.9833 -0.4245 -0.7679
 4739SOL     OW15115   0.018   1.441   2.304 -0.3383 -0.6889 -0.5304
 4739SOL    HW115116  -0.036   1.497   2.366  1.7141 -0.2377  0.9654
 4739SOL    HW215117  -0.006   1.345   2.317  0.3386 -0.6538  1.3648
 4740SOL     OW15118   6.472   2.321   2.590  0.1553  1.0330 -0.0831
 4740SOL    HW115119   6.517   2.359   2.509  0.2530  1.2448  0.0700
 4740SOL    HW215120   6.540   2.272   2.645  0.0048  0.5262 -0.3448
 4741SOL     OW15121   5.469   1.102   1.727  0.4165 -0.3425 -0.2252
 4741SOL    HW115122   5.418   1.144   1.651 -1.9833 -0.8377  1.0108
 4741SOL    HW215123   5.413   1.105   1.810  2.2431 -1.4431  1.1153
 4742SOL     OW15124   6.604   5.788   0.216 -0.5605  0.0649 -0.2607
 4742SOL    HW115125   6.598   5.801   0.118  0.1243  0.7463 -0.2184
 4742SOL    HW215126   6.604   5.690   0.237  0.9845 -0.1405 -1.0690
 4743SOL     OW15127   3.114   6.666   6.575  0.0138 -0.0387 -0.6068
 4743SOL    HW115128   3.121   6.590   6.511  1.9564  0.5160 -1.1306
 4743SOL    HW215129   3.199   6.674   6.627  0.3019  2.3326 -1.2802
 4744SOL     OW15130   0.982   1.341   0.690  0.7621  0.1050  0.2130
 4744SOL    HW115131   0.917   1.407   0.727 -0.2295  0.8597 -2.5887
 4744SOL    HW215132   0.932   1.270   0.640  2.0015  1.0062 -2.4833
 4745SOL     OW15133   1.810   4.364   0.722  0.0029  0.2461  0.2525
 4745SOL    HW115134   1.770   4.273   0.726 -0.3012  0.2997 -1.0597
 4745SOL    HW215135   1.752   4.423   0.666  1.9181  0.2930 -1.8319
 4746SOL     OW15136   0.024   2.381   5.311 -0.3210 -0.2649  0.2957
 4746SOL    HW115137   0.034   2.290   5.353  2.3706 -0.2097 -0.0251
 4746SOL    HW215138   0.007   2.449   5.383  2.4377 -0.4241  1.2362
 4747SOL     OW15139   2.002   3.575   0.134 -0.0472 -0.3324 -0.5615
 4747SOL    HW115140   1.933   3.623   0.080 -1.5309  1.3116  2.5146
 4747SOL    HW215141   1.959   3.533   0.213  2.4563  1.0690  1.7173
 4748SOL     OW15142   1.920   1.492   1.717 -0.2148  0.0406 -0.3165
 4748SOL    HW115143   1.941   1.560   1.647 -1.6472  1.2203  0.3475
 4748SOL    HW215144   1.933   1.532   1.808  0.2983 -1.0450  0.1119
 4749SOL     OW15145   0.080   0.741   6.107 -0.2915 -0.2348 -0.1648
 4749SOL    HW115146   0.121   0.814   6.162 -1.4044  0.6340 -0.4537
 4749SOL    HW215147   0.141   0.719   6.031 -0.3591  1.0782 -0.6227
 4750SOL     OW15148   6.907   2.408   5.552 -0.3643 -0.3450  0.6513
 4750SOL    HW115149   6.824   2.383   5.601 -0.3589  0.0699  0.8755
 4750SOL    HW215150   6.983   2.351   5.584 -0.0526  0.8292  2.1345
 4751SOL     OW15151   2.051   6.506   0.066 -0.6024  0.0453  0.2933
 4751SOL    HW115152   2.075   6.516  -0.031  1.4210  0.9140  0.8300
 4751SOL    HW215153   1.963   6.551   0.084 -0.6219  0.5551 -0.9861
 4752SOL     OW15154   2.930   6.369   2.242 -0.3150 -0.2316  0.2018
 4752SOL    HW115155   2.859   6.314   2.286 -1.4582  0.5392 -0.5935
 4752SOL    HW215156   2.890   6.456   2.211  1.0807  0.3958  0.0776
 4753SOL     OW15157   3.072   0.513   0.883 -0.3998  0.2525  0.2265
 4753SOL    HW115158   3.006   0.582   0.913 -0.1579  0.9713 -0.8409
 4753SOL    HW215159   3.158   0.557   0.859 -0.1547 -0.4460 -0.2097
 4754SOL     OW15160   3.523   6.173   1.885 -0.3611 -0.4779  0.2056
 4754SOL    HW115161   3.427   6.170   1.856  0.0816 -0.6883 -1.3104
 4754SOL    HW215162   3.537   6.107   1.960 -1.4591 -0.1930  0.6774
 4755SOL     OW15163   0.699   5.104   0.420 -0.4107  0.7996  0.0103
 4755SOL    HW115164   0.785   5.054   0.412 -0.7347  0.1867  0.2586
 4755SOL    HW215165   0.717   5.202   0.426  0.3097  0.6293  0.7970
 4756SOL     OW15166   2.999   1.109   0.727  0.4713  0.6813  0.7126
 4756SOL    HW115167   3.088   1.141   0.694  1.6992 -2.0488  1.1214
 4756SOL    HW215168   3.012   1.034   0.792 -2.1520  0.0817  0.6633
 4757SOL     OW15169   4.471   2.218   0.024  0.1590  0.6036 -0.1848
 4757SOL    HW115170   4.437   2.292  -0.034 -0.9435 -0.8033 -1.4207
 4757SOL    HW215171   4.410   2.139   0.016  0.7716 -0.1313  1.8248
 4758SOL     OW15172   2.534   5.895   0.909 -0.8868  0.2606  0.3240
 4758SOL    HW115173   2.542   5.989   0.943 -1.6292 -0.2384  2.0266
 4758SOL    HW215174   2.591   5.883   0.828  0.9705  1.5698  1.3746
 4759SOL     OW15175   0.775   1.468   1.208  0.2341 -0.6942  0.2386
 4759SOL    HW115176   0.687   1.502   1.240  0.3053 -1.5638  1.4523
 4759SOL    HW215177   0.774   1.368   1.206  1.2156 -0.7235  0.4059
 4760SOL     OW15178   2.038   2.044   4.976 -0.4923  0.4141 -0.4386
 4760SOL    HW115179   2.070   2.092   5.058 -1.3738 -2.3917  1.6873
 4760SOL    HW215180   2.091   1.960   4.963 -1.4769 -0.0358 -1.8020
 4761SOL     OW15181   4.888   2.923   0.270 -0.0823 -0.1467  0.0251
 4761SOL    HW115182   4.873   2.836   0.316 -0.4473 -0.0466  0.0986
 4761SOL    HW215183   4.869   2.913   0.172  0.6425 -0.3462 -0.1017
 4762SOL     OW15184   3.282   4.116   5.493  0.1026 -0.2431 -0.1479
 4762SOL    HW115185   3.272   4.054   5.415  0.0122  1.5928 -1.6873
 4762SOL    HW215186   3.191   4.145   5.525  0.0043 -2.9037  2.3780
 4763SOL     OW15187   3.716   4.132   5.257 -0.0147  0.6156 -0.2913
 4763SOL    HW115188   3.718   4.088   5.346 -0.6612  0.0770 -0.5355
 4763SOL    HW215189   3.794   4.100   5.202  0.2415  0.7587 -0.0111
 4764SOL     OW15190   1.857   5.691   1.998 -0.1720 -0.1595 -0.4607
 4764SOL    HW115191   1.871   5.742   1.912 -0.0977 -1.3572 -1.1789
 4764SOL    HW215192   1.863   5.593   1.980  1.8909 -0.4279  1.2712
 4765SOL     OW15193   5.541   6.715   1.350 -0.2150  0.0315  0.3158
 4765SOL    HW115194   5.474   6.744   1.418 -1.5025  0.4661 -1.0838
 4765SOL    HW215195   5.532   6.772   1.268  1.7588 -0.0269  0.0116
 4766SOL     OW15196   0.955   0.579   0.021  0.2923 -0.5364  1.0732
 4766SOL    HW115197   1.002   0.648   0.074  0.1383  0.1837  0.2888
 4766SOL    HW215198   0.995   0.574  -0.070 -1.5213  0.5525  0.1612
 4767SOL     OW15199   2.942   3.836   0.462 -0.4858 -0.3707  0.3626
 4767SOL    HW115200   2.988   3.925   0.467 -0.6690 -0.3348  1.6625
 4767SOL    HW215201   2.847   3.846   0.493 -0.6805 -0.9098 -0.0489
 4768SOL     OW15202   1.756   5.561   1.623 -0.8209  0.3646  0.4166
 4768SOL    HW115203   1.856   5.566   1.611 -0.6121 -0.2102  1.7223
 4768SOL    HW215204   1.720   5.653   1.637 -0.7972  0.8279 -2.1121
 4769SOL     OW15205   1.595   0.132   1.807 -0.4688  0.0690 -0.2205
 4769SOL    HW115206   1.570   0.164   1.716 -1.7483 -0.1239  0.0414
 4769SOL    HW215207   1.537   0.055   1.832 -0.8634  0.7860  1.1753
 4770SOL     OW15208   0.593   4.304   1.935  0.5076 -0.0535 -0.9160
 4770SOL    HW115209   0.562   4.272   2.025  0.9939 -0.0209 -0.7331
 4770SOL    HW215210   0.624   4.399   1.943 -1.6365  0.7662 -1.6053
 4771SOL     OW15211   1.236   2.052   0.324  0.4738 -0.2163  0.2200
 4771SOL    HW115212   1.255   2.022   0.231 -0.9528 -1.4609  0.2990
 4771SOL    HW215213   1.139   2.043   0.343  0.7544 -0.0964  1.8775
 4772SOL     OW15214   3.511   0.119   3.702  0.1865  0.3611 -0.0365
 4772SOL    HW115215   3.539   0.096   3.796 -1.7691 -0.5182  0.3932
 4772SOL    HW215216   3.428   0.068   3.680  0.3690  0.9017 -2.1151
 4773SOL     OW15217   6.876   6.876   2.405 -0.0171  0.2000 -0.1565
 4773SOL    HW115218   6.850   6.973   2.403 -1.3832 -0.0795  1.5760
 4773SOL    HW215219   6.975   6.868   2.407  0.2126  1.4636 -2.7239
 4774SOL     OW15220   3.345   3.906   5.286 -0.1183  0.3057  0.0522
 4774SOL    HW115221   3.381   3.891   5.195  2.5997 -2.1699  1.3836
 4774SOL    HW215222   3.419   3.901   5.353 -2.0030  2.0119  2.4638
 4775SOL     OW15223   5.777   3.141   0.092  0.1053  0.5079 -0.0907
 4775SOL    HW115224   5.832   3.201   0.033  0.8065 -0.8437 -0.8590
 4775SOL    HW215225   5.799   3.159   0.187  0.0196  1.7337 -0.2871
 4776SOL     OW15226   5.056   4.493   6.233 -0.0601  0.5215  0.0124
 4776SOL    HW115227   5.138   4.542   6.205 -0.5904  0.9781 -0.7849
 4776SOL    HW215228   5.058   4.478   6.332  1.3350 -0.1488 -0.0935
 4777SOL     OW15229   2.663   0.998   2.960 -0.2328 -0.0493  0.2533
 4777SOL    HW115230   2.691   1.053   2.883 -1.8335 -0.3796 -0.6074
 4777SOL    HW215231   2.696   1.040   3.045 -0.6147  1.7062 -0.4271
 4778SOL     OW15232   6.546   6.792   3.084  0.4508 -0.2843 -0.0674
 4778SOL    HW115233   6.451   6.768   3.062  1.1882 -1.2881 -2.5268
 4778SOL    HW215234   6.604   6.774   3.004  2.6073  1.0604  1.1052
 4779SOL     OW15235   3.445   1.635   1.534 -0.2492  0.1652 -0.4031
 4779SOL    HW115236   3.400   1.699   1.596  2.6902  1.8135  0.2053
 4779SOL    HW215237   3.466   1.550   1.583 -3.5502 -1.1529 -1.0284
 4780SOL     OW15238   4.608   1.587   2.392 -0.1809 -0.1559 -0.0310
 4780SOL    HW115239   4.663   1.536   2.459 -0.1598 -2.3194 -1.6025
 4780SOL    HW215240   4.620   1.547   2.301 -1.8673  1.3729 -0.9960
 4781SOL     OW15241   7.002   1.713   0.424 -0.3285  0.0547 -0.2629
 4781SOL    HW115242   7.044   1.789   0.475 -2.1707 -0.2697  1.8966
 4781SOL    HW215243   6.970   1.746   0.335 -0.5964  1.6835  0.4042
 4782SOL     OW15244   1.251   0.592   2.387 -0.4219  0.5174  0.1845
 4782SOL    HW115245   1.197   0.660   2.436  0.9251  2.0105 -0.3243
 4782SOL    HW215246   1.348   0.609   2.401 -0.0278 -1.3499  0.0651
 4783SOL     OW15247   0.076   3.713   2.352 -0.0999  0.2838 -0.0260
 4783SOL    HW115248  -0.013   3.759   2.339 -0.7687 -0.8178  0.5541
 4783SOL    HW215249   0.122   3.706   2.264 -0.6783  0.6757 -0.3716
 4784SOL     OW15250   5.476   2.921   2.556  0.1251  0.0919  0.3010
 4784SOL    HW115251   5.471   2.821   2.562  0.1746  0.0653 -0.1217
 4784SOL    HW215252   5.403   2.955   2.498 -0.3920  0.3691  1.0972
 4785SOL     OW15253   2.641   1.990   3.530 -0.2040  0.1250 -0.1146
 4785SOL    HW115254   2.713   2.050   3.565 -1.9065  2.0421  0.2763
 4785SOL    HW215255   2.680   1.930   3.460  1.8997  0.5848  0.5636
 4786SOL     OW15256   3.665   1.658   6.080 -0.2620 -0.0909 -0.0471
 4786SOL    HW115257   3.717   1.622   6.157 -0.6860  1.2934  0.9228
 4786SOL    HW215258   3.727   1.703   6.015 -0.1483  1.0741  0.8334
 4787SOL     OW15259   4.412   6.379   0.264 -0.1143 -0.1203  0.8669
 4787SOL    HW115260   4.390   6.343   0.173  0.5170  2.3195 -0.3374
 4787SOL    HW215261   4.483   6.449   0.256  0.9304 -0.7673  3.4363
 4788SOL     OW15262   1.862   0.011   5.731 -0.4935 -0.3193 -0.0704
 4788SOL    HW115263   1.909  -0.031   5.654  0.0905 -0.2940  0.2619
 4788SOL    HW215264   1.788   0.069   5.698  0.1472  0.1902 -0.6427
 4789SOL     OW15265   4.629   0.072   2.722 -0.4097  0.2409 -0.1297
 4789SOL    HW115266   4.544   0.097   2.676 -0.3409 -0.6780 -0.7759
 4789SOL    HW215267   4.654  -0.021   2.697  1.4895  0.9406 -1.0244
 4790SOL     OW15268   4.775   0.999   5.252  0.3714 -0.4565 -0.2490
 4790SOL    HW115269   4.838   0.977   5.177  0.5105 -1.0868  0.0403
 4790SOL    HW215270   4.702   1.058   5.219 -0.1646 -1.5770 -1.1549
 4791SOL     OW15271   0.767   2.902   0.303 -0.2942 -0.0611  0.0929
 4791SOL    HW115272   0.829   2.847   0.248  0.4057  1.6117 -0.8756
 4791SOL    HW215273   0.676   2.900   0.263 -0.2511 -0.4334  0.0118
 4792SOL     OW15274   6.795   5.493   1.136  0.0423 -0.0650 -0.5355
 4792SOL    HW115275   6.859   5.443   1.078  1.3101  2.5198 -1.5049
 4792SOL    HW215276   6.790   5.589   1.106  2.8022  2.2620  5.0090
 4793SOL     OW15277   6.453   1.034   0.035  0.1477  0.2518 -0.2073
 4793SOL    HW115278   6.407   0.999   0.117  0.1204  0.1997 -0.2452
 4793SOL    HW215279   6.496   0.959  -0.015 -1.2733  0.0330 -1.1518
 4794SOL     OW15280   2.376   1.888   0.661  0.2850 -0.3141 -0.1955
 4794SOL    HW115281   2.338   1.979   0.646 -0.2349 -0.5588 -0.4073
 4794SOL    HW215282   2.444   1.867   0.591  1.9451  0.7109  1.0313
 4795SOL     OW15283   3.951   2.996   4.036 -0.8122  0.4314  0.0444
 4795SOL    HW115284   3.890   2.964   4.109  0.2335 -0.5669  0.5191
 4795SOL    HW215285   3.971   2.920   3.974 -2.1963  1.4139 -1.7166
 4796SOL     OW15286   1.053   3.715   1.834  0.2205 -0.1558 -0.1606
 4796SOL    HW115287   0.974   3.775   1.820  0.8694  0.8350  0.2740
 4796SOL    HW215288   1.022   3.621   1.848 -0.9335  0.3340  0.7457
 4797SOL     OW15289   2.598   5.609   3.598  0.4950  0.2685 -0.1258
 4797SOL    HW115290   2.683   5.649   3.633  0.6705 -1.0537  1.0457
 4797SOL    HW215291   2.546   5.570   3.675 -1.2497  1.1557 -0.7908
 4798SOL     OW15292   5.641   1.268   1.022  0.8438  0.1239  0.4350
 4798SOL    HW115293   5.557   1.280   0.970  0.8076  1.5448  0.7799
 4798SOL    HW215294   5.619   1.229   1.112  0.7879 -1.2721 -0.1571
 4799SOL     OW15295   6.356   2.914   0.340  0.5325  0.2175 -0.0320
 4799SOL    HW115296   6.257   2.916   0.346  0.5828  2.5565  1.1565
 4799SOL    HW215297   6.384   2.847   0.272 -1.7718 -1.6213  0.6789
 4800SOL     OW15298   2.732   0.145   1.769 -0.4956  0.0806 -0.7630
 4800SOL    HW115299   2.698   0.139   1.863  1.3528 -0.3014 -0.0597
 4800SOL    HW215300   2.664   0.108   1.706 -1.3772 -0.5735  0.5307
 4801SOL     OW15301   2.240   6.028   4.301  0.4867  0.2391 -0.3745
 4801SOL    HW115302   2.203   5.936   4.300 -0.9487  0.8022 -1.5428
 4801SOL    HW215303   2.299   6.039   4.381  1.2691 -1.8887 -0.5922
 4802SOL     OW15304   3.630   6.906   0.606 -0.2483  0.1681 -0.1350
 4802SOL    HW115305   3.689   6.843   0.657  1.0311  1.5166  0.0914
 4802SOL    HW215306   3.680   6.944   0.529 -1.3295  0.1907 -0.8505
 4803SOL     OW15307   6.782   2.872   1.913  0.4682 -0.1129 -0.0689
 4803SOL    HW115308   6.683   2.866   1.904  0.5166  0.6542 -1.4124
 4803SOL    HW215309   6.825   2.813   1.844  0.9787 -1.6539  1.5001
 4804SOL     OW15310   4.266   5.831   4.566  0.0641  0.3128  0.3067
 4804SOL    HW115311   4.283   5.806   4.471 -0.8550 -2.6628  0.8339
 4804SOL    HW215312   4.171   5.861   4.576 -1.2833 -3.5472  0.8546
 4805SOL     OW15313   0.150   1.437   4.380 -0.8178 -0.3017  0.1594
 4805SOL    HW115314   0.131   1.476   4.290 -0.4465 -1.9229 -0.6571
 4805SOL    HW215315   0.104   1.349   4.388 -0.5481 -0.3353  1.4303
 4806SOL     OW15316   2.877   0.310   4.483  0.6382  0.6049  0.6026
 4806SOL    HW115317   2.807   0.316   4.555  0.0312 -1.4486  0.2344
 4806SOL    HW215318   2.899   0.402   4.451 -1.8271  1.3467  0.8175
 4807SOL     OW15319   0.413   2.163   2.775 -0.7046  0.6165  0.0268
 4807SOL    HW115320   0.500   2.200   2.742 -0.4066 -0.1393 -0.0554
 4807SOL    HW215321   0.411   2.169   2.875  1.8325 -4.2099  0.6340
 4808SOL     OW15322   4.807   4.340   0.660 -0.3408 -0.1484  0.6029
 4808SOL    HW115323   4.760   4.410   0.606 -1.4620  0.0250  1.7439
 4808SOL    HW215324   4.905   4.359   0.662 -0.3546  0.1349 -0.9029
 4809SOL     OW15325   3.995   1.344   1.405 -0.1936  0.7619 -0.2209
 4809SOL    HW115326   3.928   1.272   1.422  1.3207 -0.3092  1.5319
 4809SOL    HW215327   4.033   1.376   1.491  0.6106  2.2865 -1.0913
 4810SOL     OW15328   3.599   0.146   2.647  0.1245  0.2331 -0.4022
 4810SOL    HW115329   3.583   0.052   2.678 -0.0140  0.6664  0.9138
 4810SOL    HW215330   3.695   0.170   2.662 -0.0419  0.5934  0.0982
 4811SOL     OW15331   2.329   0.037   3.305 -0.1703 -0.3403  0.0664
 4811SOL    HW115332   2.233   0.010   3.313 -0.5755  0.8303 -0.6374
 4811SOL    HW215333   2.374   0.028   3.394 -1.2037  0.1247  0.6476
 4812SOL     OW15334   1.629   5.411   0.216  0.2078 -0.4821  0.1572
 4812SOL    HW115335   1.606   5.509   0.222  0.6286 -0.1412 -2.4991
 4812SOL    HW215336   1.545   5.359   0.196 -0.3424 -0.9852  3.2531
 4813SOL     OW15337   1.436   4.196   3.985  0.2600 -0.6385 -0.3812
 4813SOL    HW115338   1.364   4.222   3.921 -0.5055  0.6347  0.9386
 4813SOL    HW215339   1.421   4.102   4.015 -2.3399  0.3128  1.6710
 4814SOL     OW15340   5.199   2.578   2.808  0.2803 -0.4187 -0.2945
 4814SOL    HW115341   5.104   2.585   2.778  0.3707  0.9778 -0.3588
 4814SOL    HW215342   5.246   2.665   2.790  1.1537 -0.5577  1.1008
 4815SOL     OW15343   5.342   4.847   3.156  0.0719  0.2081  0.1102
 4815SOL    HW115344   5.370   4.893   3.072 -1.5449 -0.2213 -0.6911
 4815SOL    HW215345   5.282   4.770   3.133  0.5080 -0.6126  1.5990
 4816SOL     OW15346   0.253   1.202   0.655  0.8231  0.0901 -0.3040
 4816SOL    HW115347   0.328   1.143   0.629 -0.3654 -0.9653 -1.4565
 4816SOL    HW215348   0.180   1.196   0.587 -1.0217 -0.2315  1.5995
 4817SOL     OW15349   1.707   0.934   5.154  0.2747  0.2977 -0.2750
 4817SOL    HW115350   1.670   0.845   5.181  1.4489  0.6700  2.9568
 4817SOL    HW215351   1.648   1.007   5.192  1.6054  0.8581  0.7942
 4818SOL     OW15352   0.545   1.124   3.143 -0.0580  0.0907 -0.6587
 4818SOL    HW115353   0.505   1.041   3.104 -2.0890  0.1176  1.1484
 4818SOL    HW215354   0.486   1.157   3.217  1.9935  1.7647  0.3205
 4819SOL     OW15355   2.232   0.618   4.462 -0.1493  0.7512  0.4511
 4819SOL    HW115356   2.177   0.657   4.389  1.3879  0.5394 -0.8681
 4819SOL    HW215357   2.185   0.538   4.500 -1.8602  1.9926  1.0660
 4820SOL     OW15358   4.996   6.740   2.388  0.0372  0.6134  0.2612
 4820SOL    HW115359   4.977   6.817   2.448 -1.0424  1.0506 -0.6130
 4820SOL    HW215360   4.966   6.655   2.432  1.0473  0.7004  1.1410
 4821SOL     OW15361   1.164   4.781   5.225  0.1596  0.0157 -0.2335
 4821SOL    HW115362   1.233   4.840   5.185  1.4290 -0.0007  1.8078
 4821SOL    HW215363   1.086   4.836   5.256  1.3017  0.6832  1.5951
 4822SOL     OW15364   6.483   0.938   0.451 -0.0111 -0.5322 -0.1999
 4822SOL    HW115365   6.469   0.886   0.535 -0.6678  1.2934  0.8753
 4822SOL    HW215366   6.579   0.963   0.442 -0.2336  1.0448  1.1842
 4823SOL     OW15367   4.101   1.789   4.813  0.2577  0.0037 -0.0655
 4823SOL    HW115368   4.118   1.690   4.818  1.4724  0.2425  1.5474
 4823SOL    HW215369   4.073   1.813   4.720 -0.1397 -1.8610 -0.4757
 4824SOL     OW15370   5.546   4.431   0.318 -0.2335  0.4050  0.1150
 4824SOL    HW115371   5.606   4.351   0.314  1.6104  1.7398 -0.6417
 4824SOL    HW215372   5.513   4.452   0.226 -0.6700  0.5572  0.3043
 4825SOL     OW15373   6.431   2.553   4.274  0.0418  0.0186  0.0189
 4825SOL    HW115374   6.354   2.504   4.234  0.5367 -1.6388  1.0108
 4825SOL    HW215375   6.516   2.523   4.231  0.1677  1.9768 -1.2028
 4826SOL     OW15376   6.286   3.511   1.529  0.0005 -0.0407  0.5155
 4826SOL    HW115377   6.385   3.522   1.516  0.2637  0.9469  2.8068
 4826SOL    HW215378   6.241   3.598   1.509 -0.7738 -1.0084 -2.5852
 4827SOL     OW15379   2.826   1.372   1.772  0.2969  0.0617 -0.3664
 4827SOL    HW115380   2.875   1.445   1.725 -0.7313  1.1869  0.2499
 4827SOL    HW215381   2.805   1.299   1.708  0.7581  0.6120 -1.1585
 4828SOL     OW15382   3.005   6.840   3.523 -0.8004  0.4412  0.1431
 4828SOL    HW115383   2.999   6.919   3.583 -1.3067 -0.5545  1.4657
 4828SOL    HW215384   2.918   6.829   3.474 -1.2901 -0.1587  1.1207
 4829SOL     OW15385   5.570   6.530   4.835  0.0639 -0.1466 -0.2979
 4829SOL    HW115386   5.579   6.606   4.899 -0.6572 -0.9544  0.8100
 4829SOL    HW215387   5.476   6.526   4.801 -0.1304 -0.9973  0.2845
 4830SOL     OW15388   2.486   5.202   2.347  0.4291 -0.1964  0.6609
 4830SOL    HW115389   2.531   5.268   2.286 -1.3018  3.0860  2.6496
 4830SOL    HW215390   2.554   5.161   2.408  1.6549 -0.9153 -1.0870
 4831SOL     OW15391   2.019   3.030   3.305 -0.0077  0.0743 -0.2049
 4831SOL    HW115392   2.041   2.977   3.387 -1.6736 -1.2255 -0.5375
 4831SOL    HW215393   1.962   3.108   3.330  1.1368  0.8414  0.0889
 4832SOL     OW15394   2.769   1.208   1.574 -0.1870 -0.3667  0.2655
 4832SOL    HW115395   2.781   1.296   1.527 -0.6963  0.4343  1.5588
 4832SOL    HW215396   2.676   1.175   1.559  0.2336 -1.1023 -0.8568
 4833SOL     OW15397   1.465   4.364   2.631  0.4875  0.3031  0.1119
 4833SOL    HW115398   1.494   4.417   2.552  1.0968  1.8715  1.3373
 4833SOL    HW215399   1.451   4.425   2.709 -0.8411 -1.0987  1.0324
 4834SOL     OW15400   4.935   5.907   0.981 -0.4986  0.2489 -0.5431
 4834SOL    HW115401   5.000   5.933   0.910  2.1946  0.5801  1.8686
 4834SOL    HW215402   4.917   5.809   0.975 -1.3658  0.4687 -2.3966
 4835SOL     OW15403   0.433   5.807   3.935 -0.4347  0.2133  0.0627
 4835SOL    HW115404   0.421   5.901   3.902 -0.4519 -0.1216 -0.9158
 4835SOL    HW215405   0.424   5.805   4.035  0.4666  1.3968  0.1978
 4836SOL     OW15406   1.055   5.245   0.777  0.0775  0.1224 -0.0675
 4836SOL    HW115407   1.099   5.247   0.867 -0.6298 -1.7352  0.3569
 4836SOL    HW215408   0.965   5.203   0.784 -0.7679  1.5779 -1.3709
 4837SOL     OW15409   3.918   6.908   4.182  0.0683 -0.3522 -0.2110
 4837SOL    HW115410   3.818   6.903   4.188  0.1582 -2.1062  0.4972
 4837SOL    HW215411   3.958   6.840   4.244  1.6966 -0.0399 -0.8833
 4838SOL     OW15412   2.175   6.951   1.618 -0.2176  0.7732  1.2474
 4838SOL    HW115413   2.221   6.862   1.615 -3.6563 -1.1492 -0.6417
 4838SOL    HW215414   2.169   6.988   1.525 -1.8304  1.2470  1.5140
 4839SOL     OW15415   3.129   4.369   6.529 -0.2692  0.3306  0.1530
 4839SOL    HW115416   3.054   4.393   6.590 -0.4017  1.8204 -0.5525
 4839SOL    HW215417   3.210   4.423   6.552  0.3740 -0.7056  0.4085
 4840SOL     OW15418   0.094   2.776   6.202 -0.0436 -0.3942  0.4766
 4840SOL    HW115419   0.062   2.804   6.111 -2.3315 -2.1756  0.6366
 4840SOL    HW215420   0.066   2.844   6.269  1.3280  0.7432 -0.0497
 4841SOL     OW15421   3.744   6.384   5.920  0.4035  0.1669 -0.4272
 4841SOL    HW115422   3.687   6.440   5.859 -0.6581  0.2404  0.5880
 4841SOL    HW215423   3.837   6.422   5.923  0.6184 -0.1095 -2.3235
 4842SOL     OW15424   3.335   4.932   2.813 -0.1359 -0.0025 -0.4692
 4842SOL    HW115425   3.410   4.865   2.817  1.2716  1.4850 -1.1006
 4842SOL    HW215426   3.278   4.914   2.732  2.4978  1.7679 -2.9043
 4843SOL     OW15427   5.604   2.114   1.045 -0.2426  0.4501  0.3007
 4843SOL    HW115428   5.656   2.181   1.098 -1.6126  2.0643 -0.3199
 4843SOL    HW215429   5.592   2.031   1.099  0.3195  1.2068  1.6260
 4844SOL     OW15430   4.596   0.371   6.154 -0.3075  0.1230 -0.3512
 4844SOL    HW115431   4.656   0.451   6.161 -0.3628  0.1105  0.2907
 4844SOL    HW215432   4.551   0.355   6.242 -0.5378 -0.4258 -0.5664
 4845SOL     OW15433   5.269   4.848   0.414 -0.3943 -0.5436  0.4583
 4845SOL    HW115434   5.337   4.781   0.443 -0.2213 -0.4898  0.1789
 4845SOL    HW215435   5.211   4.808   0.344 -1.0736 -0.8100  1.1537
 4846SOL     OW15436   1.780   0.569   3.571  0.7634 -0.0115  0.0135
 4846SOL    HW115437   1.724   0.528   3.499  1.2563 -2.4388  0.9051
 4846SOL    HW215438   1.809   0.660   3.543 -3.2549  1.2837 -0.6753
 4847SOL     OW15439   6.951   0.976   3.888  0.0983 -0.1021 -0.1853
 4847SOL    HW115440   6.975   0.916   3.964  1.0666  1.2846  0.6630
 4847SOL    HW215441   6.935   0.922   3.806 -0.2437 -1.5811  0.8177
 4848SOL     OW15442   0.827   0.549   3.034  0.3696  0.2902 -0.4682
 4848SOL    HW115443   0.824   0.608   3.114  2.2323  0.9896 -0.8707
 4848SOL    HW215444   0.812   0.603   2.951  0.3120 -0.1178 -0.7314
 4849SOL     OW15445   2.967   1.392   3.362  0.1074 -0.4645 -0.1814
 4849SOL    HW115446   2.941   1.410   3.457  1.6504 -1.5615  0.4868
 4849SOL    HW215447   3.041   1.454   3.335  1.3491 -1.7559  0.1681
 4850SOL     OW15448   4.112   4.791   7.012  0.7248 -0.2109  0.3466
 4850SOL    HW115449   4.037   4.766   6.952  0.6485 -1.0306  0.7659
 4850SOL    HW215450   4.150   4.708   7.055  2.2932  0.0993 -0.3598
 4851SOL     OW15451   4.638   2.274   0.255  0.1748 -0.1133 -0.2396
 4851SOL    HW115452   4.569   2.237   0.193 -0.4870 -0.5419  0.7353
 4851SOL    HW215453   4.710   2.207   0.268  1.0909  0.5286 -1.6697
 4852SOL     OW15454   1.398   1.585   5.646  0.2360  0.0561 -0.2342
 4852SOL    HW115455   1.470   1.515   5.644 -0.7611 -1.0321 -2.1233
 4852SOL    HW215456   1.393   1.626   5.737  1.3979 -1.7919  0.7337
 4853SOL     OW15457   1.259   6.872   6.828 -0.2565  0.5063  0.2943
 4853SOL    HW115458   1.196   6.950   6.825 -0.9184 -0.0382 -2.3314
 4853SOL    HW215459   1.352   6.905   6.841 -0.4038  1.8869 -1.6958
 4854SOL     OW15460   3.394   0.863   6.578 -0.5491 -0.2166  0.2000
 4854SOL    HW115461   3.430   0.819   6.496 -2.4178 -1.6390  0.0747
 4854SOL    HW215462   3.470   0.890   6.638  0.7381 -2.6460 -0.2143
 4855SOL     OW15463   0.378   4.434   3.829  0.0762 -0.7621  0.2514
 4855SOL    HW115464   0.398   4.337   3.813 -0.2841 -0.9859  1.1461
 4855SOL    HW215465   0.464   4.485   3.835  0.3691 -1.4190  2.1921
 4856SOL     OW15466   4.947   0.946   5.057  0.2903 -0.3158  0.4858
 4856SOL    HW115467   5.037   0.971   5.021  0.4556  0.1365  1.1901
 4856SOL    HW215468   4.888   0.916   4.982  1.4579 -1.9517  0.1674
 4857SOL     OW15469   4.814   6.653   4.974 -0.0162  0.2955 -0.2028
 4857SOL    HW115470   4.891   6.661   5.038  1.2106 -2.5799 -1.1623
 4857SOL    HW215471   4.733   6.623   5.024  1.5098 -4.4104  0.0008
 4858SOL     OW15472   2.375   3.224   0.508 -0.1568 -0.7304  0.2163
 4858SOL    HW115473   2.361   3.269   0.419  3.2119  0.7833  0.2913
 4858SOL    HW215474   2.301   3.159   0.524 -1.2953 -0.5632 -3.3556
 4859SOL     OW15475   0.257   1.448   1.567  0.2510  0.5609 -0.3442
 4859SOL    HW115476   0.173   1.449   1.621 -0.5295  0.7037 -1.5125
 4859SOL    HW215477   0.268   1.359   1.522  2.3575 -0.5724  2.1730
 4860SOL     OW15478   3.986   0.835   3.541  0.2761 -0.3674  0.1315
 4860SOL    HW115479   4.060   0.898   3.567 -0.1122  0.7563 -1.3243
 4860SOL    HW215480   3.915   0.837   3.611  0.8353 -0.1269  0.7017
 4861SOL     OW15481   5.716   2.614   2.069  0.2061  0.0195  0.4224
 4861SOL    HW115482   5.736   2.645   1.976  2.3642  1.3433  1.2313
 4861SOL    HW215483   5.640   2.667   2.107  0.2064  0.4287 -0.1363
 4862SOL     OW15484   3.784   2.123   1.540 -0.2804  0.0670  0.3695
 4862SOL    HW115485   3.699   2.173   1.555  0.2387  1.2793 -0.5820
 4862SOL    HW215486   3.861   2.175   1.578  0.1805 -0.3709  0.0505
 4863SOL     OW15487   6.829   5.412   3.125  0.0738  0.2172 -0.0351
 4863SOL    HW115488   6.775   5.489   3.091  2.2793  1.3032 -1.3167
 4863SOL    HW215489   6.826   5.337   3.059  0.2219  0.3296 -0.1712
 4864SOL     OW15490   2.854   1.840   0.932 -0.1281  0.2669 -0.1253
 4864SOL    HW115491   2.762   1.817   0.963  0.2316  2.0694  2.5738
 4864SOL    HW215492   2.853   1.931   0.891  0.1932 -0.4392 -1.8092
 4865SOL     OW15493   5.842   5.321   4.588  0.1859 -0.3042  0.6509
 4865SOL    HW115494   5.818   5.381   4.665 -1.3693  0.7620 -0.5937
 4865SOL    HW215495   5.929   5.351   4.548  1.2150 -1.1181  2.2025
 4866SOL     OW15496   2.127   6.806   5.125  0.3276 -0.2551 -0.1835
 4866SOL    HW115497   2.096   6.798   5.031 -0.1332 -0.2017 -0.0406
 4866SOL    HW215498   2.148   6.901   5.146  1.4573 -0.4077 -0.5414
 4867SOL     OW15499   0.126   0.842   1.407 -0.3879  0.4739 -0.4278
 4867SOL    HW115500   0.068   0.795   1.473  0.3478  0.3759  0.1630
 4867SOL    HW215501   0.091   0.828   1.315 -0.1897 -1.2375 -0.2708
 4868SOL     OW15502   0.308   0.778   6.964 -0.1850 -0.4138 -0.2402
 4868SOL    HW115503   0.314   0.841   6.887  5.0302 -0.5079 -0.2880
 4868SOL    HW215504   0.298   0.684   6.930 -0.9186 -0.2059 -0.5996
 4869SOL     OW15505   6.059   2.394   3.250  0.2222 -0.0962  0.1429
 4869SOL    HW115506   6.007   2.389   3.336 -0.7072 -1.9034 -0.4744
 4869SOL    HW215507   6.018   2.333   3.183 -0.4133  2.8758 -2.3905
 4870SOL     OW15508   4.517   2.195   5.594 -0.2931 -0.3371  0.9113
 4870SOL    HW115509   4.604   2.174   5.550 -0.4470 -0.3636  0.6118
 4870SOL    HW215510   4.475   2.274   5.548 -0.0718  0.1473  1.5411
 4871SOL     OW15511   2.838   5.582   3.313  0.4370 -0.1220 -0.1352
 4871SOL    HW115512   2.832   5.504   3.250  0.4431  1.1580 -1.8080
 4871SOL    HW215513   2.931   5.591   3.347  0.3442 -1.0677  0.3915
 4872SOL     OW15514   2.797   4.638   1.259  0.0003  0.1789  0.0117
 4872SOL    HW115515   2.887   4.651   1.218 -0.1308  0.1364 -0.2889
 4872SOL    HW215516   2.792   4.691   1.344 -0.7362  2.7409 -1.5055
 4873SOL     OW15517   6.207   1.640   0.155  0.8400 -0.0987  0.0720
 4873SOL    HW115518   6.254   1.563   0.199  1.2023 -0.7963 -1.4541
 4873SOL    HW215519   6.230   1.725   0.202  0.4064 -0.9148  1.8198
 4874SOL     OW15520   6.058   2.276   0.709 -0.0472  0.5351  0.1244
 4874SOL    HW115521   5.992   2.337   0.665 -0.2553 -0.3300 -0.7937
 4874SOL    HW215522   6.121   2.330   0.765 -0.5101  1.5392 -0.2989
 4875SOL     OW15523   5.671   0.350   3.634  0.1982 -0.0700  0.3321
 4875SOL    HW115524   5.614   0.303   3.566 -2.7154  1.1467  1.7754
 4875SOL    HW215525   5.707   0.435   3.594 -0.4000 -0.0218 -0.1199
 4876SOL     OW15526   6.266   1.390   2.937  0.2923  0.2237  0.1666
 4876SOL    HW115527   6.230   1.476   2.900 -0.2782 -0.5878 -1.2677
 4876SOL    HW215528   6.345   1.409   2.995  2.0293  1.5382 -2.4358
 4877SOL     OW15529   4.783   3.623   0.248  0.5242 -0.1322 -0.0587
 4877SOL    HW115530   4.782   3.704   0.189 -2.1209 -0.3177 -0.4068
 4877SOL    HW215531   4.858   3.631   0.314 -0.9662  3.8102  1.4856
 4878SOL     OW15532   1.948   3.003   6.561 -0.7429  0.5154  0.0712
 4878SOL    HW115533   1.974   2.907   6.545 -1.9251  0.2751 -0.5077
 4878SOL    HW215534   1.946   3.021   6.659 -0.9200 -0.1694  0.1959
 4879SOL     OW15535   0.833   3.871   3.903  0.1884  0.1260 -0.1839
 4879SOL    HW115536   0.749   3.850   3.853 -1.6500  2.4097  1.7171
 4879SOL    HW215537   0.897   3.918   3.842 -1.4368  1.6441 -0.8186
 4880SOL     OW15538   0.391   6.676   0.350  0.1231  0.0179  0.2107
 4880SOL    HW115539   0.383   6.758   0.407  3.4129 -0.0019  0.8924
 4880SOL    HW215540   0.351   6.694   0.260 -2.4480  1.0646  1.4388
 4881SOL     OW15541   5.344   6.213   4.956 -0.9399 -0.5559  0.5147
 4881SOL    HW115542   5.429   6.161   4.951 -2.2150 -2.6876 -0.4929
 4881SOL    HW215543   5.341   6.278   4.880 -0.6060 -1.1572 -0.0305
 4882SOL     OW15544   2.992   3.802   5.497 -0.0112 -0.5798  0.6270
 4882SOL    HW115545   2.905   3.781   5.451 -0.2004  1.1563  0.0849
 4882SOL    HW215546   3.063   3.817   5.428  0.3796 -0.6485  1.0139
 4883SOL     OW15547   3.912   0.725   3.112  0.4367 -0.1288 -0.0016
 4883SOL    HW115548   3.953   0.649   3.061  0.4170 -0.6629  0.7468
 4883SOL    HW215549   3.947   0.723   3.206 -0.8629 -0.2468  0.4969
 4884SOL     OW15550   4.483   0.454   3.169  0.6762 -0.0447  0.0545
 4884SOL    HW115551   4.402   0.493   3.125  1.1948 -0.3927 -1.2485
 4884SOL    HW215552   4.521   0.382   3.112  0.3562 -1.7731  1.9271
 4885SOL     OW15553   2.336   5.934   3.285  0.4391 -0.0514  0.3548
 4885SOL    HW115554   2.242   5.908   3.264  0.3803 -0.3182  0.9289
 4885SOL    HW215555   2.382   5.859   3.331  0.8305  0.2037  0.3876
 4886SOL     OW15556   5.758   6.108   5.626 -0.3882  0.4860 -0.0474
 4886SOL    HW115557   5.825   6.036   5.644 -0.9700 -0.4258 -1.3934
 4886SOL    HW215558   5.793   6.169   5.554 -0.3210  0.9792  0.3958
 4887SOL     OW15559   3.727   0.031   5.418 -0.5213  0.0149 -0.1345
 4887SOL    HW115560   3.824   0.039   5.436 -0.7676  2.2002  0.5032
 4887SOL    HW215561   3.694   0.114   5.372 -1.5950 -1.7710 -2.8966
 4888SOL     OW15562   0.405   4.573   6.633 -0.6686  0.5763 -0.4507
 4888SOL    HW115563   0.318   4.610   6.602 -0.9318  0.6736  0.3697
 4888SOL    HW215564   0.473   4.646   6.637 -1.0997  0.9305  0.8513
 4889SOL     OW15565   1.216   0.679   1.550  0.0642 -0.0042 -0.1562
 4889SOL    HW115566   1.305   0.663   1.591  0.8724  1.3932 -1.2763
 4889SOL    HW215567   1.226   0.690   1.452 -0.9365  2.5879 -0.0583
 4890SOL     OW15568   1.245   6.041   4.532 -0.2274 -0.9656  0.0319
 4890SOL    HW115569   1.272   6.070   4.624 -0.3645  0.8599 -0.4599
 4890SOL    HW215570   1.147   6.027   4.528 -0.4516  0.5182 -0.1961
 4891SOL     OW15571   1.117   0.855   6.900 -0.3535 -0.1781 -0.3711
 4891SOL    HW115572   1.108   0.850   7.000 -1.1498  0.1619 -0.4217
 4891SOL    HW215573   1.186   0.789   6.870  0.8422  0.6017  0.5309
 4892SOL     OW15574   0.353   2.514   4.709 -0.5712 -0.0900 -0.1561
 4892SOL    HW115575   0.320   2.607   4.697  0.2119  0.2341  0.1535
 4892SOL    HW215576   0.350   2.466   4.621  0.1339  0.6056 -0.5773
 4893SOL     OW15577   6.288   5.535   0.476 -0.2220  0.1081  0.4288
 4893SOL    HW115578   6.342   5.599   0.531  0.1086 -1.3353  1.8597
 4893SOL    HW215579   6.339   5.450   0.464 -1.2427 -0.4434 -0.1722
 4894SOL     OW15580   1.475   1.460   5.040 -0.0554 -0.2007 -0.0326
 4894SOL    HW115581   1.429   1.447   4.952  1.3505 -0.9573 -0.6985
 4894SOL    HW215582   1.538   1.537   5.033 -0.8732  0.5584  0.7363
 4895SOL     OW15583   5.642   4.108   1.403  0.2785 -0.2402 -0.0452
 4895SOL    HW115584   5.582   4.125   1.325  0.5184 -0.9195 -0.3845
 4895SOL    HW215585   5.603   4.150   1.485 -0.8317 -0.9570 -0.1975
 4896SOL     OW15586   1.259   0.403   3.829 -0.0717  0.7099  0.5501
 4896SOL    HW115587   1.297   0.399   3.737  0.5197  1.1081  0.7701
 4896SOL    HW215588   1.160   0.393   3.825 -0.0238  0.4802 -0.1077
 4897SOL     OW15589   1.270   2.307   1.329 -0.6805  0.5095 -0.5449
 4897SOL    HW115590   1.327   2.348   1.258  1.1162  1.2716  1.2140
 4897SOL    HW215591   1.261   2.372   1.405  0.0973 -1.3603  1.2335
 4898SOL     OW15592   3.075   5.919   5.462  0.4070  0.4032  1.2042
 4898SOL    HW115593   3.133   5.838   5.467  0.7813 -0.1298 -4.8767
 4898SOL    HW215594   3.130   5.998   5.434 -1.0500  0.7672 -0.8886
 4899SOL     OW15595   6.995   6.103   6.897 -0.1245 -0.2646 -0.0979
 4899SOL    HW115596   6.907   6.147   6.912 -0.0352  0.2303 -0.9410
 4899SOL    HW215597   6.981   6.012   6.858 -0.3174 -1.1103  1.8428
 4900SOL     OW15598   6.522   1.190   0.612  0.4660 -0.1003 -0.7086
 4900SOL    HW115599   6.532   1.094   0.585  0.7394 -0.7465  1.5335
 4900SOL    HW215600   6.447   1.231   0.561 -0.2144 -1.7471 -1.0977
 4901SOL     OW15601   1.269   4.991   5.095 -0.0961 -0.5043  0.2015
 4901SOL    HW115602   1.313   4.917   5.044  0.1589  0.0622 -0.4066
 4901SOL    HW215603   1.308   5.079   5.067  0.3706 -0.2120  1.7150
 4902SOL     OW15604   0.834   0.943   5.400 -0.2533 -0.1560 -0.9726
 4902SOL    HW115605   0.870   1.022   5.349 -1.7893  1.5753  0.4557
 4902SOL    HW215606   0.873   0.941   5.492  0.3855 -1.5851 -1.2533
 4903SOL     OW15607   6.047   6.857   0.065  0.1674  0.1369 -0.2419
 4903SOL    HW115608   5.964   6.912   0.053  1.2407  3.0503  3.6727
 4903SOL    HW215609   6.033   6.790   0.138  1.1037  0.3516  0.1531
 4904SOL     OW15610   2.156   2.946   0.355  0.8872  0.1252 -0.1403
 4904SOL    HW115611   2.234   2.886   0.335  2.0391  0.9273  1.6792
 4904SOL    HW215612   2.117   2.979   0.269  1.2225 -1.9253 -1.1385
 4905SOL     OW15613   3.300   0.635   3.192 -0.1093  0.2930 -0.3178
 4905SOL    HW115614   3.261   0.572   3.124 -0.2025 -0.3416  0.3093
 4905SOL    HW215615   3.394   0.658   3.167  0.2425 -0.8326 -0.0746
 4906SOL     OW15616   1.621   4.526   0.580  0.7641 -0.0567 -0.1398
 4906SOL    HW115617   1.561   4.446   0.578  0.9920 -0.4337  3.1338
 4906SOL    HW215618   1.570   4.606   0.551 -0.5928 -0.7823  0.1490
 4907SOL     OW15619   0.154   2.973   2.454 -0.4732  0.1209 -0.6650
 4907SOL    HW115620   0.176   3.059   2.409 -2.1195  0.3057 -1.1771
 4907SOL    HW215621   0.064   2.979   2.497 -0.1105 -0.9648  0.3299
 4908SOL     OW15622   6.980   1.057   2.726 -0.0306  0.1308 -0.1548
 4908SOL    HW115623   6.963   1.004   2.643  1.4568 -1.4621  0.4996
 4908SOL    HW215624   6.932   1.014   2.803  0.6676  0.0772  0.2622
 4909SOL     OW15625   5.104   3.315   3.011  0.1482 -0.0259 -0.0963
 4909SOL    HW115626   5.113   3.412   2.990  0.1673 -0.1030 -0.4427
 4909SOL    HW215627   5.024   3.277   2.965  0.1974 -0.1959 -0.0450
 4910SOL     OW15628   0.567   2.176   5.756 -0.0473 -0.1521  0.1338
 4910SOL    HW115629   0.592   2.269   5.783 -0.9158  0.2110 -0.2871
 4910SOL    HW215630   0.648   2.130   5.719  0.4622  0.3238  0.6255
 4911SOL     OW15631   1.118   0.632   4.502  0.1466  0.2025 -0.4107
 4911SOL    HW115632   1.172   0.672   4.577 -2.1175  0.2087  1.3212
 4911SOL    HW215633   1.045   0.576   4.540 -1.4484  0.6718 -2.6114
 4912SOL     OW15634   3.369   4.126   3.704 -0.0382  0.2639  0.3191
 4912SOL    HW115635   3.468   4.134   3.693  0.3175  0.4372  2.8437
 4912SOL    HW215636   3.344   4.155   3.797 -2.2934 -1.0828  0.2119
 4913SOL     OW15637   5.262   4.935   2.713  0.6796 -0.5982 -0.1866
 4913SOL    HW115638   5.271   4.853   2.770 -1.5978  0.4877  1.9235
 4913SOL    HW215639   5.169   4.942   2.680  1.2050  0.4484 -1.5161
 4914SOL     OW15640   6.750   6.528   6.457  0.3961 -0.1354 -0.2021
 4914SOL    HW115641   6.655   6.506   6.436  0.2976 -1.5016  1.4893
 4914SOL    HW215642   6.772   6.499   6.550  2.6210 -0.3623 -0.7355
 4915SOL     OW15643   3.137   1.232   6.940 -0.5566 -0.2567  0.2569
 4915SOL    HW115644   3.154   1.207   7.036 -0.8061  1.4607  0.7889
 4915SOL    HW215645   3.050   1.281   6.934  0.6868  2.0511 -0.3593
 4916SOL     OW15646   3.553   3.520   1.671 -0.5145  0.2449  0.3728
 4916SOL    HW115647   3.483   3.450   1.676 -0.8702  0.6421  1.2051
 4916SOL    HW215648   3.609   3.517   1.754 -0.5470  0.9487  0.4283
 4917SOL     OW15649   3.681   3.091   2.135  0.0713  0.1729 -0.4486
 4917SOL    HW115650   3.775   3.060   2.118 -0.0884  0.2155 -1.4366
 4917SOL    HW215651   3.619   3.014   2.128  0.0583  0.0790  0.5507
 4918SOL     OW15652   6.380   0.250   2.973 -0.7972  0.1638  0.4809
 4918SOL    HW115653   6.407   0.168   3.022  0.5757  0.2248 -0.1264
 4918SOL    HW215654   6.358   0.323   3.038 -1.2416 -0.4373  1.0094
 4919SOL     OW15655   5.734   5.353   5.232 -0.6612  0.8537  0.1801
 4919SOL    HW115656   5.800   5.305   5.290 -0.8815 -1.7259 -1.5843
 4919SOL    HW215657   5.644   5.351   5.275 -1.1377 -2.2777 -0.7090
 4920SOL     OW15658   0.610   5.568   3.501 -0.6237  0.2456  0.5166
 4920SOL    HW115659   0.665   5.609   3.575 -0.7204 -2.5145  2.2536
 4920SOL    HW215660   0.513   5.574   3.524 -0.6589 -0.5581  0.6083
 4921SOL     OW15661   5.556   3.206   0.631 -0.4422  0.1190 -0.4146
 4921SOL    HW115662   5.591   3.133   0.573 -0.9017 -0.2424 -0.2379
 4921SOL    HW215663   5.585   3.191   0.725 -1.5596 -0.5014 -0.1636
 4922SOL     OW15664   1.275   5.820   1.303 -0.7755 -0.4686 -0.5680
 4922SOL    HW115665   1.289   5.740   1.244 -2.2035  0.3288 -2.0595
 4922SOL    HW215666   1.227   5.891   1.252  1.5465  1.8755  0.3190
 4923SOL     OW15667   2.922   2.496   1.275  0.0148  0.1781 -0.3449
 4923SOL    HW115668   2.996   2.536   1.329 -0.6374  0.7434  0.1435
 4923SOL    HW215669   2.933   2.523   1.179  0.6222 -0.0209 -0.3379
 4924SOL     OW15670   6.055   2.553   6.617 -0.3529 -0.1558 -0.6299
 4924SOL    HW115671   6.153   2.533   6.613  0.5184  3.3990 -0.5800
 4924SOL    HW215672   6.026   2.558   6.712 -0.4893 -0.7828 -0.6365
 4925SOL     OW15673   1.579   1.373   5.802  0.4428  0.1026 -0.1563
 4925SOL    HW115674   1.638   1.453   5.789 -1.5954  2.2152  2.2796
 4925SOL    HW215675   1.629   1.290   5.778  3.3268  1.9351 -1.0166
 4926SOL     OW15676   4.590   1.344   3.704 -0.2132 -0.1566 -0.3020
 4926SOL    HW115677   4.671   1.361   3.760 -0.6856  0.0378  0.3308
 4926SOL    HW215678   4.513   1.396   3.740 -0.4893  0.0837 -1.2239
 4927SOL     OW15679   4.101   3.241   4.486  0.8408  0.1347  0.3566
 4927SOL    HW115680   4.104   3.207   4.392 -0.2610 -0.4111  0.5042
 4927SOL    HW215681   4.172   3.196   4.540 -0.1132 -1.4257  0.3699
 4928SOL     OW15682   2.800   6.523   1.830 -0.0038 -0.1902  0.5032
 4928SOL    HW115683   2.724   6.538   1.766 -0.9204  1.1754  1.8581
 4928SOL    HW215684   2.883   6.502   1.778 -0.5939  1.3923 -1.1774
 4929SOL     OW15685   1.124   4.639   3.210  0.0084 -0.0987 -0.8034
 4929SOL    HW115686   1.101   4.734   3.190  2.8520  0.6439 -1.0558
 4929SOL    HW215687   1.120   4.585   3.126 -2.1554 -0.3897 -0.5613
 4930SOL     OW15688   6.932   4.589   3.820  0.3023  0.1446  0.0187
 4930SOL    HW115689   6.922   4.642   3.736 -0.7112  0.0151  0.0413
 4930SOL    HW215690   6.960   4.495   3.797 -1.8785 -0.4722 -0.3767
 4931SOL     OW15691   5.371   5.666   5.676 -0.1970 -0.2714  0.3502
 4931SOL    HW115692   5.442   5.661   5.746 -1.1161 -0.6934  1.2850
 4931SOL    HW215693   5.306   5.738   5.701 -1.6391 -1.7424  1.0379
 4932SOL     OW15694   1.501   2.427   3.526  0.1827 -0.7513 -0.2921
 4932SOL    HW115695   1.531   2.413   3.620  0.7748 -1.6907 -0.6077
 4932SOL    HW215696   1.456   2.516   3.518 -3.0316 -2.0114  1.6696
 4933SOL     OW15697   3.431   3.150   3.524 -0.6964  0.2253  0.2076
 4933SOL    HW115698   3.445   3.072   3.462 -0.8789 -0.3170  0.8358
 4933SOL    HW215699   3.426   3.234   3.470 -0.8049 -0.2283 -0.5156
 4934SOL     OW15700   5.380   1.845   0.179  0.1504  0.0190  0.4193
 4934SOL    HW115701   5.397   1.842   0.277 -0.3746  0.0019  0.5112
 4934SOL    HW215702   5.435   1.775   0.134  0.8777  0.4455  0.6225
 4935SOL     OW15703   2.409   0.934   1.159  0.3413 -0.1588 -0.0606
 4935SOL    HW115704   2.404   0.867   1.085 -1.6827  1.1526 -1.2050
 4935SOL    HW215705   2.504   0.961   1.173  1.0118 -2.0504 -0.6531
 4936SOL     OW15706   3.815   3.418   2.245 -0.8950  0.3273 -0.4224
 4936SOL    HW115707   3.832   3.516   2.245  0.9124  0.0772 -1.9580
 4936SOL    HW215708   3.892   3.370   2.288 -1.3605 -0.4497 -0.4305
 4937SOL     OW15709   0.780   1.854   3.649 -0.1572  0.0178 -0.6253
 4937SOL    HW115710   0.726   1.938   3.636  0.3031  0.5115  0.5527
 4937SOL    HW215711   0.867   1.862   3.602  1.1309  1.4379  1.8331
 4938SOL     OW15712   2.246   2.219   4.710 -0.4355  0.0620  0.6278
 4938SOL    HW115713   2.265   2.288   4.640 -0.0620  0.6032  1.2481
 4938SOL    HW215714   2.202   2.139   4.668  0.8435 -0.1191 -0.4111
 4939SOL     OW15715   3.720   5.560   5.528  0.0924 -0.4628  0.5625
 4939SOL    HW115716   3.816   5.580   5.509  0.2135 -0.7148  0.8906
 4939SOL    HW215717   3.673   5.534   5.444  0.0677  0.6450  0.2259
 4940SOL     OW15718   2.914   5.761   5.286 -0.1211 -0.4308  0.0620
 4940SOL    HW115719   2.979   5.817   5.337  1.8439 -1.0970 -1.5775
 4940SOL    HW215720   2.910   5.670   5.326 -0.0487 -0.3904  0.1615
 4941SOL     OW15721   1.549   6.193   3.944 -0.1797  0.7997 -0.0739
 4941SOL    HW115722   1.627   6.162   3.890 -1.2936  0.7486 -1.7724
 4941SOL    HW215723   1.568   6.283   3.982  0.2503  1.4026 -1.6161
 4942SOL     OW15724   1.099   4.599   4.974 -0.2020 -0.0300 -0.4316
 4942SOL    HW115725   1.165   4.559   5.037 -0.9066 -4.8337 -2.3500
 4942SOL    HW215726   1.147   4.636   4.894  0.3848 -1.7729 -0.9341
 4943SOL     OW15727   0.353   1.805   5.178  0.4511  0.1808  0.3199
 4943SOL    HW115728   0.411   1.886   5.173 -0.8707  1.1128 -1.0035
 4943SOL    HW215729   0.267   1.824   5.131 -0.4329 -1.5587  1.1721
 4944SOL     OW15730   1.317   1.088   0.084 -0.2408 -0.3091  0.4292
 4944SOL    HW115731   1.261   1.068   0.164  0.7119 -3.8973  0.3843
 4944SOL    HW215732   1.263   1.075   0.001 -0.5681  0.9748  0.4266
 4945SOL     OW15733   3.013   0.371   6.090 -0.0972 -0.2115  0.2769
 4945SOL    HW115734   3.092   0.394   6.034  0.6428 -3.4456 -0.2334
 4945SOL    HW215735   3.019   0.416   6.178  1.0773  1.4123 -0.5998
 4946SOL     OW15736   0.803   2.780   3.942  0.2186  0.2728 -0.2293
 4946SOL    HW115737   0.892   2.816   3.972  0.2591  0.2092 -0.2723
 4946SOL    HW215738   0.752   2.853   3.896 -0.1850  0.6009  0.7162
 4947SOL     OW15739   4.511   0.503   6.960  0.1673  0.0444  0.2632
 4947SOL    HW115740   4.560   0.422   6.929 -2.2813 -1.5333  0.2363
 4947SOL    HW215741   4.441   0.477   7.026  1.1359  2.5543  2.4733
 4948SOL     OW15742   3.495   4.927   2.150  0.3063 -0.3522  0.2322
 4948SOL    HW115743   3.494   4.862   2.074  0.5932  0.1885 -0.2429
 4948SOL    HW215744   3.577   4.984   2.144  0.0365  0.0831  0.6087
 4949SOL     OW15745   6.870   5.005   1.667 -0.2028  0.5295 -0.2922
 4949SOL    HW115746   6.907   4.925   1.620 -0.6197 -0.0018  0.2662
 4949SOL    HW215747   6.941   5.075   1.674  0.3056  0.0361 -0.3971
 4950SOL     OW15748   4.629   2.152   0.590  0.2636 -0.3967 -0.4028
 4950SOL    HW115749   4.691   2.188   0.520  0.9359  1.9080  1.2298
 4950SOL    HW215750   4.540   2.198   0.582  0.5929  0.4775  0.6839
 4951SOL     OW15751   6.182   1.565   3.526 -0.3703 -0.2961 -0.3468
 4951SOL    HW115752   6.097   1.533   3.483 -0.2235  0.8828 -1.5709
 4951SOL    HW215753   6.250   1.585   3.456  0.1571  0.8928  0.4638
 4952SOL     OW15754   1.420   6.674   1.684 -0.2945 -0.4294 -0.5227
 4952SOL    HW115755   1.499   6.644   1.632 -0.8623 -0.3690 -1.4421
 4952SOL    HW215756   1.373   6.747   1.635 -1.1387 -0.7244 -0.1876
 4953SOL     OW15757   0.424   5.091   6.276  0.1967  0.4160 -0.0373
 4953SOL    HW115758   0.474   5.004   6.277  0.8190  0.7079 -1.5785
 4953SOL    HW215759   0.440   5.137   6.188 -0.9627  1.6030  0.3378
 4954SOL     OW15760   3.069   1.066   1.196  0.6397  0.1073 -0.1855
 4954SOL    HW115761   3.022   1.065   1.284  1.5588  1.9135  0.3909
 4954SOL    HW215762   3.167   1.073   1.211  0.7800  0.9013 -1.3495
 4955SOL     OW15763   0.113   5.882   2.315  0.3424  0.9585 -0.8118
 4955SOL    HW115764   0.193   5.830   2.287  0.3333  0.2079  0.4543
 4955SOL    HW215765   0.128   5.919   2.407 -1.2733 -0.3648  0.0429
 4956SOL     OW15766   5.293   1.884   2.822 -0.0700  0.0479 -0.4647
 4956SOL    HW115767   5.232   1.950   2.866  0.1120 -0.1584  0.1008
 4956SOL    HW215768   5.388   1.907   2.844 -0.0114 -0.4617 -0.1955
 4957SOL     OW15769   6.227   5.131   0.353  0.2331 -0.6609 -0.0550
 4957SOL    HW115770   6.179   5.057   0.307 -0.8020 -2.3924  3.4733
 4957SOL    HW215771   6.161   5.191   0.398  1.1882  1.1077 -0.8636
 4958SOL     OW15772   3.915   6.580   4.561 -0.1656 -0.0167  0.1884
 4958SOL    HW115773   3.837   6.577   4.500 -0.4174 -0.5151  0.5246
 4958SOL    HW215774   3.903   6.513   4.634  0.8801 -0.5797 -0.1242
 4959SOL     OW15775   4.812   6.798   1.944  0.1911 -0.4805 -0.2250
 4959SOL    HW115776   4.831   6.840   1.855 -0.1193 -1.9065 -0.9954
 4959SOL    HW215777   4.812   6.698   1.935 -2.1761 -0.6590  0.8556
 4960SOL     OW15778   3.207   2.743   5.726 -0.6062  0.4865 -0.3213
 4960SOL    HW115779   3.239   2.757   5.819  0.3180  2.2660 -0.8820
 4960SOL    HW215780   3.254   2.804   5.663 -3.2584  1.4352 -1.5688
 4961SOL     OW15781   4.117   2.772   6.380  0.3322  0.5663 -0.1552
 4961SOL    HW115782   4.185   2.716   6.334  2.0653  1.1059  1.6031
 4961SOL    HW215783   4.153   2.864   6.393 -0.8468  0.9478  0.5701
 4962SOL     OW15784   5.773   2.253   6.150 -0.6150 -0.0504 -0.2544
 4962SOL    HW115785   5.721   2.169   6.140 -2.6889  1.2018 -0.5567
 4962SOL    HW215786   5.827   2.270   6.067 -2.3202  0.2802 -1.3338
 4963SOL     OW15787   1.844   0.426   3.317 -0.1231  0.0700  0.2192
 4963SOL    HW115788   1.933   0.467   3.339  0.5339 -1.6997  1.0411
 4963SOL    HW215789   1.824   0.354   3.384 -3.5462  2.3136  1.8785
 4964SOL     OW15790   2.884   5.449   4.180  0.3956  0.1236 -0.1626
 4964SOL    HW115791   2.839   5.375   4.228  0.5871  1.1380  1.6571
 4964SOL    HW215792   2.819   5.493   4.117 -0.8700  0.8677  1.5995
 4965SOL     OW15793   4.411   1.901   4.504  0.3295  0.8016 -0.3367
 4965SOL    HW115794   4.473   1.947   4.440  1.4791  0.4066  0.4634
 4965SOL    HW215795   4.446   1.810   4.524 -0.8851  0.3111 -0.3793
 4966SOL     OW15796   0.926   2.501   0.397  0.7578 -0.3402 -0.1903
 4966SOL    HW115797   0.913   2.587   0.447  0.9884  1.1086 -2.4800
 4966SOL    HW215798   1.007   2.455   0.432  3.2506  2.5710 -1.6313
 4967SOL     OW15799   5.301   3.447   4.605 -0.0421 -0.2359  0.0057
 4967SOL    HW115800   5.279   3.475   4.699 -0.2284  0.4990 -0.2465
 4967SOL    HW215801   5.220   3.457   4.548  0.1042 -0.5681 -0.2599
 4968SOL     OW15802   0.783   1.107   6.268  0.0753  0.6169 -0.2335
 4968SOL    HW115803   0.728   1.184   6.234 -0.4071  0.7787  0.8946
 4968SOL    HW215804   0.875   1.112   6.228  0.0117  1.7137 -0.2706
 4969SOL     OW15805   4.246   6.177   3.833  0.1573  0.1872  0.3546
 4969SOL    HW115806   4.165   6.123   3.859 -1.1448  0.5704 -2.4916
 4969SOL    HW215807   4.323   6.116   3.818 -0.3683 -0.5212  0.4683
 4970SOL     OW15808   1.975   6.682   1.584 -0.1223  0.8073  0.2120
 4970SOL    HW115809   2.075   6.688   1.583 -0.0136 -0.5512  1.1765
 4970SOL    HW215810   1.944   6.647   1.496  0.2828  0.8195  0.0597
 4971SOL     OW15811   0.913   5.132   4.029  0.0535  0.0806  0.0039
 4971SOL    HW115812   0.975   5.191   3.977  2.9947 -2.1458  0.7362
 4971SOL    HW215813   0.862   5.073   3.967 -0.7966  1.3838 -0.5718
 4972SOL     OW15814   0.623   1.459   5.311 -0.3264  0.2358 -0.3865
 4972SOL    HW115815   0.631   1.552   5.347  0.2142 -0.4172  1.2658
 4972SOL    HW215816   0.582   1.463   5.219  1.5565  2.2424 -1.2415
 4973SOL     OW15817   6.117   0.489   0.332  0.2220 -0.0197 -0.1971
 4973SOL    HW115818   6.137   0.569   0.389  0.0115 -0.1754  0.1002
 4973SOL    HW215819   6.161   0.408   0.371 -0.8712 -0.3495  0.4109
 4974SOL     OW15820   2.510   4.225   1.760  0.2913 -0.1673  0.8821
 4974SOL    HW115821   2.542   4.133   1.783 -2.3863 -1.1358  1.0440
 4974SOL    HW215822   2.585   4.277   1.717  1.7267 -2.5739  0.3170
 4975SOL     OW15823   0.846   2.572   1.057 -0.1325 -0.4695 -0.4501
 4975SOL    HW115824   0.846   2.641   1.130  1.6645  0.7684 -1.5332
 4975SOL    HW215825   0.752   2.553   1.028 -0.7376  0.5598  0.7594
 4976SOL     OW15826   6.397   5.787   4.730  0.1288  0.0185  0.1132
 4976SOL    HW115827   6.445   5.830   4.653  0.1894 -1.7785 -0.9128
 4976SOL    HW215828   6.381   5.691   4.709 -2.1176  0.0744  1.2972
 4977SOL     OW15829   1.057   0.459   1.521  0.0659  0.3702 -0.0316
 4977SOL    HW115830   0.987   0.461   1.593  1.2010  2.0766  1.1045
 4977SOL    HW215831   1.116   0.539   1.530 -0.0699  0.9493 -3.2379
 4978SOL     OW15832   2.841   4.545   0.212 -0.1577  0.4360  0.6762
 4978SOL    HW115833   2.833   4.642   0.232 -0.5392  0.4975  0.2404
 4978SOL    HW215834   2.919   4.530   0.150  1.5117  0.1558  2.7318
 4979SOL     OW15835   6.711   4.959   4.335  0.2801  0.7889 -0.1170
 4979SOL    HW115836   6.648   5.037   4.338 -2.3556 -1.2264  0.7330
 4979SOL    HW215837   6.687   4.899   4.258  0.5397 -0.4712  0.7497
 4980SOL     OW15838   6.373   3.041   0.990  0.0699  0.2005  0.0628
 4980SOL    HW115839   6.336   3.000   0.906 -0.9006 -0.3217  0.7265
 4980SOL    HW215840   6.469   3.066   0.975  0.9727 -2.9776 -0.1887
 4981SOL     OW15841   6.042   4.917   4.828  0.3007 -0.2599 -0.5794
 4981SOL    HW115842   6.120   4.954   4.777  1.9200 -2.1807  0.3595
 4981SOL    HW215843   6.010   4.833   4.784  1.0678 -1.3910  0.9195
 4982SOL     OW15844   0.248   6.698   6.576  0.5936 -0.2308 -0.1515
 4982SOL    HW115845   0.310   6.641   6.630  0.9593 -1.0348 -1.3828
 4982SOL    HW215846   0.163   6.648   6.559  0.8457 -0.3592 -1.0878
 4983SOL     OW15847   2.625   0.571   0.980 -0.5382  0.6515  0.2283
 4983SOL    HW115848   2.543   0.628   0.976 -2.3111 -1.7685 -0.1670
 4983SOL    HW215849   2.631   0.528   1.070 -1.9379 -2.1153 -0.8775
 4984SOL     OW15850   4.378   0.929   1.585 -0.4782 -0.3379 -0.4712
 4984SOL    HW115851   4.348   0.903   1.677 -1.8311  0.1255 -0.7622
 4984SOL    HW215852   4.302   0.972   1.536  0.5905  0.5654 -1.3758
 4985SOL     OW15853   5.339   5.089   1.383  0.2186 -0.0532 -0.6621
 4985SOL    HW115854   5.246   5.077   1.349 -0.5829 -1.2294  1.6721
 4985SOL    HW215855   5.353   5.027   1.461  1.7555  2.5675  1.2990
 4986SOL     OW15856   0.436   3.361   1.654 -0.0162  0.5906 -0.2235
 4986SOL    HW115857   0.364   3.344   1.587  0.9696  1.8815 -1.6818
 4986SOL    HW215858   0.525   3.350   1.610  0.7410 -1.0855  1.5602
 4987SOL     OW15859   0.330   6.482   3.552  0.0995 -0.4147 -0.2366
 4987SOL    HW115860   0.244   6.532   3.556  0.3458  0.1211 -1.2923
 4987SOL    HW215861   0.313   6.384   3.560 -0.9312 -0.5702 -3.2292
 4988SOL     OW15862   1.825   6.463   0.288 -0.5041 -0.1317  0.7109
 4988SOL    HW115863   1.876   6.490   0.370  2.3826 -2.4160 -0.1871
 4988SOL    HW215864   1.835   6.534   0.218  0.3218  0.0846  1.0319
 4989SOL     OW15865   5.187   6.463   0.165 -0.9991 -0.3839  0.0021
 4989SOL    HW115866   5.172   6.392   0.095  3.1778 -1.2861 -0.2487
 4989SOL    HW215867   5.272   6.512   0.145 -0.4351  0.3934  3.5819
 4990SOL     OW15868   6.660   1.644   6.065 -0.4852  0.1137 -0.0412
 4990SOL    HW115869   6.721   1.714   6.027 -0.9746  0.3821 -0.3439
 4990SOL    HW215870   6.571   1.685   6.084 -1.2641 -0.7572 -1.6560
 4991SOL     OW15871   3.874   2.332   0.171  0.4467  0.3205 -0.3247
 4991SOL    HW115872   3.799   2.392   0.199  2.1716  1.5159  2.0615
 4991SOL    HW215873   3.855   2.239   0.201 -0.9679  0.1797 -1.5538
 4992SOL     OW15874   3.954   0.055   0.061 -0.1649 -0.9394 -0.4482
 4992SOL    HW115875   3.867   0.073   0.108  0.0484 -0.7641 -0.1221
 4992SOL    HW215876   4.013   0.135   0.069 -0.3761 -0.6522 -1.5741
 4993SOL     OW15877   0.481   5.340   2.722 -0.2435  0.4623  0.0424
 4993SOL    HW115878   0.535   5.349   2.638  2.5806  1.8907  1.8587
 4993SOL    HW215879   0.457   5.244   2.736  1.4392 -0.1716 -1.1275
 4994SOL     OW15880   2.834   5.483   4.674 -0.1098 -0.1416 -0.1939
 4994SOL    HW115881   2.781   5.550   4.727  0.5224 -0.4059  0.8103
 4994SOL    HW215882   2.776   5.443   4.603 -1.7860 -1.5555  1.8439
 4995SOL     OW15883   1.290   4.857   4.500 -0.0716 -0.6203  0.2037
 4995SOL    HW115884   1.371   4.835   4.447 -0.5707 -1.5569 -0.1902
 4995SOL    HW215885   1.247   4.773   4.532 -0.6857 -0.1245  0.7172
 4996SOL     OW15886   5.684   3.929   3.747  0.1807 -0.5688  0.0270
 4996SOL    HW115887   5.627   3.953   3.669 -2.7656  1.0725  2.4531
 4996SOL    HW215888   5.691   3.829   3.753 -0.2350 -0.7502 -1.8189
 4997SOL     OW15889   4.797   1.868   4.341 -0.1734  0.2735 -0.6866
 4997SOL    HW115890   4.747   1.905   4.420  2.7847  0.6870  1.1598
 4997SOL    HW215891   4.772   1.919   4.259 -2.1784  0.9041  0.2403
 4998SOL     OW15892   2.530   2.519   1.144  0.2018  0.5953  0.1104
 4998SOL    HW115893   2.454   2.459   1.118 -1.4719  2.5432  0.1990
 4998SOL    HW215894   2.583   2.477   1.218 -0.1861 -1.2366 -0.6077
 4999SOL     OW15895   2.806   5.292   5.489 -0.1510  0.4441  0.1765
 4999SOL    HW115896   2.831   5.217   5.427  0.3063  0.7874 -0.0564
 4999SOL    HW215897   2.724   5.266   5.540 -0.0845 -0.1570 -0.0096
 5000SOL     OW15898   0.424   3.930   6.194  0.1325 -0.3410  0.3236
 5000SOL    HW115899   0.429   3.848   6.137  0.2695 -0.0971 -0.0175
 5000SOL    HW215900   0.443   4.011   6.138  1.2368 -0.1795  0.8982
 5001SOL     OW15901   5.566   0.540   1.525  0.3985 -0.0200  0.9380
 5001SOL    HW115902   5.492   0.534   1.458  0.3471 -4.9808  1.0352
 5001SOL    HW215903   5.529   0.559   1.615 -0.4019  0.1628  0.5785
 5002SOL     OW15904   4.780   1.155   5.951 -0.0532 -0.5460  0.0090
 5002SOL    HW115905   4.687   1.127   5.973 -0.4145  0.0043 -0.7806
 5002SOL    HW215906   4.797   1.247   5.986  0.3697 -0.8456  0.6029
 5003SOL     OW15907   4.596   0.565   5.242 -0.3314 -0.3245 -0.0543
 5003SOL    HW115908   4.618   0.502   5.317  0.1025 -0.3748 -0.2208
 5003SOL    HW215909   4.595   0.659   5.276  1.8510 -0.1423 -0.3763
 5004SOL     OW15910   6.738   0.951   1.451  0.1749 -0.0170 -0.0650
 5004SOL    HW115911   6.779   1.005   1.378  1.1285  1.5796  1.5588
 5004SOL    HW215912   6.672   1.007   1.501 -0.1190 -0.9163  0.5924
 5005SOL     OW15913   2.201   2.364   4.964 -0.8793 -0.1516 -0.6578
 5005SOL    HW115914   2.243   2.317   4.887 -3.8170 -0.2010 -2.3998
 5005SOL    HW215915   2.165   2.297   5.029 -2.0687 -0.2740 -1.4140
 5006SOL     OW15916   3.516   6.414   1.472 -0.7985  0.0182 -0.2192
 5006SOL    HW115917   3.505   6.509   1.444 -1.7654  0.1711  0.6284
 5006SOL    HW215918   3.576   6.408   1.551  1.1523 -0.3264 -1.6476
 5007SOL     OW15919   1.962   1.396   0.030  0.0048  0.1201  0.0860
 5007SOL    HW115920   1.978   1.313  -0.022  0.0484 -0.6074  1.2281
 5007SOL    HW215921   1.973   1.476  -0.029 -0.5968 -0.7037 -1.1524
 5008SOL     OW15922   5.539   2.423   6.152 -0.2589  0.0986 -0.2241
 5008SOL    HW115923   5.628   2.379   6.158  1.5922  3.4425 -0.8707
 5008SOL    HW215924   5.498   2.405   6.062  0.7273  0.1838 -0.6956
 5009SOL     OW15925   2.077   5.550   0.620 -0.2121 -0.6274 -0.1261
 5009SOL    HW115926   2.051   5.519   0.529 -1.8824  0.6133 -0.1293
 5009SOL    HW215927   2.108   5.646   0.615  0.4684 -0.8001  0.5081
 5010SOL     OW15928   0.831   2.154   2.836  0.7629 -0.0392 -0.3473
 5010SOL    HW115929   0.783   2.068   2.848  0.5741  0.3572  2.4746
 5010SOL    HW215930   0.916   2.153   2.888  2.1091  0.5785 -2.3866
 5011SOL     OW15931   2.727   6.645   4.145  0.2656  0.1458  0.3826
 5011SOL    HW115932   2.802   6.579   4.151  0.3192  0.3278  2.0986
 5011SOL    HW215933   2.757   6.733   4.182 -0.0918  0.8905 -1.0482
 5012SOL     OW15934   1.591   4.618   0.938 -0.4166 -0.6054  0.0644
 5012SOL    HW115935   1.641   4.625   1.024  0.3660  0.5458 -0.4669
 5012SOL    HW215936   1.650   4.645   0.862 -2.5446  3.6349 -0.3670
 5013SOL     OW15937   2.551   6.263   0.763 -0.0294  0.3434  0.1061
 5013SOL    HW115938   2.611   6.210   0.703  0.2789  0.6185  0.1689
 5013SOL    HW215939   2.456   6.237   0.746  0.2044 -1.5779  1.4457
 5014SOL     OW15940   5.903   6.215   5.310  0.3536 -0.3933  0.3262
 5014SOL    HW115941   5.961   6.293   5.287  0.4585 -0.3533  0.7281
 5014SOL    HW215942   5.807   6.237   5.292  0.5146 -0.7372 -1.1346
 5015SOL     OW15943   3.824   5.827   5.242  0.0680 -0.5786  0.1666
 5015SOL    HW115944   3.823   5.926   5.232  0.3129 -0.6969 -1.2335
 5015SOL    HW215945   3.736   5.796   5.276 -0.4457  0.0163 -0.5999
 5016SOL     OW15946   3.996   5.440   6.466 -0.5132 -0.4772  0.1390
 5016SOL    HW115947   3.940   5.501   6.523 -1.2839  0.1177 -1.2258
 5016SOL    HW215948   3.961   5.346   6.473 -0.9344 -0.3148  0.2361
 5017SOL     OW15949   3.199   5.261   3.417  0.4558  0.7219 -0.2186
 5017SOL    HW115950   3.214   5.162   3.416  0.0752  0.6636 -0.4461
 5017SOL    HW215951   3.205   5.295   3.511 -0.9453  0.2362  0.0767
 5018SOL     OW15952   4.684   0.291   1.629 -0.4972 -0.4715 -0.4774
 5018SOL    HW115953   4.734   0.377   1.638  0.1374 -0.6695 -1.9662
 5018SOL    HW215954   4.704   0.233   1.708  1.5370 -0.4957 -0.9571
 5019SOL     OW15955   1.367   3.568   6.109 -0.5192  0.2993  0.2666
 5019SOL    HW115956   1.347   3.663   6.132 -0.0316  0.7509 -1.0763
 5019SOL    HW215957   1.458   3.544   6.143 -0.5385  0.3962  0.3854
 5020SOL     OW15958   4.380   2.580   0.572  0.2626 -0.2653  0.2721
 5020SOL    HW115959   4.312   2.528   0.625  0.5937 -0.0091  0.9650
 5020SOL    HW215960   4.361   2.678   0.581 -0.8757 -0.2521 -1.7331
 5021SOL     OW15961   2.523   0.548   3.964  0.8662  0.2546 -0.1912
 5021SOL    HW115962   2.602   0.591   4.007  0.0552  0.0987  1.5435
 5021SOL    HW215963   2.509   0.457   4.003 -0.2174  0.3162 -0.4009
 5022SOL     OW15964   2.353   4.648   5.498  0.0058  0.3766  0.4984
 5022SOL    HW115965   2.446   4.613   5.492 -0.0980  0.1361  0.2682
 5022SOL    HW215966   2.349   4.720   5.567  0.2040 -0.1305  1.0543
 5023SOL     OW15967   1.989   1.241   4.508  0.8948  0.2205  0.6677
 5023SOL    HW115968   1.974   1.143   4.518 -1.4558  0.4713  0.3692
 5023SOL    HW215969   1.961   1.288   4.592 -0.5537  0.7977 -0.0904
 5024SOL     OW15970   6.892   0.966   0.722  0.1092 -0.1723 -0.0383
 5024SOL    HW115971   6.831   1.031   0.768 -1.3473  0.2606 -2.4146
 5024SOL    HW215972   6.925   1.007   0.637  0.5960 -1.8968 -0.7061
 5025SOL     OW15973   0.322   0.052   4.648  0.2181 -0.0079  0.4189
 5025SOL    HW115974   0.321   0.128   4.583  3.1578  0.6941  1.0215
 5025SOL    HW215975   0.242   0.057   4.707 -0.8292  1.2492 -1.0405
 5026SOL     OW15976   3.199   3.153   1.446  0.0093  0.2335 -0.1148
 5026SOL    HW115977   3.190   3.240   1.397 -0.2279  0.6974  0.7249
 5026SOL    HW215978   3.251   3.088   1.391 -2.0186  0.0208 -1.9002
 5027SOL     OW15979   3.569   1.745   6.362  0.8229 -0.8395 -0.6367
 5027SOL    HW115980   3.644   1.709   6.418  0.4980 -1.1324 -0.3873
 5027SOL    HW215981   3.499   1.785   6.422  1.3031  0.4863 -0.9106
 5028SOL     OW15982   5.326   1.331   6.988 -0.1682 -0.3095  0.0173
 5028SOL    HW115983   5.313   1.287   6.900 -0.7784 -0.9957  0.4383
 5028SOL    HW215984   5.423   1.340   7.008  0.0270  1.2207 -1.3916
 5029SOL     OW15985   0.077   0.867   5.380 -0.0071  0.1161 -0.0409
 5029SOL    HW115986   0.173   0.888   5.358 -0.7065  1.3218 -2.2498
 5029SOL    HW215987   0.074   0.800   5.455  2.5411 -0.0279  0.0316
 5030SOL     OW15988   6.798   6.156   2.934  0.2994  0.0942  0.2260
 5030SOL    HW115989   6.871   6.159   2.866 -0.4574  0.0862 -0.5979
 5030SOL    HW215990   6.755   6.066   2.933 -0.4784  0.4565 -0.1165
 5031SOL     OW15991   3.708   5.642   1.293 -0.7147 -0.6051  0.4163
 5031SOL    HW115992   3.669   5.658   1.383 -0.9872 -0.5252  0.2861
 5031SOL    HW215993   3.806   5.657   1.296 -0.6595 -1.0207  0.8011
 5032SOL     OW15994   6.347   1.521   0.891  0.4627  0.9544  0.7756
 5032SOL    HW115995   6.329   1.619   0.898 -1.4081  0.9047 -1.6289
 5032SOL    HW215996   6.261   1.471   0.899  0.9611 -0.2366 -0.7955
 5033SOL     OW15997   2.378   4.964   3.326 -0.4013  0.9846  0.1216
 5033SOL    HW115998   2.332   4.992   3.410  2.4689 -2.1961  3.0528
 5033SOL    HW215999   2.343   4.875   3.297  0.2988  0.9633 -0.7120
 5034SOL     OW16000   1.518   0.853   6.420 -0.3364  0.7306 -0.4791
 5034SOL    HW116001   1.587   0.922   6.445 -1.3178  1.6947 -0.3716
 5034SOL    HW216002   1.433   0.872   6.468 -0.4414 -0.9730  0.0853
 5035SOL     OW16003   1.831   5.188   5.420  0.2726  0.3459 -0.0991
 5035SOL    HW116004   1.821   5.116   5.351 -1.4064  1.0800 -0.6632
 5035SOL    HW216005   1.789   5.160   5.505  0.5836  0.2402  0.0227
 5036SOL     OW16006   1.774   3.743   1.264 -0.6636 -0.4151  0.1540
 5036SOL    HW116007   1.742   3.812   1.329  0.8802  2.6592 -2.0800
 5036SOL    HW216008   1.864   3.710   1.292 -0.6831 -0.2727  0.3871
 5037SOL     OW16009   5.010   6.365   6.116 -0.0360  0.0727  0.2111
 5037SOL    HW116010   4.981   6.287   6.172 -1.1522  0.8024  0.7005
 5037SOL    HW216011   4.959   6.366   6.030  0.7383 -0.3134 -0.2627
 5038SOL     OW16012   0.210   5.933   0.873  0.3161 -0.6147 -0.0437
 5038SOL    HW116013   0.238   6.003   0.938 -1.1392  0.4970 -0.5391
 5038SOL    HW216014   0.125   5.890   0.905  0.2062 -0.8556 -0.6407
 5039SOL     OW16015   1.712   5.080   0.330 -0.0442  0.3703 -0.0964
 5039SOL    HW116016   1.786   5.118   0.387  1.1925 -1.4390 -0.4145
 5039SOL    HW216017   1.634   5.142   0.332  1.3221  2.1661  0.5828
 5040SOL     OW16018   2.528   6.521   4.906  0.1491  0.3931 -0.0627
 5040SOL    HW116019   2.519   6.422   4.922  2.0099  0.1401 -0.3102
 5040SOL    HW216020   2.480   6.546   4.823  1.0789 -0.6542 -0.9529
 5041SOL     OW16021   5.769   5.638   3.741 -0.4786 -0.5964 -0.1660
 5041SOL    HW116022   5.867   5.634   3.724 -0.3587 -2.3763  0.6764
 5041SOL    HW216023   5.751   5.613   3.837 -1.7710 -0.5269 -0.3695
 5042SOL     OW16024   2.068   2.565   1.001  0.2041  0.4926  0.2945
 5042SOL    HW116025   2.092   2.662   1.000 -0.8526  0.7642 -0.1303
 5042SOL    HW216026   2.078   2.529   1.094 -1.5102  1.5718  0.9485
 5043SOL     OW16027   6.876   7.001   1.997  0.3294 -0.0233  0.2745
 5043SOL    HW116028   6.913   6.912   2.024 -0.1265 -0.0685  0.7604
 5043SOL    HW216029   6.915   7.072   2.055  0.8175  0.1173 -0.2210
 5044SOL     OW16030   1.048   5.608   0.994 -0.0973  0.2619 -0.0606
 5044SOL    HW116031   1.115   5.617   0.920 -0.5017 -0.4074 -0.5151
 5044SOL    HW216032   0.960   5.646   0.964 -0.8619 -1.8821 -0.7344
 5045SOL     OW16033   0.837   0.865   3.528 -0.7291 -0.0614  0.4972
 5045SOL    HW116034   0.798   0.901   3.444 -1.0471  2.2200  1.5431
 5045SOL    HW216035   0.765   0.852   3.596 -0.2630 -0.3285  0.9514
 5046SOL     OW16036   6.361   1.701   3.344 -0.0934  0.2294 -0.2693
 5046SOL    HW116037   6.269   1.735   3.324 -0.0818 -0.0228 -0.7834
 5046SOL    HW216038   6.412   1.694   3.258  0.5488  0.7704  0.0653
 5047SOL     OW16039   0.630   4.757   6.620 -0.3112 -0.1739  0.0712
 5047SOL    HW116040   0.618   4.854   6.599  1.0169  0.1038  0.5063
 5047SOL    HW216041   0.675   4.747   6.709 -0.9582 -1.2095  0.2981
 5048SOL     OW16042   1.689   1.388   3.766 -0.2160 -0.6408 -0.1600
 5048SOL    HW116043   1.642   1.415   3.849  1.1205 -0.8613  0.7027
 5048SOL    HW216044   1.697   1.288   3.762  0.5814 -0.5875 -0.0508
 5049SOL     OW16045   4.915   6.615   4.545  0.2882 -0.4348  0.3960
 5049SOL    HW116046   4.899   6.713   4.534 -4.7668 -0.9673  0.7725
 5049SOL    HW216047   4.949   6.577   4.458  0.7951  1.3490 -0.2392
 5050SOL     OW16048   4.339   2.371   4.454  0.2065  0.0252 -0.9262
 5050SOL    HW116049   4.397   2.450   4.432 -1.0579  1.0439 -0.7376
 5050SOL    HW216050   4.353   2.346   4.550 -1.0975  1.5746 -0.2792
 5051SOL     OW16051   4.758   6.469   2.822 -0.3717  0.3969 -0.2893
 5051SOL    HW116052   4.717   6.555   2.791  0.6369  1.6151  1.5552
 5051SOL    HW216053   4.752   6.463   2.922  2.5643  0.0109 -0.0373
 5052SOL     OW16054   0.582   2.451   4.967 -0.0523  0.7112  0.4158
 5052SOL    HW116055   0.674   2.488   4.956  0.8532 -1.0831  1.3926
 5052SOL    HW216056   0.554   2.405   4.882  0.5056  0.1628  0.5193
 5053SOL     OW16057   6.762   3.365   3.914  0.0744  0.2985  0.2354
 5053SOL    HW116058   6.715   3.451   3.897 -1.3594 -0.0841  1.9800
 5053SOL    HW216059   6.701   3.301   3.961  1.0770 -1.7186 -1.0441
 5054SOL     OW16060   6.336   3.522   6.346  0.1564 -0.0570 -0.4296
 5054SOL    HW116061   6.362   3.476   6.431 -0.3137 -0.3011 -0.4177
 5054SOL    HW216062   6.363   3.619   6.352  1.8461 -0.4611 -0.7651
 5055SOL     OW16063   2.221   4.283   2.513 -0.4594 -0.3892 -0.6813
 5055SOL    HW116064   2.285   4.292   2.436  1.3210 -3.3925  0.2883
 5055SOL    HW216065   2.128   4.300   2.481  0.4143  0.4248 -3.0167
 5056SOL     OW16066   5.486   5.498   3.618 -0.0714 -0.3697  0.4494
 5056SOL    HW116067   5.572   5.509   3.667  0.4751 -2.2728  0.0111
 5056SOL    HW216068   5.418   5.457   3.679  0.5455 -2.5355 -0.2088
 5057SOL     OW16069   4.493   6.749   0.172  0.1167 -0.6317 -0.2459
 5057SOL    HW116070   4.535   6.779   0.257 -1.5910 -0.2892  0.5306
 5057SOL    HW216071   4.544   6.672   0.134  1.5691 -0.0499  0.4660
 5058SOL     OW16072   0.972   4.468   1.258 -0.2481 -0.1088  0.4055
 5058SOL    HW116073   0.913   4.504   1.330  2.1373  0.6824  2.0838
 5058SOL    HW216074   1.067   4.469   1.289  0.5055 -3.2805 -1.3745
 5059SOL     OW16075   5.116   3.554   2.531 -0.2462  0.1753 -0.3809
 5059SOL    HW116076   5.183   3.487   2.563  0.7614  0.8420 -1.0522
 5059SOL    HW216077   5.073   3.521   2.447 -1.7539 -0.8530  0.7341
 5060SOL     OW16078   5.062   2.783   2.682 -0.1167 -0.4237  0.3649
 5060SOL    HW116079   4.982   2.765   2.625 -0.8071 -2.0227  1.7432
 5060SOL    HW216080   5.035   2.839   2.760 -0.2276 -1.9765  1.4924
 5061SOL     OW16081   5.862   6.519   2.443  0.5135 -0.0854  0.6820
 5061SOL    HW116082   5.893   6.562   2.528  1.6868  0.2661  0.1030
 5061SOL    HW216083   5.833   6.425   2.462  0.3564  0.1269  1.5356
 5062SOL     OW16084   5.030   3.656   1.708  0.2864  0.1594 -0.2641
 5062SOL    HW116085   5.122   3.641   1.743  0.8864  0.1329 -1.7902
 5062SOL    HW216086   5.031   3.657   1.608 -1.1191  1.7585 -0.3197
 5063SOL     OW16087   4.052   6.442   5.914  0.0952 -0.0113  0.5168
 5063SOL    HW116088   4.029   6.537   5.894 -1.3915 -0.2630  0.8400
 5063SOL    HW216089   4.118   6.439   5.989 -0.9654  0.7709  1.5321
 5064SOL     OW16090   0.237   5.374   0.179  0.1589 -0.1389  0.1212
 5064SOL    HW116091   0.244   5.315   0.259  1.4290  0.0346  0.1590
 5064SOL    HW216092   0.196   5.461   0.205 -0.1786 -0.3794  0.4070
 5065SOL     OW16093   4.988   2.593   4.070 -0.3326  0.7860 -0.6035
 5065SOL    HW116094   5.013   2.681   4.030  0.4118  0.4551 -0.8911
 5065SOL    HW216095   4.889   2.581   4.066 -0.5637  2.0722  0.4092
 5066SOL     OW16096   5.754   1.145   3.287 -0.1106 -0.2789  0.1580
 5066SOL    HW116097   5.697   1.220   3.254 -0.3130 -0.1755  0.7378
 5066SOL    HW216098   5.778   1.085   3.210 -0.2467  0.1755 -0.2444
 5067SOL     OW16099   3.048   1.762   2.453 -0.2607 -0.4240  0.2534
 5067SOL    HW116100   3.007   1.747   2.543  0.5720 -0.8725  0.5765
 5067SOL    HW216101   3.100   1.680   2.427  0.2174  0.0290 -0.2429
 5068SOL     OW16102   6.260   1.730   4.170  0.0288 -0.2367 -0.1161
 5068SOL    HW116103   6.229   1.746   4.264 -1.2960  0.8675 -0.7012
 5068SOL    HW216104   6.360   1.732   4.167  0.0818  1.1671  1.0582
 5069SOL     OW16105   4.165   2.432   1.692 -0.0557 -0.0429 -0.4594
 5069SOL    HW116106   4.075   2.390   1.686 -0.6119  0.9310  0.7346
 5069SOL    HW216107   4.231   2.365   1.727 -0.9736  0.0778  1.6430
 5070SOL     OW16108   6.381   2.303   6.296 -0.0260 -0.3485 -0.0898
 5070SOL    HW116109   6.286   2.313   6.266 -0.0475 -2.7709 -0.9974
 5070SOL    HW216110   6.441   2.355   6.234 -0.6402  0.2865 -0.1641
 5071SOL     OW16111   1.560   5.653   0.318  0.5216  0.4350 -0.1467
 5071SOL    HW116112   1.467   5.648   0.353  0.8136 -1.9050  0.4899
 5071SOL    HW216113   1.577   5.744   0.281 -0.6248  2.3388  3.5343
 5072SOL     OW16114   3.989   0.533   4.013 -0.3623 -0.4992  0.1784
 5072SOL    HW116115   3.922   0.475   3.966  1.3100 -1.5794 -0.9720
 5072SOL    HW216116   4.075   0.483   4.024  0.3828  0.9609  1.3205
 5073SOL     OW16117   5.236   2.971   2.387 -0.0096  0.5035 -0.5348
 5073SOL    HW116118   5.191   2.898   2.335  1.8523 -1.7352  0.8263
 5073SOL    HW216119   5.207   3.060   2.351 -0.2684 -0.8760 -4.1206
 5074SOL     OW16120   6.068   1.568   1.636 -0.2185 -0.2495 -0.4408
 5074SOL    HW116121   6.069   1.473   1.606 -0.5381 -0.5078  0.3541
 5074SOL    HW216122   6.062   1.628   1.556  3.0823 -0.7566 -1.2438
 5075SOL     OW16123   0.820   4.128   1.301  0.6212  0.0391  0.1741
 5075SOL    HW116124   0.774   4.186   1.234  0.2541  0.6427  0.9259
 5075SOL    HW216125   0.841   4.182   1.383 -0.6024 -1.1094  1.2844
 5076SOL     OW16126   4.267   3.854   6.375 -0.1317  0.0996  0.4532
 5076SOL    HW116127   4.335   3.895   6.436 -2.1552  3.1646  0.8690
 5076SOL    HW216128   4.304   3.851   6.282  0.5904  1.8131  0.6392
 5077SOL     OW16129   6.591   2.413   6.119  0.1676 -0.1306  0.0757
 5077SOL    HW116130   6.610   2.368   6.032  3.1971  0.2677  0.4128
 5077SOL    HW216131   6.673   2.410   6.176 -1.0297  1.6319  2.0181
 5078SOL     OW16132   3.418   6.257   3.291 -0.1853  0.1193  0.5655
 5078SOL    HW116133   3.516   6.277   3.280 -0.4835  1.0546 -0.7321
 5078SOL    HW216134   3.365   6.338   3.265 -1.3540 -0.9577 -0.5766
 5079SOL     OW16135   3.988   0.041   0.687  0.0622  0.3963 -0.0353
 5079SOL    HW116136   3.958   0.035   0.782 -3.2005  1.5767 -0.8589
 5079SOL    HW216137   4.033   0.129   0.672  0.8147  0.1015  0.4434
 5080SOL     OW16138   5.191   0.870   5.828  0.1595  0.2299 -0.0434
 5080SOL    HW116139   5.122   0.907   5.765 -0.4769 -0.3536  0.2958
 5080SOL    HW216140   5.224   0.782   5.792  1.4596  0.9624 -0.7067
 5081SOL     OW16141   3.814   4.042   3.124  0.1199 -0.0453 -0.0213
 5081SOL    HW116142   3.731   4.076   3.168  1.0088 -0.4408  2.1215
 5081SOL    HW216143   3.810   4.059   3.026 -2.0936  0.7060  0.1519
 5082SOL     OW16144   4.674   2.181   2.451  0.0226 -0.7190 -0.0936
 5082SOL    HW116145   4.639   2.231   2.372 -0.4718 -1.2463 -0.2179
 5082SOL    HW216146   4.616   2.101   2.468 -0.2417 -0.2861  1.1666
 5083SOL     OW16147   0.144   6.851   2.248  0.3759 -0.1677 -0.5047
 5083SOL    HW116148   0.094   6.804   2.174  1.1520 -0.0352 -1.1311
 5083SOL    HW216149   0.140   6.949   2.233 -0.5334 -0.0561  0.3467
 5084SOL     OW16150   1.387   0.415   4.077  0.2792  0.7010  0.2483
 5084SOL    HW116151   1.340   0.400   3.990  0.6018  1.0481  0.0123
 5084SOL    HW216152   1.343   0.361   4.149  1.1253 -1.0399 -0.4853
 5085SOL     OW16153   4.375   0.049   6.182 -1.0986 -0.2764  0.4226
 5085SOL    HW116154   4.329   0.027   6.096 -1.3116 -0.1277  0.4970
 5085SOL    HW216155   4.434   0.129   6.168 -2.5875  0.9481  0.8677
 5086SOL     OW16156   4.076   3.149   0.379  0.2309 -0.6359 -0.4435
 5086SOL    HW116157   3.978   3.156   0.366  0.1807 -2.6777 -1.6581
 5086SOL    HW216158   4.100   3.176   0.472 -1.2874  1.0248 -0.4751
 5087SOL     OW16159   1.965   3.036   6.834 -0.0696 -0.1805  0.0869
 5087SOL    HW116160   2.005   3.127   6.847 -0.8882 -0.0960  2.6037
 5087SOL    HW216161   2.030   2.967   6.866 -0.7160 -0.2215  1.3927
 5088SOL     OW16162   0.753   5.797   5.902 -0.3152  0.0729  0.0091
 5088SOL    HW116163   0.771   5.839   5.991  1.5258  1.4809 -0.9361
 5088SOL    HW216164   0.655   5.799   5.883 -0.8233 -0.8856  2.2471
 5089SOL     OW16165   0.196   1.388   3.546  0.2835  0.4308 -0.2249
 5089SOL    HW116166   0.295   1.400   3.559  0.4563  0.4489 -1.4274
 5089SOL    HW216167   0.147   1.425   3.625  1.2055  1.1482  0.0276
 5090SOL     OW16168   4.722   1.826   4.923  0.0353  0.0189  0.2803
 5090SOL    HW116169   4.746   1.900   4.860  0.1066 -0.6912 -0.5479
 5090SOL    HW216170   4.665   1.759   4.875 -2.8710  1.1456  1.8788
 5091SOL     OW16171   0.545   0.569   4.218  0.0999 -0.6639  0.1539
 5091SOL    HW116172   0.612   0.496   4.222 -0.6508 -1.3296  1.0688
 5091SOL    HW216173   0.548   0.613   4.128 -1.6628 -3.9738 -1.7226
 5092SOL     OW16174   3.671   0.047   1.214 -0.1257  0.4646 -0.0389
 5092SOL    HW116175   3.760   0.067   1.256 -0.1371  0.0830  0.1795
 5092SOL    HW216176   3.601   0.105   1.255 -0.1319  0.1192  0.4658
 5093SOL     OW16177   0.583   6.907   1.640  0.0525 -0.0798  0.6304
 5093SOL    HW116178   0.548   6.859   1.559  0.5067  0.2648  0.2169
 5093SOL    HW216179   0.676   6.876   1.659  0.0889  0.1198  0.7853
 5094SOL     OW16180   1.572   2.134   6.975  0.7568  0.1624 -0.1498
 5094SOL    HW116181   1.613   2.224   6.963 -1.1422  1.1950  0.7727
 5094SOL    HW216182   1.505   2.117   6.902  1.1503 -0.5703 -0.3628
 5095SOL     OW16183   2.145   0.634   6.659  0.2242 -0.0630  0.0545
 5095SOL    HW116184   2.195   0.649   6.744  0.0750  1.2273 -0.0791
 5095SOL    HW216185   2.206   0.647   6.581 -0.1903  1.0722 -0.0955
 5096SOL     OW16186   0.842   0.476   1.701  0.1534  0.5635  0.2002
 5096SOL    HW116187   0.809   0.570   1.697 -0.4685  0.3190 -0.7206
 5096SOL    HW216188   0.766   0.415   1.722  1.0654  0.5040  3.8652
 5097SOL     OW16189   1.861   5.989   2.640 -0.0814 -0.0089 -0.0687
 5097SOL    HW116190   1.804   5.953   2.714 -1.7427 -0.5616 -1.5371
 5097SOL    HW216191   1.841   6.086   2.627  1.2810  0.4689  1.1005
 5098SOL     OW16192   0.022   3.520   5.291  0.2879 -0.5338  0.3411
 5098SOL    HW116193   0.042   3.435   5.244  2.5532  0.5974 -0.9247
 5098SOL    HW216194   0.108   3.563   5.319 -0.8456  0.7494  2.0652
 5099SOL     OW16195   4.291   6.877   2.091  0.5816  0.6202 -0.1461
 5099SOL    HW116196   4.378   6.860   2.044  1.9781  2.4274  1.6063
 5099SOL    HW216197   4.304   6.867   2.189 -1.7355 -0.9702  0.0828
 5100SOL     OW16198   0.110   2.340   6.039 -0.3041  0.0771 -0.1711
 5100SOL    HW116199   0.138   2.260   6.093 -1.8220  1.8813  3.6671
 5100SOL    HW216200   0.187   2.403   6.031 -0.3688  0.3439  1.0882
 5101SOL     OW16201   2.075   0.112   2.431 -0.2638 -0.2858 -0.7367
 5101SOL    HW116202   2.161   0.072   2.463  0.6536  3.5990  2.3712
 5101SOL    HW216203   2.092   0.173   2.354 -0.4432 -0.3367 -0.8191
 5102SOL     OW16204   4.309   1.115   2.843 -0.1562 -0.3628 -0.3740
 5102SOL    HW116205   4.331   1.051   2.917  1.5266 -1.7599 -1.9885
 5102SOL    HW216206   4.374   1.191   2.844  0.2961 -0.7379 -0.8057
 5103SOL     OW16207   1.380   3.171   3.050 -0.1931  0.1036  0.3732
 5103SOL    HW116208   1.301   3.165   2.989 -0.8519 -0.0558  1.2137
 5103SOL    HW216209   1.352   3.147   3.143  0.1648  2.9060  1.2927
 5104SOL     OW16210   3.697   1.330   5.531  0.3697  0.0554  0.4106
 5104SOL    HW116211   3.765   1.384   5.481  0.9719 -0.3526  0.7826
 5104SOL    HW216212   3.621   1.308   5.469  0.4941  0.6384  0.0338
 5105SOL     OW16213   0.948   4.311   1.794  0.1519  0.0004 -0.1098
 5105SOL    HW116214   0.936   4.243   1.867 -0.2769 -1.5852 -1.6047
 5105SOL    HW216215   1.044   4.311   1.764 -0.0444 -0.6365 -0.7510
 5106SOL     OW16216   0.549   5.933   3.248 -0.3757 -0.3518 -0.0095
 5106SOL    HW116217   0.529   6.026   3.219 -0.3679 -0.0679  0.8610
 5106SOL    HW216218   0.615   5.892   3.185 -0.7911  0.0317 -0.7074
 5107SOL     OW16219   6.040   3.067   4.209 -0.1601  0.3761  0.3173
 5107SOL    HW116220   6.088   3.088   4.294 -0.3036  0.2609  0.4267
 5107SOL    HW216221   5.945   3.042   4.229  0.3653 -1.7895  0.3475
 5108SOL     OW16222   0.823   2.164   1.657 -0.1406  0.0917  0.2448
 5108SOL    HW116223   0.748   2.147   1.593 -1.6304 -0.7885  2.1422
 5108SOL    HW216224   0.890   2.090   1.651 -0.5728 -0.2935  0.1353
 5109SOL     OW16225   3.724   0.469   1.506 -0.3618 -0.6257 -0.0377
 5109SOL    HW116226   3.626   0.481   1.522 -0.0652  3.0637  0.0102
 5109SOL    HW216227   3.741   0.454   1.409 -0.9330 -0.3615 -0.1834
 5110SOL     OW16228   1.539   5.481   3.811  0.1435 -0.1640  0.2079
 5110SOL    HW116229   1.449   5.485   3.767  0.0629  0.0819  0.3938
 5110SOL    HW216230   1.586   5.569   3.799  0.4738 -0.3843 -0.1304
 5111SOL     OW16231   0.905   0.954   2.966  0.1289  0.5331 -0.4552
 5111SOL    HW116232   0.885   0.864   2.928 -1.2662  0.9762 -0.8048
 5111SOL    HW216233   1.004   0.961   2.983  0.4482 -0.5756 -1.6584
 5112SOL     OW16234   1.197   1.306   6.315 -0.6951  0.7307 -0.0115
 5112SOL    HW116235   1.285   1.348   6.337  0.2105 -1.0433 -0.0156
 5112SOL    HW216236   1.144   1.368   6.257  1.5805  0.9140 -2.0928
 5113SOL     OW16237   1.622   5.471   6.902  0.3658 -0.2405  0.3190
 5113SOL    HW116238   1.572   5.436   6.982  1.1017 -1.1828  0.3848
 5113SOL    HW216239   1.616   5.405   6.827  0.2403  0.3349 -0.1862
 5114SOL     OW16240   1.997   2.627   2.731  0.2368 -0.5030  0.2560
 5114SOL    HW116241   1.965   2.625   2.637 -0.0736 -0.5229  0.3621
 5114SOL    HW216242   1.956   2.704   2.780  1.1125  0.0634  0.1262
 5115SOL     OW16243   3.980   6.144   4.467 -0.7569 -0.5437 -0.3929
 5115SOL    HW116244   3.984   6.178   4.373 -2.1998  0.9442  0.0407
 5115SOL    HW216245   3.910   6.194   4.518 -1.5016 -2.7553  0.9083
 5116SOL     OW16246   4.969   1.548   3.251 -0.1203  0.1888  0.3402
 5116SOL    HW116247   5.009   1.469   3.297  0.0062 -0.8008 -1.3733
 5116SOL    HW216248   4.874   1.528   3.228  0.3780 -0.1633 -1.5612
 5117SOL     OW16249   2.570   2.116   4.546 -0.4693 -0.4531 -0.2951
 5117SOL    HW116250   2.551   2.197   4.601 -0.5144  0.6372 -1.8460
 5117SOL    HW216251   2.662   2.083   4.567  0.0234  0.7383 -0.4747
 5118SOL     OW16252   2.764   2.088   0.117 -0.5430 -0.0853  0.3585
 5118SOL    HW116253   2.705   2.034   0.177  0.7289 -0.3713  1.4154
 5118SOL    HW216254   2.804   2.163   0.170 -1.4254  1.2687 -0.8176
 5119SOL     OW16255   3.607   5.268   1.398 -0.5843 -0.2175 -0.4810
 5119SOL    HW116256   3.698   5.260   1.440  0.5755  1.0927 -2.6051
 5119SOL    HW216257   3.558   5.344   1.440 -1.0936 -1.4412  1.2559
 5120SOL     OW16258   4.099   4.703   0.303 -0.0630  0.0449 -0.5276
 5120SOL    HW116259   4.065   4.795   0.286 -2.6771 -0.7631 -0.0890
 5120SOL    HW216260   4.105   4.687   0.401 -4.3073 -1.6393 -0.3036
 5121SOL     OW16261   3.802   1.763   0.726  0.7312 -0.2441 -0.2001
 5121SOL    HW116262   3.873   1.830   0.747  2.2194 -2.0785  0.9467
 5121SOL    HW216263   3.752   1.741   0.810  1.0863 -1.4381 -0.2796
 5122SOL     OW16264   1.779   6.964   3.317  0.1956 -0.4760 -0.0162
 5122SOL    HW116265   1.780   7.021   3.399 -1.2155 -0.9895  0.3942
 5122SOL    HW216266   1.685   6.954   3.285  0.5703 -1.4663 -0.8562
 5123SOL     OW16267   1.542   4.021   5.027  0.6203  0.4851 -0.5430
 5123SOL    HW116268   1.631   3.977   5.040  0.9108  1.0034 -0.7405
 5123SOL    HW216269   1.480   3.992   5.099  0.8719 -0.0835 -0.5497
 5124SOL     OW16270   3.362   2.215   5.924  0.2712 -0.1896  0.1663
 5124SOL    HW116271   3.293   2.287   5.914 -0.8523 -0.9151  2.0607
 5124SOL    HW216272   3.453   2.254   5.912 -0.3968  0.6418 -3.2348
 5125SOL     OW16273   7.002   7.015   4.524 -0.1538  0.9331  0.0858
 5125SOL    HW116274   6.953   6.937   4.563  0.1453  0.7029  0.0081
 5125SOL    HW216275   7.039   7.071   4.598 -0.2129  0.9002  0.1408
 5126SOL     OW16276   0.875   3.599   3.538  0.6569 -0.1869 -0.2247
 5126SOL    HW116277   0.849   3.512   3.495  1.1039 -0.0863 -0.7023
 5126SOL    HW216278   0.949   3.641   3.486 -1.3464  1.8331 -1.5931
 5127SOL     OW16279   4.146   0.560   5.320 -0.3452 -0.5723  0.2025
 5127SOL    HW116280   4.202   0.635   5.356 -0.0793 -0.3553 -0.6311
 5127SOL    HW216281   4.089   0.522   5.394  1.3689 -1.2389  1.2246
 5128SOL     OW16282   1.415   3.175   2.367 -0.3913  0.6417  0.2059
 5128SOL    HW116283   1.341   3.223   2.415 -1.2520 -1.3674  0.9968
 5128SOL    HW216284   1.494   3.166   2.428 -0.6966 -0.0435  0.5029
 5129SOL     OW16285   1.931   4.937   5.662 -0.0076  0.0616  0.1184
 5129SOL    HW116286   1.969   4.857   5.708  1.0489  0.2071 -0.4716
 5129SOL    HW216287   1.936   4.924   5.563  1.2483  1.3020 -0.0261
 5130SOL     OW16288   6.447   2.308   4.757  0.2833 -0.1614  0.2123
 5130SOL    HW116289   6.537   2.277   4.725  0.6258  0.1134  0.8996
 5130SOL    HW216290   6.376   2.264   4.702  0.8742  1.6351 -2.1377
 5131SOL     OW16291   4.009   1.218   1.111 -0.2945 -0.1491 -0.4669
 5131SOL    HW116292   4.108   1.204   1.120  0.0291  1.8536 -0.5222
 5131SOL    HW216293   3.984   1.306   1.151 -1.6343  0.5904 -2.7426
 5132SOL     OW16294   1.525   0.322   4.415 -0.2058 -0.4268  0.3140
 5132SOL    HW116295   1.496   0.398   4.473 -1.4256  0.2608 -1.1168
 5132SOL    HW216296   1.446   0.289   4.363  0.9027 -0.8289 -1.1599
 5133SOL     OW16297   5.381   6.649   1.050  0.7505  0.1749  0.4589
 5133SOL    HW116298   5.415   6.678   0.960  1.6349  0.1019  0.7548
 5133SOL    HW216299   5.425   6.704   1.121  1.2449 -0.7958  0.9321
 5134SOL     OW16300   2.814   3.076   0.657 -0.2455 -0.4686 -1.0602
 5134SOL    HW116301   2.901   3.096   0.611 -0.2118  1.6617 -0.2159
 5134SOL    HW216302   2.833   3.025   0.741  0.3211  0.6870 -0.4570
 5135SOL     OW16303   3.410   3.838   4.133 -0.1007 -0.7691  0.3028
 5135SOL    HW116304   3.472   3.763   4.109 -1.1874 -1.8521  0.7605
 5135SOL    HW216305   3.329   3.834   4.076  1.5768  2.6893 -2.7450
 5136SOL     OW16306   3.171   6.224   2.208  0.4740 -0.0433 -0.0275
 5136SOL    HW116307   3.083   6.270   2.213  0.1213 -0.7470  0.2810
 5136SOL    HW216308   3.210   6.216   2.300  0.7177 -0.0022 -0.1270
 5137SOL     OW16309   0.809   0.941   0.150  0.3511  0.1520  0.6005
 5137SOL    HW116310   0.752   0.877   0.201  0.3233 -0.6220 -0.3626
 5137SOL    HW216311   0.801   0.922   0.052  2.4331 -0.1512  0.4305
 5138SOL     OW16312   0.911   6.747   0.062  0.7854  0.7514 -0.1000
 5138SOL    HW116313   0.822   6.793   0.064 -0.1299 -0.9723  0.9309
 5138SOL    HW216314   0.965   6.775   0.141 -1.4143 -2.8195  3.0195
 5139SOL     OW16315   4.417   3.850   1.024  0.0180 -0.0866  0.0895
 5139SOL    HW116316   4.488   3.916   0.999  0.3893 -0.6173 -0.2731
 5139SOL    HW216317   4.442   3.804   1.108 -0.1916  0.1487  0.2852
 5140SOL     OW16318   3.238   2.524   5.319 -0.2645 -0.2697 -0.1464
 5140SOL    HW116319   3.226   2.464   5.241  1.0223 -0.3546 -0.3028
 5140SOL    HW216320   3.265   2.470   5.399  0.0355 -0.0018 -0.0652
 5141SOL     OW16321   3.608   0.101   1.556  0.2420  0.0536  0.5500
 5141SOL    HW116322   3.588   0.149   1.471 -0.6192  0.1978  0.8247
 5141SOL    HW216323   3.695   0.053   1.547  2.0608  3.0318  0.8440
 5142SOL     OW16324   1.413   3.595   4.918  0.2247 -0.5633 -0.5274
 5142SOL    HW116325   1.346   3.548   4.859 -1.1206  0.3142  0.2351
 5142SOL    HW216326   1.466   3.527   4.968 -0.7428 -1.3126 -0.4725
 5143SOL     OW16327   3.121   1.559   5.041  0.4130 -0.4353 -0.2009
 5143SOL    HW116328   3.087   1.490   5.104 -0.6508  0.5769  0.3799
 5143SOL    HW216329   3.197   1.522   4.988 -0.2917 -2.1115 -0.0835
 5144SOL     OW16330   4.142   5.625   2.140  0.5303 -0.6976  0.6233
 5144SOL    HW116331   4.138   5.689   2.217 -0.5408 -0.2527  0.2163
 5144SOL    HW216332   4.129   5.532   2.174  2.7398 -0.8146  1.3039
 5145SOL     OW16333   6.021   2.084   2.542 -0.3138 -0.9706  0.8340
 5145SOL    HW116334   5.979   2.169   2.574  1.0446 -0.4375  1.2598
 5145SOL    HW216335   6.113   2.075   2.580  0.9504 -0.8939 -1.9202
 5146SOL     OW16336   1.406   2.117   0.866 -0.0779  0.4996 -0.7026
 5146SOL    HW116337   1.392   2.080   0.774  0.1853  0.6082 -0.7855
 5146SOL    HW216338   1.320   2.155   0.899 -0.3520 -0.1857 -0.6160
 5147SOL     OW16339   1.117   1.580   2.588 -0.1909  0.1740  0.1511
 5147SOL    HW116340   1.205   1.545   2.557  0.3543  1.4956  0.1520
 5147SOL    HW216341   1.049   1.568   2.515 -0.2117 -1.4564  0.3891
 5148SOL     OW16342   3.274   1.224   5.642  0.3379  0.2054  0.6863
 5148SOL    HW116343   3.200   1.157   5.630 -0.4626  1.3534 -1.3175
 5148SOL    HW216344   3.236   1.310   5.675  0.7825  0.7526 -0.1938
 5149SOL     OW16345   3.965   6.643   6.224  0.2340 -0.1535 -0.4982
 5149SOL    HW116346   4.051   6.623   6.271 -0.9173 -1.8554  1.0365
 5149SOL    HW216347   3.897   6.574   6.248 -1.9457  1.7865 -0.7182
 5150SOL     OW16348   2.434   2.645   2.869 -0.4430 -0.0120  0.4431
 5150SOL    HW116349   2.351   2.592   2.848 -1.8259  2.0820  0.3797
 5150SOL    HW216350   2.410   2.722   2.928  1.2523  1.3448 -0.5714
 5151SOL     OW16351   5.889   6.663   3.129 -0.1851  0.0382  0.1216
 5151SOL    HW116352   5.941   6.620   3.055 -0.0955 -0.6095  0.5480
 5151SOL    HW216353   5.835   6.739   3.092  1.6773  1.2747 -0.1890
 5152SOL     OW16354   2.482   5.189   6.466 -0.5998 -0.3550 -0.2796
 5152SOL    HW116355   2.389   5.153   6.467 -0.7313 -0.1338 -1.7996
 5152SOL    HW216356   2.547   5.112   6.464 -0.7521 -0.5055  0.3293
 5153SOL     OW16357   5.675   0.598   4.787  0.7305  0.2511  0.7267
 5153SOL    HW116358   5.577   0.605   4.768  0.7436 -2.1643 -0.6547
 5153SOL    HW216359   5.720   0.682   4.758 -0.9358  1.5928  1.7918
 5154SOL     OW16360   4.856   4.452   5.646  0.2053  0.3290 -0.1127
 5154SOL    HW116361   4.844   4.467   5.547  1.2379 -0.5396 -0.3961
 5154SOL    HW216362   4.835   4.357   5.668 -0.3151  0.5971  0.5639
 5155SOL     OW16363   0.927   3.575   2.311  0.1399 -0.5000  0.2370
 5155SOL    HW116364   0.878   3.656   2.279 -0.6991 -0.9100  0.4380
 5155SOL    HW216365   0.903   3.557   2.407  0.8034 -0.6274  0.3844
 5156SOL     OW16366   6.305   0.581   2.437  0.3370 -0.0901  0.2202
 5156SOL    HW116367   6.207   0.591   2.455  0.2816 -0.3093  0.0325
 5156SOL    HW216368   6.356   0.592   2.523  0.0254 -1.8425  0.6611
 5157SOL     OW16369   6.054   6.821   4.275  0.1175  0.4454 -0.0410
 5157SOL    HW116370   6.001   6.890   4.225  2.4353  1.7003 -0.8884
 5157SOL    HW216371   6.049   6.734   4.226 -1.7840  0.2851  0.3483
 5158SOL     OW16372   0.206   0.824   4.913  0.4578 -0.1197  0.7203
 5158SOL    HW116373   0.280   0.789   4.856 -1.1299 -0.2866 -1.3384
 5158SOL    HW216374   0.183   0.756   4.984  2.1156 -0.1219  1.2964
 5159SOL     OW16375   6.896   6.238   4.954  0.3449  0.2092  0.3366
 5159SOL    HW116376   6.893   6.226   4.854  2.9457  0.2522  0.1891
 5159SOL    HW216377   6.815   6.289   4.983 -0.5947  0.0151 -1.7044
 5160SOL     OW16378   6.445   2.610   2.578 -0.1297  0.1566 -0.1273
 5160SOL    HW116379   6.412   2.650   2.663  1.3128  2.3814 -0.5182
 5160SOL    HW216380   6.450   2.511   2.587 -0.0063  0.3311  2.3924
 5161SOL     OW16381   2.143   2.120   6.070 -0.2287 -0.1222 -0.2627
 5161SOL    HW116382   2.108   2.188   6.134  0.1395 -0.2865  0.1163
 5161SOL    HW216383   2.139   2.029   6.111  0.3333 -0.1872 -0.3334
 5162SOL     OW16384   5.957   0.202   5.360 -0.4370 -0.7011 -0.4110
 5162SOL    HW116385   5.923   0.296   5.355 -1.4610 -1.0918 -1.2023
 5162SOL    HW216386   6.056   0.203   5.372 -0.5248  0.4772  0.3331
 5163SOL     OW16387   5.875   4.902   5.470 -0.8920  0.6033 -0.4993
 5163SOL    HW116388   5.871   4.851   5.384 -2.1178  0.7775 -0.5620
 5163SOL    HW216389   5.786   4.898   5.516 -0.9932  2.5436 -0.4326
 5164SOL     OW16390   1.372   5.747   1.542 -0.0997 -0.2256  0.1198
 5164SOL    HW116391   1.289   5.703   1.576 -0.8447  0.1243 -1.2067
 5164SOL    HW216392   1.359   5.775   1.447  1.4647  0.0377 -0.0406
 5165SOL     OW16393   2.805   2.373   3.903  0.0884 -0.1021  0.4209
 5165SOL    HW116394   2.734   2.317   3.860 -0.3255 -0.0094  0.9710
 5165SOL    HW216395   2.842   2.437   3.836  1.1047 -1.5125 -0.4379
 5166SOL     OW16396   1.865   4.397   4.926 -0.0844  0.2420 -0.0590
 5166SOL    HW116397   1.791   4.446   4.973 -1.9840 -1.1444 -1.4296
 5166SOL    HW216398   1.937   4.461   4.901 -1.7360  2.0586 -0.4461
 5167SOL     OW16399   4.907   5.647   2.376  0.1655 -0.1948 -0.2769
 5167SOL    HW116400   4.857   5.729   2.349  1.6319  0.4305 -1.2407
 5167SOL    HW216401   4.890   5.574   2.310 -0.6532 -0.4868  0.2422
 5168SOL     OW16402   5.537   3.757   5.015 -0.2436 -0.0896  0.4085
 5168SOL    HW116403   5.585   3.733   4.930 -1.8286 -3.3674  0.3043
 5168SOL    HW216404   5.443   3.783   4.995 -0.6023 -0.7779  1.1331
 5169SOL     OW16405   2.733   6.620   2.375  0.1000 -0.2645 -0.5494
 5169SOL    HW116406   2.663   6.549   2.378  1.2062 -1.3926 -0.5140
 5169SOL    HW216407   2.737   6.658   2.282  0.7731 -1.6239 -1.1184
 5170SOL     OW16408   0.541   6.694   0.781  0.4594  0.1917  0.0403
 5170SOL    HW116409   0.476   6.701   0.856  2.3397 -0.8309  1.8518
 5170SOL    HW216410   0.623   6.747   0.802  1.4559 -0.9592 -0.7993
 5171SOL     OW16411   0.316   3.985   3.333  0.2356  0.2719 -0.7468
 5171SOL    HW116412   0.303   4.039   3.250  1.4472  0.9353 -0.5279
 5171SOL    HW216413   0.408   3.945   3.334 -0.9336 -2.7787 -1.4283
 5172SOL     OW16414   6.469   5.826   3.755 -0.2352  0.7824  0.1125
 5172SOL    HW116415   6.453   5.881   3.673 -1.2188 -0.0905 -0.3143
 5172SOL    HW216416   6.566   5.828   3.779  0.2632  0.1650 -1.7186
 5173SOL     OW16417   5.434   6.462   2.961  0.3101 -0.2156  0.1404
 5173SOL    HW116418   5.349   6.444   2.911 -0.3183 -1.6612  1.6142
 5173SOL    HW216419   5.420   6.445   3.059  1.8048  1.3888  0.6917
 5174SOL     OW16420   2.131   0.313   2.759  0.1401 -0.2572 -0.2174
 5174SOL    HW116421   2.178   0.363   2.686 -0.3428  1.6576  0.6975
 5174SOL    HW216422   2.137   0.365   2.844 -2.5669 -0.4865  0.2143
 5175SOL     OW16423   5.874   0.432   6.731 -0.3245  0.5215 -0.0029
 5175SOL    HW116424   5.879   0.469   6.638  0.8231  1.0922  0.2766
 5175SOL    HW216425   5.794   0.471   6.778  0.5930  2.3439  0.1305
 5176SOL     OW16426   5.981   6.479   4.217  0.5399  0.8628 -0.2006
 5176SOL    HW116427   5.968   6.385   4.184  2.6097  0.2942  0.4100
 5176SOL    HW216428   6.018   6.535   4.143  2.8765  0.1944  0.3720
 5177SOL     OW16429   6.524   0.070   3.124 -0.3644  0.1215 -0.2653
 5177SOL    HW116430   6.548  -0.026   3.106 -0.7762 -0.0200 -0.0599
 5177SOL    HW216431   6.462   0.075   3.202 -3.2527  0.2078 -2.4151
 5178SOL     OW16432   6.919   5.251   3.337  0.0277  0.3971 -0.1625
 5178SOL    HW116433   6.852   5.251   3.412 -2.2914 -1.8271 -2.0670
 5178SOL    HW216434   6.887   5.311   3.264  1.7059  1.6512  0.0625
 5179SOL     OW16435   3.931   4.783   3.007  0.4133  0.3815 -0.6076
 5179SOL    HW116436   4.008   4.732   2.967  0.4833  1.0175 -1.3002
 5179SOL    HW216437   3.939   4.782   3.107 -0.5820 -2.5364 -0.4523
 5180SOL     OW16438   5.725   6.415   3.199  0.3481  0.2440  0.2973
 5180SOL    HW116439   5.766   6.497   3.159  0.6419 -0.5372 -1.0433
 5180SOL    HW216440   5.633   6.436   3.231  0.4640  1.1220  0.0846
 5181SOL     OW16441   5.442   3.653   3.973  0.2823 -0.6065 -0.6212
 5181SOL    HW116442   5.480   3.599   4.048 -1.9236 -3.1686 -1.1974
 5181SOL    HW216443   5.415   3.743   4.007  0.5281 -1.2278  1.3319
 5182SOL     OW16444   5.693   6.087   0.024  0.1352 -0.8097  0.1686
 5182SOL    HW116445   5.745   6.095  -0.061  1.5881  0.8676  1.1406
 5182SOL    HW216446   5.729   6.011   0.078  0.9180 -0.3056  0.3736
 5183SOL     OW16447   1.287   3.271   4.239 -0.6293  0.3167  0.0049
 5183SOL    HW116448   1.203   3.318   4.267 -0.5846  0.0734  0.5584
 5183SOL    HW216449   1.356   3.338   4.213 -0.8165  0.5327  0.0644
 5184SOL     OW16450   4.935   0.104   0.137 -0.1956 -0.2624  0.1264
 5184SOL    HW116451   4.988   0.082   0.219 -0.1310  2.0495  0.7722
 5184SOL    HW216452   4.990   0.162   0.077 -0.5140 -1.3346 -1.2478
 5185SOL     OW16453   4.820   5.744   5.727 -0.9356 -0.0232 -0.0375
 5185SOL    HW116454   4.887   5.688   5.678  1.2973  1.0910  1.5858
 5185SOL    HW216455   4.760   5.685   5.781 -0.8459 -1.0172 -0.9876
 5186SOL     OW16456   3.661   5.737   0.267  0.1634 -0.4286  0.5698
 5186SOL    HW116457   3.671   5.826   0.311 -1.0984  0.1773 -0.2840
 5186SOL    HW216458   3.722   5.731   0.188 -1.1249  0.5116 -0.5534
 5187SOL     OW16459   5.150   5.409   1.874  0.1610  0.0691  0.3805
 5187SOL    HW116460   5.246   5.426   1.854  0.4477 -1.9072 -0.1309
 5187SOL    HW216461   5.101   5.497   1.880  1.7223  1.0587 -0.6195
 5188SOL     OW16462   5.991   1.700   1.104  0.1839 -0.4847  0.5056
 5188SOL    HW116463   6.043   1.658   1.178 -0.3401 -2.1835 -0.0440
 5188SOL    HW216464   6.014   1.655   1.017  0.2324  0.9636 -0.2727
 5189SOL     OW16465   1.633   0.778   2.635  0.4146 -0.3756  0.1477
 5189SOL    HW116466   1.680   0.837   2.570 -0.3451  0.7093  0.5468
 5189SOL    HW216467   1.668   0.797   2.727 -1.6318  1.4205  0.6408
 5190SOL     OW16468   2.208   0.355   6.347  0.4843  0.1961  0.1726
 5190SOL    HW116469   2.198   0.266   6.302 -0.6875  0.1366  0.5361
 5190SOL    HW216470   2.119   0.397   6.359  1.0352  1.4588 -0.0349
 5191SOL     OW16471   5.320   3.780   0.943 -0.0549  0.4851  0.2617
 5191SOL    HW116472   5.236   3.789   0.997  0.6596  0.3124  1.4118
 5191SOL    HW216473   5.358   3.688   0.954 -0.6494 -0.0432 -1.6749
 5192SOL     OW16474   5.522   1.296   2.119 -0.2738 -0.2185  0.5200
 5192SOL    HW116475   5.507   1.391   2.144  0.3480 -0.0339  0.2118
 5192SOL    HW216476   5.470   1.275   2.035  0.6926  0.2513 -0.2102
 5193SOL     OW16477   2.108   4.897   4.347 -1.2419 -0.1064  0.4604
 5193SOL    HW116478   2.185   4.961   4.349  0.5650 -2.1208 -0.5921
 5193SOL    HW216479   2.048   4.919   4.270 -1.4075  1.1098  0.9166
 5194SOL     OW16480   1.280   2.643   5.658 -0.0943 -0.4776  0.5725
 5194SOL    HW116481   1.281   2.602   5.567  0.7920 -1.7646  1.1328
 5194SOL    HW216482   1.372   2.672   5.683 -0.5230  0.8873  0.6334
 5195SOL     OW16483   0.622   6.411   0.860  0.7867 -0.2762  0.0425
 5195SOL    HW116484   0.524   6.424   0.841  0.4252 -1.5579  0.9267
 5195SOL    HW216485   0.642   6.438   0.954  1.1525 -0.6010  0.0622
 5196SOL     OW16486   0.021   2.895   2.195 -0.4092  0.3747  0.0086
 5196SOL    HW116487  -0.067   2.850   2.186 -0.6284  0.9406 -0.8004
 5196SOL    HW216488   0.009   2.994   2.195  0.2319  0.4625 -0.2521
 5197SOL     OW16489   1.521   6.416   0.366  0.2527  0.5896  0.3468
 5197SOL    HW116490   1.567   6.356   0.301  1.6146  2.0786 -0.1358
 5197SOL    HW216491   1.574   6.420   0.451  0.2434  1.1936  0.3289
 5198SOL     OW16492   6.500   4.681   4.362 -0.3584  0.2247 -0.0492
 5198SOL    HW116493   6.412   4.727   4.351 -0.5773 -0.4781 -1.5136
 5198SOL    HW216494   6.565   4.716   4.293  0.8678  1.4960  1.6763
 5199SOL     OW16495   6.908   3.407   4.525  0.5270 -0.0633 -0.2512
 5199SOL    HW116496   6.859   3.330   4.566  0.7186  0.7000  1.5343
 5199SOL    HW216497   7.006   3.386   4.520  0.4593 -0.2881 -0.6400
 5200SOL     OW16498   6.747   3.488   3.170 -0.1317  0.0336  0.1216
 5200SOL    HW116499   6.703   3.407   3.209  1.6808 -0.9790  0.1727
 5200SOL    HW216500   6.818   3.460   3.105  0.7543  1.5573  0.3719
 5201SOL     OW16501   0.148   2.532   4.230  0.4545  0.0238 -0.3230
 5201SOL    HW116502   0.066   2.580   4.263 -0.9033 -2.0939 -0.4643
 5201SOL    HW216503   0.207   2.597   4.183 -0.9378  1.7013  0.1227
 5202SOL     OW16504   2.687   5.120   2.490 -0.0968 -0.6543 -0.3792
 5202SOL    HW116505   2.703   5.023   2.469  2.2634 -0.7647  1.5466
 5202SOL    HW216506   2.688   5.133   2.589 -1.7073  1.1789 -0.5644
 5203SOL     OW16507   5.301   5.379   6.762  0.0665 -0.1022  0.1314
 5203SOL    HW116508   5.316   5.410   6.668  1.0201 -2.2997 -0.5007
 5203SOL    HW216509   5.341   5.288   6.774  0.0224  0.1451  2.6990
 5204SOL     OW16510   2.641   5.671   5.634  0.1891  0.3475 -0.0347
 5204SOL    HW116511   2.671   5.766   5.627  0.9107  0.1555  0.4113
 5204SOL    HW216512   2.717   5.613   5.664 -0.4397 -0.2559  0.4391
 5205SOL     OW16513   2.303   3.045   0.821 -0.3682  0.7047  0.5154
 5205SOL    HW116514   2.398   3.064   0.797  0.2764 -3.6172 -1.3641
 5205SOL    HW216515   2.248   3.041   0.738 -1.4768  0.0740  1.2536
 5206SOL     OW16516   6.903   2.904   0.491  0.0691 -0.2521  0.1034
 5206SOL    HW116517   6.954   2.820   0.510  1.5395  0.9790  1.9934
 5206SOL    HW216518   6.831   2.915   0.560  3.1988  2.4879  3.3616
 5207SOL     OW16519   2.670   0.229   3.652  0.3874 -0.0832 -0.4238
 5207SOL    HW116520   2.701   0.302   3.714 -0.0892 -0.7049  0.5675
 5207SOL    HW216521   2.608   0.268   3.584  1.2213  0.6832 -0.7649
 5208SOL     OW16522   2.548   5.113   5.148 -0.0139  0.6905 -0.9491
 5208SOL    HW116523   2.530   5.121   5.246  3.4375 -0.5302 -0.0827
 5208SOL    HW216524   2.567   5.018   5.125 -0.4872  0.9990 -2.7697
 5209SOL     OW16525   5.397   4.037   5.458 -0.2392 -0.5543 -0.3580
 5209SOL    HW116526   5.421   4.053   5.362 -1.4720 -0.8410 -0.7307
 5209SOL    HW216527   5.299   4.017   5.465 -0.2033 -0.3428  0.9892
 5210SOL     OW16528   3.779   4.948   3.691 -0.4257 -0.3681 -0.1415
 5210SOL    HW116529   3.842   4.992   3.756  0.5691 -1.4805 -0.3270
 5210SOL    HW216530   3.758   5.012   3.617 -0.9016  0.6159  0.7992
 5211SOL     OW16531   6.596   4.304   0.991  0.0956  0.1262  0.0362
 5211SOL    HW116532   6.537   4.336   0.917  1.1157  2.9110  0.2907
 5211SOL    HW216533   6.663   4.376   1.013  0.3308 -0.9024  3.1253
 5212SOL     OW16534   0.566   2.420   5.255 -0.1019 -0.0813 -0.3389
 5212SOL    HW116535   0.656   2.416   5.299 -0.8536  0.3803  1.3077
 5212SOL    HW216536   0.576   2.395   5.159  1.7756 -0.1005 -0.1938
 5213SOL     OW16537   5.969   4.326   4.857 -0.1401 -1.3371 -0.0865
 5213SOL    HW116538   5.876   4.332   4.819 -0.0563  0.5608 -0.1021
 5213SOL    HW216539   5.970   4.368   4.948  0.7039 -1.3450 -0.0864
 5214SOL     OW16540   6.411   2.249   4.401  0.1267 -0.0443 -0.0226
 5214SOL    HW116541   6.341   2.320   4.404  0.6382  0.4597  2.4778
 5214SOL    HW216542   6.382   2.171   4.457  1.0172 -0.3719  0.0050
 5215SOL     OW16543   1.922   4.853   5.370 -0.0795 -0.5877  0.1803
 5215SOL    HW116544   1.840   4.896   5.333 -0.1761 -0.0723  0.9679
 5215SOL    HW216545   1.957   4.785   5.305 -0.0714  0.4905 -0.9690
 5216SOL     OW16546   0.252   0.426   6.173  0.5481 -0.0885  0.3653
 5216SOL    HW116547   0.160   0.422   6.213  0.3481  0.0564 -0.0709
 5216SOL    HW216548   0.287   0.519   6.182 -0.6244  0.6901 -2.2293
 5217SOL     OW16549   0.560   2.310   0.184 -0.3566  0.2369  0.1077
 5217SOL    HW116550   0.562   2.306   0.085 -0.8827  1.7065  0.0129
 5217SOL    HW216551   0.467   2.333   0.215  0.2189  1.6888  0.8298
 5218SOL     OW16552   3.432   0.740   4.374  0.2097 -0.2802 -0.3261
 5218SOL    HW116553   3.402   0.787   4.291  0.4261 -0.7707 -0.6841
 5218SOL    HW216554   3.353   0.700   4.421 -0.0488  0.8536  0.2541
 5219SOL     OW16555   3.023   0.765   0.678  0.2507  0.0969 -0.2733
 5219SOL    HW116556   2.960   0.832   0.640  0.3596  0.4889  0.2205
 5219SOL    HW216557   3.065   0.803   0.761 -1.1656 -1.2983  1.1664
 5220SOL     OW16558   3.536   6.210   4.209 -0.0290  0.0989  0.0104
 5220SOL    HW116559   3.570   6.266   4.284 -0.5004 -0.0208  0.3198
 5220SOL    HW216560   3.600   6.213   4.133  1.1529 -0.8662  0.9255
 5221SOL     OW16561   4.374   0.994   3.903 -0.2863 -0.2380  0.3173
 5221SOL    HW116562   4.420   1.078   3.933  0.6238 -0.0044 -1.5705
 5221SOL    HW216563   4.292   0.980   3.958  0.2414  1.1709  1.5438
 5222SOL     OW16564   3.398   5.086   1.371 -0.0429  0.2370 -0.1833
 5222SOL    HW116565   3.463   5.162   1.370 -0.7071  0.8749  1.7170
 5222SOL    HW216566   3.392   5.047   1.279  2.5360  0.5370 -0.5660
 5223SOL     OW16567   6.849   0.515   1.344 -0.5411 -0.4507  0.1519
 5223SOL    HW116568   6.779   0.577   1.380 -2.7648 -0.8975 -3.0245
 5223SOL    HW216569   6.807   0.425   1.327  0.8762 -0.8283 -1.5641
 5224SOL     OW16570   1.081   3.010   0.124  0.1152 -0.0819  0.0316
 5224SOL    HW116571   1.022   3.066   0.182  0.3769 -0.9020  1.1167
 5224SOL    HW216572   1.042   2.918   0.115  1.7875 -1.0368  1.8048
 5225SOL     OW16573   6.721   6.870   4.449  0.5289 -0.4989  0.0121
 5225SOL    HW116574   6.638   6.820   4.425 -0.4214  0.2889  1.4930
 5225SOL    HW216575   6.704   6.968   4.442  1.0295 -0.3099  1.1820
 5226SOL     OW16576   3.951   2.181   3.043 -0.4814  0.1420 -0.4034
 5226SOL    HW116577   3.874   2.117   3.032 -1.0842  0.8672 -0.4866
 5226SOL    HW216578   3.990   2.202   2.954 -0.2273 -0.1713 -0.3679
 5227SOL     OW16579   6.277   1.534   2.160  0.3977 -0.0435 -1.1352
 5227SOL    HW116580   6.372   1.507   2.147  0.4681 -0.3865  0.0566
 5227SOL    HW216581   6.229   1.526   2.072  1.0165 -1.6262 -1.3600
 5228SOL     OW16582   6.172   6.886   4.507  0.1741 -0.0334 -0.2343
 5228SOL    HW116583   6.131   6.879   4.416 -1.2291 -0.5425  0.4019
 5228SOL    HW216584   6.131   6.818   4.567  1.5610 -0.1530  0.6230
 5229SOL     OW16585   3.843   0.330   0.995 -0.6126  0.0705 -0.1829
 5229SOL    HW116586   3.897   0.381   1.062 -0.4326  0.1820 -0.4126
 5229SOL    HW216587   3.863   0.233   1.001 -0.3313  0.1206 -0.3195
 5230SOL     OW16588   2.681   6.397   6.796 -0.3099  0.1940  0.1643
 5230SOL    HW116589   2.595   6.447   6.806  0.4498  1.8465 -1.1952
 5230SOL    HW216590   2.718   6.411   6.704  0.0887 -2.7151 -0.2285
 5231SOL     OW16591   1.466   6.517   3.388  0.4587  0.2006  1.3364
 5231SOL    HW116592   1.398   6.574   3.342 -0.4040 -0.7621  1.3654
 5231SOL    HW216593   1.538   6.492   3.323  1.3861  2.1126  1.5861
 5232SOL     OW16594   5.651   2.443   5.583  0.1249  0.1695  0.7832
 5232SOL    HW116595   5.645   2.532   5.628  0.7589  0.0740  1.0704
 5232SOL    HW216596   5.746   2.411   5.585  0.1228  0.0476 -0.4144
 5233SOL     OW16597   6.134   1.365   5.123  0.4318 -0.4015  0.4668
 5233SOL    HW116598   6.182   1.384   5.037 -1.3618  1.8282 -0.1407
 5233SOL    HW216599   6.037   1.386   5.112 -0.1720 -1.8189  2.5570
 5234SOL     OW16600   6.006   3.987   0.738  0.0595  0.2618 -0.1187
 5234SOL    HW116601   5.920   3.972   0.689  0.6321 -1.5460 -0.6825
 5234SOL    HW216602   6.019   4.084   0.755 -0.9352  0.8070 -2.1737
 5235SOL     OW16603   1.793   5.993   3.374 -0.7563  0.0432  0.2177
 5235SOL    HW116604   1.705   5.980   3.420 -0.2978  0.3565  1.2061
 5235SOL    HW216605   1.865   6.007   3.442  0.1130 -0.4838 -0.5613
 5236SOL     OW16606   3.957   0.541   2.041 -0.1428  0.3482 -0.0822
 5236SOL    HW116607   4.024   0.529   1.968 -0.9756  0.3777 -0.8640
 5236SOL    HW216608   3.866   0.553   2.001 -0.5136  1.0329  0.9368
 5237SOL     OW16609   6.785   5.193   6.829  0.0208 -0.1943 -0.5081
 5237SOL    HW116610   6.812   5.118   6.769  1.0821  0.1553 -0.4747
 5237SOL    HW216611   6.722   5.157   6.899  1.9787 -1.5088  0.6867
 5238SOL     OW16612   6.666   3.477   1.006  0.0782 -0.0117 -0.3538
 5238SOL    HW116613   6.702   3.570   1.002  2.9196 -1.0115  0.0336
 5238SOL    HW216614   6.732   3.413   0.968 -1.0144 -2.0993  1.0539
 5239SOL     OW16615   1.852   1.664   4.472  0.3212 -0.0073  0.3595
 5239SOL    HW116616   1.804   1.599   4.530  0.5245  0.1188  0.6715
 5239SOL    HW216617   1.943   1.629   4.450  0.8867  0.6992  1.5085
 5240SOL     OW16618   5.154   6.117   4.018 -0.4083 -0.0731 -0.2122
 5240SOL    HW116619   5.096   6.108   4.099 -1.1922 -2.7816 -0.9820
 5240SOL    HW216620   5.140   6.207   3.977 -2.0558  0.3363  1.1269
 5241SOL     OW16621   4.273   4.444   0.423 -0.2622  0.2381 -0.4947
 5241SOL    HW116622   4.323   4.510   0.366  0.7604  0.6331  0.8005
 5241SOL    HW216623   4.204   4.493   0.478  0.0167  0.1411 -0.0515
 5242SOL     OW16624   0.842   1.438   4.984 -0.2011  0.0325  0.0999
 5242SOL    HW116625   0.811   1.366   5.046 -0.0416  0.1566  0.3234
 5242SOL    HW216626   0.886   1.510   5.036 -0.2685  0.2452 -0.1349
 5243SOL     OW16627   4.171   2.504   0.950 -0.2648  0.5973  0.4418
 5243SOL    HW116628   4.154   2.477   0.855 -0.8063  0.0629  0.6814
 5243SOL    HW216629   4.265   2.536   0.959  0.2192 -0.6202 -0.0021
 5244SOL     OW16630   5.604   1.338   0.005  0.3237  0.3290  0.4938
 5244SOL    HW116631   5.626   1.269   0.074  1.3836 -0.0813 -0.2262
 5244SOL    HW216632   5.644   1.426   0.032  2.7984 -0.3398 -0.6543
 5245SOL     OW16633   1.817   5.419   2.298 -0.1934 -0.3072 -0.1539
 5245SOL    HW116634   1.750   5.491   2.280 -1.1275 -0.6514  1.6875
 5245SOL    HW216635   1.903   5.442   2.253 -1.2993  0.5117 -1.9894
 5246SOL     OW16636   2.677   5.088   3.674 -0.1008  0.9847 -0.2304
 5246SOL    HW116637   2.690   5.109   3.771  0.4059  1.3341 -0.3736
 5246SOL    HW216638   2.728   5.153   3.618  1.8539 -0.8181 -0.6732
 5247SOL     OW16639   5.891   0.245   2.444  0.3504  0.3307 -0.2248
 5247SOL    HW116640   5.838   0.268   2.362 -0.1984 -1.3072 -0.3730
 5247SOL    HW216641   5.919   0.329   2.491 -4.4420  1.4032  1.2168
 5248SOL     OW16642   4.130   6.239   0.184 -0.4196  0.4239  0.4962
 5248SOL    HW116643   4.112   6.334   0.157  1.6475  1.0314  1.0962
 5248SOL    HW216644   4.197   6.199   0.121 -0.9668 -0.5208  0.4964
 5249SOL     OW16645   0.296   3.799   4.594  0.5042  0.3560 -0.4125
 5249SOL    HW116646   0.307   3.862   4.517  0.8282  1.1795  0.2835
 5249SOL    HW216647   0.290   3.852   4.679  1.4665 -0.5773  0.2650
 5250SOL     OW16648   0.460   6.685   5.578  0.3993  0.4958  0.5345
 5250SOL    HW116649   0.364   6.663   5.596  0.2486 -0.0120 -0.7287
 5250SOL    HW216650   0.494   6.624   5.506  2.1234 -0.3651  1.9894
 5251SOL     OW16651   3.094   1.433   0.710 -0.3065  0.4440 -0.1683
 5251SOL    HW116652   3.141   1.373   0.645 -0.4236  1.1554 -0.9222
 5251SOL    HW216653   3.016   1.476   0.665 -0.7703  0.4592  0.6336
 5252SOL     OW16654   6.938   3.413   5.599  0.8908 -0.0953  0.1260
 5252SOL    HW116655   6.948   3.510   5.577  1.4121 -0.1867 -0.0458
 5252SOL    HW216656   6.929   3.403   5.698  2.8987 -0.0195  0.3644
 5253SOL     OW16657   6.021   5.491   2.175 -0.3606 -0.0280 -0.0315
 5253SOL    HW116658   5.930   5.454   2.160 -0.1849 -0.3551 -0.2993
 5253SOL    HW216659   6.083   5.416   2.200 -0.1826  0.2029  0.2228
 5254SOL     OW16660   1.593   0.502   4.769 -0.7176  0.3581 -0.0706
 5254SOL    HW116661   1.629   0.577   4.824  0.4418 -0.1631 -0.0836
 5254SOL    HW216662   1.599   0.526   4.672  0.0615  0.1006 -0.0971
 5255SOL     OW16663   3.732   1.572   2.366 -0.1318  0.9502 -0.1851
 5255SOL    HW116664   3.663   1.609   2.427 -0.9243  1.1884 -1.2009
 5255SOL    HW216665   3.706   1.479   2.339  0.8456  0.3693  0.7980
 5256SOL     OW16666   4.700   6.718   0.786  0.9647  0.5927  0.0835
 5256SOL    HW116667   4.682   6.626   0.751  1.3395 -1.0192  3.7109
 5256SOL    HW216668   4.741   6.774   0.714 -0.1581 -1.7257 -2.5284
 5257SOL     OW16669   6.223   2.836   5.829  0.2978  0.2851  0.1724
 5257SOL    HW116670   6.274   2.917   5.858 -2.5972  2.0326  0.8766
 5257SOL    HW216671   6.196   2.783   5.909 -0.1850  0.2009 -0.0387
 5258SOL     OW16672   3.504   5.413   6.714 -0.2483  0.1045 -0.3039
 5258SOL    HW116673   3.601   5.394   6.697 -0.2739 -0.0491 -0.2806
 5258SOL    HW216674   3.471   5.355   6.789 -0.8703 -1.3493 -1.6206
 5259SOL     OW16675   4.860   2.563   3.750  0.5864 -0.3199  0.1502
 5259SOL    HW116676   4.932   2.631   3.738 -0.1816  0.2273 -1.7286
 5259SOL    HW216677   4.824   2.568   3.843  3.5605 -1.2499  1.4688
 5260SOL     OW16678   1.895   2.210   4.698  0.0493  0.9168 -0.5124
 5260SOL    HW116679   1.916   2.145   4.771  2.9402  0.0622 -1.9765
 5260SOL    HW216680   1.892   2.162   4.610  0.8848  2.5377 -1.4661
 5261SOL     OW16681   1.581   4.040   0.929  1.1522  0.0947  0.4283
 5261SOL    HW116682   1.573   4.005   1.022  0.5571  1.3355  0.8753
 5261SOL    HW216683   1.527   4.124   0.920  2.5939  0.9736 -0.5334
 5262SOL     OW16684   2.968   0.039   3.701  0.4205 -0.1745  0.2269
 5262SOL    HW116685   2.888   0.019   3.758  1.7747 -0.9865  1.9350
 5262SOL    HW216686   2.963   0.133   3.669 -1.2102 -0.2114  0.2691
 5263SOL     OW16687   1.332   5.697   3.119  0.3813 -0.3717 -0.5471
 5263SOL    HW116688   1.384   5.752   3.185  0.9524 -1.7028  0.1418
 5263SOL    HW216689   1.326   5.746   3.032  1.2872  0.5661 -0.0952
 5264SOL     OW16690   4.376   6.346   7.017  0.6273  0.1290  0.3258
 5264SOL    HW116691   4.439   6.375   6.945  0.7890  0.2232  0.5049
 5264SOL    HW216692   4.326   6.265   6.987 -0.6490  1.2100 -0.6378
 5265SOL     OW16693   2.830   4.831   0.311  1.1819  0.0889  0.0692
 5265SOL    HW116694   2.773   4.888   0.369 -1.0606  0.5456 -2.4178
 5265SOL    HW216695   2.905   4.886   0.273 -0.8129  1.4896 -2.1162
 5266SOL     OW16696   5.926   1.314   6.934 -0.3077  0.0067 -0.7389
 5266SOL    HW116697   5.918   1.396   6.877  0.2800  0.1252 -0.6556
 5266SOL    HW216698   5.917   1.339   7.031 -2.3747 -0.3276 -0.7851
 5267SOL     OW16699   2.694   4.558   6.280 -0.1063 -0.2315 -0.0516
 5267SOL    HW116700   2.782   4.512   6.291 -0.0319 -0.5960 -1.9079
 5267SOL    HW216701   2.629   4.521   6.347  1.0711 -0.0767  1.2279
 5268SOL     OW16702   1.436   2.472   5.904 -0.1659 -0.1746 -0.1432
 5268SOL    HW116703   1.384   2.555   5.882 -1.4692 -0.9775 -0.2185
 5268SOL    HW216704   1.380   2.392   5.883  0.9521 -1.0755  0.2349
 5269SOL     OW16705   4.144   6.822   1.771 -0.5351  0.2079  0.4475
 5269SOL    HW116706   4.060   6.871   1.796 -0.0262  0.5048  1.6197
 5269SOL    HW216707   4.215   6.839   1.839  0.2640 -0.6338 -0.1399
 5270SOL     OW16708   6.602   4.912   3.657 -0.9600  0.2803 -0.2388
 5270SOL    HW116709   6.637   4.998   3.694 -1.0397 -0.0224  0.5609
 5270SOL    HW216710   6.615   4.910   3.558  0.5409  0.5282 -0.0782
 5271SOL     OW16711   2.857   5.319   1.337 -0.0055  0.0850  0.5266
 5271SOL    HW116712   2.950   5.328   1.372 -0.3132  0.7472  1.2182
 5271SOL    HW216713   2.842   5.226   1.304  0.5835 -0.3069  1.3380
 5272SOL     OW16714   3.279   1.575   0.201  0.1365 -0.5970  0.0402
 5272SOL    HW116715   3.340   1.596   0.278  0.1372  0.0240 -0.1295
 5272SOL    HW216716   3.315   1.497   0.151  1.5882  0.6283 -0.9155
 5273SOL     OW16717   5.313   4.614   2.179 -0.4151  0.5571 -0.4043
 5273SOL    HW116718   5.364   4.686   2.132 -0.7346  0.2513 -1.2408
 5273SOL    HW216719   5.309   4.634   2.277 -1.3350  2.1915 -0.7398
 5274SOL     OW16720   0.997   6.338   5.088 -0.0549  0.1642  0.1195
 5274SOL    HW116721   0.902   6.317   5.111  0.0699  0.6264  1.0909
 5274SOL    HW216722   1.003   6.432   5.056  0.2630  0.5485  1.2831
 5275SOL     OW16723   0.696   1.514   3.544 -0.2080 -0.2586 -0.2192
 5275SOL    HW116724   0.769   1.582   3.556  0.3173 -1.0045  1.0522
 5275SOL    HW216725   0.693   1.485   3.449  1.3715 -0.4276 -0.2537
 5276SOL     OW16726   2.098   1.832   0.710  0.5937 -0.2384 -0.1699
 5276SOL    HW116727   2.042   1.907   0.674  0.8600  0.7910  1.4444
 5276SOL    HW216728   2.194   1.846   0.686  0.6160 -0.1756 -0.0450
 5277SOL     OW16729   0.911   1.775   5.547  0.2457 -0.7934 -0.1736
 5277SOL    HW116730   0.968   1.732   5.616 -1.0287 -2.6742 -0.2117
 5277SOL    HW216731   0.955   1.859   5.514  1.4901 -0.5396  1.9475
 5278SOL     OW16732   5.486   3.280   2.193 -0.3071 -0.7704  0.4469
 5278SOL    HW116733   5.404   3.327   2.160  1.0117  1.5133  0.2313
 5278SOL    HW216734   5.506   3.310   2.286  1.6401  0.7049 -0.3812
 5279SOL     OW16735   2.041   3.051   0.958 -0.2485 -0.6067  0.2633
 5279SOL    HW116736   2.022   3.137   1.005  1.1115 -1.3951  2.4167
 5279SOL    HW216737   2.125   3.061   0.904 -2.4298  0.6538 -3.1640
 5280SOL     OW16738   5.721   4.346   1.679  0.1703 -0.1644 -0.4034
 5280SOL    HW116739   5.804   4.296   1.657  0.0143 -0.9918  0.8216
 5280SOL    HW216740   5.642   4.285   1.672  0.1607 -0.6639  2.8713
 5281SOL     OW16741   3.874   1.349   5.980  0.2628 -0.0777 -0.3381
 5281SOL    HW116742   3.829   1.386   6.062  0.7016 -1.4426  0.5516
 5281SOL    HW216743   3.896   1.424   5.917  0.0189  1.0137  0.8359
 5282SOL     OW16744   0.861   3.997   4.342  0.0328  0.1376 -0.0877
 5282SOL    HW116745   0.926   3.952   4.280  0.9203  0.3023  0.6988
 5282SOL    HW216746   0.909   4.028   4.424 -1.0924  0.0885  0.6098
 5283SOL     OW16747   1.785   4.056   6.665 -0.0340  0.0536  0.7550
 5283SOL    HW116748   1.769   4.113   6.745  1.3294  0.5015  0.7368
 5283SOL    HW216749   1.843   4.105   6.600  0.5633 -1.0845  0.4034
 5284SOL     OW16750   6.684   2.578   0.526 -0.0536  0.3992  0.2185
 5284SOL    HW116751   6.755   2.599   0.593  0.8056 -0.6683 -0.3292
 5284SOL    HW216752   6.718   2.599   0.434  0.2302 -1.7293 -0.2040
 5285SOL     OW16753   0.030   6.161   1.819 -0.4263 -0.0089 -0.2601
 5285SOL    HW116754   0.077   6.090   1.766 -2.6571 -1.3928 -0.4958
 5285SOL    HW216755  -0.056   6.184   1.775 -0.9068  1.0527  1.1591
 5286SOL     OW16756   5.995   5.163   6.783 -0.1394 -0.0443 -0.4366
 5286SOL    HW116757   5.954   5.253   6.769 -0.3406  0.0058  0.4179
 5286SOL    HW216758   6.020   5.152   6.879  2.2340  0.0979 -0.9567
 5287SOL     OW16759   4.119   5.767   2.408 -0.1149 -0.2804  0.6614
 5287SOL    HW116760   4.162   5.773   2.498 -1.3167  1.0547  1.1961
 5287SOL    HW216761   4.025   5.735   2.419 -0.5742  0.7871  0.0221
 5288SOL     OW16762   2.545   3.684   6.645 -0.2481  0.1236  0.7404
 5288SOL    HW116763   2.484   3.739   6.589  0.7108  0.0146 -0.4569
 5288SOL    HW216764   2.492   3.617   6.697 -1.0671 -1.0773 -1.5004
 5289SOL     OW16765   2.948   6.905   5.436 -0.3153  0.8692 -0.4085
 5289SOL    HW116766   2.871   6.890   5.497 -0.4454  2.9559  0.0120
 5289SOL    HW216767   3.021   6.951   5.485  0.5535  0.4144 -1.2396
 5290SOL     OW16768   4.999   2.126   5.152 -0.1387 -0.3833 -0.1989
 5290SOL    HW116769   4.910   2.081   5.143  0.7923 -2.4043  0.1537
 5290SOL    HW216770   4.996   2.215   5.107 -2.2572 -0.5131 -0.4068
 5291SOL     OW16771   0.930   6.537   4.695  0.2769  0.2545 -0.2354
 5291SOL    HW116772   0.986   6.468   4.649  0.4190 -1.0974  1.8345
 5291SOL    HW216773   0.952   6.539   4.792 -0.1645  2.8425 -0.1153
 5292SOL     OW16774   5.817   6.067   5.064  0.2006 -0.1053  0.0708
 5292SOL    HW116775   5.840   6.131   4.990 -1.4866  0.3357 -0.1158
 5292SOL    HW216776   5.864   6.095   5.148  1.3964 -0.0608 -0.5961
 5293SOL     OW16777   4.186   3.985   1.081 -0.4138 -0.2526  0.0730
 5293SOL    HW116778   4.197   4.075   1.040 -0.3637 -0.7947 -1.1341
 5293SOL    HW216779   4.265   3.927   1.057 -1.3373 -1.2023 -0.7523
 5294SOL     OW16780   1.639   5.822   1.222  0.3504 -0.2187  0.3847
 5294SOL    HW116781   1.734   5.797   1.236  0.4838  0.0188 -0.0809
 5294SOL    HW216782   1.602   5.860   1.307  0.8837  0.3656  0.3612
 5295SOL     OW16783   0.810   6.725   1.141  0.3314 -0.4331 -0.4921
 5295SOL    HW116784   0.896   6.739   1.091  0.5655 -0.6617 -0.1589
 5295SOL    HW216785   0.813   6.776   1.227  0.9329 -1.9530  0.4311
 5296SOL     OW16786   3.552   0.036   3.966  0.4869  0.1657  0.6296
 5296SOL    HW116787   3.576  -0.041   4.025 -0.3428  0.0210  0.7940
 5296SOL    HW216788   3.557   0.121   4.018 -1.3894 -0.0720  1.2865
 5297SOL     OW16789   2.770   0.107   2.896 -0.1078 -0.1918 -0.1526
 5297SOL    HW116790   2.732   0.034   2.840 -0.9514 -0.6466  0.9724
 5297SOL    HW216791   2.814   0.067   2.976 -1.5997  0.5576  1.0879
 5298SOL     OW16792   2.524   0.477   1.860  0.2230  0.2483 -0.0633
 5298SOL    HW116793   2.609   0.519   1.893 -0.2865  0.8922  0.4622
 5298SOL    HW216794   2.489   0.529   1.782 -0.5858  1.0341  0.7977
 5299SOL     OW16795   2.178   5.666   3.439  0.1628 -0.3950 -0.3787
 5299SOL    HW116796   2.142   5.574   3.453 -1.1777  0.2745  0.8228
 5299SOL    HW216797   2.133   5.708   3.360  0.5184 -0.6340 -0.7117
 5300SOL     OW16798   6.819   2.105   0.006  0.1324 -0.0571  0.0527
 5300SOL    HW116799   6.787   2.196  -0.022  2.0749  0.8941  0.7047
 5300SOL    HW216800   6.745   2.039  -0.004 -1.3941  1.6169 -0.3073
 5301SOL     OW16801   1.318   5.422   5.685 -0.0485 -0.1769 -0.0914
 5301SOL    HW116802   1.271   5.416   5.597 -0.5631  0.5533  0.1265
 5301SOL    HW216803   1.298   5.510   5.728 -0.1140 -0.6694  0.9236
 5302SOL     OW16804   6.718   0.537   4.897 -0.4447  0.3060  0.4115
 5302SOL    HW116805   6.798   0.554   4.839  0.1752  1.9728  1.6858
 5302SOL    HW216806   6.665   0.621   4.905 -1.8599 -0.5572  0.3048
 5303SOL     OW16807   4.754   1.953   1.184 -0.0940  0.5612  0.3011
 5303SOL    HW116808   4.819   2.005   1.238  1.4509 -1.0583  0.0910
 5303SOL    HW216809   4.801   1.912   1.105 -0.7960 -2.4086  1.2836
 5304SOL     OW16810   0.932   6.134   2.189  0.1106  0.7132 -0.1448
 5304SOL    HW116811   0.949   6.038   2.167 -0.6449  0.3694  0.7109
 5304SOL    HW216812   0.999   6.192   2.141 -1.7491  0.1193 -3.7827
 5305SOL     OW16813   1.553   4.849   1.440  0.1905  0.5370  0.0734
 5305SOL    HW116814   1.591   4.896   1.361  0.2327 -0.0202 -0.2475
 5305SOL    HW216815   1.628   4.819   1.500  0.1065  2.0012  0.9482
 5306SOL     OW16816   1.940   4.099   1.348 -0.4234  0.0734 -0.9276
 5306SOL    HW116817   2.005   4.080   1.275 -0.0181  0.1915 -0.5993
 5306SOL    HW216818   1.945   4.026   1.416  2.1110  1.9085  1.0380
 5307SOL     OW16819   1.228   4.605   3.642  0.1439 -1.2625 -0.3077
 5307SOL    HW116820   1.139   4.644   3.665  1.0994  0.1939  1.0764
 5307SOL    HW216821   1.217   4.541   3.565 -1.8157  0.1506 -1.2998
 5308SOL     OW16822   1.803   0.057   2.260  0.5559 -0.7417 -0.6143
 5308SOL    HW116823   1.890   0.065   2.211  0.8897 -1.5848 -0.1751
 5308SOL    HW216824   1.758   0.146   2.262  0.6132 -0.6406 -2.2919
 5309SOL     OW16825   5.380   5.698   0.487 -0.2737 -0.0657  0.2275
 5309SOL    HW116826   5.397   5.712   0.584 -2.3412  0.0718  0.6204
 5309SOL    HW216827   5.282   5.684   0.472 -0.0114 -0.0137 -1.8542
 5310SOL     OW16828   4.552   0.343   5.780 -0.8276  0.2108 -0.0509
 5310SOL    HW116829   4.559   0.442   5.780  0.6431  0.1401 -0.1445
 5310SOL    HW216830   4.636   0.304   5.820 -1.7493 -0.9721  0.8148
 5311SOL     OW16831   0.396   5.620   5.755  0.3992  0.1276 -0.1490
 5311SOL    HW116832   0.448   5.597   5.673  1.4434  0.1162  0.4848
 5311SOL    HW216833   0.330   5.692   5.735  0.6893  0.1663 -0.9844
 5312SOL     OW16834   4.360   1.111   2.007 -0.1679 -0.1305  0.0409
 5312SOL    HW116835   4.292   1.176   2.041 -0.0527  0.0328 -0.0350
 5312SOL    HW216836   4.390   1.140   1.916  0.9054  0.4998  0.5762
 5313SOL     OW16837   4.142   1.946   4.433  0.3149 -0.1131 -0.1409
 5313SOL    HW116838   4.231   1.936   4.476 -0.6312 -0.6973  1.7815
 5313SOL    HW216839   4.124   2.043   4.414  0.1490  0.3973  2.2826
 5314SOL     OW16840   3.575   0.857   1.356 -0.3285  0.1290  0.4104
 5314SOL    HW116841   3.498   0.844   1.293 -0.0775 -1.5817  0.4280
 5314SOL    HW216842   3.550   0.825   1.447 -0.0900  0.9921  0.7941
 5315SOL     OW16843   3.234   3.780   1.577 -0.3550 -0.6871 -0.7980
 5315SOL    HW116844   3.283   3.845   1.635  0.0298 -1.8973  0.2803
 5315SOL    HW216845   3.237   3.811   1.482  0.0626  0.7095 -0.3466
 5316SOL     OW16846   0.410   6.970   3.170 -0.1244 -0.1221 -0.3797
 5316SOL    HW116847   0.368   7.043   3.224 -1.0803  0.0727 -1.3321
 5316SOL    HW216848   0.395   6.989   3.073  1.5963 -0.4288 -0.7384
 5317SOL     OW16849   4.175   1.356   3.452 -0.0193  0.8735 -0.0670
 5317SOL    HW116850   4.167   1.421   3.528 -1.0322  1.4262 -0.6194
 5317SOL    HW216851   4.243   1.286   3.475 -0.1353  1.1568  1.2501
 5318SOL     OW16852   5.341   2.378   6.351 -0.1400  0.1176 -0.1804
 5318SOL    HW116853   5.416   2.422   6.302 -0.6237  1.4309  0.2251
 5318SOL    HW216854   5.257   2.386   6.298 -0.3241  0.0787  0.1020
 5319SOL     OW16855   5.494   0.069   3.078 -0.4926  0.2225 -0.0819
 5319SOL    HW116856   5.504   0.041   2.983 -0.3485 -0.7316  0.1939
 5319SOL    HW216857   5.582   0.056   3.125 -0.4269  1.1567  0.0710
 5320SOL     OW16858   3.104   3.065   4.628 -0.2763  0.4011 -0.3067
 5320SOL    HW116859   3.007   3.083   4.613 -0.4375 -1.0781 -1.2816
 5320SOL    HW216860   3.153   3.152   4.639 -1.4317  1.2564 -1.6157
 5321SOL     OW16861   0.739   2.673   4.241 -0.6895 -0.4097  0.2018
 5321SOL    HW116862   0.817   2.635   4.290 -1.7349 -0.3127  2.0723
 5321SOL    HW216863   0.764   2.693   4.146  1.3809 -0.8337  0.6205
 5322SOL     OW16864   3.372   3.237   4.400 -0.5150  0.6963 -0.2941
 5322SOL    HW116865   3.329   3.224   4.311 -0.5050  0.6909 -0.2985
 5322SOL    HW216866   3.360   3.155   4.456  0.4118  0.2764 -0.6806
 5323SOL     OW16867   3.628   0.156   6.772 -0.1501 -0.4567 -0.6804
 5323SOL    HW116868   3.689   0.153   6.852 -0.4388 -2.3167 -0.4741
 5323SOL    HW216869   3.679   0.190   6.693  0.1076  1.5345  0.2904
 5324SOL     OW16870   5.948   0.976   3.838 -0.1463  0.2034  0.3650
 5324SOL    HW116871   6.000   0.988   3.753  0.0683 -1.1052  0.2814
 5324SOL    HW216872   5.941   1.064   3.885  0.0657  0.8794 -0.8067
 5325SOL     OW16873   6.014   5.718   5.347  0.5182  0.1399  0.2276
 5325SOL    HW116874   6.070   5.649   5.392 -0.3816  0.2072  1.5081
 5325SOL    HW216875   6.022   5.805   5.397 -0.4982  0.2174  0.2849
 5326SOL     OW16876   0.433   3.172   2.110 -0.0160  0.1247 -0.4586
 5326SOL    HW116877   0.415   3.083   2.153 -0.0685  0.6329  0.6079
 5326SOL    HW216878   0.506   3.218   2.159 -2.2948  2.1573  1.2579
 5327SOL     OW16879   6.523   6.536   0.723 -0.1884 -0.3228 -0.2453
 5327SOL    HW116880   6.463   6.601   0.770 -0.2007  0.4202 -1.2310
 5327SOL    HW216881   6.562   6.472   0.788  1.7066  2.1364  1.2031
 5328SOL     OW16882   5.525   6.117   6.357  0.1222 -0.4590 -0.0039
 5328SOL    HW116883   5.430   6.145   6.344  0.3856  0.0574 -0.9092
 5328SOL    HW216884   5.548   6.044   6.293  0.5902  0.0614 -0.4453
 5329SOL     OW16885   2.443   5.687   3.367 -0.2370  0.8339  0.2568
 5329SOL    HW116886   2.349   5.669   3.395 -0.3196  0.3427 -0.2913
 5329SOL    HW216887   2.504   5.675   3.445 -0.4612 -0.4376  0.2620
 5330SOL     OW16888   6.219   6.239   4.826 -0.5496  0.2044  0.1501
 5330SOL    HW116889   6.247   6.180   4.750  0.1536  0.6248  0.0775
 5330SOL    HW216890   6.288   6.235   4.899 -1.1200 -0.0390  0.6864
 5331SOL     OW16891   5.524   4.614   1.217  0.5499  0.5114 -0.1536
 5331SOL    HW116892   5.562   4.706   1.232  1.1697 -0.1744  3.0376
 5331SOL    HW216893   5.430   4.611   1.250  0.1214  0.2452 -1.3350
 5332SOL     OW16894   0.627   4.027   2.751 -0.4980 -1.0462 -0.0092
 5332SOL    HW116895   0.710   4.052   2.800 -0.7982 -1.2174  0.5980
 5332SOL    HW216896   0.651   3.982   2.665  0.0502  0.4500 -0.6865
 5333SOL     OW16897   1.020   5.470   4.031  0.2615  0.1831  0.1091
 5333SOL    HW116898   1.066   5.478   4.119  2.2577  1.4180 -0.9748
 5333SOL    HW216899   1.054   5.390   3.981 -1.5369 -1.0631  0.7649
 5334SOL     OW16900   0.922   4.611   0.725 -0.0210  0.1615 -0.3551
 5334SOL    HW116901   0.846   4.586   0.666 -1.5619  0.2084  1.5297
 5334SOL    HW216902   0.971   4.528   0.752  0.5902  0.1236 -1.4884
 5335SOL     OW16903   5.484   7.018   3.535 -0.2641 -0.0584 -0.0084
 5335SOL    HW116904   5.454   6.960   3.610 -2.8950 -0.3014 -1.1044
 5335SOL    HW216905   5.501   6.961   3.454  0.5421  0.3950 -0.1676
 5336SOL     OW16906   1.680   4.237   6.869  0.7073  0.0485 -0.1685
 5336SOL    HW116907   1.602   4.299   6.879  0.0268 -0.8424  0.2078
 5336SOL    HW216908   1.724   4.224   6.958 -1.0997 -2.4471  0.4604
 5337SOL     OW16909   3.937   4.266   0.198  0.1238  0.3331  0.3588
 5337SOL    HW116910   3.974   4.173   0.206 -1.2769 -0.5304 -2.1707
 5337SOL    HW216911   4.008   4.327   0.164  0.7007 -0.0759  0.8013
 5338SOL     OW16912   4.792   6.759   3.355  0.7986 -0.0466 -0.1089
 5338SOL    HW116913   4.744   6.843   3.383 -0.5847 -1.4583  2.0537
 5338SOL    HW216914   4.782   6.747   3.256 -1.3678  0.9378 -0.0734
 5339SOL     OW16915   2.999   2.825   1.763 -0.1474 -0.0520 -0.4519
 5339SOL    HW116916   2.915   2.777   1.738 -0.7062  1.4531 -1.5746
 5339SOL    HW216917   3.076   2.760   1.760 -1.1139 -1.2426 -0.2502
 5340SOL     OW16918   4.701   1.475   5.555 -0.6779  0.1735  0.5407
 5340SOL    HW116919   4.732   1.508   5.644 -0.5504  0.4379  0.4002
 5340SOL    HW216920   4.746   1.528   5.483 -0.8427  0.0146  0.3213
 5341SOL     OW16921   5.345   3.247   4.344  0.3694 -0.0434 -0.2403
 5341SOL    HW116922   5.276   3.318   4.330 -2.6928 -2.8095 -0.1490
 5341SOL    HW216923   5.359   3.233   4.442 -1.3414 -1.5279 -0.1587
 5342SOL     OW16924   2.175   4.439   1.933  0.0813 -0.2409 -0.3723
 5342SOL    HW116925   2.134   4.457   1.843  2.1539  1.6153 -1.0487
 5342SOL    HW216926   2.113   4.470   2.005 -1.5264 -1.5612 -1.1109
 5343SOL     OW16927   5.296   5.421   0.861  0.3747  0.5332  0.4012
 5343SOL    HW116928   5.228   5.480   0.903  0.2213  0.5659  0.1016
 5343SOL    HW216929   5.353   5.473   0.798 -1.5056 -0.1389 -1.9897
 5344SOL     OW16930   5.230   5.932   3.467 -0.2212  0.0970  0.5596
 5344SOL    HW116931   5.183   5.906   3.383  0.5739 -0.5750  0.3069
 5344SOL    HW216932   5.310   5.987   3.445 -1.5502  2.3382  1.0572
 5345SOL     OW16933   1.879   6.534   1.388  0.3001 -0.3440  0.3549
 5345SOL    HW116934   1.934   6.493   1.315 -1.2604 -1.2643 -0.3693
 5345SOL    HW216935   1.865   6.466   1.460  0.2437 -0.0675  0.6045
 5346SOL     OW16936   0.036   0.419   6.321 -0.0277 -0.4719 -0.3094
 5346SOL    HW116937   0.016   0.516   6.307  0.0873 -0.5498 -1.0455
 5346SOL    HW216938  -0.045   0.364   6.299  0.0069 -0.5620 -0.2128
 5347SOL     OW16939   0.197   4.890   1.657  0.9122 -0.1660  0.3967
 5347SOL    HW116940   0.206   4.813   1.594 -0.2089 -1.2539  1.5151
 5347SOL    HW216941   0.281   4.944   1.655  0.9014 -0.0978 -2.0614
 5348SOL     OW16942   4.491   5.780   5.621 -0.5533  0.2408 -0.0052
 5348SOL    HW116943   4.401   5.741   5.644 -1.2197  1.4848 -0.3933
 5348SOL    HW216944   4.543   5.796   5.705 -0.9703  0.1492  0.2740
 5349SOL     OW16945   4.409   0.318   1.541 -0.0079 -0.3123 -0.0216
 5349SOL    HW116946   4.381   0.268   1.459 -2.3795  0.2815  0.3488
 5349SOL    HW216947   4.508   0.308   1.555  0.3901 -0.7458 -2.7046
 5350SOL     OW16948   0.758   4.027   4.868 -0.3356  0.5337  1.0788
 5350SOL    HW116949   0.838   3.969   4.848  0.3418  1.1505  1.9043
 5350SOL    HW216950   0.680   3.995   4.815  0.6712  0.4427 -0.4303
 5351SOL     OW16951   1.041   4.262   1.083 -0.0222  0.6364  0.1922
 5351SOL    HW116952   1.032   4.346   1.137  0.1018  0.7589  0.0218
 5351SOL    HW216953   0.955   4.244   1.035  0.8087  2.1852 -1.9894
 5352SOL     OW16954   0.227   3.289   4.730 -0.6390  0.4945  0.7296
 5352SOL    HW116955   0.199   3.344   4.652  1.0905  0.1031 -0.2132
 5352SOL    HW216956   0.313   3.241   4.709 -2.2338 -2.9408  1.2845
 5353SOL     OW16957   0.150   5.696   5.104  0.5442 -0.4357 -0.2947
 5353SOL    HW116958   0.204   5.613   5.090 -0.3085 -0.9295 -0.8162
 5353SOL    HW216959   0.205   5.776   5.082  2.2823 -0.6450  2.7971
 5354SOL     OW16960   5.055   6.196   4.482  0.0214 -0.4325  0.4035
 5354SOL    HW116961   5.131   6.261   4.483 -2.4116  2.6554  2.1850
 5354SOL    HW216962   5.040   6.165   4.388  0.7985  2.3080 -0.7298
 5355SOL     OW16963   1.105   5.277   5.808 -0.3457  0.2529  0.2633
 5355SOL    HW116964   1.031   5.318   5.754  0.2021 -2.1554 -2.5410
 5355SOL    HW216965   1.193   5.304   5.770  0.1184 -0.2685  0.9505
 5356SOL     OW16966   3.518   1.133   6.168  0.0299 -0.3268  0.3442
 5356SOL    HW116967   3.585   1.160   6.098 -0.3877 -1.5459 -0.5530
 5356SOL    HW216968   3.566   1.092   6.246  0.4175 -0.0019  0.2834
 5357SOL     OW16969   6.464   5.297   3.387 -0.6960 -0.3680 -0.2140
 5357SOL    HW116970   6.470   5.323   3.291  1.5134 -0.2898 -0.1137
 5357SOL    HW216971   6.417   5.368   3.439 -1.1999 -0.0438 -1.1081
 5358SOL     OW16972   3.790   5.193   0.656  0.0023  0.4530  0.1544
 5358SOL    HW116973   3.869   5.135   0.638  0.1739  0.9600 -0.8267
 5358SOL    HW216974   3.716   5.170   0.593 -0.3276  0.5492  0.5023
 5359SOL     OW16975   3.548   1.951   1.347 -0.3671 -0.5202 -0.1008
 5359SOL    HW116976   3.612   1.934   1.271  1.0255  0.7275  0.7382
 5359SOL    HW216977   3.549   1.873   1.409  0.7755 -0.2888  0.1887
 5360SOL     OW16978   6.539   1.879   4.232  0.8083  0.2452  0.5735
 5360SOL    HW116979   6.485   1.939   4.292  3.2671  0.2462  2.9991
 5360SOL    HW216980   6.586   1.934   4.164 -0.0078  0.5557  0.2415
 5361SOL     OW16981   2.035   5.203   4.288  0.1740 -0.5001 -0.3104
 5361SOL    HW116982   2.116   5.197   4.346  0.7573 -0.6307 -1.1095
 5361SOL    HW216983   1.955   5.222   4.344  0.9705  1.0815  0.3720
 5362SOL     OW16984   6.087   6.841   5.173 -0.1219  0.1113  0.4062
 5362SOL    HW116985   6.123   6.935   5.176  1.1383 -0.3530  0.5925
 5362SOL    HW216986   6.163   6.777   5.163 -0.7470 -1.0355  2.3456
 5363SOL     OW16987   4.125   1.801   5.982  0.4595  0.2537  0.0223
 5363SOL    HW116988   4.136   1.868   6.056 -0.0880 -0.6655  0.9699
 5363SOL    HW216989   4.184   1.722   6.001 -0.2652 -0.3280 -0.1063
 5364SOL     OW16990   4.351   3.687   1.728  0.2041  0.4280  0.6465
 5364SOL    HW116991   4.278   3.696   1.660 -0.9625 -1.3764  1.5553
 5364SOL    HW216992   4.436   3.725   1.692 -0.4301 -0.2363 -1.7162
 5365SOL     OW16993   0.170   3.060   2.911 -0.5955 -0.0650 -0.4889
 5365SOL    HW116994   0.149   3.105   2.824 -1.5426  0.4851  0.0030
 5365SOL    HW216995   0.184   3.130   2.981 -0.6528 -0.5148 -0.0257
 5366SOL     OW16996   1.007   5.877   4.491 -0.0210  0.3866  0.4487
 5366SOL    HW116997   1.028   5.848   4.584  0.1214  0.5029  0.4538
 5366SOL    HW216998   0.969   5.801   4.439 -0.6358  0.4715  0.7686
 5367SOL     OW16999   2.392   0.747   4.603  0.3710  0.2071 -0.0887
 5367SOL    HW117000   2.320   0.690   4.563 -0.2822  0.5836  0.5220
 5367SOL    HW217001   2.360   0.842   4.606  0.9016  0.3769  0.1803
 5368SOL     OW17002   3.473   3.251   3.804  0.2831  0.2886  0.1109
 5368SOL    HW117003   3.417   3.334   3.808  0.1047  0.1471  0.7185
 5368SOL    HW217004   3.459   3.206   3.715 -1.6408 -0.4600  0.7343
 5369SOL     OW17005   5.780   4.327   6.606 -0.2178  0.2488  0.0239
 5369SOL    HW117006   5.764   4.231   6.630 -0.6246  0.9681  2.8883
 5369SOL    HW217007   5.867   4.334   6.557 -0.9355 -1.7228 -1.7187
 5370SOL     OW17008   4.256   2.235   5.718  0.1893  0.4809  0.1181
 5370SOL    HW117009   4.192   2.158   5.707  0.3833  0.5204 -1.6194
 5370SOL    HW217010   4.283   2.268   5.628  1.4163  1.5222  0.8410
 5371SOL     OW17011   0.961   3.893   2.646  0.0688 -0.6804 -0.2964
 5371SOL    HW117012   0.943   3.831   2.570  0.6025 -1.3733  0.1296
 5371SOL    HW217013   0.931   3.850   2.731  0.7365 -0.4877  0.0383
 5372SOL     OW17014   6.625   4.918   3.386 -0.1084 -0.4825  0.7055
 5372SOL    HW117015   6.693   4.917   3.313  0.7322  1.0759  1.4408
 5372SOL    HW217016   6.533   4.913   3.346  0.1910  3.0609 -0.7086
 5373SOL     OW17017   1.239   0.056   5.621  0.0612  0.0095 -0.4858
 5373SOL    HW117018   1.150   0.017   5.597 -0.6421  2.0144 -1.2647
 5373SOL    HW217019   1.287   0.086   5.539  1.2615 -0.5721 -0.0326
 5374SOL     OW17020   0.981   3.208   0.277 -0.4628  0.1401 -0.0779
 5374SOL    HW117021   0.953   3.297   0.241 -0.8406 -0.3442 -1.0245
 5374SOL    HW217022   0.964   3.204   0.375 -4.0053 -0.1823 -0.5711
 5375SOL     OW17023   3.552   5.125   0.441  0.8143 -0.0302  0.8678
 5375SOL    HW117024   3.594   5.050   0.391  1.0275  0.2470  0.6228
 5375SOL    HW217025   3.462   5.098   0.474  0.8917 -0.3913  0.7873
 5376SOL     OW17026   3.133   4.142   6.163 -0.0816 -0.4635 -0.7026
 5376SOL    HW117027   3.160   4.238   6.161 -1.6099  0.0398  0.7310
 5376SOL    HW217028   3.162   4.101   6.249  0.4364 -1.2615 -1.2454
 5377SOL     OW17029   3.053   2.079   5.671 -0.1802  0.5551  0.0128
 5377SOL    HW117030   3.137   2.086   5.618 -0.8965  1.8002 -1.0331
 5377SOL    HW217031   2.986   2.146   5.636 -2.1055 -1.3476 -0.1748
 5378SOL     OW17032   5.723   0.371   1.304 -0.1785 -0.0235  0.3625
 5378SOL    HW117033   5.643   0.342   1.357 -0.7777  1.2702  0.2085
 5378SOL    HW217034   5.696   0.386   1.209  0.7885 -1.8745 -0.2602
 5379SOL     OW17035   0.882   0.283   4.829 -0.0521 -0.0425  0.5374
 5379SOL    HW117036   0.835   0.265   4.915  0.6130 -1.2343  0.6695
 5379SOL    HW217037   0.980   0.268   4.840 -0.0960 -1.5880 -0.7425
 5380SOL     OW17038   0.369   2.560   5.409 -0.0505 -0.1843 -0.4591
 5380SOL    HW117039   0.291   2.579   5.349  0.1521 -1.7533 -1.2782
 5380SOL    HW217040   0.436   2.505   5.360  0.1661 -1.4688  1.1942
 5381SOL     OW17041   2.101   1.832   1.386  0.4757  0.5061  1.0709
 5381SOL    HW117042   2.042   1.912   1.398 -0.3765 -0.0769  0.8587
 5381SOL    HW217043   2.081   1.789   1.299  0.1845 -0.5480  1.6498
 5382SOL     OW17044   0.591   2.598   3.972 -0.2944 -0.7309  0.0923
 5382SOL    HW117045   0.658   2.662   3.933 -1.1307 -0.0543 -0.2484
 5382SOL    HW217046   0.618   2.504   3.950  0.7565 -0.4916  0.3017
 5383SOL     OW17047   0.947   0.490   6.153  0.0648 -0.1955  0.9864
 5383SOL    HW117048   0.964   0.476   6.251  2.1365 -0.6133  0.6127
 5383SOL    HW217049   0.943   0.588   6.134 -1.7893 -0.0919  1.6663
 5384SOL     OW17050   2.665   2.124   5.920 -0.3960 -0.0761  0.4004
 5384SOL    HW117051   2.621   2.136   5.831 -0.0535 -0.7272  0.1327
 5384SOL    HW217052   2.699   2.030   5.928 -0.8547 -0.1756  1.4195
 5385SOL     OW17053   1.163   6.111   3.045 -0.0799  0.4772  0.1896
 5385SOL    HW117054   1.138   6.136   3.138 -0.5734  0.8831 -0.0484
 5385SOL    HW217055   1.143   6.187   2.983  0.8877  0.4773 -0.1478
 5386SOL     OW17056   5.606   2.721   4.906 -0.0018 -0.5111  0.2106
 5386SOL    HW117057   5.646   2.663   4.835 -1.1012 -1.7658  0.5708
 5386SOL    HW217058   5.638   2.815   4.895 -2.2329  0.0090 -3.6819
 5387SOL     OW17059   6.644   2.073   1.841  0.3582 -0.0055 -0.0003
 5387SOL    HW117060   6.602   2.073   1.932 -0.1483 -2.2140 -0.1733
 5387SOL    HW217061   6.611   1.994   1.789  0.7461  1.1433 -2.0754
 5388SOL     OW17062   0.344   0.303   0.002  0.2001 -0.0966 -0.3997
 5388SOL    HW117063   0.303   0.333  -0.084 -0.7171 -1.7890 -0.6157
 5388SOL    HW217064   0.357   0.381   0.063 -1.8041  0.7651 -1.0026
 5389SOL     OW17065   6.459   4.383   0.752  0.0722  0.0555  0.2172
 5389SOL    HW117066   6.461   4.352   0.657  0.2251 -4.2988  1.4468
 5389SOL    HW217067   6.364   4.391   0.782  0.0250  1.3307 -0.2193
 5390SOL     OW17068   4.756   3.908   0.801 -0.1783 -0.0677  0.3273
 5390SOL    HW117069   4.856   3.909   0.799 -0.1666 -1.1013 -0.2381
 5390SOL    HW217070   4.725   3.863   0.884 -0.1485 -0.8787 -0.0899
 5391SOL     OW17071   2.730   5.781   4.547  0.2231 -0.0157  0.3393
 5391SOL    HW117072   2.645   5.807   4.592  1.1371  0.5532  1.8225
 5391SOL    HW217073   2.713   5.707   4.483 -1.0616 -1.3020  2.0876
 5392SOL     OW17074   6.660   2.235   4.580 -0.7129  0.0274  0.3113
 5392SOL    HW117075   6.665   2.187   4.493  1.3233  0.4321  0.1569
 5392SOL    HW217076   6.680   2.172   4.655 -0.5194  0.0884  0.3126
 5393SOL     OW17077   1.388   1.772   5.869  0.6974 -0.1133  0.4394
 5393SOL    HW117078   1.441   1.736   5.946  2.3229  0.4638 -0.3517
 5393SOL    HW217079   1.420   1.864   5.847  0.3526 -0.3120 -1.0079
 5394SOL     OW17080   3.378   2.107   5.007  0.3532 -0.1919  0.4382
 5394SOL    HW117081   3.387   2.121   5.105  1.7552  2.5332  0.0204
 5394SOL    HW217082   3.290   2.143   4.976 -0.7695 -2.4359  0.8331
 5395SOL     OW17083   6.918   1.956   2.626  0.2237  0.3678  0.3956
 5395SOL    HW117084   6.925   2.008   2.540 -2.0332  0.6857  0.3341
 5395SOL    HW217085   6.994   1.980   2.686  1.5770  0.5209 -1.2848
 5396SOL     OW17086   0.469   5.159   0.579 -0.0838 -0.0240 -0.4873
 5396SOL    HW117087   0.562   5.141   0.547 -0.1412 -0.2732 -0.5225
 5396SOL    HW217088   0.460   5.130   0.674  0.0136  0.4704 -0.3249
 5397SOL     OW17089   4.033   3.247   3.761 -0.3322 -0.7947 -0.1844
 5397SOL    HW117090   4.051   3.269   3.665 -0.0968  1.4487  0.3143
 5397SOL    HW217091   3.936   3.227   3.773 -1.0608  2.1114 -0.4408
 5398SOL     OW17092   2.281   6.343   3.803  0.3356 -0.2630 -0.0900
 5398SOL    HW117093   2.266   6.246   3.784  0.6413 -0.0640 -1.5031
 5398SOL    HW217094   2.342   6.352   3.882 -2.2450 -1.1260  2.1501
 5399SOL     OW17095   3.695   2.530   0.209 -0.8171  0.2584 -0.1408
 5399SOL    HW117096   3.694   2.611   0.151  2.5492  0.4622 -0.0987
 5399SOL    HW217097   3.724   2.556   0.302  1.3123 -1.0474 -0.3785
 5400SOL     OW17098   3.777   5.558   0.772  0.5508 -0.0411 -0.0129
 5400SOL    HW117099   3.741   5.649   0.791  1.1953  0.0734  0.7047
 5400SOL    HW217100   3.836   5.562   0.691 -0.3798 -0.0688 -0.7040
 5401SOL     OW17101   2.337   6.589   0.103 -0.4979 -0.5503  0.5080
 5401SOL    HW117102   2.247   6.559   0.069 -0.8334 -1.4587  2.0858
 5401SOL    HW217103   2.376   6.517   0.161  2.3343 -1.1829 -1.9316
 5402SOL     OW17104   3.038   2.537   5.681 -0.5776 -0.3537  0.0224
 5402SOL    HW117105   3.101   2.611   5.708  0.9166 -0.1151 -3.6459
 5402SOL    HW217106   2.946   2.575   5.669 -0.3213  0.3951  0.3473
 5403SOL     OW17107   7.011   5.369   2.829  0.1593 -0.0162 -0.4622
 5403SOL    HW117108   7.072   5.297   2.795 -1.9951 -1.7581 -0.8231
 5403SOL    HW217109   6.948   5.331   2.896 -1.7575  1.2782 -1.4597
 5404SOL     OW17110   3.912   3.382   6.214 -0.3210 -0.0401  0.0165
 5404SOL    HW117111   3.885   3.418   6.125 -2.1170  0.7380  0.8215
 5404SOL    HW217112   3.862   3.298   6.233  0.0922 -0.2313  0.2700
 5405SOL     OW17113   5.930   0.115   1.337 -0.1700 -0.0466  0.6765
 5405SOL    HW117114   5.971   0.102   1.247 -0.0955 -0.9614  0.8413
 5405SOL    HW217115   5.866   0.192   1.333 -0.0176  0.0463 -0.1042
 5406SOL     OW17116   0.430   2.232   6.319 -0.7048 -0.5472  0.1704
 5406SOL    HW117117   0.402   2.267   6.230  0.3820 -0.5687 -0.2022
 5406SOL    HW217118   0.372   2.272   6.391 -1.3716 -0.2740 -0.5108
 5407SOL     OW17119   0.981   1.424   0.399  0.4037  0.5492 -0.0032
 5407SOL    HW117120   0.954   1.334   0.367  0.2192  0.6602 -0.1643
 5407SOL    HW217121   0.979   1.427   0.499 -0.1601  0.5489 -0.0125
 5408SOL     OW17122   3.982   1.123   4.754 -0.5499 -0.0528 -0.2083
 5408SOL    HW117123   3.966   1.190   4.681 -1.7477  0.2189  0.2844
 5408SOL    HW217124   4.071   1.080   4.740  0.5251  2.0408 -0.2222
 5409SOL     OW17125   6.553   6.647   2.099 -0.2935  0.2433  0.1456
 5409SOL    HW117126   6.597   6.658   2.010 -0.3696  2.2432  0.3099
 5409SOL    HW217127   6.545   6.549   2.121 -0.9563 -0.3325 -2.3573
 5410SOL     OW17128   6.339   1.384   2.539  0.3763  0.1809 -0.4642
 5410SOL    HW117129   6.402   1.447   2.583  0.6736  0.9568 -1.9255
 5410SOL    HW217130   6.272   1.436   2.485 -0.4754 -0.6996 -0.2873
 5411SOL     OW17131   0.271   5.227   0.407  0.1350  0.0660  0.4894
 5411SOL    HW117132   0.345   5.212   0.472  0.6235 -2.1651 -0.5078
 5411SOL    HW217133   0.183   5.210   0.452  0.3162  0.8564  1.1670
 5412SOL     OW17134   4.864   3.523   5.342  0.5729  0.1453 -0.5581
 5412SOL    HW117135   4.908   3.469   5.270 -0.2082 -0.8953 -0.2816
 5412SOL    HW217136   4.786   3.573   5.304 -0.9842 -1.8515 -0.1224
 5413SOL     OW17137   5.753   0.289   3.892 -0.4502  0.0862  0.0943
 5413SOL    HW117138   5.753   0.321   3.797 -0.8087  0.0742  0.0895
 5413SOL    HW217139   5.763   0.367   3.953 -0.5285  0.1261  0.0563
 5414SOL     OW17140   0.552   2.459   2.429  0.4800  0.1676  0.0337
 5414SOL    HW117141   0.474   2.505   2.387  0.4284 -1.1399 -1.3614
 5414SOL    HW217142   0.571   2.374   2.380  2.7662  0.4404  0.3701
 5415SOL     OW17143   3.833   1.451   3.665 -0.1401 -0.0834  0.4550
 5415SOL    HW117144   3.814   1.353   3.673  0.0493 -0.1617 -0.0327
 5415SOL    HW217145   3.754   1.503   3.699 -0.5384 -0.4033  0.0330
 5416SOL     OW17146   0.012   4.699   3.009  0.5842  0.6166  0.4743
 5416SOL    HW117147  -0.038   4.743   2.934 -0.1589 -1.5243 -0.3581
 5416SOL    HW217148   0.110   4.712   2.995  0.4290  0.8254 -0.5242
 5417SOL     OW17149   3.823   6.551   6.832  0.0903  0.7980  0.0320
 5417SOL    HW117150   3.738   6.590   6.796  0.6519  2.0132 -0.0157
 5417SOL    HW217151   3.887   6.625   6.852  0.8857 -0.0661  0.7199
 5418SOL     OW17152   2.729   5.997   3.046 -0.2957  0.1284  0.1534
 5418SOL    HW117153   2.687   5.918   3.092  0.3485  0.8763  2.1259
 5418SOL    HW217154   2.738   6.073   3.110  1.9478  0.7807 -0.8046
 5419SOL     OW17155   3.410   0.016   3.219 -0.0519 -0.2932 -0.3727
 5419SOL    HW117156   3.484   0.045   3.157  0.5582 -0.1478  0.4120
 5419SOL    HW217157   3.360   0.097   3.250  0.4698 -0.2424  0.3471
 5420SOL     OW17158   6.684   2.135   2.653 -0.2011  0.2506  0.3164
 5420SOL    HW117159   6.629   2.053   2.644 -0.4046  0.0549  2.6331
 5420SOL    HW217160   6.781   2.111   2.658 -0.2165  0.1980  0.3594
 5421SOL     OW17161   3.614   5.539   2.802  0.8082  0.1166 -0.2655
 5421SOL    HW117162   3.604   5.637   2.782  1.0687 -0.1545 -1.9064
 5421SOL    HW217163   3.561   5.487   2.735  2.4580 -0.9287 -0.8130
 5422SOL     OW17164   4.104   4.625   6.660 -0.1990 -0.5602 -0.5769
 5422SOL    HW117165   4.054   4.558   6.605  0.2330 -0.2428 -1.3782
 5422SOL    HW217166   4.040   4.678   6.715 -0.4646 -2.3877  0.9615
 5423SOL     OW17167   3.337   4.903   0.366  0.6884 -0.2771 -0.3705
 5423SOL    HW117168   3.375   4.825   0.416 -0.4641 -0.6007  0.0319
 5423SOL    HW217169   3.327   4.980   0.429  2.1470  0.3257 -0.8466
 5424SOL     OW17170   6.380   5.240   6.273  0.0959 -0.0448 -0.6679
 5424SOL    HW117171   6.463   5.195   6.304  0.0919 -0.3425 -1.0830
 5424SOL    HW217172   6.323   5.175   6.223 -2.1558 -0.9236  2.7063
 5425SOL     OW17173   1.979   5.640   7.004 -0.1628 -0.6119  0.2496
 5425SOL    HW117174   1.979   5.555   6.952  0.2503 -0.2952 -0.2835
 5425SOL    HW217175   2.063   5.691   6.985 -0.6840  0.2042  0.0876
 5426SOL     OW17176   1.492   5.801   6.743  0.0920 -0.6293 -0.3236
 5426SOL    HW117177   1.469   5.846   6.657 -0.0959 -0.1428 -0.0264
 5426SOL    HW217178   1.569   5.739   6.729  0.5813  0.0447 -0.6751
 5427SOL     OW17179   6.884   6.583   0.901  0.8427  0.0972  0.7209
 5427SOL    HW117180   6.943   6.528   0.843  1.4592  1.8393 -0.4125
 5427SOL    HW217181   6.820   6.524   0.950 -0.3264 -1.4885 -2.3976
 5428SOL     OW17182   4.623   6.822   1.669  0.2215  0.6102  0.1004
 5428SOL    HW117183   4.715   6.858   1.685  0.5552 -0.2079  0.0487
 5428SOL    HW217184   4.576   6.880   1.603 -0.2074  2.4685  1.9254
 5429SOL     OW17185   1.255   5.035   0.691  0.0087 -0.2776  0.1175
 5429SOL    HW117186   1.168   5.083   0.707 -0.6881 -1.9066  1.5721
 5429SOL    HW217187   1.240   4.937   0.699  1.7563 -0.6656 -0.9398
 5430SOL     OW17188   4.629   5.050   1.252 -0.1765 -0.3888  0.3265
 5430SOL    HW117189   4.658   4.989   1.178 -0.3162 -1.6174  1.2400
 5430SOL    HW217190   4.533   5.075   1.238 -0.6422 -1.7829  0.8065
 5431SOL     OW17191   1.124   5.278   3.875  0.6105  0.3695  0.2064
 5431SOL    HW117192   1.077   5.280   3.786 -0.1320 -1.0978  0.5321
 5431SOL    HW217193   1.181   5.196   3.881  0.3160  0.2223  1.2353
 5432SOL     OW17194   6.083   2.782   5.605  0.6833  0.3666 -0.2919
 5432SOL    HW117195   6.021   2.860   5.604 -0.8054 -0.6185  2.9788
 5432SOL    HW217196   6.145   2.789   5.683 -0.5387 -2.3857  1.0397
 5433SOL     OW17197   0.762   4.030   0.451 -0.0070  0.1304 -0.0377
 5433SOL    HW117198   0.727   4.033   0.357  1.0486  1.4233 -0.4166
 5433SOL    HW217199   0.697   3.980   0.509 -0.4667 -1.0832 -1.5288
 5434SOL     OW17200   0.665   4.562   1.887  0.2975  0.0055  0.0499
 5434SOL    HW117201   0.765   4.561   1.897  0.3056 -3.0001  0.5602
 5434SOL    HW217202   0.641   4.600   1.797  1.7918  1.6149  0.2708
 5435SOL     OW17203   4.457   0.902   4.638 -0.0714  0.4138  0.3662
 5435SOL    HW117204   4.455   0.809   4.675 -0.0348  0.2977  0.0736
 5435SOL    HW217205   4.518   0.906   4.559  1.2972  1.0783  1.4156
 5436SOL     OW17206   1.090   6.748   4.700  0.0550  0.1704 -0.2757
 5436SOL    HW117207   1.070   6.839   4.665  0.2962  0.9845  1.5896
 5436SOL    HW217208   1.027   6.681   4.659 -0.2434  1.1891 -1.5182
 5437SOL     OW17209   5.883   5.338   1.863 -0.8355  0.7227  0.1942
 5437SOL    HW117210   5.839   5.288   1.938 -1.9431  1.2983 -0.0464
 5437SOL    HW217211   5.822   5.410   1.831 -0.5248  0.2706 -1.5107
 5438SOL     OW17212   5.627   6.415   0.548  0.1849  0.0709 -0.0553
 5438SOL    HW117213   5.678   6.390   0.630  0.3447  0.5401 -0.0126
 5438SOL    HW217214   5.529   6.396   0.563  0.1806  0.3940  0.3380
 5439SOL     OW17215   0.068   6.242   4.608  0.3377  0.1905 -0.1668
 5439SOL    HW117216   0.109   6.167   4.660  1.0568  0.3668 -0.4668
 5439SOL    HW217217   0.133   6.318   4.603 -1.1631  1.7754  2.0857
 5440SOL     OW17218   2.398   4.468   3.667  0.0105  0.0363  0.4165
 5440SOL    HW117219   2.376   4.420   3.752  0.4282 -0.4387  0.2631
 5440SOL    HW217220   2.415   4.401   3.594 -1.5893  0.4522 -0.3764
 5441SOL     OW17221   6.211   0.073   5.255 -0.3657 -0.4955  0.2120
 5441SOL    HW117222   6.214   0.047   5.351 -1.4759  1.4329  0.8214
 5441SOL    HW217223   6.297   0.119   5.231 -0.1371 -0.8664  0.3070
 5442SOL     OW17224   3.526   6.658   4.973  0.0205  0.2715 -0.3999
 5442SOL    HW117225   3.621   6.686   4.979  0.2947 -0.5713 -0.6949
 5442SOL    HW217226   3.487   6.648   5.065  0.4962 -0.3124 -0.2608
 5443SOL     OW17227   5.562   3.817   5.272  0.9443  0.0904  0.2670
 5443SOL    HW117228   5.509   3.778   5.197 -0.3898 -0.2856  1.3603
 5443SOL    HW217229   5.603   3.903   5.243 -1.0114  0.8535 -0.3903
 5444SOL     OW17230   0.693   4.296   4.693 -0.1428 -0.4744  0.1406
 5444SOL    HW117231   0.604   4.325   4.660  0.0985  2.7690  1.9826
 5444SOL    HW217232   0.682   4.224   4.762 -1.3962  0.2535  0.7241
 5445SOL     OW17233   2.581   2.930   0.885 -0.3666 -0.4415  0.4654
 5445SOL    HW117234   2.567   3.026   0.862 -0.4670  0.1921  2.8579
 5445SOL    HW217235   2.641   2.888   0.817 -0.2039  1.3350 -0.5614
 5446SOL     OW17236   3.694   6.528   4.152  0.2921 -0.1189 -0.3493
 5446SOL    HW117237   3.786   6.531   4.114  0.6630  2.4128  0.6204
 5446SOL    HW217238   3.688   6.454   4.220  2.2903  1.0533  1.1900
 5447SOL     OW17239   3.472   6.504   1.086 -0.0791 -0.3675  0.6984
 5447SOL    HW117240   3.385   6.471   1.050  0.1216 -0.2917  0.1445
 5447SOL    HW217241   3.506   6.580   1.030  1.5171 -1.9195 -0.5314
 5448SOL     OW17242   5.732   2.348   0.279 -0.4907  0.7639  0.1343
 5448SOL    HW117243   5.742   2.366   0.377  2.5450 -2.3288  0.6067
 5448SOL    HW217244   5.666   2.274   0.266 -1.4243  1.6489 -0.2729
 5449SOL     OW17245   0.701   5.831   6.920 -0.4921 -0.5282 -0.1864
 5449SOL    HW117246   0.779   5.769   6.912 -1.3420 -1.4855 -1.4911
 5449SOL    HW217247   0.616   5.779   6.911 -1.2331  0.8185 -1.5373
 5450SOL     OW17248   5.375   6.641   0.695  0.3137 -0.4681  0.6530
 5450SOL    HW117249   5.295   6.607   0.644  0.5288  0.0738 -0.0481
 5450SOL    HW217250   5.388   6.738   0.677  1.4929 -0.6785  0.2855
 5451SOL     OW17251   6.874   4.448   6.418 -0.0384 -0.1253 -0.1615
 5451SOL    HW117252   6.824   4.387   6.481  2.5641 -1.9046  0.3326
 5451SOL    HW217253   6.841   4.541   6.430 -0.5984 -0.5931  2.9181
 5452SOL     OW17254   3.677   2.611   6.880 -0.4826  0.0770 -0.4564
 5452SOL    HW117255   3.659   2.515   6.897  0.4144 -0.0227  0.0008
 5452SOL    HW217256   3.675   2.629   6.782 -0.8459 -0.3677 -0.5288
 5453SOL     OW17257   4.005   4.661   1.784  0.2779  0.1751 -0.2854
 5453SOL    HW117258   4.019   4.574   1.736  1.0953 -0.5183  1.1458
 5453SOL    HW217259   4.089   4.715   1.779  0.5569 -0.1347  0.7823
 5454SOL     OW17260   3.411   3.413   3.415 -0.4207 -0.4083 -0.0398
 5454SOL    HW117261   3.360   3.478   3.472 -0.3927  0.6074 -1.1517
 5454SOL    HW217262   3.439   3.457   3.331 -0.6139 -1.9391 -0.9456
 5455SOL     OW17263   0.089   3.744   5.529 -0.0270 -0.0572  0.0152
 5455SOL    HW117264   0.145   3.661   5.534  2.0720  1.2165 -1.0381
 5455SOL    HW217265  -0.000   3.726   5.570 -0.1583 -3.2212 -1.3670
 5456SOL     OW17266   4.462   4.524   3.802 -0.0591  0.3674 -0.1995
 5456SOL    HW117267   4.467   4.621   3.779  0.2531  0.0636 -1.5515
 5456SOL    HW217268   4.391   4.508   3.870 -0.1218  1.5343  0.0180
 5457SOL     OW17269   3.396   2.457   6.885 -0.2754  0.2598  0.3929
 5457SOL    HW117270   3.444   2.405   6.956 -0.0249 -0.7319 -0.4876
 5457SOL    HW217271   3.354   2.538   6.927 -0.6527 -0.6094  1.7960
 5458SOL     OW17272   3.236   3.941   0.252  0.2119  0.5847 -0.5054
 5458SOL    HW117273   3.164   3.954   0.320 -1.4057 -1.7860 -1.6234
 5458SOL    HW217274   3.325   3.955   0.294 -0.8233  2.9010  1.1106
 5459SOL     OW17275   5.076   4.677   6.825 -0.4410 -0.0188 -0.2076
 5459SOL    HW117276   5.067   4.753   6.761  2.9534  1.8559  1.2599
 5459SOL    HW217277   5.159   4.625   6.804 -0.2859 -0.5384  1.4769
 5460SOL     OW17278   1.013   6.088   4.911  0.4825 -0.1243  0.1134
 5460SOL    HW117279   1.008   6.168   4.972 -1.3370 -0.4277  0.4271
 5460SOL    HW217280   0.921   6.067   4.877  0.8368 -2.3631  0.4159
 5461SOL     OW17281   2.843   5.960   4.922  0.0235 -1.4766  0.3504
 5461SOL    HW117282   2.827   6.002   5.012 -1.4896  1.0044 -0.9505
 5461SOL    HW217283   2.936   5.925   4.918  0.4897 -0.6637  2.5239
 5462SOL     OW17284   4.149   3.275   0.616 -0.1039 -0.0807  0.2364
 5462SOL    HW117285   4.238   3.249   0.653 -0.0990  0.5270  0.6696
 5462SOL    HW217286   4.081   3.275   0.689 -0.1632  0.8199  0.1942
 5463SOL     OW17287   3.253   1.970   2.066 -0.2583 -0.7204  0.3358
 5463SOL    HW117288   3.196   2.023   2.003  1.1187 -0.5774 -0.8355
 5463SOL    HW217289   3.324   1.923   2.014  2.0980  0.8670  1.9402
 5464SOL     OW17290   5.611   1.732   4.102 -0.4144 -0.0227  0.1310
 5464SOL    HW117291   5.558   1.785   4.035  0.1022  3.1491  2.0378
 5464SOL    HW217292   5.708   1.733   4.076 -0.5257 -1.0154 -0.3790
 5465SOL     OW17293   2.456   1.331   6.637 -0.1712  0.0137  0.2419
 5465SOL    HW117294   2.499   1.263   6.696 -1.0984  0.7113  1.7973
 5465SOL    HW217295   2.384   1.379   6.688 -0.0297  1.6807 -1.0185
 5466SOL     OW17296   1.175   5.471   4.564 -0.1188 -0.4651 -0.0496
 5466SOL    HW117297   1.273   5.469   4.544 -0.1371 -0.2180 -0.1655
 5466SOL    HW217298   1.147   5.383   4.603 -0.1514 -1.0776 -1.4033
 5467SOL     OW17299   4.190   6.134   3.393 -0.3989  0.5682 -0.0898
 5467SOL    HW117300   4.101   6.087   3.389 -0.0660 -0.0053 -1.2732
 5467SOL    HW217301   4.176   6.231   3.372 -0.7512  0.4750 -0.3147
 5468SOL     OW17302   5.512   5.051   6.002 -0.0433 -0.3833  0.1973
 5468SOL    HW117303   5.541   4.973   6.059  0.8477  0.4243  0.8762
 5468SOL    HW217304   5.537   5.136   6.047  1.4892  0.2973 -1.8294
 5469SOL     OW17305   6.885   5.578   0.376 -0.7571  0.2435  0.2379
 5469SOL    HW117306   6.806   5.539   0.329  0.2865 -1.2153 -0.3914
 5469SOL    HW217307   6.900   5.672   0.346  0.1523 -0.7685 -2.8067
 5470SOL     OW17308   3.909   3.025   2.046 -0.0798  0.4787  0.1677
 5470SOL    HW117309   3.997   3.072   2.051 -0.6062  1.5328 -0.2195
 5470SOL    HW217310   3.912   2.956   1.972 -0.2754  2.0639 -1.3797
 5471SOL     OW17311   3.646   4.947   0.979  0.1853 -0.1879  0.3065
 5471SOL    HW117312   3.670   4.893   1.059 -0.1479  1.8920  1.8694
 5471SOL    HW217313   3.712   5.020   0.965 -0.4076  0.2036 -0.6153
 5472SOL     OW17314   5.351   0.213   4.909 -0.6911 -0.5951  0.0868
 5472SOL    HW117315   5.421   0.141   4.911 -1.2149 -1.1640 -1.1254
 5472SOL    HW217316   5.390   0.297   4.946  0.0804 -1.3612  1.0926
 5473SOL     OW17317   1.673   5.115   6.149 -0.7144 -0.1175 -0.4103
 5473SOL    HW117318   1.733   5.162   6.084  0.5861 -0.5911  0.4084
 5473SOL    HW217319   1.725   5.047   6.199 -2.2067 -1.3239 -0.4229
 5474SOL     OW17320   0.759   4.940   6.375  0.0372  0.5902 -0.0349
 5474SOL    HW117321   0.674   4.930   6.324  0.7345  0.7038 -1.2520
 5474SOL    HW217322   0.803   4.851   6.385 -0.7939  0.3225  1.6716
 5475SOL     OW17323   6.996   4.908   6.408  0.3869 -0.8487 -0.2029
 5475SOL    HW117324   7.017   4.901   6.311  0.8153 -0.6088 -0.1316
 5475SOL    HW217325   7.064   4.967   6.452 -1.1316  0.9900 -0.2015
 5476SOL     OW17326   5.513   0.473   6.818  0.1156  0.2399  0.2936
 5476SOL    HW117327   5.565   0.388   6.810 -0.1339 -0.1180  1.9866
 5476SOL    HW217328   5.417   0.455   6.801  0.1097  0.2417  0.3233
 5477SOL     OW17329   6.645   5.205   5.974 -0.1943 -0.2200 -0.7730
 5477SOL    HW117330   6.732   5.171   6.010 -0.6152 -0.9181 -0.4070
 5477SOL    HW217331   6.635   5.302   5.997  1.8397  0.7247 -3.3525
 5478SOL     OW17332   0.700   2.072   0.311  0.0437  0.2630  1.1440
 5478SOL    HW117333   0.741   2.036   0.227  1.5480  1.4814  1.3099
 5478SOL    HW217334   0.643   2.151   0.289 -0.2506  0.0664  1.1900
 5479SOL     OW17335   3.244   0.117   4.490  0.2387 -0.0689 -0.0616
 5479SOL    HW117336   3.149   0.092   4.474  0.0505  1.5204 -1.6687
 5479SOL    HW217337   3.279   0.170   4.412  2.2446 -0.0596  0.7763
 5480SOL     OW17338   1.049   4.339   3.370 -0.7091  0.0720  0.6245
 5480SOL    HW117339   0.998   4.265   3.327 -1.6709  0.4258  1.1293
 5480SOL    HW217340   0.986   4.400   3.418  0.1532  0.7363  0.9474
 5481SOL     OW17341   3.805   3.282   0.094  0.0522 -0.1175  0.3566
 5481SOL    HW117342   3.902   3.273   0.119  0.3299  0.6756 -0.3624
 5481SOL    HW217343   3.748   3.258   0.172  0.8284 -0.7945  0.7304
 5482SOL     OW17344   4.036   5.432   1.770  0.1489  0.0246  0.0988
 5482SOL    HW117345   4.068   5.517   1.811 -0.5810  0.1856  0.3457
 5482SOL    HW217346   4.104   5.360   1.784  2.5782  1.3871 -3.3440
 5483SOL     OW17347   2.364   2.183   5.938  0.1986 -0.5248  0.6411
 5483SOL    HW117348   2.296   2.151   6.004  0.7213  1.0091  1.9669
 5483SOL    HW217349   2.449   2.205   5.985  1.2881 -1.3224 -0.8487
 5484SOL     OW17350   2.516   1.685   5.934 -0.3675 -0.0696  0.3288
 5484SOL    HW117351   2.455   1.764   5.940 -0.9793 -0.4130 -1.1008
 5484SOL    HW217352   2.516   1.649   5.841 -0.9404 -2.4396  1.1719
 5485SOL     OW17353   3.898   6.676   2.628 -0.1303  0.4403  0.1724
 5485SOL    HW117354   3.821   6.645   2.684 -0.2613 -1.9394 -1.1940
 5485SOL    HW217355   3.884   6.772   2.602 -1.3069  0.8400  2.0630
 5486SOL     OW17356   5.006   5.327   5.580  0.4110  0.2881 -0.0932
 5486SOL    HW117357   5.103   5.327   5.555  0.5941  1.4524  0.5154
 5486SOL    HW217358   4.963   5.243   5.549  1.7154 -0.4371  0.0039
 5487SOL     OW17359   0.635   5.910   6.349  0.6156 -0.1778 -0.7229
 5487SOL    HW117360   0.644   5.813   6.375 -0.7407 -0.1040  0.1041
 5487SOL    HW217361   0.544   5.943   6.373  1.0441  1.3131 -1.0356
 5488SOL     OW17362   3.490   4.033   5.648  0.3728  0.0087  0.2280
 5488SOL    HW117363   3.455   3.946   5.683  0.2616 -0.0523 -0.0308
 5488SOL    HW217364   3.427   4.070   5.580  0.1799  0.5396  0.6939
 5489SOL     OW17365   4.915   2.320   0.999 -0.1068 -0.1264  0.2390
 5489SOL    HW117366   4.905   2.232   0.954 -0.0731 -0.2590  0.4863
 5489SOL    HW217367   4.829   2.343   1.045  0.0606 -0.2918  0.6370
 5490SOL     OW17368   2.045   2.177   3.314  0.3827  0.1390  0.2276
 5490SOL    HW117369   1.953   2.217   3.308  0.5434  0.8366  1.8123
 5490SOL    HW217370   2.051   2.121   3.397  1.8627  1.4789  1.0885
 5491SOL     OW17371   1.142   3.342   5.701  0.4627  0.4680  0.4643
 5491SOL    HW117372   1.207   3.280   5.746  0.8797  1.6869  1.6314
 5491SOL    HW217373   1.138   3.428   5.753  0.9585  1.9619 -1.8476
 5492SOL     OW17374   6.051   0.855   2.639  0.3699  0.0192  0.5241
 5492SOL    HW117375   6.135   0.899   2.605 -0.0651 -0.1545 -0.8416
 5492SOL    HW217376   6.058   0.842   2.738  1.4076  1.1990  0.6367
 5493SOL     OW17377   5.750   2.710   5.346  0.6077  0.0979 -0.4393
 5493SOL    HW117378   5.775   2.679   5.254 -1.5111  0.3245 -1.1353
 5493SOL    HW217379   5.833   2.718   5.402  1.9602  0.1354 -2.3658
 5494SOL     OW17380   1.358   6.759   5.793 -0.1520  0.3887 -0.4532
 5494SOL    HW117381   1.283   6.821   5.814 -1.2652  0.2432 -3.5155
 5494SOL    HW217382   1.351   6.676   5.848 -1.6941  0.7789 -0.0406
 5495SOL     OW17383   6.909   4.260   2.550 -0.0099  0.4136 -0.3221
 5495SOL    HW117384   6.917   4.269   2.650 -0.2258 -0.0328 -0.2615
 5495SOL    HW217385   6.853   4.180   2.529 -0.4037  0.8165 -0.7984
 5496SOL     OW17386   1.591   0.994   3.841  0.4748  0.7926  0.0942
 5496SOL    HW117387   1.666   1.029   3.897 -0.2654  1.2753  0.8155
 5496SOL    HW217388   1.618   0.908   3.799  1.3629  0.8620  0.4885
 5497SOL     OW17389   0.376   4.714   1.779 -0.0315  0.6246 -0.0300
 5497SOL    HW117390   0.418   4.787   1.833 -0.8437  0.5651  0.7117
 5497SOL    HW217391   0.281   4.738   1.759  0.3920  0.9123 -1.9582
 5498SOL     OW17392   6.176   5.519   6.337 -0.6618  0.2998 -0.5014
 5498SOL    HW117393   6.265   5.484   6.368 -1.2233  0.3822  1.2872
 5498SOL    HW217394   6.192   5.594   6.273  0.5869  0.7975  0.3361
 5499SOL     OW17395   2.117   0.431   4.614  0.1640 -0.0388  0.2111
 5499SOL    HW117396   2.151   0.436   4.708 -1.5206  2.3975  0.7831
 5499SOL    HW217397   2.027   0.388   4.614  0.0358  0.2282 -0.2368
 5500SOL     OW17398   3.205   3.438   4.425  0.3611 -0.1844 -0.1632
 5500SOL    HW117399   3.256   3.353   4.431 -0.9446 -0.9380  0.9622
 5500SOL    HW217400   3.214   3.489   4.510 -0.5928 -0.2418 -0.0170
 5501SOL     OW17401   3.918   6.784   2.226 -0.2826 -0.1781 -0.6144
 5501SOL    HW117402   4.004   6.734   2.219 -0.2453  0.0238 -1.8997
 5501SOL    HW217403   3.936   6.881   2.245 -0.1494  0.0574 -1.8370
 5502SOL     OW17404   4.292   2.398   1.280  0.0044 -0.2185 -0.2049
 5502SOL    HW117405   4.208   2.390   1.228 -1.0035 -0.9863  1.4527
 5502SOL    HW217406   4.352   2.320   1.259  1.1534  1.2203 -2.7051
 5503SOL     OW17407   4.987   6.442   5.519 -0.0494  0.3104  0.0782
 5503SOL    HW117408   5.009   6.366   5.580 -0.1184 -0.8953 -1.3308
 5503SOL    HW217409   5.000   6.529   5.567 -1.0237 -0.5988  2.0602
 5504SOL     OW17410   6.092   3.692   1.455 -0.5157  0.8550 -0.3933
 5504SOL    HW117411   6.053   3.754   1.523  1.6243  2.2272 -0.3295
 5504SOL    HW217412   6.131   3.744   1.380 -0.4407 -0.5305 -1.3584
 5505SOL     OW17413   0.226   4.399   5.903 -0.3552 -0.0737 -0.4877
 5505SOL    HW117414   0.196   4.494   5.914  0.9581  0.4605 -1.2078
 5505SOL    HW217415   0.299   4.395   5.834 -1.7332 -1.8911 -1.9384
 5506SOL     OW17416   0.159   5.336   2.514 -0.0668 -0.7217 -0.8468
 5506SOL    HW117417   0.214   5.319   2.433  2.2121 -2.3823  0.9075
 5506SOL    HW217418   0.177   5.428   2.548  2.4891 -1.4874  0.1560
 5507SOL     OW17419   4.016   6.437   1.536  0.0179 -0.0110  0.2541
 5507SOL    HW117420   4.069   6.418   1.453 -1.8783 -0.5949 -0.8732
 5507SOL    HW217421   3.994   6.351   1.583  1.3644  0.3302  1.6165
 5508SOL     OW17422   6.208   6.709   0.634 -0.4585  0.0007  0.3056
 5508SOL    HW117423   6.244   6.674   0.721 -0.6987  0.0923  0.4446
 5508SOL    HW217424   6.282   6.718   0.568 -0.3083 -0.2767  0.4331
 5509SOL     OW17425   0.501   4.556   5.529  0.0741  0.6338  0.3447
 5509SOL    HW117426   0.409   4.527   5.502  0.6780  1.0901 -2.4922
 5509SOL    HW217427   0.505   4.656   5.530  1.1002  0.6583 -1.9344
 5510SOL     OW17428   5.516   4.384   1.055 -0.3164 -0.0037 -0.4576
 5510SOL    HW117429   5.520   4.459   1.121 -0.3198  0.4804 -0.9997
 5510SOL    HW217430   5.597   4.387   0.995  0.4381 -1.2972  0.4187
 5511SOL     OW17431   0.259   4.330   6.612  0.7625  0.3489  0.4458
 5511SOL    HW117432   0.287   4.286   6.526  1.4647 -0.4751  1.0671
 5511SOL    HW217433   0.306   4.417   6.621  0.7277  0.4166  0.0194
 5512SOL     OW17434   2.421   5.401   5.154 -0.1974 -0.4230  0.1296
 5512SOL    HW117435   2.432   5.477   5.217 -0.1649  0.4117 -0.8536
 5512SOL    HW217436   2.329   5.363   5.162 -0.1317 -0.4418  0.7980
 5513SOL     OW17437   5.975   0.185   4.355  0.6232 -0.2521 -0.0253
 5513SOL    HW117438   6.027   0.271   4.358 -2.1948  1.7094 -1.8171
 5513SOL    HW217439   5.959   0.159   4.260 -2.2981 -0.2190  0.3525
 5514SOL     OW17440   3.661   6.836   4.214 -0.1850  0.2842 -0.0669
 5514SOL    HW117441   3.580   6.861   4.267 -0.7011 -0.1980 -0.6075
 5514SOL    HW217442   3.655   6.740   4.188 -0.4209  0.7176 -1.7742
 5515SOL     OW17443   4.829   6.340   4.501  0.5512 -0.2015  0.0846
 5515SOL    HW117444   4.907   6.286   4.470 -0.6673 -1.0338 -1.7512
 5515SOL    HW217445   4.861   6.427   4.539  2.3861 -0.9101  0.2452
 5516SOL     OW17446   2.050   3.515   5.616  0.0544  0.5313  0.0869
 5516SOL    HW117447   2.043   3.481   5.709 -0.3563 -0.2957 -0.2390
 5516SOL    HW217448   2.109   3.455   5.562 -2.3434 -0.9674 -1.0438
 5517SOL     OW17449   4.705   5.722   4.621 -0.3597 -0.2802 -0.4173
 5517SOL    HW117450   4.776   5.660   4.589  0.2347 -0.4385  1.1102
 5517SOL    HW217451   4.693   5.796   4.556  2.4928  0.7495  0.1016
 5518SOL     OW17452   0.944   5.263   1.820 -0.0202 -0.1704  0.6916
 5518SOL    HW117453   1.006   5.192   1.853 -0.3754 -0.7105  0.2091
 5518SOL    HW217454   0.924   5.249   1.723  0.1090  0.7449  0.5230
 5519SOL     OW17455   6.007   3.965   2.159  0.4232  0.3919  0.1712
 5519SOL    HW117456   5.956   4.009   2.085  2.1389 -1.2284 -2.1383
 5519SOL    HW217457   5.943   3.929   2.227 -1.4774 -0.5059 -1.9692
 5520SOL     OW17458   4.908   1.605   1.498  0.0973 -0.3068  0.2285
 5520SOL    HW117459   4.953   1.633   1.582 -2.3848 -0.0424  1.5639
 5520SOL    HW217460   4.824   1.658   1.486 -0.4641 -1.5057 -1.5483
 5521SOL     OW17461   1.395   2.681   4.402 -0.4920 -0.3344  0.7772
 5521SOL    HW117462   1.445   2.731   4.473  1.7103 -1.6262  0.2369
 5521SOL    HW217463   1.326   2.622   4.444  0.3385 -0.5897  1.8052
 5522SOL     OW17464   5.281   0.281   4.650  0.3929 -0.4478  0.1099
 5522SOL    HW117465   5.342   0.221   4.599  0.6210  0.0718 -0.2304
 5522SOL    HW217466   5.313   0.288   4.745  1.0526  0.0772 -0.1450
 5523SOL     OW17467   6.610   5.042   3.078  0.4512 -0.4383  0.8981
 5523SOL    HW117468   6.584   5.134   3.046  1.9833 -0.2511  0.1144
 5523SOL    HW217469   6.532   5.000   3.124 -0.7148  0.7115  0.0439
 5524SOL     OW17470   6.577   3.279   2.575 -0.0392 -0.3049 -0.3342
 5524SOL    HW117471   6.512   3.336   2.624  0.9037  0.0600  0.5256
 5524SOL    HW217472   6.634   3.229   2.640  1.2737  0.2264 -1.0304
 5525SOL     OW17473   0.546   3.593   1.838  0.7840  0.8544 -0.3800
 5525SOL    HW117474   0.634   3.584   1.885  0.0091 -2.0895  0.7436
 5525SOL    HW217475   0.537   3.519   1.772 -2.5257 -1.9274  2.7316
 5526SOL     OW17476   4.883   7.002   6.231 -0.6543  0.1757 -0.2154
 5526SOL    HW117477   4.935   7.064   6.172  0.0530  1.3617  1.5306
 5526SOL    HW217478   4.849   6.925   6.178  3.6048 -1.1730 -1.4051
 5527SOL     OW17479   1.887   0.578   0.248  0.4437  0.2120 -0.0185
 5527SOL    HW117480   1.979   0.571   0.211 -0.1201  0.5370 -1.5778
 5527SOL    HW217481   1.831   0.637   0.189 -1.0295 -0.7539  0.3443
 5528SOL     OW17482   4.118   1.968   5.697  0.5179 -0.3665 -0.1462
 5528SOL    HW117483   4.129   1.932   5.790 -1.3058  0.1490  0.3157
 5528SOL    HW217484   4.025   1.950   5.665  0.7463  0.5352 -1.4005
 5529SOL     OW17485   2.164   1.945   1.015  0.2182 -0.3028 -0.1152
 5529SOL    HW117486   2.205   2.015   1.074  2.1841 -0.8938 -0.6727
 5529SOL    HW217487   2.114   1.988   0.941 -1.0684  0.4598  1.1599
 5530SOL     OW17488   0.301   3.696   1.831 -0.1739 -0.0149 -0.6542
 5530SOL    HW117489   0.244   3.615   1.838 -1.2876  0.7293 -0.8526
 5530SOL    HW217490   0.397   3.670   1.842 -0.3210 -1.6403 -2.6667
 5531SOL     OW17491   6.106   6.238   2.659 -0.4580 -0.5755 -1.0665
 5531SOL    HW117492   6.020   6.188   2.651 -1.5610  1.1567 -0.4879
 5531SOL    HW217493   6.090   6.335   2.645  1.1640 -0.0385  0.4030
 5532SOL     OW17494   3.858   2.185   5.351 -0.3593  0.0867 -0.0666
 5532SOL    HW117495   3.884   2.127   5.428  2.2494 -1.2620 -1.7695
 5532SOL    HW217496   3.787   2.140   5.297  0.4205 -0.7673 -0.4129
 5533SOL     OW17497   3.060   4.864   1.208  0.2212  0.5116  0.0053
 5533SOL    HW117498   3.086   4.824   1.297 -0.3164  0.6320  0.2186
 5533SOL    HW217499   2.984   4.927   1.221  0.9805  1.5280 -0.3537
 5534SOL     OW17500   1.177   4.342   3.098  0.8333  0.8257  0.0472
 5534SOL    HW117501   1.163   4.256   3.049  0.2549  0.0865  1.4432
 5534SOL    HW217502   1.138   4.334   3.190  3.5995  1.4555  1.3573
 5535SOL     OW17503   4.995   1.206   2.039 -0.3934 -0.5994 -0.9468
 5535SOL    HW117504   4.896   1.220   2.039 -0.4006 -0.6377 -0.4216
 5535SOL    HW217505   5.041   1.292   2.063 -0.3012 -0.5838 -1.1810
 5536SOL     OW17506   0.051   3.593   4.278  0.1305  0.7548  0.2358
 5536SOL    HW117507   0.145   3.612   4.306  0.1176  0.6281  0.3679
 5536SOL    HW217508  -0.010   3.659   4.322 -0.0157 -0.1506  1.4409
 5537SOL     OW17509   3.173   4.631   0.816  0.1147  0.3175  0.2584
 5537SOL    HW117510   3.144   4.536   0.811 -0.1713  0.3552  1.1504
 5537SOL    HW217511   3.165   4.673   0.725 -2.5186  0.3015  0.4168
 5538SOL     OW17512   0.145   1.970   0.284  0.1622 -0.4450 -0.0758
 5538SOL    HW117513   0.208   1.918   0.227  0.8032  0.9150 -0.6539
 5538SOL    HW217514   0.051   1.948   0.259  0.4347 -0.4090 -1.1547
 5539SOL     OW17515   5.474   4.151   1.182  0.7427 -0.0746 -0.2271
 5539SOL    HW117516   5.505   4.229   1.128  0.9988  1.4238  1.9436
 5539SOL    HW217517   5.375   4.141   1.172  0.4461  1.5399  0.5718
 5540SOL     OW17518   3.337   2.934   6.036  0.4272 -0.5141  0.6080
 5540SOL    HW117519   3.256   2.933   6.094  0.0242  2.2118  0.1952
 5540SOL    HW217520   3.362   3.028   6.013  4.1145 -1.1516  1.2358
 5541SOL     OW17521   3.892   1.290   4.590 -0.3082 -0.0696 -0.4830
 5541SOL    HW117522   3.822   1.229   4.552  1.3195 -0.6196 -2.8755
 5541SOL    HW217523   3.856   1.383   4.595 -1.6274 -0.5692 -0.3642
 5542SOL     OW17524   4.902   6.668   5.841 -0.5597  0.4161  0.3393
 5542SOL    HW117525   4.909   6.713   5.753 -1.8398  0.1336  0.0727
 5542SOL    HW217526   4.970   6.706   5.904 -1.0845  2.1720 -0.1043
 5543SOL     OW17527   4.526   3.539   6.752 -0.0714  0.0197 -0.2331
 5543SOL    HW117528   4.497   3.551   6.657  2.6269  1.4218 -0.9885
 5543SOL    HW217529   4.490   3.615   6.807  1.1763  1.1501 -0.9203
 5544SOL     OW17530   6.097   1.272   2.708  0.0705 -0.1185 -0.3734
 5544SOL    HW117531   6.179   1.329   2.697  1.6002 -2.1450 -0.0401
 5544SOL    HW217532   6.083   1.217   2.626  0.1192 -1.0739  0.2394
 5545SOL     OW17533   6.783   2.013   4.432 -0.5425 -0.0281  0.0386
 5545SOL    HW117534   6.870   2.049   4.399 -0.6570  0.6212  0.4245
 5545SOL    HW217535   6.796   1.919   4.464 -0.4331 -0.6735 -1.8009
 5546SOL     OW17536   6.473   3.552   0.542 -0.1096 -0.4552  0.1011
 5546SOL    HW117537   6.379   3.577   0.518 -0.5857 -1.2667  1.0466
 5546SOL    HW217538   6.476   3.520   0.636  1.2715  0.2991  0.3484
 5547SOL     OW17539   1.962   5.650   4.237  0.0383  0.7612  0.4386
 5547SOL    HW117540   2.013   5.699   4.307 -0.5993  0.6259  1.0051
 5547SOL    HW217541   2.021   5.581   4.195  0.4519  0.9171  0.7580
 5548SOL     OW17542   1.026   4.627   2.261 -0.1269 -0.3515 -0.2214
 5548SOL    HW117543   0.930   4.610   2.281 -0.1911  0.2360 -0.0078
 5548SOL    HW217544   1.075   4.650   2.345 -0.0502  0.4883 -0.4819
 5549SOL     OW17545   2.927   1.924   3.299 -0.7553  0.5251  0.1537
 5549SOL    HW117546   2.942   2.022   3.287  0.0193  0.7236  2.3228
 5549SOL    HW217547   2.993   1.888   3.365 -1.4550 -1.3260 -0.0987
 5550SOL     OW17548   5.348   6.645   3.444 -0.2024  0.1977  0.1624
 5550SOL    HW117549   5.431   6.589   3.440 -0.8573 -0.8828  1.0340
 5550SOL    HW217550   5.277   6.604   3.386 -0.7270  0.0441  0.8998
 5551SOL     OW17551   5.973   4.773   4.231 -0.4296  0.5961  0.3630
 5551SOL    HW117552   5.919   4.821   4.162 -1.7764 -0.2839  0.7641
 5551SOL    HW217553   5.958   4.674   4.222 -0.9217  0.4781  2.1272
 5552SOL     OW17554   1.729   5.252   6.674 -0.4256  0.4233  0.5687
 5552SOL    HW117555   1.784   5.329   6.644 -0.0408  0.1593  0.5983
 5552SOL    HW217556   1.774   5.205   6.749 -0.7365  0.2657  0.6598
 5553SOL     OW17557   0.746   3.884   6.062 -0.0504  0.0387  0.4189
 5553SOL    HW117558   0.795   3.971   6.070 -0.0632  0.2216 -1.2127
 5553SOL    HW217559   0.723   3.851   6.154  1.6772  0.7495  1.1532
 5554SOL     OW17560   2.180   3.927   6.971  0.4937  0.2591  0.0918
 5554SOL    HW117561   2.237   3.915   6.890  1.0152 -0.5426  0.5649
 5554SOL    HW217562   2.231   3.899   7.053  0.0112  1.1512  0.7116
 5555SOL     OW17563   6.409   2.173   1.674 -0.0704 -0.4068  0.2301
 5555SOL    HW117564   6.409   2.245   1.744  0.3718  1.4517 -1.5900
 5555SOL    HW217565   6.441   2.087   1.715  0.9754  0.7935  2.1075
 5556SOL     OW17566   4.309   5.103   6.030 -0.4334  0.4744 -0.0515
 5556SOL    HW117567   4.311   5.009   5.997  1.8327 -0.2449  1.8303
 5556SOL    HW217568   4.380   5.156   5.984 -2.1151  1.5261 -1.5779
 5557SOL     OW17569   4.770   3.930   1.646 -0.1148  0.1723  0.0184
 5557SOL    HW117570   4.739   4.024   1.652  1.2438  0.6798 -0.3750
 5557SOL    HW217571   4.857   3.927   1.595 -0.4513 -1.3594 -0.5309
 5558SOL     OW17572   5.825   1.390   0.824  0.1110 -0.6657 -0.2688
 5558SOL    HW117573   5.865   1.317   0.768 -0.3480 -1.5656  0.5540
 5558SOL    HW217574   5.760   1.350   0.888  0.8016  0.3149  1.0792
 5559SOL     OW17575   6.855   0.128   1.168 -0.2849 -0.5768 -0.2324
 5559SOL    HW117576   6.908   0.132   1.083  0.6891  1.1057  0.4110
 5559SOL    HW217577   6.911   0.162   1.243 -1.6405 -0.6242  0.8259
 5560SOL     OW17578   2.382   5.619   4.040 -1.0342 -0.1136 -0.3838
 5560SOL    HW117579   2.282   5.616   4.029 -1.5643  1.9477  2.6253
 5560SOL    HW217580   2.417   5.704   4.001 -0.8009  0.2622  0.6389
 5561SOL     OW17581   2.430   5.790   3.725 -0.1597 -0.0102 -0.2660
 5561SOL    HW117582   2.492   5.825   3.795 -1.4398  0.1052  0.8291
 5561SOL    HW217583   2.484   5.742   3.655  1.1286 -0.2808  0.8652
 5562SOL     OW17584   0.098   1.962   2.797 -0.5688  0.2265  0.6498
 5562SOL    HW117585   0.185   1.926   2.763 -0.4451  0.6474  0.5195
 5562SOL    HW217586   0.072   1.913   2.880 -0.8481 -0.7869 -0.0069
 5563SOL     OW17587   6.346   0.690   1.021  0.1406  0.0959 -0.6694
 5563SOL    HW117588   6.292   0.719   1.100 -0.8063 -1.6046 -0.6553
 5563SOL    HW217589   6.288   0.638   0.958  1.7431 -1.7995 -0.6683
 5564SOL     OW17590   0.984   6.674   3.882 -0.2247  0.4970 -0.0900
 5564SOL    HW117591   1.025   6.675   3.791  1.6555  0.4199  0.6990
 5564SOL    HW217592   0.974   6.580   3.914  0.5517  0.5558  0.3602
 5565SOL     OW17593   6.159   0.718   5.598 -0.0402  0.7077 -0.1186
 5565SOL    HW117594   6.171   0.629   5.554  0.4671  1.8479 -2.4606
 5565SOL    HW217595   6.062   0.731   5.621 -0.0309 -0.6387  0.7699
 5566SOL     OW17596   0.789   4.091   6.303  1.1383 -0.0606 -0.0274
 5566SOL    HW117597   0.740   4.177   6.315  1.9403  0.2682  1.0934
 5566SOL    HW217598   0.736   4.016   6.344  0.4244 -0.1188 -1.0351
 5567SOL     OW17599   0.783   0.901   4.493  0.2504  0.7101 -0.4955
 5567SOL    HW117600   0.708   0.947   4.541 -0.8789 -0.0933 -1.4491
 5567SOL    HW217601   0.870   0.923   4.538 -0.6696  0.6920  1.3572
 5568SOL     OW17602   4.047   5.573   5.581  0.0034 -0.6737  0.1240
 5568SOL    HW117603   4.098   5.555   5.496 -0.8959 -1.5711 -0.2530
 5568SOL    HW217604   4.089   5.521   5.656  1.4381  0.9354  0.4887
 5569SOL     OW17605   6.751   0.605   3.010 -0.3064  0.2884 -0.5894
 5569SOL    HW117606   6.677   0.540   2.989  0.0998 -1.1403  2.0213
 5569SOL    HW217607   6.831   0.582   2.955 -0.3661 -1.0782 -0.1472
 5570SOL     OW17608   2.797   4.783   4.453  0.6615  0.4826  0.8016
 5570SOL    HW117609   2.776   4.785   4.551 -0.2860 -0.3978  0.6392
 5570SOL    HW217610   2.891   4.814   4.438  1.0503 -0.0368  2.0605
 5571SOL     OW17611   6.953   3.833   1.357 -0.0183  0.4482 -0.0584
 5571SOL    HW117612   6.861   3.855   1.325  0.4540  0.9193 -1.1556
 5571SOL    HW217613   7.016   3.905   1.329  0.8888 -0.4533 -0.3984
 5572SOL     OW17614   1.769   1.065   6.855  0.4116 -0.1726 -0.3640
 5572SOL    HW117615   1.849   1.121   6.833 -0.6349  0.2966 -3.5815
 5572SOL    HW217616   1.785   0.971   6.824  0.5761 -0.6716  1.1705
 5573SOL     OW17617   2.442   6.453   5.408  0.2210  0.6775  0.2802
 5573SOL    HW117618   2.435   6.547   5.373  0.9348  0.4827 -0.4141
 5573SOL    HW217619   2.353   6.408   5.398 -0.1930  1.3448  0.8343
 5574SOL     OW17620   6.378   4.203   3.416  0.3113  0.0372  0.5615
 5574SOL    HW117621   6.347   4.117   3.375  1.0186 -0.2853  0.6850
 5574SOL    HW217622   6.317   4.277   3.388  0.0524 -0.3966 -0.0547
 5575SOL     OW17623   6.590   0.786   1.039 -0.5554 -0.8189 -0.1580
 5575SOL    HW117624   6.584   0.853   1.113  0.7764  0.0878 -0.8353
 5575SOL    HW217625   6.507   0.731   1.037 -0.9311 -0.3673  1.5340
 5576SOL     OW17626   3.909   4.703   6.813 -0.0543 -0.4652 -0.0853
 5576SOL    HW117627   3.861   4.634   6.867 -1.8170  0.2343 -0.6921
 5576SOL    HW217628   3.850   4.735   6.739  0.6390  1.7856  0.2571
 5577SOL     OW17629   6.768   6.256   6.971 -0.0766 -0.3943 -0.0213
 5577SOL    HW117630   6.669   6.257   6.957 -0.0512  0.3868 -0.2423
 5577SOL    HW217631   6.788   6.253   7.068 -0.3422  0.4282  0.0742
 5578SOL     OW17632   4.235   6.589   4.890 -0.1772 -0.8304 -0.3492
 5578SOL    HW117633   4.327   6.548   4.888  1.3622  1.9596  2.7718
 5578SOL    HW217634   4.217   6.633   4.802  1.6967 -1.0287 -0.8935
 5579SOL     OW17635   1.030   2.026   2.105 -0.1956  0.2553  0.1813
 5579SOL    HW117636   1.090   2.102   2.130  2.7571 -1.7483 -0.2835
 5579SOL    HW217637   1.034   2.013   2.006  0.0777 -1.0249  0.3455
 5580SOL     OW17638   0.290   4.047   1.573  0.1451 -0.3398  0.3710
 5580SOL    HW117639   0.267   4.142   1.594 -1.7396 -0.2948 -1.5224
 5580SOL    HW217640   0.308   3.997   1.657 -0.5985  1.2672  1.5352
 5581SOL     OW17641   1.306   2.472   2.962 -0.8544 -0.0219 -0.8001
 5581SOL    HW117642   1.208   2.490   2.951 -0.8520  0.2544 -0.3807
 5581SOL    HW217643   1.321   2.418   3.045 -0.4609  1.7968  0.3689
 5582SOL     OW17644   2.995   6.682   3.073  0.0525  0.7270  0.1754
 5582SOL    HW117645   3.013   6.672   3.170  0.6566 -1.2730 -0.0888
 5582SOL    HW217646   3.073   6.724   3.028  0.8502 -0.6395  0.2207
 5583SOL     OW17647   2.832   4.809   2.194 -0.2612 -0.6447  0.3153
 5583SOL    HW117648   2.908   4.870   2.170  0.5848 -1.9222 -0.3462
 5583SOL    HW217649   2.830   4.732   2.130 -0.8995 -1.6640  1.5287
 5584SOL     OW17650   5.370   2.303   0.347  0.4554 -0.2054  0.2559
 5584SOL    HW117651   5.376   2.397   0.314  0.7121 -0.6277 -0.9200
 5584SOL    HW217652   5.442   2.248   0.305  1.4225 -0.5653  2.2449
 5585SOL     OW17653   5.162   2.567   0.382 -0.3049 -0.4318 -0.0612
 5585SOL    HW117654   5.245   2.615   0.353  0.3540 -0.6327  1.3961
 5585SOL    HW217655   5.125   2.516   0.305 -0.0368  0.9969 -1.1804
 5586SOL     OW17656   2.913   5.555   6.639  0.1442  0.6167  0.0450
 5586SOL    HW117657   2.841   5.565   6.707 -0.5192 -0.1290 -0.5420
 5586SOL    HW217658   2.878   5.581   6.549  1.0247  1.6275 -0.0269
 5587SOL     OW17659   6.317   0.636   6.447  0.1617  1.1782 -0.2860
 5587SOL    HW117660   6.283   0.722   6.485 -0.6178  1.6569 -1.9584
 5587SOL    HW217661   6.242   0.569   6.445  0.5285  0.7440  0.1631
 5588SOL     OW17662   6.667   1.944   0.542  0.4078  0.0277 -0.1398
 5588SOL    HW117663   6.592   1.933   0.607  1.0771 -0.4166  0.5749
 5588SOL    HW217664   6.633   1.935   0.449 -0.0572 -2.5420  0.2182
 5589SOL     OW17665   2.287   6.238   1.936  0.0518  0.4208 -0.5881
 5589SOL    HW117666   2.302   6.289   2.021 -1.3806  1.1953 -0.7637
 5589SOL    HW217667   2.310   6.296   1.858  1.7319 -0.4164 -0.7655
 5590SOL     OW17668   2.266   4.143   4.421  0.2739 -0.2582 -0.0741
 5590SOL    HW117669   2.240   4.052   4.453 -0.0622 -0.7297 -1.5995
 5590SOL    HW217670   2.344   4.135   4.359 -0.8054  0.2602 -1.5712
 5591SOL     OW17671   6.108   4.319   0.231 -0.0909 -0.2041 -0.3622
 5591SOL    HW117672   6.085   4.390   0.297  1.3530  0.0419 -0.0802
 5591SOL    HW217673   6.144   4.239   0.280 -0.7128 -0.7256 -0.7421
 5592SOL     OW17674   4.328   4.474   1.688 -0.2798  0.1510  0.3477
 5592SOL    HW117675   4.366   4.382   1.705 -0.9490  0.0003  1.0804
 5592SOL    HW217676   4.233   4.466   1.657 -0.6488  0.6179  1.3153
 5593SOL     OW17677   0.047   4.697   1.067  0.0019  0.2423  0.6322
 5593SOL    HW117678   0.104   4.645   1.130  0.2793  0.8569  0.8930
 5593SOL    HW217679  -0.034   4.730   1.114  0.1389  0.5816  0.6322
 5594SOL     OW17680   6.851   6.521   1.287 -0.1446 -0.0877  0.5226
 5594SOL    HW117681   6.912   6.591   1.250  0.4614 -0.9145 -0.0703
 5594SOL    HW217682   6.796   6.561   1.360 -0.5720  1.2776 -0.5067
 5595SOL     OW17683   5.163   4.740   1.825  0.1034 -0.0710 -0.3728
 5595SOL    HW117684   5.132   4.819   1.877  1.1857  0.7542 -0.9183
 5595SOL    HW217685   5.097   4.719   1.753 -0.9162 -0.6086  0.6927
 5596SOL     OW17686   0.330   3.818   5.626  0.3489  0.1939 -0.0383
 5596SOL    HW117687   0.343   3.721   5.647  1.0489  0.0725 -0.9953
 5596SOL    HW217688   0.248   3.829   5.569 -0.5367  0.3360  1.2153
 5597SOL     OW17689   6.682   0.082   3.395  0.2013 -0.2585  0.2497
 5597SOL    HW117690   6.691  -0.013   3.368  1.6801  0.2925 -1.4049
 5597SOL    HW217691   6.679   0.139   3.313 -1.8562  1.0589  1.1554
 5598SOL     OW17692   4.234   3.013   6.781 -0.6218  0.1122 -0.0659
 5598SOL    HW117693   4.193   2.935   6.829 -0.0440  0.9724  1.9041
 5598SOL    HW217694   4.333   3.002   6.778 -0.6826 -0.3028 -1.8230
 5599SOL     OW17695   5.794   2.333   5.140 -0.3706 -0.1134 -0.0386
 5599SOL    HW117696   5.784   2.433   5.134 -0.4900  0.2196  3.5687
 5599SOL    HW217697   5.873   2.311   5.196  0.0663 -2.1350 -1.3544
 5600SOL     OW17698   2.828   1.290   1.202 -0.2842  0.2605  0.0795
 5600SOL    HW117699   2.925   1.271   1.211 -0.0248  1.5269  0.1195
 5600SOL    HW217700   2.811   1.332   1.113 -1.1030 -1.6716 -0.7446
 5601SOL     OW17701   4.244   5.757   4.302  0.2176  0.0847  0.2689
 5601SOL    HW117702   4.146   5.736   4.303  0.5683 -1.7361  0.2895
 5601SOL    HW217703   4.271   5.786   4.210 -0.4377  1.2431  0.4222
 5602SOL     OW17704   1.398   1.332   6.561  0.4473  0.5657 -0.5180
 5602SOL    HW117705   1.450   1.277   6.626  1.1285  1.3846 -0.3557
 5602SOL    HW217706   1.459   1.363   6.488 -0.6767 -1.9776 -2.6841
 5603SOL     OW17707   5.939   1.310   5.922  0.1554 -0.3876  0.3704
 5603SOL    HW117708   5.909   1.397   5.962 -0.5893 -1.1081  1.4482
 5603SOL    HW217709   5.861   1.263   5.882  0.3951 -0.9324  0.5295
 5604SOL     OW17710   6.305   4.716   6.933 -0.2204  0.7842  0.0341
 5604SOL    HW117711   6.375   4.758   6.991 -0.3178 -1.4503  1.9355
 5604SOL    HW217712   6.349   4.652   6.870 -0.4969 -1.5644  2.0737
 5605SOL     OW17713   6.059   2.863   6.132 -0.2773  0.0811  0.4776
 5605SOL    HW117714   6.115   2.780   6.125  0.2841  0.5540 -0.8549
 5605SOL    HW217715   6.074   2.906   6.221  0.8601 -0.2372  0.4467
 5606SOL     OW17716   2.609   1.582   1.828 -0.3025  0.3381  0.8739
 5606SOL    HW117717   2.682   1.515   1.816  1.9306  2.7838 -0.5165
 5606SOL    HW217718   2.523   1.544   1.796  1.1666 -1.3579 -1.4088
 5607SOL     OW17719   4.134   6.377   1.262  0.2599  0.2872 -0.3700
 5607SOL    HW117720   4.102   6.456   1.211 -0.4077  0.4132  0.2256
 5607SOL    HW217721   4.218   6.342   1.220  0.3599  1.0788 -0.8547
 5608SOL     OW17722   0.401   5.484   4.077  0.0780 -0.6074  1.1746
 5608SOL    HW117723   0.408   5.387   4.051 -0.9038 -0.6040  0.8605
 5608SOL    HW217724   0.386   5.539   3.996 -2.4791 -0.5379  1.6048
 5609SOL     OW17725   0.225   2.342   2.728  0.3270  0.2988 -0.2565
 5609SOL    HW117726   0.274   2.256   2.743  0.1998  0.1488 -0.6751
 5609SOL    HW217727   0.126   2.324   2.727  0.2358  0.6492  0.9173
 5610SOL     OW17728   0.812   6.252   6.409  0.0833 -0.3163 -0.1205
 5610SOL    HW117729   0.848   6.274   6.318  1.9456 -1.3283  0.3102
 5610SOL    HW217730   0.856   6.169   6.443  0.6696  0.9110  2.3652
 5611SOL     OW17731   1.879   0.456   1.781 -0.2882 -0.0400  0.4317
 5611SOL    HW117732   1.787   0.476   1.816 -0.4823  0.8518 -0.5422
 5611SOL    HW217733   1.935   0.418   1.855 -0.5963  2.0789  1.8497
 5612SOL     OW17734   3.035   6.738   5.248 -0.4123 -0.0826 -0.2392
 5612SOL    HW117735   3.109   6.786   5.200 -0.7315  1.0733  0.4055
 5612SOL    HW217736   2.990   6.801   5.311 -0.9504 -1.1954  0.5075
 5613SOL     OW17737   5.786   4.882   4.052 -0.2678 -0.0109 -0.0117
 5613SOL    HW117738   5.742   4.959   4.098 -0.6433 -0.4434  0.3555
 5613SOL    HW217739   5.716   4.822   4.012  0.0532  1.1748 -2.5380
 5614SOL     OW17740   1.336   3.886   5.493 -0.0606 -0.4463 -0.3516
 5614SOL    HW117741   1.345   3.801   5.546  1.0336 -0.0788  0.0816
 5614SOL    HW217742   1.388   3.959   5.538 -2.2116  0.8881  0.1194
 5615SOL     OW17743   4.161   1.723   4.025 -0.5655 -0.1135  0.3975
 5615SOL    HW117744   4.253   1.729   3.985 -1.2500  0.3200 -1.1905
 5615SOL    HW217745   4.097   1.774   3.968 -1.8740 -0.7567  1.2578
 5616SOL     OW17746   1.359   4.577   1.076  0.1924 -0.3945  0.4688
 5616SOL    HW117747   1.448   4.565   1.031  0.2107  0.7464  0.1634
 5616SOL    HW217748   1.301   4.635   1.019 -0.4138 -0.3749  1.0992
 5617SOL     OW17749   1.523   7.007   3.487  0.3700  0.6273  0.3827
 5617SOL    HW117750   1.596   6.944   3.517 -2.3138 -2.0120  1.9549
 5617SOL    HW217751   1.480   7.048   3.567 -2.0693 -0.6130 -0.2198
 5618SOL     OW17752   6.838   1.764   4.508 -0.0915 -0.2307 -0.0248
 5618SOL    HW117753   6.809   1.730   4.418 -1.5491  1.4681 -0.2620
 5618SOL    HW217754   6.923   1.719   4.535 -0.4655 -1.9562 -1.5140
 5619SOL     OW17755   3.209   4.053   2.297  0.4540  0.3636  0.8855
 5619SOL    HW117756   3.227   3.961   2.261 -1.3998  0.7480 -1.2526
 5619SOL    HW217757   3.221   4.120   2.224  0.0113  1.6251  1.9323
 5620SOL     OW17758   5.920   1.013   4.794  0.0576 -0.2814 -0.6344
 5620SOL    HW117759   5.915   1.087   4.727  0.5995 -0.1284 -0.5069
 5620SOL    HW217760   5.928   1.050   4.886 -2.7170 -0.4470 -0.2402
 5621SOL     OW17761   0.646   6.509   1.127 -0.1776  0.3864 -0.5884
 5621SOL    HW117762   0.613   6.495   1.221 -0.5206 -1.7604 -0.9557
 5621SOL    HW217763   0.690   6.598   1.120  0.3366  0.4015  1.7443
 5622SOL     OW17764   0.891   0.461   1.308 -0.1964  0.5171 -0.3920
 5622SOL    HW117765   0.956   0.462   1.384 -1.2987  1.4218  0.5710
 5622SOL    HW217766   0.891   0.551   1.263  0.6735 -0.0961 -1.7062
 5623SOL     OW17767   5.446   0.216   3.959  0.2032 -0.1556  0.0731
 5623SOL    HW117768   5.539   0.220   3.995  0.3073  1.8389 -0.2813
 5623SOL    HW217769   5.440   0.272   3.876 -1.0471 -1.1886 -0.5725
 5624SOL     OW17770   1.061   3.417   0.863  0.0946  0.4106 -0.6330
 5624SOL    HW117771   1.130   3.478   0.903  0.0144  0.4602 -0.5686
 5624SOL    HW217772   1.056   3.433   0.764 -0.7601  1.3707 -0.4600
 5625SOL     OW17773   0.109   0.798   0.106  0.3623 -0.0818  0.3078
 5625SOL    HW117774   0.090   0.895   0.088  2.2831  0.7966  2.5313
 5625SOL    HW217775   0.180   0.765   0.044  0.5832  0.2971  0.3588
 5626SOL     OW17776   2.045   0.225   5.041  0.5763  0.6627  0.9066
 5626SOL    HW117777   1.952   0.251   5.016  0.7925  0.0380 -0.6940
 5626SOL    HW217778   2.047   0.128   5.065  0.9704  0.4090 -0.0904
 5627SOL     OW17779   1.715   1.366   6.180 -0.3139  0.5044 -0.4747
 5627SOL    HW117780   1.780   1.397   6.111 -1.6789  2.2472 -1.0602
 5627SOL    HW217781   1.631   1.337   6.136 -0.2511 -0.9551  0.3182
 5628SOL     OW17782   4.860   6.353   2.210  0.3194  0.2546 -0.6024
 5628SOL    HW117783   4.793   6.414   2.168 -0.9993 -1.0501 -0.4589
 5628SOL    HW217784   4.947   6.361   2.162 -0.1276  1.4366 -1.2617
 5629SOL     OW17785   1.358   1.194   2.957  0.2388 -0.1086 -0.3105
 5629SOL    HW117786   1.419   1.229   3.028 -0.5024 -0.3749  0.4789
 5629SOL    HW217787   1.410   1.176   2.873  0.8799  1.5046 -0.2801
 5630SOL     OW17788   6.258   0.677   4.280 -0.4381  0.5213  0.1737
 5630SOL    HW117789   6.340   0.660   4.226  0.3995  1.6015  1.0520
 5630SOL    HW217790   6.183   0.619   4.247 -0.7731  2.8749 -3.8357
 5631SOL     OW17791   5.865   3.734   3.405 -0.4824  0.4005  0.2331
 5631SOL    HW117792   5.786   3.760   3.349  0.0857 -0.7602 -1.1604
 5631SOL    HW217793   5.893   3.641   3.382  1.2218  0.7467  0.7854
 5632SOL     OW17794   0.622   0.511   5.508  0.2157 -0.4517 -0.3100
 5632SOL    HW117795   0.607   0.416   5.535 -1.7491 -0.2674 -0.5726
 5632SOL    HW217796   0.650   0.514   5.412  2.3352 -0.8366  0.2491
 5633SOL     OW17797   4.802   0.303   5.931 -0.0242 -0.1249  0.0022
 5633SOL    HW117798   4.866   0.263   5.996  0.9416  2.0017  0.4763
 5633SOL    HW217799   4.730   0.352   5.981 -1.7368 -1.9765 -0.5346
 5634SOL     OW17800   5.536   5.294   0.820  0.0761 -0.6760  0.2985
 5634SOL    HW117801   5.590   5.350   0.758  0.3023 -0.5971  0.5694
 5634SOL    HW217802   5.450   5.268   0.775 -0.5965  0.9149  0.6269
 5635SOL     OW17803   2.433   5.005   2.645 -0.8845  0.2675  0.4958
 5635SOL    HW117804   2.530   5.027   2.637 -0.6874 -0.5838  0.5338
 5635SOL    HW217805   2.416   4.912   2.612 -1.7592  0.5609  0.0845
 5636SOL     OW17806   6.459   0.419   5.935  0.6598  0.2793  0.6334
 5636SOL    HW117807   6.535   0.360   5.908 -1.6152 -3.2244  1.2044
 5636SOL    HW217808   6.441   0.407   6.033 -1.5221 -0.2189  0.2254
 5637SOL     OW17809   3.041   2.039   5.080 -0.2943  0.0732 -0.0317
 5637SOL    HW117810   3.060   2.110   5.012 -2.3159 -0.1569 -0.9173
 5637SOL    HW217811   2.977   2.075   5.149  0.0280 -0.3637  0.5042
 5638SOL     OW17812   2.630   2.083   3.912 -0.1716  0.1910  0.1881
 5638SOL    HW117813   2.702   2.096   3.844 -0.0277  3.0922  0.7541
 5638SOL    HW217814   2.668   2.038   3.993  1.1905  2.0165  0.6306
 5639SOL     OW17815   1.138   2.736   6.821 -0.3316 -0.3035  0.2033
 5639SOL    HW117816   1.068   2.803   6.797  0.3556  0.6809  0.8574
 5639SOL    HW217817   1.198   2.721   6.742 -0.0062  0.4755  0.2907
 5640SOL     OW17818   3.954   5.809   5.591  0.4475  0.5851  0.0020
 5640SOL    HW117819   4.015   5.870   5.540  0.1055  0.6285 -0.3590
 5640SOL    HW217820   3.986   5.715   5.583  0.6542  0.6484  0.0867
 5641SOL     OW17821   2.565   5.665   2.660 -0.2468 -0.4800  0.6197
 5641SOL    HW117822   2.657   5.703   2.647  0.8063 -2.4687  1.8485
 5641SOL    HW217823   2.528   5.697   2.747 -1.6680  1.9569 -0.7486
 5642SOL     OW17824   6.794   0.013   5.961 -0.2499 -0.4003  0.0303
 5642SOL    HW117825   6.849  -0.062   5.923 -1.2528 -1.3039  0.3039
 5642SOL    HW217826   6.839   0.050   6.042  0.6440 -0.1698 -0.5605
 5643SOL     OW17827   0.649   0.360   3.186  0.0868  0.4037 -0.4261
 5643SOL    HW117828   0.707   0.423   3.134  0.0340 -0.3731 -1.4681
 5643SOL    HW217829   0.563   0.347   3.138 -0.5009  0.6560  0.5321
 5644SOL     OW17830   6.093   3.497   4.851  0.2497 -0.6671  0.4186
 5644SOL    HW117831   6.189   3.490   4.822  0.2402 -1.0809  0.4818
 5644SOL    HW217832   6.089   3.517   4.949  0.2677 -1.9327  0.6870
 5645SOL     OW17833   6.915   5.873   4.072  0.6949 -0.3474 -0.2004
 5645SOL    HW117834   6.926   5.952   4.132  0.6956 -1.4649  1.3359
 5645SOL    HW217835   7.004   5.829   4.057  0.6463 -0.2578 -0.7670
 5646SOL     OW17836   1.231   2.926   4.434  0.4393 -0.2596  0.1992
 5646SOL    HW117837   1.293   2.863   4.480  2.5582  0.4116 -1.5624
 5646SOL    HW217838   1.264   3.020   4.445 -0.9406  0.2522  0.1804
 5647SOL     OW17839   6.045   3.575   2.663 -0.4080  0.3966 -0.2283
 5647SOL    HW117840   5.947   3.576   2.643 -0.8925  3.0399  1.7224
 5647SOL    HW217841   6.092   3.639   2.603  0.1156 -0.5818 -0.8988
 5648SOL     OW17842   2.931   5.252   2.437 -0.0772  0.1773 -0.1002
 5648SOL    HW117843   2.960   5.346   2.459  0.7946 -0.2055  0.4697
 5648SOL    HW217844   2.832   5.248   2.433 -0.1244  1.7898 -3.1654
 5649SOL     OW17845   4.829   3.034   5.770 -0.2083  0.1071  0.8159
 5649SOL    HW117846   4.929   3.029   5.781  0.1535  2.1610 -0.8197
 5649SOL    HW217847   4.789   3.077   5.851  0.6458  1.9937  0.3029
 5650SOL     OW17848   2.275   2.145   0.667 -0.2901  0.1431 -0.4223
 5650SOL    HW117849   2.221   2.199   0.731 -0.9184  1.3772 -1.9371
 5650SOL    HW217850   2.241   2.159   0.574  2.9926  1.4841 -1.5644
 5651SOL     OW17851   1.317   2.466   4.993  0.6034  0.8576  0.3367
 5651SOL    HW117852   1.299   2.560   4.964  2.2112  1.3863  0.9451
 5651SOL    HW217853   1.363   2.417   4.919 -1.0601  0.2208 -0.3346
 5652SOL     OW17854   1.421   3.575   6.748 -0.2644 -0.4318 -0.5413
 5652SOL    HW117855   1.398   3.663   6.790  0.0916 -0.9374  0.7597
 5652SOL    HW217856   1.347   3.510   6.764  0.7251 -1.2088  1.1029
 5653SOL     OW17857   5.391   1.247   1.448 -0.0610 -0.2317  0.3454
 5653SOL    HW117858   5.390   1.335   1.495 -3.1273  0.6604 -1.1498
 5653SOL    HW217859   5.327   1.249   1.372  1.1394 -3.2065 -0.8922
 5654SOL     OW17860   5.794   6.902   4.579  0.2408 -0.6617 -0.1087
 5654SOL    HW117861   5.807   6.836   4.505 -3.5872  0.5031 -2.0406
 5654SOL    HW217862   5.856   6.980   4.565  0.2677 -0.9152 -1.5252
 5655SOL     OW17863   2.864   5.000   1.675 -0.5494 -0.2235 -0.3252
 5655SOL    HW117864   2.961   4.982   1.657 -0.7532  1.3538 -3.8532
 5655SOL    HW217865   2.856   5.061   1.754  1.5817  1.4629 -1.2929
 5656SOL     OW17866   3.599   1.453   3.203  0.3984  0.3729 -0.6426
 5656SOL    HW117867   3.568   1.365   3.238  2.3268  0.1283  0.5939
 5656SOL    HW217868   3.699   1.458   3.210  0.4050  2.2899 -1.5859
 5657SOL     OW17869   1.082   4.365   0.526  0.4380  0.1888  0.5813
 5657SOL    HW117870   1.084   4.401   0.620 -2.7225 -0.9259  1.1848
 5657SOL    HW217871   1.114   4.271   0.526  2.7756  0.9049  0.0276
 5658SOL     OW17872   1.384   1.980   4.506  0.4382 -0.0955  0.3666
 5658SOL    HW117873   1.394   1.895   4.455  0.4362  0.8703 -1.3130
 5658SOL    HW217874   1.312   1.970   4.574  0.5879 -1.4963  0.3342
 5659SOL     OW17875   5.024   6.681   1.708  0.2643  0.2489 -0.0705
 5659SOL    HW117876   4.939   6.635   1.684  0.7633 -0.2761 -0.9032
 5659SOL    HW217877   5.044   6.666   1.805  0.9090 -2.1963 -0.5115
 5660SOL     OW17878   4.091   2.636   5.458 -0.2050 -0.0680  0.4776
 5660SOL    HW117879   4.052   2.567   5.397  0.8737  0.5292 -0.9612
 5660SOL    HW217880   4.190   2.644   5.441 -0.1264  1.0818  1.3407
 5661SOL     OW17881   5.298   5.014   5.469  0.5598 -0.3824 -0.3164
 5661SOL    HW117882   5.239   5.087   5.433 -0.0831 -1.2240 -1.0329
 5661SOL    HW217883   5.383   5.010   5.415  0.3530 -0.5117 -0.6385
 5662SOL     OW17884   5.984   3.117   3.554  0.3055  0.0996  0.3560
 5662SOL    HW117885   5.980   3.176   3.473 -0.6497  0.4093  0.6183
 5662SOL    HW217886   6.061   3.145   3.612  0.2115  0.7146  0.1859
 5663SOL     OW17887   4.629   3.390   0.531  0.0084 -0.0992 -0.1353
 5663SOL    HW117888   4.530   3.381   0.530 -0.0272  0.2072  0.2721
 5663SOL    HW217889   4.666   3.366   0.441 -0.2113 -2.5541  0.3622
 5664SOL     OW17890   1.845   3.583   4.435 -0.3383  0.1802 -0.6306
 5664SOL    HW117891   1.939   3.572   4.403  0.1213 -0.3019  0.7791
 5664SOL    HW217892   1.846   3.601   4.534 -1.7679 -1.1126 -0.3416
 5665SOL     OW17893   3.399   1.372   5.429 -0.3700  0.4546 -0.1363
 5665SOL    HW117894   3.343   1.332   5.501 -0.6840 -1.1344 -1.2121
 5665SOL    HW217895   3.378   1.470   5.421  1.5545  1.3543  3.6134
 5666SOL     OW17896   6.840   3.070   1.371 -0.6481 -0.3363 -0.0073
 5666SOL    HW117897   6.753   3.039   1.334 -1.8866 -0.2375  2.6175
 5666SOL    HW217898   6.865   3.157   1.329 -1.6402 -0.5038 -0.9982
 5667SOL     OW17899   7.004   5.337   5.198 -0.2356  0.8685  0.0821
 5667SOL    HW117900   6.986   5.242   5.223  0.9679 -0.0692 -2.3183
 5667SOL    HW217901   7.085   5.370   5.247  1.7703 -0.7451 -1.9604
 5668SOL     OW17902   1.014   1.651   2.162  0.2436  0.4473 -0.3072
 5668SOL    HW117903   1.112   1.661   2.142  0.0467  1.8131 -0.7050
 5668SOL    HW217904   0.973   1.585   2.098  0.8115  0.2061 -0.4283
 5669SOL     OW17905   6.923   1.174   2.346  0.4612  0.4146 -0.0101
 5669SOL    HW117906   6.996   1.106   2.345  1.1169  1.0506  1.1070
 5669SOL    HW217907   6.843   1.140   2.297  0.9922 -0.8933  0.0066
 5670SOL     OW17908   6.508   3.319   5.431  0.0803 -0.1845  0.4391
 5670SOL    HW117909   6.448   3.293   5.355 -0.5353 -0.4900  1.0160
 5670SOL    HW217910   6.589   3.365   5.396  0.8200 -2.1672 -0.5545
 5671SOL     OW17911   1.041   5.851   4.807 -0.0618 -0.3793 -0.3732
 5671SOL    HW117912   0.944   5.827   4.814  0.0952 -0.5963  1.6763
 5671SOL    HW217913   1.058   5.938   4.853  0.9602 -1.1255  0.7137
 5672SOL     OW17914   3.592   4.893   1.681  0.2158  0.1921  0.4103
 5672SOL    HW117915   3.594   4.827   1.756  1.0857 -0.2677 -0.0019
 5672SOL    HW217916   3.508   4.882   1.628 -0.2976  0.3653  1.1630
 5673SOL     OW17917   0.304   2.486   6.520  0.5803 -0.1548 -0.4815
 5673SOL    HW117918   0.365   2.543   6.574 -1.2791  2.4253 -0.9371
 5673SOL    HW217919   0.298   2.395   6.561  5.8246 -1.1848 -1.2581
 5674SOL     OW17920   0.874   0.115   1.517  0.0657  0.0793  0.0863
 5674SOL    HW117921   0.955   0.140   1.569 -0.2981  0.4434  0.4862
 5674SOL    HW217922   0.814   0.058   1.574 -0.4789  0.7282  0.1806
 5675SOL     OW17923   0.793   1.861   0.928  0.0970  0.2537 -0.5593
 5675SOL    HW117924   0.859   1.918   0.878  0.3708  0.4778  0.0499
 5675SOL    HW217925   0.842   1.789   0.977  0.2042  1.9065  1.9482
 5676SOL     OW17926   0.273   3.387   1.412  0.4833 -0.2488  0.1545
 5676SOL    HW117927   0.342   3.458   1.395 -0.1156  0.0483 -1.1787
 5676SOL    HW217928   0.287   3.311   1.348 -0.4757 -0.1382 -0.1963
 5677SOL     OW17929   3.852   6.357   0.006 -0.1748  0.0893  0.2850
 5677SOL    HW117930   3.874   6.394   0.096 -1.0397  1.4448 -0.0370
 5677SOL    HW217931   3.847   6.431  -0.061 -0.5589 -0.7773 -0.6797
 5678SOL     OW17932   4.383   4.364   1.367 -1.2984 -0.1796  0.7945
 5678SOL    HW117933   4.322   4.327   1.437 -1.0017 -0.2332  1.0298
 5678SOL    HW217934   4.339   4.359   1.278 -1.7402  0.0264  0.9992
 5679SOL     OW17935   3.167   5.321   6.949  0.1967  0.1965 -0.1868
 5679SOL    HW117936   3.128   5.308   6.858  1.1347  1.0544 -0.7288
 5679SOL    HW217937   3.110   5.275   7.017 -0.3978 -0.6415 -1.2268
 5680SOL     OW17938   0.686   2.232   6.177 -0.3180 -0.1040  0.1299
 5680SOL    HW117939   0.595   2.234   6.218  0.6914  2.1202  2.5652
 5680SOL    HW217940   0.738   2.155   6.215 -0.1652  0.5577  1.3172
 5681SOL     OW17941   6.426   2.927   6.832  0.5433  0.2561 -0.0347
 5681SOL    HW117942   6.350   2.864   6.851  1.9325 -1.0836  1.3240
 5681SOL    HW217943   6.499   2.877   6.785  0.6314  1.5334 -1.3370
 5682SOL     OW17944   1.620   3.700   2.029  0.0004 -0.2355 -0.4211
 5682SOL    HW117945   1.569   3.741   2.105 -0.2913 -1.1688 -0.1122
 5682SOL    HW217946   1.716   3.691   2.054  0.4881  1.9985 -1.1870
 5683SOL     OW17947   5.889   1.482   2.268 -0.3378  0.3593  0.3957
 5683SOL    HW117948   5.807   1.485   2.324  0.1562 -1.7167  1.3216
 5683SOL    HW217949   5.872   1.428   2.185 -0.2941  1.1101 -0.1109
 5684SOL     OW17950   6.996   3.530   2.026  0.5387  0.0188  0.2919
 5684SOL    HW117951   6.979   3.469   2.104  2.3377  1.1624  1.6827
 5684SOL    HW217952   7.051   3.482   1.958  0.1748 -0.5592  0.3955
 5685SOL     OW17953   5.288   1.164   1.953  0.2153  0.2291  0.4208
 5685SOL    HW117954   5.298   1.258   1.920 -2.2415  1.2006  2.1113
 5685SOL    HW217955   5.191   1.138   1.950  0.7878 -2.0870  0.4916
 5686SOL     OW17956   2.013   5.620   1.442 -0.4151 -0.1023 -0.3185
 5686SOL    HW117957   2.020   5.534   1.392 -1.3860 -0.3127 -0.1079
 5686SOL    HW217958   1.984   5.693   1.380  0.7342  0.1694 -0.5734
 5687SOL     OW17959   5.856   6.476   5.591  0.2191  0.5134 -0.3322
 5687SOL    HW117960   5.905   6.561   5.568  1.6301 -0.2732 -0.3215
 5687SOL    HW217961   5.775   6.468   5.533  0.8600  1.1653 -1.3567
 5688SOL     OW17962   3.226   5.410   1.061 -1.0305 -0.1119 -0.3726
 5688SOL    HW117963   3.317   5.448   1.075 -1.0901 -0.2522  0.4595
 5688SOL    HW217964   3.205   5.407   0.963 -0.8149  1.4798 -0.4909
 5689SOL     OW17965   5.552   6.405   1.104  0.0660  0.1680  0.4600
 5689SOL    HW117966   5.581   6.500   1.114  0.7009 -0.0903  1.1043
 5689SOL    HW217967   5.465   6.402   1.054  0.6365  1.0065 -0.6222
 5690SOL     OW17968   6.060   1.684   2.634 -0.9184  0.2921 -0.1000
 5690SOL    HW117969   6.001   1.760   2.607  0.5367  0.8994 -1.7531
 5690SOL    HW217970   6.083   1.629   2.554  0.3462 -0.2167  0.5767
 5691SOL     OW17971   3.641   5.464   3.596  0.2531  0.0799  0.3026
 5691SOL    HW117972   3.728   5.473   3.547 -0.2076 -0.5470 -0.6639
 5691SOL    HW217973   3.646   5.388   3.660  0.1124 -0.6149 -0.4832
 5692SOL     OW17974   3.636   1.672   0.935  0.8125 -0.2074  0.2815
 5692SOL    HW117975   3.685   1.653   1.020 -0.2640 -1.9988  0.5611
 5692SOL    HW217976   3.538   1.679   0.955  0.5510 -0.6432 -0.8069
 5693SOL     OW17977   3.538   2.887   3.388  0.6571 -0.2367 -0.0084
 5693SOL    HW117978   3.477   2.887   3.309  0.1184 -0.7376  0.4018
 5693SOL    HW217979   3.633   2.900   3.358  0.2458  1.9033 -0.5647
 5694SOL     OW17980   0.531   0.928   2.709  0.3306  0.1791  0.0248
 5694SOL    HW117981   0.444   0.965   2.740 -0.9013 -3.0004  0.8008
 5694SOL    HW217982   0.543   0.947   2.612 -1.8580 -0.3254 -0.3933
 5695SOL     OW17983   3.924   1.920   3.629  0.0209  0.1098  0.3730
 5695SOL    HW117984   3.992   1.859   3.587  0.8536  1.8732 -0.9891
 5695SOL    HW217985   3.940   2.013   3.597  0.0524  1.4437  3.8768
 5696SOL     OW17986   1.030   6.042   0.459 -0.0721  0.1425  0.4472
 5696SOL    HW117987   1.038   6.122   0.399 -0.6629  0.6820  1.0664
 5696SOL    HW217988   0.967   5.976   0.417  1.0068 -0.3515 -0.4259
 5697SOL     OW17989   1.647   2.123   2.995  0.0460  0.0528 -0.5125
 5697SOL    HW117990   1.743   2.102   2.978  0.2300  0.8044 -0.4186
 5697SOL    HW217991   1.638   2.217   3.027 -0.8670  0.4387 -1.8350
 5698SOL     OW17992   5.391   2.837   4.391  0.1755 -0.4323  0.0779
 5698SOL    HW117993   5.339   2.919   4.414  0.0700 -0.0047 -1.6112
 5698SOL    HW217994   5.338   2.780   4.329  0.6848 -1.2647  0.4004
 5699SOL     OW17995   0.094   2.152   5.429  0.1501  0.1043  0.2158
 5699SOL    HW117996   0.162   2.190   5.492  0.6277 -0.9974  0.3765
 5699SOL    HW217997   0.079   2.055   5.450  0.1864 -0.2304 -1.2631
 5700SOL     OW17998   5.626   5.512   4.451  0.5106 -0.4933  0.1645
 5700SOL    HW117999   5.681   5.532   4.370  0.5794  0.5115  0.4340
 5700SOL    HW218000   5.683   5.525   4.533  0.5481 -1.8601  0.3685
 5701SOL     OW18001   4.835   0.820   6.453  0.2383 -0.7377  0.4910
 5701SOL    HW118002   4.893   0.850   6.377 -0.8786  0.0299 -0.1056
 5701SOL    HW218003   4.856   0.873   6.535  1.1019 -1.2132  0.5859
 5702SOL     OW18004   3.360   1.754   2.743 -0.3617 -0.2732 -0.0814
 5702SOL    HW118005   3.439   1.739   2.684 -1.4271 -0.2679 -1.5625
 5702SOL    HW218006   3.299   1.675   2.738 -0.0907 -0.6460  1.7032
 5703SOL     OW18007   2.386   5.648   1.831  0.0764  0.1520 -0.0001
 5703SOL    HW118008   2.304   5.631   1.775  0.3494  1.3461 -0.7984
 5703SOL    HW218009   2.361   5.706   1.908 -0.5858 -2.5819  1.9867
 5704SOL     OW18010   2.875   1.045   4.006  0.2912 -0.2038 -0.1290
 5704SOL    HW118011   2.889   1.034   3.908  0.7732 -0.4835 -0.0315
 5704SOL    HW218012   2.915   1.132   4.036  2.6860 -1.3782  0.2965
 5705SOL     OW18013   5.684   3.878   0.775  0.5136  0.1368  0.3123
 5705SOL    HW118014   5.598   3.920   0.804  0.2329  0.1881 -0.5673
 5705SOL    HW218015   5.679   3.779   0.791  0.5461  0.2222  0.8688
 5706SOL     OW18016   1.103   0.475   4.287 -0.7138 -0.3199 -0.1217
 5706SOL    HW118017   1.114   0.539   4.363 -1.2137 -1.0356  0.5683
 5706SOL    HW218018   1.094   0.382   4.322 -1.1800 -0.6406 -1.0446
 5707SOL     OW18019   3.792   5.183   0.942 -0.4440  0.4134  0.5718
 5707SOL    HW118020   3.788   5.172   0.842 -0.9183 -0.3496  0.6728
 5707SOL    HW218021   3.880   5.224   0.967 -0.9051  2.0130 -0.2841
 5708SOL     OW18022   0.433   4.229   1.169 -0.1274 -0.0345  0.0620
 5708SOL    HW118023   0.466   4.138   1.144 -1.1817  0.0114 -1.6715
 5708SOL    HW218024   0.334   4.233   1.155 -0.6767  0.3898  3.3475
 5709SOL     OW18025   4.931   5.035   5.601 -0.1824 -0.2562 -0.3291
 5709SOL    HW118026   4.919   4.936   5.607 -1.5651 -0.1611 -1.1085
 5709SOL    HW218027   4.930   5.074   5.693  1.6543 -1.0702  0.0813
 5710SOL     OW18028   3.041   0.549   0.470 -0.1254  0.1449  0.0044
 5710SOL    HW118029   3.135   0.563   0.439  0.3623 -1.4980  0.6564
 5710SOL    HW218030   3.017   0.620   0.537  1.0167 -0.0157  0.6102
 5711SOL     OW18031   4.668   6.902   1.279  0.5299  0.0133  0.5166
 5711SOL    HW118032   4.696   6.943   1.192 -1.2709  0.4498  0.1105
 5711SOL    HW218033   4.716   6.947   1.354  0.8144  0.8209 -0.1380
 5712SOL     OW18034   1.104   5.024   5.926 -0.2878  0.4809  0.8844
 5712SOL    HW118035   1.114   5.115   5.886  0.0540 -0.2258 -0.7051
 5712SOL    HW218036   1.169   5.013   6.001  1.2163  0.8009 -0.3283
 5713SOL     OW18037   2.165   0.487   1.892 -0.8159 -1.0001  0.0174
 5713SOL    HW118038   2.116   0.438   1.965 -1.1881 -2.3040 -1.0748
 5713SOL    HW218039   2.144   0.584   1.898  1.4652 -0.5369  3.4859
 5714SOL     OW18040   3.663   1.007   2.622  0.0170  0.2808  0.2573
 5714SOL    HW118041   3.563   1.003   2.619  0.0519 -0.3225 -0.6566
 5714SOL    HW218042   3.693   1.102   2.617 -0.5128  0.4531  0.3316
 5715SOL     OW18043   3.042   0.788   4.612  0.2323 -0.2400 -0.0496
 5715SOL    HW118044   2.962   0.848   4.605  1.5083  1.6194  0.5964
 5715SOL    HW218045   3.088   0.804   4.699  1.9195 -0.4988 -0.8628
 5716SOL     OW18046   5.085   4.270   5.160  0.1703 -0.5050 -0.6076
 5716SOL    HW118047   5.037   4.230   5.238 -0.4911  0.2734 -0.6000
 5716SOL    HW218048   5.018   4.310   5.097  0.7492 -0.3521 -1.1302
 5717SOL     OW18049   5.824   6.195   3.929  0.1484  0.0839  0.9160
 5717SOL    HW118050   5.766   6.207   4.010 -0.3075 -1.6287  0.8735
 5717SOL    HW218051   5.920   6.209   3.954 -0.2081  4.1786  0.7545
 5718SOL     OW18052   6.087   2.217   5.783  0.2015  0.2703  0.2303
 5718SOL    HW118053   6.054   2.122   5.778 -0.1210  0.4215 -0.6488
 5718SOL    HW218054   6.162   2.222   5.849  0.0717 -0.5488  0.4627
 5719SOL     OW18055   1.810   6.633   0.069  0.1134 -0.4469 -0.3562
 5719SOL    HW118056   1.719   6.597   0.092  0.7581 -2.5179 -0.7954
 5719SOL    HW218057   1.802   6.702  -0.002 -1.1414 -0.3876 -0.1775
 5720SOL     OW18058   2.916   5.826   1.083 -0.8835  0.2944  0.4996
 5720SOL    HW118059   2.911   5.832   1.183  2.2701 -0.4534  0.7986
 5720SOL    HW218060   2.944   5.915   1.047  0.6959 -0.1232  0.6062
 5721SOL     OW18061   3.996   5.212   0.013 -0.2083  0.3361 -0.3393
 5721SOL    HW118062   4.000   5.292   0.073 -0.4938 -0.0956  0.2650
 5721SOL    HW218063   3.901   5.199  -0.018 -0.1642  0.2288 -0.4281
 5722SOL     OW18064   5.532   0.255   0.905 -0.3319  0.2122  0.3349
 5722SOL    HW118065   5.592   0.332   0.929 -2.6963  2.0493  0.7650
 5722SOL    HW218066   5.555   0.222   0.814  0.6107  1.6142  0.0240
 5723SOL     OW18067   3.701   5.451   2.410  0.1625  0.6051 -0.2344
 5723SOL    HW118068   3.710   5.362   2.366  1.9673 -0.6214  2.3678
 5723SOL    HW218069   3.609   5.460   2.449 -0.2614  0.2139 -1.1171
 5724SOL     OW18070   6.651   4.906   1.783 -0.6947  0.2209  0.1715
 5724SOL    HW118071   6.666   4.888   1.881 -0.5746  2.4709  0.6010
 5724SOL    HW218072   6.729   4.954   1.745 -1.7640  1.5484 -0.4281
 5725SOL     OW18073   6.735   5.467   3.807  0.3460 -0.1452 -0.4057
 5725SOL    HW118074   6.741   5.395   3.738 -0.8028 -1.8880  1.2017
 5725SOL    HW218075   6.690   5.431   3.889  1.5688  1.8510  1.2468
 5726SOL     OW18076   5.628   5.458   6.639 -0.6579 -0.5346  0.6106
 5726SOL    HW118077   5.627   5.414   6.549  1.3113 -0.7769  0.6572
 5726SOL    HW218078   5.721   5.456   6.676 -1.4056 -0.3500  2.6257
 5727SOL     OW18079   3.608   2.321   5.840 -0.2902 -0.7514 -0.2742
 5727SOL    HW118080   3.687   2.325   5.778 -0.7044 -1.2519 -0.8442
 5727SOL    HW218081   3.538   2.385   5.809 -0.2576 -0.5657  0.0294
 5728SOL     OW18082   5.305   6.842   6.895 -0.2072  0.3974  0.2534
 5728SOL    HW118083   5.234   6.826   6.963 -0.0937  0.7666  0.4560
 5728SOL    HW218084   5.364   6.761   6.888 -1.1985 -0.2866 -0.5806
 5729SOL     OW18085   1.808   3.339   2.563  0.3356 -0.8952 -0.4650
 5729SOL    HW118086   1.802   3.321   2.465  0.4268  2.5626 -1.2067
 5729SOL    HW218087   1.900   3.371   2.585  0.2448 -1.4190  0.7608
 5730SOL     OW18088   2.685   4.752   4.748  0.4390  0.0333 -0.2320
 5730SOL    HW118089   2.636   4.672   4.714  0.8956 -0.1694 -0.4269
 5730SOL    HW218090   2.728   4.729   4.836  0.9621 -0.0893 -0.5147
 5731SOL     OW18091   4.358   1.420   0.581  0.3666  0.1639 -0.1687
 5731SOL    HW118092   4.439   1.370   0.611  0.4368 -0.1095 -0.7871
 5731SOL    HW218093   4.338   1.396   0.486 -0.6129  0.0092  0.0666
 5732SOL     OW18094   3.827   2.631   1.413  0.3385 -0.0703  0.0216
 5732SOL    HW118095   3.910   2.649   1.464  0.1133  0.3772  0.2307
 5732SOL    HW218096   3.827   2.535   1.382  1.5518  0.2751 -1.1488
 5733SOL     OW18097   6.101   2.572   0.397  0.7651 -0.0989  0.4678
 5733SOL    HW118098   6.173   2.509   0.369  0.7299 -0.1955  0.5922
 5733SOL    HW218099   6.038   2.525   0.459 -1.1437 -0.9696 -1.9695
 5734SOL     OW18100   3.965   0.994   5.238  0.2833  0.3309  0.3723
 5734SOL    HW118101   4.018   0.929   5.183 -1.0438 -1.2641  0.9379
 5734SOL    HW218102   3.890   1.031   5.183  0.5059  0.7256  0.3284
 5735SOL     OW18103   5.696   3.549   6.282  0.0467  0.4189 -0.0063
 5735SOL    HW118104   5.613   3.602   6.300 -0.9599 -0.8732 -0.6239
 5735SOL    HW218105   5.684   3.497   6.197  0.5170 -1.6136  1.1110
 5736SOL     OW18106   2.224   5.035   5.552  0.6191 -0.5246  0.9891
 5736SOL    HW118107   2.157   5.070   5.617  0.9933 -0.0473  1.1235
 5736SOL    HW218108   2.278   4.963   5.595 -0.3827 -1.5360  0.6026
 5737SOL     OW18109   2.983   0.086   4.409 -0.4397 -0.4416 -0.2460
 5737SOL    HW118110   2.976   0.070   4.310 -0.1532 -1.0551 -0.1722
 5737SOL    HW218111   2.939   0.173   4.431  1.8155  1.0383 -1.2735
 5738SOL     OW18112   2.809   2.007   4.740 -0.6477  0.0609  0.2234
 5738SOL    HW118113   2.880   1.960   4.688 -0.7489  0.7249 -0.5351
 5738SOL    HW218114   2.793   1.959   4.826  2.0624  0.9515  1.3068
 5739SOL     OW18115   0.697   3.462   5.756 -0.2130  0.1868  0.5379
 5739SOL    HW118116   0.726   3.492   5.665 -2.3429  1.0576  0.0781
 5739SOL    HW218117   0.758   3.390   5.789  1.8136  1.2490 -0.6896
 5740SOL     OW18118   2.647   5.022   4.058 -0.8324  0.3406 -0.4926
 5740SOL    HW118119   2.561   4.996   4.014 -0.8179 -0.5638 -0.0215
 5740SOL    HW218120   2.633   5.028   4.157 -0.3323  0.0872 -0.4025
 5741SOL     OW18121   1.716   4.823   4.586 -0.2683  0.0846 -0.0159
 5741SOL    HW118122   1.757   4.733   4.574 -0.3964 -0.1080  0.9140
 5741SOL    HW218123   1.644   4.836   4.518  0.8933  0.1892 -1.2772
 5742SOL     OW18124   7.016   2.864   5.957  0.3435 -0.3261  0.1668
 5742SOL    HW118125   7.036   2.955   5.994 -0.5096  0.1158 -0.4138
 5742SOL    HW218126   7.052   2.857   5.864  0.8862 -0.7834  0.4070
 5743SOL     OW18127   5.962   2.019   2.282  0.4827  0.1432 -0.1145
 5743SOL    HW118128   5.999   2.019   2.375  0.7901 -0.9528 -0.2169
 5743SOL    HW218129   5.966   1.926   2.245  0.9263  0.6761 -1.4553
 5744SOL     OW18130   1.834   4.615   3.957  0.2069 -0.0822  0.0645
 5744SOL    HW118131   1.831   4.524   3.917 -0.1239  1.0129 -2.6538
 5744SOL    HW218132   1.927   4.634   3.991  0.6813 -0.8819 -0.7519
 5745SOL     OW18133   3.496   5.664   6.086  0.2513  0.2634  0.0413
 5745SOL    HW118134   3.559   5.608   6.033 -0.1057  0.9017 -1.0817
 5745SOL    HW218135   3.527   5.669   6.181  1.2751 -0.3356 -0.2544
 5746SOL     OW18136   5.800   2.431   4.694  0.3015  0.1371  0.2250
 5746SOL    HW118137   5.783   2.359   4.762 -0.7061  1.6704  1.6699
 5746SOL    HW218138   5.890   2.470   4.709  0.8968 -0.8328 -0.6319
 5747SOL     OW18139   3.209   0.433   1.539 -0.0333 -0.0533 -0.0961
 5747SOL    HW118140   3.119   0.444   1.581 -0.2744  1.3556 -0.9104
 5747SOL    HW218141   3.199   0.417   1.441  0.5787 -1.2164  0.0177
 5748SOL     OW18142   5.937   2.320   2.656 -0.1208  0.6388  0.2721
 5748SOL    HW118143   5.979   2.404   2.623 -1.0178  0.4941 -1.3544
 5748SOL    HW218144   5.837   2.332   2.659 -0.2310 -0.2375  0.3650
 5749SOL     OW18145   5.589   6.639   0.398  0.2706  0.1326 -0.3402
 5749SOL    HW118146   5.587   6.540   0.414  0.5261  0.2593  0.5460
 5749SOL    HW218147   5.619   6.685   0.481 -2.9283  1.1809  0.3939
 5750SOL     OW18148   4.894   0.593   1.091  0.4149 -0.5861 -0.1920
 5750SOL    HW118149   4.810   0.622   1.135  0.9652 -0.1621  0.6149
 5750SOL    HW218150   4.932   0.513   1.139  1.6991  0.6644  0.9945
 5751SOL     OW18151   4.886   4.720   3.813 -0.0987  0.2230 -0.2923
 5751SOL    HW118152   4.895   4.680   3.904  1.0932  1.0641 -0.0147
 5751SOL    HW218153   4.930   4.810   3.811  0.1394  0.1106 -1.7694
 5752SOL     OW18154   1.872   6.524   6.187  0.2412 -0.0792 -0.0505
 5752SOL    HW118155   1.918   6.492   6.269  1.1743  1.4161  0.0490
 5752SOL    HW218156   1.871   6.624   6.186 -0.4228 -0.0689 -1.4869
 5753SOL     OW18157   1.587   1.159   2.746 -0.0991 -0.2992  0.1863
 5753SOL    HW118158   1.635   1.247   2.744 -0.5849 -0.0294 -1.9924
 5753SOL    HW218159   1.655   1.085   2.739  0.2000 -0.0281  0.1723
 5754SOL     OW18160   3.909   0.757   1.125 -0.0592 -0.5632  0.1509
 5754SOL    HW118161   3.956   0.669   1.137 -1.7487 -1.5311 -0.0522
 5754SOL    HW218162   3.854   0.754   1.041 -0.2924  0.6202  0.2482
 5755SOL     OW18163   2.472   0.313   5.760  0.5282 -0.3616  0.7442
 5755SOL    HW118164   2.565   0.277   5.753  0.5227 -0.2706  0.1033
 5755SOL    HW218165   2.435   0.327   5.668  0.4253  1.0063  0.9745
 5756SOL     OW18166   6.264   2.349   0.320  0.1544  0.1144  0.1364
 5756SOL    HW118167   6.298   2.320   0.409 -0.1759  1.2185  0.6358
 5756SOL    HW218168   6.326   2.317   0.248  0.3187 -0.9422  0.7347
 5757SOL     OW18169   6.761   1.305   3.671 -0.8293 -0.4014 -0.6815
 5757SOL    HW118170   6.789   1.371   3.602 -0.9807  1.1662  0.6900
 5757SOL    HW218171   6.759   1.213   3.631 -0.0957  0.3318 -2.4994
 5758SOL     OW18172   4.141   5.762   6.427 -0.2128 -0.1286 -0.0662
 5758SOL    HW118173   4.130   5.861   6.439 -1.8570 -0.1012 -1.4022
 5758SOL    HW218174   4.080   5.714   6.490  0.1956 -0.3007  0.2063
 5759SOL     OW18175   6.897   1.951   1.361 -0.1588  0.1535 -0.0498
 5759SOL    HW118176   6.919   1.975   1.267 -0.3594  0.5404  0.0009
 5759SOL    HW218177   6.968   1.988   1.422  1.3304 -2.1872 -0.2496
 5760SOL     OW18178   0.863   0.302   6.382 -0.2415  0.4763 -0.1201
 5760SOL    HW118179   0.802   0.232   6.345 -0.4277  0.6344 -0.1119
 5760SOL    HW218180   0.813   0.359   6.448  0.4164 -0.5783  1.3269
 5761SOL     OW18181   0.367   4.632   3.535  0.4327 -0.6281  0.2927
 5761SOL    HW118182   0.284   4.595   3.577  1.2785 -2.4377  0.4578
 5761SOL    HW218183   0.355   4.730   3.520 -1.4095 -0.6821  1.0702
 5762SOL     OW18184   0.786   6.887   0.861  0.4029 -0.0256  0.3596
 5762SOL    HW118185   0.878   6.865   0.894  0.6425  1.1297  0.5107
 5762SOL    HW218186   0.743   6.952   0.924  0.7917  2.0918 -1.4353
 5763SOL     OW18187   2.275   3.545   6.557  0.5784 -0.1910 -0.4925
 5763SOL    HW118188   2.207   3.514   6.491 -0.5480  0.2734  0.4253
 5763SOL    HW218189   2.294   3.472   6.622  0.9582 -0.3141 -0.7366
 5764SOL     OW18190   5.353   2.275   4.926 -0.3969 -0.0943  0.3687
 5764SOL    HW118191   5.277   2.329   4.890 -0.1031  1.0887  1.4576
 5764SOL    HW218192   5.325   2.179   4.934 -1.0686 -0.0535 -1.2023
 5765SOL     OW18193   2.734   6.267   1.190 -0.6645  0.1201  0.6041
 5765SOL    HW118194   2.820   6.254   1.141  0.2347  1.3204  1.7895
 5765SOL    HW218195   2.658   6.234   1.134  0.6309 -1.9165 -0.0534
 5766SOL     OW18196   2.368   6.699   5.287 -0.9678  0.1702 -0.2538
 5766SOL    HW118197   2.272   6.676   5.302 -1.1009  0.9577  0.1374
 5766SOL    HW218198   2.381   6.726   5.191 -1.2930  0.7823 -0.1330
 5767SOL     OW18199   5.209   2.611   2.493 -0.6668  0.2052  0.5185
 5767SOL    HW118200   5.145   2.554   2.441 -2.6283  1.8564  1.0167
 5767SOL    HW218201   5.158   2.668   2.557  1.0800  3.1499 -0.5353
 5768SOL     OW18202   0.112   3.543   0.687 -0.1427  0.4230 -0.4122
 5768SOL    HW118203   0.158   3.524   0.774 -0.7966  0.1852 -0.1105
 5768SOL    HW218204   0.074   3.636   0.690 -0.4274  0.3053 -0.3220
 5769SOL     OW18205   0.867   0.910   1.801  0.0753 -0.1731 -0.8047
 5769SOL    HW118206   0.783   0.936   1.849  0.3166 -1.5490  0.4385
 5769SOL    HW218207   0.847   0.836   1.738  0.2946 -0.2620 -0.7687
 5770SOL     OW18208   6.879   5.009   4.057 -0.5668  0.1480  0.2723
 5770SOL    HW118209   6.885   5.052   4.147 -1.8384  0.3204  0.2932
 5770SOL    HW218210   6.930   5.064   3.991 -0.1751  0.3787  0.7556
 5771SOL     OW18211   0.081   6.792   2.648  0.3171  0.8414  0.3706
 5771SOL    HW118212   0.139   6.739   2.709 -0.3151 -0.1554  0.1260
 5771SOL    HW218213   0.082   6.751   2.556 -1.6141  0.1269  0.6214
 5772SOL     OW18214   2.123   1.511   6.407  0.1446  0.0266  0.4746
 5772SOL    HW118215   2.200   1.571   6.384 -0.5017  0.7413  0.1111
 5772SOL    HW218216   2.152   1.416   6.400  0.7527  0.2668 -0.5881
 5773SOL     OW18217   5.778   6.840   5.673 -0.2817 -0.2069 -0.2699
 5773SOL    HW118218   5.807   6.780   5.599 -1.3649 -1.1960  0.0633
 5773SOL    HW218219   5.783   6.935   5.644  1.0102 -0.4719 -0.9823
 5774SOL     OW18220   3.717   0.896   5.984 -0.4928  0.6450 -0.1545
 5774SOL    HW118221   3.716   0.971   5.918 -1.1273 -0.2561 -1.1952
 5774SOL    HW218222   3.624   0.865   6.001 -0.2044 -0.2085 -0.0800
 5775SOL     OW18223   6.086   2.545   2.568  0.0084 -0.1980  0.2964
 5775SOL    HW118224   6.159   2.547   2.636 -0.2922 -1.1924  0.6718
 5775SOL    HW218225   6.026   2.623   2.581  1.5987  1.2617 -0.7218
 5776SOL     OW18226   3.159   0.666   0.174  0.3337  0.0345  0.5274
 5776SOL    HW118227   3.162   0.619   0.086  0.9733 -0.2081  0.6787
 5776SOL    HW218228   3.069   0.652   0.216  0.4264 -0.8283  0.4513
 5777SOL     OW18229   6.263   4.637   2.674 -0.1934 -0.1808  0.8444
 5777SOL    HW118230   6.257   4.686   2.761 -0.6691  1.7059 -0.1829
 5777SOL    HW218231   6.178   4.649   2.623  1.0591  1.1952 -1.0707
 5778SOL     OW18232   5.678   5.039   3.134 -0.3305 -0.3361 -0.4545
 5778SOL    HW118233   5.734   5.080   3.207  0.4229  0.5071 -1.4689
 5778SOL    HW218234   5.582   5.041   3.161 -0.0753  0.0559  0.4776
 5779SOL     OW18235   6.994   5.350   6.771  0.1618  0.2958  0.5429
 5779SOL    HW118236   6.907   5.305   6.787 -0.2324  0.9108  0.1704
 5779SOL    HW218237   7.056   5.330   6.847 -0.3223 -0.0809  0.8473
 5780SOL     OW18238   0.591   3.488   4.723 -0.0262  0.8435 -0.0934
 5780SOL    HW118239   0.614   3.575   4.766  1.4777  0.2723  0.3302
 5780SOL    HW218240   0.674   3.446   4.686 -0.8694  0.0150 -1.1237
 5781SOL     OW18241   1.395   3.493   1.511 -0.3440 -0.3808 -0.0811
 5781SOL    HW118242   1.415   3.429   1.586  1.4953 -2.1777 -1.9474
 5781SOL    HW218243   1.480   3.515   1.463 -1.3293  1.5009 -1.0699
 5782SOL     OW18244   2.140   5.544   1.051  0.0036  0.4846 -0.4378
 5782SOL    HW118245   2.230   5.588   1.058 -0.1930  1.0176 -1.0783
 5782SOL    HW218246   2.069   5.615   1.042 -0.2143  0.0609 -2.6880
 5783SOL     OW18247   4.572   4.188   1.275 -0.5407  0.2690 -0.3867
 5783SOL    HW118248   4.542   4.099   1.310 -0.2167  1.5110  3.4601
 5783SOL    HW218249   4.511   4.260   1.306  1.4933  1.8554  0.2156
 5784SOL     OW18250   2.119   4.867   1.450 -0.1931 -0.2709  0.3006
 5784SOL    HW118251   2.054   4.924   1.399  0.1945 -0.4040 -0.3584
 5784SOL    HW218252   2.204   4.917   1.462 -1.1178  0.7902  3.1326
 5785SOL     OW18253   5.647   4.330   4.658  0.1216  0.3622 -0.1984
 5785SOL    HW118254   5.664   4.413   4.606 -0.5054  0.2976 -0.5067
 5785SOL    HW218255   5.555   4.297   4.640  1.3256 -2.1092 -2.5373
 5786SOL     OW18256   5.935   5.878   0.647  0.0428  0.1836  0.0383
 5786SOL    HW118257   5.979   5.863   0.559  1.1909  3.1558  0.0251
 5786SOL    HW218258   5.852   5.933   0.634  0.1198  0.4868  0.7939
 5787SOL     OW18259   1.894   1.122   6.290  0.0070  0.2332  0.0608
 5787SOL    HW118260   1.859   1.042   6.241 -0.6093  0.1244  0.6680
 5787SOL    HW218261   1.962   1.169   6.233  1.4510 -1.5215  0.2324
 5788SOL     OW18262   2.073   4.912   2.875 -0.0114 -0.6996 -0.2108
 5788SOL    HW118263   2.105   4.935   2.967 -1.7240 -1.7416  0.7065
 5788SOL    HW218264   2.119   4.970   2.808  0.0975  1.2355  1.4398
 5789SOL     OW18265   4.207   4.727   2.340  0.2707  0.2324  0.0852
 5789SOL    HW118266   4.255   4.639   2.332 -0.2473  0.0593 -1.4973
 5789SOL    HW218267   4.164   4.733   2.430  1.9591 -0.2574  0.9689
 5790SOL     OW18268   4.678   5.392   5.655  0.6575 -0.4794 -0.6302
 5790SOL    HW118269   4.733   5.434   5.727 -0.9802  2.3418 -0.8923
 5790SOL    HW218270   4.684   5.446   5.572 -2.2062 -0.1926 -0.7508
 5791SOL     OW18271   6.212   4.937   1.442  0.0964  0.3881  0.4759
 5791SOL    HW118272   6.239   4.926   1.537 -0.0202 -1.5852  0.3366
 5791SOL    HW218273   6.116   4.965   1.438  0.5812  2.2732  0.9080
 5792SOL     OW18274   6.493   3.760   6.518  0.0065  0.6138 -0.6348
 5792SOL    HW118275   6.579   3.748   6.568  0.3956 -0.4760 -1.5254
 5792SOL    HW218276   6.502   3.836   6.454  0.6209 -0.0565 -1.3588
 5793SOL     OW18277   2.676   2.297   2.116 -0.2274  0.1195 -0.0166
 5793SOL    HW118278   2.775   2.309   2.111 -0.2407  0.9461  1.1986
 5793SOL    HW218279   2.651   2.265   2.207 -1.0146 -0.9313 -0.5827
 5794SOL     OW18280   5.878   1.866   4.157  0.5538 -0.0311 -0.0978
 5794SOL    HW118281   5.825   1.941   4.199 -1.1845 -0.8531 -0.7082
 5794SOL    HW218282   5.970   1.898   4.137 -0.3684  2.2547 -1.1032
 5795SOL     OW18283   5.242   1.572   6.005 -1.3677 -0.1185 -0.7884
 5795SOL    HW118284   5.212   1.583   5.910  0.2634  0.3522 -1.2701
 5795SOL    HW218285   5.249   1.662   6.048  2.5861  0.2087 -1.7643
 5796SOL     OW18286   5.580   6.809   0.180 -0.1894 -0.1961 -0.4528
 5796SOL    HW118287   5.543   6.743   0.245 -1.3592  0.2100 -0.6678
 5796SOL    HW218288   5.612   6.890   0.230  0.5188 -0.5876 -0.2562
 5797SOL     OW18289   4.422   2.625   1.284  0.0120 -0.0382  0.0598
 5797SOL    HW118290   4.411   2.643   1.186 -0.2842  0.3395  0.1615
 5797SOL    HW218291   4.380   2.538   1.307 -1.3487  0.6175  0.1400
 5798SOL     OW18292   4.371   4.902   2.475 -0.2460  0.3757  0.0962
 5798SOL    HW118293   4.317   4.818   2.482 -1.3136  1.0096 -0.2373
 5798SOL    HW218294   4.311   4.981   2.486  0.4119  1.1354 -1.4173
 5799SOL     OW18295   1.299   5.259   5.042 -0.1817  0.3731 -0.4424
 5799SOL    HW118296   1.227   5.328   5.055  0.5656  1.0289  0.3507
 5799SOL    HW218297   1.370   5.297   4.983  0.2586  0.3075  0.0380
 5800SOL     OW18298   0.940   2.410   1.326  0.0314 -0.6748  0.2234
 5800SOL    HW118299   0.933   2.413   1.426 -0.4819  0.3644  0.1781
 5800SOL    HW218300   0.952   2.503   1.291 -2.8652 -0.5871 -0.8583
 5801SOL     OW18301   6.292   6.625   5.179  0.2241  0.3456  0.4479
 5801SOL    HW118302   6.259   6.588   5.092  2.3521 -1.0571  0.1691
 5801SOL    HW218303   6.269   6.562   5.253 -0.7055  1.0519  0.7772
 5802SOL     OW18304   6.552   1.819   4.972  0.2171 -0.4131  0.1758
 5802SOL    HW118305   6.527   1.737   5.024 -1.6468  1.2226  2.0403
 5802SOL    HW218306   6.614   1.875   5.026  0.6167 -0.0572 -0.6282
 5803SOL     OW18307   3.723   4.253   6.368 -0.5076 -0.5062  0.2435
 5803SOL    HW118308   3.673   4.286   6.448 -0.0461 -0.0302  0.3443
 5803SOL    HW218309   3.664   4.260   6.287 -0.3535  0.8245  0.2183
 5804SOL     OW18310   1.615   6.076   6.127 -0.0507  0.0058 -0.3950
 5804SOL    HW118311   1.630   5.979   6.108  0.2326 -0.1260  0.4690
 5804SOL    HW218312   1.587   6.122   6.043  2.1132 -0.3500 -1.3662
 5805SOL     OW18313   5.087   5.067   0.849  0.6298 -0.6221  0.3269
 5805SOL    HW118314   5.129   5.075   0.939  0.6632 -0.4727  0.2986
 5805SOL    HW218315   5.033   5.150   0.830  1.6575 -0.0765 -0.3276
 5806SOL     OW18316   6.792   0.397   0.512 -0.7285 -0.0642 -0.1142
 5806SOL    HW118317   6.741   0.402   0.597 -0.9390  0.6147 -0.2773
 5806SOL    HW218318   6.788   0.303   0.477 -1.1055 -0.2205  0.3327
 5807SOL     OW18319   5.149   1.669   2.793 -0.1963 -0.7179 -0.2569
 5807SOL    HW118320   5.194   1.757   2.811  0.6033 -1.0231 -0.6778
 5807SOL    HW218321   5.086   1.648   2.867  0.6719 -0.4572  0.5855
 5808SOL     OW18322   4.392   6.761   3.252  0.1098  0.0498  0.1809
 5808SOL    HW118323   4.367   6.806   3.338  0.5161 -0.9648  0.8514
 5808SOL    HW218324   4.467   6.697   3.269  1.9461  1.6840 -1.4310
 5809SOL     OW18325   6.772   6.585   3.702 -0.2509 -0.0311  0.0284
 5809SOL    HW118326   6.712   6.512   3.736 -0.8941  0.6027  0.3040
 5809SOL    HW218327   6.716   6.662   3.672  0.4198  0.4032 -0.1260
 5810SOL     OW18328   5.192   3.059   2.636  0.0537  0.3041  0.6236
 5810SOL    HW118329   5.196   3.027   2.542  0.0027  1.9174  0.0380
 5810SOL    HW218330   5.192   2.981   2.698 -1.2051 -0.8441 -0.7436
 5811SOL     OW18331   1.546   5.250   3.985 -0.0031 -0.3858  0.0161
 5811SOL    HW118332   1.464   5.194   3.991 -0.0555 -0.1576  2.0349
 5811SOL    HW218333   1.538   5.313   3.908 -2.1432  0.2812  0.7213
 5812SOL     OW18334   5.605   5.084   4.798  0.6927 -0.7007  0.4225
 5812SOL    HW118335   5.646   5.159   4.849  0.8580 -0.3254 -0.2574
 5812SOL    HW218336   5.512   5.068   4.831  0.1552  0.7170 -0.3649
 5813SOL     OW18337   1.784   2.773   6.483 -0.0941 -0.1984  0.0373
 5813SOL    HW118338   1.748   2.848   6.427  0.8860 -0.3150 -0.7624
 5813SOL    HW218339   1.778   2.688   6.432  0.9235 -0.2879  0.0541
 5814SOL     OW18340   6.386   6.661   1.357  0.6154 -0.3508 -0.2207
 5814SOL    HW118341   6.298   6.615   1.350  0.3367  0.4743 -3.0056
 5814SOL    HW218342   6.452   6.600   1.400 -0.5271 -2.1479 -0.9373
 5815SOL     OW18343   2.300   1.211   4.780 -0.2263 -0.2935 -0.9021
 5815SOL    HW118344   2.386   1.243   4.820  0.3247 -0.4628 -1.9258
 5815SOL    HW218345   2.264   1.135   4.835 -0.2738  0.4418  0.1210
 5816SOL     OW18346   2.982   0.915   4.881 -0.3107  0.2474  0.4983
 5816SOL    HW118347   3.029   0.851   4.942  0.2353  0.1153 -0.0426
 5816SOL    HW218348   3.030   1.002   4.881 -0.3827  0.2877  0.3594
 5817SOL     OW18349   0.344   3.667   3.411 -0.1479 -0.2309 -0.0410
 5817SOL    HW118350   0.436   3.706   3.405  0.2142 -0.8950  0.9238
 5817SOL    HW218351   0.304   3.689   3.499 -0.9201  0.0451 -0.4551
 5818SOL     OW18352   2.591   6.814   3.832 -0.3538  0.4403  0.1204
 5818SOL    HW118353   2.650   6.890   3.808 -0.7106  1.4192  2.1102
 5818SOL    HW218354   2.644   6.729   3.832  0.0922  0.6624 -1.9326
 5819SOL     OW18355   4.864   2.219   6.437 -0.0543 -0.5274  0.1714
 5819SOL    HW118356   4.807   2.288   6.481  0.7182 -0.4952  1.1617
 5819SOL    HW218357   4.941   2.197   6.497  0.6447 -1.0042 -0.8787
 5820SOL     OW18358   3.315   1.332   2.205 -0.4704 -0.3185  0.2713
 5820SOL    HW118359   3.226   1.289   2.191 -1.1386  1.1999 -0.3700
 5820SOL    HW218360   3.318   1.375   2.296 -0.7442  0.3814 -0.0398
 5821SOL     OW18361   4.526   4.542   6.264 -0.1776 -0.4100  0.3820
 5821SOL    HW118362   4.524   4.496   6.175 -0.2573 -1.1655  0.7672
 5821SOL    HW218363   4.444   4.518   6.315 -0.8133  1.1303  0.1225
 5822SOL     OW18364   3.792   2.088   0.301  0.2799  0.0082  0.3051
 5822SOL    HW118365   3.855   2.012   0.283 -0.0331 -0.1604 -0.1004
 5822SOL    HW218366   3.698   2.058   0.283  0.2306  0.7969 -0.9198
 5823SOL     OW18367   2.210   2.717   2.420 -0.0256  0.1482  0.3523
 5823SOL    HW118368   2.231   2.773   2.341  0.2177 -0.0763  0.2567
 5823SOL    HW218369   2.294   2.690   2.467  0.0006 -1.4475 -0.5189
 5824SOL     OW18370   6.191   5.731   6.179 -0.7334 -0.1911  0.1145
 5824SOL    HW118371   6.105   5.739   6.129 -0.5235 -0.8031 -0.3551
 5824SOL    HW218372   6.215   5.820   6.218 -0.6508  0.4259 -1.2868
 5825SOL     OW18373   6.103   3.989   6.043 -0.6045 -0.3050  0.3079
 5825SOL    HW118374   6.201   3.985   6.027 -0.3467  2.3997  0.8395
 5825SOL    HW218375   6.066   3.896   6.046  1.5355 -1.3462 -2.0820
 5826SOL     OW18376   0.806   5.556   3.098  0.5823  0.5781 -0.0584
 5826SOL    HW118377   0.905   5.547   3.088  0.7400  1.9448  0.0827
 5826SOL    HW218378   0.764   5.465   3.101  1.6850 -0.0062 -1.4135
 5827SOL     OW18379   6.508   4.131   2.893  0.3632  0.5468  0.3366
 5827SOL    HW118380   6.465   4.043   2.914  0.4588  0.4181  0.0065
 5827SOL    HW218381   6.467   4.203   2.949 -1.9821  0.8609 -1.5803
 5828SOL     OW18382   6.320   4.831   4.050  0.3386 -0.2393  0.0768
 5828SOL    HW118383   6.316   4.773   4.131  1.3061  0.9855  1.0334
 5828SOL    HW218384   6.413   4.832   4.014  0.5033  1.2220  0.4774
 5829SOL     OW18385   2.805   1.768   3.627 -0.0458  0.2759 -0.4329
 5829SOL    HW118386   2.838   1.749   3.535 -1.2973 -0.7416 -0.6906
 5829SOL    HW218387   2.762   1.686   3.665 -0.9892  1.1395  0.4252
 5830SOL     OW18388   2.506   1.305   4.943  0.2339 -0.0881  0.1563
 5830SOL    HW118389   2.575   1.346   4.883 -0.0791 -0.9130 -0.7990
 5830SOL    HW218390   2.487   1.366   5.019  0.7855  0.8998 -0.4823
 5831SOL     OW18391   1.026   2.024   3.988 -0.1885  0.6959 -0.3281
 5831SOL    HW118392   1.070   2.000   4.074  0.1087  0.9543 -0.4056
 5831SOL    HW218393   1.095   2.028   3.915 -0.3082  1.2852 -0.4132
 5832SOL     OW18394   6.938   4.029   4.675 -0.9638 -0.0458  0.5737
 5832SOL    HW118395   6.887   4.062   4.596 -1.1098  1.3923  1.2355
 5832SOL    HW218396   7.019   4.086   4.689 -1.2199  0.0682  1.7483
 5833SOL     OW18397   5.500   3.535   4.435 -0.1994  1.0456  0.1158
 5833SOL    HW118398   5.493   3.633   4.455  1.0024  0.8152  1.8705
 5833SOL    HW218399   5.427   3.487   4.483  0.1470  0.9294  0.5318
 5834SOL     OW18400   6.088   0.628   6.760 -0.0690  0.0526  0.6099
 5834SOL    HW118401   6.064   0.722   6.783  1.4061  0.3391  1.0345
 5834SOL    HW218402   6.005   0.572   6.762 -0.8867  1.2214  0.8565
 5835SOL     OW18403   5.459   5.515   3.928 -0.1918 -0.5322 -0.2400
 5835SOL    HW118404   5.470   5.438   3.991 -0.1480 -0.8830 -0.6762
 5835SOL    HW218405   5.372   5.561   3.946  0.7421  0.6680  1.4920
 5836SOL     OW18406   6.320   5.211   6.782  0.5509  0.4239  0.3952
 5836SOL    HW118407   6.228   5.229   6.818 -0.1681  0.7808 -1.4629
 5836SOL    HW218408   6.318   5.217   6.682  2.1573 -1.6226  0.1562
 5837SOL     OW18409   1.138   4.022   3.234 -0.3975 -0.2580  0.3506
 5837SOL    HW118410   1.052   4.070   3.252  0.5038  1.5623  0.0665
 5837SOL    HW218411   1.186   4.006   3.320 -0.7241 -0.6911  0.4522
 5838SOL     OW18412   2.194   1.808   6.697 -0.0724  0.2057  0.5847
 5838SOL    HW118413   2.282   1.762   6.685 -0.1651  0.1347  0.1473
 5838SOL    HW218414   2.186   1.842   6.790  1.5961  2.6423 -0.0649
 5839SOL     OW18415   6.600   0.830   1.856 -0.0237 -0.0606 -0.1583
 5839SOL    HW118416   6.567   0.782   1.936 -3.0941 -1.9352 -2.3383
 5839SOL    HW218417   6.631   0.763   1.787  0.7324  1.3725 -1.2760
 5840SOL     OW18418   2.402   4.590   4.209  0.3047  0.5980  0.3477
 5840SOL    HW118419   2.340   4.602   4.287  0.9681  0.2845  0.9329
 5840SOL    HW218420   2.492   4.627   4.232  0.1820  1.6699 -0.7370
 5841SOL     OW18421   6.610   2.301   4.233 -0.5587 -0.8372  0.3713
 5841SOL    HW118422   6.671   2.365   4.279 -0.9810 -0.9799  1.1591
 5841SOL    HW218423   6.530   2.284   4.291 -1.0219 -1.1629 -0.3489
 5842SOL     OW18424   3.574   1.593   5.117 -0.0184 -0.4200  0.2229
 5842SOL    HW118425   3.671   1.608   5.103 -0.7802  3.0970 -2.8973
 5842SOL    HW218426   3.540   1.657   5.187 -0.1889 -1.5384  1.2025
 5843SOL     OW18427   0.282   2.109   4.027 -0.0859 -0.4577  0.4639
 5843SOL    HW118428   0.350   2.178   4.003 -0.7182 -0.2892 -0.9388
 5843SOL    HW218429   0.233   2.138   4.109 -0.8659  1.1666 -0.5290
 5844SOL     OW18430   6.683   3.412   6.652  0.0363  0.2350  0.1424
 5844SOL    HW118431   6.775   3.439   6.680 -0.1855  0.5302  0.5910
 5844SOL    HW218432   6.626   3.398   6.733 -0.3895  0.3167 -0.1390
 5845SOL     OW18433   0.369   2.706   4.067 -0.1300  0.1146 -0.2766
 5845SOL    HW118434   0.458   2.670   4.042  0.2633  1.0104 -0.2100
 5845SOL    HW218435   0.369   2.805   4.055 -1.1401  0.1136 -0.3417
 5846SOL     OW18436   5.123   5.395   4.541  0.3331 -0.9900 -0.0382
 5846SOL    HW118437   5.203   5.346   4.506 -0.9120 -1.2553 -2.7437
 5846SOL    HW218438   5.049   5.391   4.474 -0.9280  1.8712  1.0057
 5847SOL     OW18439   6.359   1.907   3.559 -0.7282 -0.3107  0.0079
 5847SOL    HW118440   6.299   1.879   3.634 -0.4862 -0.2252  0.2366
 5847SOL    HW218441   6.364   1.834   3.491  1.5609 -1.7854  1.5879
 5848SOL     OW18442   5.344   6.321   0.612  0.0672  0.0450 -0.1804
 5848SOL    HW118443   5.253   6.293   0.581 -0.5423  1.9882 -0.3281
 5848SOL    HW218444   5.337   6.364   0.702  0.9352 -0.3544  0.0841
 5849SOL     OW18445   4.692   3.505   1.480  0.0959 -0.8209  0.1019
 5849SOL    HW118446   4.791   3.517   1.489  0.0845  1.2549 -1.6632
 5849SOL    HW218447   4.673   3.411   1.451  1.7995 -0.6206 -1.9631
 5850SOL     OW18448   6.408   6.021   1.890 -0.1207  0.0152 -0.3049
 5850SOL    HW118449   6.500   5.985   1.871 -0.4699 -0.5361 -0.9737
 5850SOL    HW218450   6.376   5.985   1.977  0.4695  0.5510  0.1424
 5851SOL     OW18451   4.922   4.201   3.783  0.6710 -0.2036 -0.2170
 5851SOL    HW118452   4.891   4.138   3.712 -1.1863  0.5921 -0.1667
 5851SOL    HW218453   4.923   4.294   3.747  2.5557 -0.1192 -0.0349
 5852SOL     OW18454   4.091   2.898   1.716  0.4838 -0.5462 -0.2368
 5852SOL    HW118455   4.048   2.960   1.650  1.9762  1.5258  0.6211
 5852SOL    HW218456   4.028   2.882   1.792  1.2283  2.9149  1.2912
 5853SOL     OW18457   3.454   1.543   5.886 -0.2167 -0.3827  0.0992
 5853SOL    HW118458   3.459   1.456   5.836  0.4920  1.0798 -2.5659
 5853SOL    HW218459   3.525   1.543   5.958  0.5868 -1.5404 -0.6454
 5854SOL     OW18460   4.917   0.438   1.748  0.4981  0.2689 -0.2400
 5854SOL    HW118461   4.928   0.529   1.789  0.6261  0.6072 -1.0192
 5854SOL    HW218462   4.997   0.382   1.769  0.6085  0.4735 -0.1156
 5855SOL     OW18463   5.214   4.285   1.616  0.5104 -0.1412  0.1949
 5855SOL    HW118464   5.138   4.254   1.673  0.1848  0.6321  0.1890
 5855SOL    HW218465   5.245   4.375   1.647  0.9896 -0.1543 -0.2260
 5856SOL     OW18466   0.317   1.112   2.745  0.1642  0.2583 -0.0188
 5856SOL    HW118467   0.230   1.138   2.703 -0.5722  0.3433  1.5137
 5856SOL    HW218468   0.384   1.185   2.732 -0.3436  0.6999 -0.1749
 5857SOL     OW18469   0.385   2.827   1.665  0.4233 -0.1428  0.2448
 5857SOL    HW118470   0.376   2.860   1.759  2.8700 -0.1143  0.5533
 5857SOL    HW218471   0.482   2.811   1.645 -0.1098 -0.9338 -2.0264
 5858SOL     OW18472   3.732   5.157   6.014 -0.1013 -0.8608 -0.2117
 5858SOL    HW118473   3.749   5.229   5.947 -1.4591 -1.4606 -1.2578
 5858SOL    HW218474   3.805   5.089   6.009 -0.3717 -1.0983 -1.3967
 5859SOL     OW18475   0.815   6.854   1.388  0.4701 -0.0707 -0.2135
 5859SOL    HW118476   0.870   6.783   1.432  0.7714  1.2813  1.7565
 5859SOL    HW218477   0.865   6.941   1.390  0.1307  0.2424 -2.5763
 5860SOL     OW18478   5.867   3.134   3.057 -0.6378  0.5575  0.4158
 5860SOL    HW118479   5.855   3.213   2.997  0.4236  1.0812  0.8677
 5860SOL    HW218480   5.784   3.080   3.057 -0.4992  0.2554 -1.9187
 5861SOL     OW18481   6.861   5.509   6.368 -0.5926 -0.4039 -0.4205
 5861SOL    HW118482   6.870   5.497   6.269 -2.7272 -1.3791 -0.5616
 5861SOL    HW218483   6.867   5.419   6.412 -2.8903 -0.4472 -0.0487
 5862SOL     OW18484   4.975   5.206   1.894  0.1562  0.2702 -0.0165
 5862SOL    HW118485   4.957   5.183   1.798 -1.2346  0.5618  0.1557
 5862SOL    HW218486   5.051   5.270   1.899 -0.1506  0.7345 -0.9829
 5863SOL     OW18487   2.098   5.053   6.812 -0.1548 -0.2042  0.0281
 5863SOL    HW118488   2.004   5.078   6.791  0.4519 -0.4588 -3.7017
 5863SOL    HW218489   2.106   4.953   6.820 -0.1583 -0.2013  0.0698
 5864SOL     OW18490   4.332   4.702   1.533  0.5338  0.7101  0.2592
 5864SOL    HW118491   4.236   4.730   1.537  0.7628  1.4514  0.8781
 5864SOL    HW218492   4.347   4.627   1.597  0.3518  0.5672  0.1332
 5865SOL     OW18493   3.201   3.941   6.658  0.4521 -0.0863  0.5309
 5865SOL    HW118494   3.111   3.906   6.683  0.5692 -0.3746  0.5602
 5865SOL    HW218495   3.263   3.864   6.641  0.2880  0.0860 -0.9926
 5866SOL     OW18496   4.607   5.684   2.001 -0.2368  0.1750 -0.1416
 5866SOL    HW118497   4.698   5.689   1.960 -0.3059  2.8829 -0.1141
 5866SOL    HW218498   4.615   5.661   2.098  0.2003 -2.0269 -0.6481
 5867SOL     OW18499   2.213   6.964   6.820 -0.9350 -0.0557 -0.4629
 5867SOL    HW118500   2.186   6.872   6.850 -2.2893  0.7524  0.9886
 5867SOL    HW218501   2.137   7.008   6.774 -1.3461  1.3485  1.4216
 5868SOL     OW18502   1.322   0.695   1.288  0.3680  1.0628  0.0897
 5868SOL    HW118503   1.342   0.634   1.211 -0.4496  0.8850  0.0004
 5868SOL    HW218504   1.407   0.731   1.326  0.8207  0.4875 -0.3607
 5869SOL     OW18505   6.934   0.821   1.878 -0.1552  0.4461  0.2050
 5869SOL    HW118506   6.919   0.730   1.840 -0.6679  1.2252 -1.5630
 5869SOL    HW218507   6.915   0.819   1.977  0.3470 -1.4451  0.3054
 5870SOL     OW18508   3.969   5.339   4.775 -0.0249  0.0207 -0.2430
 5870SOL    HW118509   3.982   5.261   4.714 -1.9394 -0.0528 -0.6365
 5870SOL    HW218510   3.967   5.423   4.721 -1.4120 -0.0147 -0.2815
 5871SOL     OW18511   2.672   6.782   3.136  0.0931  0.3133 -0.0259
 5871SOL    HW118512   2.663   6.729   3.051  0.3821  1.4351 -0.7915
 5871SOL    HW218513   2.593   6.843   3.145  0.9895  1.5950 -0.5282
 5872SOL     OW18514   6.951   4.256   2.816  0.0619 -0.2018 -0.4947
 5872SOL    HW118515   6.897   4.174   2.835  0.6548 -0.6942 -0.8754
 5872SOL    HW218516   6.959   4.311   2.899  0.6907 -1.1529  0.0936
 5873SOL     OW18517   1.902   3.546   3.241  0.7711 -0.3235  0.3168
 5873SOL    HW118518   1.999   3.566   3.250  0.8726 -0.3907 -0.5417
 5873SOL    HW218519   1.889   3.473   3.173  0.1153 -0.1943  0.2958
 5874SOL     OW18520   4.265   3.568   6.415  0.7058  0.1934  0.2807
 5874SOL    HW118521   4.342   3.553   6.477  0.3619  0.7717  0.8501
 5874SOL    HW218522   4.263   3.664   6.387 -1.4633  0.8803  2.5278
 5875SOL     OW18523   4.278   6.705   0.821  0.4591 -0.1124  0.1749
 5875SOL    HW118524   4.221   6.651   0.759  1.4771  0.8031 -1.6181
 5875SOL    HW218525   4.373   6.699   0.792  0.9934  0.1968  1.7847
 5876SOL     OW18526   2.661   1.975   0.320  0.3080 -0.3801 -0.3639
 5876SOL    HW118527   2.661   1.894   0.378  1.5218 -1.1706 -1.3987
 5876SOL    HW218528   2.720   2.045   0.360 -1.2378  0.2775  0.8542
 5877SOL     OW18529   2.275   2.899   3.807 -0.3951 -0.2286  0.1857
 5877SOL    HW118530   2.290   2.923   3.903 -1.2662 -0.3989  0.3674
 5877SOL    HW218531   2.222   2.970   3.762 -1.0758 -0.7450  0.1578
 5878SOL     OW18532   5.780   2.206   0.526 -0.5046 -0.7488  0.2761
 5878SOL    HW118533   5.713   2.164   0.465 -0.2236 -0.5741 -0.1575
 5878SOL    HW218534   5.764   2.175   0.619 -0.7337 -1.2782  0.0664
 5879SOL     OW18535   6.613   2.875   3.859  0.1827 -0.1223  0.2829
 5879SOL    HW118536   6.590   2.791   3.909 -1.8219  0.4474  0.4092
 5879SOL    HW218537   6.666   2.935   3.919 -2.3523  0.6315  1.9336
 5880SOL     OW18538   5.413   6.027   3.042 -0.5870  0.3294  0.1719
 5880SOL    HW118539   5.319   6.038   3.010 -0.4590 -1.4920 -0.9838
 5880SOL    HW218540   5.426   5.934   3.078  0.8862  0.3583 -0.1898
 5881SOL     OW18541   0.447   2.826   5.473 -0.1426 -0.4680  0.0779
 5881SOL    HW118542   0.503   2.856   5.396  1.8855 -3.3643  0.2425
 5881SOL    HW218543   0.431   2.727   5.466 -2.3782 -0.3185  1.8919
 5882SOL     OW18544   5.570   2.149   5.814  0.2740  0.4308  0.4156
 5882SOL    HW118545   5.620   2.155   5.728 -1.0985  0.5377 -0.4048
 5882SOL    HW218546   5.626   2.102   5.882  1.0288 -0.4970 -0.8116
 5883SOL     OW18547   5.422   3.339   3.361 -0.3009 -0.0785  0.1162
 5883SOL    HW118548   5.448   3.412   3.424 -0.0678 -0.3791  0.3778
 5883SOL    HW218549   5.329   3.354   3.328 -0.4426  0.0615  0.5729
 5884SOL     OW18550   3.840   2.308   6.687 -0.3205  0.4632  0.4059
 5884SOL    HW118551   3.785   2.391   6.684 -1.5811 -0.3496  0.5919
 5884SOL    HW218552   3.781   2.227   6.682  0.9198 -0.4378 -0.3605
 5885SOL     OW18553   2.237   3.818   0.690 -0.3300  0.3343  0.1392
 5885SOL    HW118554   2.187   3.899   0.659 -0.1977 -0.0293 -1.0607
 5885SOL    HW218555   2.292   3.782   0.615  2.4991  1.2513  1.6317
 5886SOL     OW18556   5.842   5.237   3.736 -0.3491  0.1247  0.2619
 5886SOL    HW118557   5.817   5.294   3.658  0.0615 -0.3001 -0.1878
 5886SOL    HW218558   5.894   5.292   3.803  0.5645  0.1450 -0.4415
 5887SOL     OW18559   6.911   0.252   1.587  0.1314 -0.4940 -0.0918
 5887SOL    HW118560   6.842   0.253   1.514  0.2088  0.6046 -0.1665
 5887SOL    HW218561   6.980   0.321   1.567 -0.9498  1.3405  2.0591
 5888SOL     OW18562   1.736   5.808   4.495  0.3032  0.0237  0.1154
 5888SOL    HW118563   1.659   5.851   4.447 -0.3129 -0.8447  0.2992
 5888SOL    HW218564   1.705   5.778   4.585  1.8116  3.0724  1.8284
 5889SOL     OW18565   5.460   6.048   0.562 -0.4770 -0.3934 -0.3789
 5889SOL    HW118566   5.399   6.019   0.488  0.9704 -0.9244 -1.4094
 5889SOL    HW218567   5.437   6.141   0.589 -2.2714 -0.8649 -0.1521
 5890SOL     OW18568   6.535   6.381   2.127 -0.0708  0.3136 -0.2036
 5890SOL    HW118569   6.441   6.412   2.113  0.0263  1.8617  2.0941
 5890SOL    HW218570   6.543   6.337   2.216  1.3698  0.1178 -0.4029
 5891SOL     OW18571   4.773   2.030   4.128  0.3446 -0.1582  0.0891
 5891SOL    HW118572   4.764   2.029   4.028  2.0060 -2.0969 -0.1008
 5891SOL    HW218573   4.751   2.121   4.162 -0.7527  0.4191 -1.9811
 5892SOL     OW18574   6.592   0.257   6.598  1.1024 -1.0733  0.3654
 5892SOL    HW118575   6.673   0.274   6.654  0.7999 -1.7475  1.0207
 5892SOL    HW218576   6.557   0.344   6.563  1.8715 -0.7400  0.4053
 5893SOL     OW18577   2.135   1.479   3.336 -0.0457  0.0227 -0.3943
 5893SOL    HW118578   2.233   1.463   3.324 -0.5050 -3.1783 -0.8769
 5893SOL    HW218579   2.086   1.392   3.330 -2.7227  1.1523  2.2265
 5894SOL     OW18580   6.789   1.207   3.914 -0.4335 -0.5004 -0.0157
 5894SOL    HW118581   6.770   1.247   3.825 -2.6737 -1.0821  0.1537
 5894SOL    HW218582   6.833   1.118   3.902 -0.6500 -0.5382 -0.5276
 5895SOL     OW18583   3.432   0.854   0.803 -0.1429 -0.2173  0.1762
 5895SOL    HW118584   3.493   0.860   0.724  0.9700 -2.1319  0.8322
 5895SOL    HW218585   3.430   0.942   0.850  0.3859  0.4977 -1.0838
 5896SOL     OW18586   6.530   6.573   1.048  0.7785  0.2266  0.2013
 5896SOL    HW118587   6.453   6.553   1.108 -0.7069 -0.6934 -1.9177
 5896SOL    HW218588   6.585   6.490   1.036  0.0913 -0.0669 -1.0262
 5897SOL     OW18589   3.163   1.378   6.702  0.7620  0.4585 -0.2360
 5897SOL    HW118590   3.248   1.429   6.690  0.2161  1.9827  1.7766
 5897SOL    HW218591   3.169   1.323   6.786 -0.6402  1.5892  0.6570
 5898SOL     OW18592   5.356   4.737   0.848 -0.1384 -0.1169  0.0277
 5898SOL    HW118593   5.359   4.828   0.807  1.6515 -1.0107 -2.0421
 5898SOL    HW218594   5.328   4.745   0.944 -0.8112  2.4910 -0.2929
 5899SOL     OW18595   4.621   5.756   0.343 -0.0523  0.0377 -0.4302
 5899SOL    HW118596   4.606   5.728   0.437  1.6341 -0.1576 -0.1834
 5899SOL    HW218597   4.678   5.689   0.296 -0.2028  0.5321 -1.3600
 5900SOL     OW18598   0.792   6.426   3.776  0.4729  0.0411 -0.3229
 5900SOL    HW118599   0.736   6.413   3.858 -0.9156  1.3983 -0.9925
 5900SOL    HW218600   0.825   6.338   3.744 -0.4643 -0.7054  0.6672
 5901SOL     OW18601   0.670   0.079   3.572  0.0906  0.0933 -0.4678
 5901SOL    HW118602   0.747   0.126   3.527  1.4880  0.3569  1.9814
 5901SOL    HW218603   0.691  -0.018   3.582  0.0958  0.1556  0.1646
 5902SOL     OW18604   3.324   4.629   1.643  0.3675 -0.0179  0.5466
 5902SOL    HW118605   3.348   4.696   1.573 -0.0413  1.9698  2.2092
 5902SOL    HW218606   3.399   4.620   1.708  0.2617 -0.9204  0.5599
 5903SOL     OW18607   6.376   4.582   5.160 -0.2254  0.1817  0.0371
 5903SOL    HW118608   6.374   4.637   5.243  0.0517 -0.0334  0.1859
 5903SOL    HW218609   6.429   4.499   5.176  1.1637  0.8818 -0.8299
 5904SOL     OW18610   4.961   2.182   6.199 -0.8016  0.6154  0.3177
 5904SOL    HW118611   5.030   2.255   6.193 -0.9356  0.6730 -0.5817
 5904SOL    HW218612   4.913   2.190   6.287  0.7772  0.1742  1.2738
 5905SOL     OW18613   6.445   5.334   1.725 -0.8291 -0.0836  0.0966
 5905SOL    HW118614   6.481   5.265   1.663  0.3303 -0.1545  0.8115
 5905SOL    HW218615   6.417   5.291   1.811 -3.3038 -0.1240 -0.6699
 5906SOL     OW18616   1.759   5.571   0.864  0.3193  0.5208 -0.5068
 5906SOL    HW118617   1.831   5.501   0.866 -1.1390 -1.0544 -0.8625
 5906SOL    HW218618   1.737   5.593   0.769  1.3508  2.1390 -0.4057
 5907SOL     OW18619   5.562   5.143   5.699  0.1106  0.1734  0.4611
 5907SOL    HW118620   5.565   5.163   5.797 -0.1687 -0.0288  0.5110
 5907SOL    HW218621   5.517   5.056   5.684 -3.6824  2.0319 -0.1032
 5908SOL     OW18622   0.338   3.112   4.275 -0.1813 -0.3560  0.4846
 5908SOL    HW118623   0.361   3.016   4.288 -1.1232 -0.7708 -0.6715
 5908SOL    HW218624   0.239   3.123   4.275 -0.0823  0.8728  2.1236
 5909SOL     OW18625   0.893   5.754   5.401  0.5932  0.5982  0.5050
 5909SOL    HW118626   0.922   5.828   5.341 -1.6751  0.5426 -0.7783
 5909SOL    HW218627   0.880   5.789   5.494 -1.3512  2.1146 -0.2695
 5910SOL     OW18628   2.941   1.435   6.292 -0.2273 -0.0217  0.4638
 5910SOL    HW118629   3.036   1.433   6.324  0.2626  2.2636 -0.6528
 5910SOL    HW218630   2.941   1.439   6.192 -1.3918  2.0304  0.4986
 5911SOL     OW18631   4.286   6.023   1.364 -0.1248 -0.4604  0.5770
 5911SOL    HW118632   4.371   6.016   1.415 -0.2773 -0.3990  0.8383
 5911SOL    HW218633   4.286   5.955   1.290  0.6858  0.3643 -0.2065
 5912SOL     OW18634   0.394   2.120   0.989  0.5092 -0.3188 -0.1270
 5912SOL    HW118635   0.342   2.040   1.019 -0.2758  0.5677  0.9396
 5912SOL    HW218636   0.406   2.183   1.066  0.7514  0.7913 -1.0483
 5913SOL     OW18637   6.087   1.437   1.964 -0.3927  0.0328 -0.3071
 5913SOL    HW118638   6.010   1.500   1.964  0.2104  0.8109  0.7674
 5913SOL    HW218639   6.080   1.375   1.886 -2.2298 -0.0961 -0.0837
 5914SOL     OW18640   0.128   2.117   0.522 -0.6489  0.2428  0.2362
 5914SOL    HW118641   0.122   2.069   0.435 -1.7119  0.4654  0.1734
 5914SOL    HW218642   0.094   2.211   0.511 -1.0436  0.1939  0.9404
 5915SOL     OW18643   3.591   6.166   5.263  0.2192 -0.8261 -0.5149
 5915SOL    HW118644   3.663   6.142   5.199  0.2821 -1.1513 -0.3249
 5915SOL    HW218645   3.616   6.135   5.355  0.6399  0.6153 -0.1197
 5916SOL     OW18646   5.099   1.414   4.348  0.4516 -0.6183  0.0895
 5916SOL    HW118647   5.082   1.502   4.392 -0.1213 -0.8299  0.3007
 5916SOL    HW218648   5.038   1.344   4.387 -1.4783 -0.4150 -2.3129
 5917SOL     OW18649   6.082   5.679   3.389 -0.4715 -0.1307  0.4497
 5917SOL    HW118650   6.016   5.753   3.402 -0.3307  0.0489  0.1459
 5917SOL    HW218651   6.046   5.613   3.322 -1.1446 -0.9963  1.6146
 5918SOL     OW18652   2.796   0.733   6.749 -0.6021  0.2184  0.5369
 5918SOL    HW118653   2.891   0.760   6.766 -1.0140  0.3537  2.9040
 5918SOL    HW218654   2.791   0.635   6.733 -0.3007 -0.2759  3.1251
 5919SOL     OW18655   3.492   1.456   3.563 -0.1510  0.0959 -0.1188
 5919SOL    HW118656   3.519   1.387   3.496  1.2987 -0.3603  0.8738
 5919SOL    HW218657   3.392   1.466   3.563 -0.2005 -0.0380 -2.1495
 5920SOL     OW18658   6.242   3.829   4.424  0.0562  0.1020  0.0039
 5920SOL    HW118659   6.156   3.804   4.380 -0.6018 -1.5615  2.0492
 5920SOL    HW218660   6.278   3.750   4.473  2.7248  0.8052 -0.6796
 5921SOL     OW18661   5.499   5.944   2.133  0.7493  0.3005  0.1746
 5921SOL    HW118662   5.520   6.022   2.073  0.5604  0.1810 -0.0491
 5921SOL    HW218663   5.416   5.899   2.101  0.8016  0.0688  0.3649
 5922SOL     OW18664   0.858   5.119   0.158  0.5390  0.2420  0.5249
 5922SOL    HW118665   0.886   5.092   0.250  0.8176 -1.9959 -0.1435
 5922SOL    HW218666   0.885   5.048   0.093  0.0947  1.6269 -1.2634
 5923SOL     OW18667   4.360   5.864   2.882  0.7443 -0.7254  0.1533
 5923SOL    HW118668   4.392   5.895   2.972 -0.5015  1.1329 -0.0099
 5923SOL    HW218669   4.392   5.926   2.811  2.6876 -2.7951 -0.9177
 5924SOL     OW18670   1.439   2.113   3.484  0.3861  0.1472  0.5583
 5924SOL    HW118671   1.346   2.130   3.450  0.3945  3.1429  1.7401
 5924SOL    HW218672   1.498   2.091   3.406 -1.0380 -0.5301 -0.3820
 5925SOL     OW18673   3.675   3.051   2.839 -0.1528 -0.2923  0.1061
 5925SOL    HW118674   3.715   3.024   2.927 -0.1970 -0.5353  0.0523
 5925SOL    HW218675   3.691   2.979   2.771 -0.6190 -0.3649  0.0660
 5926SOL     OW18676   4.583   2.392   3.073 -0.1843 -0.1610  0.5638
 5926SOL    HW118677   4.597   2.419   3.168  2.0290  0.2453  0.1747
 5926SOL    HW218678   4.633   2.307   3.054 -3.1876 -2.0879  0.5188
 5927SOL     OW18679   5.419   2.478   0.765 -0.2787  0.0127 -0.2215
 5927SOL    HW118680   5.447   2.445   0.855 -0.9724 -1.1198 -0.4105
 5927SOL    HW218681   5.413   2.402   0.701  0.4080  0.8260 -1.3032
 5928SOL     OW18682   0.462   3.112   4.032 -0.9638 -0.4717 -0.1313
 5928SOL    HW118683   0.522   3.189   4.012 -0.0664 -1.0397  0.3135
 5928SOL    HW218684   0.415   3.128   4.119 -0.5749 -0.5429  0.0933
 5929SOL     OW18685   4.744   2.113   3.863 -0.0629  0.1732  0.3333
 5929SOL    HW118686   4.735   2.035   3.801  0.1451  0.0243  0.4890
 5929SOL    HW218687   4.820   2.171   3.832  0.3597 -0.1636  0.7278
 5930SOL     OW18688   5.844   3.267   1.674  0.7118  0.3287 -0.3892
 5930SOL    HW118689   5.874   3.361   1.657 -2.1627  1.2036 -1.2204
 5930SOL    HW218690   5.879   3.236   1.762  2.8057  1.6680 -0.6908
 5931SOL     OW18691   6.328   1.349   3.336 -0.0328 -0.0912 -0.1444
 5931SOL    HW118692   6.353   1.360   3.432 -0.2391  0.5118 -0.1517
 5931SOL    HW218693   6.401   1.301   3.288 -0.4146 -1.4017  0.5331
 5932SOL     OW18694   4.100   0.394   5.087  0.1645  0.3692  0.4962
 5932SOL    HW118695   4.165   0.319   5.077 -0.5570 -0.3037  0.7448
 5932SOL    HW218696   4.123   0.447   5.169  0.5194  0.2630  0.4693
 5933SOL     OW18697   2.269   1.124   0.488  0.1992  0.3312 -0.2977
 5933SOL    HW118698   2.214   1.134   0.404 -0.9100 -0.3111  0.3312
 5933SOL    HW218699   2.364   1.145   0.467  0.2602 -1.4350 -2.1363
 5934SOL     OW18700   3.361   4.359   5.879 -0.1431  0.4235  0.1120
 5934SOL    HW118701   3.307   4.276   5.894 -1.2524  0.9774 -0.6958
 5934SOL    HW218702   3.346   4.392   5.786  1.5738  0.6313 -0.1291
 5935SOL     OW18703   1.818   6.635   5.404  0.5308  0.3315  0.4032
 5935SOL    HW118704   1.804   6.632   5.502  0.9508  2.2956  0.5686
 5935SOL    HW218705   1.733   6.661   5.358  0.4677 -0.0570  0.3021
 5936SOL     OW18706   2.282   5.721   5.624 -0.2346 -0.4758 -0.5915
 5936SOL    HW118707   2.377   5.690   5.617 -0.7669 -2.3418 -0.1092
 5936SOL    HW218708   2.275   5.813   5.588  1.8694 -0.0657 -0.1155
 5937SOL     OW18709   5.439   2.328   5.522  0.1996 -0.5451 -1.0625
 5937SOL    HW118710   5.532   2.352   5.549  0.8271 -2.2719 -1.5776
 5937SOL    HW218711   5.393   2.409   5.486  1.7700  0.1517 -1.5767
 5938SOL     OW18712   0.574   4.682   4.655  0.0646 -0.0206 -0.2703
 5938SOL    HW118713   0.547   4.760   4.598  1.1988  0.6797  0.1051
 5938SOL    HW218714   0.669   4.694   4.684 -0.3389 -0.5820  1.3974
 5939SOL     OW18715   1.419   0.160   6.944 -0.5386 -0.1971 -0.4454
 5939SOL    HW118716   1.461   0.078   6.984  0.0119  0.4291  0.2795
 5939SOL    HW218717   1.431   0.158   6.845  0.8168 -0.2510 -0.2905
 5940SOL     OW18718   0.452   2.671   2.614  0.7137  0.3768  0.0766
 5940SOL    HW118719   0.488   2.640   2.526  2.6126 -0.8349  1.1999
 5940SOL    HW218720   0.368   2.621   2.635 -0.4585  1.5659 -1.5523
 5941SOL     OW18721   1.564   0.752   3.341  0.3343 -0.2779 -0.1912
 5941SOL    HW118722   1.623   0.715   3.270  2.6652 -1.4252  2.1669
 5941SOL    HW218723   1.526   0.677   3.395 -1.5149  0.5619 -0.2416
 5942SOL     OW18724   4.086   0.952   1.204 -0.0871 -0.3512  0.0545
 5942SOL    HW118725   4.030   0.869   1.205 -2.1402  0.9029  2.3103
 5942SOL    HW218726   4.039   1.023   1.152  1.6323 -0.5104 -1.8291
 5943SOL     OW18727   3.086   6.064   0.518 -0.1470  0.1008  0.0317
 5943SOL    HW118728   3.030   5.985   0.494 -0.3341  0.8244 -2.1523
 5943SOL    HW218729   3.129   6.048   0.607 -0.1671 -2.4457 -0.3284
 5944SOL     OW18730   5.169   6.519   3.242 -0.1342  0.2572 -0.1034
 5944SOL    HW118731   5.084   6.467   3.254  0.2402 -0.1905  0.6830
 5944SOL    HW218732   5.148   6.612   3.213 -0.7986 -0.5340 -2.3921
 5945SOL     OW18733   3.599   5.258   3.371  0.1949 -0.5467 -0.0200
 5945SOL    HW118734   3.589   5.257   3.271 -1.3741  1.1244  0.0603
 5945SOL    HW218735   3.535   5.193   3.412 -0.6989  0.3059 -0.0395
 5946SOL     OW18736   3.037   4.484   0.032  0.3969  0.4572 -0.5256
 5946SOL    HW118737   2.988   4.433  -0.038  1.0572 -0.7899 -0.1085
 5946SOL    HW218738   3.125   4.440   0.050  1.0825  1.8620 -0.2873
 5947SOL     OW18739   6.620   6.173   6.042 -0.4030  0.4162 -0.1296
 5947SOL    HW118740   6.604   6.079   6.073 -1.7214  1.2835  2.0193
 5947SOL    HW218741   6.664   6.171   5.952 -0.5373 -2.2364 -0.2183
 5948SOL     OW18742   4.552   6.813   6.309 -0.1405 -0.7619 -0.3486
 5948SOL    HW118743   4.480   6.795   6.242 -1.5932 -0.2266  1.0044
 5948SOL    HW218744   4.569   6.911   6.315 -0.2055 -0.7805  0.2326
 5949SOL     OW18745   6.858   2.999   3.604  0.2942  0.1279 -0.1352
 5949SOL    HW118746   6.794   3.065   3.645  0.5293 -0.9613  2.1343
 5949SOL    HW218747   6.828   2.906   3.626 -0.3476 -0.6784 -3.7326
 5950SOL     OW18748   1.946   2.299   1.804  0.3477 -0.4291  0.2485
 5950SOL    HW118749   1.921   2.230   1.736 -0.9783 -0.3462  0.6306
 5950SOL    HW218750   2.000   2.371   1.760 -0.4010 -0.4291 -0.6943
 5951SOL     OW18751   1.391   6.931   6.549 -0.4537 -0.0819  0.0999
 5951SOL    HW118752   1.403   6.874   6.467 -1.8121  0.5851 -0.5882
 5951SOL    HW218753   1.303   6.976   6.545 -0.4344  0.1603  1.8398
 5952SOL     OW18754   0.986   4.588   6.588 -1.0953  0.2002 -0.1842
 5952SOL    HW118755   1.057   4.628   6.646  0.1685 -2.1642  0.0141
 5952SOL    HW218756   0.914   4.550   6.646 -0.5568 -0.8612 -0.1906
 5953SOL     OW18757   2.739   4.357   1.645 -0.4207 -0.1283  0.0104
 5953SOL    HW118758   2.810   4.385   1.710 -1.1757 -0.1621  0.8685
 5953SOL    HW218759   2.781   4.341   1.555  0.2403  2.5721 -0.2439
 5954SOL     OW18760   6.998   5.305   1.020  0.1135  0.4092 -0.2414
 5954SOL    HW118761   7.018   5.234   1.087 -1.4832 -0.5080 -0.6901
 5954SOL    HW218762   7.044   5.284   0.934  0.7813  0.6810  0.0429
 5955SOL     OW18763   1.658   4.164   5.760 -0.1775  0.1757 -0.4739
 5955SOL    HW118764   1.590   4.225   5.800 -1.1762 -1.1711 -0.0310
 5955SOL    HW218765   1.638   4.151   5.663 -2.6133 -2.7142  0.2758
 5956SOL     OW18766   4.066   0.603   2.745  0.6454 -0.2227 -0.5880
 5956SOL    HW118767   4.158   0.641   2.742  1.2878 -1.7582 -1.2362
 5956SOL    HW218768   4.027   0.604   2.653  0.2308 -0.0943 -0.4124
 5957SOL     OW18769   1.098   3.441   0.608  0.1292  0.6826 -0.0457
 5957SOL    HW118770   1.025   3.396   0.556 -0.1597  0.8024  0.2550
 5957SOL    HW218771   1.180   3.385   0.604 -0.8097 -1.0121  2.1054
 5958SOL     OW18772   0.560   3.621   2.147 -0.3488 -0.1259 -0.0259
 5958SOL    HW118773   0.492   3.655   2.082 -2.3439 -2.3004  0.7805
 5958SOL    HW218774   0.605   3.540   2.109  0.8060  0.4656  0.0365
 5959SOL     OW18775   1.803   6.624   5.686  0.0968  0.1218 -0.1343
 5959SOL    HW118776   1.756   6.710   5.708  0.9438  0.2984  1.0915
 5959SOL    HW218777   1.745   6.547   5.710  0.3752  0.3381  1.3258
 5960SOL     OW18778   3.823   0.441   2.280  0.1186 -0.0505  0.3352
 5960SOL    HW118779   3.875   0.510   2.330  1.5101 -1.2069  0.5577
 5960SOL    HW218780   3.844   0.448   2.182  0.3136 -0.1964  0.3659
 5961SOL     OW18781   1.006   6.975   3.201 -0.2933  0.2436  0.4459
 5961SOL    HW118782   0.928   6.969   3.139 -0.8461  0.1841  1.1347
 5961SOL    HW218783   1.078   7.029   3.158 -0.2982 -0.5588 -0.6209
 5962SOL     OW18784   1.240   0.285   4.675 -0.6721 -0.1681  0.1331
 5962SOL    HW118785   1.324   0.230   4.679 -0.2729  0.4160 -0.0686
 5962SOL    HW218786   1.203   0.294   4.768 -0.4543 -0.3387  0.2392
 5963SOL     OW18787   1.881   3.691   1.583  0.4401  0.3123  0.0822
 5963SOL    HW118788   1.875   3.595   1.554 -2.0914  0.7870 -1.2375
 5963SOL    HW218789   1.807   3.710   1.647  0.7111  1.4707  0.0629
 5964SOL     OW18790   4.484   2.343   6.129  0.2238  0.6631  0.0746
 5964SOL    HW118791   4.529   2.431   6.144  1.4930  0.1183 -0.4012
 5964SOL    HW218792   4.476   2.295   6.216  0.3368  0.8663  0.1972
 5965SOL     OW18793   3.976   1.958   5.001 -0.2368 -0.1959  0.2115
 5965SOL    HW118794   4.004   1.907   4.920 -0.0373 -1.9315  1.3080
 5965SOL    HW218795   4.037   2.037   5.014  0.2718 -0.4054 -0.8141
 5966SOL     OW18796   3.906   5.877   1.212  0.1098  0.0049  0.0786
 5966SOL    HW118797   3.893   5.953   1.276  0.2145  0.7503 -0.7763
 5966SOL    HW218798   3.993   5.832   1.231 -0.6754 -0.9562  1.6468
 5967SOL     OW18799   6.490   3.239   1.330  0.1822 -0.1558 -0.0993
 5967SOL    HW118800   6.395   3.249   1.302  0.1438  0.2590  0.1603
 5967SOL    HW218801   6.496   3.177   1.409  0.2516 -1.0405 -0.7938
 5968SOL     OW18802   6.331   6.949   3.940 -0.1588 -0.2941  0.3217
 5968SOL    HW118803   6.354   6.869   3.995 -1.4851  0.2940  1.8144
 5968SOL    HW218804   6.389   7.026   3.967 -0.2792 -0.2113  0.3450
 5969SOL     OW18805   1.768   3.985   3.196  0.0062 -0.0354  0.1500
 5969SOL    HW118806   1.756   4.063   3.258 -1.0769  0.3184 -0.4887
 5969SOL    HW218807   1.791   4.019   3.104 -1.9390 -0.3598 -0.4981
 5970SOL     OW18808   1.933   2.657   2.401 -0.2392 -0.6592  0.0517
 5970SOL    HW118809   2.032   2.652   2.419  0.1465  1.0922 -1.2599
 5970SOL    HW218810   1.892   2.567   2.414  1.3728 -1.2426  1.4506
 5971SOL     OW18811   1.709   6.830   3.558 -0.5713  0.4680 -0.3142
 5971SOL    HW118812   1.642   6.756   3.558 -0.5925  0.4783 -0.8846
 5971SOL    HW218813   1.794   6.799   3.601 -0.6889  0.2125 -0.2662
 5972SOL     OW18814   6.020   3.235   2.616  0.2930 -0.4775  0.5741
 5972SOL    HW118815   6.022   3.163   2.685 -0.7902 -2.0253 -0.9455
 5972SOL    HW218816   6.039   3.196   2.526 -0.0395  1.1948 -0.2663
 5973SOL     OW18817   1.243   1.045   5.457 -0.1455  0.2071 -0.0279
 5973SOL    HW118818   1.287   1.060   5.545 -0.0876  1.1642 -0.2157
 5973SOL    HW218819   1.180   1.119   5.438  0.2499  0.2954 -1.0463
 5974SOL     OW18820   0.420   5.243   6.055 -0.5376 -0.2932 -0.1567
 5974SOL    HW118821   0.466   5.327   6.027  0.5855 -0.8563 -0.0719
 5974SOL    HW218822   0.343   5.224   5.994 -0.5008  0.5383 -0.4686
 5975SOL     OW18823   6.347   1.806   0.970  0.1765 -0.3074  0.0511
 5975SOL    HW118824   6.295   1.891   0.971  1.1326  0.3434 -1.4290
 5975SOL    HW218825   6.415   1.807   1.043 -2.1665 -1.4185  2.3900
 5976SOL     OW18826   3.532   2.859   4.551 -0.3321 -0.4293  0.7894
 5976SOL    HW118827   3.438   2.887   4.529 -0.0426 -0.7932 -1.0065
 5976SOL    HW218828   3.557   2.780   4.496  1.7230  0.8873 -0.2929
 5977SOL     OW18829   3.871   3.766   2.212 -0.1198 -0.2507  0.0904
 5977SOL    HW118830   3.892   3.839   2.276  0.0995  0.0774 -0.3472
 5977SOL    HW218831   3.772   3.761   2.199 -0.1171  0.2149 -0.1522
 5978SOL     OW18832   0.591   2.584   6.158  0.1038  0.0116 -0.4668
 5978SOL    HW118833   0.671   2.602   6.100  1.7891 -0.1950  1.6796
 5978SOL    HW218834   0.508   2.611   6.109  1.3957 -0.3465 -3.0363
 5979SOL     OW18835   3.271   4.989   3.374  0.1387 -0.2220  0.4124
 5979SOL    HW118836   3.305   4.967   3.283  0.1329  2.1492 -0.2410
 5979SOL    HW218837   3.182   4.945   3.388 -0.2522  0.0373 -1.0656
 5980SOL     OW18838   6.650   6.165   1.142  0.2427  0.1702 -0.5092
 5980SOL    HW118839   6.622   6.087   1.087 -0.1474  0.1170 -0.2410
 5980SOL    HW218840   6.649   6.140   1.239  3.7954 -0.6468 -0.5724
 5981SOL     OW18841   4.208   3.727   5.166 -0.1617 -0.1623 -0.4607
 5981SOL    HW118842   4.301   3.712   5.134  0.2766 -0.5396  0.9406
 5981SOL    HW218843   4.210   3.782   5.249 -1.3394  1.8753 -1.6884
 5982SOL     OW18844   5.319   6.433   5.133  0.3861 -0.3799  0.5196
 5982SOL    HW118845   5.363   6.441   5.222  0.1590 -0.3136  0.6267
 5982SOL    HW218846   5.347   6.347   5.089 -0.4043 -0.9675  1.1480
 5983SOL     OW18847   0.437   6.487   3.252 -1.0589  0.1289 -0.4403
 5983SOL    HW118848   0.382   6.418   3.298  0.1427 -0.6206 -0.0772
 5983SOL    HW218849   0.414   6.577   3.288 -0.9011 -0.3351  0.9076
 5984SOL     OW18850   1.603   6.326   6.569 -0.2623  0.0937 -0.3605
 5984SOL    HW118851   1.670   6.257   6.594 -1.0194 -0.6785 -0.4113
 5984SOL    HW218852   1.514   6.301   6.607 -0.5024  1.1726 -0.1689
 5985SOL     OW18853   0.274   1.621   0.354 -0.1812  0.3173 -0.2124
 5985SOL    HW118854   0.177   1.613   0.376 -0.0228  0.3091  0.5180
 5985SOL    HW218855   0.313   1.529   0.344 -0.3652  0.3253 -1.0704
 5986SOL     OW18856   3.314   0.918   4.204  0.4340  0.1357 -0.2829
 5986SOL    HW118857   3.258   0.972   4.267  0.1380  1.1989 -1.4295
 5986SOL    HW218858   3.350   0.977   4.131  0.4881 -1.1190 -1.3121
 5987SOL     OW18859   0.595   0.312   6.906 -0.3646  0.2423  0.5032
 5987SOL    HW118860   0.608   0.249   6.829 -0.5319  1.5425 -0.6192
 5987SOL    HW218861   0.514   0.284   6.958  0.1960 -1.1076  0.7007
 5988SOL     OW18862   0.867   4.121   5.471 -0.1776 -0.1089 -0.4638
 5988SOL    HW118863   0.810   4.136   5.551  1.7635  1.4350  0.7122
 5988SOL    HW218864   0.888   4.208   5.428  1.4006 -0.6054 -0.7612
 5989SOL     OW18865   2.395   3.712   6.369 -0.2039 -0.6066 -0.3367
 5989SOL    HW118866   2.375   3.642   6.437 -3.5588 -0.8578 -1.3819
 5989SOL    HW218867   2.309   3.753   6.338  1.2737  0.4495 -3.4063
 5990SOL     OW18868   1.157   4.425   4.006  0.1641  0.4756  0.1212
 5990SOL    HW118869   1.221   4.502   3.996  2.6286 -1.4453  0.0908
 5990SOL    HW218870   1.123   4.397   3.916 -0.8383  1.5582  0.1438
 5991SOL     OW18871   3.476   0.045   0.817 -0.0555  0.0824  0.0197
 5991SOL    HW118872   3.386   0.027   0.857  1.5349 -3.0530  2.6726
 5991SOL    HW218873   3.481   0.009   0.725 -1.0931 -1.0911  0.4060
 5992SOL     OW18874   4.689   6.026   3.275  0.0298 -0.2369  0.1557
 5992SOL    HW118875   4.778   5.993   3.305 -0.0873 -1.0723 -0.3765
 5992SOL    HW218876   4.619   5.996   3.339  0.3727  2.5611  2.0047
 5993SOL     OW18877   3.125   5.146   2.596  0.2229  0.1154  0.1862
 5993SOL    HW118878   3.067   5.188   2.525  0.8625  0.6998  0.0029
 5993SOL    HW218879   3.181   5.217   2.639 -0.3659 -0.1896  1.4848
 5994SOL     OW18880   2.508   0.740   2.318 -0.2964  0.0125 -0.2722
 5994SOL    HW118881   2.556   0.792   2.247 -1.5573  0.2162 -1.0222
 5994SOL    HW218882   2.550   0.757   2.407  2.0188 -1.1176 -1.0918
 5995SOL     OW18883   2.216   4.193   2.196 -0.1016  0.1792 -0.9116
 5995SOL    HW118884   2.222   4.213   2.098  0.7702  1.7426 -0.5866
 5995SOL    HW218885   2.299   4.226   2.241 -0.1168 -1.2701  0.2487
 5996SOL     OW18886   5.453   4.479   0.043  0.1556  0.1859  0.3257
 5996SOL    HW118887   5.429   4.573   0.021 -0.4520  0.0470  0.3816
 5996SOL    HW218888   5.377   4.418   0.019  0.1418 -0.1734  1.2310
 5997SOL     OW18889   4.176   5.726   6.732  0.3883 -0.0197 -0.2480
 5997SOL    HW118890   4.275   5.736   6.747  0.1751 -0.7176  2.0099
 5997SOL    HW218891   4.127   5.770   6.806 -1.0834  1.1639 -1.8472
 5998SOL     OW18892   3.445   0.159   2.436 -0.0131 -0.0302 -0.4189
 5998SOL    HW118893   3.424   0.068   2.402  0.4291  0.1025 -1.0663
 5998SOL    HW218894   3.519   0.153   2.503  0.1731 -0.1286 -0.6298
 5999SOL     OW18895   0.400   2.364   6.057  0.3840 -0.5180 -0.0601
 5999SOL    HW118896   0.405   2.441   6.120  1.2968 -1.4486  1.0571
 5999SOL    HW218897   0.463   2.379   5.981  0.6233 -0.1980  0.1987
 6000SOL     OW18898   3.155   6.653   0.862 -0.6358 -0.5521  0.5579
 6000SOL    HW118899   3.076   6.614   0.908 -1.7121  0.7260 -0.1350
 6000SOL    HW218900   3.212   6.700   0.929 -1.6640  0.4480  0.7586
 6001SOL     OW18901   2.869   3.339   0.012  0.0814  0.6886  0.3520
 6001SOL    HW118902   2.817   3.255   0.025  3.3171 -1.4004  0.7699
 6001SOL    HW218903   2.862   3.369  -0.083  0.4696 -1.1981 -0.2926
 6002SOL     OW18904   5.861   5.430   6.794  0.1374  0.3929  0.2756
 6002SOL    HW118905   5.789   5.388   6.849  1.3346 -1.0910  0.7825
 6002SOL    HW218906   5.901   5.507   6.845  0.6514 -0.4281  1.1664
 6003SOL     OW18907   3.093   1.028   5.702 -0.2440  0.2403  0.0368
 6003SOL    HW118908   3.041   1.085   5.766 -0.2291  0.5887 -0.2546
 6003SOL    HW218909   3.152   0.966   5.752 -1.4463 -0.6532  0.3931
 6004SOL     OW18910   6.071   2.670   3.931 -0.0918  0.2451  0.0014
 6004SOL    HW118911   6.116   2.750   3.891  1.0227 -0.5678 -0.4071
 6004SOL    HW218912   5.981   2.697   3.967 -1.2306  1.0258 -3.0860
 6005SOL     OW18913   5.036   5.596   5.628  0.1983 -0.1287 -0.2538
 6005SOL    HW118914   5.063   5.648   5.547  1.0673 -0.1274  0.0250
 6005SOL    HW218915   5.019   5.501   5.603 -0.4788  0.0734 -0.5974
 6006SOL     OW18916   1.818   4.329   2.612 -0.0311 -0.3090 -0.7417
 6006SOL    HW118917   1.877   4.367   2.540  0.3532 -0.2562 -0.4041
 6006SOL    HW218918   1.753   4.265   2.571  0.2103 -0.3090 -1.1323
 6007SOL     OW18919   3.089   1.421   0.412  0.2742 -0.2562 -0.1707
 6007SOL    HW118920   3.109   1.517   0.391  1.0537 -0.8801 -2.5100
 6007SOL    HW218921   3.023   1.386   0.345 -1.5682 -0.8705  1.8322
 6008SOL     OW18922   1.109   6.318   3.570 -0.0560  0.3371  0.5394
 6008SOL    HW118923   1.021   6.284   3.602  0.3410 -0.6067  0.6859
 6008SOL    HW218924   1.181   6.256   3.601  0.4316 -0.1684 -1.4644
 6009SOL     OW18925   5.949   4.471   0.409  0.4024  0.3979  0.1302
 6009SOL    HW118926   5.982   4.555   0.451 -1.6010  0.1064  2.4953
 6009SOL    HW218927   5.885   4.494   0.336  1.4105  0.8945 -0.6233
 6010SOL     OW18928   2.472   2.276   1.396 -0.6937  0.2765 -0.0510
 6010SOL    HW118929   2.520   2.303   1.479 -0.5913 -1.7384  0.6121
 6010SOL    HW218930   2.374   2.272   1.415 -0.7578  0.7013 -0.2940
 6011SOL     OW18931   0.230   5.204   4.397 -0.3136 -0.3883 -0.0607
 6011SOL    HW118932   0.255   5.294   4.433  1.4856 -1.1477  0.7289
 6011SOL    HW218933   0.243   5.203   4.298  0.7640 -0.0877  0.0598
 6012SOL     OW18934   4.244   6.513   0.445  0.7254  0.3238 -0.0092
 6012SOL    HW118935   4.296   6.494   0.362  0.6876  1.9422 -0.4478
 6012SOL    HW218936   4.294   6.579   0.501 -0.3509  1.1339  0.0435
 6013SOL     OW18937   4.361   1.543   4.356 -0.5887 -0.1104  0.0200
 6013SOL    HW118938   4.276   1.594   4.364 -0.9371 -0.7206  0.2539
 6013SOL    HW218939   4.341   1.447   4.339  0.0472 -0.2947  0.2895
 6014SOL     OW18940   0.674   0.120   0.488 -0.3048 -0.3989 -0.5560
 6014SOL    HW118941   0.605   0.185   0.458 -1.5872 -0.7111  1.5688
 6014SOL    HW218942   0.713   0.149   0.575  1.4915 -0.8059 -1.1812
 6015SOL     OW18943   5.596   1.148   3.730  0.0294  0.3301  0.5112
 6015SOL    HW118944   5.672   1.212   3.716  0.3365 -0.5091 -2.2334
 6015SOL    HW218945   5.591   1.123   3.826  1.8783  2.0393  1.1203
 6016SOL     OW18946   2.428   4.652   6.257 -0.3586 -0.1290  0.2317
 6016SOL    HW118947   2.526   4.631   6.258 -0.1720  0.5478 -1.5241
 6016SOL    HW218948   2.376   4.567   6.247  0.0518 -0.4364  0.6178
 6017SOL     OW18949   0.747   1.555   3.965 -0.4964 -0.1568  0.5604
 6017SOL    HW118950   0.735   1.566   4.064 -1.6999  1.1193  0.3161
 6017SOL    HW218951   0.783   1.640   3.926  1.9101 -1.2970  0.1236
 6018SOL     OW18952   3.645   6.193   1.339 -0.0001  0.2262  0.6087
 6018SOL    HW118953   3.628   6.153   1.249 -0.5331 -0.3521  0.9542
 6018SOL    HW218954   3.602   6.283   1.345  0.7669  0.6365 -0.0025
 6019SOL     OW18955   4.246   6.101   6.988 -0.5791  0.0603  0.3916
 6019SOL    HW118956   4.275   6.014   6.950  1.8201  0.8774  0.1581
 6019SOL    HW218957   4.165   6.134   6.940  0.0105 -0.8273 -1.2795
 6020SOL     OW18958   4.344   4.850   5.918 -0.5508  0.3966  0.3614
 6020SOL    HW118959   4.417   4.842   5.985 -0.3284 -3.1344 -0.1364
 6020SOL    HW218960   4.383   4.847   5.826 -0.9686  3.9577 -0.0787
 6021SOL     OW18961   4.359   2.363   3.614 -0.0968 -0.3675  0.3146
 6021SOL    HW118962   4.385   2.408   3.528 -0.1234  0.4753  0.7453
 6021SOL    HW218963   4.263   2.336   3.609  0.4076 -2.1731 -0.7053
 6022SOL     OW18964   3.037   3.853   2.881  0.3597  0.1918 -0.3203
 6022SOL    HW118965   2.982   3.779   2.919  2.2482 -2.5263 -2.5224
 6022SOL    HW218966   3.132   3.845   2.914  0.3479  2.5928  0.5290
 6023SOL     OW18967   6.563   3.488   2.807 -0.1617  0.3764  0.4199
 6023SOL    HW118968   6.561   3.543   2.890 -0.6367  0.6939  0.2047
 6023SOL    HW218969   6.495   3.415   2.814 -1.1347  1.1987 -0.2177
 6024SOL     OW18970   5.274   3.208   1.391 -0.5386  0.0805  0.5149
 6024SOL    HW118971   5.192   3.201   1.448  0.0833  2.6356  1.8906
 6024SOL    HW218972   5.270   3.291   1.337  0.5724 -0.4426 -0.4046
 6025SOL     OW18973   5.740   6.668   5.233 -0.3857 -0.2019 -0.1048
 6025SOL    HW118974   5.789   6.679   5.147  0.4078  0.0998  0.3754
 6025SOL    HW218975   5.699   6.756   5.258 -0.6640 -0.3037 -0.2035
 6026SOL     OW18976   6.509   2.917   1.794  0.3721 -0.0039  0.0071
 6026SOL    HW118977   6.456   2.959   1.868  0.3627 -0.2546  0.1453
 6026SOL    HW218978   6.548   2.988   1.737 -1.1997  0.2023 -0.8725
 6027SOL     OW18979   0.555   5.158   3.410 -0.0300 -0.1704 -0.1962
 6027SOL    HW118980   0.467   5.193   3.443  0.7955  1.9202 -0.1047
 6027SOL    HW218981   0.545   5.127   3.315 -1.0864 -0.9414  0.1484
 6028SOL     OW18982   2.930   0.719   5.971 -0.5438 -0.0908  0.3505
 6028SOL    HW118983   2.905   0.673   5.886  2.5774  1.5336 -1.6327
 6028SOL    HW218984   2.875   0.801   5.982 -0.3991  0.1348 -0.5692
 6029SOL     OW18985   2.258   0.733   3.066 -0.5367  0.1956  0.5943
 6029SOL    HW118986   2.348   0.702   3.098  0.0289  0.7556 -0.4016
 6029SOL    HW218987   2.269   0.814   3.008 -1.4907 -0.7499 -0.9912
 6030SOL     OW18988   5.237   1.942   4.244 -0.1963  0.0276 -0.0140
 6030SOL    HW118989   5.233   1.929   4.343 -0.0445  1.1578  0.1491
 6030SOL    HW218990   5.253   2.038   4.223 -4.5226  0.6576 -1.2209
 6031SOL     OW18991   1.603   5.249   2.397 -0.6383  0.4944 -0.3729
 6031SOL    HW118992   1.587   5.205   2.309  0.8960 -0.0632 -0.3968
 6031SOL    HW218993   1.685   5.305   2.392  1.2094 -1.8478  1.4836
 6032SOL     OW18994   0.733   1.103   4.297 -0.4984 -0.1162  0.4588
 6032SOL    HW118995   0.809   1.167   4.291 -1.2166  0.8166  1.0684
 6032SOL    HW218996   0.761   1.023   4.351 -0.0266  0.3402  0.9051
 6033SOL     OW18997   5.635   6.505   5.417 -0.4011 -0.2387  0.5585
 6033SOL    HW118998   5.660   6.574   5.350 -3.0986  0.7445  0.4208
 6033SOL    HW218999   5.617   6.418   5.371  0.2333 -0.2688  0.3613
 6034SOL     OW19000   5.142   6.925   1.978 -0.0482 -0.0392 -0.1617
 6034SOL    HW119001   5.149   6.834   1.938  1.5579  0.4363 -1.0652
 6034SOL    HW219002   5.096   6.920   2.067  0.2841 -1.7624 -0.0655
 6035SOL     OW19003   5.295   0.440   2.933 -0.1643  0.4415  0.3281
 6035SOL    HW119004   5.332   0.386   2.857  0.5448  0.0273  0.9503
 6035SOL    HW219005   5.219   0.391   2.974 -2.8611  2.1886 -2.2147
 6036SOL     OW19006   2.331   4.807   1.858 -0.4916  0.3944 -0.3659
 6036SOL    HW119007   2.383   4.873   1.912 -0.9608  0.1622  0.3781
 6036SOL    HW219008   2.345   4.715   1.895 -0.1817  0.1256 -1.1339
 6037SOL     OW19009   5.783   1.354   2.978 -0.2868  0.0204 -0.2722
 6037SOL    HW119010   5.859   1.352   3.044 -1.3019  3.6031  1.2346
 6037SOL    HW219011   5.807   1.412   2.901 -0.1633 -1.9615 -1.8157
 6038SOL     OW19012   1.829   3.967   2.035 -0.1416 -0.2142 -0.6065
 6038SOL    HW119013   1.742   3.987   1.989 -0.8155 -0.3606  0.5802
 6038SOL    HW219014   1.858   4.048   2.086 -0.7524 -0.8681  0.8260
 6039SOL     OW19015   3.993   3.111   2.895 -0.1893 -0.2369 -0.2095
 6039SOL    HW119016   4.028   3.180   2.832 -1.5746  1.3882  0.7239
 6039SOL    HW219017   3.929   3.051   2.847  0.2394 -0.2354 -0.7886
 6040SOL     OW19018   3.579   3.947   0.703  0.0819 -0.2834 -0.5287
 6040SOL    HW119019   3.584   3.871   0.638 -0.4551 -1.4294  0.7516
 6040SOL    HW219020   3.642   3.930   0.779 -0.0991  0.5224 -0.1899
 6041SOL     OW19021   5.487   2.645   5.135  0.1532  0.0874  0.7020
 6041SOL    HW119022   5.539   2.661   5.050 -0.5728 -0.2290  0.1906
 6041SOL    HW219023   5.393   2.621   5.112 -0.4402  1.4048  1.6451
 6042SOL     OW19024   0.665   5.127   6.621 -0.3382 -0.1098 -0.4022
 6042SOL    HW119025   0.680   5.216   6.665 -0.8629 -0.1953 -0.0452
 6042SOL    HW219026   0.601   5.137   6.545  0.2303 -0.0408 -0.8760
 6043SOL     OW19027   6.382   6.002   3.565  0.2132  0.1525  0.3556
 6043SOL    HW119028   6.347   6.063   3.636  0.7590  1.0932 -0.1695
 6043SOL    HW219029   6.393   6.052   3.480  1.2282 -0.5336  0.0680
 6044SOL     OW19030   5.068   5.020   6.264  0.3746 -0.3756  0.1138
 6044SOL    HW119031   5.163   4.999   6.240  0.6104  1.9033 -1.2995
 6044SOL    HW219032   5.009   4.944   6.237  1.5760 -1.0253 -0.7947
 6045SOL     OW19033   0.915   4.526   6.011 -0.0113  0.6349  0.0273
 6045SOL    HW119034   0.830   4.483   6.040  0.1420  0.2934 -0.0316
 6045SOL    HW219035   0.894   4.602   5.949 -0.2294 -0.1909 -0.9535
 6046SOL     OW19036   1.434   4.441   3.099 -0.8894 -0.2307 -0.0061
 6046SOL    HW119037   1.478   4.422   3.187 -1.7390  2.2327  1.0499
 6046SOL    HW219038   1.350   4.387   3.091 -1.4035  0.3396  1.2510
 6047SOL     OW19039   5.950   4.493   4.201 -0.1758  0.2866  0.2807
 6047SOL    HW119040   5.892   4.439   4.262 -1.9606  1.4323 -0.3345
 6047SOL    HW219041   6.004   4.431   4.143  0.0218 -0.8029  1.5693
 6048SOL     OW19042   5.742   3.609   5.871 -0.0537  0.1447  0.7608
 6048SOL    HW119043   5.727   3.708   5.875  1.1554  0.3577  0.3850
 6048SOL    HW219044   5.839   3.590   5.860 -0.4460 -1.0055 -1.3488
 6049SOL     OW19045   2.000   4.304   2.807 -0.7965 -1.0084 -0.1382
 6049SOL    HW119046   2.088   4.299   2.760 -0.3995  1.0622  0.2671
 6049SOL    HW219047   1.926   4.308   2.740 -0.3436  0.4079 -0.5802
 6050SOL     OW19048   3.286   3.411   0.080  0.4885  0.2163  0.0773
 6050SOL    HW119049   3.370   3.434   0.031 -1.5215  0.3213 -3.7086
 6050SOL    HW219050   3.248   3.494   0.122  0.9241  0.7314 -0.5332
 6051SOL     OW19051   6.106   4.509   0.059  0.1904  0.1049 -0.0927
 6051SOL    HW119052   6.132   4.440   0.126  0.1681 -1.0878 -1.2594
 6051SOL    HW219053   6.137   4.480  -0.032 -1.2979  0.8109 -0.8585
 6052SOL     OW19054   3.293   2.546   6.167  0.5373 -0.0575  0.4653
 6052SOL    HW119055   3.197   2.523   6.186  0.6341 -0.4632  0.4663
 6052SOL    HW219056   3.345   2.546   6.253  0.3687  0.9979  0.5848
 6053SOL     OW19057   1.380   2.579   4.124 -0.4321  0.1940  0.8783
 6053SOL    HW119058   1.374   2.634   4.208  2.5542 -1.2678  2.1616
 6053SOL    HW219059   1.443   2.623   4.060 -0.4991 -0.1442  0.5796
 6054SOL     OW19060   2.036   4.505   1.689 -0.1777 -0.4549  1.1020
 6054SOL    HW119061   1.992   4.595   1.690 -2.0578 -1.2253 -1.6108
 6054SOL    HW219062   2.106   4.504   1.617 -0.4570 -1.2831  0.8422
 6055SOL     OW19063   6.604   1.512   6.948  0.1099 -0.9088 -0.2218
 6055SOL    HW119064   6.685   1.569   6.938 -1.2746  0.9819 -1.2651
 6055SOL    HW219065   6.575   1.511   7.044 -0.9869  1.9565 -0.4084
 6056SOL     OW19066   1.109   5.217   4.697  0.0419 -0.3807  0.7067
 6056SOL    HW119067   1.112   5.151   4.623  1.4989 -1.0026  1.2719
 6056SOL    HW219068   1.031   5.198   4.756  0.1127 -1.2476  0.5354
 6057SOL     OW19069   6.992   4.099   0.731 -0.1906  0.3862  0.0546
 6057SOL    HW119070   6.941   4.013   0.730 -0.7302  0.7047 -0.9000
 6057SOL    HW219071   6.966   4.151   0.812 -1.6056  0.6545 -0.5362
 6058SOL     OW19072   1.080   2.035   2.567 -0.4487  0.9379 -0.0791
 6058SOL    HW119073   1.058   1.978   2.488 -0.8446 -0.4288  0.9993
 6058SOL    HW219074   1.011   2.106   2.577 -0.5249  0.9790 -0.8055
 6059SOL     OW19075   6.504   0.521   6.603  0.2685 -0.8073 -0.0607
 6059SOL    HW119076   6.444   0.563   6.535  1.0025  1.8662  0.8375
 6059SOL    HW219077   6.455   0.512   6.690  0.7762  0.4146  0.3823
 6060SOL     OW19078   4.324   5.619   3.183  0.1528  0.0116 -0.0437
 6060SOL    HW119079   4.371   5.585   3.265  0.4576 -1.3312 -0.7435
 6060SOL    HW219080   4.379   5.599   3.102 -0.8654 -0.0937 -0.7282
 6061SOL     OW19081   6.311   3.216   2.136 -0.1939 -0.9484 -0.4538
 6061SOL    HW119082   6.294   3.171   2.223 -1.2725 -0.2906 -0.3037
 6061SOL    HW219083   6.374   3.292   2.149  0.9956 -1.8820 -0.5686
 6062SOL     OW19084   5.583   3.438   6.627  0.2377  0.0360 -0.4982
 6062SOL    HW119085   5.586   3.481   6.537  0.1958 -0.9552 -0.9806
 6062SOL    HW219086   5.509   3.479   6.681 -0.6436 -0.3265 -1.4134
 6063SOL     OW19087   0.191   4.479   4.366 -0.3766  0.0529  0.4525
 6063SOL    HW119088   0.224   4.545   4.298 -0.9654  1.8498  1.8475
 6063SOL    HW219089   0.178   4.524   4.453 -1.0118 -1.8999  1.4347
 6064SOL     OW19090   6.659   5.673   0.794 -0.0182 -0.3063 -0.2184
 6064SOL    HW119091   6.653   5.573   0.784  0.6473 -0.3576 -0.1528
 6064SOL    HW219092   6.718   5.709   0.722 -1.4965  0.2328 -1.2225
 6065SOL     OW19093   4.442   3.073   5.976 -0.4691 -0.9933 -0.4978
 6065SOL    HW119094   4.344   3.090   5.981 -0.5911 -1.6005 -0.6869
 6065SOL    HW219095   4.468   3.006   6.047 -0.1977 -0.8561 -0.4658
 6066SOL     OW19096   3.139   2.050   6.014 -0.3911  0.2559  0.5151
 6066SOL    HW119097   3.227   2.080   6.049  0.9661 -2.3167 -0.4367
 6066SOL    HW219098   3.149   2.019   5.920 -1.4622 -3.3365  1.4253
 6067SOL     OW19099   6.388   1.129   2.678  0.3060 -0.7920 -0.2444
 6067SOL    HW119100   6.385   1.204   2.612  2.2375 -1.5662 -1.2991
 6067SOL    HW219101   6.337   1.154   2.760 -1.1127  0.7000 -1.5221
 6068SOL     OW19102   4.767   6.871   6.803  0.3924  0.8746  0.0372
 6068SOL    HW119103   4.751   6.901   6.897 -0.0916  1.2378 -0.1570
 6068SOL    HW219104   4.856   6.903   6.772  0.3253  1.2138  0.1919
 6069SOL     OW19105   1.939   5.993   6.760  0.7136 -0.7919 -0.0523
 6069SOL    HW119106   1.905   5.912   6.808 -2.5918  0.1563 -0.4956
 6069SOL    HW219107   1.927   6.073   6.819  1.5056 -0.2836 -0.5676
 6070SOL     OW19108   1.372   0.522   2.030  0.2430 -0.0551  0.3581
 6070SOL    HW119109   1.325   0.492   2.114 -0.9911 -1.0619 -0.6461
 6070SOL    HW219110   1.360   0.620   2.019  0.2419  0.0594  1.2435
 6071SOL     OW19111   5.552   2.026   2.813  0.2307 -0.6623  0.5580
 6071SOL    HW119112   5.626   1.959   2.815 -0.2102 -1.2096 -0.5932
 6071SOL    HW219113   5.578   2.106   2.869  1.6929 -0.8242  0.1594
 6072SOL     OW19114   5.940   3.213   6.355  0.2524  0.0535  0.4412
 6072SOL    HW119115   5.980   3.273   6.286  0.0747 -1.1795 -0.7615
 6072SOL    HW219116   5.849   3.185   6.327  0.4344 -0.9852  0.8448
 6073SOL     OW19117   4.062   0.213   1.564 -0.2700 -0.1930 -0.4949
 6073SOL    HW119118   4.145   0.164   1.593 -0.9028 -1.2691 -0.4513
 6073SOL    HW219119   3.984   0.150   1.565 -1.4513  1.2055  1.1280
 6074SOL     OW19120   6.278   4.169   5.286  0.4046 -0.3312  0.1730
 6074SOL    HW119121   6.206   4.118   5.238 -1.1060  1.9453 -0.1462
 6074SOL    HW219122   6.322   4.232   5.223  1.0276 -0.0097  0.9194
 6075SOL     OW19123   3.899   1.568   1.781  0.1627 -0.2491 -0.0447
 6075SOL    HW119124   3.840   1.511   1.725 -0.7602 -1.6249  2.1845
 6075SOL    HW219125   3.861   1.575   1.873  1.4298  2.1829  0.3678
 6076SOL     OW19126   4.814   0.514   5.729  0.1934  0.0061  0.0988
 6076SOL    HW119127   4.844   0.447   5.797  1.1552 -0.4990 -0.7890
 6076SOL    HW219128   4.892   0.542   5.673 -0.4675  0.8366 -0.4326
 6077SOL     OW19129   3.813   5.198   3.119  0.5315 -0.2837  0.3297
 6077SOL    HW119130   3.776   5.115   3.162  0.8292 -0.2665  0.6222
 6077SOL    HW219131   3.889   5.174   3.059  2.2072 -0.0072  2.2422
 6078SOL     OW19132   6.757   4.767   6.231 -0.0391  0.5840 -0.0808
 6078SOL    HW119133   6.750   4.751   6.329 -1.0208  0.3781 -0.1738
 6078SOL    HW219134   6.666   4.785   6.193  0.1616 -0.5310 -1.1526
 6079SOL     OW19135   6.312   0.223   4.307  1.0654 -0.5265 -0.0775
 6079SOL    HW119136   6.367   0.306   4.306  1.1819 -0.5488  1.5519
 6079SOL    HW219137   6.308   0.186   4.401 -1.2060 -0.8659 -0.2367
 6080SOL     OW19138   0.161   0.733   2.173  0.0814  0.5039  0.3839
 6080SOL    HW119139   0.079   0.759   2.122 -0.9849 -1.4972  0.9468
 6080SOL    HW219140   0.205   0.815   2.210 -2.2051  1.5956  0.8668
 6081SOL     OW19141   5.067   4.855   2.279 -0.1384 -0.0788 -0.3336
 6081SOL    HW119142   5.059   4.886   2.184 -2.6116  0.3452 -0.0563
 6081SOL    HW219143   4.998   4.786   2.297  1.2536 -1.2239  0.8022
 6082SOL     OW19144   3.635   1.716   4.738  0.5340 -0.6369 -0.8434
 6082SOL    HW119145   3.723   1.738   4.694  0.2500  0.9844 -0.6663
 6082SOL    HW219146   3.624   1.773   4.819 -1.1348 -0.0690 -1.4378
 6083SOL     OW19147   6.652   6.204   4.190  0.2956  0.3522  0.0359
 6083SOL    HW119148   6.626   6.147   4.112 -1.5314 -1.4669  1.8363
 6083SOL    HW219149   6.745   6.183   4.218  0.4590 -0.0101 -0.7746
 6084SOL     OW19150   4.169   3.225   6.947 -0.1908  0.7212 -0.7249
 6084SOL    HW119151   4.150   3.167   6.867  2.0746 -1.5645  0.2716
 6084SOL    HW219152   4.091   3.222   7.009  0.2170 -2.2683 -0.1999
 6085SOL     OW19153   1.123   0.209   1.589  0.6180  0.3426 -0.5267
 6085SOL    HW119154   1.096   0.296   1.548 -1.2927  0.3019  0.5126
 6085SOL    HW219155   1.155   0.226   1.683 -2.0115 -0.2295  0.5529
 6086SOL     OW19156   1.655   5.684   0.637 -0.0478 -0.3581  0.1460
 6086SOL    HW119157   1.730   5.723   0.583 -0.2380 -0.8802 -0.5114
 6086SOL    HW219158   1.603   5.758   0.679 -0.5852  0.1385 -1.3281
 6087SOL     OW19159   2.286   0.983   4.588  0.0128 -0.3999  0.2038
 6087SOL    HW119160   2.239   1.032   4.661  2.8935  1.4893  0.9555
 6087SOL    HW219161   2.265   1.026   4.500  2.4914  2.4609  0.8476
 6088SOL     OW19162   5.294   0.582   5.787 -0.0574  0.7290  0.1994
 6088SOL    HW119163   5.204   0.560   5.825 -0.5158 -0.7263 -1.6243
 6088SOL    HW219164   5.322   0.511   5.723  2.8134  0.7092  1.3582
 6089SOL     OW19165   0.003   3.937   3.306  0.3045 -0.0534  0.0263
 6089SOL    HW119166  -0.032   4.007   3.369  1.2198  0.7237 -0.2995
 6089SOL    HW219167   0.091   3.905   3.339  0.2367 -0.5090 -0.2341
 6090SOL     OW19168   3.370   5.499   3.870 -0.3284  0.0843  0.2486
 6090SOL    HW119169   3.384   5.462   3.778  1.5059  1.5135 -0.1064
 6090SOL    HW219170   3.380   5.425   3.937  0.1536 -0.6326 -0.5916
 6091SOL     OW19171   4.632   0.503   1.907 -0.4731  0.1393 -0.1051
 6091SOL    HW119172   4.698   0.544   1.843  0.3791 -0.5654  0.2974
 6091SOL    HW219173   4.596   0.574   1.967  0.6078  0.3990  0.2643
 6092SOL     OW19174   3.604   4.744   5.575  0.5316  0.4541  0.9571
 6092SOL    HW119175   3.542   4.770   5.650  2.1205  2.2420  1.7423
 6092SOL    HW219176   3.551   4.728   5.492 -0.9992  2.3087  1.4927
 6093SOL     OW19177   3.519   1.109   2.356 -0.3294 -0.1712 -0.2637
 6093SOL    HW119178   3.503   1.110   2.455  0.1523 -0.2834 -0.1817
 6093SOL    HW219179   3.471   1.031   2.315 -0.1945 -0.3635 -0.0574
 6094SOL     OW19180   1.349   5.018   4.212 -0.1672  0.1372  0.7484
 6094SOL    HW119181   1.284   5.078   4.259  0.9976  0.9775  1.3784
 6094SOL    HW219182   1.442   5.045   4.238  0.4361 -0.9440 -0.2115
 6095SOL     OW19183   5.483   5.940   5.902  0.7140 -0.3045 -0.4195
 6095SOL    HW119184   5.466   5.920   5.998  0.8912 -1.6313 -0.6451
 6095SOL    HW219185   5.571   5.902   5.875  0.4473 -0.3748 -1.2255
 6096SOL     OW19186   6.497   0.404   4.255  0.3568  0.0291  0.0951
 6096SOL    HW119187   6.505   0.495   4.296  1.2694  1.0850 -2.2222
 6096SOL    HW219188   6.586   0.377   4.219 -0.2235 -1.1883 -0.4682
 6097SOL     OW19189   2.254   0.282   3.912 -0.1506 -0.1778  0.4340
 6097SOL    HW119190   2.214   0.319   3.996  2.5739  1.0845  1.2698
 6097SOL    HW219191   2.269   0.183   3.923  2.3319  0.3183  2.4706
 6098SOL     OW19192   1.980   4.349   4.655 -0.3705  0.2665  0.3424
 6098SOL    HW119193   2.043   4.274   4.673 -1.4199 -0.8299 -0.3784
 6098SOL    HW219194   2.002   4.426   4.714  0.9461 -0.4803  0.8642
 6099SOL     OW19195   2.147   5.218   4.708  0.3774  0.1963 -0.0658
 6099SOL    HW119196   2.086   5.164   4.766 -0.5952 -0.5327 -1.6807
 6099SOL    HW219197   2.151   5.311   4.742 -0.0328 -0.2358  1.2438
 6100SOL     OW19198   0.527   0.267   3.899 -0.3181  0.3682  0.3171
 6100SOL    HW119199   0.521   0.181   3.949 -1.1407  0.8346  1.0395
 6100SOL    HW219200   0.623   0.287   3.879 -0.0232 -0.1180  1.1916
 6101SOL     OW19201   5.140   0.774   2.316 -0.1016 -0.2765  0.0523
 6101SOL    HW119202   5.236   0.784   2.288 -0.2725  0.9210 -0.1743
 6101SOL    HW219203   5.083   0.836   2.262 -0.8819 -0.3054  0.8192
 6102SOL     OW19204   0.386   4.785   1.068 -0.6561 -0.4386  0.1826
 6102SOL    HW119205   0.342   4.804   0.980 -1.4682 -1.0095  0.4434
 6102SOL    HW219206   0.443   4.703   1.059  0.4798  0.3823 -0.1915
 6103SOL     OW19207   4.477   0.409   0.550  0.3734  0.7105  0.2996
 6103SOL    HW119208   4.536   0.435   0.474  0.8261 -1.6733 -0.2383
 6103SOL    HW219209   4.519   0.334   0.600 -1.3770  0.1668  1.0165
 6104SOL     OW19210   5.282   5.197   6.359 -0.5375 -0.3268 -0.0354
 6104SOL    HW119211   5.192   5.180   6.320  0.7061 -3.2587 -1.9423
 6104SOL    HW219212   5.317   5.113   6.400  1.3329  0.7678  0.7424
 6105SOL     OW19213   5.081   3.160   4.225 -0.2026 -0.2138 -0.0283
 6105SOL    HW119214   5.142   3.137   4.300  0.8106  0.1178 -0.7311
 6105SOL    HW219215   5.121   3.129   4.139 -1.3048 -0.5153 -0.4464
 6106SOL     OW19216   2.831   3.656   1.059 -0.0575  0.7579  0.0664
 6106SOL    HW119217   2.746   3.629   1.014  0.7347  1.4817 -1.9945
 6106SOL    HW219218   2.847   3.754   1.043  1.6130  0.4399 -0.4244
 6107SOL     OW19219   6.816   6.182   1.657 -0.1817 -0.2329  0.0972
 6107SOL    HW119220   6.804   6.088   1.627  0.3638 -0.5151  0.7465
 6107SOL    HW219221   6.862   6.235   1.586 -0.0599 -0.5729 -0.0737
 6108SOL     OW19222   4.935   6.118   4.214  0.2438  0.2667 -0.1368
 6108SOL    HW119223   4.878   6.196   4.190  0.8007  1.9520  3.2878
 6108SOL    HW219224   4.894   6.034   4.179 -1.8032  1.8136 -1.6947
 6109SOL     OW19225   1.492   2.982   1.825  0.2323  0.1822 -0.3715
 6109SOL    HW119226   1.397   3.011   1.809  1.5747  3.5212 -3.9060
 6109SOL    HW219227   1.537   3.047   1.885  0.6336 -0.7147  0.3164
 6110SOL     OW19228   6.986   1.844   2.374 -0.0912  0.7431 -0.0589
 6110SOL    HW119229   7.029   1.777   2.435 -0.4256  2.0327  1.6875
 6110SOL    HW219230   7.049   1.919   2.356  0.1746  0.1446 -1.7553
 6111SOL     OW19231   4.357   5.026   1.211  0.2065 -0.1783 -0.2726
 6111SOL    HW119232   4.273   5.053   1.257  0.6028 -0.1700  0.4537
 6111SOL    HW219233   4.379   4.931   1.234  0.4119 -0.1739 -0.4439
 6112SOL     OW19234   5.263   0.387   6.793 -0.0885 -0.0606 -0.2638
 6112SOL    HW119235   5.283   0.313   6.857  1.0460 -0.4254 -1.0093
 6112SOL    HW219236   5.189   0.443   6.829 -0.1480 -0.8453  0.8846
 6113SOL     OW19237   3.768   2.775   0.052  0.1919 -0.2667  0.2743
 6113SOL    HW119238   3.754   2.705  -0.018 -0.5814 -0.6716  0.8188
 6113SOL    HW219239   3.706   2.852   0.035  0.3535 -0.1439  0.2351
 6114SOL     OW19240   6.197   3.349   3.900 -0.2477  0.3701 -0.8578
 6114SOL    HW119241   6.142   3.355   3.983  1.0912  0.8860  0.0247
 6114SOL    HW219242   6.264   3.423   3.899 -0.0574  0.2056 -2.2727
 6115SOL     OW19243   3.971   5.085   2.915 -0.5654 -0.0792  0.2755
 6115SOL    HW119244   4.044   5.081   2.846 -2.2664 -0.0747 -1.6009
 6115SOL    HW219245   3.975   5.004   2.972  1.7362  0.5609  1.1379
 6116SOL     OW19246   0.529   0.141   5.116  0.3766 -0.0712  0.2425
 6116SOL    HW119247   0.486   0.076   5.179 -0.6300 -0.4046 -0.7529
 6116SOL    HW219248   0.464   0.214   5.094  0.4200 -0.4065 -1.0465
 6117SOL     OW19249   2.907   6.991   3.109  0.3433 -0.1809 -0.0141
 6117SOL    HW119250   2.996   7.036   3.118  0.8967 -1.6177  3.1850
 6117SOL    HW219251   2.920   6.892   3.111 -1.2644 -0.4289 -0.6193
 6118SOL     OW19252   4.448   3.261   1.019 -0.4843 -0.3000  0.0832
 6118SOL    HW119253   4.439   3.247   0.920 -0.8939  0.1134  0.0621
 6118SOL    HW219254   4.401   3.187   1.067 -0.8343 -0.1525 -0.0318
 6119SOL     OW19255   6.375   1.629   1.578  0.0683  0.1347  0.0784
 6119SOL    HW119256   6.329   1.656   1.663 -0.4003 -0.0355 -0.1223
 6119SOL    HW219257   6.381   1.708   1.517  2.2594  0.8433  1.0698
 6120SOL     OW19258   5.548   6.860   1.133 -0.4719  0.7425  0.0729
 6120SOL    HW119259   5.507   6.921   1.065 -0.4610 -1.4857 -2.0813
 6120SOL    HW219260   5.629   6.817   1.095  0.2383  0.2650  1.9843
 6121SOL     OW19261   4.825   2.241   3.114 -0.1578  0.1799 -0.2167
 6121SOL    HW119262   4.891   2.282   3.177  0.6953 -1.2327 -0.1461
 6121SOL    HW219263   4.836   2.282   3.023  1.3252 -0.4713 -0.3763
 6122SOL     OW19264   2.530   6.184   1.016 -0.4048 -0.1875 -0.2695
 6122SOL    HW119265   2.549   6.219   0.924  0.7129 -0.1701 -0.0554
 6122SOL    HW219266   2.462   6.242   1.061 -0.5407  0.1351 -0.8814
 6123SOL     OW19267   0.075   0.455   1.583  0.1606 -0.4210  0.3105
 6123SOL    HW119268   0.144   0.480   1.515  2.2195 -0.4150  2.2771
 6123SOL    HW219269   0.120   0.434   1.670 -2.4010  0.6286  2.0195
 6124SOL     OW19270   6.176   2.343   0.937 -0.6960  0.3184  0.3219
 6124SOL    HW119271   6.238   2.312   1.009 -1.2278 -1.5421  0.0158
 6124SOL    HW219272   6.190   2.441   0.922  1.6190  0.1126  0.7658
 6125SOL     OW19273   2.282   2.396   5.311  0.0106  0.2329 -0.0821
 6125SOL    HW119274   2.274   2.441   5.400  3.1859 -0.2140  0.5482
 6125SOL    HW219275   2.289   2.465   5.239 -0.2200  0.6512  0.2969
 6126SOL     OW19276   5.534   1.720   6.188  0.2119  0.5033  0.6585
 6126SOL    HW119277   5.488   1.657   6.251 -0.9638  0.9154  0.2459
 6126SOL    HW219278   5.486   1.808   6.188  0.1257  0.4773 -0.8753
 6127SOL     OW19279   5.323   6.207   5.947  0.2153  0.1202  0.3698
 6127SOL    HW119280   5.252   6.152   5.990 -0.0986  1.9819  2.4337
 6127SOL    HW219281   5.403   6.210   6.006 -0.2649  2.8622  1.0030
 6128SOL     OW19282   1.725   3.216   0.668 -0.1645 -0.0253  0.7810
 6128SOL    HW119283   1.744   3.122   0.637  0.2036  0.0950  0.6300
 6128SOL    HW219284   1.697   3.214   0.764  0.2881 -0.2503  0.9122
 6129SOL     OW19285   5.624   4.710   4.812  0.2728 -0.8110 -0.2673
 6129SOL    HW119286   5.678   4.794   4.824  1.6364 -1.6398 -0.4260
 6129SOL    HW219287   5.544   4.713   4.872  0.3233  0.5764 -0.2349
 6130SOL     OW19288   5.786   4.178   1.193  0.4547  0.3357 -0.1955
 6130SOL    HW119289   5.754   4.161   1.286 -1.3056  2.5237 -0.3481
 6130SOL    HW219290   5.751   4.107   1.133 -1.6267  0.9704  0.1918
 6131SOL     OW19291   1.420   1.217   2.138 -0.1821  0.1076 -0.2251
 6131SOL    HW119292   1.513   1.233   2.105 -0.4351  0.1548 -0.9284
 6131SOL    HW219293   1.423   1.192   2.235  0.4543  1.3907  0.1092
 6132SOL     OW19294   1.747   2.862   4.884 -0.7423  0.1532  0.0442
 6132SOL    HW119295   1.817   2.912   4.935 -1.6125  0.3217  1.1025
 6132SOL    HW219296   1.754   2.764   4.904  0.3797 -0.0842 -1.3279
 6133SOL     OW19297   2.365   4.097   1.504 -0.5906 -0.3213 -0.4787
 6133SOL    HW119298   2.361   4.195   1.524 -1.2547 -0.0980 -1.6392
 6133SOL    HW219299   2.404   4.049   1.582 -0.3258  0.8582  0.1358
 6134SOL     OW19300   3.055   3.945   5.754  0.0638  0.3437  0.3852
 6134SOL    HW119301   3.028   3.863   5.804  0.3734  0.4978  0.8095
 6134SOL    HW219302   3.061   3.925   5.656  2.6816 -0.8329  0.7102
 6135SOL     OW19303   1.905   3.251   3.410  0.9141  0.1548  0.7583
 6135SOL    HW119304   1.873   3.303   3.330 -0.5425  0.3142  1.4169
 6135SOL    HW219305   1.939   3.314   3.479 -1.3565  0.3546  1.7804
 6136SOL     OW19306   3.335   4.625   5.951  0.2192 -0.1888 -0.4083
 6136SOL    HW119307   3.399   4.659   6.020 -1.2649 -1.1984  1.5762
 6136SOL    HW219308   3.365   4.536   5.919 -0.3447 -0.8774  0.8672
 6137SOL     OW19309   2.107   2.418   3.181  0.2347  0.1215  0.4281
 6137SOL    HW119310   2.055   2.345   3.226 -0.1370 -0.8788 -1.5031
 6137SOL    HW219311   2.046   2.469   3.121  1.0784  0.1958 -0.3844
 6138SOL     OW19312   0.933   1.781   6.747  0.1917 -0.3585  0.3092
 6138SOL    HW119313   0.918   1.800   6.844  0.8442 -0.9156  0.5287
 6138SOL    HW219314   0.960   1.685   6.736 -1.3453 -0.7238 -0.5891
 6139SOL     OW19315   0.334   4.473   0.374  0.3019  0.0363  0.4689
 6139SOL    HW119316   0.398   4.406   0.411 -0.4760 -0.5840  0.6970
 6139SOL    HW219317   0.258   4.486   0.438  0.9225  1.8710  0.9054
 6140SOL     OW19318   2.128   0.589   0.121  0.2319  0.5739  0.0752
 6140SOL    HW119319   2.218   0.552   0.146  0.1835  1.1602  1.2074
 6140SOL    HW219320   2.140   0.675   0.072  0.2889  0.6346  0.1956
 6141SOL     OW19321   0.548   6.505   1.387 -0.4502  0.0422  0.1422
 6141SOL    HW119322   0.488   6.583   1.406 -0.7689 -0.1781  0.0368
 6141SOL    HW219323   0.618   6.499   1.458 -0.3403  0.5049  0.0797
 6142SOL     OW19324   1.791   5.176   4.773  0.1409  0.0144 -0.2365
 6142SOL    HW119325   1.703   5.129   4.783 -0.1627  0.0704 -2.2119
 6142SOL    HW219326   1.776   5.275   4.773  0.0553  0.0236 -1.3273
 6143SOL     OW19327   4.629   1.893   3.713 -0.0579  0.3261  0.7675
 6143SOL    HW119328   4.631   1.823   3.642 -0.5847  1.4176 -0.3627
 6143SOL    HW219329   4.564   1.965   3.687 -0.5479  0.5748  2.5435
 6144SOL     OW19330   3.326   6.426   2.429 -0.5651  0.2337 -0.2821
 6144SOL    HW119331   3.367   6.340   2.457 -0.6748  0.5396  0.8530
 6144SOL    HW219332   3.390   6.475   2.370  1.1113  1.0587  2.0685
 6145SOL     OW19333   1.139   2.260   1.630 -0.1576 -0.0774  0.2250
 6145SOL    HW119334   1.047   2.244   1.594 -0.0568 -0.6427  0.2096
 6145SOL    HW219335   1.153   2.358   1.643 -1.2777 -0.0565  1.5431
 6146SOL     OW19336   4.914   1.159   4.495  0.0622 -0.1841 -0.5472
 6146SOL    HW119337   4.908   1.201   4.585 -0.0825  0.6550 -0.9358
 6146SOL    HW219338   4.893   1.062   4.501 -0.3357 -0.0506  0.2559
 6147SOL     OW19339   2.868   5.620   0.922 -0.0209 -0.3425  0.0771
 6147SOL    HW119340   2.888   5.704   0.973 -0.1643 -1.1061  1.4420
 6147SOL    HW219341   2.821   5.555   0.982 -0.4839 -1.1656 -1.1388
 6148SOL     OW19342   2.254   3.939   6.096  0.1763  0.0106 -0.6246
 6148SOL    HW119343   2.177   3.943   6.159 -0.9929 -2.2148 -1.7837
 6148SOL    HW219344   2.221   3.951   6.002  1.2610 -0.6903 -1.1211
 6149SOL     OW19345   5.616   5.785   3.581  0.4277  0.3267  0.2191
 6149SOL    HW119346   5.523   5.752   3.597  1.3511 -1.7702  1.7959
 6149SOL    HW219347   5.678   5.740   3.645  2.4560  2.1624 -0.3527
 6150SOL     OW19348   6.731   3.740   0.967  0.2875 -0.5046 -0.7017
 6150SOL    HW119349   6.831   3.736   0.973  0.2652 -1.7600 -0.9624
 6150SOL    HW219350   6.703   3.745   0.872  0.1242  1.8335 -0.5930
 6151SOL     OW19351   4.754   5.681   1.137 -0.2926  0.1835  0.0420
 6151SOL    HW119352   4.721   5.749   1.070  3.8163  1.7128 -0.7501
 6151SOL    HW219353   4.705   5.595   1.123 -1.2404  1.0879 -3.4364
 6152SOL     OW19354   3.619   4.058   2.631 -0.0303 -0.4836  0.7718
 6152SOL    HW119355   3.632   4.012   2.544  0.8496 -0.3175  0.8037
 6152SOL    HW219356   3.532   4.030   2.671 -1.0003  0.3306 -0.6943
 6153SOL     OW19357   3.232   4.100   5.917  0.5558 -0.5329 -0.0885
 6153SOL    HW119358   3.182   4.034   5.861 -0.8402 -0.5491  1.1364
 6153SOL    HW219359   3.188   4.109   6.006  2.5978 -0.3545  0.9700
 6154SOL     OW19360   3.832   0.125   5.032 -0.0599 -0.0687  0.2715
 6154SOL    HW119361   3.863   0.086   4.945 -1.7011  1.1508 -0.9308
 6154SOL    HW219362   3.906   0.176   5.074  0.6099 -0.2172 -0.6901
 6155SOL     OW19363   4.466   4.656   2.574 -0.0937 -0.1578 -0.1861
 6155SOL    HW119364   4.454   4.755   2.566 -0.8996 -0.1594  0.8535
 6155SOL    HW219365   4.484   4.617   2.484 -1.8641  0.6665 -0.9368
 6156SOL     OW19366   3.104   2.656   1.401  0.0218 -0.1142 -0.0689
 6156SOL    HW119367   3.145   2.719   1.467 -0.4410  1.0641 -0.8550
 6156SOL    HW219368   3.158   2.572   1.396  0.4743  0.0782  1.2524
 6157SOL     OW19369   0.431   3.895   6.622  0.0193  0.3122 -0.1644
 6157SOL    HW119370   0.526   3.872   6.603  0.0099  0.4404 -0.3612
 6157SOL    HW219371   0.427   3.970   6.688  0.0847  1.7291 -1.7034
 6158SOL     OW19372   0.344   1.608   6.308  0.5439  0.1764  0.3248
 6158SOL    HW119373   0.410   1.536   6.329 -0.1545 -0.4949  0.2181
 6158SOL    HW219374   0.363   1.688   6.366  1.3579 -0.0576  0.3951
 6159SOL     OW19375   4.016   0.016   5.844  0.4870 -0.6398 -0.1795
 6159SOL    HW119376   3.934   0.069   5.866  0.3688 -0.4794 -0.9782
 6159SOL    HW219377   4.026   0.010   5.745  0.5781 -1.9788 -0.1169
 6160SOL     OW19378   5.648   4.849   5.831 -0.0333  0.2282  0.1279
 6160SOL    HW119379   5.557   4.889   5.840 -0.4689 -0.6010 -0.4686
 6160SOL    HW219380   5.643   4.766   5.776  0.9318 -0.3855  0.9288
 6161SOL     OW19381   4.674   4.714   6.447 -0.0285 -0.0975  0.0772
 6161SOL    HW119382   4.605   4.674   6.387  1.0837 -0.7884 -0.7870
 6161SOL    HW219383   4.699   4.805   6.414  0.8773 -0.6405 -0.7822
 6162SOL     OW19384   4.999   1.675   1.751 -0.2448 -0.1203 -0.5827
 6162SOL    HW119385   5.055   1.698   1.831 -1.8689 -0.7365  0.7800
 6162SOL    HW219386   4.967   1.758   1.707 -1.4041  0.2534  0.9212
 6163SOL     OW19387   2.233   4.948   0.726  0.5241  0.0497  0.1413
 6163SOL    HW119388   2.194   5.005   0.798 -1.1746  0.5091 -1.0676
 6163SOL    HW219389   2.204   4.853   0.738  1.4223 -0.1497  0.8367
 6164SOL     OW19390   0.101   1.759   6.947  0.0037  0.1114 -0.6780
 6164SOL    HW119391   0.173   1.780   7.012 -0.9117  0.3855  0.2663
 6164SOL    HW219392   0.102   1.826   6.873 -0.3375  1.1365  0.2160
 6165SOL     OW19393   0.847   1.432   2.649 -0.2591  0.1731  0.7667
 6165SOL    HW119394   0.880   1.467   2.561 -0.6414  0.3967  0.7090
 6165SOL    HW219395   0.909   1.361   2.682  0.4607  0.8060  0.8189
 6166SOL     OW19396   5.766   0.572   3.474  0.0068  0.2059  0.2182
 6166SOL    HW119397   5.719   0.539   3.392  0.1630  0.3877  0.0525
 6166SOL    HW219398   5.785   0.670   3.464  2.2422 -0.2487 -0.6246
 6167SOL     OW19399   1.979   0.619   5.293 -0.7891  0.3216  0.3282
 6167SOL    HW119400   1.944   0.674   5.369 -1.3635 -1.2388  1.2328
 6167SOL    HW219401   1.915   0.624   5.216  0.3771  2.8919 -0.5976
 6168SOL     OW19402   6.654   0.335   3.743  0.1007 -0.1871 -0.4359
 6168SOL    HW119403   6.569   0.329   3.691  0.4560 -1.1712 -0.9167
 6168SOL    HW219404   6.731   0.304   3.687  0.6318 -0.3187  0.3415
 6169SOL     OW19405   3.815   1.601   2.028 -0.1183 -0.6089 -0.5244
 6169SOL    HW119406   3.868   1.639   2.104 -1.6401 -1.5675  1.1152
 6169SOL    HW219407   3.717   1.612   2.048 -0.5577 -1.3697 -2.1187
 6170SOL     OW19408   0.860   5.991   1.918 -0.0574  0.1673  0.4351
 6170SOL    HW119409   0.934   5.974   1.982  0.7366  0.4478 -0.3895
 6170SOL    HW219410   0.836   6.088   1.919 -0.0578  0.1690  0.3244
 6171SOL     OW19411   3.409   5.014   1.121  0.4308  0.2143 -0.0354
 6171SOL    HW119412   3.499   4.985   1.088  0.8046  1.3914 -0.0844
 6171SOL    HW219413   3.363   5.068   1.051 -0.8068 -1.3044 -0.4416
 6172SOL     OW19414   0.276   0.275   4.014  0.1342 -0.1991 -0.0050
 6172SOL    HW119415   0.365   0.311   3.986  0.2942 -0.0006  0.7387
 6172SOL    HW219416   0.266   0.182   3.981  1.5466 -1.0378  1.7445
 6173SOL     OW19417   2.176   0.980   3.931  0.5899  0.1883 -0.1985
 6173SOL    HW119418   2.141   0.902   3.879 -2.8735  1.2958  0.1522
 6173SOL    HW219419   2.173   1.062   3.873 -0.0728  0.8077  0.6676
 6174SOL     OW19420   2.514   6.043   4.064 -0.2889 -0.1994 -0.0550
 6174SOL    HW119421   2.608   6.060   4.093  0.0826  0.2541 -1.4478
 6174SOL    HW219422   2.513   5.970   3.996 -1.0166 -0.5448  0.3075
 6175SOL     OW19423   6.550   0.106   2.508 -0.1906  0.2120 -0.9731
 6175SOL    HW119424   6.531   0.010   2.488  1.4858 -0.0962 -1.1853
 6175SOL    HW219425   6.509   0.130   2.597  0.8167 -1.1881 -0.0909
 6176SOL     OW19426   2.874   6.078   2.559 -0.4584  0.5907  0.3770
 6176SOL    HW119427   2.842   6.095   2.652 -1.3744  1.1107 -0.0227
 6176SOL    HW219428   2.973   6.064   2.561 -0.1909  2.2590  1.2481
 6177SOL     OW19429   1.522   3.467   2.165  0.2051  0.0471  0.2517
 6177SOL    HW119430   1.535   3.539   2.097  0.0447  0.5378  0.7420
 6177SOL    HW219431   1.546   3.379   2.124  1.0810  0.4544 -0.1254
 6178SOL     OW19432   6.663   5.350   0.702 -0.1748 -0.1216  0.1732
 6178SOL    HW119433   6.745   5.363   0.759 -2.0658  1.3196  2.7945
 6178SOL    HW219434   6.686   5.292   0.624  3.1617 -0.3157  1.1216
 6179SOL     OW19435   6.736   6.862   6.457  0.5184  0.1758 -0.4054
 6179SOL    HW119436   6.741   6.767   6.489 -1.1227  0.2963  0.3159
 6179SOL    HW219437   6.823   6.888   6.415  1.1937 -1.4513 -0.0810
 6180SOL     OW19438   5.883   4.038   1.932  0.3306 -0.4727 -0.7180
 6180SOL    HW119439   5.966   4.009   1.884  0.5260 -0.1518 -0.5780
 6180SOL    HW219440   5.807   4.042   1.867  0.7316  0.5667 -1.1493
 6181SOL     OW19441   3.544   3.838   3.246  0.1565 -0.3591  0.3198
 6181SOL    HW119442   3.611   3.785   3.298  0.9739  0.1659 -0.1805
 6181SOL    HW219443   3.489   3.893   3.309  0.7497 -0.1612  0.6729
 6182SOL     OW19444   2.523   7.018   5.999 -0.0514 -0.0072  0.1624
 6182SOL    HW119445   2.599   6.965   6.037 -0.2038 -1.1908 -1.1000
 6182SOL    HW219446   2.469   7.057   6.073  0.5209 -0.9963  1.1231
 6183SOL     OW19447   1.601   4.443   6.028 -0.4161  0.1255 -0.0058
 6183SOL    HW119448   1.527   4.487   5.977 -0.7237  2.3041  2.1044
 6183SOL    HW219449   1.568   4.356   6.065 -0.5239 -0.9534 -2.4504
 6184SOL     OW19450   2.791   1.164   2.297 -0.5217  0.0353 -0.3855
 6184SOL    HW119451   2.832   1.086   2.344 -0.7776  1.9780  3.3963
 6184SOL    HW219452   2.698   1.180   2.332  0.2099  3.1143  0.4493
 6185SOL     OW19453   7.019   5.091   3.784  0.0593  0.2753 -0.5284
 6185SOL    HW119454   7.011   5.112   3.686  2.5527  0.5306 -0.7479
 6185SOL    HW219455   7.068   5.165   3.829 -0.4429 -0.1809  0.8012
 6186SOL     OW19456   4.657   2.540   0.298 -0.2109 -0.1036 -0.3844
 6186SOL    HW119457   4.668   2.442   0.281  0.6130  0.1863 -1.5870
 6186SOL    HW219458   4.684   2.561   0.392  2.7109 -0.5676 -1.0385
 6187SOL     OW19459   2.039   3.349   3.906 -0.3295 -0.6546  0.2827
 6187SOL    HW119460   2.035   3.253   3.934 -0.7610 -0.3692  1.2377
 6187SOL    HW219461   2.056   3.406   3.986  0.0633  0.0615 -0.2989
 6188SOL     OW19462   2.635   0.943   3.934  0.2176 -0.7869 -0.2759
 6188SOL    HW119463   2.715   0.982   3.980 -0.1050 -0.9760  0.4563
 6188SOL    HW219464   2.615   0.852   3.970 -1.1113 -0.2167  0.5167
 6189SOL     OW19465   5.848   1.383   5.116  0.3854  0.5755 -0.7476
 6189SOL    HW119466   5.802   1.470   5.136 -0.5842 -0.1020  0.0481
 6189SOL    HW219467   5.842   1.323   5.195  0.1501 -0.6094 -1.6280
 6190SOL     OW19468   5.128   5.237   4.752 -0.2395  0.1065  0.3984
 6190SOL    HW119469   5.094   5.262   4.843 -0.5893 -0.0306  0.3085
 6190SOL    HW219470   5.117   5.314   4.690  1.2503  0.6641  0.7955
 6191SOL     OW19471   3.618   0.943   6.757 -0.1677 -0.0624  0.5105
 6191SOL    HW119472   3.683   1.018   6.767 -0.4500  0.3988 -0.8658
 6191SOL    HW219473   3.648   0.866   6.813  0.3883  0.8881  1.5781
 6192SOL     OW19474   0.245   4.891   1.265  0.3799  0.1744 -0.5081
 6192SOL    HW119475   0.265   4.988   1.276  0.9780 -0.0558  0.5673
 6192SOL    HW219476   0.308   4.852   1.196  0.2792  0.5020 -0.7854
 6193SOL     OW19477   3.090   4.435   5.299  0.3761 -0.1591 -0.0577
 6193SOL    HW119478   3.004   4.473   5.265  0.7615  0.6128 -0.1971
 6193SOL    HW219479   3.087   4.335   5.292 -0.5837 -0.1591  0.1318
 6194SOL     OW19480   6.792   4.449   6.764 -0.5091 -0.1732  0.1087
 6194SOL    HW119481   6.882   4.466   6.723 -0.9085 -0.3504 -0.8673
 6194SOL    HW219482   6.721   4.467   6.696 -1.0989 -2.9276 -0.1102
 6195SOL     OW19483   1.689   4.738   5.844 -0.1519  0.3086 -0.0652
 6195SOL    HW119484   1.631   4.689   5.779  1.0371 -2.7247  0.9985
 6195SOL    HW219485   1.634   4.770   5.921 -0.9065  0.3907 -0.6297
 6196SOL     OW19486   4.235   1.565   5.109  0.1956 -0.2315 -0.0553
 6196SOL    HW119487   4.248   1.661   5.134  0.5032 -0.3956  0.4381
 6196SOL    HW219488   4.227   1.510   5.192  1.4864 -0.8215 -0.2994
 6197SOL     OW19489   1.782   1.012   2.576  0.6938  0.5532  0.1501
 6197SOL    HW119490   1.879   1.005   2.599  0.5047 -0.7641  0.6890
 6197SOL    HW219491   1.771   1.052   2.485  1.8219 -0.5723 -0.5133
 6198SOL     OW19492   6.706   5.456   2.078 -0.3427  0.6742  0.1404
 6198SOL    HW119493   6.690   5.494   1.986  1.7507 -0.5240 -0.7922
 6198SOL    HW219494   6.654   5.508   2.145 -2.3665  1.2655 -1.7704
 6199SOL     OW19495   5.624   1.126   2.872  0.8961  0.9786 -0.4732
 6199SOL    HW119496   5.678   1.198   2.915 -0.2510  0.9532  1.0812
 6199SOL    HW219497   5.663   1.105   2.782  2.9759  1.5058  0.2371
 6200SOL     OW19498   1.649   3.691   5.700 -0.2455 -0.1011  0.0474
 6200SOL    HW119499   1.728   3.750   5.716 -0.5980  0.4859 -0.3101
 6200SOL    HW219500   1.567   3.735   5.735 -0.4963 -0.4494 -0.0964
 6201SOL     OW19501   1.108   0.855   4.304 -0.2233 -0.0799 -0.0429
 6201SOL    HW119502   1.141   0.950   4.301 -3.5787  1.1872 -1.0665
 6201SOL    HW219503   1.090   0.829   4.399  1.4443 -0.0216  0.3198
 6202SOL     OW19504   1.504   4.446   4.077  0.0500  0.3450  0.1208
 6202SOL    HW119505   1.494   4.347   4.070  0.2948  0.2635  0.9139
 6202SOL    HW219506   1.461   4.489   3.997 -3.1310 -0.2086  1.4111
 6203SOL     OW19507   5.795   5.879   5.461 -0.1198  0.1702 -0.4210
 6203SOL    HW119508   5.888   5.903   5.434 -0.5277  1.4077 -0.8161
 6203SOL    HW219509   5.732   5.900   5.385 -0.4876 -2.7853 -1.0599
 6204SOL     OW19510   1.818   2.096   1.659 -0.2437 -0.3433  0.4752
 6204SOL    HW119511   1.764   2.139   1.586 -0.8547 -2.2985 -0.3129
 6204SOL    HW219512   1.760   2.081   1.739  0.2304  1.1230  1.1263
 6205SOL     OW19513   5.718   1.583   0.057 -0.2856  0.3675  0.0418
 6205SOL    HW119514   5.768   1.603  -0.028 -0.4006 -2.0098 -0.6731
 6205SOL    HW219515   5.784   1.568   0.131 -0.0704  0.2688 -0.1670
 6206SOL     OW19516   3.729   5.999   0.398  0.1198  0.2470  0.1130
 6206SOL    HW119517   3.802   6.019   0.333  0.8081  0.2991  0.8882
 6206SOL    HW219518   3.653   6.063   0.384  0.5302  0.6675 -0.2107
 6207SOL     OW19519   3.438   1.915   5.811 -0.4728 -0.1760 -0.5109
 6207SOL    HW119520   3.505   1.927   5.738  1.0682 -1.0202  0.7082
 6207SOL    HW219521   3.411   2.005   5.847  0.5715  0.1571 -0.5302
 6208SOL     OW19522   2.713   1.408   0.548 -0.1240 -0.4369 -0.1585
 6208SOL    HW119523   2.767   1.483   0.586  0.2355 -0.1684 -1.1746
 6208SOL    HW219524   2.618   1.419   0.577 -0.7373  2.1458 -2.6128
 6209SOL     OW19525   6.644   2.421   2.084  0.0718  0.2148 -0.1741
 6209SOL    HW119526   6.637   2.506   2.030  0.5659 -0.4347 -1.3129
 6209SOL    HW219527   6.683   2.349   2.026  2.3837 -0.0476  1.5635
 6210SOL     OW19528   3.550   0.528   4.037 -0.1106  0.0648  0.2624
 6210SOL    HW119529   3.576   0.525   4.133 -0.2687 -1.5412  0.2884
 6210SOL    HW219530   3.477   0.595   4.024  2.2626  2.9459  0.5884
 6211SOL     OW19531   5.115   5.447   6.950  0.0318  0.0679 -0.2581
 6211SOL    HW119532   5.104   5.368   7.011 -3.4539 -0.3179 -1.1141
 6211SOL    HW219533   5.172   5.421   6.872 -0.2148 -1.3013 -0.0121
 6212SOL     OW19534   4.913   0.923   3.023  0.1101  0.0057  0.2378
 6212SOL    HW119535   4.969   1.005   3.036  0.6893 -0.3086 -0.1777
 6212SOL    HW219536   4.974   0.845   3.002 -0.5084 -0.2814 -0.5302
 6213SOL     OW19537   3.431   6.105   6.740 -0.6544  0.0638  0.0993
 6213SOL    HW119538   3.354   6.163   6.713  0.8719  1.2093 -2.1270
 6213SOL    HW219539   3.501   6.162   6.783 -0.8220 -0.8912  1.7106
 6214SOL     OW19540   2.147   3.025   5.509 -0.2371 -0.4313  0.3162
 6214SOL    HW119541   2.120   2.936   5.547 -0.1584 -0.0566  1.2923
 6214SOL    HW219542   2.115   3.033   5.415 -1.0895 -1.1015  0.5389
 6215SOL     OW19543   4.957   1.018   2.428 -0.1380  0.4776 -0.0666
 6215SOL    HW119544   4.974   1.026   2.330  0.1563  1.5180  0.0520
 6215SOL    HW219545   5.005   1.092   2.476  1.3322 -1.1149  1.0597
 6216SOL     OW19546   2.094   2.796   1.129  0.2284  0.2814  0.1826
 6216SOL    HW119547   2.093   2.871   1.064 -3.4093  1.0816  0.9370
 6216SOL    HW219548   2.180   2.796   1.180  1.4958  2.0760 -1.8198
 6217SOL     OW19549   5.860   7.019   5.199  0.0286 -1.2468 -0.1907
 6217SOL    HW119550   5.926   6.945   5.205  2.2315  0.6513  0.5667
 6217SOL    HW219551   5.886   7.092   5.263 -0.9543  0.9731 -2.1546
 6218SOL     OW19552   1.508   6.518   2.450  0.2675 -0.0913  0.6719
 6218SOL    HW119553   1.453   6.601   2.449  1.7536  0.9451 -0.3131
 6218SOL    HW219554   1.456   6.442   2.411 -0.2800  0.9944 -0.7867
 6219SOL     OW19555   3.593   5.087   4.775  0.0075  0.2588 -0.4364
 6219SOL    HW119556   3.647   5.005   4.794  0.2736  0.5717  0.1818
 6219SOL    HW219557   3.538   5.110   4.856 -0.2105  0.5810 -0.6728
 6220SOL     OW19558   5.192   6.721   2.893  0.4409 -0.2619  0.5973
 6220SOL    HW119559   5.183   6.622   2.901  0.7366 -0.2077  1.9034
 6220SOL    HW219560   5.103   6.764   2.908  0.2157 -0.3465 -0.4672
 6221SOL     OW19561   2.420   0.950   6.726  0.2748 -0.3891  0.4902
 6221SOL    HW119562   2.399   0.994   6.639 -1.4092 -1.4969  0.2855
 6221SOL    HW219563   2.473   1.013   6.784  1.9889  0.1411 -1.5280
 6222SOL     OW19564   0.543   4.233   2.205  0.4938  0.1014 -0.1742
 6222SOL    HW119565   0.575   4.307   2.264  0.0877 -0.3952  0.6941
 6222SOL    HW219566   0.448   4.249   2.179  0.0952 -0.5870  0.8141
 6223SOL     OW19567   0.354   2.700   0.473 -0.0202 -0.1314 -0.0171
 6223SOL    HW119568   0.396   2.724   0.386  1.2172 -0.2708  0.5207
 6223SOL    HW219569   0.416   2.725   0.548 -1.1027  0.0700  0.8295
 6224SOL     OW19570   1.604   2.683   3.681 -0.2375 -0.6217 -0.7851
 6224SOL    HW119571   1.639   2.591   3.696  2.8629  0.7719  2.0637
 6224SOL    HW219572   1.676   2.739   3.639 -0.9879  1.1090  0.1103
 6225SOL     OW19573   6.768   1.115   1.902 -0.4483  0.6925  0.2892
 6225SOL    HW119574   6.826   1.150   1.828  2.4888 -0.8966  1.6729
 6225SOL    HW219575   6.758   1.016   1.893 -0.7359  0.5888  1.5478
 6226SOL     OW19576   4.043   2.668   1.590  0.0184 -0.2699  0.1655
 6226SOL    HW119577   4.086   2.745   1.639  0.9998 -0.7262  0.0445
 6226SOL    HW219578   4.072   2.582   1.632 -0.1787 -0.6178 -0.4024
 6227SOL     OW19579   5.586   3.585   4.198  0.4074 -0.0450  0.0483
 6227SOL    HW119580   5.563   3.542   4.286 -1.1061 -0.5586 -0.5712
 6227SOL    HW219581   5.685   3.582   4.185  0.4929 -1.8936  0.7763
 6228SOL     OW19582   5.643   3.019   3.070 -0.6002 -0.2401 -0.0724
 6228SOL    HW119583   5.630   2.920   3.058 -0.6337 -0.4530  1.5657
 6228SOL    HW219584   5.564   3.057   3.118 -1.6946  1.0400 -2.6997
 6229SOL     OW19585   0.025   5.743   6.298 -0.4285 -0.0657  0.0558
 6229SOL    HW119586  -0.030   5.827   6.297 -1.2655 -0.6033 -0.5017
 6229SOL    HW219587  -0.036   5.664   6.303  0.3460 -0.6543  0.3860
 6230SOL     OW19588   3.024   4.600   1.022  0.6133  0.0791  0.2068
 6230SOL    HW119589   2.937   4.628   0.980 -0.1588 -1.2196  0.8753
 6230SOL    HW219590   3.097   4.604   0.953 -0.5243 -1.5458 -1.2006
 6231SOL     OW19591   2.725   4.646   6.668 -0.4229  0.6290  0.7316
 6231SOL    HW119592   2.628   4.661   6.647  0.3015  0.9163 -3.1860
 6231SOL    HW219593   2.775   4.731   6.656  0.7225 -0.1642 -0.2867
 6232SOL     OW19594   5.915   1.254   1.095  0.4425 -0.2986 -0.0689
 6232SOL    HW119595   5.964   1.333   1.059  1.6511 -0.8652  0.2942
 6232SOL    HW219596   5.816   1.266   1.080  0.5357  1.5803  0.5868
 6233SOL     OW19597   5.637   3.452   0.993 -0.0911 -0.5333 -0.7964
 6233SOL    HW119598   5.587   3.496   1.068 -1.6323 -1.4511 -1.2424
 6233SOL    HW219599   5.654   3.519   0.921 -0.0974 -0.0629 -0.3740
 6234SOL     OW19600   0.389   2.200   1.942  1.1634  0.3157 -0.2531
 6234SOL    HW119601   0.473   2.147   1.928  0.2067 -1.0712 -1.0563
 6234SOL    HW219602   0.346   2.218   1.853 -0.0226 -0.1022  0.2110
 6235SOL     OW19603   3.544   5.714   3.903 -0.3269  0.5915  0.0423
 6235SOL    HW119604   3.545   5.742   3.807  1.4071 -1.4790 -0.6223
 6235SOL    HW219605   3.484   5.635   3.914 -0.2256  0.5896  0.6038
 6236SOL     OW19606   1.039   2.732   0.592 -0.3085  0.2075 -0.4020
 6236SOL    HW119607   1.025   2.691   0.682 -2.5331 -0.5287 -1.0240
 6236SOL    HW219608   1.118   2.793   0.595 -0.6454  0.6247  2.1705
 6237SOL     OW19609   6.952   2.226   0.976  0.1787 -0.9764  0.5845
 6237SOL    HW119610   6.966   2.325   0.974 -0.1485 -0.9065  1.3328
 6237SOL    HW219611   6.986   2.186   0.891  0.7710 -0.2833  0.4825
 6238SOL     OW19612   1.531   3.429   5.082 -0.6052  0.1511 -0.1518
 6238SOL    HW119613   1.534   3.330   5.065 -0.6644  0.4292 -1.9965
 6238SOL    HW219614   1.584   3.450   5.164  2.3956 -1.0773 -1.6265
 6239SOL     OW19615   0.425   5.723   4.196 -0.1770 -0.2159 -0.4674
 6239SOL    HW119616   0.410   5.625   4.183 -1.4905 -0.4928  2.4531
 6239SOL    HW219617   0.500   5.738   4.260  0.1278  0.7313 -1.0181
 6240SOL     OW19618   0.175   6.226   6.616 -0.3649  0.0724  0.2281
 6240SOL    HW119619   0.184   6.201   6.519  2.6381  1.1539  0.1217
 6240SOL    HW219620   0.170   6.143   6.671  1.1746 -0.6782 -0.6824
 6241SOL     OW19621   3.798   2.956   4.273  0.0113 -0.0069  0.7803
 6241SOL    HW119622   3.824   2.905   4.355  1.2004 -0.2724  0.2636
 6241SOL    HW219623   3.701   2.941   4.254  0.1195 -1.3394  1.1705
 6242SOL     OW19624   2.664   0.757   1.705  0.6462 -0.5717  0.1531
 6242SOL    HW119625   2.704   0.711   1.784 -0.7021 -2.0426  0.0157
 6242SOL    HW219626   2.608   0.835   1.737 -0.9783 -1.9429  0.8194
 6243SOL     OW19627   1.534   0.964   0.633 -0.5027  0.0073  0.6436
 6243SOL    HW119628   1.496   0.909   0.559  1.0504 -0.5286  0.1961
 6243SOL    HW219629   1.564   0.904   0.707 -0.2659  0.3829  0.8561
 6244SOL     OW19630   0.971   0.036   0.328 -0.0101 -0.6600 -0.0715
 6244SOL    HW119631   0.887   0.051   0.277  0.1591 -0.9468 -0.4358
 6244SOL    HW219632   0.951   0.040   0.426 -0.0105  1.7448 -0.1172
 6245SOL     OW19633   1.764   0.241   2.892 -0.4717  0.1878 -0.2708
 6245SOL    HW119634   1.719   0.323   2.858 -0.0356  0.6052  0.1413
 6245SOL    HW219635   1.839   0.216   2.831  0.0788  0.7244  0.1763
 6246SOL     OW19636   7.012   2.921   1.521  0.2144  0.6366 -0.0554
 6246SOL    HW119637   6.958   2.837   1.522  2.2046 -0.7259  0.4572
 6246SOL    HW219638   6.964   2.991   1.469 -1.1655 -1.0715 -1.2269
 6247SOL     OW19639   5.703   2.636   3.521 -0.1155 -0.2649  0.0070
 6247SOL    HW119640   5.669   2.684   3.440 -0.8245 -0.0823  0.4041
 6247SOL    HW219641   5.657   2.672   3.602  0.1859 -0.8354  0.4347
 6248SOL     OW19642   4.894   3.621   3.291 -0.1337 -0.6678 -0.1005
 6248SOL    HW119643   4.861   3.532   3.322  1.6085 -1.2902  0.0586
 6248SOL    HW219644   4.944   3.666   3.365  1.9633 -1.0912 -1.2025
 6249SOL     OW19645   0.364   3.931   2.629 -0.8384  0.4455  0.0643
 6249SOL    HW119646   0.463   3.916   2.627 -0.7661  0.9008 -2.8535
 6249SOL    HW219647   0.340   4.007   2.570 -2.9126  0.8589  1.3266
 6250SOL     OW19648   4.650   4.480   1.747  0.1503 -0.3352 -0.2840
 6250SOL    HW119649   4.731   4.539   1.748  0.7379 -1.1294  0.7172
 6250SOL    HW219650   4.674   4.392   1.705  0.7010 -1.7206  2.6771
 6251SOL     OW19651   3.628   5.129   6.276  0.0912  0.8679 -0.5063
 6251SOL    HW119652   3.646   5.108   6.180 -0.2852  1.3458 -0.6829
 6251SOL    HW219653   3.715   5.148   6.323  0.2897  0.4752 -0.7070
 6252SOL     OW19654   7.009   3.693   3.163 -0.0839  0.0447 -0.7022
 6252SOL    HW119655   6.983   3.779   3.208  0.2297  0.1507 -0.7186
 6252SOL    HW219656   6.954   3.680   3.081  1.9484  1.8097 -2.4839
 6253SOL     OW19657   5.975   1.950   5.424 -0.0893  0.4453  0.4148
 6253SOL    HW119658   6.023   1.925   5.339  2.2373 -1.4102  2.1277
 6253SOL    HW219659   5.895   1.893   5.435  0.8867 -0.9493  0.5290
 6254SOL     OW19660   2.549   2.452   3.023 -0.1874 -0.2076 -0.0340
 6254SOL    HW119661   2.626   2.411   2.974 -0.9428  0.2733 -1.7067
 6254SOL    HW219662   2.506   2.521   2.965 -1.6344 -0.1760  1.0213
 6255SOL     OW19663   2.340   3.084   1.081 -0.0857 -0.1265  0.0773
 6255SOL    HW119664   2.347   3.058   0.985 -0.0313 -1.3865  0.4129
 6255SOL    HW219665   2.251   3.126   1.098  0.2899  1.0565 -0.7266
 6256SOL     OW19666   5.296   5.444   6.476  0.3053  0.6447 -0.5467
 6256SOL    HW119667   5.287   5.355   6.431 -0.2557  0.6619 -0.4761
 6256SOL    HW219668   5.381   5.488   6.447  0.1754  0.4530 -1.2367
 6257SOL     OW19669   0.244   1.136   4.154 -0.2784 -0.3210 -0.0757
 6257SOL    HW119670   0.266   1.047   4.193 -1.4385 -0.9470 -0.8086
 6257SOL    HW219671   0.239   1.129   4.054  0.6266  0.8033 -0.2280
 6258SOL     OW19672   1.288   2.161   5.580  0.0821  0.2348 -0.4706
 6258SOL    HW119673   1.191   2.169   5.557 -0.0922 -3.1583 -1.3563
 6258SOL    HW219674   1.299   2.149   5.678 -0.0652  3.3530  0.0365
 6259SOL     OW19675   5.877   0.892   4.240 -0.1112  0.5214  0.5515
 6259SOL    HW119676   5.915   0.961   4.301 -1.4560 -0.2280  2.3281
 6259SOL    HW219677   5.944   0.869   4.169  0.9569  2.4404  0.8849
 6260SOL     OW19678   4.224   5.601   1.540  0.1594 -0.5471  0.7171
 6260SOL    HW119679   4.154   5.614   1.611 -0.7452 -2.2938  0.2081
 6260SOL    HW219680   4.286   5.528   1.568 -0.8374 -1.9975 -0.7073
 6261SOL     OW19681   1.028   0.569   2.185  0.2666 -0.0224 -0.1551
 6261SOL    HW119682   1.089   0.494   2.162 -0.0364  0.0524 -1.2919
 6261SOL    HW219683   1.061   0.617   2.266 -0.3021 -2.2455  1.4825
 6262SOL     OW19684   2.564   2.081   6.710 -0.1208 -0.4424  0.0524
 6262SOL    HW119685   2.654   2.039   6.706  0.3879  0.4918  1.0861
 6262SOL    HW219686   2.528   2.074   6.804 -0.6587  0.1257 -0.1027
 6263SOL     OW19687   4.725   4.165   3.209 -0.1017 -0.0626  0.2657
 6263SOL    HW119688   4.744   4.068   3.195  1.4394  0.3483 -0.7137
 6263SOL    HW219689   4.696   4.180   3.303 -0.2567 -1.4381  0.4606
 6264SOL     OW19690   5.918   3.940   3.590  0.3391  0.3580  0.0842
 6264SOL    HW119691   5.935   3.871   3.521 -2.0658  2.2009 -2.5829
 6264SOL    HW219692   5.828   3.925   3.631 -0.2395  1.8330 -0.5646
 6265SOL     OW19693   1.238   5.944   2.314  0.0786 -0.6574  0.3499
 6265SOL    HW119694   1.209   6.016   2.250 -0.3613 -0.5861  0.6246
 6265SOL    HW219695   1.332   5.916   2.293 -0.3189 -1.1846 -0.8294
 6266SOL     OW19696   1.009   3.284   4.296 -0.3458  0.3627  0.0901
 6266SOL    HW119697   0.997   3.185   4.294  0.6911  0.2337 -0.5262
 6266SOL    HW219698   0.931   3.328   4.251  0.4656 -0.3266 -2.0904
 6267SOL     OW19699   0.122   4.512   1.788 -0.1384  0.4829  0.2254
 6267SOL    HW119700   0.048   4.524   1.722 -0.5264  1.0930  0.7634
 6267SOL    HW219701   0.160   4.601   1.812  1.9931  0.0805 -1.3835
 6268SOL     OW19702   6.119   5.394   1.136  0.5451  0.2315  0.3035
 6268SOL    HW119703   6.040   5.346   1.096  0.2967  1.1886 -0.3954
 6268SOL    HW219704   6.119   5.382   1.235 -1.3881  1.4930  0.5088
 6269SOL     OW19705   6.425   0.981   3.368  0.2584 -0.0047 -0.2336
 6269SOL    HW119706   6.452   0.902   3.422  0.1063  0.3357  0.3482
 6269SOL    HW219707   6.337   1.015   3.400  0.2380  0.2948 -0.5981
 6270SOL     OW19708   1.921   3.357   2.307  0.1663 -0.0377 -0.1420
 6270SOL    HW119709   1.959   3.417   2.237 -1.7173 -0.2908 -1.4447
 6270SOL    HW219710   1.993   3.296   2.341  0.7000 -1.4582 -3.4821
 6271SOL     OW19711   5.350   6.561   3.766 -0.3474 -0.1026 -0.0254
 6271SOL    HW119712   5.359   6.583   3.668  1.7881 -0.4143  0.0676
 6271SOL    HW219713   5.253   6.550   3.788 -0.8095 -2.2729 -2.6088
 6272SOL     OW19714   5.147   3.645   0.503  0.5579  0.5746  0.4485
 6272SOL    HW119715   5.099   3.586   0.568 -0.0966  1.4590  0.7829
 6272SOL    HW219716   5.135   3.741   0.530 -0.2243  1.0063 -1.3143
 6273SOL     OW19717   4.020   0.511   1.143 -0.2862 -0.2116  0.2718
 6273SOL    HW119718   4.089   0.475   1.080  2.2571  1.6388  1.8162
 6273SOL    HW219719   4.037   0.476   1.235 -0.5838  1.2623  0.9228
 6274SOL     OW19720   1.676   4.308   1.663  0.7693 -0.6415 -0.2038
 6274SOL    HW119721   1.622   4.376   1.712  1.5641  0.5065 -0.8741
 6274SOL    HW219722   1.741   4.265   1.725  0.7035 -0.3154  0.0929
 6275SOL     OW19723   3.677   2.958   5.453  0.2783  0.0524  0.2233
 6275SOL    HW119724   3.701   2.865   5.482  1.0106 -0.0789 -0.7451
 6275SOL    HW219725   3.745   3.022   5.490  1.2716 -0.1269 -1.1975
 6276SOL     OW19726   0.933   6.605   4.958  0.2173 -0.1209  0.4349
 6276SOL    HW119727   0.854   6.666   4.958 -0.2927 -0.6699 -2.0421
 6276SOL    HW219728   1.012   6.653   4.921  0.7276  0.0252  1.6716
 6277SOL     OW19729   2.700   2.813   5.370 -0.1882 -0.1389 -0.2574
 6277SOL    HW119730   2.662   2.720   5.373 -0.5388  0.0335  1.6119
 6277SOL    HW219731   2.633   2.875   5.329  1.0376 -1.0600 -4.1321
 6278SOL     OW19732   5.000   2.789   1.518  0.1169  0.2899 -0.7168
 6278SOL    HW119733   5.086   2.834   1.498 -0.5748  1.9401 -0.1120
 6278SOL    HW219734   4.954   2.836   1.593  0.4833 -2.8878  1.7327
 6279SOL     OW19735   4.326   0.716   3.832  0.3415  0.0829 -0.4803
 6279SOL    HW119736   4.323   0.812   3.862 -0.2169  0.1336 -0.7089
 6279SOL    HW219737   4.249   0.696   3.773  1.7191  0.1251 -2.3785
 6280SOL     OW19738   3.024   1.811   4.912  0.2342 -0.0330  0.8641
 6280SOL    HW119739   3.117   1.792   4.880  0.7486  0.7837  1.8408
 6280SOL    HW219740   3.023   1.894   4.967 -1.1184  0.0748  0.7187
 6281SOL     OW19741   2.622   4.566   0.920 -0.6073 -0.0508  0.0517
 6281SOL    HW119742   2.613   4.554   1.019  0.0867 -0.7766  0.0396
 6281SOL    HW219743   2.704   4.618   0.900 -0.6794 -0.0137 -0.1501
 6282SOL     OW19744   1.919   2.206   4.117  0.1173 -0.3560  0.1405
 6282SOL    HW119745   1.839   2.243   4.163  0.2914 -0.0339  0.1889
 6282SOL    HW219746   1.965   2.278   4.066 -0.7471 -0.9333 -1.5592
 6283SOL     OW19747   0.778   0.393   5.964 -0.3182 -0.5798 -0.0418
 6283SOL    HW119748   0.847   0.422   6.030 -0.8192 -0.6125  0.5034
 6283SOL    HW219749   0.697   0.361   6.013 -0.7307 -0.5098 -0.6746
 6284SOL     OW19750   4.655   0.939   0.363  0.1156  0.0239 -0.1566
 6284SOL    HW119751   4.694   0.856   0.403  1.4105  0.9108  0.4712
 6284SOL    HW219752   4.703   0.962   0.278  0.2007  0.4773  0.0090
 6285SOL     OW19753   6.409   2.787   4.118  0.2944 -0.2752 -0.2233
 6285SOL    HW119754   6.498   2.818   4.150 -0.2290  1.5150 -0.4250
 6285SOL    HW219755   6.379   2.709   4.174  1.4669 -0.1679  0.5773
 6286SOL     OW19756   6.453   3.448   2.133 -0.2505 -0.4325  0.0262
 6286SOL    HW119757   6.498   3.503   2.062 -3.1618  0.5114 -1.2496
 6286SOL    HW219758   6.468   3.491   2.222  1.1913 -0.0756 -0.3658
 6287SOL     OW19759   4.963   6.981   4.888  0.4372  0.0125 -0.5166
 6287SOL    HW119760   4.932   6.980   4.793  1.7817  3.9983 -1.1564
 6287SOL    HW219761   4.884   6.978   4.949 -0.7273  1.3916 -1.8802
 6288SOL     OW19762   0.821   0.569   3.551  0.6417 -0.0937  0.9859
 6288SOL    HW119763   0.737   0.563   3.604  2.0800 -0.5657  3.3848
 6288SOL    HW219764   0.865   0.657   3.569  0.2432  0.5386 -0.9801
 6289SOL     OW19765   4.249   0.368   6.444  0.0233 -0.3563  0.0722
 6289SOL    HW119766   4.233   0.317   6.529 -0.1376  0.3627  0.4764
 6289SOL    HW219767   4.347   0.373   6.426  0.1350  0.5494  0.8811
 6290SOL     OW19768   6.295   0.422   1.187 -0.4646 -0.1250 -0.5507
 6290SOL    HW119769   6.221   0.479   1.151 -0.1023 -1.1050 -3.0559
 6290SOL    HW219770   6.258   0.357   1.253 -0.9893  2.4499  1.8643
 6291SOL     OW19771   4.204   5.344   3.887 -0.0356 -0.2725 -0.5037
 6291SOL    HW119772   4.170   5.431   3.850  0.1042  0.0228  0.0507
 6291SOL    HW219773   4.136   5.273   3.871 -0.0592 -0.1174 -1.1632
 6292SOL     OW19774   6.318   6.948   0.811  0.7092  0.0684 -0.5258
 6292SOL    HW119775   6.275   6.977   0.725 -1.1602 -0.0283  0.3230
 6292SOL    HW219776   6.336   7.028   0.868 -1.5225 -0.0823  0.4975
 6293SOL     OW19777   1.679   0.166   5.375  0.2830 -0.2610 -0.7188
 6293SOL    HW119778   1.682   0.068   5.396 -1.6985 -0.5649 -1.6632
 6293SOL    HW219779   1.726   0.217   5.447 -0.2392 -1.7682  0.7449
 6294SOL     OW19780   4.460   4.130   0.669 -0.0799 -0.4235  1.0089
 6294SOL    HW119781   4.527   4.060   0.641 -0.0836 -0.1653  0.3310
 6294SOL    HW219782   4.400   4.150   0.592 -0.6370 -0.2983  1.4700
 6295SOL     OW19783   3.455   2.521   0.457  0.3099  0.1084  0.1132
 6295SOL    HW119784   3.360   2.519   0.487 -0.1414 -2.6767 -1.1671
 6295SOL    HW219785   3.515   2.538   0.535 -1.1006 -1.3836  1.5950
 6296SOL     OW19786   4.578   6.588   3.350 -0.2442 -0.9106  0.9173
 6296SOL    HW119787   4.593   6.518   3.280  0.0731 -0.2901  0.3525
 6296SOL    HW219788   4.643   6.662   3.337  1.0359 -1.5997  2.9763
 6297SOL     OW19789   0.446   6.481   2.978 -0.2231 -0.6672 -0.0328
 6297SOL    HW119790   0.538   6.464   2.943  0.0340  1.1152 -0.3203
 6297SOL    HW219791   0.447   6.479   3.077  0.3636  0.3138 -0.0044
 6298SOL     OW19792   3.639   4.293   6.648 -0.1898  0.0244  0.4622
 6298SOL    HW119793   3.626   4.379   6.697 -0.4098 -0.0802  0.5915
 6298SOL    HW219794   3.695   4.231   6.703 -0.2801 -0.0243  0.4987
 6299SOL     OW19795   0.219   4.377   4.053 -0.2059 -0.9789 -0.2767
 6299SOL    HW119796   0.256   4.394   3.962  0.4021 -2.4097 -0.3222
 6299SOL    HW219797   0.278   4.420   4.122 -0.8010  0.3131 -0.5412
 6300SOL     OW19798   6.703   6.821   3.294 -0.3297  0.0012  0.0323
 6300SOL    HW119799   6.735   6.732   3.326  0.3547  0.5797  1.0127
 6300SOL    HW219800   6.637   6.808   3.220 -0.5445 -1.3258  0.4299
 6301SOL     OW19801   6.443   4.043   6.072  0.7353 -0.2704 -0.4446
 6301SOL    HW119802   6.510   4.070   6.141 -0.3736  0.5533  0.3619
 6301SOL    HW219803   6.448   4.106   5.995  1.3699 -0.6458 -0.7120
 6302SOL     OW19804   0.482   6.981   4.935 -0.2560 -0.0636  0.1286
 6302SOL    HW119805   0.497   7.045   5.011 -0.8071  0.1945  0.0192
 6302SOL    HW219806   0.505   7.027   4.849 -0.1317 -0.1916  0.0928
 6303SOL     OW19807   4.902   2.298   3.744  0.5421 -0.3394 -0.0768
 6303SOL    HW119808   4.839   2.375   3.755 -1.8498 -2.2050 -0.0230
 6303SOL    HW219809   4.970   2.321   3.674 -1.6836  0.8957 -2.0028
 6304SOL     OW19810   5.961   6.285   5.730  0.9093 -0.4631 -0.6065
 6304SOL    HW119811   5.926   6.366   5.683 -0.4351 -0.8615 -0.3316
 6304SOL    HW219812   5.886   6.239   5.778  2.0799 -0.4855  1.3232
 6305SOL     OW19813   0.810   0.004   2.335  0.6698 -0.7068  0.7970
 6305SOL    HW119814   0.751  -0.074   2.316  0.6523 -0.7534  1.0378
 6305SOL    HW219815   0.834   0.004   2.432  0.9178 -0.5871  0.7370
 6306SOL     OW19816   6.405   1.437   3.882  0.3493 -0.5871 -0.5970
 6306SOL    HW119817   6.329   1.391   3.927  0.0732 -1.7472 -2.1651
 6306SOL    HW219818   6.487   1.431   3.940 -0.7248  0.7773  1.1539
 6307SOL     OW19819   6.790   5.119   0.119  0.9315 -0.3747 -0.3049
 6307SOL    HW119820   6.877   5.139   0.163  1.8436  1.7441 -2.7941
 6307SOL    HW219821   6.775   5.020   0.117  2.4142 -0.6880  1.6770
 6308SOL     OW19822   4.822   3.590   6.530 -0.4376  0.5959 -0.7054
 6308SOL    HW119823   4.852   3.543   6.613 -0.3519  1.9289  0.0321
 6308SOL    HW219824   4.883   3.567   6.455 -0.6606 -0.8224 -0.4786
 6309SOL     OW19825   6.451   6.236   0.783  0.0169 -0.3179 -0.4166
 6309SOL    HW119826   6.438   6.258   0.686  1.0806 -0.3693 -0.5843
 6309SOL    HW219827   6.368   6.261   0.834 -1.1620 -1.6933 -1.5536
 6310SOL     OW19828   5.885   0.846   0.929 -0.1209 -0.5014 -0.4446
 6310SOL    HW119829   5.845   0.814   0.842  1.8838 -1.6830 -0.9961
 6310SOL    HW219830   5.904   0.767   0.988  0.4068  0.1111  0.2226
 6311SOL     OW19831   6.242   5.601   0.971  0.2520  0.3911  0.3107
 6311SOL    HW119832   6.201   5.556   1.051  1.0333  0.3614  0.6992
 6311SOL    HW219833   6.318   5.546   0.938 -2.0584 -1.4203 -2.5556
 6312SOL     OW19834   6.246   6.500   1.106 -0.1325  0.8205  0.0890
 6312SOL    HW119835   6.147   6.511   1.098 -0.5700 -0.7964  2.2219
 6312SOL    HW219836   6.274   6.418   1.055  0.0271  0.9550 -0.0399
 6313SOL     OW19837   3.915   0.025   2.787  0.1197 -0.1270  0.0155
 6313SOL    HW119838   3.918   0.001   2.690  0.3071  0.8901 -0.2386
 6313SOL    HW219839   3.998   0.075   2.812 -0.2207  0.1850  0.5527
 6314SOL     OW19840   5.779   2.947   3.868 -0.0333 -0.1003  0.1458
 6314SOL    HW119841   5.852   3.012   3.888 -1.2576  1.2140  0.5117
 6314SOL    HW219842   5.797   2.861   3.916  1.3883  0.1018  0.0062
 6315SOL     OW19843   4.201   2.602   6.952 -0.2865 -0.1093 -0.0571
 6315SOL    HW119844   4.295   2.621   6.925 -1.0107  0.0986 -2.8174
 6315SOL    HW219845   4.156   2.688   6.979 -0.2168  0.1255 -0.6744
 6316SOL     OW19846   6.797   1.114   4.186 -0.7835 -0.0999 -0.2635
 6316SOL    HW119847   6.792   1.129   4.087 -0.7778  0.5698 -0.1671
 6316SOL    HW219848   6.887   1.142   4.219 -0.3771 -1.3723 -0.2305
 6317SOL     OW19849   4.307   1.907   0.633 -0.0760  0.3761  0.0710
 6317SOL    HW119850   4.299   1.999   0.596  0.7400  0.4721  0.1194
 6317SOL    HW219851   4.220   1.880   0.674 -0.4101  1.0039 -0.2137
 6318SOL     OW19852   2.003   1.387   0.666  0.4244  0.3329  0.5849
 6318SOL    HW119853   1.979   1.305   0.717  2.8085 -1.3393 -0.7725
 6318SOL    HW219854   2.019   1.463   0.730 -0.5636 -0.5796  1.9665
 6319SOL     OW19855   4.927   6.101   5.161 -0.4088  0.0394 -0.7069
 6319SOL    HW119856   4.944   6.162   5.083  2.8100 -0.5602 -0.5928
 6319SOL    HW219857   4.911   6.155   5.243  2.3644  0.8432 -0.6075
 6320SOL     OW19858   3.301   6.789   1.077  0.0708 -0.0402 -0.7045
 6320SOL    HW119859   3.295   6.795   1.177  0.3818 -0.5171 -0.6532
 6320SOL    HW219860   3.264   6.872   1.036 -0.2215  0.0843 -0.1968
 6321SOL     OW19861   6.816   3.721   4.109  0.4868 -0.7820  0.5833
 6321SOL    HW119862   6.755   3.798   4.129  1.4328  0.4055 -0.9051
 6321SOL    HW219863   6.911   3.752   4.114  0.8596 -1.6155 -0.9427
 6322SOL     OW19864   5.939   5.015   4.551 -0.7910  0.4194  0.1503
 6322SOL    HW119865   5.950   5.021   4.651  2.2741  1.7694 -0.1804
 6322SOL    HW219866   5.929   5.107   4.513  1.8880  0.3120 -1.0432
 6323SOL     OW19867   5.334   2.854   0.876 -0.0047 -0.0076 -0.0931
 6323SOL    HW119868   5.257   2.795   0.900  0.2543 -0.3808 -0.1694
 6323SOL    HW219869   5.401   2.802   0.823  0.8530 -0.0206  0.9561
 6324SOL     OW19870   0.633   6.923   6.501 -0.2428 -0.2642  0.4152
 6324SOL    HW119871   0.675   6.839   6.535  0.3926  0.4028  1.3188
 6324SOL    HW219872   0.548   6.901   6.453  0.8197 -1.5923 -0.9684
 6325SOL     OW19873   4.930   4.236   2.468  0.3351  0.5798  0.0303
 6325SOL    HW119874   4.912   4.140   2.446 -2.3366  1.0309 -0.0370
 6325SOL    HW219875   5.019   4.262   2.432  1.1585 -1.8772  0.1088
 6326SOL     OW19876   3.041   0.770   3.222 -0.3537  0.5117  0.4208
 6326SOL    HW119877   3.126   0.722   3.199  1.1553  2.1813  2.1608
 6326SOL    HW219878   3.032   0.851   3.163 -2.2790 -1.0980 -1.6868
 6327SOL     OW19879   6.605   0.008   6.663  0.2565  0.2521 -0.6815
 6327SOL    HW119880   6.604   0.108   6.655  1.7810  0.4626  0.8832
 6327SOL    HW219881   6.688  -0.027   6.618  2.4428  0.2995  2.9026
 6328SOL     OW19882   2.407   2.013   3.053 -0.3102 -0.0778 -0.1494
 6328SOL    HW119883   2.477   2.013   2.982  0.0824 -0.9289  0.2308
 6328SOL    HW219884   2.401   2.104   3.095  1.0519 -0.1784  0.2956
 6329SOL     OW19885   1.851   1.892   2.324 -0.2340  0.0484 -0.1013
 6329SOL    HW119886   1.762   1.931   2.300 -0.0980  0.6591  0.3573
 6329SOL    HW219887   1.873   1.914   2.419  0.6572  0.3906 -0.3773
 6330SOL     OW19888   2.072   6.431   1.224 -0.4007  0.3385 -0.1569
 6330SOL    HW119889   2.042   6.395   1.136 -1.3251  0.1892  0.2113
 6330SOL    HW219890   2.104   6.356   1.282  1.2901  0.5588 -0.7579
 6331SOL     OW19891   3.552   0.276   0.357 -0.6544  0.4808 -0.1639
 6331SOL    HW119892   3.485   0.202   0.354 -1.1242  0.8251  1.1971
 6331SOL    HW219893   3.539   0.330   0.440  0.3208  1.4983 -0.6432
 6332SOL     OW19894   3.676   1.777   4.379 -0.1311  0.5610  0.3028
 6332SOL    HW119895   3.685   1.839   4.301  0.1799 -0.0220 -0.1216
 6332SOL    HW219896   3.591   1.799   4.429  1.6793  3.7614  2.3088
 6333SOL     OW19897   6.985   5.542   2.370 -0.0428 -0.5333  0.2338
 6333SOL    HW119898   6.910   5.482   2.395  0.1484 -1.1811 -0.7172
 6333SOL    HW219899   7.070   5.508   2.410  0.2427 -1.5030 -1.1398
 6334SOL     OW19900   5.801   4.686   1.438 -0.1759  0.1687  0.6718
 6334SOL    HW119901   5.828   4.704   1.343 -0.8546 -0.4979  0.3405
 6334SOL    HW219902   5.781   4.772   1.484 -1.8785  0.3921 -0.4138
 6335SOL     OW19903   2.103   6.480   4.022  0.4934 -0.1533  0.6025
 6335SOL    HW119904   2.140   6.402   4.072  0.8819 -0.1640  0.3007
 6335SOL    HW219905   2.098   6.459   3.925 -1.8406 -0.7614  0.7914
 6336SOL     OW19906   5.858   5.198   5.404 -0.3435 -0.3698 -0.1598
 6336SOL    HW119907   5.867   5.202   5.503  1.0933 -0.5560 -0.2536
 6336SOL    HW219908   5.904   5.116   5.370  0.5719  0.4977 -1.0925
 6337SOL     OW19909   2.659   0.166   2.500 -0.0659  0.0413 -0.0741
 6337SOL    HW119910   2.621   0.149   2.409 -1.3228 -1.8493  0.7268
 6337SOL    HW219911   2.647   0.262   2.525  0.0301  0.5120 -1.7718
 6338SOL     OW19912   6.178   5.596   5.564 -0.5884 -0.0684  0.0828
 6338SOL    HW119913   6.095   5.544   5.587 -1.2639  0.7646 -0.4480
 6338SOL    HW219914   6.183   5.678   5.621 -0.9060  0.6477 -0.8976
 6339SOL     OW19915   1.180   6.135   3.778  0.4789 -0.0448  0.0367
 6339SOL    HW119916   1.238   6.056   3.798  1.7696  0.7633 -0.4323
 6339SOL    HW219917   1.192   6.204   3.849 -1.1214 -0.4830  0.7883
 6340SOL     OW19918   2.672   5.896   6.811  0.4521 -0.5871 -0.1478
 6340SOL    HW119919   2.664   5.986   6.769 -1.6438 -0.9253 -0.5613
 6340SOL    HW219920   2.697   5.906   6.907  1.7753  0.3415 -0.5642
 6341SOL     OW19921   4.689   3.973   0.332  0.1329 -0.2873  0.0505
 6341SOL    HW119922   4.698   3.992   0.429 -0.7536 -1.0825  0.3031
 6341SOL    HW219923   4.618   3.903   0.318 -0.9493  1.0117 -1.2869
 6342SOL     OW19924   6.058   5.204   0.045  0.2266  0.1925  0.5006
 6342SOL    HW119925   6.026   5.276   0.107 -0.4323 -0.2700  0.7094
 6342SOL    HW219926   6.057   5.116   0.094  0.7837  0.0026  0.1734
 6343SOL     OW19927   5.074   5.325   2.957 -0.3767  0.0818  0.0065
 6343SOL    HW119928   4.985   5.308   2.917 -0.9986  2.2714  0.3089
 6343SOL    HW219929   5.140   5.345   2.885 -0.4644 -0.1912 -0.1483
 6344SOL     OW19930   6.157   3.347   0.045 -0.4465 -0.4625  0.7220
 6344SOL    HW119931   6.165   3.447   0.041 -0.9824 -0.4454 -0.2149
 6344SOL    HW219932   6.192   3.314   0.133  0.5645  0.4585  0.6770
 6345SOL     OW19933   5.618   5.434   2.800  0.3768  1.0927  0.7214
 6345SOL    HW119934   5.696   5.494   2.779  0.6967  0.6874  0.7488
 6345SOL    HW219935   5.534   5.476   2.765  0.9885 -0.0009 -2.3718
 6346SOL     OW19936   5.599   5.335   0.427  0.0894 -0.1255  0.8766
 6346SOL    HW119937   5.509   5.374   0.407 -0.3019 -1.8495 -1.0827
 6346SOL    HW219938   5.663   5.409   0.451 -1.5144  1.2624  1.0700
 6347SOL     OW19939   5.759   0.188   6.207  0.2375 -0.8074 -0.3545
 6347SOL    HW119940   5.808   0.243   6.140 -0.9192 -0.9169 -1.3241
 6347SOL    HW219941   5.704   0.248   6.266 -1.6082 -0.8895 -1.8859
 6348SOL     OW19942   4.561   3.665   6.485  0.4539  0.1711  0.3188
 6348SOL    HW119943   4.640   3.673   6.547  0.7217 -2.2209  0.3693
 6348SOL    HW219944   4.592   3.632   6.396 -0.2639  1.2607 -0.3681
 6349SOL     OW19945   1.557   0.771   0.838  0.0830  0.4457  0.6194
 6349SOL    HW119946   1.606   0.683   0.843 -1.5389 -0.4816  0.8980
 6349SOL    HW219947   1.469   0.762   0.884 -0.6968  1.8319 -0.5424
 6350SOL     OW19948   4.487   6.533   5.889  0.6293 -0.9448  0.2362
 6350SOL    HW119949   4.465   6.630   5.899 -0.6874 -1.2476  0.5536
 6350SOL    HW219950   4.502   6.512   5.792 -2.8343 -1.0890 -0.4114
 6351SOL     OW19951   5.795   4.459   1.151  0.2198  0.2639 -0.4608
 6351SOL    HW119952   5.741   4.505   1.221  0.1699  0.3030 -0.5249
 6351SOL    HW219953   5.789   4.360   1.163  0.7733  0.2779  0.0164
 6352SOL     OW19954   1.854   1.395   3.481  0.4152  0.4224 -0.0615
 6352SOL    HW119955   1.873   1.396   3.382  0.0113 -0.0210 -0.1496
 6352SOL    HW219956   1.926   1.445   3.529 -0.7550  3.0245 -0.8156
 6353SOL     OW19957   0.101   4.082   0.196 -0.0248 -0.1520  0.0423
 6353SOL    HW119958   0.096   4.156   0.262 -1.9900  0.7059 -0.9956
 6353SOL    HW219959   0.044   4.006   0.225  1.2154 -0.8824  0.6201
 6354SOL     OW19960   2.926   2.855   5.530  0.7970  0.1381  0.3392
 6354SOL    HW119961   3.017   2.825   5.500  0.4647 -2.4465  1.6530
 6354SOL    HW219962   2.858   2.822   5.465  0.5658 -0.5491  0.9201
 6355SOL     OW19963   0.507   1.499   0.956  0.4863 -0.1288  0.0851
 6355SOL    HW119964   0.568   1.560   0.905  1.9989 -1.5011  0.1603
 6355SOL    HW219965   0.427   1.477   0.900  0.7846  0.5451 -0.6234
 6356SOL     OW19966   2.368   4.696   5.189  0.0591 -0.0201 -0.3013
 6356SOL    HW119967   2.408   4.604   5.196 -0.2977 -0.2085 -0.6166
 6356SOL    HW219968   2.345   4.730   5.280  0.7453  0.0093 -0.1346
 6357SOL     OW19969   6.788   3.686   1.916  0.3766 -0.3537  0.0474
 6357SOL    HW119970   6.852   3.625   1.961  1.1371 -0.3699 -1.0176
 6357SOL    HW219971   6.695   3.651   1.927  0.7071 -1.1827  0.2555
 6358SOL     OW19972   4.957   4.730   5.292 -1.0177  0.1975 -0.4809
 6358SOL    HW119973   4.980   4.739   5.389  1.9351  0.2904 -1.1088
 6358SOL    HW219974   4.931   4.819   5.255  1.7306  1.0525 -0.5867
 6359SOL     OW19975   2.450   5.916   2.228 -0.2255 -0.3141  0.0877
 6359SOL    HW119976   2.504   5.984   2.178 -1.1764  0.3968  0.0031
 6359SOL    HW219977   2.450   5.939   2.325  1.7501 -1.7818  0.4987
 6360SOL     OW19978   5.489   4.645   5.675 -0.5376  0.3311  0.6101
 6360SOL    HW119979   5.417   4.617   5.739 -1.0448 -0.4936 -0.2849
 6360SOL    HW219980   5.447   4.692   5.596 -0.1383 -0.4353 -0.0711
 6361SOL     OW19981   5.983   0.434   5.758  0.4385 -0.3974 -0.6844
 6361SOL    HW119982   6.061   0.378   5.731  0.0007  0.0406 -3.0654
 6361SOL    HW219983   6.015   0.523   5.789  1.1147 -1.7030  2.7830
 6362SOL     OW19984   3.434   0.225   5.550  0.0491 -0.6182 -0.2173
 6362SOL    HW119985   3.436   0.132   5.514 -0.1006  0.0605 -2.1291
 6362SOL    HW219986   3.505   0.279   5.506 -0.9829  0.6008 -0.4500
 6363SOL     OW19987   3.344   2.967   2.597 -0.4944  0.0197  0.0997
 6363SOL    HW119988   3.253   2.979   2.558  0.1172  1.6182 -0.9422
 6363SOL    HW219989   3.394   3.053   2.592  1.0662 -0.8053  0.7285
 6364SOL     OW19990   5.131   2.425   3.596  0.1576 -0.2866 -0.6255
 6364SOL    HW119991   5.213   2.473   3.628 -0.6227  2.1907 -2.0444
 6364SOL    HW219992   5.157   2.356   3.528  1.1253  0.0308 -0.5943
 6365SOL     OW19993   0.960   0.987   4.735 -0.4123 -0.5213 -0.3225
 6365SOL    HW119994   1.046   0.941   4.758 -0.3032 -1.3126 -2.1123
 6365SOL    HW219995   0.956   1.075   4.781  0.3942 -1.3559  1.4350
 6366SOL     OW19996   6.340   4.618   4.896  0.6489  0.0295 -0.0551
 6366SOL    HW119997   6.356   4.606   4.994  0.4640  2.3408  0.2978
 6366SOL    HW219998   6.278   4.546   4.864  0.1097 -0.3359  1.6891
 6367SOL     OW19999   2.099   3.369   3.637 -0.0005  0.3024 -0.4062
 6367SOL    HW120000   2.155   3.448   3.611  2.6779 -0.9381  1.1484
 6367SOL    HW220001   2.068   3.380   3.731  1.7584 -1.0873  0.4042
 6368SOL     OW20002   5.294   4.623   6.190  0.0135  0.1472 -0.1795
 6368SOL    HW120003   5.389   4.597   6.204  0.4566  0.4000 -2.4239
 6368SOL    HW220004   5.287   4.721   6.175 -0.8460  0.4000  1.5405
 6369SOL     OW20005   2.586   2.414   1.674 -0.0997  0.3090  0.4384
 6369SOL    HW120006   2.502   2.361   1.668 -0.1152  0.4881 -2.3504
 6369SOL    HW220007   2.564   2.510   1.692 -0.7988  0.7834 -2.3902
 6370SOL     OW20008   6.562   2.107   3.177 -0.1678  0.0330  0.5713
 6370SOL    HW120009   6.561   2.132   3.080 -1.5285  0.6380  0.7122
 6370SOL    HW220010   6.623   2.168   3.226  1.9663 -1.4218 -0.1501
 6371SOL     OW20011   6.675   6.006   0.375 -0.6170  0.0231  0.1154
 6371SOL    HW120012   6.660   5.924   0.321 -0.6989  0.0080  0.1598
 6371SOL    HW220013   6.733   5.984   0.454  1.3715  0.5113 -1.1621
 6372SOL     OW20014   0.585   3.733   4.340  0.0179  0.0507  0.4125
 6372SOL    HW120015   0.489   3.753   4.318  0.0871 -0.4402 -0.3991
 6372SOL    HW220016   0.633   3.709   4.256  0.8170  0.1189  0.8432
 6373SOL     OW20017   2.156   2.358   0.845 -0.2079  0.4490 -0.4229
 6373SOL    HW120018   2.124   2.434   0.902 -0.3058 -0.0056  0.1386
 6373SOL    HW220019   2.168   2.390   0.751 -1.0195  0.9587 -0.3622
 6374SOL     OW20020   1.999   4.226   5.775 -0.6456 -0.0589  0.2443
 6374SOL    HW120021   1.931   4.206   5.704 -0.8920  1.6114 -0.0235
 6374SOL    HW220022   2.090   4.203   5.741 -0.9803 -1.6576  0.3501
 6375SOL     OW20023   1.120   1.992   6.940 -0.5286  0.1031  0.7716
 6375SOL    HW120024   1.125   2.073   6.998  1.2885  0.8379 -0.3129
 6375SOL    HW220025   1.034   1.992   6.889 -0.6681  1.1968  0.9936
 6376SOL     OW20026   3.910   6.758   4.853  0.1643  0.3411 -0.1576
 6376SOL    HW120027   3.984   6.762   4.786  0.8647 -0.0591  0.5678
 6376SOL    HW220028   3.833   6.815   4.823  1.5228  2.3342 -0.0141
 6377SOL     OW20029   4.697   4.290   2.617  0.1001 -0.0248 -0.1243
 6377SOL    HW120030   4.736   4.242   2.538 -0.3531  0.1416 -0.4559
 6377SOL    HW220031   4.733   4.251   2.701 -0.8335 -1.4617 -0.3595
 6378SOL     OW20032   4.846   3.258   5.617 -0.5881  0.2675 -0.0433
 6378SOL    HW120033   4.774   3.230   5.553  1.8474 -1.9547 -2.0561
 6378SOL    HW220034   4.849   3.194   5.693  0.2971 -0.6852 -0.8539
 6379SOL     OW20035   4.065   0.948   0.395  0.3842  0.2529 -0.4921
 6379SOL    HW120036   4.071   1.027   0.455 -1.6585 -0.3833  0.6607
 6379SOL    HW220037   3.983   0.955   0.338 -0.3718 -1.4042  0.3020
 6380SOL     OW20038   4.734   6.460   3.121 -0.1079  0.2761 -0.2706
 6380SOL    HW120039   4.747   6.558   3.111  1.6176  0.0656 -0.3534
 6380SOL    HW220040   4.785   6.427   3.201  1.0929 -0.8645 -1.4686
 6381SOL     OW20041   0.120   3.437   2.479 -0.5355  0.4519 -0.1804
 6381SOL    HW120042   0.147   3.533   2.482  0.0890  0.3006 -0.6364
 6381SOL    HW220043   0.121   3.398   2.571 -1.6998  1.1155  0.1333
 6382SOL     OW20044   3.076   3.999   4.736 -0.4535  0.1901  0.3513
 6382SOL    HW120045   3.103   4.068   4.803 -0.7184 -0.5082  1.1961
 6382SOL    HW220046   3.006   3.939   4.776 -2.1040  0.9787 -1.2281
 6383SOL     OW20047   4.859   6.979   1.731 -0.0200  0.1664 -0.2704
 6383SOL    HW120048   4.831   7.060   1.782 -0.0765 -0.4911  0.7860
 6383SOL    HW220049   4.952   6.992   1.696  0.3632  0.3199  0.7503
 6384SOL     OW20050   1.494   1.003   2.356  0.2823  0.3361  0.2972
 6384SOL    HW120051   1.549   1.086   2.350  0.4939  0.2081  0.4603
 6384SOL    HW220052   1.450   0.998   2.446  0.2775  0.2679  0.2912
 6385SOL     OW20053   5.910   5.819   6.480  0.4635  0.1490 -0.4923
 6385SOL    HW120054   5.979   5.845   6.547 -0.0201 -2.1204  0.9857
 6385SOL    HW220055   5.931   5.728   6.443  0.1181  0.8851 -2.6615
 6386SOL     OW20056   3.455   3.740   0.115 -0.5408  0.3079  0.2028
 6386SOL    HW120057   3.537   3.693   0.148 -0.7406 -0.3737 -0.2434
 6386SOL    HW220058   3.374   3.703   0.160 -0.8493 -0.8748 -1.2527
 6387SOL     OW20059   1.030   6.023   4.133 -0.1902 -0.0651 -0.2463
 6387SOL    HW120060   1.115   6.012   4.081 -0.1133 -2.0048  0.1961
 6387SOL    HW220061   1.045   6.086   4.209  1.1477 -1.0927  0.3820
 6388SOL     OW20062   0.951   3.109   2.502  0.4499  0.1537  0.0488
 6388SOL    HW120063   1.016   3.048   2.548 -0.1764  2.0313  3.8422
 6388SOL    HW220064   0.889   3.055   2.445  1.6575 -2.3866  0.9632
 6389SOL     OW20065   0.561   0.070   2.099 -0.0386 -0.0805 -0.2386
 6389SOL    HW120066   0.549  -0.029   2.099  0.2374 -0.1202  0.3578
 6389SOL    HW220067   0.569   0.103   2.005 -2.0875 -0.3774 -0.5617
 6390SOL     OW20068   3.597   4.622   1.417  0.3978 -0.9550 -0.0661
 6390SOL    HW120069   3.618   4.524   1.424  3.7269 -0.3558 -0.2884
 6390SOL    HW220070   3.613   4.666   1.506  2.7385 -0.0416 -0.8779
 6391SOL     OW20071   3.769   5.117   5.092 -0.0852  0.0478  0.5473
 6391SOL    HW120072   3.806   5.097   5.183  0.8764  1.2526  0.4437
 6391SOL    HW220073   3.813   5.199   5.056 -1.6329  0.5124 -0.3383
 6392SOL     OW20074   3.297   5.908   1.730  0.3349  0.0383 -0.3219
 6392SOL    HW120075   3.378   5.890   1.674  0.5317 -1.7056  0.4631
 6392SOL    HW220076   3.321   5.904   1.827 -0.8901 -1.7535 -0.0496
 6393SOL     OW20077   4.330   4.429   6.448 -0.4160  0.1085 -0.3217
 6393SOL    HW120078   4.261   4.364   6.417  0.2770 -1.8303  1.9360
 6393SOL    HW220079   4.343   4.419   6.547  0.6764  2.8119 -0.1142
 6394SOL     OW20080   6.619   4.079   3.571  0.2871 -0.3089  0.0059
 6394SOL    HW120081   6.571   4.085   3.658  0.9281  0.3263  0.3201
 6394SOL    HW220082   6.552   4.071   3.497 -0.2592 -1.3409  0.5729
 6395SOL     OW20083   5.063   2.295   4.853  0.1187 -0.2650  0.2320
 6395SOL    HW120084   4.980   2.344   4.825  0.9517  2.0320  1.4714
 6395SOL    HW220085   5.067   2.207   4.806 -1.5800  0.7623 -2.0600
 6396SOL     OW20086   0.452   1.366   2.422  0.6792  0.4298 -0.0325
 6396SOL    HW120087   0.436   1.285   2.365 -0.0955  0.5556 -0.0003
 6396SOL    HW220088   0.494   1.438   2.366  1.0502  0.1322 -0.1431
 6397SOL     OW20089   1.856   0.757   0.918  0.1614  0.5403  0.2008
 6397SOL    HW120090   1.896   0.739   0.828  0.0564  1.4786 -0.0435
 6397SOL    HW220091   1.853   0.855   0.934  2.3095  0.3575  2.1915
 6398SOL     OW20092   3.336   1.078   3.279  0.3020  0.3931  0.1266
 6398SOL    HW120093   3.411   1.024   3.242  0.3846  0.1811  0.6027
 6398SOL    HW220094   3.298   1.032   3.359  2.1069  2.3031  2.2186
 6399SOL     OW20095   1.812   4.490   0.359  0.2699  0.2363  0.2121
 6399SOL    HW120096   1.742   4.498   0.430  0.4210 -0.1027  0.4012
 6399SOL    HW220097   1.878   4.565   0.369  1.6125 -1.0713  1.9002
 6400SOL     OW20098   2.839   1.169   0.506 -0.0501 -0.0150 -0.0854
 6400SOL    HW120099   2.883   1.125   0.584  4.2531  0.0825 -2.1565
 6400SOL    HW220100   2.810   1.261   0.531  1.2421  0.0126  1.3985
 6401SOL     OW20101   4.019   4.262   0.919 -0.4610 -0.1084 -0.5737
 6401SOL    HW120102   3.947   4.205   0.959 -0.4652 -0.0173 -0.4502
 6401SOL    HW220103   3.993   4.359   0.925  0.1994  0.0136  0.5492
 6402SOL     OW20104   1.751   1.616   5.811 -0.3514  0.2544 -0.1517
 6402SOL    HW120105   1.766   1.713   5.831 -0.1284 -0.1781  2.1171
 6402SOL    HW220106   1.813   1.561   5.868 -1.5004 -1.2422 -0.2899
 6403SOL     OW20107   4.754   4.288   4.215  0.0888 -0.3548 -0.0963
 6403SOL    HW120108   4.813   4.213   4.245  0.9470 -0.2420 -1.4515
 6403SOL    HW220109   4.725   4.271   4.121  1.5931  1.7733 -1.0066
 6404SOL     OW20110   1.408   3.062   0.757 -0.2718  0.2306 -0.4036
 6404SOL    HW120111   1.327   3.113   0.787 -0.2859  0.0824 -0.1872
 6404SOL    HW220112   1.488   3.123   0.759  0.0310 -0.1619  1.4555
 6405SOL     OW20113   2.438   6.620   4.659 -0.3050 -0.5945  0.5470
 6405SOL    HW120114   2.465   6.572   4.576 -0.0443  1.1417 -0.4202
 6405SOL    HW220115   2.341   6.602   4.678 -0.4636 -0.7092 -0.3434
 6406SOL     OW20116   2.553   1.709   3.995  0.2032  0.3341 -0.3995
 6406SOL    HW120117   2.556   1.765   3.912  0.3722  1.0607  0.0859
 6406SOL    HW220118   2.480   1.743   4.055  1.4652  1.1884  0.6920
 6407SOL     OW20119   2.919   4.681   5.716  0.0623  0.1856 -0.0806
 6407SOL    HW120120   2.897   4.585   5.731  0.4333  0.2996  1.3335
 6407SOL    HW220121   2.947   4.694   5.620 -0.6797 -0.9632 -0.4776
 6408SOL     OW20122   4.567   1.913   0.712 -0.1428 -0.3796  0.6869
 6408SOL    HW120123   4.470   1.919   0.687 -0.5673  2.3705  2.5221
 6408SOL    HW220124   4.616   1.992   0.677  1.0994 -0.9302  1.1155
 6409SOL     OW20125   2.623   0.803   5.504  0.1343  0.1308 -0.4721
 6409SOL    HW120126   2.552   0.734   5.489  1.8684 -1.7092 -0.5437
 6409SOL    HW220127   2.692   0.796   5.432  1.8888 -0.0780  1.1781
 6410SOL     OW20128   2.748   0.723   4.048 -0.0305  0.0425  0.2785
 6410SOL    HW120129   2.825   0.664   4.023  0.0538  0.5131 -0.6360
 6410SOL    HW220130   2.776   0.788   4.118  0.5960  0.6163 -0.4873
 6411SOL     OW20131   6.545   2.867   3.451 -0.4219  0.2220 -0.9694
 6411SOL    HW120132   6.531   2.918   3.535 -2.4735  0.9143 -1.6813
 6411SOL    HW220133   6.589   2.925   3.382 -0.7103  0.3217 -1.0679
 6412SOL     OW20134   5.138   1.176   6.310  0.1124  0.8861  0.6886
 6412SOL    HW120135   5.136   1.230   6.226  0.6617  1.0386  0.7729
 6412SOL    HW220136   5.223   1.123   6.314 -0.3116  0.1883  0.7184
 6413SOL     OW20137   3.300   0.575   2.371 -0.0123 -0.4451 -0.3759
 6413SOL    HW120138   3.349   0.510   2.430  0.9305 -1.2913 -2.0150
 6413SOL    HW220139   3.349   0.662   2.369  0.1100 -0.5069 -0.1168
 6414SOL     OW20140   6.311   6.596   2.593  0.2360 -0.1198 -0.1218
 6414SOL    HW120141   6.311   6.587   2.493 -0.3189  0.1772 -0.1546
 6414SOL    HW220142   6.399   6.633   2.623  0.5095 -0.4765 -0.4722
 6415SOL     OW20143   0.374   1.912   3.291  0.5866 -0.0071 -1.0495
 6415SOL    HW120144   0.394   1.828   3.341  1.5072 -0.1115 -1.5688
 6415SOL    HW220145   0.323   1.974   3.350  3.5237  0.7784  0.9175
 6416SOL     OW20146   2.946   4.999   6.894 -0.1755 -0.3472 -0.4318
 6416SOL    HW120147   2.956   5.079   6.953 -0.0624 -1.8110  1.6215
 6416SOL    HW220148   2.975   4.917   6.943  1.2862 -1.5041 -3.0137
 6417SOL     OW20149   3.624   1.366   5.256 -0.1951  0.8094  0.4877
 6417SOL    HW120150   3.540   1.354   5.309 -2.5345 -2.1790 -3.3626
 6417SOL    HW220151   3.607   1.432   5.182  0.8640  0.1984 -0.3125
 6418SOL     OW20152   1.578   0.263   4.906  0.3169 -0.0771 -0.1518
 6418SOL    HW120153   1.529   0.192   4.854  0.3788  0.5645 -1.1151
 6418SOL    HW220154   1.569   0.350   4.859  0.8050  0.4325  0.6750
 6419SOL     OW20155   0.821   4.695   2.693  0.5426  0.4294 -0.9832
 6419SOL    HW120156   0.888   4.747   2.641  0.5326  1.1504 -0.2745
 6419SOL    HW220157   0.867   4.638   2.760  0.4525  0.9491 -0.4737
 6420SOL     OW20158   6.949   5.450   0.639 -0.0695  0.2907  0.2529
 6420SOL    HW120159   7.031   5.497   0.671 -0.0951 -0.2085  1.0831
 6420SOL    HW220160   6.898   5.510   0.578 -0.2482  1.4531  1.5038
 6421SOL     OW20161   3.563   5.613   6.340 -0.8863  0.8616 -0.3510
 6421SOL    HW120162   3.639   5.549   6.349 -0.6646  0.6157 -3.1755
 6421SOL    HW220163   3.591   5.704   6.371  0.2193  0.5610 -0.4621
 6422SOL     OW20164   4.801   2.359   2.129  0.4827  0.1162  0.2641
 6422SOL    HW120165   4.783   2.423   2.054  0.5413  0.7924  0.8157
 6422SOL    HW220166   4.858   2.284   2.095  1.1753  0.8247 -0.1963
 6423SOL     OW20167   3.166   1.274   4.555  0.3656 -0.4030 -0.2928
 6423SOL    HW120168   3.075   1.240   4.579 -0.0036 -0.1004 -1.2409
 6423SOL    HW220169   3.235   1.218   4.600 -0.2772 -1.0433 -0.0875
 6424SOL     OW20170   5.163   5.394   3.659 -0.0371  0.2888 -0.2510
 6424SOL    HW120171   5.226   5.316   3.670  0.2681  0.7092  1.2806
 6424SOL    HW220172   5.175   5.434   3.569  0.7209 -0.6536 -0.5885
 6425SOL     OW20173   2.840   1.353   2.519 -0.2716 -0.2187 -0.3493
 6425SOL    HW120174   2.871   1.338   2.425  0.7496  1.0105 -0.2517
 6425SOL    HW220175   2.785   1.437   2.523  0.9066  0.5599  0.3484
 6426SOL     OW20176   3.289   4.608   5.320 -0.1183  0.4218 -0.0544
 6426SOL    HW120177   3.273   4.664   5.402 -1.0447  0.6394 -0.3734
 6426SOL    HW220178   3.221   4.534   5.317  1.1595 -0.8288  0.4276
 6427SOL     OW20179   4.856   3.027   6.171  0.3786 -0.3516  0.1952
 6427SOL    HW120180   4.865   3.057   6.266 -1.1347 -1.2451  0.6534
 6427SOL    HW220181   4.816   3.101   6.116  0.2850 -0.1905  0.4786
 6428SOL     OW20182   1.454   1.547   1.433  0.0068  0.1910  0.2315
 6428SOL    HW120183   1.505   1.534   1.518 -0.2473 -2.4955  0.0495
 6428SOL    HW220184   1.360   1.574   1.455  0.5545  1.8367  0.6805
 6429SOL     OW20185   4.849   0.579   0.055  0.1568 -0.4280  0.3256
 6429SOL    HW120186   4.789   0.502   0.077 -0.1044 -0.3295 -0.0295
 6429SOL    HW220187   4.918   0.590   0.127 -0.7860 -0.0024  1.1861
 6430SOL     OW20188   0.953   0.371   5.451  0.1232  0.3520 -0.0958
 6430SOL    HW120189   0.993   0.283   5.426  0.6492  0.2635  1.0012
 6430SOL    HW220190   0.900   0.361   5.535 -0.3328  0.9537 -0.3029
 6431SOL     OW20191   6.077   4.984   0.935  0.4123 -0.0883  0.1678
 6431SOL    HW120192   6.133   4.915   0.981  1.9669  1.9009  1.4781
 6431SOL    HW220193   6.068   4.961   0.839  3.5134 -0.6184 -0.1167
 6432SOL     OW20194   4.106   2.259   3.607 -0.6381 -0.0164 -0.2440
 6432SOL    HW120195   4.028   2.220   3.557 -1.3068 -0.4519  1.0910
 6432SOL    HW220196   4.104   2.226   3.702  0.4457  0.9930  0.1432
 6433SOL     OW20197   1.027   3.810   4.240 -0.7573  0.0496 -0.4194
 6433SOL    HW120198   1.005   3.733   4.180  2.5568 -0.7649 -0.7692
 6433SOL    HW220199   1.057   3.887   4.185 -0.0766  0.1551  0.0901
 6434SOL     OW20200   6.517   3.601   1.915  0.0943  0.4364 -0.8055
 6434SOL    HW120201   6.437   3.641   1.870  0.3035  0.0057 -1.5679
 6434SOL    HW220202   6.536   3.511   1.876  0.6605  0.3252 -0.2847
 6435SOL     OW20203   1.563   1.725   4.142 -0.2822  0.4182 -0.2874
 6435SOL    HW120204   1.636   1.793   4.155 -0.4153  0.7601 -1.2195
 6435SOL    HW220205   1.596   1.635   4.172  0.0829  0.7918  0.4662
 6436SOL     OW20206   5.652   0.557   4.365  0.6158 -0.0465 -0.4434
 6436SOL    HW120207   5.600   0.639   4.340 -0.4203 -0.8544 -1.0114
 6436SOL    HW220208   5.745   0.584   4.392 -0.4935  1.6104  2.1312
 6437SOL     OW20209   2.083   4.357   4.386 -0.5985  0.4493  0.5102
 6437SOL    HW120210   2.149   4.282   4.385 -0.0752  0.8980 -1.0291
 6437SOL    HW220211   2.038   4.360   4.476 -0.5746 -1.6246  0.6572
 6438SOL     OW20212   2.891   5.211   0.389 -0.4089  0.1610 -0.0284
 6438SOL    HW120213   2.807   5.157   0.392 -1.2897  1.5507  1.6562
 6438SOL    HW220214   2.969   5.153   0.414 -1.5027 -0.1035  3.1658
 6439SOL     OW20215   5.175   0.478   4.497 -0.2078  0.0019  0.0854
 6439SOL    HW120216   5.220   0.406   4.550  0.5169  0.8583  0.6644
 6439SOL    HW220217   5.204   0.472   4.401  0.3497 -0.0898  0.2531
 6440SOL     OW20218   6.449   3.265   4.134 -0.1788 -0.2505 -0.2535
 6440SOL    HW120219   6.388   3.188   4.116 -0.7958 -0.2358  1.5752
 6440SOL    HW220220   6.404   3.330   4.195  0.7916  0.9760 -0.7928
 6441SOL     OW20221   4.956   2.006   3.206 -0.0032 -0.1238  0.0299
 6441SOL    HW120222   4.929   2.083   3.147  0.7889  0.8175  0.8653
 6441SOL    HW220223   4.903   1.925   3.180 -1.4000  0.8744 -0.3903
 6442SOL     OW20224   5.006   4.738   1.336 -0.0528  0.1799  0.2412
 6442SOL    HW120225   4.974   4.830   1.357 -1.0428 -0.5210  2.0066
 6442SOL    HW220226   4.928   4.675   1.333  0.4739 -0.4623 -1.9902
 6443SOL     OW20227   3.833   6.619   5.518 -0.3796  0.0294 -0.1638
 6443SOL    HW120228   3.773   6.679   5.464  1.9046  1.5133 -1.2005
 6443SOL    HW220229   3.777   6.554   5.569 -2.8809  1.5787 -0.7378
 6444SOL     OW20230   5.270   3.367   2.008  0.0019  0.3898  0.1971
 6444SOL    HW120231   5.179   3.346   2.043 -0.9591  2.3956 -0.9219
 6444SOL    HW220232   5.300   3.293   1.947 -1.4414  0.2467 -0.3949
 6445SOL     OW20233   5.224   3.215   0.336  0.2672 -0.7866 -0.6860
 6445SOL    HW120234   5.249   3.186   0.428 -0.5296  0.4982 -0.0357
 6445SOL    HW220235   5.227   3.137   0.274  0.3276 -1.7709  0.5324
 6446SOL     OW20236   5.620   1.036   6.740 -0.4562  0.0648  0.2125
 6446SOL    HW120237   5.692   1.032   6.809 -0.7137 -0.4307  0.4519
 6446SOL    HW220238   5.660   1.060   6.652  0.1565 -1.1286  0.1438
 6447SOL     OW20239   6.304   2.139   6.018 -0.1459  0.1113 -0.1320
 6447SOL    HW120240   6.321   2.222   6.072 -0.6746  0.2136 -0.1208
 6447SOL    HW220241   6.270   2.067   6.078 -1.1885  0.3679 -0.3930
 6448SOL     OW20242   5.272   4.678   1.356 -0.3967  0.6451  0.4867
 6448SOL    HW120243   5.175   4.699   1.340 -1.5721 -2.8306  1.8927
 6448SOL    HW220244   5.281   4.630   1.444  2.2873 -0.8575 -0.4923
 6449SOL     OW20245   0.407   4.652   5.157  0.1314  0.3733 -0.7690
 6449SOL    HW120246   0.320   4.660   5.109  0.4568  1.7205 -1.1984
 6449SOL    HW220247   0.452   4.567   5.132 -0.2774  0.4759 -1.8960
 6450SOL     OW20248   3.825   3.379   5.848  0.3572  0.1836 -0.0454
 6450SOL    HW120249   3.912   3.422   5.826 -0.3722  2.4359  1.1384
 6450SOL    HW220250   3.769   3.442   5.903 -1.9161 -1.2858 -0.5139
 6451SOL     OW20251   6.143   2.826   2.087  0.3420 -0.0749  0.1108
 6451SOL    HW120252   6.243   2.827   2.099  0.6291  1.2163 -1.9213
 6451SOL    HW220253   6.119   2.760   2.016 -0.5412 -2.0237  2.0928
 6452SOL     OW20254   1.657   5.091   0.917 -0.4647 -0.0473 -1.3285
 6452SOL    HW120255   1.751   5.123   0.930 -0.4971 -0.5267  0.3199
 6452SOL    HW220256   1.612   5.146   0.846  1.3703 -0.5101 -2.9259
 6453SOL     OW20257   0.116   2.800   1.963 -0.1660  0.2850  0.5752
 6453SOL    HW120258   0.170   2.865   1.910 -1.1828  0.6189 -0.0886
 6453SOL    HW220259   0.102   2.835   2.055  1.4642 -0.2111  1.0410
 6454SOL     OW20260   2.703   0.080   3.304 -0.2728  0.4824 -0.3345
 6454SOL    HW120261   2.761   0.020   3.248  2.2498 -1.4228  3.8604
 6454SOL    HW220262   2.637   0.025   3.355 -1.3404  1.9459 -0.0589
 6455SOL     OW20263   4.894   3.323   0.973  0.0910  0.4724  0.0037
 6455SOL    HW120264   4.882   3.235   1.018  3.2285  0.3379  0.7753
 6455SOL    HW220265   4.864   3.316   0.878 -2.6491 -0.4409  0.8309
 6456SOL     OW20266   4.473   0.981   2.644 -0.3310  0.0035  0.1260
 6456SOL    HW120267   4.556   0.963   2.696 -0.7651  1.1979  1.3117
 6456SOL    HW220268   4.410   1.036   2.700 -1.6930 -0.4134 -0.9340
 6457SOL     OW20269   3.720   2.439   6.356 -0.0972  0.1078 -0.1365
 6457SOL    HW120270   3.704   2.340   6.348 -1.6316  0.4035 -0.8982
 6457SOL    HW220271   3.785   2.468   6.286  0.3682 -0.3584  0.0961
 6458SOL     OW20272   4.790   6.792   6.104  0.2407 -0.4621 -0.0894
 6458SOL    HW120273   4.694   6.780   6.131 -0.0320 -0.6804 -1.0990
 6458SOL    HW220274   4.801   6.765   6.008  0.9088  1.3721 -0.5867
 6459SOL     OW20275   6.614   6.504   4.804 -0.0259  0.1430  0.4550
 6459SOL    HW120276   6.529   6.555   4.819  0.7926  1.9399 -0.6299
 6459SOL    HW220277   6.634   6.448   4.884 -2.0825 -0.1344  0.8337
 6460SOL     OW20278   2.904   3.267   6.075  0.2674 -0.5603  0.0673
 6460SOL    HW120279   2.848   3.193   6.037  0.5656 -1.1079  0.6790
 6460SOL    HW220280   2.894   3.349   6.018 -1.2426 -0.6082  0.2408
 6461SOL     OW20281   5.040   3.746   1.056  0.0358 -0.2610  0.6917
 6461SOL    HW120282   5.039   3.654   1.094 -1.0499 -0.7563 -0.4467
 6461SOL    HW220283   4.952   3.764   1.010  2.0725 -0.8026 -4.0164
 6462SOL     OW20284   5.894   0.871   5.785 -0.1462 -0.3548 -0.2253
 6462SOL    HW120285   5.962   0.906   5.849  0.0932 -0.7555 -0.2588
 6462SOL    HW220286   5.848   0.792   5.825 -0.7375  0.0318 -0.1202
 6463SOL     OW20287   2.421   2.693   3.685  0.3883  0.0821  0.2428
 6463SOL    HW120288   2.519   2.715   3.695  0.1826  2.7303 -2.1969
 6463SOL    HW220289   2.367   2.764   3.729 -0.4069  0.0686 -0.6911
 6464SOL     OW20290   4.973   6.750   6.311 -0.6209  0.3643  0.5558
 6464SOL    HW120291   4.950   6.845   6.289  0.7377  0.3882 -0.9002
 6464SOL    HW220292   4.900   6.690   6.277  0.9424  0.4819 -3.5297
 6465SOL     OW20293   0.894   4.188   3.247 -0.0846  0.0224 -0.4158
 6465SOL    HW120294   0.840   4.170   3.165 -1.5479 -0.7707  0.6722
 6465SOL    HW220295   0.837   4.177   3.328  0.9576  2.0701  0.6995
 6466SOL     OW20296   2.028   1.026   4.815  0.2763 -0.0809 -0.1418
 6466SOL    HW120297   1.995   0.944   4.767 -0.1217  0.4175 -0.7486
 6466SOL    HW220298   2.083   0.999   4.893  0.1668 -0.9309 -0.3431
 6467SOL     OW20299   3.033   1.530   4.007  0.0429  0.2571  0.2910
 6467SOL    HW120300   3.016   1.579   4.093  0.3008  0.5596  0.1716
 6467SOL    HW220301   2.997   1.437   4.014  0.0050  0.3015  0.7056
 6468SOL     OW20302   0.756   0.648   5.685  0.3169  0.1123 -0.0995
 6468SOL    HW120303   0.852   0.645   5.656  0.6986 -0.7797  1.1453
 6468SOL    HW220304   0.701   0.592   5.623  0.7754 -0.1822 -0.2498
 6469SOL     OW20305   0.619   0.259   5.562  0.2830  0.0981 -0.3325
 6469SOL    HW120306   0.667   0.188   5.510  0.7693 -0.8232  1.2917
 6469SOL    HW220307   0.533   0.222   5.596  0.1169  0.5899 -0.2100
 6470SOL     OW20308   3.299   3.271   4.993  0.1647 -0.1929 -0.3608
 6470SOL    HW120309   3.356   3.230   5.064  0.6471  1.5530  0.3082
 6470SOL    HW220310   3.204   3.243   5.005  0.4432 -0.9031  0.2117
 6471SOL     OW20311   2.367   5.501   4.293 -0.0145 -0.2171  0.4071
 6471SOL    HW120312   2.356   5.401   4.294 -0.3131 -0.1894  0.0475
 6471SOL    HW220313   2.418   5.527   4.211 -0.1060 -0.0565  0.4019
 6472SOL     OW20314   6.763   3.687   2.550 -0.8533 -0.4245  0.4850
 6472SOL    HW120315   6.672   3.684   2.592 -2.1786 -0.7373 -2.1805
 6472SOL    HW220316   6.764   3.627   2.470  2.0744 -1.2279  1.0118
 6473SOL     OW20317   1.825   5.404   1.917  0.3446  0.0580  0.2166
 6473SOL    HW120318   1.756   5.390   1.988 -0.4495  3.0126  0.1924
 6473SOL    HW220319   1.825   5.327   1.854 -1.8289 -0.7758  1.1337
 6474SOL     OW20320   6.097   5.041   6.570 -0.1413 -0.0461  0.3241
 6474SOL    HW120321   6.044   5.081   6.645 -1.4431 -0.8338 -0.1374
 6474SOL    HW220322   6.144   4.958   6.603  0.6838  0.5491  0.6849
 6475SOL     OW20323   6.866   2.773   1.228 -0.1917 -0.1879 -0.3700
 6475SOL    HW120324   6.858   2.688   1.176 -2.7676 -0.0152 -0.3557
 6475SOL    HW220325   6.857   2.754   1.326 -2.0763  0.1895 -0.4384
 6476SOL     OW20326   3.401   1.816   6.554  0.1547  0.7429 -0.0772
 6476SOL    HW120327   3.338   1.781   6.485  1.7269 -0.2302 -1.0877
 6476SOL    HW220328   3.351   1.833   6.639 -1.0802 -2.5378  0.0210
 6477SOL     OW20329   4.501   3.523   0.064 -0.0522 -0.4623 -0.0322
 6477SOL    HW120330   4.530   3.469   0.143  0.3737  2.3028  1.8224
 6477SOL    HW220331   4.402   3.516   0.053 -0.0205 -1.4909  0.2001
 6478SOL     OW20332   2.060   5.411   1.291  0.2833 -0.1738  0.1919
 6478SOL    HW120333   1.969   5.377   1.266  0.1390  0.1951  0.2135
 6478SOL    HW220334   2.102   5.454   1.211 -0.1021  0.8401  0.5284
 6479SOL     OW20335   4.186   0.202   1.857 -0.7991  0.0440 -0.1221
 6479SOL    HW120336   4.259   0.270   1.857  0.2992 -1.0910  0.5000
 6479SOL    HW220337   4.210   0.127   1.795 -1.6682 -0.1074 -0.2873
 6480SOL     OW20338   6.807   5.688   4.551 -0.3455 -1.0830  0.5793
 6480SOL    HW120339   6.893   5.738   4.555 -0.0661 -1.5840  0.8078
 6480SOL    HW220340   6.732   5.751   4.574 -0.2367 -0.2206 -1.2571
 6481SOL     OW20341   5.616   1.336   4.784 -0.6620  0.0312  0.1536
 6481SOL    HW120342   5.709   1.374   4.789 -1.1314  1.1782  0.4405
 6481SOL    HW220343   5.617   1.256   4.724 -0.1546  2.1995 -2.9919
 6482SOL     OW20344   4.637   0.881   3.099  0.4183  0.3420 -0.1735
 6482SOL    HW120345   4.635   0.793   3.147  0.2309  1.2160  1.5007
 6482SOL    HW220346   4.732   0.909   3.084  0.4967  0.4811  0.5335
 6483SOL     OW20347   1.194   1.008   0.321 -0.3955 -0.5898 -0.5157
 6483SOL    HW120348   1.271   0.948   0.340  0.1479 -0.3534 -1.8229
 6483SOL    HW220349   1.184   1.075   0.395  0.2065 -1.0765  0.0108
 6484SOL     OW20350   1.904   4.004   0.230 -0.0931 -0.5089  0.3132
 6484SOL    HW120351   1.892   3.988   0.132  0.0983  1.9869 -0.1835
 6484SOL    HW220352   1.969   3.937   0.267  0.2381 -1.1680 -1.3657
 6485SOL     OW20353   0.061   1.650   0.741  0.0827  0.1306 -0.2218
 6485SOL    HW120354   0.140   1.693   0.698 -0.0719  1.3893  0.6793
 6485SOL    HW220355  -0.021   1.705   0.723 -0.2245 -0.0793  0.4813
 6486SOL     OW20356   5.235   2.976   5.206  0.4544 -0.0097  0.2921
 6486SOL    HW120357   5.136   2.964   5.209  0.5584 -0.7079  0.9342
 6486SOL    HW220358   5.273   2.920   5.132  0.1883  1.7082 -1.2542
 6487SOL     OW20359   4.750   2.499   1.213  0.0472 -0.4949 -0.7235
 6487SOL    HW120360   4.663   2.548   1.210 -0.3904 -1.2256 -0.1871
 6487SOL    HW220361   4.818   2.555   1.261  0.0295  0.2962 -1.5930
 6488SOL     OW20362   1.214   4.815   4.110 -0.1983  0.2217 -0.2721
 6488SOL    HW120363   1.265   4.891   4.151 -2.0238  1.0179  0.6174
 6488SOL    HW220364   1.242   4.729   4.153  0.3866  0.6360  0.2015
 6489SOL     OW20365   1.845   6.489   5.017 -0.1767 -0.1345 -0.2745
 6489SOL    HW120366   1.878   6.447   5.101  2.4751 -0.1362 -1.2288
 6489SOL    HW220367   1.846   6.422   4.943  2.6651  1.0746 -1.4703
 6490SOL     OW20368   3.285   4.136   4.566 -0.3377  0.4745  0.0492
 6490SOL    HW120369   3.270   4.129   4.467 -0.9189 -0.9634  0.2186
 6490SOL    HW220370   3.198   4.125   4.614 -0.1915  1.9790  0.7220
 6491SOL     OW20371   0.952   1.662   5.841 -0.2493 -0.1418  0.5304
 6491SOL    HW120372   0.937   1.583   5.782  0.8681 -0.8496  1.1636
 6491SOL    HW220373   0.997   1.633   5.926  0.0402  1.1518  0.8452
 6492SOL     OW20374   1.104   4.154   0.158  0.1416  0.8293 -0.6550
 6492SOL    HW120375   1.204   4.148   0.159  0.1266 -0.7664  1.6134
 6492SOL    HW220376   1.072   4.171   0.065  2.4834  0.3653 -1.6243
 6493SOL     OW20377   1.290   2.403   6.776  0.3911  0.2025  0.1098
 6493SOL    HW120378   1.298   2.390   6.875 -1.1069 -0.8611  0.1215
 6493SOL    HW220379   1.375   2.442   6.741  0.9464  0.6233  1.8083
 6494SOL     OW20380   3.943   6.616   4.027 -0.5806  0.0128  0.3786
 6494SOL    HW120381   3.929   6.707   4.066  0.4711  0.1484  0.4859
 6494SOL    HW220382   4.034   6.583   4.052 -0.7977 -0.9060  0.0080
 6495SOL     OW20383   4.279   3.761   6.745 -0.3164 -0.5219  0.2253
 6495SOL    HW120384   4.356   3.814   6.711 -0.2499  0.4119  1.7204
 6495SOL    HW220385   4.263   3.783   6.841 -3.0791  0.0547 -0.2810
 6496SOL     OW20386   6.613   2.562   3.858 -0.3301  0.1800  0.3062
 6496SOL    HW120387   6.637   2.468   3.883  0.0192  0.3928  0.7959
 6496SOL    HW220388   6.514   2.573   3.859 -0.5297 -0.8484 -2.2234
 6497SOL     OW20389   3.087   4.755   7.012  0.2714 -0.1938 -0.0262
 6497SOL    HW120390   3.069   4.771   6.915  0.7668  0.3399 -0.0377
 6497SOL    HW220391   3.065   4.660   7.035 -0.0218 -0.2740 -0.6179
 6498SOL     OW20392   6.667   5.862   6.682 -0.0107  0.1224 -0.1460
 6498SOL    HW120393   6.576   5.903   6.677 -0.4495 -0.9183 -0.7698
 6498SOL    HW220394   6.696   5.833   6.591  0.7816  0.0739  0.1127
 6499SOL     OW20395   0.386   5.353   2.976 -0.7866  0.0120  0.5673
 6499SOL    HW120396   0.399   5.366   2.877  0.4578 -2.3791  0.3362
 6499SOL    HW220397   0.322   5.277   2.991  0.0550 -0.5230  1.5575
 6500SOL     OW20398   1.295   5.611   2.633 -0.5502 -0.5644  1.1252
 6500SOL    HW120399   1.360   5.622   2.708  0.5268 -0.2885  0.1845
 6500SOL    HW220400   1.202   5.626   2.667 -0.1092 -0.6642  2.4385
 6501SOL     OW20401   3.492   3.047   1.454 -0.2658 -0.1599  0.2878
 6501SOL    HW120402   3.559   2.981   1.422  0.4689  1.1328 -0.9643
 6501SOL    HW220403   3.487   3.123   1.389 -0.4685  1.4247  2.0803
 6502SOL     OW20404   0.243   0.008   6.281  0.2984  0.3938 -0.1163
 6502SOL    HW120405   0.321  -0.051   6.302  0.2566  0.2445 -0.3834
 6502SOL    HW220406   0.261   0.058   6.196  0.2903  0.6898  0.0534
 6503SOL     OW20407   6.708   6.797   1.125 -0.2228  0.3798  0.3632
 6503SOL    HW120408   6.657   6.848   1.194 -2.4190 -0.6011 -0.4376
 6503SOL    HW220409   6.653   6.719   1.094  1.2098  0.0674 -1.5634
 6504SOL     OW20410   1.513   4.679   2.077  0.4780  0.0586 -0.7148
 6504SOL    HW120411   1.550   4.727   1.998  0.9746 -0.7075 -0.9500
 6504SOL    HW220412   1.415   4.664   2.064  0.6938 -0.7296 -1.5367
 6505SOL     OW20413   5.761   6.321   0.783  1.0582 -0.6513 -0.1965
 6505SOL    HW120414   5.848   6.361   0.812  0.7323  0.7192 -1.0163
 6505SOL    HW220415   5.778   6.231   0.741  1.9961 -0.6795  0.2132
 6506SOL     OW20416   2.905   0.240   3.320  0.8270  0.1672  0.1321
 6506SOL    HW120417   2.934   0.272   3.410  1.5809  0.9799 -0.3792
 6506SOL    HW220418   2.814   0.199   3.327  1.1541 -0.4095  1.3747
 6507SOL     OW20419   2.235   2.491   2.773  0.0583  0.3100  0.2331
 6507SOL    HW120420   2.229   2.392   2.762  0.6914  0.3057 -0.1289
 6507SOL    HW220421   2.148   2.533   2.748 -0.0857 -0.1265 -0.0037
 6508SOL     OW20422   5.972   3.759   6.993  0.3944 -0.2018 -0.5204
 6508SOL    HW120423   6.056   3.706   6.984  1.2723  1.4067 -2.6038
 6508SOL    HW220424   5.895   3.697   7.007  1.8129 -1.7520  0.8436
 6509SOL     OW20425   3.745   0.470   0.353 -0.1077  0.1603  0.1796
 6509SOL    HW120426   3.764   0.478   0.255  0.0616 -2.2926 -0.0490
 6509SOL    HW220427   3.691   0.388   0.370 -0.7275  0.9100  2.1034
 6510SOL     OW20428   2.134   3.887   1.496  0.8811 -0.1809 -0.4756
 6510SOL    HW120429   2.064   3.941   1.543 -0.9222 -2.0879 -0.8482
 6510SOL    HW220430   2.210   3.947   1.471  0.2794  1.6012  1.6137
 6511SOL     OW20431   6.792   4.337   5.910 -0.0930 -0.1773 -0.1926
 6511SOL    HW120432   6.861   4.277   5.952  0.3395 -0.3525 -1.1263
 6511SOL    HW220433   6.728   4.282   5.856 -1.0520 -0.0277  0.7521
 6512SOL     OW20434   4.741   5.787   4.907 -0.6382  0.2067  0.0914
 6512SOL    HW120435   4.839   5.774   4.920 -0.4765  0.2142 -1.0771
 6512SOL    HW220436   4.720   5.795   4.810 -1.9419 -0.9576  0.2332
 6513SOL     OW20437   6.623   2.816   6.664 -0.3802  0.6672 -0.0634
 6513SOL    HW120438   6.662   2.900   6.626  0.3983  0.6155  0.5844
 6513SOL    HW220439   6.595   2.755   6.590  0.6612  0.7618 -0.5503
 6514SOL     OW20440   5.124   3.656   6.669 -0.1017 -0.3260  0.1062
 6514SOL    HW120441   5.216   3.673   6.704  0.0091  0.7942 -0.6534
 6514SOL    HW220442   5.087   3.574   6.710  1.7289 -1.5090 -0.4757
 6515SOL     OW20443   0.586   4.781   6.006  0.0738 -0.2935 -0.0775
 6515SOL    HW120444   0.644   4.862   6.012 -1.0233  0.4285  1.2328
 6515SOL    HW220445   0.502   4.803   5.956 -0.5986 -0.3683  0.9860
 6516SOL     OW20446   6.994   5.587   3.288 -0.0084 -0.0511  0.5065
 6516SOL    HW120447   6.919   5.546   3.238  0.5918 -0.4169 -0.1132
 6516SOL    HW220448   6.964   5.611   3.380 -1.0003  0.2173  0.1239
 6517SOL     OW20449   4.891   5.419   6.732 -0.5276 -0.6921  0.2902
 6517SOL    HW120450   4.901   5.326   6.768 -1.0387 -0.7670  0.2483
 6517SOL    HW220451   4.980   5.455   6.706 -0.4720 -1.7246 -1.0486
 6518SOL     OW20452   1.928   0.001   0.124 -0.0251  0.0639 -0.2781
 6518SOL    HW120453   2.021  -0.025   0.098  0.7302  3.9707 -2.2446
 6518SOL    HW220454   1.931   0.079   0.186 -1.7608  2.4821 -2.9254
 6519SOL     OW20455   3.308   5.706   2.218 -0.2437  0.1481 -0.3902
 6519SOL    HW120456   3.339   5.690   2.124  1.9102  0.2972  0.2267
 6519SOL    HW220457   3.271   5.799   2.225 -0.3044  0.1823 -1.0756
 6520SOL     OW20458   1.238   0.089   3.952 -0.0612 -0.1466  0.1417
 6520SOL    HW120459   1.329   0.060   3.981  0.1140 -0.4187 -0.6579
 6520SOL    HW220460   1.189   0.129   4.030  1.4654  1.8441  0.1306
 6521SOL     OW20461   0.151   4.109   1.928 -0.4465 -0.2913 -0.0611
 6521SOL    HW120462   0.185   4.083   2.018  1.1681 -0.1649 -0.6146
 6521SOL    HW220463   0.222   4.094   1.859 -0.3339  2.9182 -0.8153
 6522SOL     OW20464   4.269   6.599   5.330 -0.2861 -0.0855  0.0310
 6522SOL    HW120465   4.278   6.699   5.328  0.2357 -0.1370 -0.7343
 6522SOL    HW220466   4.303   6.564   5.417  1.6488  0.2278 -0.5602
 6523SOL     OW20467   4.303   3.927   5.811  0.2612  0.0417  0.1704
 6523SOL    HW120468   4.253   3.851   5.767  1.6851 -0.9265  0.1571
 6523SOL    HW220469   4.277   4.013   5.767  1.6679 -0.8749 -2.7240
 6524SOL     OW20470   6.004   4.254   0.788 -0.4007 -0.0142 -0.0988
 6524SOL    HW120471   5.926   4.315   0.775 -1.4957 -1.5527 -1.0499
 6524SOL    HW220472   6.035   4.259   0.883 -2.3075 -0.0919  0.5721
 6525SOL     OW20473   2.485   6.570   0.974  0.4128 -0.1825 -0.2560
 6525SOL    HW120474   2.557   6.550   1.040  0.3656  0.2949 -0.0566
 6525SOL    HW220475   2.408   6.508   0.988  0.1954  0.2457  0.4658
 6526SOL     OW20476   0.959   0.374   4.047 -0.4924  0.3421 -0.5525
 6526SOL    HW120477   0.944   0.393   3.950  1.7896 -0.9763 -1.2274
 6526SOL    HW220478   1.010   0.449   4.088  2.2835 -0.9045 -1.4893
 6527SOL     OW20479   4.341   4.207   0.000 -0.6198  0.2789  0.6928
 6527SOL    HW120480   4.392   4.188  -0.084 -0.4970  0.5062  0.7139
 6527SOL    HW220481   4.354   4.132   0.065 -0.5025  0.2261  0.6082
 6528SOL     OW20482   1.856   6.322   4.798  0.1033  0.9855  0.6172
 6528SOL    HW120483   1.788   6.262   4.755 -2.1418  1.7659  2.8349
 6528SOL    HW220484   1.941   6.272   4.810 -1.5671 -1.7907  2.1030
 6529SOL     OW20485   0.717   2.777   2.627 -0.0681  0.3026  0.6054
 6529SOL    HW120486   0.720   2.843   2.551  4.9822 -1.3696 -1.0385
 6529SOL    HW220487   0.633   2.724   2.620 -2.3482  3.6884 -0.4644
 6530SOL     OW20488   0.104   1.290   6.611 -0.0736 -0.4204 -0.3000
 6530SOL    HW120489   0.184   1.335   6.650  1.2394 -2.7612 -0.1119
 6530SOL    HW220490   0.065   1.227   6.679 -0.9158 -0.7161 -1.0428
 6531SOL     OW20491   0.998   2.949   5.230 -0.0748  0.3949 -0.0550
 6531SOL    HW120492   1.095   2.924   5.236 -0.4387 -0.8315  1.1499
 6531SOL    HW220493   0.968   2.941   5.135  1.1334  1.3646 -0.5468
 6532SOL     OW20494   6.354   2.613   2.831  0.3451  0.0341 -0.0449
 6532SOL    HW120495   6.296   2.540   2.867  0.2326 -0.1374 -0.5712
 6532SOL    HW220496   6.425   2.635   2.898  0.4504 -0.6316  0.0692
 6533SOL     OW20497   6.573   0.891   3.774  0.6160 -0.8198 -0.4769
 6533SOL    HW120498   6.664   0.873   3.736  0.3469 -2.4561 -0.3974
 6533SOL    HW220499   6.577   0.888   3.874  0.8206  0.9931 -0.3943
 6534SOL     OW20500   5.433   6.200   4.471 -0.1460  0.1324  0.1835
 6534SOL    HW120501   5.389   6.288   4.488 -1.0744 -0.5886  1.6564
 6534SOL    HW220502   5.428   6.143   4.553 -1.3070 -2.0243 -1.2890
 6535SOL     OW20503   6.586   4.183   4.295 -0.0306 -0.3208  0.5380
 6535SOL    HW120504   6.561   4.248   4.367 -0.1317  0.4448 -0.1782
 6535SOL    HW220505   6.558   4.219   4.206  0.0214 -1.2938  0.1146
 6536SOL     OW20506   0.876   3.000   3.695 -0.0114 -0.1991 -0.3625
 6536SOL    HW120507   0.820   2.943   3.636  0.8989 -1.3966 -0.1290
 6536SOL    HW220508   0.823   3.029   3.775 -0.4384 -0.9285 -0.3771
 6537SOL     OW20509   0.022   3.627   6.252  0.0726  0.3364  0.5271
 6537SOL    HW120510   0.086   3.626   6.329  0.0998  2.2595  0.5884
 6537SOL    HW220511   0.068   3.665   6.172 -0.6955  0.7923  0.2926
 6538SOL     OW20512   5.112   0.696   6.573  0.2448 -0.2191 -0.0456
 6538SOL    HW120513   5.033   0.635   6.571 -0.6703  0.9370  0.2793
 6538SOL    HW220514   5.142   0.708   6.668  0.1851  0.1302 -0.0692
 6539SOL     OW20515   2.317   5.530   1.385  0.3549 -0.4878 -0.3547
 6539SOL    HW120516   2.241   5.465   1.382  0.2303 -0.3070 -2.3154
 6539SOL    HW220517   2.394   5.488   1.434 -0.7464 -0.9194  1.0751
 6540SOL     OW20518   0.502   1.056   3.573 -0.3690  0.4192 -0.0800
 6540SOL    HW120519   0.489   1.011   3.485 -0.9457  1.6634 -0.6640
 6540SOL    HW220520   0.547   1.144   3.559  0.7501  0.0448  1.0314
 6541SOL     OW20521   5.094   1.924   0.398  0.0810 -0.0089 -0.0265
 6541SOL    HW120522   5.098   1.962   0.491 -0.9451  0.0889 -0.0171
 6541SOL    HW220523   5.132   1.832   0.398  0.1429  0.0152  0.4774
 6542SOL     OW20524   4.692   3.074   6.625 -0.1466 -0.3760  0.0547
 6542SOL    HW120525   4.768   3.028   6.669  1.8225  0.5942 -2.0810
 6542SOL    HW220526   4.660   3.150   6.683  0.7200 -0.6033  0.8484
 6543SOL     OW20527   2.666   0.706   4.494  0.3710  0.3016  0.6522
 6543SOL    HW120528   2.573   0.709   4.530  0.6127  2.0173  1.2227
 6543SOL    HW220529   2.694   0.797   4.465  1.6789 -0.2911 -0.0398
 6544SOL     OW20530   2.614   5.448   4.497  0.4678  0.4464  0.1597
 6544SOL    HW120531   2.523   5.480   4.522  1.0336  1.1551  1.4284
 6544SOL    HW220532   2.631   5.468   4.401 -0.9052 -0.1775 -0.2284
 6545SOL     OW20533   2.745   2.987   1.668  0.1932  0.1692 -0.1736
 6545SOL    HW120534   2.836   3.017   1.640  0.1006 -0.9826 -1.8091
 6545SOL    HW220535   2.702   2.936   1.594 -2.3156  1.7710  0.0638
 6546SOL     OW20536   3.077   1.429   1.975 -0.2519 -0.0580 -0.2921
 6546SOL    HW120537   3.033   1.382   1.898 -0.1323  0.4813 -0.6964
 6546SOL    HW220538   3.075   1.370   2.055 -2.1679  0.1261 -0.1541
 6547SOL     OW20539   4.149   5.651   3.818  0.1857  0.6226  0.1487
 6547SOL    HW120540   4.071   5.615   3.766  1.1836  0.0475 -1.0039
 6547SOL    HW220541   4.116   5.703   3.897 -1.3588  0.6634 -0.4970
 6548SOL     OW20542   6.661   5.136   1.329 -0.0467 -0.2607 -0.1189
 6548SOL    HW120543   6.704   5.226   1.327  1.1190 -0.6809  2.0427
 6548SOL    HW220544   6.579   5.139   1.387  0.0933 -0.6079  0.1034
 6549SOL     OW20545   5.981   5.535   1.636  0.5517  0.4889  0.4644
 6549SOL    HW120546   6.078   5.513   1.633  0.3515 -0.3167 -1.6867
 6549SOL    HW220547   5.961   5.585   1.720  2.8240  0.7431  0.9213
 6550SOL     OW20548   6.854   4.673   3.594 -0.2352  0.1387  0.3662
 6550SOL    HW120549   6.881   4.661   3.498  1.1031 -0.3053  0.7769
 6550SOL    HW220550   6.782   4.743   3.600  0.8117  1.3741 -0.7925
 6551SOL     OW20551   0.281   5.883   1.915 -0.2472 -0.1521  0.1845
 6551SOL    HW120552   0.215   5.812   1.940 -1.0260  1.4898  3.2488
 6551SOL    HW220553   0.374   5.847   1.925 -0.6034 -1.5472 -1.1560
 6552SOL     OW20554   2.728   3.592   1.337  0.0523  0.0413 -0.1987
 6552SOL    HW120555   2.785   3.520   1.375 -0.7559 -0.8872 -0.7176
 6552SOL    HW220556   2.738   3.594   1.237 -0.3975  0.2210 -0.2455
 6553SOL     OW20557   0.738   3.687   0.844  0.3037 -0.6530 -0.0023
 6553SOL    HW120558   0.683   3.647   0.771 -1.0176 -0.7953  1.0329
 6553SOL    HW220559   0.823   3.724   0.805 -1.9020  2.6207 -2.2833
 6554SOL     OW20560   4.350   1.018   6.706  0.4380 -0.7357 -0.0097
 6554SOL    HW120561   4.278   0.952   6.686  0.1336  0.2797 -2.5865
 6554SOL    HW220562   4.327   1.106   6.663  2.5368  0.0369  0.3477
 6555SOL     OW20563   4.638   4.556   2.110  0.1331 -0.0264 -0.3625
 6555SOL    HW120564   4.594   4.571   2.199  2.2354 -0.7755  0.8766
 6555SOL    HW220565   4.708   4.485   2.119  0.2329 -0.2896 -2.7037
 6556SOL     OW20566   2.172   4.506   1.354  0.5422 -0.1506 -0.2568
 6556SOL    HW120567   2.199   4.590   1.306 -0.3106 -0.4903 -1.3860
 6556SOL    HW220568   2.078   4.482   1.327 -0.2162 -0.0357  2.0827
 6557SOL     OW20569   0.142   1.667   2.886 -0.0812  0.1950  0.3101
 6557SOL    HW120570   0.205   1.589   2.881  0.1035  0.0485  3.1224
 6557SOL    HW220571   0.186   1.741   2.937 -1.5263  0.7616  0.7675
 6558SOL     OW20572   6.882   2.723   2.778  0.4225 -0.0073  0.2826
 6558SOL    HW120573   6.800   2.707   2.832  1.3429 -1.0282  1.4539
 6558SOL    HW220574   6.892   2.652   2.709  0.8476 -0.4957  0.8351
 6559SOL     OW20575   5.146   1.456   1.469 -0.1872  0.7299  0.8735
 6559SOL    HW120576   5.145   1.384   1.399  0.6469  0.6114  0.9725
 6559SOL    HW220577   5.059   1.505   1.467 -0.4349  0.2872  0.2133
 6560SOL     OW20578   2.251   6.910   0.722  0.1285  0.0656  0.3218
 6560SOL    HW120579   2.314   6.975   0.766  1.5321 -1.1409  0.1649
 6560SOL    HW220580   2.227   6.943   0.631  0.4917  0.5679  0.4016
 6561SOL     OW20581   3.861   6.153   1.492  0.2406 -0.5198 -0.0836
 6561SOL    HW120582   3.787   6.186   1.434 -0.4640  1.5777  1.8288
 6561SOL    HW220583   3.823   6.111   1.574  1.1908 -1.0432  0.1093
 6562SOL     OW20584   0.979   2.873   4.375  0.4346  0.5267  0.5622
 6562SOL    HW120585   0.972   2.817   4.292  0.4864 -0.9499  1.5128
 6562SOL    HW220586   1.069   2.918   4.377 -0.2800  2.1447 -1.0899
 6563SOL     OW20587   6.559   0.422   3.350 -0.6604  0.1977  0.0105
 6563SOL    HW120588   6.626   0.368   3.301 -0.6565  0.3016 -0.0979
 6563SOL    HW220589   6.592   0.516   3.360 -0.1706 -0.0670  1.1455
 6564SOL     OW20590   4.238   3.345   5.378 -0.7612  0.3599 -0.1437
 6564SOL    HW120591   4.178   3.377   5.451 -2.0252 -0.2752 -0.8788
 6564SOL    HW220592   4.314   3.410   5.366 -1.8419  1.7183  0.1251
 6565SOL     OW20593   6.272   1.122   2.937  0.2805  0.2336  0.2231
 6565SOL    HW120594   6.294   1.219   2.953  0.3865  0.3974 -0.8037
 6565SOL    HW220595   6.173   1.112   2.927  0.3325  0.3968 -0.5550
 6566SOL     OW20596   2.377   3.718   0.495 -0.1716 -0.1762 -0.1577
 6566SOL    HW120597   2.460   3.665   0.509 -0.5577 -0.9555 -0.7236
 6566SOL    HW220598   2.332   3.688   0.410 -1.1588  0.0476  0.2691
 6567SOL     OW20599   3.605   0.572   4.892  0.1317  0.0733 -0.1211
 6567SOL    HW120600   3.636   0.611   4.978  0.7111 -0.2219 -0.1889
 6567SOL    HW220601   3.684   0.556   4.832 -0.1972 -0.2916 -0.4665
 6568SOL     OW20602   5.859   3.144   4.755  0.3661 -0.5478  0.1936
 6568SOL    HW120603   5.949   3.155   4.798 -0.4855  0.3891  1.8119
 6568SOL    HW220604   5.816   3.060   4.789 -0.1468 -0.0076  0.9087
 6569SOL     OW20605   6.652   2.317   1.797 -0.2735  0.3222 -0.7661
 6569SOL    HW120606   6.579   2.365   1.844  1.3321  1.2669  0.8850
 6569SOL    HW220607   6.651   2.220   1.823  1.1487  0.9760  2.1524
 6570SOL     OW20608   4.912   0.188   2.670  0.2099 -0.0333  0.6750
 6570SOL    HW120609   4.926   0.284   2.645 -0.3536  0.4401  2.0573
 6570SOL    HW220610   4.821   0.177   2.710  0.9680 -0.7412  2.3193
 6571SOL     OW20611   0.673   6.597   0.377  0.0948 -0.5039 -0.1542
 6571SOL    HW120612   0.579   6.602   0.343  0.4048 -0.1266 -0.9966
 6571SOL    HW220613   0.701   6.687   0.410  0.3231 -0.5003 -0.3568
 6572SOL     OW20614   5.232   5.796   4.357 -0.0467  0.3148 -0.2113
 6572SOL    HW120615   5.205   5.832   4.446 -1.1330  2.5194 -1.3419
 6572SOL    HW220616   5.272   5.869   4.302  2.2339 -1.3930 -0.9880
 6573SOL     OW20617   3.315   6.155   2.425 -0.2058  0.1426 -0.0128
 6573SOL    HW120618   3.409   6.125   2.411 -0.7101 -0.5136 -2.4176
 6573SOL    HW220619   3.262   6.082   2.468 -0.5249 -1.1567 -2.4108
 6574SOL     OW20620   6.352   3.664   3.212 -0.1819  0.1967 -0.3835
 6574SOL    HW120621   6.260   3.697   3.232  0.1426 -0.2093  2.1508
 6574SOL    HW220622   6.417   3.706   3.275  0.6833 -2.8016  0.9290
 6575SOL     OW20623   1.735   2.983   0.249  0.0891  0.2386  0.0470
 6575SOL    HW120624   1.636   2.989   0.249  0.1804  3.0823 -0.2763
 6575SOL    HW220625   1.766   2.936   0.332 -1.4845  0.6849  0.9155
 6576SOL     OW20626   2.902   2.307   3.512 -0.0905 -0.2799 -0.3734
 6576SOL    HW120627   2.866   2.226   3.557 -0.1438  0.1808  0.4368
 6576SOL    HW220628   2.827   2.359   3.471 -0.3094  0.3522  0.7740
 6577SOL     OW20629   0.765   1.691   1.882  0.1505 -0.2280 -0.1546
 6577SOL    HW120630   0.804   1.599   1.886 -0.6374 -0.5310  1.4958
 6577SOL    HW220631   0.666   1.686   1.896  0.2538  0.9461  1.2986
 6578SOL     OW20632   3.872   3.548   3.936  0.5160 -0.3610 -0.2497
 6578SOL    HW120633   3.902   3.526   3.843 -2.1723 -1.9799 -0.8436
 6578SOL    HW220634   3.832   3.467   3.978 -3.5938  1.5812  0.0851
 6579SOL     OW20635   0.344   5.080   2.852  0.0817  0.1093  0.1041
 6579SOL    HW120636   0.262   5.037   2.813 -1.3369  0.2101  2.7310
 6579SOL    HW220637   0.415   5.012   2.864 -0.9303 -0.7997  1.0933
 6580SOL     OW20638   0.781   2.554   2.845  0.0422 -0.2235  0.0295
 6580SOL    HW120639   0.818   2.580   2.934  0.0776  1.1771 -0.3822
 6580SOL    HW220640   0.681   2.548   2.850 -0.1884  2.2881 -0.3932
 6581SOL     OW20641   3.739   4.606   0.804 -0.0624 -0.1154 -0.6736
 6581SOL    HW120642   3.669   4.675   0.785  0.4230  0.0379 -2.0477
 6581SOL    HW220643   3.797   4.637   0.879 -0.8023  0.2540 -0.2475
 6582SOL     OW20644   5.440   1.878   1.113  0.0480 -1.1146  0.6774
 6582SOL    HW120645   5.419   1.833   1.200 -1.2883 -0.8451  0.5173
 6582SOL    HW220646   5.360   1.930   1.083  1.3772  1.0412  0.6543
 6583SOL     OW20647   2.324   5.420   0.561 -0.2361  0.3068 -0.4329
 6583SOL    HW120648   2.406   5.474   0.577 -0.1651  0.0609  0.0697
 6583SOL    HW220649   2.244   5.468   0.598 -0.1301 -0.0686  0.2979
 6584SOL     OW20650   0.676   0.677   0.054  0.2073  0.3584 -0.5690
 6584SOL    HW120651   0.756   0.624   0.030  0.2078  0.1813 -0.1905
 6584SOL    HW220652   0.672   0.760  -0.002 -0.4224 -0.5901 -1.9867
 6585SOL     OW20653   2.237   4.758   6.796  0.5589 -0.4430 -0.3565
 6585SOL    HW120654   2.206   4.692   6.727  1.2750 -0.9013 -0.2627
 6585SOL    HW220655   2.199   4.733   6.885 -0.6302  0.3390 -0.6219
 6586SOL     OW20656   5.961   2.924   1.280  0.3611 -0.7218 -0.3829
 6586SOL    HW120657   5.967   3.013   1.325  3.1228  0.0860 -2.1157
 6586SOL    HW220658   5.955   2.852   1.349 -0.5336  0.7053  1.0927
 6587SOL     OW20659   2.366   6.886   3.095 -0.0597 -0.8901 -0.0892
 6587SOL    HW120660   2.352   6.910   2.998  2.0892 -1.3454 -0.5429
 6587SOL    HW220661   2.358   6.969   3.150  0.0565 -0.3865 -0.8061
 6588SOL     OW20662   6.214   4.040   0.219  0.2811 -0.3268 -0.3229
 6588SOL    HW120663   6.271   4.052   0.138 -0.6878  0.5218 -0.8995
 6588SOL    HW220664   6.118   4.051   0.195  0.0650  3.3511  1.4333
 6589SOL     OW20665   0.808   6.229   4.225 -0.1466 -0.1799 -0.1843
 6589SOL    HW120666   0.859   6.253   4.308  0.0432 -1.0549 -0.0387
 6589SOL    HW220667   0.786   6.131   4.226  0.4913 -0.3607 -1.4954
 6590SOL     OW20668   0.794   6.124   1.079  0.0629 -0.4473  0.0466
 6590SOL    HW120669   0.841   6.048   1.125  0.0406  0.5519  1.7989
 6590SOL    HW220670   0.845   6.208   1.095 -2.4953  0.7989  2.5079
 6591SOL     OW20671   5.388   2.621   3.304  0.2171 -0.0395  0.3098
 6591SOL    HW120672   5.338   2.699   3.341 -1.1668 -0.5046 -0.4928
 6591SOL    HW220673   5.485   2.642   3.302  0.0010  1.2029  1.1964
 6592SOL     OW20674   4.886   6.511   5.263 -0.4761 -0.1515  0.3683
 6592SOL    HW120675   4.922   6.488   5.354 -1.7984 -3.0060  0.2728
 6592SOL    HW220676   4.796   6.470   5.252 -1.1969  1.8101 -1.5674
 6593SOL     OW20677   6.395   4.580   6.257 -0.1069  0.2962  0.0668
 6593SOL    HW120678   6.443   4.650   6.204  0.2014 -0.1219 -0.2105
 6593SOL    HW220679   6.326   4.623   6.315  1.0051  0.9780  0.9307
 6594SOL     OW20680   0.983   2.792   2.729 -0.3196 -0.0221  0.1753
 6594SOL    HW120681   1.038   2.848   2.667  0.2875  0.5479  1.1997
 6594SOL    HW220682   0.886   2.811   2.713 -0.1291  1.4182  0.5463
 6595SOL     OW20683   5.439   0.500   5.412 -0.4810 -0.9387  0.0915
 6595SOL    HW120684   5.425   0.418   5.357 -1.3519 -0.3589 -0.5880
 6595SOL    HW220685   5.405   0.580   5.362 -0.9098 -0.3325  1.2989
 6596SOL     OW20686   3.799   2.998   3.082  0.2555  0.4842  0.1537
 6596SOL    HW120687   3.764   2.958   3.167  0.0094  0.9839  0.2967
 6596SOL    HW220688   3.892   3.031   3.097 -0.2688  1.8163  0.6509
 6597SOL     OW20689   3.201   1.515   2.723 -0.2561 -0.1277  0.3336
 6597SOL    HW120690   3.259   1.452   2.776  1.1006 -0.6333 -1.6461
 6597SOL    HW220691   3.109   1.477   2.716  0.0571 -0.9919  0.7110
 6598SOL     OW20692   5.313   3.895   3.618  0.8400  0.0366  0.4668
 6598SOL    HW120693   5.263   3.947   3.688 -0.6501  0.6992 -1.0185
 6598SOL    HW220694   5.350   3.958   3.550 -0.0273 -0.7268 -0.7575
 6599SOL     OW20695   2.074   1.011   2.621 -0.0058  0.0929  0.0112
 6599SOL    HW120696   2.081   0.929   2.563  0.7139  1.6429 -2.2321
 6599SOL    HW220697   2.163   1.029   2.663  0.3080  0.6254 -0.8524
 6600SOL     OW20698   6.450   0.421   5.520 -0.2421  0.3663  0.1285
 6600SOL    HW120699   6.417   0.475   5.444 -1.2038 -0.2379  0.0966
 6600SOL    HW220700   6.545   0.395   5.504  0.0710  1.5837 -0.0903
 6601SOL     OW20701   5.093   0.121   6.690 -0.0906 -0.1639 -0.5077
 6601SOL    HW120702   5.184   0.081   6.704  0.7082  1.5210 -0.6180
 6601SOL    HW220703   5.043   0.068   6.622  0.1603 -2.0688  0.6996
 6602SOL     OW20704   2.885   0.576   0.220 -0.0538  0.0481  0.3168
 6602SOL    HW120705   2.886   0.508   0.147  2.7895  0.2144  0.1140
 6602SOL    HW220706   2.896   0.531   0.308  1.3724  0.1516  0.2169
 6603SOL     OW20707   4.524   5.134   3.602 -0.5728 -0.4717 -0.2689
 6603SOL    HW120708   4.553   5.091   3.688  1.2285  0.0324 -0.5713
 6603SOL    HW220709   4.572   5.091   3.525  0.0064  0.9427 -0.7326
 6604SOL     OW20710   2.600   2.248   0.892 -0.0161 -0.0373  0.5303
 6604SOL    HW120711   2.664   2.247   0.969 -0.2996 -3.0300  0.8381
 6604SOL    HW220712   2.508   2.271   0.925  0.3037  1.2318  0.5964
 6605SOL     OW20713   4.685   2.315   5.155 -0.0196 -0.0172 -0.4364
 6605SOL    HW120714   4.711   2.219   5.158  0.6596  0.1714  0.2514
 6605SOL    HW220715   4.590   2.325   5.185 -0.1376 -0.4882 -0.6563
 6606SOL     OW20716   2.099   2.580   0.358 -0.2476  0.1155 -0.2964
 6606SOL    HW120717   2.038   2.659   0.354  1.7279  1.8088  0.8176
 6606SOL    HW220718   2.069   2.511   0.293 -1.2189  2.4085 -2.4465
 6607SOL     OW20719   1.365   6.663   4.056 -0.4038  0.7475 -0.1329
 6607SOL    HW120720   1.271   6.686   4.081 -1.4325 -1.7850 -1.3935
 6607SOL    HW220721   1.399   6.732   3.992 -3.0296 -0.4613 -3.1022
 6608SOL     OW20722   6.850   0.634   7.002  0.3684 -0.0581 -0.4042
 6608SOL    HW120723   6.910   0.694   7.056  1.4945 -1.0520 -0.5221
 6608SOL    HW220724   6.816   0.560   7.059  0.3364 -0.2642 -0.6891
 6609SOL     OW20725   6.323   6.156   6.017  0.0013  0.2666  0.0920
 6609SOL    HW120726   6.267   6.234   6.043 -0.1723  0.3174 -0.4380
 6609SOL    HW220727   6.417   6.187   6.000 -0.7665  1.0164 -3.5380
 6610SOL     OW20728   5.231   1.026   2.696 -0.6103  0.3698 -0.1873
 6610SOL    HW120729   5.296   1.033   2.772 -0.3073  2.4968 -0.5824
 6610SOL    HW220730   5.187   1.115   2.681 -1.8399 -0.4120 -1.4959
 6611SOL     OW20731   6.737   1.685   4.238  0.1836  0.1231  0.0322
 6611SOL    HW120732   6.661   1.750   4.236  0.5367  0.5309 -0.6209
 6611SOL    HW220733   6.821   1.732   4.212  0.6322 -0.3639  0.5866
 6612SOL     OW20734   6.222   5.437   5.069  0.0513 -0.2104  0.3341
 6612SOL    HW120735   6.169   5.522   5.068 -1.5575 -1.1766  0.7496
 6612SOL    HW220736   6.310   5.454   5.114  1.1866  1.9908 -2.3941
 6613SOL     OW20737   0.385   3.836   2.094 -0.5460 -0.0582  0.4964
 6613SOL    HW120738   0.295   3.793   2.094 -0.5324 -0.0946  0.0241
 6613SOL    HW220739   0.400   3.883   2.007  0.2461 -0.8227  0.2026
 6614SOL     OW20740   1.759   3.555   4.710 -0.6831 -0.2245  0.4097
 6614SOL    HW120741   1.715   3.639   4.743  1.3744  0.9032  0.4754
 6614SOL    HW220742   1.787   3.499   4.789  1.5417  1.0344  0.6149
 6615SOL     OW20743   6.129   0.202   1.138 -0.1600  0.3351 -0.1260
 6615SOL    HW120744   6.143   0.208   1.237  0.1779  0.3091 -0.1691
 6615SOL    HW220745   6.214   0.172   1.094 -1.2710 -3.3392 -0.0902
 6616SOL     OW20746   1.647   2.062   0.455 -0.2112  0.6248  0.2464
 6616SOL    HW120747   1.685   2.087   0.544  0.7611  0.8790 -0.2249
 6616SOL    HW220748   1.588   2.136   0.423 -2.1014 -0.2503  1.4933
 6617SOL     OW20749   0.406   5.738   0.899  0.2035 -0.1347  0.3244
 6617SOL    HW120750   0.335   5.808   0.911 -0.6144 -0.9224  0.2363
 6617SOL    HW220751   0.415   5.715   0.802  0.8953  0.2719  0.2884
 6618SOL     OW20752   1.002   6.937   3.963 -0.2565  0.1173  0.5479
 6618SOL    HW120753   0.985   6.839   3.949  0.8645 -0.2341  1.4516
 6618SOL    HW220754   1.082   6.965   3.910 -1.0923  0.7597 -0.3947
 6619SOL     OW20755   1.520   6.556   6.480  0.0463  0.2608  0.4151
 6619SOL    HW120756   1.567   6.470   6.494 -1.1811 -0.5207 -0.0821
 6619SOL    HW220757   1.482   6.589   6.566  1.4970  0.9316  0.8330
 6620SOL     OW20758   0.978   4.795   4.274 -0.6259 -0.9265  0.2322
 6620SOL    HW120759   1.051   4.817   4.209  1.1053  2.2479  2.9416
 6620SOL    HW220760   0.908   4.866   4.270 -1.3554 -1.5999  0.7282
 6621SOL     OW20761   3.123   5.928   2.228 -0.2578 -0.2138 -0.1253
 6621SOL    HW120762   3.056   5.906   2.157 -0.2816 -0.3002 -0.0767
 6621SOL    HW220763   3.160   6.019   2.211  0.5075 -0.6453 -0.8528
 6622SOL     OW20764   5.057   4.499   5.833 -0.6600 -0.2608  0.1077
 6622SOL    HW120765   5.004   4.480   5.750  0.9128 -1.8122 -0.5910
 6622SOL    HW220766   4.994   4.519   5.908 -2.1126  2.7503 -1.7221
 6623SOL     OW20767   3.937   2.118   2.301  0.0431 -0.2711  0.3089
 6623SOL    HW120768   3.949   2.046   2.233 -1.9831 -1.1791  0.8208
 6623SOL    HW220769   3.918   2.205   2.254  2.3170 -0.0531 -0.3061
 6624SOL     OW20770   5.056   0.325   5.385  0.2269 -0.3810 -0.2696
 6624SOL    HW120771   5.063   0.238   5.434  0.4434 -0.7375 -0.9210
 6624SOL    HW220772   5.136   0.337   5.327 -0.6009 -0.5658 -1.4925
 6625SOL     OW20773   2.236   5.031   3.568 -0.2910 -0.6513 -0.2043
 6625SOL    HW120774   2.169   5.067   3.633  0.9011 -0.2594  0.8315
 6625SOL    HW220775   2.308   4.981   3.616  0.9909  0.2311 -1.1230
 6626SOL     OW20776   3.122   4.271   1.252 -0.3641 -0.3027  0.0390
 6626SOL    HW120777   3.057   4.247   1.180  0.5945 -0.5117 -0.7892
 6626SOL    HW220778   3.142   4.369   1.247 -1.9898  0.1368  1.4815
 6627SOL     OW20779   2.136   3.100   3.724  0.1204  0.4602  0.4974
 6627SOL    HW120780   2.070   3.102   3.799 -0.3557  0.3271  0.0877
 6627SOL    HW220781   2.143   3.190   3.683  0.3715  0.5299  0.6886
 6628SOL     OW20782   6.446   5.225   2.903  0.2541 -0.0422 -0.0891
 6628SOL    HW120783   6.454   5.322   2.923 -1.4297  0.3612 -1.1547
 6628SOL    HW220784   6.368   5.186   2.952 -0.1137 -0.4467 -0.9678
 6629SOL     OW20785   5.726   3.868   5.906 -0.1100  0.8732  0.5870
 6629SOL    HW120786   5.754   3.881   6.001  0.5797  0.0816  0.5013
 6629SOL    HW220787   5.749   3.950   5.853 -1.4618  1.7562  1.2953
 6630SOL     OW20788   2.447   1.671   0.832  0.5551  0.3102  0.3129
 6630SOL    HW120789   2.425   1.758   0.788  0.9585  1.4204  2.1782
 6630SOL    HW220790   2.519   1.686   0.900  1.2050 -1.6579  0.1085
 6631SOL     OW20791   5.228   1.541   6.685 -0.4616  0.5180  0.0043
 6631SOL    HW120792   5.303   1.608   6.679  0.2161 -0.1374  0.9453
 6631SOL    HW220793   5.250   1.473   6.754 -2.0078  0.3850  0.3949
 6632SOL     OW20794   4.133   3.635   4.623 -0.8082  0.4023  0.1206
 6632SOL    HW120795   4.069   3.608   4.695 -0.3597  0.0948  0.4128
 6632SOL    HW220796   4.117   3.580   4.541 -0.0615 -0.5923  0.6314
 6633SOL     OW20797   0.556   4.316   1.645  0.4526 -0.1809 -0.0275
 6633SOL    HW120798   0.458   4.309   1.624  0.2695  0.3904  0.6171
 6633SOL    HW220799   0.568   4.333   1.742  1.0388  2.5447 -0.4875
 6634SOL     OW20800   3.135   1.471   5.708 -0.2599  0.3511 -0.1977
 6634SOL    HW120801   3.060   1.471   5.642  0.1111  1.7375 -0.6511
 6634SOL    HW220802   3.162   1.565   5.728  1.7274 -0.1119 -0.4730
 6635SOL     OW20803   3.290   5.790   5.200  0.1929 -0.4192 -0.2507
 6635SOL    HW120804   3.271   5.758   5.293 -1.8277  1.0664 -0.0884
 6635SOL    HW220805   3.233   5.870   5.180  0.6155 -0.6724 -2.7755
 6636SOL     OW20806   3.827   5.473   6.273 -0.3799  0.2138  0.3353
 6636SOL    HW120807   3.894   5.442   6.340  0.2814  1.6962  0.4023
 6636SOL    HW220808   3.832   5.572   6.264  0.3783  0.0020 -2.7977
 6637SOL     OW20809   2.886   1.966   5.324 -0.5084  0.4982  0.1363
 6637SOL    HW120810   2.830   1.948   5.405  0.7922 -0.4716  0.8364
 6637SOL    HW220811   2.902   2.065   5.316 -0.9667  0.6332  0.8239
 6638SOL     OW20812   2.991   1.555   1.659  0.5810  0.1517  0.0556
 6638SOL    HW120813   3.001   1.620   1.734  0.9971  1.1967 -0.8825
 6638SOL    HW220814   2.992   1.604   1.572 -0.6613 -0.9504 -0.6192
 6639SOL     OW20815   0.354   2.969   6.051 -0.2240  0.2775 -0.1682
 6639SOL    HW120816   0.341   2.924   6.140  0.6582 -2.0601 -1.1446
 6639SOL    HW220817   0.270   3.018   6.027 -0.3391  1.3462  2.1159
 6640SOL     OW20818   0.381   0.533   5.694 -0.4704 -0.4298  0.5860
 6640SOL    HW120819   0.375   0.467   5.619  0.6688 -0.9865  0.9661
 6640SOL    HW220820   0.476   0.561   5.706 -0.8225  0.5964  1.0254
 6641SOL     OW20821   0.834   4.703   4.689  0.0635 -0.1000  0.1754
 6641SOL    HW120822   0.822   4.801   4.670  1.1464  0.2350  1.1294
 6641SOL    HW220823   0.930   4.678   4.679  0.0776 -0.6920  1.5224
 6642SOL     OW20824   0.751   0.802   4.833  0.2020  0.0585  0.7548
 6642SOL    HW120825   0.813   0.728   4.858  0.1105 -0.2051  0.2289
 6642SOL    HW220826   0.803   0.888   4.824  0.2955  0.0793  1.4316
 6643SOL     OW20827   1.638   3.150   0.949 -0.3140 -0.0030 -0.2513
 6643SOL    HW120828   1.682   3.215   1.011  1.7474 -2.0183  0.5460
 6643SOL    HW220829   1.545   3.131   0.980 -1.2275  2.9598 -0.8942
 6644SOL     OW20830   0.658   3.769   5.503 -0.1469 -0.2626  0.2982
 6644SOL    HW120831   0.593   3.832   5.546  1.2914  1.6303 -0.1471
 6644SOL    HW220832   0.718   3.820   5.441 -0.1623 -2.4198 -1.6115
 6645SOL     OW20833   4.818   2.833   2.487  0.1990  0.8193  0.0159
 6645SOL    HW120834   4.781   2.775   2.414 -0.4498  3.0184 -1.4963
 6645SOL    HW220835   4.768   2.815   2.572 -1.4540  0.6558 -0.9463
 6646SOL     OW20836   5.113   0.020   0.346  0.5392 -0.7981 -0.5206
 6646SOL    HW120837   5.128  -0.044   0.421  1.4437  0.3472  0.3063
 6646SOL    HW220838   5.188   0.013   0.281  1.7315  0.7808  0.6017
 6647SOL     OW20839   2.346   0.973   5.949  0.0213  0.5384 -0.6468
 6647SOL    HW120840   2.404   0.905   5.994  2.2421  1.2356 -2.2798
 6647SOL    HW220841   2.345   0.956   5.851 -0.3641  2.1499 -0.9498
 6648SOL     OW20842   3.674   5.167   2.878  0.3943  0.2852  0.4771
 6648SOL    HW120843   3.668   5.079   2.924  0.3085 -0.3463 -0.7101
 6648SOL    HW220844   3.763   5.176   2.834  1.0542  1.5126  1.9498
 6649SOL     OW20845   2.818   6.838   0.703  0.5177  0.4798 -0.6241
 6649SOL    HW120846   2.747   6.893   0.660 -0.4745  0.7532  1.2594
 6649SOL    HW220847   2.842   6.878   0.792  0.2781 -1.6962  0.4859
 6650SOL     OW20848   2.858   3.465   6.329  0.5031 -0.0085 -0.6849
 6650SOL    HW120849   2.825   3.498   6.418 -2.4661  0.5165 -1.8768
 6650SOL    HW220850   2.952   3.496   6.316 -0.5482  4.3136  0.2110
 6651SOL     OW20851   5.295   3.155   0.586 -0.2879 -0.1635 -0.5275
 6651SOL    HW120852   5.240   3.179   0.666 -0.3103  0.4649 -0.7255
 6651SOL    HW220853   5.391   3.176   0.604 -0.4594  1.2780 -1.1419
 6652SOL     OW20854   4.497   6.852   4.981  0.1203  0.2140  0.0924
 6652SOL    HW120855   4.474   6.828   4.886 -1.3094  1.0255  0.1990
 6652SOL    HW220856   4.546   6.777   5.024  1.7517  0.2349 -1.6043
 6653SOL     OW20857   3.979   4.940   6.481  0.2276 -0.0824 -0.9925
 6653SOL    HW120858   4.018   4.898   6.399  2.5062 -2.1426  0.9777
 6653SOL    HW220859   3.901   4.886   6.512 -0.0283  0.1420 -1.2313
 6654SOL     OW20860   3.418   0.886   6.077  0.2701  0.4516 -0.3702
 6654SOL    HW120861   3.325   0.861   6.102 -0.8026  1.0568 -3.3449
 6654SOL    HW220862   3.433   0.983   6.095  0.9844 -0.0076  1.7388
 6655SOL     OW20863   3.393   1.461   2.994 -0.1018  0.0257 -1.0370
 6655SOL    HW120864   3.373   1.559   2.994 -0.9991 -0.1372 -0.1378
 6655SOL    HW220865   3.484   1.446   2.956 -0.0172  1.1886 -1.3483
 6656SOL     OW20866   1.147   3.027   3.739  0.0138  0.3260 -0.2383
 6656SOL    HW120867   1.052   2.995   3.743  0.3161 -0.6217 -0.3271
 6656SOL    HW220868   1.153   3.106   3.678 -0.3140 -1.2319 -2.3910
 6657SOL     OW20869   2.225   5.488   2.996 -0.2672  0.3960 -0.5191
 6657SOL    HW120870   2.257   5.420   3.062  0.1982  0.1746 -0.9579
 6657SOL    HW220871   2.196   5.441   2.912 -1.7785  0.5962 -0.1276
 6658SOL     OW20872   4.336   2.242   1.778 -0.7526  0.0218  0.3095
 6658SOL    HW120873   4.432   2.260   1.756  0.6435 -0.6149  4.9312
 6658SOL    HW220874   4.313   2.148   1.753  0.4869 -0.4776  0.9776
 6659SOL     OW20875   1.193   3.984   1.624 -0.2621 -0.0196 -0.7196
 6659SOL    HW120876   1.119   3.927   1.659  1.0650 -1.5406 -0.3058
 6659SOL    HW220877   1.212   3.961   1.529 -0.6791  0.7597 -0.9981
 6660SOL     OW20878   2.536   3.511   0.967 -0.5159  0.0253 -0.5647
 6660SOL    HW120879   2.552   3.438   1.033  1.4808 -1.1892 -2.2591
 6660SOL    HW220880   2.487   3.473   0.887  0.6128  0.4687 -1.4954
 6661SOL     OW20881   2.639   4.294   0.878 -0.5476  0.2897  0.5953
 6661SOL    HW120882   2.624   4.390   0.901 -0.8835  0.1791  0.8477
 6661SOL    HW220883   2.552   4.245   0.882 -0.1752 -0.3022  1.7643
 6662SOL     OW20884   5.502   0.249   1.414  0.0161 -0.5438 -0.1092
 6662SOL    HW120885   5.544   0.159   1.406  2.5023  0.4692  0.6229
 6662SOL    HW220886   5.424   0.245   1.477  0.5645 -2.0138  0.5126
 6663SOL     OW20887   1.584   3.390   3.316 -0.1520 -0.8157 -0.3111
 6663SOL    HW120888   1.503   3.368   3.261 -1.0256 -0.7246  0.8925
 6663SOL    HW220889   1.621   3.306   3.355 -0.8206 -0.6865  0.6597
 6664SOL     OW20890   5.864   0.586   2.275  0.5348  0.2845 -0.3754
 6664SOL    HW120891   5.926   0.626   2.207  1.6287  0.2483  0.5556
 6664SOL    HW220892   5.838   0.494   2.246 -0.5770  0.9742 -1.6706
 6665SOL     OW20893   4.639   0.370   1.305 -0.0738  0.1634 -0.6493
 6665SOL    HW120894   4.547   0.331   1.306  0.2566 -0.6619  0.4284
 6665SOL    HW220895   4.634   0.469   1.291 -1.0375 -0.0428 -1.8035
 6666SOL     OW20896   4.233   6.662   4.154  0.3537  0.4326  0.5690
 6666SOL    HW120897   4.284   6.577   4.140  0.1375  0.2443  0.8968
 6666SOL    HW220898   4.261   6.730   4.086 -0.1780 -0.2298 -0.3299
 6667SOL     OW20899   6.570   5.541   1.570 -0.1837 -0.0511  0.2498
 6667SOL    HW120900   6.618   5.475   1.512 -0.2334 -0.4390  0.6413
 6667SOL    HW220901   6.531   5.493   1.649  1.5244  0.7373  1.6346
 6668SOL     OW20902   0.139   6.691   6.247  0.8430  0.0283 -0.1251
 6668SOL    HW120903   0.232   6.665   6.223  3.1155  3.9337  3.1831
 6668SOL    HW220904   0.104   6.631   6.319  2.0172  0.1724  0.5871
 6669SOL     OW20905   4.625   2.507   2.844  0.1616  0.5538  0.4601
 6669SOL    HW120906   4.624   2.472   2.938  1.4535  1.1251  0.7131
 6669SOL    HW220907   4.658   2.435   2.782 -2.1836 -0.3525  0.1634
 6670SOL     OW20908   0.565   4.914   2.834  0.8546  0.0226  0.1608
 6670SOL    HW120909   0.597   4.821   2.853  2.6795  0.4089 -0.7390
 6670SOL    HW220910   0.526   4.917   2.742  2.2346  0.4179 -0.4488
 6671SOL     OW20911   6.016   5.372   2.827 -0.0403 -0.6552 -0.3467
 6671SOL    HW120912   6.013   5.330   2.736  1.1653 -0.2394 -0.5871
 6671SOL    HW220913   5.943   5.333   2.883  0.0685 -1.9316 -1.0501
 6672SOL     OW20914   5.032   2.101   6.696  0.7558 -0.6348  0.2254
 6672SOL    HW120915   5.100   2.052   6.643  0.6619  1.0866 -1.5558
 6672SOL    HW220916   4.999   2.042   6.770  2.3603 -2.3581 -0.3767
 6673SOL     OW20917   5.813   5.622   5.175 -0.3650 -0.0520  0.5354
 6673SOL    HW120918   5.869   5.674   5.239 -0.5593 -0.6800  1.2213
 6673SOL    HW220919   5.805   5.527   5.207 -0.9314 -0.2321 -0.1217
 6674SOL     OW20920   0.822   5.688   3.338 -0.1414  0.2789  0.3455
 6674SOL    HW120921   0.746   5.686   3.402 -0.5002 -2.7357 -0.0317
 6674SOL    HW220922   0.798   5.637   3.255  2.0041 -0.0544 -0.1451
 6675SOL     OW20923   5.366   0.326   1.829  0.2181  0.1021 -0.3286
 6675SOL    HW120924   5.411   0.252   1.879 -0.2553 -0.3422 -0.5546
 6675SOL    HW220925   5.357   0.405   1.889  1.7593  0.3955 -0.4300
 6676SOL     OW20926   1.362   3.158   4.459 -0.3766  0.2835  0.0275
 6676SOL    HW120927   1.443   3.200   4.500 -1.0994 -0.5075  2.3891
 6676SOL    HW220928   1.335   3.211   4.379  1.5911  1.4170  0.0418
 6677SOL     OW20929   5.430   6.917   3.791 -0.2266 -0.0054 -0.3005
 6677SOL    HW120930   5.362   6.979   3.830  1.6736  1.8835  0.1893
 6677SOL    HW220931   5.467   6.859   3.864 -0.4343 -0.2037 -0.3488
 6678SOL     OW20932   6.251   3.110   3.776  0.0447  0.7437  0.4298
 6678SOL    HW120933   6.252   3.133   3.873  1.0418 -0.3711  0.7039
 6678SOL    HW220934   6.256   3.194   3.722  0.4862  1.3274  1.3540
 6679SOL     OW20935   0.031   5.664   2.130  0.2415  0.1235 -0.0706
 6679SOL    HW120936   0.008   5.601   2.204 -2.2179  1.3854  0.3418
 6679SOL    HW220937   0.038   5.757   2.166  3.3289  0.2641 -0.7527
 6680SOL     OW20938   4.718   2.549   0.565 -0.1223 -0.3850  0.1839
 6680SOL    HW120939   4.646   2.596   0.615 -0.2559 -0.7631  0.3508
 6680SOL    HW220940   4.764   2.483   0.625  0.2557 -0.2607  0.0352
 6681SOL     OW20941   6.937   5.983   6.243 -0.4481  0.3409 -0.6273
 6681SOL    HW120942   7.006   5.981   6.170 -1.5178  0.6084 -1.6832
 6681SOL    HW220943   6.945   6.069   6.293  0.0971  0.2953 -0.6292
 6682SOL     OW20944   0.729   1.882   5.898 -0.3542 -0.7163 -0.7288
 6682SOL    HW120945   0.675   1.836   5.827 -0.7395 -1.1133 -0.1817
 6682SOL    HW220946   0.824   1.886   5.869 -0.7504  0.5872 -2.0228
 6683SOL     OW20947   0.249   5.489   3.269  0.5122 -0.2234 -0.1641
 6683SOL    HW120948   0.294   5.534   3.191  2.1532 -0.8971  0.3662
 6683SOL    HW220949   0.155   5.522   3.275  0.9594  1.3870 -1.1946
 6684SOL     OW20950   2.753   0.960   5.982  0.4833 -0.5023 -0.3077
 6684SOL    HW120951   2.693   0.966   6.062  0.8445 -1.8341  0.1026
 6684SOL    HW220952   2.699   0.933   5.902  0.4169 -1.0649 -0.0801
 6685SOL     OW20953   4.810   6.376   4.099 -0.1723  0.6366 -0.2039
 6685SOL    HW120954   4.719   6.334   4.097 -1.2673  2.8603 -1.2720
 6685SOL    HW220955   4.839   6.396   4.006  1.1136  0.6358  0.1754
 6686SOL     OW20956   0.661   3.580   6.312 -0.3954  0.3256 -0.8543
 6686SOL    HW120957   0.725   3.530   6.254  0.6650  0.2882  0.2887
 6686SOL    HW220958   0.571   3.538   6.306 -0.0097 -0.4322 -1.5104
 6687SOL     OW20959   3.406   5.314   5.501 -0.8132  0.1063 -0.6525
 6687SOL    HW120960   3.309   5.305   5.525 -0.4228 -0.2316  0.8902
 6687SOL    HW220961   3.462   5.270   5.570  0.4990  1.0346 -1.0728
 6688SOL     OW20962   5.683   5.653   0.063 -0.3564  0.3607  0.3807
 6688SOL    HW120963   5.655   5.565   0.024 -0.2442 -0.3476  1.8509
 6688SOL    HW220964   5.623   5.677   0.139 -0.7165  1.8367 -0.3428
 6689SOL     OW20965   5.480   6.198   3.685 -0.0987  0.5235 -0.0131
 6689SOL    HW120966   5.564   6.169   3.639 -0.1208  0.2417  0.1188
 6689SOL    HW220967   5.474   6.153   3.775 -0.2245  0.8024  0.1175
 6690SOL     OW20968   6.996   4.975   2.224 -0.2185  0.4104 -0.4396
 6690SOL    HW120969   7.016   5.060   2.176 -0.3038 -0.2582 -1.7157
 6690SOL    HW220970   6.904   4.944   2.199 -0.4553  0.2868  0.5477
 6691SOL     OW20971   2.234   5.801   6.198 -0.2680  0.3473  0.5491
 6691SOL    HW120972   2.208   5.713   6.158  0.0683  1.1716 -1.6321
 6691SOL    HW220973   2.318   5.790   6.252  0.0794 -0.5821 -0.1615
 6692SOL     OW20974   4.026   3.803   6.620  0.2624  0.0785 -0.7708
 6692SOL    HW120975   3.983   3.736   6.559  2.3338  0.0532 -2.3107
 6692SOL    HW220976   4.108   3.763   6.659 -0.3985  0.5336  1.1755
 6693SOL     OW20977   6.526   5.664   6.212 -0.1930  0.1509  0.0210
 6693SOL    HW120978   6.429   5.682   6.228 -0.6965  0.1333 -2.6128
 6693SOL    HW220979   6.536   5.581   6.157  1.2129  1.0041 -1.0656
 6694SOL     OW20980   4.485   4.499   4.268  0.5512 -0.3719  0.2925
 6694SOL    HW120981   4.514   4.476   4.361  4.7720  2.9014  0.1196
 6694SOL    HW220982   4.548   4.457   4.202 -1.1286 -0.9307 -1.0509
 6695SOL     OW20983   6.523   4.858   6.750 -0.3590 -0.5661  0.2807
 6695SOL    HW120984   6.537   4.910   6.666  0.8595 -1.1756  0.0904
 6695SOL    HW220985   6.511   4.921   6.827 -2.3762  0.0212 -0.4368
 6696SOL     OW20986   0.904   4.118   6.055  0.1032  0.1964  0.4046
 6696SOL    HW120987   0.988   4.065   6.045 -0.6981 -0.7606 -1.8429
 6696SOL    HW220988   0.879   4.123   6.152 -0.3220 -4.4904  0.7533
 6697SOL     OW20989   6.384   0.628   5.287 -0.3516  0.9497 -0.4997
 6697SOL    HW120990   6.379   0.595   5.192 -0.1906  0.3101 -0.2878
 6697SOL    HW220991   6.446   0.707   5.291 -0.4604  1.0603 -0.9510
 6698SOL     OW20992   6.893   6.158   3.695 -0.0813  0.1454  0.1179
 6698SOL    HW120993   6.937   6.125   3.612 -0.8574  1.7801 -0.9935
 6698SOL    HW220994   6.859   6.080   3.748  2.4879 -1.0648  0.1461
 6699SOL     OW20995   0.616   5.016   3.112  0.4307 -0.4083  0.5658
 6699SOL    HW120996   0.615   5.000   3.014 -1.8175 -1.9960  0.7703
 6699SOL    HW220997   0.651   4.935   3.159  1.6284  0.3946  1.0953
 6700SOL     OW20998   1.780   2.272   6.129 -0.6514  0.3391 -0.3915
 6700SOL    HW120999   1.764   2.220   6.213  0.1688  0.3383 -0.2301
 6700SOL    HW221000   1.878   2.286   6.116 -0.5453 -1.9225 -2.7439
 6701SOL     OW21001   6.867   1.174   1.285  0.5785 -0.5797 -0.2622
 6701SOL    HW121002   6.951   1.152   1.335  0.5366 -0.4119 -0.1149
 6701SOL    HW221003   6.838   1.266   1.309 -0.6320 -1.2634  1.0801
 6702SOL     OW21004   0.696   0.737   0.326 -0.0242  0.0226 -0.1728
 6702SOL    HW121005   0.725   0.668   0.393 -0.5831  1.2431  1.3889
 6702SOL    HW221006   0.704   0.699   0.234  2.9957 -0.9337  0.3806
 6703SOL     OW21007   1.209   4.315   6.711 -0.1307 -0.0093 -0.1360
 6703SOL    HW121008   1.229   4.222   6.680 -1.4463 -0.3194 -0.0873
 6703SOL    HW221009   1.127   4.315   6.767 -0.5709  1.2884 -0.7371
 6704SOL     OW21010   1.686   3.906   4.194 -0.3528  0.0694  0.4487
 6704SOL    HW121011   1.752   3.914   4.119 -0.9701 -1.9099 -0.3774
 6704SOL    HW221012   1.651   3.997   4.217  1.9219  1.0641  0.2848
 6705SOL     OW21013   4.460   4.001   1.472  0.0621 -0.2381 -0.0651
 6705SOL    HW121014   4.364   4.027   1.480  0.4200  0.6749  1.5999
 6705SOL    HW221015   4.470   3.904   1.496 -0.3431 -0.1708  0.3897
 6706SOL     OW21016   2.891   0.057   2.570 -0.0288 -0.1818  0.2077
 6706SOL    HW121017   2.892   0.012   2.659 -0.1948  1.2325  0.9613
 6706SOL    HW221018   2.797   0.087   2.550 -0.1426 -1.1544 -0.8142
 6707SOL     OW21019   6.214   3.789   2.568  0.1394  0.5437  0.6391
 6707SOL    HW121020   6.247   3.859   2.504 -1.1071 -0.7102 -1.5134
 6707SOL    HW221021   6.277   3.712   2.570 -0.1659  0.2805  0.3529
 6708SOL     OW21022   1.478   6.221   3.475 -0.6130  0.6917  0.1903
 6708SOL    HW121023   1.440   6.160   3.405 -0.2712  0.1338  0.4842
 6708SOL    HW221024   1.416   6.298   3.489 -1.6872 -0.2302  0.6917
 6709SOL     OW21025   4.425   1.517   5.524 -0.1415  0.2838  0.3150
 6709SOL    HW121026   4.523   1.521   5.508 -0.1289  0.8258  0.5009
 6709SOL    HW221027   4.379   1.478   5.445  0.1218  1.0119 -0.2094
 6710SOL     OW21028   0.984   2.148   4.596 -0.0257 -0.2644  0.0998
 6710SOL    HW121029   0.979   2.051   4.571 -2.0896 -0.6280  1.6988
 6710SOL    HW221030   0.940   2.203   4.525  0.8453 -0.4809 -0.6403
 6711SOL     OW21031   1.835   0.069   4.839  0.1113  0.0077 -0.5535
 6711SOL    HW121032   1.847   0.166   4.860  0.2238 -0.2048  0.4082
 6711SOL    HW221033   1.834   0.016   4.924 -3.2616 -0.4862 -0.7338
 6712SOL     OW21034   4.363   6.121   0.780  0.4043 -0.0716  0.3403
 6712SOL    HW121035   4.313   6.099   0.696  1.1004  0.1806 -0.1467
 6712SOL    HW221036   4.298   6.149   0.851 -0.2356 -0.7647  0.0461
 6713SOL     OW21037   5.834   4.007   6.124 -0.0960  0.6842  0.0020
 6713SOL    HW121038   5.926   4.046   6.115  0.2774 -0.0916  0.3771
 6713SOL    HW221039   5.814   3.990   6.220  0.5917 -1.9640 -0.2538
 6714SOL     OW21040   6.587   3.386   1.774  0.4689 -0.0671  0.2455
 6714SOL    HW121041   6.648   3.355   1.701 -1.0584  3.0181 -2.6538
 6714SOL    HW221042   6.492   3.365   1.749 -0.2837  3.0201  0.0412
 6715SOL     OW21043   1.169   4.822   6.750  0.0590 -0.5046 -0.1636
 6715SOL    HW121044   1.206   4.877   6.675  1.5826  0.4432  1.2216
 6715SOL    HW221045   1.191   4.726   6.736 -1.8682 -0.7495 -2.1663
 6716SOL     OW21046   0.910   4.884   2.179 -0.2527 -0.4760  0.3814
 6716SOL    HW121047   0.906   4.942   2.260 -0.6098 -0.7105  0.5327
 6716SOL    HW221048   0.944   4.794   2.205 -0.7705 -0.6838  0.3499
 6717SOL     OW21049   2.597   3.253   5.743 -0.3885  0.1307  0.0602
 6717SOL    HW121050   2.669   3.229   5.808 -1.0140 -0.6734  0.4685
 6717SOL    HW221051   2.580   3.176   5.682 -1.7148 -0.1270  0.7248
 6718SOL     OW21052   5.106   4.799   4.984 -0.5349 -0.8467 -0.3010
 6718SOL    HW121053   5.109   4.716   5.040 -0.0639 -0.6569 -0.0393
 6718SOL    HW221054   5.157   4.783   4.899 -0.1966 -0.7328 -0.1207
 6719SOL     OW21055   4.628   0.483   0.338  0.3584  0.1562  0.3378
 6719SOL    HW121056   4.671   0.503   0.249 -3.1067  2.5966 -1.0140
 6719SOL    HW221057   4.654   0.553   0.404 -1.0645  1.4096 -0.3676
 6720SOL     OW21058   6.304   2.501   0.071  0.5222 -0.1632 -0.3329
 6720SOL    HW121059   6.345   2.415   0.042 -0.3499  0.1380 -2.6013
 6720SOL    HW221060   6.231   2.483   0.136  1.2713 -0.9986  0.3136
 6721SOL     OW21061   6.613   6.120   3.928  0.2570 -0.4921  0.0127
 6721SOL    HW121062   6.514   6.105   3.937  0.1245  0.2103 -0.1995
 6721SOL    HW221063   6.652   6.049   3.870 -0.3814  0.0675 -1.1353
 6722SOL     OW21064   4.841   0.118   3.570 -0.1442  0.2474  0.0055
 6722SOL    HW121065   4.749   0.133   3.606 -0.4024  0.5091 -0.7331
 6722SOL    HW221066   4.898   0.198   3.591 -0.4130  0.5852 -0.5184
 6723SOL     OW21067   1.114   0.378   3.289  0.0935 -0.6192  0.4342
 6723SOL    HW121068   1.019   0.363   3.318  0.5010 -1.8738  1.1920
 6723SOL    HW221069   1.141   0.472   3.311 -1.0689 -0.1298 -0.1211
 6724SOL     OW21070   3.888   5.517   3.942  0.1751 -0.0604  0.1832
 6724SOL    HW121071   3.819   5.446   3.957 -1.7027  1.3785 -1.2370
 6724SOL    HW221072   3.902   5.569   4.026  0.7035 -1.3254  0.9044
 6725SOL     OW21073   0.802   6.381   4.493 -0.2657 -0.7997  0.5103
 6725SOL    HW121074   0.873   6.343   4.552  0.7311  0.8967  0.4812
 6725SOL    HW221075   0.747   6.447   4.546  0.0775  0.0798 -0.2024
 6726SOL     OW21076   1.375   6.453   2.805 -0.0417 -0.6437  0.0077
 6726SOL    HW121077   1.431   6.389   2.752 -0.1406 -2.1066  1.6183
 6726SOL    HW221078   1.402   6.450   2.901 -0.8994  0.8342  0.3245
 6727SOL     OW21079   4.055   4.902   4.458  0.1738  0.2398 -0.4071
 6727SOL    HW121080   4.126   4.914   4.527  0.1187  1.8778 -0.6042
 6727SOL    HW221081   3.969   4.876   4.503  1.0494 -2.8558 -0.2453
 6728SOL     OW21082   0.511   4.089   5.428  0.0737 -0.2646 -0.5459
 6728SOL    HW121083   0.574   4.022   5.388 -0.8863 -0.7620 -1.2526
 6728SOL    HW221084   0.546   4.181   5.411  2.2161 -0.5333  1.7536
 6729SOL     OW21085   0.810   5.016   4.241 -1.0142  0.1248  0.2138
 6729SOL    HW121086   0.770   5.062   4.321  2.8180  0.5655  2.1196
 6729SOL    HW221087   0.838   5.085   4.174 -0.3307  0.1692  0.5283
 6730SOL     OW21088   0.151   0.473   2.252  0.5121 -0.4809 -0.5218
 6730SOL    HW121089   0.244   0.456   2.285 -0.5059  0.0072  2.8719
 6730SOL    HW221090   0.138   0.572   2.241  0.5585 -0.5874 -1.7770
 6731SOL     OW21091   1.303   3.802   6.188  0.1359 -0.0886 -0.1708
 6731SOL    HW121092   1.277   3.808   6.285  2.7336 -0.3465  0.6208
 6731SOL    HW221093   1.399   3.826   6.178  0.0438 -0.4978 -2.6633
 6732SOL     OW21094   1.132   0.287   0.262  0.2439  0.2481  0.1695
 6732SOL    HW121095   1.081   0.349   0.203 -0.5431 -0.5566 -0.0189
 6732SOL    HW221096   1.089   0.197   0.261  0.9250 -0.1045  1.0256
 6733SOL     OW21097   5.061   6.992   4.060 -0.5624  0.8892 -0.1143
 6733SOL    HW121098   5.024   7.075   4.103  1.1612  1.9359 -0.5364
 6733SOL    HW221099   5.138   7.017   4.000 -0.2072 -0.9920 -0.5082
 6734SOL     OW21100   3.119   2.953   6.204 -0.1684  0.1972 -0.0193
 6734SOL    HW121101   3.128   3.045   6.244  0.8101 -0.3222  1.0103
 6734SOL    HW221102   3.023   2.928   6.200 -0.4228  1.1307  0.0076
 6735SOL     OW21103   5.379   4.126   3.469  0.3325  0.4088  0.1449
 6735SOL    HW121104   5.313   4.145   3.542  0.2811 -0.0388  0.2172
 6735SOL    HW221105   5.423   4.211   3.441 -0.3180  0.7266  0.0565
 6736SOL     OW21106   4.196   2.442   6.449 -0.5164  0.4927 -0.2661
 6736SOL    HW121107   4.140   2.462   6.529 -0.7091  0.8885 -0.4922
 6736SOL    HW221108   4.197   2.344   6.432 -0.7390  0.4378  0.0337
 6737SOL     OW21109   3.960   4.358   0.474 -0.1207 -0.0137  0.4267
 6737SOL    HW121110   3.965   4.345   0.375 -1.1780 -0.4255  0.4088
 6737SOL    HW221111   3.870   4.396   0.498  0.7630  1.8035  1.0714
 6738SOL     OW21112   2.448   1.844   6.245  0.0812  0.1373  0.1230
 6738SOL    HW121113   2.547   1.835   6.260  0.0071 -1.6219 -0.1320
 6738SOL    HW221114   2.407   1.753   6.247 -1.8680  0.9811  2.2215
 6739SOL     OW21115   2.956   3.254   2.487 -0.0971  0.0509  0.0438
 6739SOL    HW121116   2.874   3.247   2.430 -1.1046  1.7747  1.1605
 6739SOL    HW221117   3.022   3.314   2.442 -0.8625  1.3547  0.5651
 6740SOL     OW21118   5.744   5.352   3.497  0.1292 -0.2558 -0.2431
 6740SOL    HW121119   5.692   5.269   3.473 -1.3088  0.3460  0.6299
 6740SOL    HW221120   5.686   5.432   3.483  0.7474  0.4330  1.0103
 6741SOL     OW21121   1.260   1.786   2.011 -0.0801  0.0325  0.2073
 6741SOL    HW121122   1.323   1.847   2.059  0.2900 -0.5302  0.4419
 6741SOL    HW221123   1.273   1.797   1.912  2.3853 -2.0407  0.1934
 6742SOL     OW21124   0.301   5.163   4.129  0.0978 -0.8171  0.2508
 6742SOL    HW121125   0.281   5.068   4.104  1.3497 -0.6195 -1.7060
 6742SOL    HW221126   0.400   5.174   4.140 -0.1572 -0.1304  2.3970
 6743SOL     OW21127   6.551   2.745   2.109 -0.5997 -0.7464  0.0631
 6743SOL    HW121128   6.577   2.721   2.202  0.9859 -0.5826 -0.3110
 6743SOL    HW221129   6.528   2.843   2.105  1.7842 -0.1173 -0.1449
 6744SOL     OW21130   4.581   5.409   6.620  0.3500  0.3234 -0.1623
 6744SOL    HW121131   4.598   5.384   6.716 -0.2952  0.3482 -0.0367
 6744SOL    HW221132   4.492   5.373   6.592  0.6144  0.1749 -0.8058
 6745SOL     OW21133   2.179   1.018   2.024  0.0063  0.2020 -0.0317
 6745SOL    HW121134   2.175   1.078   1.944 -3.1761 -1.2011 -1.1039
 6745SOL    HW221135   2.193   0.923   1.994 -0.6553 -0.2794  1.0862
 6746SOL     OW21136   5.835   5.203   5.673  0.0943 -0.1627  0.1045
 6746SOL    HW121137   5.738   5.180   5.675 -0.1621  0.9159  0.7148
 6746SOL    HW221138   5.883   5.152   5.746  0.3058 -1.9160 -1.1876
 6747SOL     OW21139   6.882   5.920   2.563  0.1095 -0.1863  0.0025
 6747SOL    HW121140   6.866   5.895   2.467 -1.1836  2.4362 -0.5690
 6747SOL    HW221141   6.795   5.915   2.613  0.1122  1.5012  0.2153
 6748SOL     OW21142   3.653   0.910   5.557 -0.1940  0.1933 -0.2969
 6748SOL    HW121143   3.728   0.922   5.623  0.5593 -0.7464 -0.9469
 6748SOL    HW221144   3.566   0.933   5.600  0.3440  0.1241  0.8544
 6749SOL     OW21145   6.904   2.419   1.833  0.1089 -0.1641  0.7580
 6749SOL    HW121146   6.810   2.388   1.824 -0.0843  0.0903  1.7007
 6749SOL    HW221147   6.955   2.355   1.890  0.6750 -0.6110 -0.2297
 6750SOL     OW21148   0.138   2.634   5.740  0.3387 -0.6650  0.0645
 6750SOL    HW121149   0.192   2.714   5.767 -0.9257 -0.5813  2.6085
 6750SOL    HW221150   0.188   2.550   5.764  1.9809 -0.7792 -3.2384
 6751SOL     OW21151   3.898   1.366   6.934 -0.2958  0.1829 -0.1452
 6751SOL    HW121152   3.817   1.383   6.990  0.0777  1.9568 -0.0861
 6751SOL    HW221153   3.936   1.453   6.903  1.0572 -0.6551 -0.9447
 6752SOL     OW21154   6.235   1.839   3.821 -0.3303 -0.4125  0.2934
 6752SOL    HW121155   6.197   1.885   3.902  1.2147  1.6997 -0.0836
 6752SOL    HW221156   6.315   1.786   3.847  2.2792  2.9535 -0.1087
 6753SOL     OW21157   2.451   6.193   4.945 -0.6262  0.3414 -0.0476
 6753SOL    HW121158   2.406   6.140   5.017 -1.0141  1.0007  0.1974
 6753SOL    HW221159   2.516   6.134   4.896  1.2336  0.4171  2.2018
 6754SOL     OW21160   1.331   2.305   3.182 -0.5285  0.3280 -0.5006
 6754SOL    HW121161   1.281   2.293   3.268  0.4404 -0.7767 -0.0593
 6754SOL    HW221162   1.327   2.220   3.129  0.0026  0.5648 -0.9346
 6755SOL     OW21163   1.692   1.842   5.375  0.0671  0.0917 -0.1905
 6755SOL    HW121164   1.627   1.918   5.383 -0.4274 -0.4543  1.1655
 6755SOL    HW221165   1.784   1.879   5.363 -0.3813  0.8774 -1.3792
 6756SOL     OW21166   2.415   3.426   5.650  0.4602  0.2983  0.0588
 6756SOL    HW121167   2.492   3.387   5.700  0.1889 -0.8523 -0.3681
 6756SOL    HW221168   2.404   3.522   5.674  1.8411  0.4017  0.3375
 6757SOL     OW21169   5.845   5.732   1.279 -0.6636  0.4503  0.6585
 6757SOL    HW121170   5.942   5.717   1.297 -0.3875  0.4584 -0.7248
 6757SOL    HW221171   5.810   5.656   1.224 -1.2280  0.8949  0.4006
 6758SOL     OW21172   0.298   1.777   0.132  0.1432  0.1003 -0.1056
 6758SOL    HW121173   0.304   1.735   0.222  1.5944  1.8565  0.6838
 6758SOL    HW221174   0.390   1.800   0.100 -0.3677 -0.2865 -1.9527
 6759SOL     OW21175   6.316   5.514   6.683  0.0990  0.1547 -0.2809
 6759SOL    HW121176   6.262   5.444   6.635  0.0933  0.1715 -0.2986
 6759SOL    HW221177   6.408   5.479   6.701  0.9317  1.0175 -2.4888
 6760SOL     OW21178   3.683   4.687   6.318  0.5009 -0.9295  0.2003
 6760SOL    HW121179   3.703   4.708   6.222  2.3897 -1.8578  0.3631
 6760SOL    HW221180   3.619   4.610   6.322 -0.3683 -0.2633 -0.2883
 6761SOL     OW21181   5.357   4.920   5.726 -0.6381  0.0067  0.6048
 6761SOL    HW121182   5.279   4.862   5.751  0.1664 -1.2252  0.3449
 6761SOL    HW221183   5.348   4.949   5.631  0.2871 -2.0278 -0.1807
 6762SOL     OW21184   6.808   3.039   5.595  0.4702 -0.2441  0.3304
 6762SOL    HW121185   6.851   2.949   5.588 -0.1532 -0.5149 -0.1207
 6762SOL    HW221186   6.865   3.107   5.550  0.5444 -0.5578 -0.0532
 6763SOL     OW21187   0.198   6.288   5.960  0.5260 -0.0994  0.6577
 6763SOL    HW121188   0.259   6.362   5.987  0.8529 -0.3786  0.6952
 6763SOL    HW221189   0.251   6.204   5.949  0.5461  0.1589 -1.5732
 6764SOL     OW21190   1.920   4.289   4.186  0.1111 -0.0443  0.6846
 6764SOL    HW121191   1.978   4.315   4.263 -0.1715  0.7772  0.6342
 6764SOL    HW221192   1.862   4.212   4.211  0.4222 -0.1413  1.1036
 6765SOL     OW21193   5.092   6.586   5.103 -0.4133  0.1427  0.0664
 6765SOL    HW121194   5.175   6.532   5.112 -1.1517 -1.4428 -1.8731
 6765SOL    HW221195   5.020   6.547   5.160 -0.2768  0.5771  0.5439
 6766SOL     OW21196   0.114   1.846   5.053  0.1164  0.0363  0.4091
 6766SOL    HW121197   0.042   1.833   5.121  0.1974 -2.8036  0.0641
 6766SOL    HW221198   0.073   1.856   4.962  0.0991 -1.8537  0.1759
 6767SOL     OW21199   1.873   4.366   1.266  0.1916  0.1185 -0.0222
 6767SOL    HW121200   1.820   4.360   1.181 -1.0439  1.0974  0.6450
 6767SOL    HW221201   1.894   4.274   1.299 -1.0501 -0.2893 -0.3413
 6768SOL     OW21202   5.712   4.049   6.632 -0.4338 -0.1566 -0.4104
 6768SOL    HW121203   5.707   4.014   6.539 -0.6937 -1.0259 -0.0798
 6768SOL    HW221204   5.771   3.989   6.687 -0.4614  0.2191  0.0402
 6769SOL     OW21205   1.355   2.771   2.943 -0.0133  0.1420  0.2140
 6769SOL    HW121206   1.414   2.745   3.019 -1.6989 -0.1023  1.5053
 6769SOL    HW221207   1.326   2.690   2.892 -0.5253  0.0850  0.5888
 6770SOL     OW21208   4.059   1.526   4.618  0.3363  0.1744 -0.0255
 6770SOL    HW121209   4.108   1.547   4.702 -1.1396  1.0471  0.6519
 6770SOL    HW221210   4.060   1.427   4.604  2.5481  0.1701 -0.2506
 6771SOL     OW21211   5.121   0.573   3.613  0.2510  0.0957 -0.3772
 6771SOL    HW121212   5.087   0.660   3.580  0.7453  0.7251  0.7120
 6771SOL    HW221213   5.206   0.550   3.567 -0.0359  0.0321 -0.8817
 6772SOL     OW21214   6.311   3.085   1.508  0.4894 -0.0027  0.0850
 6772SOL    HW121215   6.241   3.035   1.559 -1.6296  4.6361  2.2588
 6772SOL    HW221216   6.392   3.097   1.566  0.1906  0.7600  0.3508
 6773SOL     OW21217   0.890   3.530   1.036  0.4449  0.2706  0.5512
 6773SOL    HW121218   0.822   3.564   0.971  0.4896 -0.1242  0.2976
 6773SOL    HW221219   0.959   3.476   0.987 -0.4521 -1.4682  1.1442
 6774SOL     OW21220   3.522   4.277   5.194  0.0839 -0.5104  0.7133
 6774SOL    HW121221   3.602   4.218   5.205  0.4004 -0.7269 -2.0884
 6774SOL    HW221222   3.474   4.254   5.109 -1.4583  1.3712  0.9884
 6775SOL     OW21223   5.312   5.517   2.336  0.0692 -0.5691 -0.0243
 6775SOL    HW121224   5.363   5.592   2.294  0.3050 -1.0754 -0.6669
 6775SOL    HW221225   5.356   5.430   2.314 -0.2779 -0.9125  0.5954
 6776SOL     OW21226   1.126   6.007   5.658  0.9344 -0.1180 -0.0814
 6776SOL    HW121227   1.216   5.965   5.666  0.3967 -1.5338 -1.0806
 6776SOL    HW221228   1.110   6.068   5.735  2.1165 -1.0464  0.9279
 6777SOL     OW21229   3.925   5.312   2.483 -0.2037 -0.5271 -0.2235
 6777SOL    HW121230   3.894   5.230   2.531  0.5023 -1.1418 -0.7722
 6777SOL    HW221231   3.856   5.383   2.489 -0.2588 -0.6793  1.4411
 6778SOL     OW21232   3.385   2.171   5.258 -0.4737  0.5352  0.3430
 6778SOL    HW121233   3.319   2.238   5.223  0.3482  1.0935 -0.1863
 6778SOL    HW221234   3.458   2.219   5.306 -0.2609 -0.0462  0.6050
 6779SOL     OW21235   6.454   2.724   0.168  0.0745 -0.0852 -0.1341
 6779SOL    HW121236   6.428   2.651   0.104  2.0178 -0.5257 -0.4830
 6779SOL    HW221237   6.544   2.703   0.207 -0.0978  1.3011  1.0529
 6780SOL     OW21238   2.507   0.254   4.275  0.0281 -0.1722 -0.1765
 6780SOL    HW121239   2.443   0.301   4.336 -2.0183 -1.1391 -1.4826
 6780SOL    HW221240   2.592   0.307   4.270 -1.0066  1.7240  0.8088
 6781SOL     OW21241   3.679   6.470   2.689  0.0471 -0.1380 -0.1952
 6781SOL    HW121242   3.739   6.479   2.769 -1.8076  0.8631  1.1645
 6781SOL    HW221243   3.627   6.385   2.696  0.6560 -0.5766 -0.9168
 6782SOL     OW21244   0.593   1.129   6.791 -0.3089  0.1876  0.4046
 6782SOL    HW121245   0.555   1.161   6.704  0.8410 -0.5091 -0.3646
 6782SOL    HW221246   0.650   1.201   6.830  0.1563  0.0482 -0.0194
 6783SOL     OW21247   1.047   2.640   6.406 -0.6360  0.0697  0.0314
 6783SOL    HW121248   0.957   2.613   6.441 -1.2126  0.4936 -1.0620
 6783SOL    HW221249   1.040   2.657   6.308  0.4163  1.0679  0.1098
 6784SOL     OW21250   1.368   1.167   3.328  0.3736 -0.1786  0.0024
 6784SOL    HW121251   1.382   1.252   3.378  0.6909  0.2295 -0.7724
 6784SOL    HW221252   1.438   1.158   3.257 -0.4528 -0.4372 -0.7885
 6785SOL     OW21253   3.870   5.539   2.738  0.1462 -0.0475 -0.1207
 6785SOL    HW121254   3.778   5.547   2.778  0.2678 -2.1009  0.7165
 6785SOL    HW221255   3.923   5.473   2.791  1.6931  0.1735 -1.3367
 6786SOL     OW21256   4.328   4.959   2.868 -0.0836 -0.6734 -0.3124
 6786SOL    HW121257   4.327   4.859   2.864  0.5573 -0.7095  0.2231
 6786SOL    HW221258   4.293   4.989   2.957 -0.3489 -0.4167 -0.5019
 6787SOL     OW21259   6.022   3.630   6.647  0.5561 -0.3912  0.1330
 6787SOL    HW121260   6.120   3.643   6.661  0.7721 -1.2005 -0.5387
 6787SOL    HW221261   6.004   3.619   6.550 -0.5717  2.4951 -0.0835
 6788SOL     OW21262   5.833   0.078   5.609  0.2612  0.3790  0.4342
 6788SOL    HW121263   5.890   0.115   5.535 -0.0461  0.6538  0.3308
 6788SOL    HW221264   5.761   0.144   5.630 -0.0918 -0.0207  0.4800
 6789SOL     OW21265   1.574   0.805   6.830 -0.5484  0.4094 -0.5374
 6789SOL    HW121266   1.608   0.719   6.793 -0.6596  0.0535  0.1657
 6789SOL    HW221267   1.566   0.873   6.756 -2.2001 -0.7221 -1.4630
 6790SOL     OW21268   3.828   4.923   4.847 -0.2577 -0.2463 -0.0036
 6790SOL    HW121269   3.925   4.943   4.832 -0.7021  1.3558 -0.9605
 6790SOL    HW221270   3.810   4.919   4.946  0.4680  1.2376  0.2176
 6791SOL     OW21271   3.935   5.903   5.871 -0.0815  0.5685  0.2368
 6791SOL    HW121272   3.857   5.965   5.880 -0.8260 -0.3604  0.2589
 6791SOL    HW221273   3.924   5.848   5.789 -0.5347 -1.0579  1.3453
 6792SOL     OW21274   1.714   0.373   1.560 -0.3021 -0.3496  0.4835
 6792SOL    HW121275   1.725   0.450   1.497 -0.0981 -0.9075 -0.1796
 6792SOL    HW221276   1.764   0.392   1.645  0.9518 -0.3331 -0.2233
 6793SOL     OW21277   6.553   2.808   5.804 -0.5963  0.2533 -0.6247
 6793SOL    HW121278   6.641   2.791   5.760  0.1908  2.3737  0.0211
 6793SOL    HW221279   6.558   2.780   5.900 -1.0334 -0.7220 -0.8762
 6794SOL     OW21280   2.302   3.885   0.955 -0.2067  0.5131  0.1693
 6794SOL    HW121281   2.272   3.882   0.860 -1.6097 -0.7270  0.6260
 6794SOL    HW221282   2.225   3.907   1.014 -0.0863 -1.8697  1.2941
 6795SOL     OW21283   6.834   0.010   0.128  0.5946 -0.3949 -0.0407
 6795SOL    HW121284   6.785   0.052   0.052 -0.5031 -0.6945  0.4708
 6795SOL    HW221285   6.930   0.036   0.125  0.0480  1.8378  0.0306
 6796SOL     OW21286   4.517   6.467   5.622  0.0723  0.2031  0.2702
 6796SOL    HW121287   4.422   6.492   5.600  1.1928  2.1023 -3.2509
 6796SOL    HW221288   4.551   6.403   5.553  1.4739 -0.1936  1.2931
 6797SOL     OW21289   0.887   6.777   1.739  0.1452 -0.3080  0.5705
 6797SOL    HW121290   0.931   6.714   1.675  0.8515  1.6287 -0.9701
 6797SOL    HW221291   0.948   6.795   1.816  0.7235 -0.0972  0.0682
 6798SOL     OW21292   4.357   5.035   5.340 -0.1069  0.1469  0.0389
 6798SOL    HW121293   4.368   5.133   5.355 -1.4328  0.2029  0.8620
 6798SOL    HW221294   4.259   5.014   5.331  0.1368 -1.1500  0.2925
 6799SOL     OW21295   5.069   3.355   3.821  0.1200  0.3484 -0.0349
 6799SOL    HW121296   5.114   3.355   3.910  0.4129 -0.0453 -0.1758
 6799SOL    HW221297   5.124   3.406   3.755  0.5062 -0.3536 -0.2712
 6800SOL     OW21298   1.265   3.646   0.560 -0.3179 -0.0977  0.1376
 6800SOL    HW121299   1.319   3.684   0.635  1.8252 -0.8804 -0.9200
 6800SOL    HW221300   1.211   3.569   0.593 -1.5695  1.2380  1.4101
 6801SOL     OW21301   2.963   0.475   1.647 -0.5618  0.1947  0.2404
 6801SOL    HW121302   2.987   0.486   1.744  0.8480 -0.4779  0.0024
 6801SOL    HW221303   2.875   0.429   1.639 -1.2639  1.3184  1.1892
 6802SOL     OW21304   6.967   2.074   0.723 -0.3363 -0.1859 -0.6544
 6802SOL    HW121305   6.923   1.984   0.717  1.1935 -1.0192  0.0809
 6802SOL    HW221306   7.044   2.077   0.660  0.6978 -0.0481  0.5911
 6803SOL     OW21307   2.617   5.141   0.421  0.7201  0.2626  0.2431
 6803SOL    HW121308   2.568   5.196   0.490 -0.7556 -0.3391 -0.2808
 6803SOL    HW221309   2.567   5.056   0.405  2.3164 -0.7041  0.1381
 6804SOL     OW21310   4.120   3.804   1.630 -0.8493 -0.0411 -1.0186
 6804SOL    HW121311   4.041   3.758   1.589 -1.1515 -1.1216  0.6757
 6804SOL    HW221312   4.114   3.798   1.730  0.5085  1.3658 -0.8146
 6805SOL     OW21313   2.560   6.531   6.209 -0.6634  0.2191  0.2142
 6805SOL    HW121314   2.645   6.567   6.169 -0.6977  0.5928  0.4650
 6805SOL    HW221315   2.574   6.515   6.307 -1.0507  0.8325  0.3748
 6806SOL     OW21316   4.274   6.392   6.590  0.2875  0.0514  0.6260
 6806SOL    HW121317   4.189   6.406   6.640  1.7526  0.9184  3.0277
 6806SOL    HW221318   4.270   6.305   6.542 -1.6149 -0.3265  1.3677
 6807SOL     OW21319   5.953   0.002   6.161  0.2443 -0.0888  0.4857
 6807SOL    HW121320   5.974  -0.001   6.063 -1.3489 -0.5617  0.1358
 6807SOL    HW221321   5.872   0.059   6.176  1.6286  1.6485  1.7812
 6808SOL     OW21322   2.140   5.754   5.164 -0.0409  0.0680  0.5546
 6808SOL    HW121323   2.065   5.777   5.226 -1.0254 -1.9480  0.1774
 6808SOL    HW221324   2.183   5.668   5.193  0.4834 -0.1145 -0.6824
 6809SOL     OW21325   6.063   5.240   1.611 -0.2022  0.0400  0.5906
 6809SOL    HW121326   6.018   5.267   1.525  1.5464  0.7659 -0.1477
 6809SOL    HW221327   6.022   5.291   1.686  2.1286  4.1088 -0.6018
 6810SOL     OW21328   2.197   2.909   4.086 -0.0603  0.3829  0.4862
 6810SOL    HW121329   2.177   2.810   4.089  2.5533 -0.2916 -1.2673
 6810SOL    HW221330   2.221   2.940   4.178 -0.3804 -0.7444  0.9784
 6811SOL     OW21331   5.034   5.306   5.958 -0.1012 -0.1489 -0.3817
 6811SOL    HW121332   4.997   5.315   6.050  0.2998 -0.3231 -0.2010
 6811SOL    HW221333   5.088   5.387   5.935 -0.4416  0.0249 -0.5763
 6812SOL     OW21334   5.498   3.229   0.287  0.0765 -0.5654 -0.1793
 6812SOL    HW121335   5.400   3.215   0.306  0.3284 -0.9375  0.9650
 6812SOL    HW221336   5.515   3.216   0.190 -0.8901 -1.2826 -0.2779
 6813SOL     OW21337   1.786   1.482   5.564 -0.3457  0.4167 -0.0511
 6813SOL    HW121338   1.781   1.536   5.648 -0.8680  1.6543 -0.8504
 6813SOL    HW221339   1.821   1.540   5.490  0.5311 -0.7751 -0.6028
 6814SOL     OW21340   5.394   5.493   1.636 -0.0833 -0.3615 -0.1415
 6814SOL    HW121341   5.443   5.546   1.566 -0.5510 -0.4269 -0.5270
 6814SOL    HW221342   5.311   5.542   1.662  0.0731 -0.3545  0.3494
 6815SOL     OW21343   6.749   0.354   2.183 -0.2079  0.4530  0.2508
 6815SOL    HW121344   6.835   0.324   2.223  0.4459  1.5279 -0.3074
 6815SOL    HW221345   6.720   0.440   2.226 -1.2234 -0.1137  0.7280
 6816SOL     OW21346   5.461   6.704   3.988  0.1591 -0.3291  0.0255
 6816SOL    HW121347   5.411   6.645   3.925  0.1531 -0.2235 -0.0711
 6816SOL    HW221348   5.420   6.701   4.079 -2.0966  2.2712 -0.7766
 6817SOL     OW21349   1.109   2.584   1.130  0.1033 -0.6641  0.3655
 6817SOL    HW121350   1.180   2.532   1.084  1.2813  0.3146  1.0197
 6817SOL    HW221351   1.026   2.584   1.074  2.2316  2.7553 -3.3066
 6818SOL     OW21352   3.944   1.529   2.871  0.1026 -0.1091 -0.7678
 6818SOL    HW121353   4.021   1.571   2.823 -0.5799  1.9680 -0.1364
 6818SOL    HW221354   3.955   1.544   2.969 -0.9151 -0.1054 -0.6482
 6819SOL     OW21355   3.110   5.884   4.879 -0.1834  0.2020  0.8720
 6819SOL    HW121356   3.076   5.835   4.799 -1.1889  1.4516  0.5036
 6819SOL    HW221357   3.207   5.903   4.867 -0.4313  0.8325 -0.3213
 6820SOL     OW21358   4.863   3.847   1.899  0.1556 -0.3203  0.2362
 6820SOL    HW121359   4.839   3.880   1.808  1.1964  1.0062  0.4056
 6820SOL    HW221360   4.876   3.748   1.896  0.8651 -0.2100 -1.2340
 6821SOL     OW21361   7.015   1.000   6.770  0.5408 -0.3682 -0.0153
 6821SOL    HW121362   6.977   0.918   6.727 -1.3124  0.1677  0.5213
 6821SOL    HW221363   7.114   1.003   6.753  0.9012 -3.2913  0.9269
 6822SOL     OW21364   2.391   3.686   5.749 -0.0478  0.9174  0.2233
 6822SOL    HW121365   2.302   3.687   5.704 -0.2643 -0.9906  0.4981
 6822SOL    HW221366   2.378   3.680   5.848  0.2005 -2.7466  0.1897
 6823SOL     OW21367   2.569   2.312   3.731 -0.3338 -0.4387 -0.6490
 6823SOL    HW121368   2.581   2.387   3.667 -0.7290 -0.7486 -1.0947
 6823SOL    HW221369   2.489   2.258   3.705 -1.8316  0.7072  1.3809
 6824SOL     OW21370   4.753   2.938   0.801  0.1444  0.3473 -0.0752
 6824SOL    HW121371   4.844   2.913   0.770  0.3059  0.0816  0.5930
 6824SOL    HW221372   4.686   2.871   0.769 -0.1578  1.6717 -2.3837
 6825SOL     OW21373   0.661   3.282   2.213  0.7455  0.2523  0.0031
 6825SOL    HW121374   0.615   3.319   2.293  2.1120  3.1353 -0.4160
 6825SOL    HW221375   0.760   3.299   2.219  0.8137  1.4105 -2.5949
 6826SOL     OW21376   4.876   5.705   3.801  0.4401  0.5386 -0.0273
 6826SOL    HW121377   4.800   5.653   3.842  1.0922 -0.0445  0.4796
 6826SOL    HW221378   4.843   5.757   3.723  0.0936 -2.1339 -1.7935
 6827SOL     OW21379   6.675   3.150   1.068  0.6714  0.7764 -0.1870
 6827SOL    HW121380   6.599   3.170   1.130 -1.2482  0.2581 -2.2102
 6827SOL    HW221381   6.690   3.051   1.064  1.7751  0.9006  0.5144
 6828SOL     OW21382   4.870   3.159   5.218  0.2106  0.9279  0.0734
 6828SOL    HW121383   4.887   3.257   5.209 -1.3159  1.2572  0.3674
 6828SOL    HW221384   4.804   3.144   5.292 -0.6178 -0.2009 -0.8598
 6829SOL     OW21385   3.177   0.781   5.040  0.0895 -0.0239 -0.1564
 6829SOL    HW121386   3.274   0.776   5.016  0.1062 -2.6896  0.1598
 6829SOL    HW221387   3.149   0.695   5.083 -1.8909  1.5119  1.8719
 6830SOL     OW21388   2.463   0.572   3.635 -0.2906  0.1659 -0.0906
 6830SOL    HW121389   2.475   0.668   3.611  0.3946 -0.3566 -2.0305
 6830SOL    HW221390   2.549   0.534   3.667 -0.9688  0.5958  2.4462
 6831SOL     OW21391   6.609   1.819   4.638  0.5237  0.3020  0.3634
 6831SOL    HW121392   6.688   1.768   4.603  1.1378  1.9201 -0.7310
 6831SOL    HW221393   6.640   1.889   4.702 -0.2972 -0.6128  1.7953
 6832SOL     OW21394   6.208   0.988   6.248  0.2212 -0.3645 -0.0971
 6832SOL    HW121395   6.258   0.916   6.199 -1.5957 -1.1882 -0.8184
 6832SOL    HW221396   6.269   1.031   6.314  1.0076 -3.7105  1.6066
 6833SOL     OW21397   2.822   4.758   0.888 -0.0285 -0.2085  0.0980
 6833SOL    HW121398   2.826   4.794   0.795  0.5016 -0.5884 -0.0303
 6833SOL    HW221399   2.807   4.833   0.952  0.6355  0.1865 -0.2043
 6834SOL     OW21400   2.036   5.808   4.889  0.3628 -0.4162  0.3221
 6834SOL    HW121401   2.093   5.759   4.956 -0.3125 -0.1578  1.1148
 6834SOL    HW221402   2.091   5.834   4.810  1.3330 -0.1844  1.0548
 6835SOL     OW21403   4.658   4.560   6.683 -0.2137  0.1634 -1.3693
 6835SOL    HW121404   4.581   4.600   6.734 -0.7872 -0.5756 -1.6334
 6835SOL    HW221405   4.659   4.595   6.590 -0.1066  0.3326 -1.3038
 6836SOL     OW21406   3.548   0.656   0.301 -0.4216 -0.5174  0.0387
 6836SOL    HW121407   3.579   0.602   0.379 -1.9012 -0.4774  0.6888
 6836SOL    HW221408   3.481   0.604   0.249  0.0012 -0.2496 -0.7859
 6837SOL     OW21409   1.915   5.061   1.127 -0.7227 -0.2072  0.5721
 6837SOL    HW121410   1.816   5.060   1.138 -0.8457 -0.3009 -0.4518
 6837SOL    HW221411   1.958   5.099   1.210 -1.4856 -1.9358  1.8156
 6838SOL     OW21412   0.560   5.601   5.537  0.0711  0.1765 -0.7480
 6838SOL    HW121413   0.492   5.608   5.465  0.7277  0.9215 -1.3176
 6838SOL    HW221414   0.566   5.507   5.570  0.2717 -0.3281 -2.1746
 6839SOL     OW21415   3.009   5.065   0.887  0.1954 -0.0716 -0.1845
 6839SOL    HW121416   3.079   5.005   0.928  1.1849  1.0000 -0.2545
 6839SOL    HW221417   2.947   5.097   0.957 -0.3649 -1.1855 -0.1474
 6840SOL     OW21418   0.642   2.263   0.557 -0.2218 -0.2590  0.7873
 6840SOL    HW121419   0.586   2.211   0.621 -0.0445 -0.9248  0.4096
 6840SOL    HW221420   0.682   2.201   0.489  0.2023  0.3343  0.4838
 6841SOL     OW21421   1.114   2.098   5.247 -0.3817  0.1651 -0.4575
 6841SOL    HW121422   1.112   2.088   5.147 -0.4196  2.4204 -0.7408
 6841SOL    HW221423   1.187   2.160   5.273  0.6354 -1.5805  1.1013
 6842SOL     OW21424   5.632   5.725   6.487  0.2118  0.5200  0.1856
 6842SOL    HW121425   5.610   5.686   6.576  1.8415  1.1216  0.8925
 6842SOL    HW221426   5.731   5.723   6.473  0.0621  1.3037 -1.2098
 6843SOL     OW21427   6.048   4.236   1.113  0.4189 -0.2745  0.0910
 6843SOL    HW121428   6.078   4.143   1.091 -2.1381 -1.2925  0.5202
 6843SOL    HW221429   5.955   4.233   1.150 -0.4127  2.6201 -1.4635
 6844SOL     OW21430   4.886   0.888   4.215 -0.0365 -0.1263 -0.0205
 6844SOL    HW121431   4.983   0.913   4.218 -0.4757  1.6145  0.1653
 6844SOL    HW221432   4.877   0.790   4.235  1.5889 -0.1057  0.9781
 6845SOL     OW21433   4.265   6.114   5.947  0.1259  0.1790  0.2939
 6845SOL    HW121434   4.204   6.157   5.881  0.0359  2.0668  1.5302
 6845SOL    HW221435   4.236   6.020   5.963 -1.9780  0.7781  0.2394
 6846SOL     OW21436   1.113   4.282   5.887 -0.1800 -0.7938  0.4041
 6846SOL    HW121437   1.027   4.248   5.925  0.0844  0.3023  2.0971
 6846SOL    HW221438   1.094   4.346   5.813 -0.8213 -0.5474  0.7760
 6847SOL     OW21439   3.751   1.220   4.013  0.3218  0.1907  0.4945
 6847SOL    HW121440   3.723   1.310   4.048  0.3997 -0.5377  2.5348
 6847SOL    HW221441   3.703   1.202   3.927 -3.0227  0.4236  2.1347
 6848SOL     OW21442   4.512   5.687   2.631 -0.2019  0.5388  0.5118
 6848SOL    HW121443   4.471   5.669   2.542 -0.2733  0.2208  0.6075
 6848SOL    HW221444   4.514   5.603   2.685  1.2897  0.3570  0.2124
 6849SOL     OW21445   3.419   3.569   1.310  0.1439  0.1185  0.4061
 6849SOL    HW121446   3.463   3.634   1.373  2.1789 -1.8809  1.1964
 6849SOL    HW221447   3.481   3.492   1.294 -2.1484 -1.6330 -0.5246
 6850SOL     OW21448   0.496   0.493   4.482  0.2757 -0.3244  0.0037
 6850SOL    HW121449   0.510   0.483   4.383  1.6808  1.9643 -0.0851
 6850SOL    HW221450   0.584   0.495   4.528 -0.3688 -3.2415  1.6275
 6851SOL     OW21451   6.210   1.295   4.024  0.1845  0.0724 -0.2983
 6851SOL    HW121452   6.149   1.238   3.969 -0.1816 -0.4667  0.6528
 6851SOL    HW221453   6.272   1.237   4.077 -0.7310  0.4913  1.3064
 6852SOL     OW21454   0.233   2.755   0.766 -0.5890  0.6106 -0.3932
 6852SOL    HW121455   0.273   2.793   0.682  0.6187 -0.9027 -0.5363
 6852SOL    HW221456   0.261   2.811   0.844 -0.5606  1.2156 -0.8301
 6853SOL     OW21457   6.250   3.551   4.582  0.1297  0.0750  0.4093
 6853SOL    HW121458   6.286   3.488   4.650 -0.8660 -0.3938  0.5334
 6853SOL    HW221459   6.187   3.615   4.626 -0.1463  0.0789  0.0126
 6854SOL     OW21460   4.406   5.876   1.672 -0.3412  0.0203  0.2769
 6854SOL    HW121461   4.324   5.853   1.619  0.8946 -0.5190 -1.5004
 6854SOL    HW221462   4.380   5.902   1.765 -2.2769 -3.5112  0.8917
 6855SOL     OW21463   6.239   0.961   5.222  0.2120  0.0401 -0.2790
 6855SOL    HW121464   6.278   0.903   5.150 -0.7398 -0.8632 -0.0859
 6855SOL    HW221465   6.283   1.051   5.219  2.0847 -0.8162 -0.2524
 6856SOL     OW21466   3.357   6.619   2.750 -0.4323  0.0499  0.2693
 6856SOL    HW121467   3.264   6.609   2.716  0.2287 -1.7087 -1.1838
 6856SOL    HW221468   3.419   6.636   2.673  0.7240 -1.0863  0.9066
 6857SOL     OW21469   2.476   5.610   2.939  0.3970 -0.1313 -0.3331
 6857SOL    HW121470   2.394   5.598   2.995  0.8415  1.7085  0.7917
 6857SOL    HW221471   2.553   5.638   2.997  1.3739 -0.0634 -1.6079
 6858SOL     OW21472   2.405   2.158   5.304  0.1497  0.2214  0.1974
 6858SOL    HW121473   2.475   2.141   5.374 -1.0884 -0.3003  1.3563
 6858SOL    HW221474   2.375   2.254   5.310  0.0910  0.1942  0.3347
 6859SOL     OW21475   0.367   1.783   3.837  0.0197 -0.7791 -0.0981
 6859SOL    HW121476   0.398   1.707   3.780  0.0799 -0.8599  0.0428
 6859SOL    HW221477   0.293   1.832   3.790  0.4022 -0.5433 -0.4651
 6860SOL     OW21478   1.319   6.722   0.107 -0.1956 -0.2502  0.0982
 6860SOL    HW121479   1.266   6.798   0.144 -0.4843 -1.1862  1.6975
 6860SOL    HW221480   1.258   6.652   0.072  0.0722  0.2617 -1.4918
 6861SOL     OW21481   6.697   3.243   1.989 -0.8157 -0.2544  0.3075
 6861SOL    HW121482   6.788   3.231   1.952 -1.4504 -2.8313 -0.5622
 6861SOL    HW221483   6.640   3.292   1.923 -1.0343 -1.8835 -0.7395
 6862SOL     OW21484   2.059   1.674   2.290 -0.0261  0.0726  0.2153
 6862SOL    HW121485   1.989   1.607   2.264  1.3201 -0.8975 -1.0425
 6862SOL    HW221486   2.014   1.758   2.323 -1.7535 -0.8007  0.2014
 6863SOL     OW21487   5.442   1.981   5.138  0.3762  0.4282  0.0744
 6863SOL    HW121488   5.466   2.076   5.157  1.8947  0.3062 -1.0630
 6863SOL    HW221489   5.457   1.961   5.041  1.1800 -1.2704  0.4990
 6864SOL     OW21490   0.650   3.130   2.882  0.5717  0.4838 -0.2868
 6864SOL    HW121491   0.606   3.175   2.960 -0.9003 -1.9028  0.3553
 6864SOL    HW221492   0.747   3.115   2.904 -0.0818 -1.3442  1.7618
 6865SOL     OW21493   5.743   5.098   2.553  0.6657  0.4674  0.1973
 6865SOL    HW121494   5.681   5.170   2.583 -0.4719  0.1765 -1.3557
 6865SOL    HW221495   5.722   5.013   2.601  1.4873  0.9354  1.4419
 6866SOL     OW21496   0.063   1.160   3.424  0.1005  1.0099 -0.4293
 6866SOL    HW121497   0.110   1.235   3.470 -0.6500  0.5920  1.0743
 6866SOL    HW221498  -0.033   1.182   3.412 -0.4854 -0.2622  1.4330
 6867SOL     OW21499   5.878   1.571   4.284  0.2525  0.1809  0.3204
 6867SOL    HW121500   5.841   1.653   4.240 -0.9191  0.3908  1.6291
 6867SOL    HW221501   5.959   1.540   4.233 -1.2863  0.0829 -2.2504
 6868SOL     OW21502   0.736   1.976   6.316 -0.4584 -0.2642  0.3028
 6868SOL    HW121503   0.793   1.916   6.372  0.4187 -0.2210 -0.5117
 6868SOL    HW221504   0.684   1.920   6.251 -0.8772 -0.2535  0.6228
 6869SOL     OW21505   1.290   4.881   1.499 -0.4176  0.3657  0.4520
 6869SOL    HW121506   1.383   4.852   1.477 -0.1274  2.1011 -0.8519
 6869SOL    HW221507   1.290   4.932   1.585 -0.0970  0.5681  0.3355
 6870SOL     OW21508   2.119   6.455   4.381  0.1029  0.4055  0.3229
 6870SOL    HW121509   2.152   6.549   4.385 -0.2077  0.5166  0.2532
 6870SOL    HW221510   2.101   6.430   4.286  1.5928 -0.2128  0.1792
 6871SOL     OW21511   1.118   4.394   0.842  0.2818  0.0382  0.0165
 6871SOL    HW121512   1.201   4.446   0.859 -0.5017  1.6113 -0.7942
 6871SOL    HW221513   1.098   4.336   0.922  1.5517  0.4566  0.6553
 6872SOL     OW21514   2.147   3.137   5.765 -0.3629  0.1642 -0.2898
 6872SOL    HW121515   2.173   3.106   5.674  0.7772  1.4888 -0.4559
 6872SOL    HW221516   2.170   3.234   5.775 -0.9305  0.1747  1.2415
 6873SOL     OW21517   0.927   1.620   1.039 -0.2648 -0.2207  0.1888
 6873SOL    HW121518   0.874   1.554   1.092 -1.1452 -0.1399 -0.5653
 6873SOL    HW221519   1.018   1.630   1.079 -0.7438 -0.5162  1.3866
 6874SOL     OW21520   0.982   2.270   3.073 -0.0292  0.0979 -0.3627
 6874SOL    HW121521   0.883   2.274   3.087 -0.0335 -0.4015 -0.2252
 6874SOL    HW221522   1.027   2.340   3.128 -0.1769 -0.7468  0.8572
 6875SOL     OW21523   0.046   1.634   3.375  0.2682 -0.2294 -0.3303
 6875SOL    HW121524   0.025   1.732   3.375 -0.2593 -0.2928 -2.5439
 6875SOL    HW221525   0.066   1.604   3.282  2.6162 -1.8104  0.5851
 6876SOL     OW21526   1.226   5.073   2.624 -0.0534  0.1551  0.4387
 6876SOL    HW121527   1.326   5.072   2.627  0.0375 -0.0239 -1.3502
 6876SOL    HW221528   1.192   5.166   2.637  0.2672  0.1021  1.8906
 6877SOL     OW21529   1.809   6.206   2.916  0.0902 -0.2466 -0.2523
 6877SOL    HW121530   1.796   6.108   2.905  2.3400 -0.6386  0.1372
 6877SOL    HW221531   1.816   6.228   3.013 -0.4259  0.3201 -0.3377
 6878SOL     OW21532   3.903   2.126   3.458 -0.0015 -0.3914 -0.7089
 6878SOL    HW121533   3.939   2.095   3.370 -1.9663 -2.3435 -0.9025
 6878SOL    HW221534   3.805   2.142   3.451  0.3441  2.9607  0.2802
 6879SOL     OW21535   6.212   0.327   0.777 -0.2370  0.1513  0.0573
 6879SOL    HW121536   6.192   0.301   0.682  0.3619 -0.4088  0.0742
 6879SOL    HW221537   6.288   0.272   0.811  0.1902  1.0274  0.5522
 6880SOL     OW21538   2.992   1.690   4.198  0.4415 -0.1306  0.4017
 6880SOL    HW121539   3.050   1.739   4.263  0.5175 -0.9583  0.9747
 6880SOL    HW221540   2.919   1.751   4.167 -0.4098 -0.0947  2.3223
 6881SOL     OW21541   5.372   1.872   1.403  0.2230 -0.4563  0.0457
 6881SOL    HW121542   5.411   1.864   1.495  0.1291  0.4705  0.1747
 6881SOL    HW221543   5.275   1.849   1.406  0.2246 -0.4458  0.1732
 6882SOL     OW21544   1.270   2.354   0.302  0.1780 -0.0721 -1.0189
 6882SOL    HW121545   1.244   2.259   0.285  1.2510 -0.3793 -1.0227
 6882SOL    HW221546   1.230   2.384   0.389 -0.1515 -0.5394 -1.0073
 6883SOL     OW21547   5.905   6.386   0.171 -0.6031 -0.0368  0.0405
 6883SOL    HW121548   5.971   6.358   0.100  1.1298  0.6945  1.2909
 6883SOL    HW221549   5.813   6.384   0.133  0.3308  1.3836 -2.5932
 6884SOL     OW21550   2.058   6.139   0.457  0.0317 -0.2105  0.2402
 6884SOL    HW121551   2.097   6.144   0.365  1.1030 -0.8541  0.6346
 6884SOL    HW221552   1.978   6.079   0.456  0.2220 -0.4604 -0.2112
 6885SOL     OW21553   5.782   5.738   6.163 -0.5513  0.7082  0.0135
 6885SOL    HW121554   5.682   5.740   6.163 -0.5861 -0.2501 -1.1768
 6885SOL    HW221555   5.814   5.670   6.229 -0.7533 -0.4170 -1.0213
 6886SOL     OW21556   4.809   3.473   6.955  0.1303 -0.0532 -0.4349
 6886SOL    HW121557   4.717   3.495   6.986 -0.1246  0.4616 -1.5097
 6886SOL    HW221558   4.870   3.466   7.034 -1.0262 -1.4317  0.3840
 6887SOL     OW21559   3.108   4.208   1.776 -0.3641 -0.2706 -0.0736
 6887SOL    HW121560   3.050   4.232   1.854 -0.3591 -1.3589  0.2855
 6887SOL    HW221561   3.106   4.282   1.709 -1.2339  0.2134  0.4655
 6888SOL     OW21562   2.534   4.653   3.202 -0.1305 -0.1333  0.3775
 6888SOL    HW121563   2.454   4.682   3.150  0.0013 -1.2108 -0.4674
 6888SOL    HW221564   2.574   4.731   3.249 -1.1467  0.5804  0.0800
 6889SOL     OW21565   6.776   2.086   4.169 -0.5534 -0.3545 -0.0501
 6889SOL    HW121566   6.711   2.159   4.147  0.0427 -0.2596 -1.6088
 6889SOL    HW221567   6.757   2.052   4.261 -1.3295  1.2297  0.4169
 6890SOL     OW21568   3.246   2.962   4.854 -0.1918 -0.2904 -0.0132
 6890SOL    HW121569   3.197   2.964   4.767  0.0702  0.3428 -0.1471
 6890SOL    HW221570   3.181   2.971   4.929 -0.4067 -0.7245 -0.1447
 6891SOL     OW21571   2.154   5.818   0.589  0.2151 -0.1034 -0.4271
 6891SOL    HW121572   2.098   5.856   0.662 -2.3471 -0.1074 -2.2637
 6891SOL    HW221573   2.223   5.886   0.562 -0.2516  0.7547  0.4773
 6892SOL     OW21574   0.346   1.261   1.386  0.0894 -0.3186 -0.8673
 6892SOL    HW121575   0.434   1.308   1.397  1.0861 -2.2635 -0.1985
 6892SOL    HW221576   0.337   1.227   1.293 -0.3765  0.6511 -1.1886
 6893SOL     OW21577   5.431   2.420   1.125  0.0578 -0.1474 -0.0120
 6893SOL    HW121578   5.336   2.390   1.117  0.0365  0.1609 -1.0997
 6893SOL    HW221579   5.489   2.359   1.070  0.2113  0.8604 -0.9960
 6894SOL     OW21580   2.872   6.653   6.918 -0.2790 -0.4425 -0.2216
 6894SOL    HW121581   2.792   6.711   6.934 -0.6588 -0.9002 -0.4578
 6894SOL    HW221582   2.849   6.581   6.853  0.4144 -0.3906 -0.5410
 6895SOL     OW21583   0.152   4.204   6.817  0.1491 -0.2069  0.2116
 6895SOL    HW121584   0.070   4.158   6.782  0.8273 -1.5395  0.2761
 6895SOL    HW221585   0.196   4.254   6.743  0.0181 -0.6316 -0.1581
 6896SOL     OW21586   4.802   5.276   2.891 -0.0966  0.2559 -0.7889
 6896SOL    HW121587   4.753   5.357   2.922  0.7140  1.4746 -2.5023
 6896SOL    HW221588   4.794   5.268   2.792  2.0463 -0.2445 -0.9696
 6897SOL     OW21589   4.702   2.285   4.529  0.4079 -0.4177  0.2297
 6897SOL    HW121590   4.634   2.347   4.491  0.0740 -0.2706  1.0502
 6897SOL    HW221591   4.677   2.191   4.506  1.7065 -0.2424 -2.3087
 6898SOL     OW21592   3.852   2.527   1.076 -0.2083 -0.0417  0.0935
 6898SOL    HW121593   3.931   2.530   1.015 -0.5120 -1.8340 -0.4458
 6898SOL    HW221594   3.872   2.465   1.153 -0.4819  0.8085  0.8609
 6899SOL     OW21595   2.278   2.473   3.822 -0.4278 -0.0233 -0.2211
 6899SOL    HW121596   2.348   2.414   3.862 -1.5717 -1.1650  0.1772
 6899SOL    HW221597   2.319   2.529   3.750  0.8141 -0.9253 -0.2539
 6900SOL     OW21598   3.933   6.368   4.777 -1.0264  0.3408  0.3040
 6900SOL    HW121599   3.889   6.401   4.860 -1.6225 -0.5300  0.3418
 6900SOL    HW221600   4.022   6.328   4.800 -0.5283  1.4026  0.3200
 6901SOL     OW21601   5.576   2.107   6.602 -0.1526 -0.5114 -0.2049
 6901SOL    HW121602   5.652   2.053   6.566 -0.3205 -0.8904  0.0070
 6901SOL    HW221603   5.494   2.090   6.548 -0.1278 -0.2205 -0.3365
 6902SOL     OW21604   5.700   2.560   1.368 -0.0826  0.2317  0.2652
 6902SOL    HW121605   5.633   2.587   1.438 -0.0364  0.6462  0.1538
 6902SOL    HW221606   5.661   2.575   1.277 -0.0629 -0.1067  0.2011
 6903SOL     OW21607   0.292   4.937   2.198  0.2674 -0.3113 -0.2256
 6903SOL    HW121608   0.267   5.026   2.234  1.6274  0.3534 -0.8560
 6903SOL    HW221609   0.224   4.869   2.227 -0.8076  0.9157  0.2217
 6904SOL     OW21610   4.659   5.718   3.156 -0.0357  0.0611 -0.0956
 6904SOL    HW121611   4.647   5.782   3.232 -1.3860 -0.2086 -0.0464
 6904SOL    HW221612   4.645   5.767   3.070 -4.3826 -0.6529 -0.0105
 6905SOL     OW21613   2.168   0.111   6.197 -0.6006 -0.0965 -0.0044
 6905SOL    HW121614   2.125   0.074   6.279 -1.1454  1.0462  0.2481
 6905SOL    HW221615   2.129   0.066   6.116 -0.8845 -0.4205  0.3055
 6906SOL     OW21616   0.502   4.626   0.838  0.3555 -0.0698  0.4237
 6906SOL    HW121617   0.421   4.581   0.799  1.4639 -1.9231  0.1321
 6906SOL    HW221618   0.556   4.558   0.889  1.4065  1.2676  1.1443
 6907SOL     OW21619   6.599   4.183   2.391  0.2731  0.4220 -0.1503
 6907SOL    HW121620   6.506   4.190   2.353  0.2641  0.8894 -0.0503
 6907SOL    HW221621   6.598   4.205   2.488  0.0433 -2.3381  0.5277
 6908SOL     OW21622   4.072   6.032   5.436 -0.1075  0.1035  0.3436
 6908SOL    HW121623   4.006   6.094   5.393  1.0996  0.3106 -1.3242
 6908SOL    HW221624   4.154   6.083   5.463 -0.2284 -0.3052  1.5525
 6909SOL     OW21625   5.988   4.591   6.697 -0.7165 -0.2628  0.2032
 6909SOL    HW121626   5.933   4.656   6.751 -0.8083  0.4809 -0.7587
 6909SOL    HW221627   5.992   4.504   6.746  1.1712  1.0271  2.5908
 6910SOL     OW21628   3.313   6.910   5.221  0.1620 -0.1638 -0.6448
 6910SOL    HW121629   3.291   6.934   5.126 -1.3649 -1.8131 -0.7620
 6910SOL    HW221630   3.341   6.814   5.225  0.2648 -0.0926  0.5726
 6911SOL     OW21631   5.363   5.556   1.281 -0.4325 -0.0752  0.3143
 6911SOL    HW121632   5.367   5.459   1.255  1.8640  0.3821 -1.3389
 6911SOL    HW221633   5.443   5.578   1.337 -0.5029  1.0438 -0.0129
 6912SOL     OW21634   4.829   5.013   6.985  0.0064  0.4655 -0.0824
 6912SOL    HW121635   4.756   4.978   6.927 -0.5809  0.6783  0.5087
 6912SOL    HW221636   4.880   5.084   6.937 -1.3736  1.6621  0.1435
 6913SOL     OW21637   0.567   4.268   0.357 -0.0412 -0.4451 -0.4617
 6913SOL    HW121638   0.599   4.184   0.314  1.8220  0.5893 -1.2055
 6913SOL    HW221639   0.615   4.282   0.444 -1.0077 -0.5882  0.1122
 6914SOL     OW21640   1.445   5.271   5.876  0.3621  0.1585  0.2984
 6914SOL    HW121641   1.472   5.183   5.838 -0.3867  0.2351 -0.4493
 6914SOL    HW221642   1.412   5.330   5.803  0.0301  0.7444  0.9090
 6915SOL     OW21643   2.018   0.079   5.968 -0.0470 -0.0742 -0.1803
 6915SOL    HW121644   2.023   0.163   5.914  0.8428  1.2762  1.8780
 6915SOL    HW221645   1.956   0.015   5.924  2.4821 -0.1449 -4.1462
 6916SOL     OW21646   0.956   2.928   6.757 -0.1528 -0.5881  0.3192
 6916SOL    HW121647   0.917   2.944   6.666 -1.9180  0.4728  1.2145
 6916SOL    HW221648   1.047   2.969   6.761  0.6961 -2.1149 -1.4563
 6917SOL     OW21649   4.940   3.469   6.295 -0.5466 -0.1226  0.4434
 6917SOL    HW121650   4.999   3.502   6.221 -1.2947  0.3739  0.0560
 6917SOL    HW221651   4.982   3.388   6.336  0.7407  0.6100  0.6411
 6918SOL     OW21652   5.107   2.718   0.923 -0.1845  0.1848 -0.5654
 6918SOL    HW121653   5.071   2.626   0.908 -0.2132  0.3157 -1.3458
 6918SOL    HW221654   5.070   2.780   0.853 -0.6349  0.9199  0.3081
 6919SOL     OW21655   6.636   3.526   3.485 -0.5493  0.4281  0.2605
 6919SOL    HW121656   6.728   3.544   3.520 -0.4951  1.2385 -0.2658
 6919SOL    HW221657   6.569   3.577   3.538 -0.8922 -1.3733  1.6616
 6920SOL     OW21658   1.588   5.429   5.557  0.3519 -0.6097 -0.3392
 6920SOL    HW121659   1.494   5.428   5.592  0.3199  0.9609 -0.3338
 6920SOL    HW221660   1.637   5.349   5.592 -0.4481 -0.4750  1.1697
 6921SOL     OW21661   5.797   5.203   2.923 -0.6189  0.5352 -0.0393
 6921SOL    HW121662   5.736   5.279   2.899  0.7326  2.0080  0.9463
 6921SOL    HW221663   5.765   5.161   3.008 -2.1454 -0.9431 -1.2883
 6922SOL     OW21664   3.433   3.535   4.648  0.0011  0.6245 -0.0058
 6922SOL    HW121665   3.467   3.446   4.678  0.8983  0.4929 -1.3104
 6922SOL    HW221666   3.383   3.579   4.722  2.0803  0.3192  1.6816
 6923SOL     OW21667   1.827   6.289   2.372  0.0371 -0.0430 -0.4725
 6923SOL    HW121668   1.781   6.279   2.460 -1.8789 -1.1018 -1.5324
 6923SOL    HW221669   1.873   6.204   2.348 -0.9383 -0.3674 -1.2618
 6924SOL     OW21670   1.104   6.940   5.860 -0.3628 -0.2650 -0.1585
 6924SOL    HW121671   1.164   6.977   5.789 -1.9404  0.0352 -1.3982
 6924SOL    HW221672   1.078   6.847   5.835 -1.5590  0.1215 -0.4228
 6925SOL     OW21673   2.487   1.134   1.524  0.2424  0.6611 -0.1687
 6925SOL    HW121674   2.413   1.093   1.578  0.5273 -1.1607 -1.0792
 6925SOL    HW221675   2.448   1.179   1.444  0.0468  0.5015 -0.1659
 6926SOL     OW21676   5.902   0.674   4.399 -0.3685 -0.4486 -0.2138
 6926SOL    HW121677   5.898   0.759   4.347  0.9618 -0.6518 -0.6716
 6926SOL    HW221678   5.926   0.695   4.494 -0.0725 -0.3056 -0.3182
 6927SOL     OW21679   2.341   1.469   3.959 -0.8854 -0.5220  0.0714
 6927SOL    HW121680   2.438   1.452   3.976 -0.9800 -0.1119  1.1022
 6927SOL    HW221681   2.330   1.510   3.869 -0.4707 -4.0320 -1.7318
 6928SOL     OW21682   1.147   2.473   5.833  0.0707  0.2336 -0.0454
 6928SOL    HW121683   1.194   2.535   5.770  0.9498  0.2496  0.5939
 6928SOL    HW221684   1.115   2.524   5.913  0.6585 -0.0825  0.4091
 6929SOL     OW21685   6.011   6.454   2.943  0.3993  0.0326  0.0549
 6929SOL    HW121686   6.054   6.366   2.965  1.2525  0.3382 -0.3625
 6929SOL    HW221687   6.046   6.487   2.856 -0.6435  0.3288 -0.2628
 6930SOL     OW21688   0.745   6.284   2.723 -0.9081 -0.3025  0.1085
 6930SOL    HW121689   0.672   6.217   2.704 -1.3625  0.5377 -1.3152
 6930SOL    HW221690   0.786   6.313   2.636 -1.0119  1.5694  0.6473
 6931SOL     OW21691   0.470   5.488   4.664  0.3142 -0.5148  0.1873
 6931SOL    HW121692   0.449   5.558   4.733  0.0964 -0.1239 -0.2719
 6931SOL    HW221693   0.407   5.497   4.587  0.5825 -0.9242 -0.0822
 6932SOL     OW21694   6.656   2.300   5.625 -0.8284 -0.5357 -0.0914
 6932SOL    HW121695   6.562   2.329   5.643  0.2257  2.2468  1.4984
 6932SOL    HW221696   6.674   2.213   5.671 -2.0749 -0.1510  1.1836
 6933SOL     OW21697   5.895   2.442   3.939  0.2053  0.4206  0.4650
 6933SOL    HW121698   5.955   2.518   3.913  0.3261  0.1328 -0.1173
 6933SOL    HW221699   5.950   2.360   3.953  0.1923  0.6398  2.0214
 6934SOL     OW21700   0.667   2.681   1.855 -0.1064 -0.5812 -0.6395
 6934SOL    HW121701   0.588   2.620   1.845 -1.4163  0.6098  1.4885
 6934SOL    HW221702   0.741   2.633   1.902 -0.9241 -0.7328  0.5443
 6935SOL     OW21703   1.526   2.310   0.397 -0.2998 -0.3282  0.1033
 6935SOL    HW121704   1.435   2.320   0.356 -0.0711  0.8228 -0.1562
 6935SOL    HW221705   1.524   2.346   0.491 -0.0768 -0.1197  0.0310
 6936SOL     OW21706   3.394   2.759   1.949  0.0556 -0.1889  0.1983
 6936SOL    HW121707   3.316   2.817   1.974  0.5863  0.6867 -0.1093
 6936SOL    HW221708   3.479   2.802   1.982  0.7265  0.6213 -2.2958
 6937SOL     OW21709   4.070   3.863   4.485  0.2134  0.1697  0.2387
 6937SOL    HW121710   4.114   3.945   4.520  0.1686 -0.1229  0.9905
 6937SOL    HW221711   4.119   3.782   4.517 -1.7454 -0.2516  2.4575
 6938SOL     OW21712   5.826   3.425   5.193  0.2265  0.0002 -0.2244
 6938SOL    HW121713   5.887   3.386   5.263 -0.1788  0.4669  0.3906
 6938SOL    HW221714   5.752   3.361   5.175  0.6000 -0.3376 -0.5924
 6939SOL     OW21715   6.829   5.929   1.573  0.1732 -0.1679 -0.2345
 6939SOL    HW121716   6.885   5.899   1.650 -0.6602 -2.5698 -0.4712
 6939SOL    HW221717   6.840   5.865   1.497 -2.7396 -0.6960 -0.3249
 6940SOL     OW21718   4.521   4.786   4.320  0.0509  0.3142 -0.3809
 6940SOL    HW121719   4.503   4.696   4.281 -1.6379  0.4624  0.0086
 6940SOL    HW221720   4.462   4.854   4.277  0.0432  0.9324  0.5770
 6941SOL     OW21721   6.947   2.215   2.439 -0.1914  0.5409 -0.1161
 6941SOL    HW121722   6.883   2.182   2.369  0.7782  0.6510 -1.0733
 6941SOL    HW221723   6.981   2.305   2.412 -1.1699  1.4115  1.4036
 6942SOL     OW21724   5.566   5.519   6.068 -0.4998  1.0103 -0.7412
 6942SOL    HW121725   5.597   5.540   5.976  0.0885  0.8118 -0.5946
 6942SOL    HW221726   5.504   5.440   6.066  0.2551  0.4107 -0.8629
 6943SOL     OW21727   0.948   5.379   0.231  0.1471 -0.0612  0.3650
 6943SOL    HW121728   0.948   5.283   0.202 -0.0617  0.6070 -2.0892
 6943SOL    HW221729   0.870   5.396   0.291  0.4134 -1.4951  1.1578
 6944SOL     OW21730   6.261   4.331   2.916 -0.3655 -0.4624  0.1936
 6944SOL    HW121731   6.280   4.334   2.818 -0.0411  1.0497  0.2664
 6944SOL    HW221732   6.190   4.398   2.939 -1.0832 -1.4295  0.8778
 6945SOL     OW21733   6.216   0.955   5.501  0.3752 -0.6645 -0.4764
 6945SOL    HW121734   6.193   0.861   5.527 -1.2854 -0.6832 -1.8347
 6945SOL    HW221735   6.273   0.954   5.419  0.2185 -0.4757 -0.5868
 6946SOL     OW21736   3.734   2.040   2.985 -0.3171  0.0482  0.5997
 6946SOL    HW121737   3.732   1.942   2.964  3.0270  0.0152 -0.1149
 6946SOL    HW221738   3.709   2.092   2.904  1.2103 -0.2131 -0.0617
 6947SOL     OW21739   1.085   2.297   3.661  0.6119  0.3630  0.2005
 6947SOL    HW121740   1.124   2.212   3.697  0.2804  0.1724  0.1172
 6947SOL    HW221741   1.134   2.375   3.698 -0.2862  0.2173  1.7943
 6948SOL     OW21742   4.634   4.609   1.084  0.0798 -0.4340 -0.2277
 6948SOL    HW121743   4.682   4.563   1.160  0.2688  0.5005  0.2328
 6948SOL    HW221744   4.645   4.708   1.093  1.0858 -0.3450 -2.1413
 6949SOL     OW21745   0.949   5.719   0.476  0.3719 -0.1944 -0.3395
 6949SOL    HW121746   1.014   5.677   0.414  1.0558  0.4821 -0.1078
 6949SOL    HW221747   0.895   5.787   0.427  1.6091  1.0779 -0.0297
 6950SOL     OW21748   2.457   2.968   1.694 -0.3647 -0.0364 -0.1607
 6950SOL    HW121749   2.409   3.055   1.706  2.4620  1.2983  3.7648
 6950SOL    HW221750   2.554   2.986   1.679  0.2764 -2.4755  0.5864
 6951SOL     OW21751   2.628   1.472   4.771  0.6633  0.3205 -0.3442
 6951SOL    HW121752   2.710   1.528   4.777  0.3208  0.7925 -0.0112
 6951SOL    HW221753   2.548   1.527   4.796  0.4493 -0.6219  1.1391
 6952SOL     OW21754   0.181   1.024   1.775  0.2167 -0.5530 -0.1204
 6952SOL    HW121755   0.234   0.942   1.755  0.1058 -0.6252 -0.1188
 6952SOL    HW221756   0.086   1.011   1.745 -0.5236 -1.5047  2.4272
 6953SOL     OW21757   5.897   0.607   4.985 -0.5784 -0.2371 -0.0846
 6953SOL    HW121758   5.864   0.683   5.041  1.2957  0.8528 -0.3636
 6953SOL    HW221759   5.829   0.584   4.916 -0.7989  1.9509 -0.6863
 6954SOL     OW21760   0.628   4.518   2.596  0.8380  1.0091 -0.1120
 6954SOL    HW121761   0.674   4.582   2.658  1.3457  0.1791  0.3826
 6954SOL    HW221762   0.622   4.428   2.639  1.4262  0.3404 -1.3609
 6955SOL     OW21763   4.029   5.398   2.221  0.5275 -0.0701  0.4006
 6955SOL    HW121764   3.988   5.344   2.294  0.4960 -2.9452 -1.5954
 6955SOL    HW221765   4.053   5.338   2.145  2.1726  2.5374 -1.2696
 6956SOL     OW21766   3.346   0.693   3.996 -0.4676 -0.0236 -0.0756
 6956SOL    HW121767   3.368   0.764   4.063  0.3420  0.2018 -0.5687
 6956SOL    HW221768   3.276   0.728   3.933  0.0105  0.3965 -0.3876
 6957SOL     OW21769   5.218   2.521   5.953 -0.3351  0.4771  0.3412
 6957SOL    HW121770   5.145   2.549   5.891 -1.0917 -0.1947  0.9165
 6957SOL    HW221771   5.284   2.465   5.903 -1.1463 -0.3904  0.2149
 6958SOL     OW21772   1.072   2.584   2.366 -0.0297  0.0312  0.3069
 6958SOL    HW121773   1.164   2.608   2.399 -0.2241  0.0999  0.8062
 6958SOL    HW221774   1.009   2.580   2.444 -0.5660  0.5020 -0.0937
 6959SOL     OW21775   4.900   4.123   6.740  0.6319  0.2634 -0.5345
 6959SOL    HW121776   4.936   4.054   6.676 -0.1266 -0.2065 -0.4709
 6959SOL    HW221777   4.895   4.212   6.694  1.4842  0.2491 -0.6634
 6960SOL     OW21778   1.198   1.796   5.279  0.0146  0.2479  0.5453
 6960SOL    HW121779   1.173   1.892   5.282 -0.4751  0.1629 -0.4396
 6960SOL    HW221780   1.284   1.782   5.329  0.0158  1.1622  0.8092
 6961SOL     OW21781   2.845   0.768   5.327  0.6258  0.2802 -0.7759
 6961SOL    HW121782   2.845   0.688   5.267  1.6858 -0.6528  0.4102
 6961SOL    HW221783   2.938   0.785   5.361  0.2379  1.4077 -0.2083
 6962SOL     OW21784   1.401   2.637   1.893  0.0821  0.1641 -0.0925
 6962SOL    HW121785   1.470   2.683   1.949 -0.7965  0.0603  1.1301
 6962SOL    HW221786   1.433   2.544   1.872  0.7368  0.4473 -0.3906
 6963SOL     OW21787   3.589   6.005   2.118 -0.1627  1.1140 -0.3524
 6963SOL    HW121788   3.682   5.975   2.136 -0.2198  1.6560  1.0033
 6963SOL    HW221789   3.546   6.033   2.204 -1.9837 -0.2477 -0.7576
 6964SOL     OW21790   1.978   6.137   3.964  0.1440 -0.1634 -0.6238
 6964SOL    HW121791   1.962   6.215   3.905  0.9744 -0.1409 -0.8357
 6964SOL    HW221792   2.048   6.161   4.032 -1.4879  0.1490  1.0294
 6965SOL     OW21793   0.584   1.846   6.116  0.0833 -0.1039 -0.4576
 6965SOL    HW121794   0.545   1.754   6.107  0.6388 -0.3236 -0.6158
 6965SOL    HW221795   0.640   1.867   6.037 -1.3709  1.0342 -1.2381
 6966SOL     OW21796   0.924   4.778   0.934  0.1215 -0.1767 -0.0647
 6966SOL    HW121797   0.892   4.733   1.017  1.4288 -2.1627 -0.5662
 6966SOL    HW221798   0.926   4.711   0.859  0.8577  1.0762 -1.2007
 6967SOL     OW21799   3.560   5.446   2.047 -0.2011 -0.0461 -0.5325
 6967SOL    HW121800   3.528   5.388   2.122  0.4108 -0.6038 -0.6921
 6967SOL    HW221801   3.647   5.410   2.012  0.5904  1.3865 -0.1400
 6968SOL     OW21802   1.386   2.437   0.019 -0.2090  0.5565  0.3223
 6968SOL    HW121803   1.473   2.485   0.028 -0.5940  1.3454 -0.0720
 6968SOL    HW221804   1.311   2.504   0.021 -0.8359 -0.1464  1.1472
 6969SOL     OW21805   5.520   6.963   5.757  0.4902  0.1013  0.3818
 6969SOL    HW121806   5.578   7.044   5.755  1.0416 -0.2908 -0.4946
 6969SOL    HW221807   5.577   6.881   5.745 -0.3035 -0.2373 -1.5889
 6970SOL     OW21808   4.418   6.355   2.703 -0.3610  0.3796 -0.6079
 6970SOL    HW121809   4.348   6.426   2.713  0.7624  1.3310  0.9985
 6970SOL    HW221810   4.485   6.384   2.635  0.6998  1.4265  0.8344
 6971SOL     OW21811   5.218   1.842   4.502 -0.2243 -0.1482 -0.2801
 6971SOL    HW121812   5.127   1.801   4.508 -0.1714 -0.2074  0.1758
 6971SOL    HW221813   5.286   1.770   4.490  0.1702 -0.5485  3.2933
 6972SOL     OW21814   3.792   3.207   0.372  0.2379  0.5543  0.0519
 6972SOL    HW121815   3.759   3.296   0.404  0.9415  0.5750  0.7486
 6972SOL    HW221816   3.746   3.134   0.422  0.6403  0.5617  0.4338
 6973SOL     OW21817   0.846   3.348   4.624  1.0373 -0.0171  0.1257
 6973SOL    HW121818   0.934   3.301   4.627  0.0464 -2.0279 -0.4780
 6973SOL    HW221819   0.792   3.313   4.547 -0.4507  0.8739  0.7118
 6974SOL     OW21820   3.357   4.154   3.989 -0.6659 -0.6007  0.3392
 6974SOL    HW121821   3.340   4.227   4.056 -0.7532 -0.2446 -0.0667
 6974SOL    HW221822   3.412   4.083   4.031 -0.8928 -0.4785  0.8562
 6975SOL     OW21823   5.494   6.757   6.460 -0.0659  0.0573 -0.6838
 6975SOL    HW121824   5.510   6.658   6.455 -0.1317 -0.0457  0.7286
 6975SOL    HW221825   5.397   6.776   6.444 -0.3565 -0.2747  0.5646
 6976SOL     OW21826   4.638   6.567   4.327  0.0914  0.5374  0.7113
 6976SOL    HW121827   4.606   6.475   4.349 -2.2608  1.0345 -0.3417
 6976SOL    HW221828   4.731   6.562   4.291 -0.5042 -1.6208 -0.7126
 6977SOL     OW21829   1.096   3.387   1.934 -0.2387 -0.0299 -0.0931
 6977SOL    HW121830   1.154   3.437   1.998 -0.8245  0.0788  0.3579
 6977SOL    HW221831   1.089   3.292   1.963 -0.7808  0.0958  0.2073
 6978SOL     OW21832   3.787   0.627   6.476 -0.2293  0.1010  0.0629
 6978SOL    HW121833   3.807   0.632   6.378  1.2728 -0.8266  0.2942
 6978SOL    HW221834   3.695   0.589   6.488 -0.0973 -0.6338 -0.9909
 6979SOL     OW21835   7.002   4.021   5.419  0.1996  0.1037 -0.3758
 6979SOL    HW121836   7.042   3.943   5.468 -2.0267 -0.1616  1.2347
 6979SOL    HW221837   7.014   4.104   5.473 -0.1371  0.2749 -0.5569
 6980SOL     OW21838   6.144   2.988   1.693  0.1199 -0.6405 -0.4137
 6980SOL    HW121839   6.165   3.047   1.771  0.5700  0.8509 -1.6187
 6980SOL    HW221840   6.051   2.952   1.703  0.9657 -2.4849  1.9851
 6981SOL     OW21841   5.772   2.963   6.579  0.0269 -0.5019 -0.4886
 6981SOL    HW121842   5.869   2.940   6.588 -0.1592 -1.6275 -1.2265
 6981SOL    HW221843   5.743   2.951   6.484 -0.7399  0.2426 -0.3631
 6982SOL     OW21844   5.770   4.972   1.158  0.1556  0.8455 -0.3370
 6982SOL    HW121845   5.672   4.961   1.174  0.4165  0.3805  1.0261
 6982SOL    HW221846   5.813   4.882   1.155  0.4799  1.0262 -1.4355
 6983SOL     OW21847   2.567   1.001   4.602  0.0787  0.0475  0.5581
 6983SOL    HW121848   2.549   0.978   4.506  0.0622 -0.7870  0.7575
 6983SOL    HW221849   2.480   1.004   4.652  0.1522 -0.2677  0.7073
 6984SOL     OW21850   0.076   0.352   0.565 -0.7832  0.3861  0.8681
 6984SOL    HW121851   0.036   0.409   0.493 -0.3583  2.5986  2.3142
 6984SOL    HW221852   0.018   0.357   0.647  0.1735  0.1209  1.5706
 6985SOL     OW21853   4.283   4.060   1.729  0.4619  0.0690  0.2212
 6985SOL    HW121854   4.341   4.128   1.774  0.9118 -1.0177  1.3511
 6985SOL    HW221855   4.255   3.991   1.795 -0.0938 -0.7807 -0.8626
 6986SOL     OW21856   1.352   6.400   4.365  0.1892 -0.1759  0.1195
 6986SOL    HW121857   1.342   6.314   4.315 -0.0821  0.4447 -0.9339
 6986SOL    HW221858   1.448   6.425   4.369  0.1632  0.0495 -0.5902
 6987SOL     OW21859   1.635   6.822   5.735  0.4528 -0.2128 -0.5857
 6987SOL    HW121860   1.661   6.913   5.767  1.6103 -0.8405  0.3713
 6987SOL    HW221861   1.536   6.814   5.734  0.3027  1.3405 -1.5402
 6988SOL     OW21862   4.610   0.646   1.203 -0.3443 -0.2864 -0.8623
 6988SOL    HW121863   4.635   0.743   1.194  1.1480 -0.6450 -0.9525
 6988SOL    HW221864   4.548   0.635   1.280  0.8731  0.5326  0.2803
 6989SOL     OW21865   2.081   3.902   4.895 -0.8494  0.1709  0.0385
 6989SOL    HW121866   2.163   3.958   4.911 -1.0790  0.4877  0.1074
 6989SOL    HW221867   2.032   3.936   4.815 -1.1229  0.2230  0.2260
 6990SOL     OW21868   2.026   3.736   0.963  0.2304 -0.5887 -0.3112
 6990SOL    HW121869   2.054   3.759   1.056 -2.3812 -0.4413  0.5095
 6990SOL    HW221870   2.044   3.640   0.945 -0.1332 -0.8506  0.7073
 6991SOL     OW21871   6.755   2.263   6.676  0.2673 -0.2420 -0.4487
 6991SOL    HW121872   6.694   2.255   6.754  0.6438  1.9454  0.1472
 6991SOL    HW221873   6.702   2.268   6.591 -0.5647  2.9082  0.1542
 6992SOL     OW21874   6.295   6.702   0.311 -0.4009 -0.1243 -0.2148
 6992SOL    HW121875   6.385   6.688   0.352 -1.7210 -0.3112  2.9255
 6992SOL    HW221876   6.246   6.615   0.308 -0.5308 -0.0261 -1.9128
 6993SOL     OW21877   0.521   4.452   2.336  0.3374  0.0845 -0.0699
 6993SOL    HW121878   0.530   4.465   2.435  1.8057  1.4887 -0.3562
 6993SOL    HW221879   0.469   4.528   2.297  1.4820  0.5926 -0.6319
 6994SOL     OW21880   6.750   3.968   5.194 -0.1796 -0.2925  0.2198
 6994SOL    HW121881   6.841   3.990   5.159 -0.1337  1.4407  1.3087
 6994SOL    HW221882   6.695   3.927   5.122  0.6149  1.1102 -1.2288
 6995SOL     OW21883   4.322   5.933   3.507 -0.7406 -0.1835  0.8043
 6995SOL    HW121884   4.272   5.846   3.511 -1.0812 -0.0072  0.4735
 6995SOL    HW221885   4.266   6.001   3.459 -1.0479  0.6007  2.2237
 6996SOL     OW21886   6.327   0.578   6.836  0.3851  0.4742 -0.6915
 6996SOL    HW121887   6.244   0.577   6.780 -0.2510  0.9707  0.2210
 6996SOL    HW221888   6.302   0.576   6.933  1.3951  1.9160 -0.3733
 6997SOL     OW21889   5.449   0.961   2.515 -0.9271  0.0451 -0.0117
 6997SOL    HW121890   5.368   1.003   2.557 -0.6117 -0.5884  1.2870
 6997SOL    HW221891   5.449   0.863   2.536 -0.2743 -0.1137 -0.7471
 6998SOL     OW21892   0.564   1.719   7.021 -0.6849 -0.4474  0.0796
 6998SOL    HW121893   0.634   1.783   7.052  0.0526 -1.1107 -0.1969
 6998SOL    HW221894   0.573   1.633   7.072 -0.9597 -0.7179 -0.3286
 6999SOL     OW21895   4.248   1.373   1.269  0.4230  0.2158 -0.6421
 6999SOL    HW121896   4.164   1.379   1.325  0.9503  0.9499  0.0916
 6999SOL    HW221897   4.301   1.293   1.298  0.1066 -0.1072 -0.9386
 7000SOL     OW21898   3.730   1.744   1.501  0.2620 -0.9799 -0.0791
 7000SOL    HW121899   3.780   1.783   1.578 -1.0304  0.2957  0.1440
 7000SOL    HW221900   3.653   1.689   1.535 -0.8477  0.3024 -0.4168
 7001SOL     OW21901   1.223   2.509   1.568 -0.0046  0.3878 -0.2093
 7001SOL    HW121902   1.314   2.513   1.526  1.0759 -2.5245  1.5249
 7001SOL    HW221903   1.207   2.593   1.620  3.0913 -0.1588  1.9132
 7002SOL     OW21904   6.278   1.925   4.921  0.6376 -0.1697  0.4288
 7002SOL    HW121905   6.350   1.858   4.905 -1.5613 -3.4033  2.9002
 7002SOL    HW221906   6.196   1.900   4.870 -0.6160 -0.1837  2.3211
 7003SOL     OW21907   0.329   3.193   6.608 -0.2978  0.7361  0.0704
 7003SOL    HW121908   0.272   3.203   6.527 -0.5951  1.6989  0.3869
 7003SOL    HW221909   0.287   3.241   6.685  0.1641  0.1498  0.7069
 7004SOL     OW21910   0.252   0.365   1.787  0.5515 -0.0546  0.4021
 7004SOL    HW121911   0.224   0.337   1.878 -2.2041 -1.6092 -0.7911
 7004SOL    HW221912   0.282   0.285   1.735  0.1046  0.4467 -0.6632
 7005SOL     OW21913   0.979   2.578   1.815  0.0477  0.3124 -0.1815
 7005SOL    HW121914   1.027   2.504   1.861  2.0856  1.1335 -0.8611
 7005SOL    HW221915   1.044   2.651   1.792 -1.6746  1.8180 -0.5406
 7006SOL     OW21916   6.815   2.997   3.986  0.0649 -0.3805 -0.3719
 7006SOL    HW121917   6.860   3.067   3.930 -0.2050 -0.4918 -0.7304
 7006SOL    HW221918   6.885   2.948   4.039  0.3665 -0.5065 -0.8740
 7007SOL     OW21919   0.834   4.990   2.751 -0.3090  0.1811 -0.2676
 7007SOL    HW121920   0.745   4.954   2.780  0.0188 -0.4476 -0.0238
 7007SOL    HW221921   0.839   5.087   2.775 -1.1787  0.3946 -0.8732
 7008SOL     OW21922   4.325   4.794   6.289  0.1620 -0.2127  0.3482
 7008SOL    HW121923   4.338   4.724   6.359  1.5105 -1.9398 -1.5189
 7008SOL    HW221924   4.414   4.829   6.260 -0.3550  0.3044 -0.6674
 7009SOL     OW21925   6.852   4.115   6.739 -0.9137 -0.3604  0.0189
 7009SOL    HW121926   6.812   4.190   6.686  3.2193  0.9346 -1.6342
 7009SOL    HW221927   6.891   4.047   6.676  1.5150 -0.2878  1.3349
 7010SOL     OW21928   5.632   2.053   4.510  0.6157 -0.6508  0.0500
 7010SOL    HW121929   5.533   2.041   4.512 -0.1852  3.7540 -1.8134
 7010SOL    HW221930   5.665   2.072   4.603 -0.9511  1.1470  0.3092
 7011SOL     OW21931   2.799   2.886   1.109  0.0312  0.8722 -0.3464
 7011SOL    HW121932   2.707   2.902   1.145  0.1472  0.7387  0.0140
 7011SOL    HW221933   2.866   2.906   1.180  0.2154 -0.5801 -0.0908
 7012SOL     OW21934   2.370   6.843   2.112 -0.4007 -0.0249  0.6316
 7012SOL    HW121935   2.296   6.909   2.099  0.9438  1.9017  2.1876
 7012SOL    HW221936   2.393   6.837   2.209  3.0441  1.3407  0.0495
 7013SOL     OW21937   4.867   4.044   6.375  0.3825 -0.5148 -0.2375
 7013SOL    HW121938   4.890   3.959   6.423 -0.8325 -0.7129  0.0291
 7013SOL    HW221939   4.942   4.068   6.313  0.7571 -1.7813 -0.3140
 7014SOL     OW21940   2.232   3.363   5.456  0.4388 -0.3049  0.2728
 7014SOL    HW121941   2.303   3.389   5.521 -0.2068 -0.1841  0.9537
 7014SOL    HW221942   2.236   3.265   5.438  1.6511 -0.0775 -0.7831
 7015SOL     OW21943   0.528   0.732   1.228 -0.3011  0.4033  0.6804
 7015SOL    HW121944   0.460   0.680   1.175 -0.2992  0.9795  0.0911
 7015SOL    HW221945   0.591   0.669   1.272 -0.2307 -0.1047 -0.1166
 7016SOL     OW21946   4.337   2.885   5.629  0.0962 -0.0353  0.0768
 7016SOL    HW121947   4.314   2.857   5.535 -1.8497 -0.4798  0.6470
 7016SOL    HW221948   4.297   2.974   5.649  1.4139  0.5668  0.1748
 7017SOL     OW21949   2.693   4.612   3.943  0.1631 -0.2855  0.0116
 7017SOL    HW121950   2.638   4.605   4.027  1.4991  2.9524  1.2828
 7017SOL    HW221951   2.786   4.640   3.966  0.1556  2.3165 -2.6043
 7018SOL     OW21952   2.592   5.205   5.671  0.1753 -0.0692  0.6394
 7018SOL    HW121953   2.638   5.140   5.731  2.4925 -0.1673 -1.1194
 7018SOL    HW221954   2.573   5.289   5.722 -0.4756 -1.1173  2.2138
 7019SOL     OW21955   6.370   1.166   6.833  0.1483  0.4304 -0.4584
 7019SOL    HW121956   6.437   1.206   6.771  0.1908  0.9576 -0.0820
 7019SOL    HW221957   6.416   1.133   6.916 -0.0322  0.6682 -0.2595
 7020SOL     OW21958   2.964   1.446   5.504  0.0322  0.1848 -0.3115
 7020SOL    HW121959   2.943   1.384   5.429 -0.1381 -0.5914  0.3707
 7020SOL    HW221960   2.980   1.538   5.467  1.0565 -0.4037 -1.4068
 7021SOL     OW21961   3.868   5.800   0.552  0.7290  0.4615 -0.1728
 7021SOL    HW121962   3.796   5.822   0.487  0.1780 -0.5601  0.0727
 7021SOL    HW221963   3.830   5.800   0.645  0.5723 -1.8698 -0.1860
 7022SOL     OW21964   4.584   6.031   6.942  0.2491 -0.3302  0.3401
 7022SOL    HW121965   4.571   6.007   7.038 -1.1094 -2.5562 -0.3256
 7022SOL    HW221966   4.639   5.961   6.896 -0.3435 -0.0812 -0.8020
 7023SOL     OW21967   0.478   1.697   2.297 -0.4901  0.3669 -0.2976
 7023SOL    HW121968   0.394   1.644   2.304 -0.7461  0.5901 -1.5605
 7023SOL    HW221969   0.532   1.665   2.220 -0.4103  1.5975 -0.7760
 7024SOL     OW21970   5.161   1.921   6.515 -0.1329 -0.2169 -0.1614
 7024SOL    HW121971   5.253   1.887   6.537 -0.2502 -1.2693 -1.2401
 7024SOL    HW221972   5.092   1.855   6.545 -0.6919  1.2707  2.0983
 7025SOL     OW21973   1.244   3.561   3.261 -0.0295 -0.2823 -0.0546
 7025SOL    HW121974   1.239   3.558   3.360  0.0696 -1.7239 -0.0682
 7025SOL    HW221975   1.225   3.470   3.224  0.0421  0.2081 -1.3502
 7026SOL     OW21976   0.242   1.590   2.227 -0.0164  0.2155  0.2804
 7026SOL    HW121977   0.160   1.548   2.267  0.0809  1.9107  2.4775
 7026SOL    HW221978   0.217   1.634   2.141 -1.4389  0.6183  0.8555
 7027SOL     OW21979   2.730   4.854   6.049 -0.6831 -0.1718  0.0121
 7027SOL    HW121980   2.692   4.766   6.021  1.7718 -1.6838  1.1451
 7027SOL    HW221981   2.825   4.860   6.021 -0.7702  2.1438  0.0145
 7028SOL     OW21982   0.788   2.779   6.918 -0.2757  0.1855  1.2533
 7028SOL    HW121983   0.849   2.843   6.872 -0.0599 -0.9274 -0.0553
 7028SOL    HW221984   0.827   2.687   6.915 -2.4595 -0.7773 -0.5871
 7029SOL     OW21985   4.889   4.484   0.272  0.3633 -0.3686 -0.0625
 7029SOL    HW121986   4.834   4.470   0.354  0.6569  1.3576  0.4834
 7029SOL    HW221987   4.984   4.504   0.299  0.5246 -0.0537 -0.8297
 7030SOL     OW21988   4.318   2.951   0.686 -0.1067 -0.1761  0.3941
 7030SOL    HW121989   4.357   3.041   0.705 -0.1142  0.3981 -1.9430
 7030SOL    HW221990   4.321   2.934   0.587 -0.0508 -2.7828  0.7750
 7031SOL     OW21991   0.502   0.456   3.430 -0.0199 -0.0336 -0.1966
 7031SOL    HW121992   0.530   0.404   3.349 -2.8285 -1.2966 -0.4808
 7031SOL    HW221993   0.551   0.420   3.510  0.6523 -0.7525 -0.9006
 7032SOL     OW21994   5.592   5.867   1.713  0.0482 -0.0055  0.0898
 7032SOL    HW121995   5.635   5.937   1.770  0.5623 -0.2876  0.0615
 7032SOL    HW221996   5.663   5.823   1.657 -0.1599 -0.9827  0.5689
 7033SOL     OW21997   0.882   0.176   1.905  0.0683 -0.6906 -0.0879
 7033SOL    HW121998   0.933   0.255   1.937 -0.4310  0.1134 -1.2030
 7033SOL    HW221999   0.934   0.093   1.924  0.2206 -0.1933  1.8590
 7034SOL     OW22000   4.226   4.823   1.836 -0.1508 -0.4182  0.2376
 7034SOL    HW122001   4.261   4.901   1.888  0.8598 -1.9206  1.9238
 7034SOL    HW222002   4.298   4.754   1.828 -1.0717 -1.2639 -1.0836
 7035SOL     OW22003   4.082   2.233   4.380  0.6324  0.5354 -0.4255
 7035SOL    HW122004   4.022   2.232   4.300  2.2602  0.5945 -1.7092
 7035SOL    HW222005   4.169   2.276   4.356  1.4131 -0.0337  1.2043
 7036SOL     OW22006   5.255   6.193   6.396 -0.2841  0.5912  0.8166
 7036SOL    HW122007   5.250   6.290   6.373  1.2879  0.4600 -0.2567
 7036SOL    HW222008   5.204   6.140   6.329  1.2256  0.4942 -0.3085
 7037SOL     OW22009   1.095   0.919   1.609 -0.1703  0.4712  0.5570
 7037SOL    HW122010   1.135   0.834   1.575  3.0272  0.7392  3.1019
 7037SOL    HW222011   1.031   0.898   1.683 -0.0716  0.2209  0.5753
 7038SOL     OW22012   3.389   5.037   6.748  0.2869  0.4600 -0.5044
 7038SOL    HW122013   3.331   5.051   6.667  0.8468 -1.7259 -1.3713
 7038SOL    HW222014   3.485   5.053   6.723  0.4191  0.1966 -0.1640
 7039SOL     OW22015   5.892   6.776   2.064 -0.2191  0.2460 -0.3865
 7039SOL    HW122016   5.856   6.798   1.973  0.5119  0.2906 -0.6694
 7039SOL    HW222017   5.852   6.690   2.095  1.2222 -0.9845 -1.7439
 7040SOL     OW22018   4.220   0.385   4.159 -0.0027  0.0308 -0.2555
 7040SOL    HW122019   4.181   0.445   4.228  2.2184  2.4940 -0.9828
 7040SOL    HW222020   4.295   0.331   4.199 -0.8439 -1.0127 -0.0309
 7041SOL     OW22021   0.827   0.814   2.399  0.0944  0.4281 -0.0770
 7041SOL    HW122022   0.767   0.738   2.425  1.1578 -1.0010 -1.5700
 7041SOL    HW222023   0.806   0.894   2.455 -2.7985 -0.1748 -0.1347
 7042SOL     OW22024   4.858   5.505   4.537 -0.6202 -0.6823  0.2642
 7042SOL    HW122025   4.859   5.411   4.501 -0.9755 -1.1072  1.3387
 7042SOL    HW222026   4.846   5.503   4.636 -0.7728  0.5138  0.2842
 7043SOL     OW22027   2.844   0.907   2.455  0.1933 -0.0147  0.1334
 7043SOL    HW122028   2.871   0.822   2.411 -0.6439 -0.8676  1.2098
 7043SOL    HW222029   2.778   0.888   2.528 -0.5212  1.6214 -0.0314
 7044SOL     OW22030   4.986   1.672   6.736  0.2505 -0.0000 -0.4835
 7044SOL    HW122031   5.066   1.612   6.735  0.1497 -0.1538  0.4902
 7044SOL    HW222032   4.977   1.716   6.825 -0.5484  0.2980 -0.6988
 7045SOL     OW22033   0.084   6.166   2.935 -0.3352  0.0963  0.6751
 7045SOL    HW122034   0.074   6.078   2.981 -2.2279  0.5924  1.3206
 7045SOL    HW222035   0.037   6.164   2.847  1.4708 -0.1798 -0.3302
 7046SOL     OW22036   2.723   1.156   2.725  0.0695 -0.0171  0.2097
 7046SOL    HW122037   2.736   1.139   2.627  0.1040 -0.6026  0.3135
 7046SOL    HW222038   2.680   1.245   2.738  1.0270  0.5302 -0.2867
 7047SOL     OW22039   6.050   5.024   5.231 -0.1036 -0.0412 -0.3518
 7047SOL    HW122040   6.100   4.967   5.296 -0.6500 -1.7172 -1.3493
 7047SOL    HW222041   6.104   5.034   5.147 -1.4226 -2.0207 -1.5136
 7048SOL     OW22042   3.901   0.448   3.317 -0.2978  0.3232  0.0260
 7048SOL    HW122043   3.907   0.366   3.373 -1.6486  1.1120  1.3871
 7048SOL    HW222044   3.807   0.459   3.284 -0.7754  2.5481  1.8824
 7049SOL     OW22045   2.442   3.779   0.102 -0.8217  0.6363  0.2052
 7049SOL    HW122046   2.499   3.699   0.081 -0.8668  0.2343  1.5332
 7049SOL    HW222047   2.497   3.862   0.093 -0.2354  0.3099  0.7037
 7050SOL     OW22048   2.013   5.149   1.573  0.0896 -0.4526 -0.6912
 7050SOL    HW122049   2.056   5.177   1.487 -0.9128 -0.1126 -1.1018
 7050SOL    HW222050   2.080   5.103   1.631  0.6533 -1.1719 -1.8775
 7051SOL     OW22051   4.699   0.538   4.437  0.3208 -0.0982  0.1202
 7051SOL    HW122052   4.748   0.482   4.504  0.9100 -1.6893 -1.5671
 7051SOL    HW222053   4.601   0.520   4.444  0.2174  0.9053  1.5528
 7052SOL     OW22054   5.059   5.766   0.745 -0.8503 -0.2689  0.1005
 7052SOL    HW122055   5.081   5.863   0.760 -0.0322 -0.6000  1.2160
 7052SOL    HW222056   5.097   5.736   0.658 -0.1971  0.1595  0.2291
 7053SOL     OW22057   4.324   1.865   4.940  0.4410 -0.3645  0.0156
 7053SOL    HW122058   4.244   1.844   4.883  0.6593  1.4007 -1.0060
 7053SOL    HW222059   4.307   1.835   5.034 -2.2110  1.5776  0.2681
 7054SOL     OW22060   6.827   1.503   3.325 -0.0580 -0.1058 -0.6130
 7054SOL    HW122061   6.892   1.563   3.371  0.0558 -0.5641 -0.1568
 7054SOL    HW222062   6.735   1.522   3.360  0.0258 -0.4413 -0.1991
 7055SOL     OW22063   4.620   1.806   6.857  0.1617  0.0002 -0.0737
 7055SOL    HW122064   4.681   1.801   6.778 -0.2310  0.8312 -0.4452
 7055SOL    HW222065   4.603   1.902   6.879 -0.3033 -0.2277  0.5837
 7056SOL     OW22066   2.821   4.161   5.907 -0.3267 -0.2352  0.4279
 7056SOL    HW122067   2.742   4.180   5.965 -2.7849  3.7075 -3.5690
 7056SOL    HW222068   2.796   4.092   5.839 -0.2909  0.7472 -0.6145
 7057SOL     OW22069   5.645   3.231   5.101 -0.3752  0.0774 -0.3421
 7057SOL    HW122070   5.644   3.136   5.133  0.7884  0.1615 -0.0128
 7057SOL    HW222071   5.635   3.233   5.002  0.0327 -0.4220 -0.3961
 7058SOL     OW22072   0.468   0.728   4.829  0.3110  0.0849 -0.0296
 7058SOL    HW122073   0.558   0.773   4.835 -0.5709  1.7798  1.4878
 7058SOL    HW222074   0.432   0.739   4.736  1.8375 -1.0554 -0.8139
 7059SOL     OW22075   6.023   5.580   3.670 -0.2817 -0.2451  0.3512
 7059SOL    HW122076   6.081   5.643   3.722 -1.1998  0.3570  0.6807
 7059SOL    HW222077   6.019   5.610   3.574 -0.5447  0.0881  0.4623
 7060SOL     OW22078   0.853   4.481   7.004  0.2207  0.0716  0.0077
 7060SOL    HW122079   0.836   4.470   6.906  0.8861  1.2877 -0.2699
 7060SOL    HW222080   0.782   4.540   7.043 -0.2666 -0.7259  0.3524
 7061SOL     OW22081   3.073   4.777   2.035 -0.2488 -0.1778  0.1160
 7061SOL    HW122082   3.123   4.802   1.953 -1.8415  0.3749 -0.7438
 7061SOL    HW222083   3.007   4.705   2.014  0.0304 -0.7648  1.1600
 7062SOL     OW22084   2.133   6.707   1.278 -0.0576  0.3964 -0.0982
 7062SOL    HW122085   2.134   6.611   1.253  0.9742  0.0684  1.0914
 7062SOL    HW222086   2.039   6.743   1.271 -0.5943 -0.8954  0.1986
 7063SOL     OW22087   5.723   0.920   3.462  0.1721  0.5823  0.3585
 7063SOL    HW122088   5.738   1.019   3.460 -1.7348  0.9019  0.4808
 7063SOL    HW222089   5.650   0.898   3.526  1.7758 -1.1159  1.7042
 7064SOL     OW22090   6.193   3.404   1.136  0.3118  0.2673  0.1574
 7064SOL    HW122091   6.111   3.405   1.078 -0.1866 -2.8859  0.6353
 7064SOL    HW222092   6.170   3.366   1.225  2.0835  0.4309  0.7223
 7065SOL     OW22093   4.335   2.127   0.916 -0.0724  0.1979 -0.0990
 7065SOL    HW122094   4.296   2.042   0.950 -0.8133  0.1044 -1.1525
 7065SOL    HW222095   4.280   2.161   0.840  0.2234  1.6072  0.2899
 7066SOL     OW22096   0.405   2.697   5.029 -0.1122 -0.1914 -0.5988
 7066SOL    HW122097   0.328   2.661   5.081 -0.2571  0.0190 -0.6629
 7066SOL    HW222098   0.462   2.622   4.996  0.7512 -0.2866  1.0153
 7067SOL     OW22099   4.221   1.189   0.230 -0.1652 -0.6451  0.5798
 7067SOL    HW122100   4.189   1.110   0.281 -0.6274  0.2281  1.6818
 7067SOL    HW222101   4.173   1.193   0.142 -0.3975 -1.3871  0.6656
 7068SOL     OW22102   6.317   2.495   1.548  0.2463 -0.6661 -0.1251
 7068SOL    HW122103   6.408   2.464   1.576  0.4538  0.1572  0.1447
 7068SOL    HW222104   6.297   2.582   1.593 -0.3417 -0.4369 -0.8236
 7069SOL     OW22105   2.669   2.489   0.770 -0.1432  0.3018 -0.7722
 7069SOL    HW122106   2.625   2.476   0.681  0.7985 -0.0690 -1.2010
 7069SOL    HW222107   2.642   2.414   0.831 -1.0264  0.7176 -0.6410
 7070SOL     OW22108   0.367   2.505   1.469  0.3343  0.3409  0.3311
 7070SOL    HW122109   0.296   2.568   1.501 -1.0454 -1.2014  0.4445
 7070SOL    HW222110   0.383   2.520   1.372 -0.4106  0.4953  0.2234
 7071SOL     OW22111   0.587   4.168   6.998  0.2533  0.4255  0.3339
 7071SOL    HW122112   0.517   4.111   6.954 -0.1796  0.3671  1.0996
 7071SOL    HW222113   0.549   4.257   7.020 -0.4154 -0.4740  3.1558
 7072SOL     OW22114   6.046   3.541   5.116 -0.1161 -0.1708  0.0072
 7072SOL    HW122115   6.102   3.553   5.199  0.0867 -0.2394 -0.1189
 7072SOL    HW222116   5.960   3.497   5.140  0.5814 -1.5988 -0.0449
 7073SOL     OW22117   2.706   1.584   0.301 -0.1414 -0.6202 -0.2672
 7073SOL    HW122118   2.789   1.590   0.246  0.5965  0.7222  0.9195
 7073SOL    HW222119   2.710   1.503   0.360 -0.0789 -1.0277 -0.8288
 7074SOL     OW22120   4.312   2.563   6.235 -0.4289  0.7094  0.3760
 7074SOL    HW122121   4.303   2.514   6.148  1.4181  0.2141  0.4328
 7074SOL    HW222122   4.273   2.507   6.308 -0.1135  0.1969  0.1579
 7075SOL     OW22123   1.690   5.120   5.661 -0.0895 -0.2013  0.0689
 7075SOL    HW122124   1.603   5.115   5.709 -0.0049 -0.5237  0.1898
 7075SOL    HW222125   1.758   5.065   5.709  0.5395  1.1119  0.7403
 7076SOL     OW22126   2.067   2.436   1.249  0.0942  0.1055 -0.4872
 7076SOL    HW122127   2.128   2.447   1.327 -1.2705  0.9148  0.5149
 7076SOL    HW222128   2.021   2.347   1.254 -0.6512  0.5197  0.1311
 7077SOL     OW22129   0.397   2.850   4.314 -0.7620 -0.3675 -0.3747
 7077SOL    HW122130   0.468   2.820   4.377  1.0561  1.1303 -1.6040
 7077SOL    HW222131   0.366   2.773   4.259 -0.4305 -1.1307  0.4836
 7078SOL     OW22132   5.252   6.996   4.815 -0.2011  0.0243  0.4454
 7078SOL    HW122133   5.160   6.972   4.848 -0.8022  0.7452 -0.6486
 7078SOL    HW222134   5.272   7.091   4.838  0.2149 -0.0797  0.5266
 7079SOL     OW22135   0.054   1.334   5.987 -0.0282 -0.3166 -0.7680
 7079SOL    HW122136  -0.007   1.401   5.944  1.2854  0.5804 -1.2989
 7079SOL    HW222137   0.080   1.367   6.078 -0.9594 -1.0944 -0.2013
 7080SOL     OW22138   4.665   5.550   0.891  0.1305 -0.6571 -0.1309
 7080SOL    HW122139   4.576   5.593   0.908  0.9640  2.2417 -2.2008
 7080SOL    HW222140   4.651   5.460   0.849 -1.9604  0.5864 -2.3846
 7081SOL     OW22141   3.838   6.648   1.364 -0.5776 -0.3037 -0.3579
 7081SOL    HW122142   3.878   6.579   1.424  0.6739  1.0927  0.4914
 7081SOL    HW222143   3.895   6.658   1.282 -0.8208 -0.3633 -0.5361
 7082SOL     OW22144   0.549   0.003   5.776 -0.2864 -0.2064 -0.6372
 7082SOL    HW122145   0.636   0.038   5.811 -2.5264  2.7415  2.7877
 7082SOL    HW222146   0.556  -0.096   5.760  3.3559 -0.2581  0.4981
 7083SOL     OW22147   5.748   6.299   6.315 -0.4630 -0.3839  0.2083
 7083SOL    HW122148   5.678   6.230   6.331  2.1421 -3.4370 -0.6340
 7083SOL    HW222149   5.728   6.380   6.371 -3.1338 -2.1487  2.0464
 7084SOL     OW22150   1.815   2.499   5.206  0.5103  0.2074  0.3900
 7084SOL    HW122151   1.719   2.511   5.233  0.7754  1.5666  0.8120
 7084SOL    HW222152   1.820   2.490   5.106  0.0907  2.4484  0.1120
 7085SOL     OW22153   1.835   0.308   2.395  0.2737 -0.0679  0.2209
 7085SOL    HW122154   1.849   0.264   2.484 -1.2171  0.4921  0.7713
 7085SOL    HW222155   1.918   0.357   2.369  0.2452  1.1047  2.1003
 7086SOL     OW22156   5.854   3.423   2.495  0.3452 -0.3224 -0.1802
 7086SOL    HW122157   5.897   3.440   2.406  0.4756  1.0843  0.1265
 7086SOL    HW222158   5.903   3.349   2.542  0.2786 -1.0716 -1.2607
 7087SOL     OW22159   4.382   3.413   5.998  0.7972  0.6790  0.3991
 7087SOL    HW122160   4.319   3.415   6.075 -1.0694  0.5464 -1.0769
 7087SOL    HW222161   4.474   3.389   6.031  0.3757  1.9906  2.7582
 7088SOL     OW22162   3.527   0.561   3.020 -0.0929  0.3124  0.0016
 7088SOL    HW122163   3.591   0.607   2.957  1.7762 -3.4880 -1.2184
 7088SOL    HW222164   3.442   0.541   2.971  0.7842 -1.2972 -0.9637
 7089SOL     OW22165   5.188   1.971   0.852  0.0564 -0.7296  0.4418
 7089SOL    HW122166   5.199   1.996   0.949  4.2098  1.8551 -0.4564
 7089SOL    HW222167   5.117   2.029   0.811 -0.7559 -0.8630  1.5980
 7090SOL     OW22168   0.045   2.272   0.203  0.2088  0.7349 -0.3249
 7090SOL    HW122169   0.074   2.198   0.143  0.2610  1.2724 -0.9668
 7090SOL    HW222170  -0.021   2.237   0.270  2.2071 -0.4856  1.1064
 7091SOL     OW22171   6.519   6.942   6.022 -0.4624 -0.3837 -0.0500
 7091SOL    HW122172   6.513   6.886   6.104 -0.7712 -0.6181 -0.2296
 7091SOL    HW222173   6.609   6.985   6.017  0.9432 -3.2272 -1.4516
 7092SOL     OW22174   6.321   5.137   1.303 -0.5672 -0.4493 -1.2012
 7092SOL    HW122175   6.273   5.053   1.327 -0.7554  0.0893  0.3998
 7092SOL    HW222176   6.262   5.216   1.320  0.1840  0.1063 -1.0870
 7093SOL     OW22177   5.075   6.808   6.703  0.6748 -0.2179 -0.3002
 7093SOL    HW122178   5.083   6.734   6.636  0.7721 -0.9179  0.4697
 7093SOL    HW222179   5.163   6.855   6.711  1.1501 -1.2055  0.5357
 7094SOL     OW22180   0.164   3.372   6.087 -0.2789 -0.4858 -0.1334
 7094SOL    HW122181   0.232   3.429   6.134  1.1912 -0.9394 -1.6077
 7094SOL    HW222182   0.080   3.370   6.141  1.3996 -1.2889  2.6946
 7095SOL     OW22183   3.981   6.695   5.935  0.3847  0.1298 -0.3803
 7095SOL    HW122184   3.901   6.750   5.907  0.1663 -0.5968 -1.2159
 7095SOL    HW222185   3.982   6.687   6.034  1.4634  3.2205 -0.0247
 7096SOL     OW22186   2.055   6.721   0.783  0.2376  0.0233 -0.1794
 7096SOL    HW122187   2.121   6.787   0.745  2.1812 -0.6125  1.8720
 7096SOL    HW222188   1.998   6.767   0.851 -0.1935  0.1586 -0.6286
 7097SOL     OW22189   4.835   1.039   4.812 -0.0089  0.2080 -0.2087
 7097SOL    HW122190   4.872   1.131   4.804 -0.4553  0.2528 -2.1652
 7097SOL    HW222191   4.737   1.044   4.834 -0.1686  0.2413 -0.8895
 7098SOL     OW22192   1.495   3.782   0.210  0.3142 -0.3492  0.4996
 7098SOL    HW122193   1.524   3.711   0.146 -0.7812 -1.5280  1.2618
 7098SOL    HW222194   1.408   3.820   0.180  0.0745 -0.5094  0.9772
 7099SOL     OW22195   0.021   3.679   1.570 -0.2159  0.1037 -0.1802
 7099SOL    HW122196  -0.021   3.749   1.512  0.1662  0.4784 -0.0075
 7099SOL    HW222197   0.120   3.679   1.556 -0.0440  0.6645  0.9762
 7100SOL     OW22198   4.745   5.863   5.338  0.5785 -0.2016  0.2353
 7100SOL    HW122199   4.719   5.778   5.291  0.2869  0.5892 -1.0988
 7100SOL    HW222200   4.814   5.911   5.283  0.5862  0.5347  0.8688
 7101SOL     OW22201   0.578   5.510   4.326 -0.0895  0.0731  0.1654
 7101SOL    HW122202   0.540   5.418   4.327 -0.3820  0.1910  0.1091
 7101SOL    HW222203   0.640   5.520   4.247  1.2358 -0.5798  1.0952
 7102SOL     OW22204   6.743   0.075   1.705 -0.4254  0.3427  0.8670
 7102SOL    HW122205   6.770   0.055   1.799  1.5114 -1.1629  0.0487
 7102SOL    HW222206   6.801   0.148   1.669 -0.4333  0.1710  0.5037
 7103SOL     OW22207   5.964   1.869   3.706  0.0394 -0.1408  0.8808
 7103SOL    HW122208   6.063   1.869   3.720  0.0596 -1.8920  0.9892
 7103SOL    HW222209   5.935   1.778   3.677 -1.7978 -0.2408  2.8265
 7104SOL     OW22210   2.174   4.225   0.763  0.0905 -0.2844 -0.1553
 7104SOL    HW122211   2.118   4.142   0.752 -1.0180  0.6410 -2.0382
 7104SOL    HW222212   2.131   4.285   0.831  0.2624 -0.7214  0.3499
 7105SOL     OW22213   4.023   5.934   1.498  0.1942  0.4481 -0.3950
 7105SOL    HW122214   3.962   6.005   1.463 -0.3382  0.7190  0.9927
 7105SOL    HW222215   4.093   5.913   1.430  1.2343  3.3181 -0.3599
 7106SOL     OW22216   2.939   3.759   1.497  0.6114 -0.7041  0.1777
 7106SOL    HW122217   3.029   3.768   1.540  1.3226 -0.6578 -1.2407
 7106SOL    HW222218   2.933   3.823   1.420  0.1127 -2.0369 -0.9357
 7107SOL     OW22219   1.091   5.542   6.130 -0.3806 -0.0832  0.4732
 7107SOL    HW122220   1.187   5.565   6.150 -0.4583 -0.1279  0.9190
 7107SOL    HW222221   1.039   5.543   6.216 -0.6629 -0.6186  0.3094
 7108SOL     OW22222   1.615   4.137   5.484 -0.0370  0.2631  0.4187
 7108SOL    HW122223   1.647   4.224   5.447  0.0184  0.0305 -0.0894
 7108SOL    HW222224   1.517   4.128   5.470  0.0483  0.0028 -0.0349
 7109SOL     OW22225   6.062   4.633   5.930 -0.0887 -0.6237 -0.2796
 7109SOL    HW122226   6.033   4.542   5.958  0.6561 -0.8141 -0.1045
 7109SOL    HW222227   6.034   4.699   6.000 -1.5764 -0.5476 -0.9132
 7110SOL     OW22228   1.310   1.759   1.702  0.4283 -0.2098 -0.0217
 7110SOL    HW122229   1.247   1.696   1.657  0.1057 -0.7270  1.1096
 7110SOL    HW222230   1.275   1.852   1.694 -1.2395 -0.6210  1.7320
 7111SOL     OW22231   1.627   2.770   2.816  0.0616  0.1693  0.7750
 7111SOL    HW122232   1.540   2.738   2.852 -0.0683  0.3372  0.6142
 7111SOL    HW222233   1.633   2.748   2.718 -0.6513  1.8864  0.3067
 7112SOL     OW22234   0.327   5.563   3.586 -0.2040 -0.0199  0.1348
 7112SOL    HW122235   0.306   5.595   3.678  0.2312  1.1841 -0.1637
 7112SOL    HW222236   0.287   5.625   3.519 -3.2054 -2.5440 -0.6110
 7113SOL     OW22237   4.604   6.951   6.554  0.4542  0.3650 -0.2886
 7113SOL    HW122238   4.572   6.863   6.519 -2.4812 -0.6006  4.0102
 7113SOL    HW222239   4.647   6.937   6.643  2.3480  3.1033 -0.6727
 7114SOL     OW22240   3.107   3.582   6.313 -0.5717  0.1089  0.0265
 7114SOL    HW122241   3.155   3.589   6.400 -0.5373  0.9065 -0.0565
 7114SOL    HW222242   3.127   3.662   6.257 -1.2203 -0.0202 -0.3983
 7115SOL     OW22243   4.453   1.874   2.762  0.1693  0.1876 -0.2292
 7115SOL    HW122244   4.364   1.836   2.784 -0.6909  2.0864 -0.2368
 7115SOL    HW222245   4.448   1.924   2.676  1.2779  0.2170 -0.2986
 7116SOL     OW22246   2.765   3.023   0.364 -0.5993 -0.0226 -0.3639
 7116SOL    HW122247   2.708   3.091   0.318  1.3995  1.6526 -0.4871
 7116SOL    HW222248   2.760   3.036   0.462  0.2360  0.7200 -0.4099
 7117SOL     OW22249   3.376   6.179   0.713 -0.4768  0.0261 -0.1133
 7117SOL    HW122250   3.295   6.126   0.740 -1.0370  1.5544  1.4193
 7117SOL    HW222251   3.347   6.261   0.664  0.1239  0.5865  0.4538
 7118SOL     OW22252   1.114   6.908   5.011  0.5758 -0.1098 -0.3681
 7118SOL    HW122253   1.019   6.882   5.026  0.1719  1.3994 -0.1588
 7118SOL    HW222254   1.142   6.881   4.918 -0.4030  0.4087 -0.8277
 7119SOL     OW22255   4.885   0.935   6.690 -0.0288  0.0186 -0.0819
 7119SOL    HW122256   4.950   1.002   6.725 -0.4672  1.7469 -2.3606
 7119SOL    HW222257   4.804   0.933   6.749 -0.9483  3.1638 -1.0602
 7120SOL     OW22258   3.480   6.910   4.408  0.0803  0.2342 -0.1218
 7120SOL    HW122259   3.440   6.972   4.476 -0.3036 -0.7638  0.5801
 7120SOL    HW222260   3.432   6.823   4.410  0.4501 -0.0117 -1.2770
 7121SOL     OW22261   0.712   1.233   5.113 -0.1587 -0.0445 -0.8974
 7121SOL    HW122262   0.680   1.174   5.187  1.5575 -0.8162 -0.7237
 7121SOL    HW222263   0.642   1.238   5.042 -1.1673 -0.6105  0.0303
 7122SOL     OW22264   6.756   5.665   3.016 -0.2236  0.0151 -0.0705
 7122SOL    HW122265   6.709   5.715   3.089 -1.5394  1.3409 -1.7378
 7122SOL    HW222266   6.854   5.669   3.031 -0.3461  2.2186  0.4609
 7123SOL     OW22267   4.774   1.330   1.497  0.2672 -0.3197  0.7873
 7123SOL    HW122268   4.830   1.280   1.564  1.6038  0.8146  0.5422
 7123SOL    HW222269   4.802   1.425   1.494 -1.5868  0.2662  0.5173
 7124SOL     OW22270   0.835   4.543   3.964  0.6240  0.6295  0.0216
 7124SOL    HW122271   0.830   4.493   4.050  1.6230 -0.8644 -0.7437
 7124SOL    HW222272   0.923   4.524   3.919  0.4452  1.9841 -0.9779
 7125SOL     OW22273   5.807   5.442   4.835  0.2542  0.0906  0.7293
 7125SOL    HW122274   5.749   5.515   4.871  0.7329  0.0164  1.6865
 7125SOL    HW222275   5.776   5.354   4.872  0.0178 -0.1357  0.0110
 7126SOL     OW22276   3.804   2.933   4.533 -0.0722 -0.4589  0.8491
 7126SOL    HW122277   3.873   2.931   4.606  0.1731 -1.9680  0.6017
 7126SOL    HW222278   3.716   2.903   4.570  0.0223 -1.0965  0.5690
 7127SOL     OW22279   3.237   4.891   3.919 -0.1277 -0.7015  0.7169
 7127SOL    HW122280   3.285   4.962   3.970  0.5818 -0.2790 -0.4968
 7127SOL    HW222281   3.304   4.827   3.880 -0.6179 -0.7288 -0.0909
 7128SOL     OW22282   1.289   6.407   4.809 -1.0656  0.0371 -0.0892
 7128SOL    HW122283   1.288   6.453   4.898  1.8331  0.7072 -0.3054
 7128SOL    HW222284   1.375   6.427   4.762 -2.0797 -1.1403 -2.6309
 7129SOL     OW22285   6.242   1.738   1.773 -0.7721 -0.1334  0.1075
 7129SOL    HW122286   6.207   1.769   1.861 -1.7673 -0.1548 -0.2731
 7129SOL    HW222287   6.172   1.685   1.725  0.1009 -0.9856 -0.2706
 7130SOL     OW22288   0.218   2.533   5.188  0.0693 -0.4894  0.0340
 7130SOL    HW122289   0.230   2.501   5.094 -1.5788 -0.3908 -0.2314
 7130SOL    HW222290   0.144   2.480   5.231  1.2945 -1.0460  1.5273
 7131SOL     OW22291   3.426   1.007   5.662 -0.0780  0.0499  0.1710
 7131SOL    HW122292   3.363   1.079   5.633 -0.2289 -0.2053 -0.1454
 7131SOL    HW222293   3.374   0.930   5.698 -0.1666 -1.2718 -2.4734
 7132SOL     OW22294   6.330   3.451   4.296  0.5073 -0.0993 -0.0830
 7132SOL    HW122295   6.247   3.416   4.340 -0.5176  0.8570 -1.2147
 7132SOL    HW222296   6.387   3.496   4.365  0.9448 -2.2128  1.0370
 7133SOL     OW22297   3.563   6.732   0.984  0.1974 -0.1087 -0.3216
 7133SOL    HW122298   3.476   6.760   1.025 -0.4170 -1.8520 -0.3404
 7133SOL    HW222299   3.617   6.813   0.962 -0.9889  0.9808  0.6078
 7134SOL     OW22300   4.291   2.798   1.440 -0.3619  0.1118 -0.3702
 7134SOL    HW122301   4.345   2.729   1.392 -0.9802 -0.6978  0.0710
 7134SOL    HW222302   4.294   2.780   1.539 -0.5813  0.6852 -0.2544
 7135SOL     OW22303   3.404   0.272   6.905 -0.4713  0.1614 -0.3117
 7135SOL    HW122304   3.488   0.236   6.864 -0.8727 -0.9569 -0.1801
 7135SOL    HW222305   3.337   0.290   6.833  0.2931  2.3330 -0.5770
 7136SOL     OW22306   0.560   1.037   5.421 -0.0259 -0.5585  0.5128
 7136SOL    HW122307   0.647   0.990   5.408  1.1470  1.6332 -0.0866
 7136SOL    HW222308   0.489   0.971   5.446  1.9133 -2.3341  1.5912
 7137SOL     OW22309   0.852   5.996   2.484 -0.2253  0.0870  0.0711
 7137SOL    HW122310   0.869   5.992   2.386  2.1757 -0.4999  0.4547
 7137SOL    HW222311   0.757   6.024   2.501 -1.4174 -2.1115 -2.4211
 7138SOL     OW22312   6.687   4.396   5.562 -0.1589  0.5652 -0.5171
 7138SOL    HW122313   6.676   4.332   5.638 -1.4454  1.2786 -0.0685
 7138SOL    HW222314   6.784   4.403   5.538  0.3235  0.6319  1.3327
 7139SOL     OW22315   6.780   4.882   5.797 -0.0614 -0.6453 -0.0646
 7139SOL    HW122316   6.843   4.838   5.733 -2.1031 -2.2261 -1.0944
 7139SOL    HW222317   6.752   4.817   5.868 -0.2701  0.1314  0.5901
 7140SOL     OW22318   5.800   5.738   6.862  0.0318 -0.1723 -0.5305
 7140SOL    HW122319   5.790   5.719   6.960  0.5552 -0.5407 -0.5459
 7140SOL    HW222320   5.719   5.706   6.813 -0.7946  1.1615 -0.0613
 7141SOL     OW22321   6.346   0.748   1.605  0.0649  0.7177 -0.3346
 7141SOL    HW122322   6.247   0.766   1.607 -0.0432  0.8031 -3.0374
 7141SOL    HW222323   6.372   0.713   1.515  1.9524 -2.9304  1.4420
 7142SOL     OW22324   3.587   0.296   0.905  0.2454 -0.1274 -0.2735
 7142SOL    HW122325   3.575   0.205   0.865  0.5258  0.6684 -2.3018
 7142SOL    HW222326   3.656   0.292   0.976  0.5464 -1.4335 -0.6113
 7143SOL     OW22327   2.692   0.183   1.123 -0.1126  0.1102  0.3439
 7143SOL    HW122328   2.646   0.194   1.035 -1.5605  1.9073  1.2625
 7143SOL    HW222329   2.720   0.272   1.157  3.1605 -0.8058  0.3724
 7144SOL     OW22330   1.507   1.629   6.080  0.6693  0.1001  0.2538
 7144SOL    HW122331   1.483   1.661   6.172 -0.2318 -1.1147  0.4656
 7144SOL    HW222332   1.515   1.529   6.081  2.6531  0.1909 -0.5466
 7145SOL     OW22333   0.522   0.304   0.338 -0.1295  0.2049 -0.3719
 7145SOL    HW122334   0.438   0.304   0.392 -0.5176 -0.4955 -0.9591
 7145SOL    HW222335   0.522   0.381   0.274 -1.2948 -0.9488 -1.8237
 7146SOL     OW22336   4.164   6.118   0.986 -0.0415  0.1531  0.1619
 7146SOL    HW122337   4.123   6.052   0.922  1.1518 -1.2670  0.7911
 7146SOL    HW222338   4.131   6.099   1.078 -0.6561  1.2813  0.1879
 7147SOL     OW22339   1.005   2.136   1.386 -0.4400  0.0646  0.4787
 7147SOL    HW122340   1.016   2.223   1.339  1.1634 -1.4386 -2.1720
 7147SOL    HW222341   0.929   2.085   1.344  2.2116 -2.1052 -2.1056
 7148SOL     OW22342   3.612   6.436   3.271  0.1065 -0.0944  0.3455
 7148SOL    HW122343   3.562   6.508   3.320 -1.0770  0.0549 -1.0013
 7148SOL    HW222344   3.708   6.463   3.261  0.0478  0.5213  1.3158
 7149SOL     OW22345   2.416   4.568   1.921  0.3022  0.3686 -0.1250
 7149SOL    HW122346   2.328   4.521   1.914 -0.0211  1.0842 -0.9195
 7149SOL    HW222347   2.472   4.547   1.841  0.8466 -0.0435  0.3534
 7150SOL     OW22348   3.379   3.254   2.851  0.1466  0.1054  0.1685
 7150SOL    HW122349   3.346   3.161   2.869 -2.9887  0.7391 -1.5826
 7150SOL    HW222350   3.432   3.255   2.767  0.0159 -0.0483  0.0852
 7151SOL     OW22351   2.802   1.221   4.339 -0.7343  0.2346 -0.0190
 7151SOL    HW122352   2.814   1.260   4.430 -2.1230  1.6478 -0.3982
 7151SOL    HW222353   2.708   1.234   4.309  0.0386  1.1835 -2.2613
 7152SOL     OW22354   0.605   0.180   4.780  0.1973 -0.0556  0.4533
 7152SOL    HW122355   0.702   0.202   4.794  0.5411  0.5920 -2.3474
 7152SOL    HW222356   0.553   0.264   4.766 -0.4868 -0.4763  0.4144
 7153SOL     OW22357   4.811   5.530   4.847  0.2432 -0.0721  0.0664
 7153SOL    HW122358   4.739   5.600   4.842  0.8998  0.7113  1.1055
 7153SOL    HW222359   4.781   5.455   4.904 -0.0964 -0.1857 -0.2571
 7154SOL     OW22360   3.699   1.913   1.732 -0.4034  0.1930 -0.3602
 7154SOL    HW122361   3.672   1.990   1.674 -3.2202  0.1136  0.6475
 7154SOL    HW222362   3.718   1.946   1.824 -0.9981 -0.2072 -0.0855
 7155SOL     OW22363   3.583   2.924   6.749  0.0583  0.0462  0.0676
 7155SOL    HW122364   3.524   2.889   6.822 -0.3715 -0.0954 -0.3362
 7155SOL    HW222365   3.613   3.017   6.771 -1.5353  0.7128 -0.3837
 7156SOL     OW22366   0.986   6.187   0.023  0.4119  0.3436  0.2830
 7156SOL    HW122367   1.013   6.277  -0.011  0.6568  0.2888  0.3272
 7156SOL    HW222368   0.893   6.166  -0.005  0.1793  0.8198  0.6846
 7157SOL     OW22369   0.168   3.601   4.017  0.3156  0.0895  0.3375
 7157SOL    HW122370   0.124   3.679   3.972  2.4214  0.4785 -1.1966
 7157SOL    HW222371   0.111   3.570   4.094 -1.3929  2.0335 -0.0621
 7158SOL     OW22372   6.491   3.029   2.051 -0.4817 -0.7918 -0.0934
 7158SOL    HW122373   6.562   3.094   2.024  0.4429 -1.5178  0.5452
 7158SOL    HW222374   6.410   3.079   2.082 -0.3718  0.0440 -1.1072
 7159SOL     OW22375   4.259   6.927   5.386  0.1100 -0.2384 -0.5233
 7159SOL    HW122376   4.319   6.947   5.309 -0.3349  1.5551 -0.4398
 7159SOL    HW222377   4.168   6.905   5.353  0.0539  0.0014 -0.5262
 7160SOL     OW22378   5.908   6.808   4.820 -0.3630  0.0629 -0.1352
 7160SOL    HW122379   5.857   6.838   4.740 -0.0805  0.9165 -0.0020
 7160SOL    HW222380   5.996   6.857   4.823  0.4553 -1.3262 -0.3381
 7161SOL     OW22381   3.232   5.835   4.244 -0.3227  0.1425 -0.1533
 7161SOL    HW122382   3.240   5.818   4.146 -3.0775 -0.1315 -0.3862
 7161SOL    HW222383   3.210   5.749   4.291  1.6728  0.1197  0.8685
 7162SOL     OW22384   2.332   4.599   2.387 -0.7314 -0.3146  0.2347
 7162SOL    HW122385   2.301   4.675   2.330  0.8447  0.2195  0.0367
 7162SOL    HW222386   2.307   4.616   2.483 -0.2052  0.5593  0.2208
 7163SOL     OW22387   3.476   0.962   1.859 -0.3154 -0.6339  0.3012
 7163SOL    HW122388   3.436   1.043   1.901  0.6131  0.4653 -0.8625
 7163SOL    HW222389   3.571   0.952   1.890  0.2937  0.0349 -1.2152
 7164SOL     OW22390   0.666   6.110   1.614  0.1069 -0.1741 -0.4986
 7164SOL    HW122391   0.599   6.121   1.541 -0.8442 -1.8940  0.0640
 7164SOL    HW222392   0.718   6.026   1.599  0.3468 -0.2037  0.4627
 7165SOL     OW22393   5.069   2.445   2.315  0.1552  0.1190  0.4920
 7165SOL    HW122394   5.130   2.385   2.264  0.3858  2.4971 -2.2479
 7165SOL    HW222395   4.983   2.456   2.265 -0.6605  0.5653  1.9292
 7166SOL     OW22396   6.531   1.466   2.180 -0.0816  0.0675  0.3442
 7166SOL    HW122397   6.515   1.391   2.243 -3.0307  0.3800  0.0856
 7166SOL    HW222398   6.607   1.443   2.119 -0.6868 -2.5478  0.4700
 7167SOL     OW22399   3.088   6.405   0.197  0.0268  0.0980 -0.2533
 7167SOL    HW122400   3.152   6.331   0.219 -0.1385  0.1787  0.5442
 7167SOL    HW222401   3.134   6.493   0.211  0.8772  0.2135 -3.0906
 7168SOL     OW22402   1.274   6.390   3.895 -0.4594  0.3417 -0.1560
 7168SOL    HW122403   1.203   6.410   3.962 -0.3642  4.7749 -1.0979
 7168SOL    HW222404   1.359   6.369   3.943 -1.1452  0.2424  1.0595
 7169SOL     OW22405   6.593   0.802   5.572 -0.0153 -0.3141  0.7028
 7169SOL    HW122406   6.567   0.721   5.624  2.2540 -0.4717  1.6961
 7169SOL    HW222407   6.607   0.879   5.634 -0.1718  0.3163 -0.0212
 7170SOL     OW22408   5.751   5.236   5.000 -0.1134  0.7523  0.1010
 7170SOL    HW122409   5.795   5.148   5.016  0.8864  1.4742  1.5621
 7170SOL    HW222410   5.766   5.296   5.079 -2.4647  1.5688  0.0142
 7171SOL     OW22411   2.922   5.616   5.065 -0.6011  0.3139 -0.4405
 7171SOL    HW122412   2.855   5.543   5.082 -1.3707  1.1001  0.0151
 7171SOL    HW222413   2.928   5.674   5.146 -0.3579  1.0329 -0.9685
 7172SOL     OW22414   0.097   0.989   0.524  0.0616  0.0727  0.0732
 7172SOL    HW122415   0.051   1.078   0.516 -0.7788 -0.3831 -0.2471
 7172SOL    HW222416   0.069   0.930   0.449  0.3864 -0.5753  0.4560
 7173SOL     OW22417   5.596   2.203   3.315  0.5118  0.2600 -0.3797
 7173SOL    HW122418   5.522   2.151   3.359  2.1443 -0.6443  1.4312
 7173SOL    HW222419   5.658   2.238   3.385  4.0161 -2.3683 -1.8743
 7174SOL     OW22420   5.101   2.801   6.529 -0.0900 -0.3449  0.0896
 7174SOL    HW122421   5.167   2.731   6.502 -0.3357  0.1386 -1.9680
 7174SOL    HW222422   5.040   2.820   6.452 -0.4369  1.6585  0.7920
 7175SOL     OW22423   6.162   6.461   3.650 -0.2158  0.8870  0.5752
 7175SOL    HW122424   6.154   6.381   3.591 -0.4486  2.5571 -1.7825
 7175SOL    HW222425   6.099   6.532   3.619  0.0442  2.0464  2.5400
 7176SOL     OW22426   1.376   1.484   0.850 -0.6394 -1.0363  0.0040
 7176SOL    HW122427   1.289   1.477   0.897  0.0317  1.6803  1.8718
 7176SOL    HW222428   1.391   1.578   0.819  0.9357 -1.7790 -1.7477
 7177SOL     OW22429   6.523   2.754   6.063  0.2092  0.3814 -0.2769
 7177SOL    HW122430   6.551   2.832   6.119  0.1257  0.9981 -1.0853
 7177SOL    HW222431   6.428   2.731   6.084  0.3335  0.2907  0.1930
 7178SOL     OW22432   4.964   2.472   1.716 -0.2169  0.1910  0.5305
 7178SOL    HW122433   5.039   2.469   1.651  1.1856  1.9861  1.9397
 7178SOL    HW222434   4.981   2.408   1.791  0.8791  1.7986  1.7323
 7179SOL     OW22435   6.516   4.942   0.456 -0.1433  0.1193  0.5448
 7179SOL    HW122436   6.547   4.855   0.493 -0.6399  0.5808  2.1590
 7179SOL    HW222437   6.451   4.984   0.520 -1.6276  0.6590 -1.2181
 7180SOL     OW22438   2.186   2.267   1.451  0.2978  0.4225 -0.4677
 7180SOL    HW122439   2.130   2.337   1.494  1.8131  0.5636  1.4203
 7180SOL    HW222440   2.194   2.188   1.512  2.7043  0.7128 -0.3113
 7181SOL     OW22441   3.272   2.098   5.526 -0.7891 -0.2853 -0.2836
 7181SOL    HW122442   3.280   2.197   5.541 -0.1485 -0.1869 -1.1518
 7181SOL    HW222443   3.297   2.078   5.431  0.9930 -1.5074  0.4064
 7182SOL     OW22444   5.089   4.213   2.065 -0.0961  0.1027 -0.0595
 7182SOL    HW122445   5.005   4.163   2.084 -1.3212  1.8785 -0.5330
 7182SOL    HW222446   5.076   4.310   2.084  1.1057  0.7858 -2.2783
 7183SOL     OW22447   5.358   3.882   4.102  0.5010 -0.2602 -0.1011
 7183SOL    HW122448   5.448   3.871   4.142 -0.0908 -0.1725  1.3060
 7183SOL    HW222449   5.288   3.854   4.167 -0.5031 -0.2955 -1.1483
 7184SOL     OW22450   1.032   6.890   5.547 -0.1069  0.2032  0.0662
 7184SOL    HW122451   1.056   6.909   5.451 -2.3038  1.6944 -0.2542
 7184SOL    HW222452   0.994   6.798   5.554 -1.4655  0.6667 -0.8431
 7185SOL     OW22453   2.350   6.491   3.229 -0.1526 -0.0098  0.2805
 7185SOL    HW122454   2.365   6.427   3.304 -0.0280  0.4567  0.6550
 7185SOL    HW222455   2.328   6.581   3.266  0.0225  0.2482 -0.2431
 7186SOL     OW22456   1.978   3.942   3.374  0.2461  0.3105  0.0619
 7186SOL    HW122457   2.056   3.892   3.335  0.5420 -0.6785  1.8360
 7186SOL    HW222458   1.903   3.942   3.308  1.3635  0.3621 -1.2591
 7187SOL     OW22459   2.872   5.681   3.661  0.6031 -0.2859 -0.0996
 7187SOL    HW122460   2.902   5.723   3.747 -1.0385 -0.2715  0.4968
 7187SOL    HW222461   2.875   5.749   3.588  1.7760 -0.2333 -0.0303
 7188SOL     OW22462   1.315   0.888   2.121  0.4236  0.3727  0.2722
 7188SOL    HW122463   1.379   0.899   2.197  0.2161 -2.6923  1.0099
 7188SOL    HW222464   1.222   0.905   2.152  0.4372  0.0929  0.4730
 7189SOL     OW22465   2.293   2.771   1.309  0.1151 -0.0040  0.2901
 7189SOL    HW122466   2.369   2.758   1.245 -0.9333  0.2703 -1.0627
 7189SOL    HW222467   2.309   2.715   1.391  3.3668  2.4884  1.5878
 7190SOL     OW22468   3.593   6.268   6.872 -0.1551  0.1176  0.2839
 7190SOL    HW122469   3.517   6.316   6.917 -0.1818  1.0625 -0.7229
 7190SOL    HW222470   3.675   6.276   6.928 -0.6478 -0.4213  1.1079
 7191SOL     OW22471   0.310   3.675   6.486 -1.0453 -0.9561 -0.0434
 7191SOL    HW122472   0.395   3.664   6.537  1.4739 -1.3702 -3.8885
 7191SOL    HW222473   0.292   3.772   6.472  0.5500 -0.8094 -1.5641
 7192SOL     OW22474   1.688   1.945   3.733  0.4905  0.0563  0.0672
 7192SOL    HW122475   1.681   1.847   3.718 -0.5238 -0.0810  1.2324
 7192SOL    HW222476   1.772   1.965   3.783  0.6341 -0.2323 -0.0566
 7193SOL     OW22477   5.873   4.468   3.454 -0.6644 -0.3006 -0.0640
 7193SOL    HW122478   5.953   4.488   3.510 -0.5733  0.6338 -0.4943
 7193SOL    HW222479   5.869   4.370   3.435  0.9236 -0.2545 -0.8270
 7194SOL     OW22480   2.570   3.948   1.694 -0.0990 -0.2400 -0.0510
 7194SOL    HW122481   2.661   3.930   1.733 -0.5682 -0.2292  1.0893
 7194SOL    HW222482   2.558   3.894   1.611  0.8504 -0.4466 -0.0636
 7195SOL     OW22483   3.327   4.952   4.920  0.3566  0.0697 -0.0377
 7195SOL    HW122484   3.338   4.875   4.983  1.2973  0.8281  0.7534
 7195SOL    HW222485   3.393   5.024   4.943 -0.1256  0.8826 -1.1117
 7196SOL     OW22486   0.159   4.736   3.796  0.4983 -0.0767 -0.3034
 7196SOL    HW122487   0.077   4.679   3.799  0.0583  0.5646  0.4862
 7196SOL    HW222488   0.231   4.695   3.853  0.2944 -0.0064  0.0044
 7197SOL     OW22489   0.424   0.883   3.096  0.3897  0.2883  0.8833
 7197SOL    HW122490   0.447   0.786   3.103  2.8091  0.7272 -0.1885
 7197SOL    HW222491   0.340   0.894   3.042  1.3045 -1.1363 -0.9219
 7198SOL     OW22492   0.285   2.918   1.422  0.0216 -0.2374  0.0450
 7198SOL    HW122493   0.196   2.876   1.437 -0.3694  0.8729  1.0097
 7198SOL    HW222494   0.340   2.910   1.505 -1.1965  3.7390  1.4299
 7199SOL     OW22495   2.827   4.826   4.069  0.8306 -0.0487  0.3244
 7199SOL    HW122496   2.883   4.840   3.987 -1.0248  0.9208 -0.8430
 7199SOL    HW222497   2.750   4.889   4.068 -0.3072 -1.3304  1.8771
 7200SOL     OW22498   6.132   4.692   1.826 -0.1757  0.6424 -0.4580
 7200SOL    HW122499   6.089   4.780   1.806 -1.5105 -0.4304 -2.6387
 7200SOL    HW222500   6.132   4.635   1.744  2.6831 -0.6113  0.2891
 7201SOL     OW22501   1.904   6.334   0.606  0.0516  0.5880 -0.0123
 7201SOL    HW122502   1.978   6.267   0.607  0.4693  1.0114 -1.0552
 7201SOL    HW222503   1.937   6.421   0.568 -0.9470  0.8146 -0.4075
 7202SOL     OW22504   1.183   5.629   6.756  0.5421  0.0293 -0.0354
 7202SOL    HW122505   1.194   5.530   6.748  0.8600  0.0235  0.4976
 7202SOL    HW222506   1.243   5.674   6.690 -0.3006 -0.1465 -0.9586
 7203SOL     OW22507   3.217   6.965   0.549  0.0334  0.4800 -0.2807
 7203SOL    HW122508   3.143   6.918   0.500  0.1854 -0.6182  0.5003
 7203SOL    HW222509   3.179   7.045   0.597 -0.4583  0.4926 -0.6777
 7204SOL     OW22510   2.146   0.021   0.504 -0.6578  0.1118 -0.3569
 7204SOL    HW122511   2.168   0.112   0.471 -0.8928  0.8770  1.4826
 7204SOL    HW222512   2.103   0.027   0.594 -1.6644 -1.7559 -0.6374
 7205SOL     OW22513   1.169   3.894   2.019  0.0206 -0.5060 -0.1561
 7205SOL    HW122514   1.128   3.827   1.958 -1.9958  0.9023 -0.4613
 7205SOL    HW222515   1.200   3.849   2.103  0.4823 -2.0647 -1.1231
 7206SOL     OW22516   0.928   0.778   6.140 -0.1319 -0.2804 -0.2236
 7206SOL    HW122517   0.893   0.752   6.230 -0.0281 -0.6910 -0.3003
 7206SOL    HW222518   1.015   0.825   6.150  1.4498 -3.0144 -0.2560
 7207SOL     OW22519   0.029   0.114   5.474 -0.2756 -0.0085  0.5910
 7207SOL    HW122520   0.034   0.095   5.572 -0.8278 -1.0229  0.4385
 7207SOL    HW222521  -0.050   0.172   5.455  0.6011  1.3323  0.8902
 7208SOL     OW22522   5.828   0.674   1.593 -0.1535 -0.0926  0.0175
 7208SOL    HW122523   5.853   0.724   1.511 -0.5545 -0.3339 -0.2556
 7208SOL    HW222524   5.758   0.606   1.571 -1.0730  0.5867  0.7552
 7209SOL     OW22525   3.524   2.353   0.068 -0.3442 -0.0745 -0.2513
 7209SOL    HW122526   3.578   2.269   0.060 -2.0095 -1.3591  1.0949
 7209SOL    HW222527   3.576   2.421   0.119  0.1449 -1.1755  0.7850
 7210SOL     OW22528   5.520   4.699   6.550 -0.1331 -0.3139 -0.5287
 7210SOL    HW122529   5.422   4.719   6.543  0.3147  4.2903  2.0765
 7210SOL    HW222530   5.535   4.634   6.625 -1.1275 -0.6689 -0.6162
 7211SOL     OW22531   1.889   3.436   0.378  0.6653 -0.1052  0.0763
 7211SOL    HW122532   1.933   3.377   0.445 -2.2432  0.7066  2.9807
 7211SOL    HW222533   1.865   3.523   0.420  1.3100  1.7103 -2.9645
 7212SOL     OW22534   4.875   4.344   3.105  0.0425 -0.5483 -0.1591
 7212SOL    HW122535   4.873   4.427   3.160 -2.3576  1.4603 -2.9666
 7212SOL    HW222536   4.814   4.276   3.146 -3.0252  1.4952 -0.9702
 7213SOL     OW22537   3.873   6.542   5.020 -0.1990  0.0762 -0.1179
 7213SOL    HW122538   3.799   6.589   5.069 -0.8144  1.2761 -2.0729
 7213SOL    HW222539   3.909   6.602   4.949  1.2482 -1.2714 -0.5682
 7214SOL     OW22540   2.846   5.294   6.429 -0.4896  0.7181  0.3932
 7214SOL    HW122541   2.805   5.385   6.426  0.3151  1.1867  2.1906
 7214SOL    HW222542   2.805   5.242   6.505  0.1694  0.1504  0.3641
 7215SOL     OW22543   2.919   2.230   1.507  0.3702  0.1166 -0.2723
 7215SOL    HW122544   2.886   2.270   1.592 -0.2650 -0.1018 -0.4071
 7215SOL    HW222545   2.841   2.199   1.453  0.7704  0.2448 -0.9308
 7216SOL     OW22546   3.309   6.090   5.443  0.4039 -0.2966 -0.0890
 7216SOL    HW122547   3.324   6.079   5.345  0.0766  1.2726 -0.3351
 7216SOL    HW222548   3.323   6.186   5.469 -0.7960 -0.4296  1.1679
 7217SOL     OW22549   6.167   4.859   6.350  0.4362  0.1714 -0.0251
 7217SOL    HW122550   6.107   4.849   6.270  1.2286 -0.6674 -0.5256
 7217SOL    HW222551   6.133   4.934   6.407 -1.4636 -0.6725  0.0470
 7218SOL     OW22552   4.817   4.924   5.180  0.5200 -0.3030 -0.4421
 7218SOL    HW122553   4.761   4.924   5.097 -0.2972  0.8195  0.0787
 7218SOL    HW222554   4.833   5.018   5.209  0.3939 -0.6854  0.9304
 7219SOL     OW22555   0.774   6.476   0.623  0.3649  0.1373  0.2872
 7219SOL    HW122556   0.710   6.462   0.547  2.5558  0.2817 -1.6877
 7219SOL    HW222557   0.730   6.450   0.708 -1.9134 -0.8783 -1.0980
 7220SOL     OW22558   0.038   3.174   2.148  0.0375  0.2892 -0.5842
 7220SOL    HW122559  -0.008   3.260   2.171 -3.1172 -1.0996 -1.2278
 7220SOL    HW222560   0.014   3.146   2.056 -0.3696 -2.0882  0.1774
 7221SOL     OW22561   3.963   1.862   0.390 -0.5441  0.1818 -0.0718
 7221SOL    HW122562   3.937   1.844   0.485 -1.9447  0.2967 -0.3987
 7221SOL    HW222563   4.051   1.909   0.387  0.0778 -0.8498  1.1017
 7222SOL     OW22564   0.820   2.334   6.421 -0.4066 -0.2331  0.5651
 7222SOL    HW122565   0.745   2.278   6.456 -1.0674  0.7958  0.8727
 7222SOL    HW222566   0.788   2.386   6.342  0.2651 -0.4770  0.1259
 7223SOL     OW22567   5.585   2.637   1.068  1.1028 -0.4672 -0.5722
 7223SOL    HW122568   5.564   2.646   0.971 -1.0074  0.9915 -0.0473
 7223SOL    HW222569   5.525   2.567   1.108  0.2578  0.5928  0.0912
 7224SOL     OW22570   1.710   2.305   4.259 -0.2108  0.8157  0.2426
 7224SOL    HW122571   1.653   2.241   4.310  0.5045 -0.9452 -1.0799
 7224SOL    HW222572   1.693   2.398   4.292 -5.3125  0.7302 -1.2374
 7225SOL     OW22573   4.440   2.099   3.647  0.7460  0.3682  0.0333
 7225SOL    HW122574   4.411   2.128   3.556 -0.8802  1.6809  0.9206
 7225SOL    HW222575   4.445   2.178   3.707 -1.1452 -0.7916  1.8489
 7226SOL     OW22576   2.036   2.108   0.824  0.0407  0.3424  0.4144
 7226SOL    HW122577   2.083   2.190   0.855 -0.4392  0.5675  0.5581
 7226SOL    HW222578   1.939   2.127   0.813  0.2977  0.5702 -2.1602
 7227SOL     OW22579   0.477   1.273   5.480  0.2061 -0.0865  0.3082
 7227SOL    HW122580   0.527   1.344   5.430 -1.2956  0.4083 -0.5373
 7227SOL    HW222581   0.511   1.183   5.453  0.2569  0.2214 -0.6785
 7228SOL     OW22582   4.652   2.544   4.370  0.1879 -0.2109  0.0783
 7228SOL    HW122583   4.633   2.595   4.454  1.1447 -1.0807  0.8474
 7228SOL    HW222584   4.722   2.593   4.317  1.7334 -1.0856  1.2245
 7229SOL     OW22585   3.520   5.027   3.466  0.4283  0.0198 -0.1012
 7229SOL    HW122586   3.557   4.991   3.552 -1.1242 -0.6013  0.3260
 7229SOL    HW222587   3.434   4.982   3.445  0.6550  0.3569 -1.8747
 7230SOL     OW22588   1.880   0.300   0.977 -0.4453 -0.7742  0.3803
 7230SOL    HW122589   1.799   0.283   0.922  0.7421  0.4832 -1.9447
 7230SOL    HW222590   1.865   0.379   1.036 -0.8616 -0.4677 -0.1354
 7231SOL     OW22591   1.044   3.180   3.479  0.4122 -0.4931  0.5452
 7231SOL    HW122592   0.973   3.154   3.544  0.3426  0.3092  0.8074
 7231SOL    HW222593   1.072   3.100   3.426  0.1970 -1.0786  1.2968
 7232SOL     OW22594   4.070   6.982   1.421 -0.2670  0.1634  0.3691
 7232SOL    HW122595   4.007   6.934   1.483 -0.3602 -0.7802 -0.4370
 7232SOL    HW222596   4.151   6.925   1.406  0.1238  0.7458  0.2521
 7233SOL     OW22597   0.776   0.733   1.621  0.5510  0.1518 -0.3319
 7233SOL    HW122598   0.682   0.767   1.631  0.1307 -0.1475 -2.6202
 7233SOL    HW222599   0.783   0.679   1.537  2.9256  0.6545 -0.5311
 7234SOL     OW22600   4.984   0.196   4.190  0.2863  0.8099 -0.2988
 7234SOL    HW122601   4.892   0.179   4.156  0.6416 -0.8381 -0.5281
 7234SOL    HW222602   5.010   0.290   4.170 -0.1397  0.4244 -3.1632
 7235SOL     OW22603   6.360   4.151   2.221 -0.0402  0.2281 -0.1741
 7235SOL    HW122604   6.422   4.204   2.164  0.4751 -0.0345  0.1317
 7235SOL    HW222605   6.321   4.076   2.167 -1.7051  1.5994 -0.9485
 7236SOL     OW22606   4.070   4.907   5.852  0.0972  0.2165  0.3782
 7236SOL    HW122607   4.157   4.873   5.888  0.9333  0.7268 -1.0771
 7236SOL    HW222608   4.039   4.846   5.779 -0.0986  0.7570  0.0081
 7237SOL     OW22609   6.341   3.090   6.468  0.4942  0.1735  0.1849
 7237SOL    HW122610   6.284   3.131   6.539  0.3353  2.4058 -1.1383
 7237SOL    HW222611   6.435   3.123   6.478  0.4028  0.7532 -0.8014
 7238SOL     OW22612   0.013   6.470   4.273 -0.4213  0.7046 -0.0851
 7238SOL    HW122613   0.112   6.485   4.276 -0.2228  0.0814 -2.1524
 7238SOL    HW222614  -0.031   6.523   4.346  1.4056  1.1131  0.7685
 7239SOL     OW22615   4.583   3.419   1.719  0.4068 -0.2007  0.2439
 7239SOL    HW122616   4.583   3.323   1.692  0.0314 -0.0970 -0.1331
 7239SOL    HW222617   4.595   3.477   1.639 -1.4528  0.1300  0.1578
 7240SOL     OW22618   3.668   0.886   4.302  0.3249 -0.3712 -0.3241
 7240SOL    HW122619   3.724   0.808   4.274 -2.4134 -1.5784 -3.0631
 7240SOL    HW222620   3.594   0.854   4.360  0.5083  0.6273  0.4826
 7241SOL     OW22621   1.919   5.698   3.073  0.3538  0.1764  0.5649
 7241SOL    HW122622   1.916   5.678   2.975  1.3168  1.1898  0.3054
 7241SOL    HW222623   1.826   5.694   3.110 -0.1446  0.6360 -0.5737
 7242SOL     OW22624   5.957   5.705   2.349 -0.0643  0.6018 -0.3784
 7242SOL    HW122625   5.984   5.634   2.283  1.1468 -0.2514  0.9563
 7242SOL    HW222626   5.876   5.674   2.399  0.9885 -0.3347  0.8380
 7243SOL     OW22627   5.046   5.574   4.263 -0.2186  0.0780 -0.3772
 7243SOL    HW122628   4.964   5.556   4.316 -0.7270 -0.2921 -1.2676
 7243SOL    HW222629   5.098   5.648   4.306 -0.1797 -0.7639  1.0878
 7244SOL     OW22630   4.810   2.957   1.330  0.0187  0.3436  0.1018
 7244SOL    HW122631   4.863   2.920   1.253  1.8566  0.3218  1.3225
 7244SOL    HW222632   4.770   2.882   1.382 -0.9321  0.3461 -0.5952
 7245SOL     OW22633   3.324   1.084   5.088  0.0595  0.2093  0.1950
 7245SOL    HW122634   3.307   0.993   5.050  1.7653 -0.3674  0.7163
 7245SOL    HW222635   3.355   1.076   5.182 -0.0205  1.3676  0.3421
 7246SOL     OW22636   3.157   5.694   6.632 -0.5259 -0.4732 -0.5410
 7246SOL    HW122637   3.066   5.655   6.615 -1.0565  1.0315 -1.3012
 7246SOL    HW222638   3.226   5.636   6.589 -1.3202 -0.4113 -1.9623
 7247SOL     OW22639   3.252   2.956   4.207 -0.4142 -0.3264  0.3013
 7247SOL    HW122640   3.165   3.003   4.202  0.9335  2.3033 -0.3563
 7247SOL    HW222641   3.284   2.933   4.115 -0.5101 -1.5618  0.5514
 7248SOL     OW22642   4.967   3.270   6.009 -0.4171  0.1252 -0.0416
 7248SOL    HW122643   5.008   3.287   5.919 -2.0909  1.4987 -0.6098
 7248SOL    HW222644   4.871   3.244   5.998 -0.4308 -0.5062  1.3328
 7249SOL     OW22645   3.929   0.028   2.170 -0.5980 -0.2626 -0.3795
 7249SOL    HW122646   3.838   0.060   2.146 -1.1910 -0.5698  1.2902
 7249SOL    HW222647   3.997   0.093   2.137 -1.3406 -0.4075 -2.3066
 7250SOL     OW22648   0.941   5.493   6.365 -0.3757  0.1327 -0.7066
 7250SOL    HW122649   0.859   5.550   6.361 -0.5737 -0.2008 -2.2271
 7250SOL    HW222650   0.941   5.440   6.449  0.1209  2.7792  1.0700
 7251SOL     OW22651   1.249   6.238   5.099  0.8492  0.9061  0.0023
 7251SOL    HW122652   1.161   6.284   5.082  0.7844  0.0719 -2.3699
 7251SOL    HW222653   1.324   6.302   5.081  0.7310  0.6085 -1.7745
 7252SOL     OW22654   0.301   5.424   4.937 -0.3279  0.0963 -0.0206
 7252SOL    HW122655   0.224   5.360   4.942 -0.1418 -0.4178 -2.5734
 7252SOL    HW222656   0.387   5.374   4.943 -0.1878  0.1242 -1.4632
 7253SOL     OW22657   4.945   3.484   4.298 -0.4966 -0.6824  1.0711
 7253SOL    HW122658   4.889   3.422   4.244 -0.1555 -0.7526  0.7931
 7253SOL    HW222659   4.929   3.468   4.396 -2.3761  0.5791  1.0211
 7254SOL     OW22660   5.430   4.089   6.222  0.3514 -0.0120 -0.3876
 7254SOL    HW122661   5.469   3.999   6.203 -0.6915 -0.1512 -2.0640
 7254SOL    HW222662   5.465   4.155   6.155 -0.0393  0.4879 -0.1055
 7255SOL     OW22663   5.261   4.834   3.646 -0.0409 -0.5187 -0.2257
 7255SOL    HW122664   5.212   4.913   3.608 -0.8396 -1.2113 -0.6632
 7255SOL    HW222665   5.354   4.832   3.611 -0.3946 -0.4631 -1.1971
 7256SOL     OW22666   5.621   4.386   2.479  0.1165  0.1956  0.7136
 7256SOL    HW122667   5.626   4.344   2.570  1.1054 -0.2429  0.4669
 7256SOL    HW222668   5.709   4.428   2.457 -0.2206  0.5902  0.0850
 7257SOL     OW22669   1.305   1.045   6.006  0.1038 -0.1228 -0.3470
 7257SOL    HW122670   1.309   0.964   5.948 -0.2837  0.7040 -1.5552
 7257SOL    HW222671   1.395   1.061   6.048  0.5127 -0.4573 -1.0881
 7258SOL     OW22672   3.254   6.252   1.917 -0.2263  0.3192  0.1383
 7258SOL    HW122673   3.273   6.348   1.935 -0.1959  0.5700 -1.1086
 7258SOL    HW222674   3.217   6.209   1.999  0.3422  1.2372  0.8906
 7259SOL     OW22675   6.072   0.143   5.011  0.4197 -0.2257  0.1576
 7259SOL    HW122676   6.083   0.086   5.093 -0.0230 -1.3995 -0.5794
 7259SOL    HW222677   6.081   0.087   4.929 -0.0574  0.7589 -0.5993
 7260SOL     OW22678   3.286   0.491   2.943  0.3252 -0.2114 -0.1423
 7260SOL    HW122679   3.201   0.492   2.891  1.7750  0.3199 -2.6944
 7260SOL    HW222680   3.325   0.399   2.944  2.1935  0.3930 -3.5419
 7261SOL     OW22681   3.760   4.559   7.013  0.2716  0.8367  0.3074
 7261SOL    HW122682   3.669   4.529   7.040 -0.8526  0.5739 -3.2308
 7261SOL    HW222683   3.826   4.534   7.083 -2.0614 -0.8540  2.0481
 7262SOL     OW22684   5.908   0.695   0.261  0.0666 -0.1967 -0.4662
 7262SOL    HW122685   5.857   0.772   0.224 -0.6132 -0.7367 -0.6575
 7262SOL    HW222686   5.915   0.623   0.192 -1.3089 -1.2583  0.4500
 7263SOL     OW22687   5.751   1.818   0.479 -0.0595  0.0054  0.0753
 7263SOL    HW122688   5.750   1.752   0.554 -0.7363 -1.1346 -0.8966
 7263SOL    HW222689   5.825   1.794   0.415 -0.5076 -0.0049 -0.4465
 7264SOL     OW22690   4.612   5.240   6.847 -0.1161 -0.5833 -0.2116
 7264SOL    HW122691   4.703   5.250   6.806 -0.8564  0.7530 -1.6561
 7264SOL    HW222692   4.557   5.178   6.791 -0.9690  0.8405 -1.0165
 7265SOL     OW22693   3.287   0.078   0.103 -0.3635 -0.0063 -0.3017
 7265SOL    HW122694   3.350   0.118   0.037  0.4015 -0.1513  0.3320
 7265SOL    HW222695   3.297  -0.022   0.103  0.8519  0.0887  1.2181
 7266SOL     OW22696   3.079   2.119   1.888  0.1875 -0.0907 -0.6139
 7266SOL    HW122697   3.027   2.199   1.919 -0.6846 -0.2111 -1.6937
 7266SOL    HW222698   3.016   2.045   1.867  0.9491 -0.8689 -0.2296
 7267SOL     OW22699   4.437   6.910   5.622 -0.3220 -0.2508 -0.3759
 7267SOL    HW122700   4.356   6.912   5.564  0.1207  1.5450 -1.0090
 7267SOL    HW222701   4.490   6.994   5.609  0.0714  0.0168  2.2522
 7268SOL     OW22702   6.018   1.754   6.644 -0.4012  0.8855 -0.1868
 7268SOL    HW122703   6.049   1.697   6.568 -0.2300  0.1382  0.4270
 7268SOL    HW222704   6.050   1.714   6.730 -0.3271  1.8898  0.2587
 7269SOL     OW22705   4.658   4.331   3.932 -0.2883 -0.2665 -0.1597
 7269SOL    HW122706   4.723   4.281   3.874 -1.3047 -2.6096  0.6466
 7269SOL    HW222707   4.596   4.383   3.873  1.6726  1.3584 -0.9692
 7270SOL     OW22708   3.738   0.273   6.514  0.0381  0.5324 -0.7353
 7270SOL    HW122709   3.769   0.250   6.421 -1.4704 -0.0475 -1.1170
 7270SOL    HW222710   3.696   0.364   6.513 -1.1653 -0.0111 -0.9177
 7271SOL     OW22711   1.194   5.554   1.672  0.3609 -0.4903  0.4435
 7271SOL    HW122712   1.229   5.533   1.763  0.0560  1.3123  1.0124
 7271SOL    HW222713   1.094   5.561   1.676  0.2873 -1.0548 -0.1877
 7272SOL     OW22714   0.712   2.533   0.239 -0.1432 -0.1976  0.1838
 7272SOL    HW122715   0.663   2.454   0.201 -1.5953 -0.2352  1.9805
 7272SOL    HW222716   0.779   2.502   0.306 -0.5546  0.0806  0.7270
 7273SOL     OW22717   1.668   1.287   1.459  0.7514  0.2548  0.0514
 7273SOL    HW122718   1.594   1.335   1.506  0.2815 -0.2996 -0.1093
 7273SOL    HW222719   1.754   1.336   1.473  0.3083  1.0597  0.0062
 7274SOL     OW22720   6.484   1.892   0.750 -0.4683 -0.4305 -0.4217
 7274SOL    HW122721   6.565   1.927   0.797 -0.2049 -1.0539 -0.3921
 7274SOL    HW222722   6.423   1.849   0.816 -1.9264  1.9868 -0.1004
 7275SOL     OW22723   5.428   5.472   1.912  0.1702  0.0043  0.4765
 7275SOL    HW122724   5.460   5.505   1.823  1.1050 -0.6737  0.5460
 7275SOL    HW222725   5.497   5.490   1.981  0.2547 -1.1137  0.7097
 7276SOL     OW22726   0.337   0.574   1.080  0.2580  1.1012  0.0737
 7276SOL    HW122727   0.412   0.553   1.017  0.0466 -2.9803  0.8881
 7276SOL    HW222728   0.251   0.576   1.029  0.5082  2.2212 -0.3352
 7277SOL     OW22729   1.191   0.175   3.516  0.1811 -0.5637  0.0651
 7277SOL    HW122730   1.144   0.245   3.463  1.5093 -0.3739 -0.9039
 7277SOL    HW222731   1.289   0.180   3.499  1.0125  0.8072  4.0080
 7278SOL     OW22732   2.174   4.455   0.210 -0.2839 -0.1639 -0.1496
 7278SOL    HW122733   2.114   4.378   0.234  0.0919  0.0559  1.5899
 7278SOL    HW222734   2.268   4.432   0.234 -0.2927  1.1840  1.3205
 7279SOL     OW22735   0.775   5.401   0.435  0.7291  0.4528  0.9476
 7279SOL    HW122736   0.704   5.462   0.400 -0.2813 -0.3964  1.4416
 7279SOL    HW222737   0.816   5.440   0.517  1.3223  1.2674  0.2713
 7280SOL     OW22738   0.798   3.618   5.215 -0.0181  0.0862  0.7179
 7280SOL    HW122739   0.849   3.534   5.231 -0.4038 -0.1261  0.8256
 7280SOL    HW222740   0.862   3.695   5.208  0.4171 -0.3446 -0.3298
 7281SOL     OW22741   4.918   4.210   4.779 -0.2098 -0.2404 -0.0697
 7281SOL    HW122742   4.905   4.287   4.842 -0.7650 -0.4802  0.1218
 7281SOL    HW222743   4.892   4.125   4.825 -0.7285 -0.4083 -0.6535
 7282SOL     OW22744   1.972   0.577   4.959 -0.0133  0.1482 -0.3796
 7282SOL    HW122745   1.937   0.664   4.922  0.1133 -0.3295 -1.6741
 7282SOL    HW222746   2.053   0.549   4.907 -0.5939 -1.2031 -0.5938
 7283SOL     OW22747   6.909   4.201   6.280 -0.1602  0.4805  0.2244
 7283SOL    HW122748   6.889   4.278   6.341 -0.8635  0.5547 -0.0870
 7283SOL    HW222749   6.914   4.116   6.333 -3.7461  0.0409  0.1363
 7284SOL     OW22750   0.752   0.395   4.241  0.1899  0.0053  0.1734
 7284SOL    HW122751   0.783   0.472   4.296 -0.6865 -0.1079  0.8538
 7284SOL    HW222752   0.814   0.382   4.163 -0.6137  2.5510 -1.0044
 7285SOL     OW22753   0.528   0.809   5.729  0.2227 -0.1665  0.1822
 7285SOL    HW122754   0.626   0.788   5.733  0.1181 -0.5359  0.9686
 7285SOL    HW222755   0.483   0.773   5.810 -0.8554 -1.3732 -0.9113
 7286SOL     OW22756   0.048   1.492   1.265 -0.1513 -0.2478 -0.3220
 7286SOL    HW122757   0.081   1.435   1.189 -1.2048  0.1734 -1.1267
 7286SOL    HW222758   0.126   1.528   1.316  0.5803 -0.6322 -1.1445
 7287SOL     OW22759   0.752   5.596   2.646 -0.2717  0.0503  0.1251
 7287SOL    HW122760   0.794   5.552   2.726  0.2329  0.4399  0.0793
 7287SOL    HW222761   0.816   5.592   2.569  0.0912  1.5084  0.3231
 7288SOL     OW22762   2.850   5.044   1.252  0.0643  0.4173  0.0701
 7288SOL    HW122763   2.827   4.998   1.337  0.7776 -1.4447 -0.7014
 7288SOL    HW222764   2.784   5.019   1.181 -0.1770  1.4803 -0.1034
 7289SOL     OW22765   3.688   3.606   0.202  0.0816  0.1259  0.0658
 7289SOL    HW122766   3.654   3.525   0.251 -1.5480  1.1199  0.6948
 7289SOL    HW222767   3.696   3.585   0.105 -2.0676 -0.3429 -0.0812
 7290SOL     OW22768   1.132   3.174   5.144 -0.7205  0.7545  0.0953
 7290SOL    HW122769   1.179   3.237   5.205  1.9729 -0.2305 -0.8271
 7290SOL    HW222770   1.081   3.106   5.198  3.7313 -1.7752  1.6001
 7291SOL     OW22771   3.637   6.475   5.651 -0.0364  0.5497 -0.3815
 7291SOL    HW122772   3.601   6.406   5.589  0.6233 -0.0005 -0.1598
 7291SOL    HW222773   3.574   6.552   5.655 -0.9892 -0.2143 -0.3210
 7292SOL     OW22774   5.776   4.713   6.466 -0.5264  0.0808 -0.5754
 7292SOL    HW122775   5.677   4.706   6.474 -0.4278  0.7900  2.4824
 7292SOL    HW222776   5.819   4.650   6.530  0.9816  0.7279 -0.9050
 7293SOL     OW22777   0.743   6.337   2.191 -0.0050  0.1917 -0.1476
 7293SOL    HW122778   0.736   6.402   2.115  0.0514  0.2319 -0.1185
 7293SOL    HW222779   0.812   6.267   2.169 -1.2204 -0.8303 -0.9043
 7294SOL     OW22780   2.724   5.367   1.771  0.3467  0.8466  0.4516
 7294SOL    HW122781   2.694   5.359   1.676 -0.6849 -3.3199  0.9323
 7294SOL    HW222782   2.818   5.403   1.773  1.5619 -1.6783 -2.4830
 7295SOL     OW22783   3.241   1.442   6.408 -0.1509  0.2454 -0.0297
 7295SOL    HW122784   3.246   1.540   6.390  1.3399  0.1770 -0.1881
 7295SOL    HW222785   3.243   1.426   6.507  1.2655  0.3594 -0.0103
 7296SOL     OW22786   1.199   2.176   1.917 -0.4963  0.0947 -0.2653
 7296SOL    HW122787   1.199   2.262   1.967  0.3331  0.3811 -0.7517
 7296SOL    HW222788   1.179   2.193   1.820  0.6597 -0.1339 -0.5574
 7297SOL     OW22789   6.961   5.422   5.730 -0.2127 -0.0711  0.0125
 7297SOL    HW122790   6.931   5.327   5.741  0.5794 -0.6111 -1.9864
 7297SOL    HW222791   6.887   5.484   5.755 -1.6293 -1.2718 -1.0767
 7298SOL     OW22792   0.275   6.806   4.681 -0.2735 -0.5461  0.2135
 7298SOL    HW122793   0.288   6.898   4.646 -1.7030 -0.2563  0.3833
 7298SOL    HW222794   0.310   6.800   4.774  1.1783 -0.6089 -0.3091
 7299SOL     OW22795   2.359   0.659   1.362 -0.2746 -0.1052  0.2434
 7299SOL    HW122796   2.262   0.638   1.374 -0.9121  1.2470 -1.9019
 7299SOL    HW222797   2.369   0.756   1.338  1.2056 -0.9158 -3.0080
 7300SOL     OW22798   0.210   2.270   1.411  0.1625  0.0258 -0.5246
 7300SOL    HW122799   0.114   2.274   1.441  0.3894  0.7785  0.1462
 7300SOL    HW222800   0.265   2.329   1.470  1.2308 -1.2442 -0.2227
 7301SOL     OW22801   3.876   6.276   6.598 -0.2101  0.2628  0.1229
 7301SOL    HW122802   3.789   6.325   6.602  0.4105  1.2904  1.4037
 7301SOL    HW222803   3.946   6.328   6.645  0.7419 -1.3287  0.5228
 7302SOL     OW22804   0.085   5.792   5.444 -0.4909  0.3143  0.2791
 7302SOL    HW122805   0.090   5.821   5.348  1.8034 -0.8580 -0.0269
 7302SOL    HW222806  -0.011   5.777   5.469 -1.3498  2.8046 -1.1028
 7303SOL     OW22807   0.076   0.100   0.124  0.0917 -0.1572 -0.2455
 7303SOL    HW122808   0.134   0.071   0.200  0.2384 -0.2451 -0.3919
 7303SOL    HW222809   0.133   0.128   0.047 -0.0273  1.1027  0.0982
 7304SOL     OW22810   5.898   0.381   0.194  0.1189  0.6597 -0.5838
 7304SOL    HW122811   5.985   0.426   0.214  0.3184 -0.5749  1.6102
 7304SOL    HW222812   5.902   0.285   0.221 -1.8356  0.4997 -0.6821
 7305SOL     OW22813   6.595   2.047   3.622 -0.4470  0.6560 -0.3086
 7305SOL    HW122814   6.513   2.006   3.582 -1.4576  0.4865  1.7698
 7305SOL    HW222815   6.584   2.146   3.628 -0.0133  0.7558 -1.0114
 7306SOL     OW22816   3.839   3.570   6.969 -0.8815 -0.0520  0.8152
 7306SOL    HW122817   3.922   3.622   6.946 -1.0666 -0.9015 -2.2315
 7306SOL    HW222818   3.856   3.514   7.049  1.8515 -0.8975 -0.2476
 7307SOL     OW22819   3.460   5.210   2.701  0.1433 -0.5122  0.9280
 7307SOL    HW122820   3.537   5.185   2.760  0.7523 -0.2454  0.2649
 7307SOL    HW222821   3.455   5.147   2.624  0.3971  0.1308  0.3715
 7308SOL     OW22822   5.589   5.629   5.003  0.2347 -0.1841  0.0292
 7308SOL    HW122823   5.666   5.661   5.058  0.9295 -3.9441  1.5131
 7308SOL    HW222824   5.505   5.672   5.037  1.3290  2.5013 -0.3688
 7309SOL     OW22825   5.278   5.833   2.033 -0.4157  0.3955 -0.1523
 7309SOL    HW122826   5.209   5.904   2.044 -1.6188 -0.5536 -1.2415
 7309SOL    HW222827   5.233   5.743   2.031  0.7154 -0.1770 -2.0407
 7310SOL     OW22828   4.567   1.802   1.328 -0.4305 -0.1061 -0.2278
 7310SOL    HW122829   4.629   1.846   1.263  1.2732 -3.4790 -1.1242
 7310SOL    HW222830   4.596   1.822   1.421  1.7587 -1.1488 -0.6268
 7311SOL     OW22831   1.896   5.250   2.962  0.0910 -0.4813  0.1174
 7311SOL    HW122832   1.912   5.301   3.047 -1.0705 -0.7397  0.5121
 7311SOL    HW222833   1.836   5.173   2.981 -0.3698 -0.4082 -0.9897
 7312SOL     OW22834   3.572   3.781   3.604 -0.4302 -0.3624  0.0802
 7312SOL    HW122835   3.641   3.744   3.542 -1.2205 -1.5677 -0.1231
 7312SOL    HW222836   3.491   3.723   3.602 -0.6995 -0.1164  1.8092
 7313SOL     OW22837   0.637   2.144   6.490  0.5319  0.3388  0.3346
 7313SOL    HW122838   0.552   2.178   6.450 -0.3753 -0.7977  1.2143
 7313SOL    HW222839   0.671   2.068   6.434 -0.9195 -1.4780  1.7654
 7314SOL     OW22840   6.649   2.910   4.213  0.0834  0.7249  0.3717
 7314SOL    HW122841   6.621   2.926   4.308  1.2018  1.1701  0.6424
 7314SOL    HW222842   6.691   2.993   4.176 -4.7355  2.4124 -2.2291
 7315SOL     OW22843   5.988   5.851   6.013 -0.0967  0.0485  0.3001
 7315SOL    HW122844   6.014   5.947   6.007  2.6550 -0.6958 -1.4571
 7315SOL    HW222845   5.914   5.840   6.080 -2.0062  3.6170 -0.9734
 7316SOL     OW22846   4.572   0.603   5.792  0.1274  0.3376  0.3561
 7316SOL    HW122847   4.671   0.593   5.804  0.2279  0.4570 -0.3219
 7316SOL    HW222848   4.548   0.700   5.798  0.2087  0.4247 -0.5236
 7317SOL     OW22849   0.317   6.733   3.370 -0.2436 -0.8737  0.4413
 7317SOL    HW122850   0.341   6.746   3.466  1.1386  0.7643 -0.0810
 7317SOL    HW222851   0.330   6.819   3.320 -0.1430 -1.8941 -1.3795
 7318SOL     OW22852   1.543   6.478   3.997 -0.5920  0.2142 -0.3597
 7318SOL    HW122853   1.585   6.469   3.907  1.3736  0.1970  0.5079
 7318SOL    HW222854   1.477   6.554   3.997  0.2589  0.9710 -1.4958
 7319SOL     OW22855   6.878   1.432   6.985 -0.0090  1.0528  0.0491
 7319SOL    HW122856   6.843   1.383   6.905  0.3044 -0.5557  0.8539
 7319SOL    HW222857   6.973   1.459   6.969 -0.1564  1.3320 -0.3705
 7320SOL     OW22858   1.433   7.010   4.180 -0.6977 -0.2092  0.9459
 7320SOL    HW122859   1.440   6.979   4.086 -2.0196 -0.0776  0.7945
 7320SOL    HW222860   1.523   7.005   4.223 -0.1166 -0.4380 -0.2590
 7321SOL     OW22861   5.849   5.697   0.852 -0.5918 -0.1428 -0.2220
 7321SOL    HW122862   5.877   5.772   0.792 -3.2182 -0.1943 -1.6731
 7321SOL    HW222863   5.764   5.722   0.899  0.0520 -1.1228  1.5575
 7322SOL     OW22864   1.894   5.411   5.228 -0.9220  0.0166  0.4344
 7322SOL    HW122865   1.927   5.351   5.301 -1.2838 -0.3944  0.2657
 7322SOL    HW222866   1.884   5.358   5.144 -0.1603  0.5592 -0.0194
 7323SOL     OW22867   1.839   5.136   6.884  0.1407 -0.0151 -0.2647
 7323SOL    HW122868   1.853   5.222   6.933  1.6739 -0.5005  0.1972
 7323SOL    HW222869   1.807   5.066   6.948 -1.7690  0.3440 -0.7655
 7324SOL     OW22870   6.557   6.910   0.512 -0.1605 -0.0073  0.0893
 7324SOL    HW122871   6.627   6.938   0.578  0.8948 -1.7442 -0.2465
 7324SOL    HW222872   6.597   6.901   0.421 -1.7039  2.8554 -1.0231
 7325SOL     OW22873   2.777   0.518   5.146 -0.0721  0.1391  0.0992
 7325SOL    HW122874   2.818   0.439   5.099 -0.1310  0.3492 -0.3087
 7325SOL    HW222875   2.741   0.489   5.235 -0.2576 -0.3325 -0.1269
 7326SOL     OW22876   5.973   2.216   5.333  0.2396 -0.5384 -0.4996
 7326SOL    HW122877   5.955   2.285   5.403 -0.0241  2.3849 -3.2155
 7326SOL    HW222878   5.979   2.126   5.376 -1.9875  0.7508  2.9467
 7327SOL     OW22879   0.994   2.938   1.712  0.0956 -0.7562 -0.2880
 7327SOL    HW122880   0.902   2.974   1.722 -0.5869 -2.5144  0.0985
 7327SOL    HW222881   1.032   2.966   1.624 -0.9073 -0.2413 -0.5636
 7328SOL     OW22882   4.267   0.465   2.439  0.0728  0.5170 -0.0781
 7328SOL    HW122883   4.358   0.504   2.424  0.8153 -1.7567 -2.2700
 7328SOL    HW222884   4.219   0.458   2.351 -1.1822 -0.6964  0.6581
 7329SOL     OW22885   1.205   4.313   1.645  0.7337 -0.6234  0.6516
 7329SOL    HW122886   1.191   4.227   1.597 -2.4050  0.5999 -0.9543
 7329SOL    HW222887   1.283   4.362   1.604  1.1822 -1.7417  0.1290
 7330SOL     OW22888   1.330   5.436   0.741  0.8030  0.2727  0.6565
 7330SOL    HW122889   1.313   5.527   0.779  0.5613  1.3002 -1.7121
 7330SOL    HW222890   1.249   5.379   0.754 -0.0255  1.2529 -0.0658
 7331SOL     OW22891   4.977   3.419   6.755 -0.1303 -0.2373  0.5419
 7331SOL    HW122892   5.001   3.322   6.757  0.6751 -0.0500  3.2073
 7331SOL    HW222893   4.923   3.443   6.835 -2.1440  1.1561 -1.1130
 7332SOL     OW22894   5.726   2.361   6.424 -0.5618 -0.0975 -0.1063
 7332SOL    HW122895   5.645   2.317   6.463 -0.4567 -0.7051 -0.5626
 7332SOL    HW222896   5.743   2.325   6.332  1.3685 -1.4691  0.7267
 7333SOL     OW22897   0.576   2.854   2.862 -0.4614  0.2669 -0.1504
 7333SOL    HW122898   0.644   2.819   2.799  0.0832  1.4242 -0.2367
 7333SOL    HW222899   0.578   2.954   2.861 -1.3571  0.3126  0.7206
 7334SOL     OW22900   4.434   5.772   6.393 -0.1582 -0.1753  0.1908
 7334SOL    HW122901   4.336   5.753   6.399 -0.2765  0.4142  0.1733
 7334SOL    HW222902   4.453   5.861   6.434  0.0806  0.6405 -1.6217
 7335SOL     OW22903   1.519   4.143   2.308  0.0156 -0.0280  0.5595
 7335SOL    HW122904   1.425   4.144   2.341 -0.1556  0.2184  0.0648
 7335SOL    HW222905   1.532   4.216   2.241  0.4555 -0.3069  0.3357
 7336SOL     OW22906   6.391   1.078   4.117  0.4679 -0.4226  0.4464
 7336SOL    HW122907   6.321   1.023   4.162 -0.4138 -0.9792 -1.5182
 7336SOL    HW222908   6.448   1.122   4.187 -0.1689 -2.0451  2.0830
 7337SOL     OW22909   0.771   6.761   2.816  0.0435  0.1150  0.0357
 7337SOL    HW122910   0.871   6.760   2.826  0.2251 -0.8375 -1.5151
 7337SOL    HW222911   0.745   6.699   2.742 -1.7114  0.3473  0.4291
 7338SOL     OW22912   4.588   2.621   5.508 -0.7331  0.8710 -0.1799
 7338SOL    HW122913   4.576   2.713   5.546  0.7551  1.5635 -1.2919
 7338SOL    HW222914   4.679   2.587   5.532 -0.5968  0.4277 -1.2741
 7339SOL     OW22915   2.200   3.955   5.835 -0.3878 -0.6478  0.0007
 7339SOL    HW122916   2.190   3.878   5.773 -0.0655 -1.2273  0.6593
 7339SOL    HW222917   2.220   4.038   5.782 -0.9958 -0.9528 -0.7315
 7340SOL     OW22918   3.138   0.967   2.352 -0.5967  0.7081 -0.3592
 7340SOL    HW122919   3.202   0.985   2.277  2.1636 -0.1905  1.6072
 7340SOL    HW222920   3.112   0.870   2.350  0.8186  0.2759  0.7305
 7341SOL     OW22921   0.346   4.021   6.871 -0.8473 -0.2041  0.2130
 7341SOL    HW122922   0.283   4.099   6.866 -2.2185 -1.1775  1.4135
 7341SOL    HW222923   0.319   3.962   6.947  0.7379 -1.3700 -0.0914
 7342SOL     OW22924   4.302   5.267   1.082  0.0226 -0.0873  0.1497
 7342SOL    HW122925   4.336   5.176   1.106 -0.4554 -0.5694 -0.9097
 7342SOL    HW222926   4.328   5.332   1.153 -1.0816 -1.3656  1.8354
 7343SOL     OW22927   6.607   5.763   6.940  0.7816  0.2374  0.2092
 7343SOL    HW122928   6.634   5.821   6.863 -0.0655 -0.8423 -0.9426
 7343SOL    HW222929   6.650   5.674   6.931 -0.2340 -0.2783  0.3583
 7344SOL     OW22930   3.574   5.736   3.626  0.5302  0.3895 -0.3391
 7344SOL    HW122931   3.626   5.651   3.623 -0.2510 -0.0843 -1.0259
 7344SOL    HW222932   3.586   5.785   3.539  1.3050  1.1964  0.2050
 7345SOL     OW22933   4.045   4.441   6.157 -0.0480  0.0032 -0.4477
 7345SOL    HW122934   3.957   4.471   6.120  0.5485 -0.7394 -2.5684
 7345SOL    HW222935   4.063   4.491   6.242 -2.1658  0.6823 -0.3227
 7346SOL     OW22936   1.222   4.015   1.121 -0.4114  0.2516  0.2309
 7346SOL    HW122937   1.314   4.038   1.150 -0.3696  0.1658  0.1694
 7346SOL    HW222938   1.189   4.083   1.056  0.7458 -1.2519 -2.0608
 7347SOL     OW22939   0.077   0.113   4.748 -0.5078  0.1053  0.8807
 7347SOL    HW122940   0.081   0.108   4.848 -1.5491  0.4667  0.9505
 7347SOL    HW222941   0.075   0.208   4.719  1.3544  0.0553  0.4118
 7348SOL     OW22942   1.616   0.398   1.885 -0.4077  0.3650 -0.0067
 7348SOL    HW122943   1.535   0.458   1.882 -1.3684 -0.9082 -0.1343
 7348SOL    HW222944   1.587   0.303   1.880  1.1761 -0.0969 -1.1327
 7349SOL     OW22945   6.012   6.455   6.499  0.8009  0.3166 -0.1450
 7349SOL    HW122946   5.915   6.453   6.476  1.0841 -0.6315 -1.3797
 7349SOL    HW222947   6.030   6.390   6.573  0.3971  0.9943  0.5608
 7350SOL     OW22948   6.790   2.609   6.775  0.0751  0.3549  0.1636
 7350SOL    HW122949   6.851   2.600   6.696  0.4910 -1.6469  0.6713
 7350SOL    HW222950   6.723   2.681   6.756  0.0591 -0.1684 -2.0922
 7351SOL     OW22951   1.665   2.990   6.169  0.1435 -0.5723  0.4551
 7351SOL    HW122952   1.764   2.973   6.168  0.4003  0.7996 -0.8735
 7351SOL    HW222953   1.633   2.995   6.264  1.4473 -0.4735  0.9137
 7352SOL     OW22954   4.379   6.356   4.621  0.0414  0.1733  0.5805
 7352SOL    HW122955   4.393   6.407   4.706 -1.0926 -0.0899  0.9473
 7352SOL    HW222956   4.369   6.259   4.643 -1.3593  0.2308  0.2838
 7353SOL     OW22957   2.283   2.734   3.440 -0.0518  0.3008 -0.3369
 7353SOL    HW122958   2.349   2.702   3.508 -1.6630 -0.9037  0.7087
 7353SOL    HW222959   2.319   2.717   3.348  0.6299 -1.3552  0.2028
 7354SOL     OW22960   6.542   3.299   4.570  0.0494  0.0593  0.3791
 7354SOL    HW122961   6.587   3.259   4.489  0.9113  1.8126 -0.0646
 7354SOL    HW222962   6.546   3.399   4.564 -1.7358  0.2434  1.5947
 7355SOL     OW22963   4.502   6.253   5.446  0.4676  0.0051 -0.2465
 7355SOL    HW122964   4.522   6.156   5.458  0.0553 -0.5460 -3.2169
 7355SOL    HW222965   4.405   6.269   5.461  0.5221 -0.0352  0.1691
 7356SOL     OW22966   6.929   6.560   3.994  0.0471  1.2261  0.2959
 7356SOL    HW122967   6.838   6.556   4.036 -0.1291  0.1054 -0.1533
 7356SOL    HW222968   6.997   6.528   4.059 -0.0288  0.9504  0.2394
 7357SOL     OW22969   3.174   0.096   3.485 -0.6059 -0.0267 -0.0247
 7357SOL    HW122970   3.100   0.065   3.425 -1.4557  0.6373  0.6521
 7357SOL    HW222971   3.247   0.138   3.430 -0.7150 -0.7018 -0.6979
 7358SOL     OW22972   1.971   5.424   0.842  0.3240 -0.2909  0.0954
 7358SOL    HW122973   2.029   5.448   0.920 -1.9950  0.3893  1.7195
 7358SOL    HW222974   2.006   5.468   0.759  2.5496 -0.5920  0.8293
 7359SOL     OW22975   5.360   0.286   2.486 -0.6716 -0.2972 -0.3321
 7359SOL    HW122976   5.325   0.196   2.460 -0.5162 -0.6206  0.5455
 7359SOL    HW222977   5.369   0.343   2.404  0.4075 -1.4848 -1.0954
 7360SOL     OW22978   3.556   3.726   2.330 -0.0177 -0.6327  0.3466
 7360SOL    HW122979   3.534   3.734   2.427  0.3196 -0.1913  0.3920
 7360SOL    HW222980   3.472   3.738   2.276  0.0961  1.2416  0.5077
 7361SOL     OW22981   0.801   6.237   6.739 -0.4548  0.4079  0.0967
 7361SOL    HW122982   0.753   6.178   6.674  1.7153 -1.5616  0.1292
 7361SOL    HW222983   0.795   6.198   6.831  2.2375 -0.7324 -0.1073
 7362SOL     OW22984   5.165   6.001   5.051 -0.3744  0.5603  0.2208
 7362SOL    HW122985   5.091   6.053   5.094 -1.6518  1.4658 -2.8284
 7362SOL    HW222986   5.239   6.063   5.025  0.1772  0.1040  0.6721
 7363SOL     OW22987   0.975   1.256   2.827 -0.4858  0.2416 -0.3527
 7363SOL    HW122988   0.882   1.224   2.844 -0.0509 -0.8422  0.0495
 7363SOL    HW222989   1.024   1.265   2.913  0.0616 -0.0633 -0.6298
 7364SOL     OW22990   0.467   2.430   5.612 -0.6590 -0.1691 -0.8070
 7364SOL    HW122991   0.424   2.493   5.547  1.9080 -0.2735 -2.7643
 7364SOL    HW222992   0.440   2.337   5.590  0.2081 -0.2054 -1.8006
 7365SOL     OW22993   6.813   5.512   5.381  0.8965 -0.1241 -0.8941
 7365SOL    HW122994   6.899   5.462   5.369 -0.0320 -2.1598  0.4701
 7365SOL    HW222995   6.747   5.454   5.427 -1.3857  1.2427 -2.2553
 7366SOL     OW22996   6.201   6.001   6.209 -0.3443 -0.0596  0.1192
 7366SOL    HW122997   6.199   6.038   6.116 -0.5637 -2.6557 -0.9894
 7366SOL    HW222998   6.131   6.046   6.265 -0.5349  1.2016 -1.0885
 7367SOL     OW22999   1.475   6.638   6.226  0.0786  0.0214 -0.2044
 7367SOL    HW123000   1.533   6.568   6.185  0.5220  0.1464  0.1904
 7367SOL    HW223001   1.463   6.618   6.324  1.3171  1.1907  0.2252
 7368SOL     OW23002   3.457   3.161   3.154  0.0556 -0.3243  0.0599
 7368SOL    HW123003   3.555   3.153   3.172 -0.2029 -1.2835  1.1165
 7368SOL    HW223004   3.441   3.241   3.096  1.3938  0.2029  0.3740
 7369SOL     OW23005   6.172   6.120   5.624 -0.0358 -0.1782  0.2553
 7369SOL    HW123006   6.259   6.152   5.661 -0.4127 -0.1570  1.1534
 7369SOL    HW223007   6.100   6.183   5.651 -0.1004  0.7563 -1.9306
 7370SOL     OW23008   6.345   7.010   1.219  0.0977 -0.4701 -0.5576
 7370SOL    HW123009   6.437   6.976   1.236  0.7027  0.4219 -1.8237
 7370SOL    HW223010   6.345   7.066   1.136 -0.5815  3.3458  1.7679
 7371SOL     OW23011   2.354   4.697   3.949 -0.2188 -0.1445 -0.3088
 7371SOL    HW123012   2.387   4.667   4.039  0.1372 -0.3075 -0.4891
 7371SOL    HW223013   2.420   4.670   3.879  0.0294  0.9181 -0.5000
 7372SOL     OW23014   6.802   2.730   3.720  0.1280 -0.5928 -0.1300
 7372SOL    HW123015   6.799   2.635   3.752 -1.6769 -0.4556  0.2382
 7372SOL    HW223016   6.717   2.776   3.746  1.8362  1.7805  1.6435
 7373SOL     OW23017   5.949   6.475   5.195  0.3578  0.3155 -0.0744
 7373SOL    HW123018   5.944   6.500   5.098 -0.9801  1.1810  0.1862
 7373SOL    HW223019   5.881   6.528   5.246 -0.7047 -1.9257  0.9507
 7374SOL     OW23020   4.808   1.729   2.675  0.0330 -0.1456  0.3802
 7374SOL    HW123021   4.807   1.635   2.641 -0.5565  0.0390 -0.1284
 7374SOL    HW223022   4.805   1.792   2.598  0.0594  0.2908  0.7356
 7375SOL     OW23023   2.535   6.737   0.532  0.4061 -0.5989 -0.4894
 7375SOL    HW123024   2.548   6.666   0.601  1.0987 -0.0428 -0.0300
 7375SOL    HW223025   2.578   6.708   0.446 -0.2891 -1.2087 -0.6419
 7376SOL     OW23026   6.927   4.254   1.001  0.4347 -0.0108 -0.1660
 7376SOL    HW123027   6.858   4.184   0.981  0.5863 -0.3987  0.6422
 7376SOL    HW223028   6.882   4.343   1.011  0.3232  0.1790 -1.9741
 7377SOL     OW23029   1.846   3.982   3.995  0.3535  0.2674 -0.0013
 7377SOL    HW123030   1.809   3.905   3.944 -1.5797  0.1523  1.4767
 7377SOL    HW223031   1.899   4.041   3.934 -0.6960 -0.5959 -1.8060
 7378SOL     OW23032   4.185   6.116   6.233  0.2907 -0.2713 -0.2400
 7378SOL    HW123033   4.124   6.038   6.215 -1.0963  0.8928 -0.7845
 7378SOL    HW223034   4.237   6.137   6.151  0.3210 -0.3478 -0.2398
 7379SOL     OW23035   3.085   5.279   6.280 -0.2944 -0.1774  0.4924
 7379SOL    HW123036   2.997   5.293   6.326 -1.0285 -0.6593 -0.6878
 7379SOL    HW223037   3.116   5.366   6.240 -0.8617 -0.2440 -0.1151
 7380SOL     OW23038   2.162   2.515   0.622  0.5799 -0.2904 -0.1195
 7380SOL    HW123039   2.141   2.542   0.528  1.1814  0.8405  0.0469
 7380SOL    HW223040   2.192   2.596   0.673  1.8488 -1.1776  0.5933
 7381SOL     OW23041   5.316   4.508   2.600 -0.3890 -0.0472 -0.3774
 7381SOL    HW123042   5.262   4.433   2.638  0.7887  0.3266  2.1840
 7381SOL    HW223043   5.399   4.470   2.557  1.3263 -0.2193  2.8279
 7382SOL     OW23044   0.679   1.218   3.485  0.4007 -0.3930 -0.5633
 7382SOL    HW123045   0.696   1.158   3.406  1.3424  0.4495 -1.0259
 7382SOL    HW223046   0.656   1.309   3.453 -0.3560 -0.3243  0.1466
 7383SOL     OW23047   0.797   6.059   3.127 -0.0187  0.0140 -0.3479
 7383SOL    HW123048   0.791   5.959   3.123 -0.3344  0.0438 -0.6373
 7383SOL    HW223049   0.820   6.095   3.037  0.0881  0.2064 -0.2458
 7384SOL     OW23050   0.049   5.748   2.657  0.6485  0.1760  0.0054
 7384SOL    HW123051   0.016   5.710   2.743  1.5240 -0.1615  0.2038
 7384SOL    HW223052  -0.018   5.813   2.621 -0.6826 -1.1974 -0.1219
 7385SOL     OW23053   3.174   2.404   5.878  0.2992  0.2790 -0.2317
 7385SOL    HW123054   3.110   2.367   5.945  1.4573 -0.0464  0.7285
 7385SOL    HW223055   3.123   2.438   5.798 -0.9520 -1.7313 -0.3654
 7386SOL     OW23056   3.933   3.054   6.767  0.1334  0.1322 -0.0808
 7386SOL    HW123057   3.955   2.994   6.843 -0.0822 -0.1229 -0.2162
 7386SOL    HW223058   3.914   2.999   6.685 -0.0284  0.3848 -0.2155
 7387SOL     OW23059   1.886   4.240   2.110 -0.2481 -0.4800  0.0089
 7387SOL    HW123060   1.947   4.279   2.180  1.2504 -1.5152 -0.6566
 7387SOL    HW223061   1.821   4.309   2.081  1.3983  1.1095 -0.1300
 7388SOL     OW23062   6.523   5.153   4.257  0.0695  0.3709 -0.8789
 7388SOL    HW123063   6.537   5.183   4.352  2.7989  0.4390 -1.2240
 7388SOL    HW223064   6.430   5.177   4.228 -0.6718  0.8092  1.5822
 7389SOL     OW23065   0.566   5.243   4.100  0.2070 -0.3625  0.5679
 7389SOL    HW123066   0.625   5.252   4.019 -0.5307 -0.9452 -0.0506
 7389SOL    HW223067   0.623   5.224   4.180  0.9465  0.1510  0.1762
 7390SOL     OW23068   2.172   0.939   6.162  0.4561  0.0669 -0.3339
 7390SOL    HW123069   2.089   0.940   6.105  0.2514  0.9547 -0.0385
 7390SOL    HW223070   2.247   0.981   6.112  0.5162  0.0110 -0.2911
 7391SOL     OW23071   3.746   5.138   6.987  0.5034 -0.2625  0.2629
 7391SOL    HW123072   3.691   5.186   7.055  0.3033  1.4331 -1.0168
 7391SOL    HW223073   3.723   5.041   6.987 -1.3510  0.1382  0.8413
 7392SOL     OW23074   3.202   6.317   6.672  0.4131  0.1645  0.3861
 7392SOL    HW123075   3.167   6.326   6.765  0.4856 -1.4300  0.5940
 7392SOL    HW223076   3.151   6.246   6.624  1.2110  0.0880 -0.3778
 7393SOL     OW23077   0.840   2.150   0.023  0.6647 -0.4749  0.0089
 7393SOL    HW123078   0.828   2.132  -0.075 -0.2736 -0.2899  0.0758
 7393SOL    HW223079   0.906   2.224   0.036  0.6332 -0.3525 -0.4964
 7394SOL     OW23080   4.774   0.717   4.794  0.1723 -0.3416  0.2740
 7394SOL    HW123081   4.824   0.669   4.721  5.9423  3.3813  1.1464
 7394SOL    HW223082   4.773   0.815   4.774 -0.4967  0.5157  3.9345
 7395SOL     OW23083   4.247   4.754   3.118  0.9489 -0.3122  0.4762
 7395SOL    HW123084   4.183   4.760   3.194  0.5406 -1.6950  0.2668
 7395SOL    HW223085   4.334   4.717   3.150  0.9782 -0.3194  0.3906
 7396SOL     OW23086   0.554   4.636   2.940 -0.3815 -0.6254 -0.1072
 7396SOL    HW123087   0.629   4.626   3.006  0.8580 -1.4919 -1.5964
 7396SOL    HW223088   0.496   4.556   2.943  0.4002 -1.2374 -0.9212
 7397SOL     OW23089   5.279   6.434   6.780 -0.0168  0.5004  0.3299
 7397SOL    HW123090   5.229   6.491   6.715  0.1049 -0.0770 -0.2793
 7397SOL    HW223091   5.360   6.395   6.735 -1.3850 -2.1201 -0.0324
 7398SOL     OW23092   6.940   4.440   5.487 -0.5222  0.2932 -0.2219
 7398SOL    HW123093   6.938   4.508   5.414  0.5528  1.4371  0.7765
 7398SOL    HW223094   7.003   4.366   5.463  0.3510  1.0112 -0.1610
 7399SOL     OW23095   5.265   2.204   4.222  0.4774  0.4300 -0.5698
 7399SOL    HW123096   5.316   2.285   4.249  2.0053 -0.3670 -0.9626
 7399SOL    HW223097   5.178   2.231   4.181 -0.6972  1.7686  2.4722
 7400SOL     OW23098   6.124   5.009   1.753  0.1973 -0.3407  0.2990
 7400SOL    HW123099   6.215   4.967   1.753  0.9569  1.1697  2.3311
 7400SOL    HW223100   6.117   5.071   1.675 -0.0331 -2.2277 -1.2711
 7401SOL     OW23101   2.544   5.746   0.047  0.4574  0.0926  0.0658
 7401SOL    HW123102   2.634   5.787   0.059  0.1519  1.1421 -1.0482
 7401SOL    HW223103   2.523   5.739  -0.051 -0.6008 -0.3002  0.3038
 7402SOL     OW23104   0.034   3.984   5.931  0.3035  0.1856 -0.9388
 7402SOL    HW123105  -0.058   3.946   5.933  0.3882 -0.0248 -1.0073
 7402SOL    HW223106   0.033   4.076   5.971  0.2797 -0.2613  0.1048
 7403SOL     OW23107   6.941   5.906   4.920 -0.0458  0.1006  0.2232
 7403SOL    HW123108   7.008   5.877   4.852  1.3877  0.9273  1.2082
 7403SOL    HW223109   6.986   5.913   5.009 -2.0732 -1.9571  1.5169
 7404SOL     OW23110   4.428   1.004   1.029 -0.5821  0.0439  0.0844
 7404SOL    HW123111   4.398   1.100   1.027 -0.9685 -0.0677  0.4666
 7404SOL    HW223112   4.360   0.946   0.985  0.2545  0.0893 -1.3463
 7405SOL     OW23113   3.500   4.528   0.996  0.1503 -0.3177  0.2789
 7405SOL    HW123114   3.527   4.613   0.951 -0.3604  0.4852  1.4525
 7405SOL    HW223115   3.523   4.451   0.937  0.8607  0.6087 -0.6973
 7406SOL     OW23116   6.985   1.997   1.118 -0.0799  0.3073  0.3381
 7406SOL    HW123117   7.084   1.987   1.105  0.2772  3.3208 -0.0567
 7406SOL    HW223118   6.955   2.084   1.079 -2.9548 -0.5903  0.3189
 7407SOL     OW23119   1.005   2.352   0.112  1.0345 -0.4850 -0.0472
 7407SOL    HW123120   0.961   2.420   0.053  2.1071  0.4550  0.1915
 7407SOL    HW223121   0.995   2.380   0.208  2.1357 -0.2234  0.0114
 7408SOL     OW23122   3.013   1.621   6.666  0.5010 -0.5178 -0.2881
 7408SOL    HW123123   2.969   1.624   6.577  0.0826 -1.7886 -0.1351
 7408SOL    HW223124   3.065   1.536   6.675  1.1158 -0.0822  0.4172
 7409SOL     OW23125   0.780   5.415   5.729  0.0654 -0.4991 -0.6742
 7409SOL    HW123126   0.832   5.469   5.663  0.4105  0.4474  0.3283
 7409SOL    HW223127   0.717   5.355   5.681  0.5960 -0.1426 -1.8637
 7410SOL     OW23128   6.519   3.904   2.389  0.2793 -0.3628  0.5105
 7410SOL    HW123129   6.494   3.886   2.294 -1.1555  4.3359 -0.2583
 7410SOL    HW223130   6.575   3.987   2.394 -1.1048  0.5483  3.8530
 7411SOL     OW23131   4.262   1.977   6.206  0.3136 -0.1961  0.1080
 7411SOL    HW123132   4.195   2.039   6.249  0.2145  0.6305 -1.1802
 7411SOL    HW223133   4.352   1.993   6.246  0.3962  1.2019 -0.5703
 7412SOL     OW23134   2.006   6.795   6.536  0.0889  0.3326  0.7901
 7412SOL    HW123135   2.100   6.763   6.523  0.3138  0.8812  1.0134
 7412SOL    HW223136   1.944   6.716   6.536  0.3520  0.0847 -0.9088
 7413SOL     OW23137   2.024   0.822   0.384 -0.5410 -0.4108  0.3211
 7413SOL    HW123138   1.982   0.745   0.336  0.0178 -0.3618 -0.2590
 7413SOL    HW223139   2.114   0.796   0.417  0.5275  0.5701 -1.6303
 7414SOL     OW23140   4.875   0.778   4.531 -0.7544 -0.2917  0.0249
 7414SOL    HW123141   4.967   0.809   4.510 -1.2147 -0.0128 -1.7724
 7414SOL    HW223142   4.861   0.686   4.492 -1.7856  0.4180 -1.3702
 7415SOL     OW23143   3.473   3.225   1.943 -0.0914  0.2594 -0.4447
 7415SOL    HW123144   3.375   3.211   1.959 -0.2327  2.2251  0.8731
 7415SOL    HW223145   3.503   3.171   1.864 -1.8281 -1.7272  0.1683
 7416SOL     OW23146   0.062   5.113   3.514 -0.7134 -0.4316 -0.3746
 7416SOL    HW123147   0.138   5.175   3.495 -0.1418 -0.8551  0.4956
 7416SOL    HW223148  -0.013   5.132   3.450  0.0702  0.0689 -1.1607
 7417SOL     OW23149   0.259   1.653   1.403 -0.2472  0.4806  0.2867
 7417SOL    HW123150   0.282   1.738   1.449  1.2352 -0.3080  1.0352
 7417SOL    HW223151   0.262   1.577   1.467 -0.2767 -0.3386 -0.6490
 7418SOL     OW23152   3.480   2.009   0.370  0.0338  0.4933 -0.0603
 7418SOL    HW123153   3.431   1.980   0.453  1.8635 -0.6461  0.6742
 7418SOL    HW223154   3.503   2.106   0.378  0.8491  0.2179  1.1283
 7419SOL     OW23155   3.898   6.523   2.913 -0.2776 -0.2689  0.4582
 7419SOL    HW123156   3.823   6.482   2.965  0.4967 -2.1550  0.1913
 7419SOL    HW223157   3.984   6.509   2.963  0.0378  0.9784  0.2933
 7420SOL     OW23158   5.900   5.881   5.702  0.1327 -0.3485 -0.2133
 7420SOL    HW123159   5.876   5.846   5.612  1.6926  1.1945 -1.2835
 7420SOL    HW223160   5.994   5.856   5.724  0.8142  1.8678 -0.4070
 7421SOL     OW23161   0.686   0.030   5.444 -0.7407  0.3285 -0.3268
 7421SOL    HW123162   0.733  -0.035   5.384 -2.2628  0.1239 -1.3505
 7421SOL    HW223163   0.596  -0.006   5.467 -0.9746  1.3582  0.4390
 7422SOL     OW23164   5.435   6.780   3.050  0.0113 -0.0807  0.1965
 7422SOL    HW123165   5.339   6.772   3.024 -0.6555  1.0022  2.0976
 7422SOL    HW223166   5.486   6.701   3.016 -1.2620 -0.0642 -1.9074
 7423SOL     OW23167   2.864   3.625   4.041 -0.0658  0.0402  0.3284
 7423SOL    HW123168   2.781   3.571   4.046  0.7253 -1.2050  0.3270
 7423SOL    HW223169   2.877   3.674   4.128  0.5720 -1.8830  1.3775
 7424SOL     OW23170   6.265   1.368   5.587 -0.0164  0.0908 -0.4946
 7424SOL    HW123171   6.249   1.360   5.685  3.2002 -2.5628 -0.0358
 7424SOL    HW223172   6.189   1.326   5.537  0.3382 -2.6111  1.0693
 7425SOL     OW23173   0.793   4.803   3.895  0.6693 -0.4639  0.5691
 7425SOL    HW123174   0.819   4.708   3.914  2.1318  0.4021  3.3854
 7425SOL    HW223175   0.752   4.844   3.976  0.0523  1.3451 -0.5948
 7426SOL     OW23176   2.850   0.771   3.417  0.1115  0.2656 -0.4877
 7426SOL    HW123177   2.931   0.777   3.360 -0.1598 -1.1987 -1.0599
 7426SOL    HW223178   2.832   0.675   3.441  1.1860  0.8828  3.4647
 7427SOL     OW23179   5.987   2.396   6.407 -0.1992 -0.2139 -0.1728
 7427SOL    HW123180   5.888   2.385   6.414 -0.7188  3.0032 -0.6971
 7427SOL    HW223181   6.018   2.464   6.474  1.5778 -0.7328 -0.4117
 7428SOL     OW23182   6.215   3.973   1.537  0.2601  0.1272 -0.1564
 7428SOL    HW123183   6.171   4.002   1.453  2.1954  1.0088 -0.9364
 7428SOL    HW223184   6.285   3.904   1.516  0.0165 -0.4542  0.8742
 7429SOL     OW23185   3.019   0.084   1.449 -0.0680 -0.5190 -0.0099
 7429SOL    HW123186   2.991   0.028   1.527 -0.9643 -3.7105 -2.4430
 7429SOL    HW223187   3.114   0.112   1.461  0.4917 -2.7488  1.2722
 7430SOL     OW23188   0.280   5.626   3.847  0.0840 -0.2226  0.0621
 7430SOL    HW123189   0.343   5.697   3.879  0.7072 -0.6496 -0.1916
 7430SOL    HW223190   0.194   5.632   3.898 -0.2061  1.2731 -0.5760
 7431SOL     OW23191   5.177   1.922   3.776  0.0507  0.3927  0.4796
 7431SOL    HW123192   5.110   1.926   3.851  0.9283  1.1723  1.2567
 7431SOL    HW223193   5.202   2.015   3.749  1.3959  0.1383  0.7547
 7432SOL     OW23194   3.163   4.100   6.874  0.4636  0.6688 -0.3688
 7432SOL    HW123195   3.247   4.113   6.927  1.0063 -1.5001 -0.6060
 7432SOL    HW223196   3.181   4.040   6.796 -1.3966 -0.2735 -0.1359
 7433SOL     OW23197   5.835   0.646   5.969  0.1430 -0.3496  0.1745
 7433SOL    HW123198   5.757   0.630   6.029 -1.4814 -2.0935 -2.1718
 7433SOL    HW223199   5.897   0.567   5.972  0.6296  0.0299  0.3440
 7434SOL     OW23200   1.212   1.374   5.216  0.1932  0.1144 -0.3705
 7434SOL    HW123201   1.151   1.451   5.198 -0.4359 -0.3848 -0.4110
 7434SOL    HW223202   1.305   1.408   5.230 -0.1708  0.9252  0.1531
 7435SOL     OW23203   6.577   4.527   3.047 -0.0307  0.2873 -0.3739
 7435SOL    HW123204   6.543   4.612   3.006  2.0786  0.7797 -1.2365
 7435SOL    HW223205   6.646   4.486   2.987  0.0294 -1.2977  0.7072
 7436SOL     OW23206   4.669   1.103   1.824 -0.6330  0.0294  0.4551
 7436SOL    HW123207   4.582   1.118   1.777 -0.4295 -0.7272 -0.1727
 7436SOL    HW223208   4.745   1.129   1.764 -0.3957 -0.2959  0.6085
 7437SOL     OW23209   6.662   2.627   4.122  0.3598 -0.4030  0.1648
 7437SOL    HW123210   6.656   2.597   4.027  0.6513 -2.1199  0.6603
 7437SOL    HW223211   6.670   2.727   4.125  1.1338 -0.3771 -1.6313
 7438SOL     OW23212   6.819   1.696   6.894  0.1776 -0.1355 -0.1335
 7438SOL    HW123213   6.823   1.705   6.794 -1.1252  0.8395 -0.1280
 7438SOL    HW223214   6.873   1.616   6.922  0.2628 -0.6531 -1.6474
 7439SOL     OW23215   0.448   0.112   0.689 -0.0799 -0.5140  0.0095
 7439SOL    HW123216   0.441   0.135   0.786  1.9632  0.7407 -0.0757
 7439SOL    HW223217   0.531   0.058   0.673 -0.8711 -1.5085 -0.9406
 7440SOL     OW23218   4.624   4.916   1.006 -0.0986 -0.9411 -0.4039
 7440SOL    HW123219   4.540   4.903   0.953  1.3269  1.7075 -3.7130
 7440SOL    HW223220   4.703   4.902   0.947  1.6774  1.5412  1.2066
 7441SOL     OW23221   0.884   1.005   0.959 -0.2530  0.2852  0.5177
 7441SOL    HW123222   0.874   1.074   1.031  0.4602  1.3937 -0.4005
 7441SOL    HW223223   0.981   0.989   0.941 -0.3574  1.4610 -1.4611
 7442SOL     OW23224   4.969   4.627   0.921  0.1981 -0.1471 -0.3794
 7442SOL    HW123225   4.961   4.567   1.001 -2.1207 -0.9452 -1.1249
 7442SOL    HW223226   4.928   4.715   0.941  0.9380  0.1821 -0.2559
 7443SOL     OW23227   6.489   4.057   1.019 -0.7762 -0.2212  0.3433
 7443SOL    HW123228   6.525   4.150   1.013  2.8467 -1.1912  3.2522
 7443SOL    HW223229   6.487   4.016   0.928  1.6096  1.4165 -0.5606
 7444SOL     OW23230   5.571   1.177   5.239 -0.4443  0.1426  0.2469
 7444SOL    HW123231   5.666   1.200   5.262 -0.6903  0.9124  0.5526
 7444SOL    HW223232   5.510   1.219   5.307 -0.8985 -2.2013  1.3842
 7445SOL     OW23233   6.422   0.960   1.202  0.4779  0.4661 -0.6783
 7445SOL    HW123234   6.462   1.052   1.206  5.3934 -1.3471 -0.8302
 7445SOL    HW223235   6.429   0.917   1.292 -2.1177  0.2632 -0.5113
 7446SOL     OW23236   1.587   0.089   1.236  0.5820  0.0689  0.2120
 7446SOL    HW123237   1.612   0.029   1.160  0.4159 -0.8801  0.8846
 7446SOL    HW223238   1.667   0.106   1.293  0.4083 -0.3554  0.5882
 7447SOL     OW23239   4.273   0.558   6.031 -0.0166 -0.1480  0.3972
 7447SOL    HW123240   4.300   0.477   5.979 -1.3038 -0.7594  0.6353
 7447SOL    HW223241   4.354   0.604   6.066  0.7090 -1.9613  1.2136
 7448SOL     OW23242   3.572   1.179   0.322  0.2932  0.1140 -0.0788
 7448SOL    HW123243   3.634   1.249   0.358  1.3328 -1.8324  2.1879
 7448SOL    HW223244   3.616   1.130   0.247  1.5614 -1.1903  1.4548
 7449SOL     OW23245   6.145   5.761   4.770 -0.6966  0.3293  0.4736
 7449SOL    HW123246   6.231   5.811   4.757  0.1805 -1.1783  0.2846
 7449SOL    HW223247   6.136   5.736   4.866 -0.7084  0.0914  0.4094
 7450SOL     OW23248   1.499   1.440   4.248  0.4554 -0.2848 -0.0111
 7450SOL    HW123249   1.418   1.383   4.233 -2.5785  3.4018  0.7308
 7450SOL    HW223250   1.538   1.420   4.338 -0.8588 -0.8410  0.4642
 7451SOL     OW23251   5.351   5.426   0.409 -0.5644 -0.1959 -0.0441
 7451SOL    HW123252   5.298   5.369   0.473 -0.0457 -0.6907 -0.0472
 7451SOL    HW223253   5.361   5.518   0.448  1.5849 -1.0519  1.6687
 7452SOL     OW23254   5.091   3.191   6.848  0.4624  0.2123  0.5054
 7452SOL    HW123255   5.140   3.170   6.763  0.1724  0.7287  0.2032
 7452SOL    HW223256   5.033   3.113   6.873 -2.3026  1.3501 -1.7960
 7453SOL     OW23257   6.289   3.599   3.918 -0.6444 -0.2571  0.3305
 7453SOL    HW123258   6.208   3.656   3.928  0.6820  1.7637  0.0201
 7453SOL    HW223259   6.351   3.616   3.995  0.3288 -0.3686 -0.4184
 7454SOL     OW23260   3.625   3.826   4.613  0.5920  0.4027  0.3201
 7454SOL    HW123261   3.706   3.804   4.668  0.5248  0.6263  0.5113
 7454SOL    HW223262   3.635   3.917   4.574  2.6224 -1.2693 -3.6394
 7455SOL     OW23263   6.363   6.955   4.263  0.3938 -0.5860  0.0186
 7455SOL    HW123264   6.275   6.934   4.306  1.4816 -2.2783  1.5824
 7455SOL    HW223265   6.378   7.053   4.262 -0.9222 -0.3592  0.9590
 7456SOL     OW23266   6.534   3.037   5.376 -0.7013  0.3168 -0.1641
 7456SOL    HW123267   6.526   3.132   5.406 -0.3131  0.7941 -1.5070
 7456SOL    HW223268   6.494   2.977   5.446  0.6457  1.3040  1.5394
 7457SOL     OW23269   4.343   6.158   5.149  0.2996  0.0796 -0.2978
 7457SOL    HW123270   4.380   6.076   5.194 -0.1515 -2.2541 -3.7886
 7457SOL    HW223271   4.256   6.136   5.105  0.2946  2.3718 -1.6103
 7458SOL     OW23272   0.479   1.567   3.691  0.0979 -0.8215  0.0208
 7458SOL    HW123273   0.470   1.503   3.768  1.7049 -1.2428 -0.1069
 7458SOL    HW223274   0.565   1.549   3.643 -0.2268  0.3535 -1.0413
 7459SOL     OW23275   4.224   2.174   2.488  0.2778 -0.6980 -0.3061
 7459SOL    HW123276   4.295   2.241   2.511 -0.6164  0.0585  0.3282
 7459SOL    HW223277   4.184   2.197   2.399  0.2437 -0.6261 -0.2719
 7460SOL     OW23278   4.413   2.317   5.201 -0.0438 -0.4491 -0.3373
 7460SOL    HW123279   4.414   2.240   5.137 -0.9654 -1.8550  1.2398
 7460SOL    HW223280   4.333   2.374   5.183 -1.3574 -1.8746  0.6226
 7461SOL     OW23281   4.340   1.462   3.804 -0.4638 -0.1750 -0.0038
 7461SOL    HW123282   4.242   1.469   3.783 -0.4755  0.3102  0.1851
 7461SOL    HW223283   4.371   1.548   3.845  0.7703  0.9530 -3.0267
 7462SOL     OW23284   4.759   5.780   0.695  0.3254 -0.6008  0.1686
 7462SOL    HW123285   4.693   5.710   0.722  0.3088 -0.0436  1.6389
 7462SOL    HW223286   4.848   5.761   0.738  0.8621 -0.7671 -0.9664
 7463SOL     OW23287   4.778   0.291   4.904 -0.3944  0.1590 -0.4791
 7463SOL    HW123288   4.795   0.361   4.973 -1.3094  0.1440 -0.2263
 7463SOL    HW223289   4.821   0.205   4.932  0.7480  0.6055 -0.7999
 7464SOL     OW23290   2.107   5.490   4.770  0.3247  0.4416 -0.1665
 7464SOL    HW123291   2.162   5.529   4.844  0.2784  0.1647  0.0144
 7464SOL    HW223292   2.012   5.481   4.799 -0.2048  2.5531 -1.0721
 7465SOL     OW23293   2.489   2.673   1.715 -0.5990 -0.2521  0.2878
 7465SOL    HW123294   2.495   2.657   1.814 -0.5272 -2.1738  0.0196
 7465SOL    HW223295   2.510   2.769   1.695  2.0303 -0.3977  1.8968
 7466SOL     OW23296   0.939   1.867   6.452 -0.0358  0.1652 -0.2130
 7466SOL    HW123297   1.009   1.813   6.404  0.7975 -1.1960  2.3848
 7466SOL    HW223298   0.908   1.818   6.533 -2.1669  1.9036  0.1169
 7467SOL     OW23299   1.025   0.723   3.842  0.3337  0.2145 -0.0346
 7467SOL    HW123300   1.009   0.673   3.757  2.0489  2.3153 -1.7036
 7467SOL    HW223301   1.098   0.679   3.894 -0.0300 -0.5046 -0.1250
 7468SOL     OW23302   5.463   3.124   3.213 -0.0163  0.9335  0.0261
 7468SOL    HW123303   5.458   3.046   3.276  0.4648 -0.9870 -2.1648
 7468SOL    HW223304   5.465   3.209   3.265 -0.1509 -0.5134  2.5533
 7469SOL     OW23305   4.148   5.304   2.744 -0.5874 -0.0298 -0.1268
 7469SOL    HW123306   4.120   5.362   2.667  0.8877 -0.4380 -1.0052
 7469SOL    HW223307   4.140   5.356   2.829  1.4707  1.8084 -0.9659
 7470SOL     OW23308   1.894   3.650   6.250 -0.1526  0.0925  0.0322
 7470SOL    HW123309   1.899   3.684   6.156  0.6854 -0.0710  0.0057
 7470SOL    HW223310   1.960   3.700   6.307  2.4178 -2.5550 -0.3751
 7471SOL     OW23311   3.840   6.448   0.804 -0.3759 -0.3326  0.5780
 7471SOL    HW123312   3.767   6.386   0.774 -1.0741  0.2316  1.0745
 7471SOL    HW223313   3.805   6.542   0.805  1.4807  0.6056 -3.1388
 7472SOL     OW23314   4.673   6.003   0.595 -0.4459 -0.6479 -0.0106
 7472SOL    HW123315   4.741   6.025   0.525  0.4174 -1.9346  0.3902
 7472SOL    HW223316   4.683   5.908   0.623 -1.1086 -0.3044  1.5030
 7473SOL     OW23317   5.466   2.775   1.425  0.3192  0.0176 -0.4533
 7473SOL    HW123318   5.468   2.814   1.517  1.0450 -2.5283  0.7242
 7473SOL    HW223319   5.548   2.802   1.375  0.4079  0.6216  0.0166
 7474SOL     OW23320   0.123   0.490   0.906 -0.3550 -0.1497 -0.2786
 7474SOL    HW123321   0.041   0.510   0.960  0.2667  0.2967  0.5367
 7474SOL    HW223322   0.132   0.557   0.833 -0.3045  0.2916  0.1233
 7475SOL     OW23323   2.314   5.260   0.325  0.3997 -0.2011  0.4408
 7475SOL    HW123324   2.316   5.321   0.404  1.8626  0.4823 -0.0773
 7475SOL    HW223325   2.408   5.234   0.301  0.0461  0.1829 -1.5060
 7476SOL     OW23326   1.765   2.984   5.699 -0.0607 -0.1845  0.5172
 7476SOL    HW123327   1.739   3.056   5.635  1.1323 -2.4852 -2.8227
 7476SOL    HW223328   1.843   3.015   5.754  1.3780  0.6946 -1.8561
 7477SOL     OW23329   3.835   1.123   2.297  0.4392 -0.0058  0.5145
 7477SOL    HW123330   3.779   1.150   2.218  0.3868 -0.1560  0.5012
 7477SOL    HW223331   3.785   1.146   2.382  0.9692  1.2058  0.5261
 7478SOL     OW23332   3.379   6.637   0.425  0.1587  0.1110 -0.0726
 7478SOL    HW123333   3.463   6.652   0.373  0.1265  0.1980 -0.1003
 7478SOL    HW223334   3.390   6.674   0.518  0.0072  0.4984 -0.2058
 7479SOL     OW23335   6.271   0.160   5.729  0.5705 -0.2051 -0.3968
 7479SOL    HW123336   6.278   0.145   5.827  0.5258 -0.5837 -0.4500
 7479SOL    HW223337   6.289   0.257   5.708  2.1672 -0.4282 -0.1808
 7480SOL     OW23338   1.268   3.005   4.160  0.2091 -0.0906 -0.2067
 7480SOL    HW123339   1.259   2.958   4.249 -3.1059  0.0780 -0.3079
 7480SOL    HW223340   1.283   3.102   4.175  0.1173 -0.1351  0.1888
 7481SOL     OW23341   5.128   6.590   0.584 -0.0653 -0.0626 -0.2451
 7481SOL    HW123342   5.092   6.583   0.677  0.2891 -0.1120 -0.1093
 7481SOL    HW223343   5.078   6.528   0.524 -1.3189  1.0677 -0.4109
 7482SOL     OW23344   5.968   6.173   4.510  0.4614 -0.1543 -0.4668
 7482SOL    HW123345   6.034   6.231   4.559  0.5486 -0.5192 -0.1496
 7482SOL    HW223346   5.986   6.077   4.531 -0.1896 -0.2563 -0.3652
 7483SOL     OW23347   5.844   5.867   4.875  0.1159  0.0008  0.3435
 7483SOL    HW123348   5.941   5.862   4.855 -0.1682 -0.7036 -0.9931
 7483SOL    HW223349   5.829   5.928   4.953  1.6013  0.1913  0.5114
 7484SOL     OW23350   6.842   4.506   1.036 -0.1376  0.1700 -0.8554
 7484SOL    HW123351   6.891   4.538   0.956  0.0251  0.8556 -0.4958
 7484SOL    HW223352   6.884   4.544   1.119 -0.1070 -0.7737 -0.4202
 7485SOL     OW23353   6.229   4.510   1.142  0.7495  0.3092  0.1471
 7485SOL    HW123354   6.189   4.423   1.114 -0.7808  1.2691 -0.8109
 7485SOL    HW223355   6.256   4.505   1.238 -1.5207 -0.4952  0.7977
 7486SOL     OW23356   6.109   4.384   2.236  0.0481  0.2634 -0.2592
 7486SOL    HW123357   6.039   4.354   2.171  1.7041 -1.3765 -1.3747
 7486SOL    HW223358   6.180   4.315   2.244  1.9783  2.1677  0.2171
 7487SOL     OW23359   4.603   2.063   6.579 -0.1279  0.2131 -0.2102
 7487SOL    HW123360   4.663   1.985   6.599 -0.8146  0.2972  2.4898
 7487SOL    HW223361   4.638   2.145   6.625 -1.1438  0.7607 -0.3858
 7488SOL     OW23362   1.977   3.118   2.848 -0.2763 -0.5014  0.0587
 7488SOL    HW123363   1.948   3.060   2.772 -0.9579  0.5922 -0.5277
 7488SOL    HW223364   2.031   3.063   2.912 -1.2076 -1.8724 -0.2834
 7489SOL     OW23365   6.533   2.342   3.652  0.2742 -0.5782 -0.1645
 7489SOL    HW123366   6.487   2.415   3.603 -2.0044 -1.3464  0.6983
 7489SOL    HW223367   6.629   2.366   3.666 -0.2082  1.8434 -0.6346
 7490SOL     OW23368   6.482   6.981   3.650 -0.1446 -0.7802  0.3243
 7490SOL    HW123369   6.386   6.998   3.630 -0.1592 -0.6895  0.4688
 7490SOL    HW223370   6.535   7.065   3.633  0.0543 -1.1008 -0.6765
 7491SOL     OW23371   6.998   4.052   4.254 -0.3935 -0.3173  0.0592
 7491SOL    HW123372   6.996   4.149   4.230  2.3559 -0.4216 -1.0077
 7491SOL    HW223373   7.024   4.042   4.351 -0.4192  0.0247  0.1023
 7492SOL     OW23374   0.777   3.924   5.327  0.1130  0.5768 -0.0084
 7492SOL    HW123375   0.806   4.010   5.369  0.6329  1.2236 -1.6060
 7492SOL    HW223376   0.850   3.889   5.269 -0.3214 -0.6397  0.1479
 7493SOL     OW23377   6.173   6.434   2.362 -0.1094 -0.3808 -0.3343
 7493SOL    HW123378   6.210   6.355   2.410  0.3635 -1.0569 -1.7535
 7493SOL    HW223379   6.079   6.450   2.391  0.5728  0.0815  1.7916
 7494SOL     OW23380   4.646   0.559   6.727 -0.3784 -0.9065 -0.0995
 7494SOL    HW123381   4.579   0.626   6.695 -0.1051  0.3165  1.7207
 7494SOL    HW223382   4.610   0.512   6.808  0.5392 -0.9414  0.3000
 7495SOL     OW23383   6.372   2.384   1.863 -0.1741  0.4096  0.0525
 7495SOL    HW123384   6.318   2.380   1.947  0.7103 -0.1234  0.6092
 7495SOL    HW223385   6.389   2.479   1.839 -1.6401  0.6017 -0.3312
 7496SOL     OW23386   1.610   0.183   0.176 -0.5645  0.0630  0.0684
 7496SOL    HW123387   1.535   0.238   0.212 -0.6707 -0.9876  1.5516
 7496SOL    HW223388   1.589   0.086   0.187  0.8686 -0.2644  0.1969
 7497SOL     OW23389   0.052   1.250   3.009 -0.2258 -0.3971 -0.2141
 7497SOL    HW123390   0.062   1.326   3.073 -0.4599  1.0512 -1.8459
 7497SOL    HW223391   0.035   1.285   2.917  1.0057 -2.3788 -1.2762
 7498SOL     OW23392   4.865   1.252   3.633 -0.0421 -0.2428 -0.0150
 7498SOL    HW123393   4.830   1.205   3.552  0.5259 -0.8939  0.1121
 7498SOL    HW223394   4.849   1.197   3.714 -1.2633  0.7347  0.4375
 7499SOL     OW23395   6.259   1.637   5.622  0.0036  0.4288 -0.2283
 7499SOL    HW123396   6.288   1.545   5.596 -0.9214  0.3764 -1.1648
 7499SOL    HW223397   6.258   1.696   5.541  0.6156  1.2839  0.3673
 7500SOL     OW23398   4.851   2.513   6.034  0.3905 -0.2978 -0.0267
 7500SOL    HW123399   4.821   2.603   6.065  1.6199 -0.3031  1.3181
 7500SOL    HW223400   4.863   2.453   6.113  1.6707 -0.9704 -0.7014
 7501SOL     OW23401   5.585   4.872   5.080  0.2466 -0.8792 -0.1999
 7501SOL    HW123402   5.684   4.868   5.072  0.2779  1.0934 -1.3040
 7501SOL    HW223403   5.556   4.966   5.099 -1.3804 -1.5577  0.9257
 7502SOL     OW23404   3.388   4.065   4.277 -0.4282 -0.3218  0.3467
 7502SOL    HW123405   3.481   4.095   4.298 -0.6063 -0.5783  1.6095
 7502SOL    HW223406   3.391   3.974   4.234 -0.1188 -0.7302  1.2010
 7503SOL     OW23407   1.293   6.278   2.517 -0.4879  0.3292  0.6979
 7503SOL    HW123408   1.274   6.184   2.486  1.6945  0.3798 -1.0610
 7503SOL    HW223409   1.228   6.303   2.589 -1.4782 -2.3205  0.8449
 7504SOL     OW23410   4.578   2.575   1.693  0.3131  0.1221 -1.0116
 7504SOL    HW123411   4.620   2.613   1.776  0.9847 -1.8155 -0.4035
 7504SOL    HW223412   4.608   2.480   1.681 -3.2353 -1.1971 -0.9490
 7505SOL     OW23413   3.414   0.102   4.704 -0.1318  0.0161  0.0963
 7505SOL    HW123414   3.445   0.007   4.698  2.1410  0.6893  0.1618
 7505SOL    HW223415   3.353   0.122   4.628  0.1758 -1.2231 -0.5068
 7506SOL     OW23416   2.082   1.582   0.816  0.1597  0.0061  0.6522
 7506SOL    HW123417   2.109   1.668   0.772 -1.9513 -0.5101 -1.9127
 7506SOL    HW223418   2.147   1.560   0.889  2.5106  2.1898 -0.6231
 7507SOL     OW23419   1.673   2.240   1.449 -0.4637 -0.0071 -0.1782
 7507SOL    HW123420   1.660   2.333   1.414  0.9790  0.6403  0.8949
 7507SOL    HW223421   1.588   2.209   1.493 -0.1110  2.0991  2.2743
 7508SOL     OW23422   2.620   0.833   5.772  0.0180 -0.2469 -0.0324
 7508SOL    HW123423   2.666   0.828   5.683  0.5189 -0.2677  0.2248
 7508SOL    HW223424   2.522   0.850   5.758  0.0893 -0.2719 -0.5869
 7509SOL     OW23425   6.616   5.915   5.647  0.1292 -0.2428 -0.8386
 7509SOL    HW123426   6.685   5.881   5.584  0.7858  0.9460 -0.7862
 7509SOL    HW223427   6.638   6.009   5.674 -1.3936  0.1011 -0.6655
 7510SOL     OW23428   5.613   4.162   2.003  0.1403  0.1532  0.6693
 7510SOL    HW123429   5.542   4.230   1.988  0.0434  0.0614  0.7066
 7510SOL    HW223430   5.674   4.192   2.076 -0.9798 -0.6207  1.9996
 7511SOL     OW23431   2.461   2.617   5.113  0.1751 -0.0434  0.1398
 7511SOL    HW123432   2.469   2.651   5.019 -0.5394 -1.1130 -0.3307
 7511SOL    HW223433   2.462   2.695   5.176  1.4694  0.6408 -0.6754
 7512SOL     OW23434   1.927   2.896   6.141 -0.5739  0.1525 -0.1817
 7512SOL    HW123435   2.018   2.872   6.175 -0.9468 -0.5645  0.3470
 7512SOL    HW223436   1.888   2.818   6.092 -0.2722  0.9814 -1.8159
 7513SOL     OW23437   2.030   6.936   2.129 -0.2491 -0.1425  0.8723
 7513SOL    HW123438   1.971   6.879   2.072  2.3090 -0.5072 -1.6051
 7513SOL    HW223439   2.052   6.886   2.214 -1.9949 -0.7032  1.0381
 7514SOL     OW23440   6.688   5.218   2.196 -0.0301 -0.1156 -0.4696
 7514SOL    HW123441   6.701   5.305   2.150 -3.9820  1.1247  0.3914
 7514SOL    HW223442   6.734   5.220   2.285  1.6126  0.2210 -1.2901
 7515SOL     OW23443   2.225   0.708   5.215 -0.0034 -0.2048 -0.0658
 7515SOL    HW123444   2.284   0.635   5.180 -0.4276 -0.7785  0.3886
 7515SOL    HW223445   2.146   0.667   5.260 -0.0548  0.5364  0.5255
 7516SOL     OW23446   3.787   1.769   2.935  0.3135  0.6807 -0.0047
 7516SOL    HW123447   3.755   1.695   2.876  2.3871 -0.6654  0.4637
 7516SOL    HW223448   3.871   1.808   2.896 -0.2385  2.1779  0.2505
 7517SOL     OW23449   1.687   0.615   0.438  0.3074 -0.4430 -0.5851
 7517SOL    HW123450   1.644   0.693   0.393  0.6498 -0.1555 -0.4180
 7517SOL    HW223451   1.752   0.572   0.375  0.0607 -0.6492 -0.7055
 7518SOL     OW23452   1.161   0.587   4.043  0.0280 -0.3693  0.2771
 7518SOL    HW123453   1.228   0.550   3.979  0.2190  0.5991 -0.0867
 7518SOL    HW223454   1.189   0.565   4.136 -0.0327 -1.4219  0.0634
 7519SOL     OW23455   0.394   5.882   5.321  0.2930  0.3817 -0.2091
 7519SOL    HW123456   0.409   5.800   5.377  0.4661  0.4654 -0.1308
 7519SOL    HW223457   0.409   5.963   5.377  0.8504  0.4691 -0.4726
 7520SOL     OW23458   2.951   5.526   2.535 -0.0465 -0.5815 -0.1141
 7520SOL    HW123459   2.852   5.523   2.538 -0.0872 -0.6121 -1.2232
 7520SOL    HW223460   2.989   5.478   2.614 -0.9075  0.2858  0.8602
 7521SOL     OW23461   6.812   4.910   3.190  0.8688 -0.0997 -0.2090
 7521SOL    HW123462   6.903   4.913   3.148  0.8403  0.2242 -0.2520
 7521SOL    HW223463   6.743   4.937   3.123  0.9152  1.3275  0.2747
 7522SOL     OW23464   0.247   5.205   2.260  0.5667  0.2863 -0.0546
 7522SOL    HW123465   0.171   5.246   2.210 -0.4727  1.8062  2.5894
 7522SOL    HW223466   0.333   5.238   2.222 -0.1576  1.1550 -1.0070
 7523SOL     OW23467   1.435   0.376   2.966  1.0127 -0.4385 -0.4750
 7523SOL    HW123468   1.488   0.426   2.897 -2.1943  1.9029 -1.4641
 7523SOL    HW223469   1.408   0.439   3.039 -2.0810 -0.8764 -1.0919
 7524SOL     OW23470   5.852   1.241   5.345 -0.0521 -0.2369 -0.2043
 7524SOL    HW123471   5.942   1.204   5.367 -0.9653 -1.2306  2.2356
 7524SOL    HW223472   5.811   1.278   5.428 -0.7420  2.9692 -1.8162
 7525SOL     OW23473   6.894   6.298   3.360 -0.0798  0.1350 -0.0694
 7525SOL    HW123474   6.981   6.306   3.311 -0.5758  1.4318 -0.7971
 7525SOL    HW223475   6.911   6.268   3.454  1.0374 -0.7922 -0.5399
 7526SOL     OW23476   6.938   2.931   2.608 -0.8354  0.3260 -0.0342
 7526SOL    HW123477   6.958   2.851   2.665 -1.9085  0.8775  1.1532
 7526SOL    HW223478   6.887   2.998   2.661 -1.4153  1.0904 -1.5056
 7527SOL     OW23479   6.763   3.063   3.021 -0.2918 -0.0416  0.0540
 7527SOL    HW123480   6.826   3.007   3.074 -1.3865  0.2201  1.7476
 7527SOL    HW223481   6.684   3.086   3.078 -1.7376 -0.0409 -1.8491
 7528SOL     OW23482   4.997   5.258   5.028  0.2973  0.0209 -0.0847
 7528SOL    HW123483   4.901   5.284   5.016  0.8313  1.0382 -2.7560
 7528SOL    HW223484   5.048   5.334   5.067 -0.0854 -0.8300  2.2141
 7529SOL     OW23485   2.290   1.829   2.201  0.0582  0.0752  0.2277
 7529SOL    HW123486   2.209   1.776   2.223  0.3066 -1.9678 -3.0890
 7529SOL    HW223487   2.372   1.780   2.230  0.2080 -0.0679 -0.4086
 7530SOL     OW23488   6.552   1.817   1.168  0.0817  0.1876  0.3646
 7530SOL    HW123489   6.575   1.911   1.192  0.2935  0.4354 -0.7154
 7530SOL    HW223490   6.635   1.769   1.139 -0.1763 -0.0287 -0.0337
 7531SOL     OW23491   4.091   6.224   5.740 -0.1020 -0.2959 -0.5107
 7531SOL    HW123492   4.029   6.146   5.732 -1.0073  0.3366  0.1735
 7531SOL    HW223493   4.054   6.290   5.805  0.7615  0.6129 -0.9110
 7532SOL     OW23494   4.975   1.114   0.271 -1.1527  0.2723  0.4341
 7532SOL    HW123495   5.042   1.161   0.213 -2.9167  0.5875 -1.4495
 7532SOL    HW223496   5.015   1.028   0.303  1.5193  2.1174  2.5922
 7533SOL     OW23497   5.281   6.474   6.343 -0.5114  0.3462 -0.0893
 7533SOL    HW123498   5.264   6.572   6.354 -1.8362  0.4504 -2.4330
 7533SOL    HW223499   5.342   6.459   6.265 -0.5475 -0.7235  0.0686
 7534SOL     OW23500   4.639   1.723   3.494  0.0618 -0.0139 -0.3324
 7534SOL    HW123501   4.673   1.630   3.486 -1.3488 -0.6448  0.6998
 7534SOL    HW223502   4.709   1.787   3.461  1.3246 -1.3711 -0.3824
 7535SOL     OW23503   0.002   2.811   4.264 -0.1024 -0.0590  0.2520
 7535SOL    HW123504  -0.076   2.792   4.324 -0.4774  1.0688  0.1510
 7535SOL    HW223505   0.033   2.905   4.279  1.9879 -0.8324  1.1252
 7536SOL     OW23506   0.217   2.956   0.414 -0.2545 -0.0953 -0.2033
 7536SOL    HW123507   0.173   2.866   0.416  0.2695 -0.3536  0.0622
 7536SOL    HW223508   0.240   2.983   0.508 -1.1905  0.7076 -0.1990
 7537SOL     OW23509   1.010   6.437   1.851  0.3167  0.7788  0.1316
 7537SOL    HW123510   0.935   6.371   1.842 -1.9765  3.2017  0.2102
 7537SOL    HW223511   1.055   6.425   1.940 -1.2660  0.5087  0.9260
 7538SOL     OW23512   0.611   1.157   4.549  0.1593  0.1296 -0.0821
 7538SOL    HW123513   0.583   1.233   4.608 -2.7615 -0.6101 -0.3418
 7538SOL    HW223514   0.669   1.191   4.475 -0.7145  2.0447  0.0661
 7539SOL     OW23515   1.916   5.035   3.263 -0.3027 -0.8419 -0.0633
 7539SOL    HW123516   1.881   4.983   3.341 -0.7384  0.3356  0.5632
 7539SOL    HW223517   1.840   5.084   3.220  0.2163 -0.0202 -0.0675
 7540SOL     OW23518   2.918   6.879   0.204 -0.3489  0.0037 -0.0435
 7540SOL    HW123519   3.010   6.842   0.193 -0.1431  0.3775  0.4022
 7540SOL    HW223520   2.923   6.974   0.235 -0.8706 -0.4470  1.5608
 7541SOL     OW23521   0.663   4.340   4.168  1.0217  0.0021  0.3503
 7541SOL    HW123522   0.737   4.392   4.211 -0.4141  1.2472  1.3736
 7541SOL    HW223523   0.580   4.394   4.166 -0.0572 -1.5923 -0.2240
 7542SOL     OW23524   5.846   3.165   1.952 -0.0360 -0.8661  0.8181
 7542SOL    HW123525   5.747   3.179   1.953  0.0938  0.2553  2.0090
 7542SOL    HW223526   5.867   3.069   1.967 -0.9575 -0.8785  2.2873
 7543SOL     OW23527   3.683   4.868   2.619 -0.7304 -0.2327  0.5065
 7543SOL    HW123528   3.616   4.925   2.572 -0.7195  0.4366  1.2794
 7543SOL    HW223529   3.733   4.812   2.553 -0.6013  0.8001 -0.2754
 7544SOL     OW23530   2.526   3.280   1.148  0.4937 -0.5644  0.1233
 7544SOL    HW123531   2.531   3.250   1.243 -1.4955  0.7057  0.6855
 7544SOL    HW223532   2.483   3.209   1.093  0.7941 -0.9214  0.3425
 7545SOL     OW23533   2.686   0.135   5.708 -0.2296  0.1015 -0.1972
 7545SOL    HW123534   2.630   0.058   5.679  0.2558 -0.0444 -0.7371
 7545SOL    HW223535   2.681   0.143   5.808  2.1264 -2.5166  0.2502
 7546SOL     OW23536   5.560   6.060   2.818 -0.0321  0.6591 -0.0768
 7546SOL    HW123537   5.550   6.158   2.797 -0.4046  0.2966 -1.7964
 7546SOL    HW223538   5.522   6.041   2.908  2.3448  2.5230  1.4466
 7547SOL     OW23539   3.858   5.643   3.165 -0.1299  0.8165 -0.5391
 7547SOL    HW123540   3.908   5.692   3.093 -1.1114  2.3918 -0.2048
 7547SOL    HW223541   3.804   5.570   3.124 -0.3947  1.4575 -1.3812
 7548SOL     OW23542   3.850   5.889   2.177  0.0078 -0.8718  0.4087
 7548SOL    HW123543   3.839   5.795   2.145  0.4129 -0.3378 -1.4619
 7548SOL    HW223544   3.894   5.889   2.266 -2.5989 -2.5196  1.8171
 7549SOL     OW23545   5.357   2.702   3.966  0.0766 -0.7391  0.3627
 7549SOL    HW123546   5.403   2.614   3.955  2.9372  0.6625  0.0715
 7549SOL    HW223547   5.344   2.745   3.876  1.4538  0.3711  0.6587
 7550SOL     OW23548   6.469   3.598   1.193 -0.2356 -0.0438 -0.4112
 7550SOL    HW123549   6.536   3.572   1.123  3.0641  0.5004  2.3038
 7550SOL    HW223550   6.446   3.518   1.248 -2.3534 -0.3384 -1.6220
 7551SOL     OW23551   6.299   3.998   6.413 -0.2188 -0.0677  0.2195
 7551SOL    HW123552   6.247   4.081   6.392 -0.4975  0.0585  1.3286
 7551SOL    HW223553   6.396   4.015   6.399 -0.3747 -0.0053 -0.9234
 7552SOL     OW23554   0.505   0.580   3.071 -0.1538  0.2588 -0.5904
 7552SOL    HW123555   0.510   0.528   2.986 -0.3763  1.4534 -1.3670
 7552SOL    HW223556   0.415   0.568   3.112  0.3103 -1.1729  0.0606
 7553SOL     OW23557   2.553   3.187   0.726 -0.0463 -0.1532 -0.5624
 7553SOL    HW123558   2.499   3.227   0.652 -0.4844  2.1716  0.9259
 7553SOL    HW223559   2.644   3.162   0.691 -1.5046 -2.9760 -2.7917
 7554SOL     OW23560   3.769   2.163   0.564  0.0653 -0.5765  0.2017
 7554SOL    HW123561   3.770   2.109   0.480  1.7283  1.5367 -1.2662
 7554SOL    HW223562   3.674   2.176   0.594 -0.6158 -1.0949 -1.5814
 7555SOL     OW23563   6.822   5.005   6.610 -0.3785  0.3467  0.6442
 7555SOL    HW123564   6.842   4.922   6.662  2.8450  1.0572  0.7529
 7555SOL    HW223565   6.873   5.004   6.524 -0.4406  2.0890  0.5497
 7556SOL     OW23566   6.469   5.033   5.144  0.0955 -0.0448  0.0775
 7556SOL    HW123567   6.469   4.971   5.066 -0.0195 -0.9187  0.7520
 7556SOL    HW223568   6.494   5.125   5.114  1.9468 -0.7571 -0.6640
 7557SOL     OW23569   2.826   3.613   6.587  0.0242 -0.2670  0.4815
 7557SOL    HW123570   2.726   3.618   6.594  0.1717  1.4126  2.0716
 7557SOL    HW223571   2.866   3.698   6.620  2.0131 -0.9585 -0.0153
 7558SOL     OW23572   2.127   3.729   4.286 -0.1989  0.1262 -0.1848
 7558SOL    HW123573   2.048   3.783   4.312 -0.6792  0.4001 -2.0330
 7558SOL    HW223574   2.200   3.741   4.353 -0.9944  1.5105  0.4705
 7559SOL     OW23575   3.196   7.014   2.002 -0.0548 -0.5061  0.0846
 7559SOL    HW123576   3.147   6.962   2.072  1.7427 -0.9395  1.0864
 7559SOL    HW223577   3.177   6.975   1.912 -0.6086 -1.4003  0.5767
 7560SOL     OW23578   0.960   3.518   6.374 -0.0517  0.0088  0.5093
 7560SOL    HW123579   1.045   3.565   6.395 -0.3784  1.4931 -1.2236
 7560SOL    HW223580   0.941   3.526   6.276 -3.0651  1.2872  1.0962
 7561SOL     OW23581   2.264   1.514   2.411 -0.5660  0.4995  0.2948
 7561SOL    HW123582   2.221   1.437   2.459  0.7457 -0.0612  0.6341
 7561SOL    HW223583   2.197   1.557   2.350 -1.5164 -0.4797  0.6081
 7562SOL     OW23584   3.388   5.900   1.972  0.1287 -0.1945 -0.0477
 7562SOL    HW123585   3.464   5.932   2.028  0.5066  2.1646 -1.7924
 7562SOL    HW223586   3.393   5.800   1.963  2.4848 -0.1809  0.6095
 7563SOL     OW23587   5.365   1.907   0.676  0.2176  0.0469  0.5800
 7563SOL    HW123588   5.333   1.814   0.660 -0.7049  0.6943 -1.8568
 7563SOL    HW223589   5.303   1.954   0.739 -0.1627 -0.5219  0.6288
 7564SOL     OW23590   0.649   3.738   1.572 -0.2054  0.3474  0.1239
 7564SOL    HW123591   0.573   3.797   1.542 -1.4234 -0.3626  1.6992
 7564SOL    HW223592   0.726   3.751   1.510 -1.4195  1.4674 -1.2552
 7565SOL     OW23593   5.447   0.517   6.457  0.0104  0.6613 -0.7139
 7565SOL    HW123594   5.379   0.454   6.494  1.7158 -0.6052  0.4144
 7565SOL    HW223595   5.401   0.597   6.419 -2.0049  1.2407  2.5345
 7566SOL     OW23596   1.723   1.896   1.394  0.3200 -0.1062 -0.1228
 7566SOL    HW123597   1.776   1.954   1.455  3.9916  0.4818 -3.4497
 7566SOL    HW223598   1.661   1.952   1.340  0.9330  0.1949 -0.5332
 7567SOL     OW23599   5.978   1.047   1.544 -0.1959 -0.3431 -0.3211
 7567SOL    HW123600   5.897   1.101   1.522 -0.0582 -0.6223 -1.5906
 7567SOL    HW223601   6.049   1.064   1.476  0.1911 -1.4077 -0.2040
 7568SOL     OW23602   6.073   0.318   6.948  0.1635 -0.1118  0.3681
 7568SOL    HW123603   6.129   0.245   6.910 -1.4967 -1.0105 -0.4692
 7568SOL    HW223604   6.036   0.374   6.874 -0.8902 -0.1918  0.8072
 7569SOL     OW23605   4.980   5.431   3.856  0.0323 -0.2335  0.2592
 7569SOL    HW123606   4.953   5.527   3.849 -2.6809 -1.0033 -1.0134
 7569SOL    HW223607   5.054   5.411   3.792 -0.4311  0.6673 -0.5594
 7570SOL     OW23608   4.823   3.910   0.081  0.1840  0.4944  0.1144
 7570SOL    HW123609   4.772   3.956   0.008 -0.7748 -1.6894 -0.6807
 7570SOL    HW223610   4.784   3.935   0.170  0.1203  1.6776 -0.2309
 7571SOL     OW23611   5.757   6.074   4.693 -0.0113  0.3590 -0.6744
 7571SOL    HW123612   5.784   5.992   4.743  0.5050 -0.3489 -2.0519
 7571SOL    HW223613   5.810   6.081   4.609 -1.2322  1.1978 -1.4136
 7572SOL     OW23614   0.060   1.523   4.091  0.1767  0.6665 -0.1605
 7572SOL    HW123615   0.130   1.488   4.029 -0.2495  1.2846 -1.0202
 7572SOL    HW223616  -0.030   1.497   4.057 -0.0331  0.2614  0.6952
 7573SOL     OW23617   5.599   1.345   3.179  0.3765 -0.3920 -0.2110
 7573SOL    HW123618   5.643   1.343   3.089  0.6577 -0.4518 -0.0720
 7573SOL    HW223619   5.639   1.418   3.234 -1.6200  1.4421 -1.0573
 7574SOL     OW23620   2.766   0.382   4.186 -0.5799  0.3946  0.2776
 7574SOL    HW123621   2.803   0.419   4.271  0.6383  0.9745 -0.4744
 7574SOL    HW223622   2.811   0.295   4.165  0.5468  1.2060 -0.7514
 7575SOL     OW23623   4.825   6.842   0.589  0.2224  0.6614 -0.4632
 7575SOL    HW123624   4.871   6.807   0.508  1.5258 -0.6847  0.7768
 7575SOL    HW223625   4.889   6.899   0.641  0.2646 -0.4972  0.8241
 7576SOL     OW23626   0.828   2.743   1.278 -0.0411  0.2387  0.7206
 7576SOL    HW123627   0.783   2.831   1.294  2.0420  1.4838  0.1052
 7576SOL    HW223628   0.905   2.733   1.341  2.5371  0.9943 -2.0856
 7577SOL     OW23629   5.505   2.979   5.916  0.6963 -0.5640 -0.4309
 7577SOL    HW123630   5.523   3.078   5.917  0.2011 -0.4508  1.5675
 7577SOL    HW223631   5.406   2.964   5.926  0.8476 -1.2566  0.0687
 7578SOL     OW23632   3.827   0.351   2.560  0.3698  0.1660  0.3455
 7578SOL    HW123633   3.832   0.435   2.614  1.1464  1.2407 -1.2857
 7578SOL    HW223634   3.824   0.375   2.463 -4.3767 -1.4924 -0.1700
 7579SOL     OW23635   2.737   1.751   3.253  0.5050  0.0073  0.6032
 7579SOL    HW123636   2.799   1.827   3.267 -0.4864  0.8823  0.3730
 7579SOL    HW223637   2.707   1.748   3.158  0.8828 -0.9504  0.5015
 7580SOL     OW23638   2.950   0.393   1.968  0.9547  0.2475 -0.6894
 7580SOL    HW123639   2.896   0.322   2.013  1.5251  0.4970  0.4145
 7580SOL    HW223640   3.045   0.386   1.997  0.9766  1.6048 -0.3684
 7581SOL     OW23641   3.704   3.045   7.002  0.1111 -0.2329 -0.5286
 7581SOL    HW123642   3.741   3.136   7.020  0.6833 -0.6049  0.2498
 7581SOL    HW223643   3.604   3.048   7.002  0.0243 -0.1080  2.4975
 7582SOL     OW23644   3.861   0.271   5.802 -0.0384  0.1231  0.4930
 7582SOL    HW123645   3.945   0.315   5.772 -1.3581  2.2420 -0.2677
 7582SOL    HW223646   3.803   0.251   5.723 -0.5913 -0.6302  1.0630
 7583SOL     OW23647   6.717   2.632   6.226  0.7616 -0.5940  0.0798
 7583SOL    HW123648   6.796   2.582   6.190 -1.1594 -3.3512 -0.6683
 7583SOL    HW223649   6.653   2.650   6.151 -0.4431 -0.7096  1.0433
 7584SOL     OW23650   1.242   6.591   6.460 -0.4462 -0.3320  0.2038
 7584SOL    HW123651   1.274   6.626   6.548 -2.0059 -0.3361  0.8148
 7584SOL    HW223652   1.301   6.516   6.430  1.6644  1.3641 -0.0709
 7585SOL     OW23653   1.457   3.107   3.341  0.3188  0.0435 -0.3384
 7585SOL    HW123654   1.424   3.079   3.431  0.7852 -0.3102 -0.2759
 7585SOL    HW223655   1.521   3.039   3.306  0.2664  0.2585 -0.8694
 7586SOL     OW23656   4.672   3.515   6.228  0.8989  0.0473 -0.5013
 7586SOL    HW123657   4.765   3.494   6.260  0.1202 -0.2077  1.7596
 7586SOL    HW223658   4.608   3.446   6.262 -0.1550  0.2239 -2.0163
 7587SOL     OW23659   2.223   5.552   6.090 -1.1760  0.5439 -0.1291
 7587SOL    HW123660   2.150   5.487   6.108  0.5348 -1.4903 -0.1886
 7587SOL    HW223661   2.254   5.543   5.995 -1.7298  2.3782 -0.5341
 7588SOL     OW23662   6.690   3.236   4.823  0.4935  0.0281 -0.1720
 7588SOL    HW123663   6.622   3.265   4.756 -0.0423  1.3396  0.8973
 7588SOL    HW223664   6.774   3.210   4.775 -0.1073  0.2385 -1.3871
 7589SOL     OW23665   6.554   2.418   2.349  0.4955  0.3267  0.2744
 7589SOL    HW123666   6.589   2.405   2.256  0.2029 -0.4640  0.2701
 7589SOL    HW223667   6.607   2.489   2.395  1.5935 -0.3025  0.0061
 7590SOL     OW23668   4.673   4.721   2.954  0.2354  0.2641  0.0329
 7590SOL    HW123669   4.742   4.683   2.892 -0.7362 -0.2686 -0.7560
 7590SOL    HW223670   4.607   4.650   2.977 -1.4125  1.3447 -1.1638
 7591SOL     OW23671   3.910   3.953   4.285  0.2056  0.0873 -0.9385
 7591SOL    HW123672   3.949   3.905   4.207  0.3748 -0.7829 -0.3318
 7591SOL    HW223673   3.963   3.933   4.367  0.1648  1.1681 -0.6264
 7592SOL     OW23674   4.429   2.548   6.601 -0.2794 -0.8307  0.7129
 7592SOL    HW123675   4.348   2.552   6.543 -0.7768 -0.8612  1.3856
 7592SOL    HW223676   4.507   2.588   6.553 -0.4651 -1.6257 -0.3049
 7593SOL     OW23677   0.799   0.976   3.290  0.1404 -0.3233 -0.2096
 7593SOL    HW123678   0.878   1.034   3.270  0.4072 -0.9218 -0.9387
 7593SOL    HW223679   0.735   0.979   3.214 -0.9600  0.7946  0.7083
 7594SOL     OW23680   2.337   0.600   6.888 -0.7282  0.4412  0.5179
 7594SOL    HW123681   2.375   0.532   6.825  0.0290  1.5623 -0.2845
 7594SOL    HW223682   2.357   0.575   6.982 -2.1065 -1.4171  0.3746
 7595SOL     OW23683   3.312   3.462   3.853 -0.3793 -0.2985 -0.1073
 7595SOL    HW123684   3.280   3.551   3.886  0.6534  1.3242 -3.0571
 7595SOL    HW223685   3.233   3.402   3.839 -1.2459  0.6141  0.6798
 7596SOL     OW23686   5.754   2.395   0.859  0.4087 -0.3708 -0.5280
 7596SOL    HW123687   5.794   2.445   0.936 -0.0075  0.4694 -0.8399
 7596SOL    HW223688   5.795   2.304   0.853  1.0082 -0.1579  0.2071
 7597SOL     OW23689   5.192   5.795   4.678 -0.0115 -0.0959 -0.1342
 7597SOL    HW123690   5.289   5.803   4.698 -0.1203  0.1416  0.3365
 7597SOL    HW223691   5.158   5.707   4.712  0.0223 -0.1390 -0.2135
 7598SOL     OW23692   6.808   4.984   0.555 -0.1948  0.1260  0.3223
 7598SOL    HW123693   6.710   4.963   0.549  0.1538 -1.7097  0.5611
 7598SOL    HW223694   6.860   4.915   0.507  1.0333  0.8170  0.6116
 7599SOL     OW23695   6.120   3.984   1.023 -0.7151 -0.3348 -0.4484
 7599SOL    HW123696   6.092   3.963   0.929 -0.2123 -1.8300 -0.2852
 7599SOL    HW223697   6.204   3.934   1.044 -0.7494  0.0966  0.7642
 7600SOL     OW23698   1.340   2.890   0.536 -0.7351  0.1800 -0.4336
 7600SOL    HW123699   1.355   2.948   0.615  1.2795  0.5117 -0.9970
 7600SOL    HW223700   1.309   2.946   0.459 -3.1280 -0.2040  0.1658
 7601SOL     OW23701   1.860   3.365   4.894  0.4915  0.0340  0.0012
 7601SOL    HW123702   1.807   3.283   4.873 -0.2507  0.4212  0.2844
 7601SOL    HW223703   1.928   3.381   4.824 -1.1370  0.6462 -1.5281
 7602SOL     OW23704   2.117   1.155   5.191  0.0874 -1.0824  0.1796
 7602SOL    HW123705   2.035   1.113   5.231  0.1134 -2.2987 -0.9705
 7602SOL    HW223706   2.193   1.090   5.198  0.6086 -0.4978 -0.0076
 7603SOL     OW23707   0.109   5.676   1.289 -0.3398 -0.1381 -0.1364
 7603SOL    HW123708   0.091   5.768   1.253 -0.9763 -0.2822 -0.1802
 7603SOL    HW223709   0.148   5.684   1.381 -0.1738  0.1779 -0.2292
 7604SOL     OW23710   1.965   1.084   0.822 -0.6523  0.3061 -0.4602
 7604SOL    HW123711   1.983   1.034   0.737  0.6444  1.1804 -0.7452
 7604SOL    HW223712   1.872   1.119   0.821 -1.1038 -0.8677 -0.8933
 7605SOL     OW23713   2.313   6.904   5.681 -0.6116 -0.3411  0.1775
 7605SOL    HW123714   2.316   6.819   5.735 -0.5680 -1.4488 -1.4812
 7605SOL    HW223715   2.287   6.980   5.740 -1.2920 -1.6086  1.5899
 7606SOL     OW23716   1.506   5.422   3.044 -0.0767  0.0962 -0.3636
 7606SOL    HW123717   1.467   5.361   2.976 -0.8964  0.2602 -0.0472
 7606SOL    HW223718   1.438   5.443   3.114  0.9550 -0.6749  0.9415
 7607SOL     OW23719   0.898   5.654   6.881  0.2048  0.2554  0.4066
 7607SOL    HW123720   0.983   5.617   6.841 -0.0224 -0.0122  0.1645
 7607SOL    HW223721   0.871   5.598   6.959 -1.8274 -2.0877 -1.7898
 7608SOL     OW23722   4.158   4.786   1.067  0.2537 -0.1663 -0.8541
 7608SOL    HW123723   4.130   4.877   1.096 -0.7149 -0.1733 -1.7047
 7608SOL    HW223724   4.192   4.735   1.146 -1.0080  0.2794  0.0167
 7609SOL     OW23725   3.986   1.309   4.933  0.2246 -0.3194  0.3038
 7609SOL    HW123726   3.922   1.292   5.008 -0.2627 -0.4149 -0.1225
 7609SOL    HW223727   3.982   1.232   4.868  1.8895 -1.0731  1.0277
 7610SOL     OW23728   0.854   4.926   2.482  0.2696 -0.3840  0.0636
 7610SOL    HW123729   0.815   4.840   2.450 -0.6682 -0.5993  1.6399
 7610SOL    HW223730   0.823   4.943   2.576 -2.1171  3.2045 -1.1644
 7611SOL     OW23731   5.425   1.325   0.838 -0.0676 -0.1735  0.0518
 7611SOL    HW123732   5.422   1.226   0.852  0.6605 -0.4132 -1.2989
 7611SOL    HW223733   5.352   1.351   0.775  1.4409 -0.3093 -1.8497
 7612SOL     OW23734   0.284   3.635   4.988 -0.6817 -0.7897  0.4312
 7612SOL    HW123735   0.254   3.637   5.083 -2.0619  3.3377  0.0957
 7612SOL    HW223736   0.379   3.665   4.983 -0.6127 -0.9955  0.4823
 7613SOL     OW23737   3.514   3.648   5.470 -0.8331 -0.1417  0.2528
 7613SOL    HW123738   3.440   3.656   5.536 -1.6035  0.7248 -0.6884
 7613SOL    HW223739   3.534   3.551   5.454 -1.8954 -0.3977  0.3873
 7614SOL     OW23740   1.002   1.352   3.097  0.0756 -0.4334 -0.1621
 7614SOL    HW123741   1.026   1.449   3.095 -1.0772 -0.1376 -0.1893
 7614SOL    HW223742   0.906   1.340   3.075  0.5051 -1.7153 -1.5142
 7615SOL     OW23743   2.536   2.202   0.519 -0.0362  0.1261  0.1748
 7615SOL    HW123744   2.474   2.214   0.597  0.2868 -0.1483  0.4745
 7615SOL    HW223745   2.534   2.107   0.489 -1.4241  0.5513 -1.2231
 7616SOL     OW23746   6.326   0.589   1.834 -0.4839 -0.3888 -0.1525
 7616SOL    HW123747   6.229   0.563   1.837 -0.4946 -0.5708 -1.4747
 7616SOL    HW223748   6.340   0.657   1.763  0.4061 -0.5384 -0.1315
 7617SOL     OW23749   3.751   5.285   6.770  0.3590 -0.3676  0.2898
 7617SOL    HW123750   3.830   5.344   6.782  0.2188 -0.2226  0.5104
 7617SOL    HW223751   3.746   5.220   6.845  0.7745 -0.9702 -0.1923
 7618SOL     OW23752   1.408   1.552   2.903  0.0166 -0.3197  0.0537
 7618SOL    HW123753   1.335   1.542   2.834  1.1192 -0.7562 -1.0793
 7618SOL    HW223754   1.415   1.468   2.956 -0.4788 -0.1711  0.3724
 7619SOL     OW23755   5.143   1.524   1.041  0.1590 -0.9018 -0.2291
 7619SOL    HW123756   5.239   1.528   1.070 -0.3382  0.4912  1.3802
 7619SOL    HW223757   5.129   1.589   0.965  0.0970  0.4440  0.8897
 7620SOL     OW23758   0.282   2.809   2.856 -0.6619  0.3952  0.1758
 7620SOL    HW123759   0.258   2.904   2.872 -0.6619  0.4997 -0.4245
 7620SOL    HW223760   0.381   2.800   2.844 -0.7784  0.5198 -1.0264
 7621SOL     OW23761   4.620   0.972   6.788 -0.6512 -0.4255 -0.1503
 7621SOL    HW123762   4.603   0.910   6.864 -1.8090  0.2505  0.1788
 7621SOL    HW223763   4.533   1.014   6.760  0.1082  1.0724 -0.3234
 7622SOL     OW23764   3.345   3.773   4.462 -0.4337  0.0821  0.2629
 7622SOL    HW123765   3.269   3.724   4.504 -0.7924 -2.1715 -2.6626
 7622SOL    HW223766   3.315   3.865   4.436 -1.3949  0.0723  1.2512
 7623SOL     OW23767   1.178   1.176   2.599 -0.0580  0.2342 -0.0443
 7623SOL    HW123768   1.132   1.181   2.688  0.0417 -0.7125  0.0683
 7623SOL    HW223769   1.231   1.092   2.594  1.5381  1.2177 -0.2466
 7624SOL     OW23770   6.790   1.834   2.140 -0.2200 -0.8382  0.0508
 7624SOL    HW123771   6.691   1.830   2.154 -0.1613 -0.0173  0.8117
 7624SOL    HW223772   6.836   1.820   2.228  0.2527  1.2785  0.2146
 7625SOL     OW23773   0.855   4.613   5.503  0.0952  0.0191 -0.0168
 7625SOL    HW123774   0.881   4.709   5.515  2.0566 -0.6275  1.5302
 7625SOL    HW223775   0.759   4.601   5.528 -0.7021  1.8174 -1.8569
 7626SOL     OW23776   6.139   4.749   3.769 -0.1777  0.4604  0.2868
 7626SOL    HW123777   6.177   4.709   3.852  0.5104  0.3260 -0.0915
 7626SOL    HW223778   6.098   4.838   3.790 -0.8593  0.0030  0.9445
 7627SOL     OW23779   2.096   1.238   1.874 -0.6741  0.1631 -0.1937
 7627SOL    HW123780   1.998   1.250   1.859 -0.2527  3.5473 -1.0002
 7627SOL    HW223781   2.146   1.273   1.795  1.2446 -1.8338  0.0414
 7628SOL     OW23782   6.841   3.420   2.806 -0.2427 -0.5151 -0.4071
 7628SOL    HW123783   6.908   3.489   2.776 -0.3184 -0.6612 -0.9180
 7628SOL    HW223784   6.754   3.436   2.761  0.0159 -1.5381 -1.3041
 7629SOL     OW23785   1.963   4.727   0.410  0.0767  0.0342 -0.9708
 7629SOL    HW123786   2.043   4.700   0.464 -0.4878  0.0089 -0.1275
 7629SOL    HW223787   1.991   4.792   0.339  0.7157  0.5920 -0.2198
 7630SOL     OW23788   1.114   1.169   1.516 -0.1442 -0.1468  0.1196
 7630SOL    HW123789   1.124   1.075   1.547 -3.0053 -1.0694 -1.3981
 7630SOL    HW223790   1.039   1.213   1.567  2.1280  1.9302  1.9138
 7631SOL     OW23791   6.556   0.422   1.803  0.0151 -0.3589  0.1477
 7631SOL    HW123792   6.489   0.435   1.876  0.2782  0.9749  0.1859
 7631SOL    HW223793   6.527   0.347   1.744 -0.8160 -0.6783  0.9390
 7632SOL     OW23794   1.618   6.454   1.260  0.2865 -0.2665 -0.1694
 7632SOL    HW123795   1.537   6.395   1.266 -0.3781  0.4072 -1.8496
 7632SOL    HW223796   1.699   6.401   1.285 -0.7242 -0.6771  2.6494
 7633SOL     OW23797   1.787   6.740   3.917 -0.5020  0.2883 -0.1885
 7633SOL    HW123798   1.758   6.662   3.861 -0.8804  1.1356 -1.2103
 7633SOL    HW223799   1.878   6.723   3.954 -1.1793 -1.2807  0.8720
 7634SOL     OW23800   0.010   6.985   1.508  0.5652  0.2008  0.2308
 7634SOL    HW123801  -0.032   7.067   1.470  0.2746  0.8144  1.8236
 7634SOL    HW223802   0.042   7.003   1.601  1.7707 -1.0917  0.1123
 7635SOL     OW23803   0.540   6.200   3.786  0.4626  0.8289 -0.2996
 7635SOL    HW123804   0.583   6.151   3.711 -0.6518  0.1344 -0.5096
 7635SOL    HW223805   0.528   6.296   3.760 -1.4571  0.2634 -1.7572
 7636SOL     OW23806   3.097   4.038   4.211 -0.9054 -0.4208 -0.5885
 7636SOL    HW123807   3.193   4.066   4.206 -0.9919 -0.2193 -1.2083
 7636SOL    HW223808   3.071   4.025   4.306 -0.1356 -0.9151 -0.4306
 7637SOL     OW23809   6.377   3.193   5.211  0.7209 -0.0439 -0.5178
 7637SOL    HW123810   6.405   3.097   5.215 -0.1524 -0.2554  0.7364
 7637SOL    HW223811   6.363   3.219   5.115 -2.5916 -2.2493 -0.8000
 7638SOL     OW23812   6.818   5.417   4.555 -0.3946 -0.2786 -0.4367
 7638SOL    HW123813   6.791   5.512   4.571 -1.5991 -0.9544  1.8906
 7638SOL    HW223814   6.769   5.381   4.475 -1.4620  0.4600 -0.1258
 7639SOL     OW23815   1.715   2.921   6.752 -0.4586  0.4312  0.2031
 7639SOL    HW123816   1.806   2.946   6.784  0.0482  1.1982 -1.7001
 7639SOL    HW223817   1.714   2.917   6.652 -2.6827  1.1719  0.1224
 7640SOL     OW23818   0.663   3.445   0.319 -0.7561 -0.0975 -0.3446
 7640SOL    HW123819   0.760   3.452   0.345 -0.7006 -0.5833 -0.4206
 7640SOL    HW223820   0.621   3.368   0.366 -1.1920  0.2977 -0.0704
 7641SOL     OW23821   2.063   4.687   6.302  0.1382  0.1245 -0.0760
 7641SOL    HW123822   1.966   4.693   6.280  0.3935  1.5730 -0.9250
 7641SOL    HW223823   2.116   4.691   6.217  0.9787  0.3232  0.4510
 7642SOL     OW23824   5.055   3.774   5.709  0.2675 -0.2480  0.6266
 7642SOL    HW123825   5.048   3.684   5.666  0.0181  0.7696 -1.5891
 7642SOL    HW223826   5.151   3.802   5.711  0.1306  0.4987 -1.1353
 7643SOL     OW23827   5.649   2.015   5.507 -0.3450 -0.4517 -0.0227
 7643SOL    HW123828   5.675   2.030   5.412  0.9302  1.7626  0.6072
 7643SOL    HW223829   5.590   2.089   5.538 -0.6609 -1.0848  0.9646
 7644SOL     OW23830   2.630   3.496   5.995  0.1730 -0.1356  0.0011
 7644SOL    HW123831   2.569   3.538   5.928 -0.0327 -1.4313 -0.6547
 7644SOL    HW223832   2.600   3.402   6.014  2.3480 -1.0808 -0.8775
 7645SOL     OW23833   4.941   1.645   6.284  0.2838 -0.8096  0.2798
 7645SOL    HW123834   4.978   1.704   6.211  1.5056 -0.2180  1.3257
 7645SOL    HW223835   5.013   1.583   6.316 -0.0634 -0.6777  1.3611
 7646SOL     OW23836   3.164   0.821   6.101 -0.1940 -0.2829 -0.5529
 7646SOL    HW123837   3.106   0.762   6.044 -0.3772 -1.7720  1.0894
 7646SOL    HW223838   3.106   0.878   6.159 -0.0362 -0.6047 -0.0694
 7647SOL     OW23839   5.402   2.822   0.332  0.1792  0.1648  0.6136
 7647SOL    HW123840   5.492   2.792   0.363  0.7387  0.9480 -0.1842
 7647SOL    HW223841   5.401   2.825   0.232 -0.8678 -0.2303  0.6062
 7648SOL     OW23842   3.299   5.087   5.207  0.1989 -0.0374  0.1872
 7648SOL    HW123843   3.240   5.084   5.127  0.8029 -2.3368 -0.2306
 7648SOL    HW223844   3.394   5.099   5.178  0.3075  0.1885  0.6305
 7649SOL     OW23845   5.530   3.422   2.435 -0.2792  0.2653  0.2482
 7649SOL    HW123846   5.619   3.413   2.480  0.0458 -0.5373 -0.5227
 7649SOL    HW223847   5.531   3.502   2.375 -0.3836  0.7671  0.9054
 7650SOL     OW23848   3.233   6.102   6.141  0.8841  0.1187  0.0835
 7650SOL    HW123849   3.272   6.088   6.232  2.8042  0.7583 -0.5922
 7650SOL    HW223850   3.251   6.022   6.084 -0.7012 -0.4655  0.3521
 7651SOL     OW23851   4.097   1.061   2.365 -0.2889  0.2589 -0.3653
 7651SOL    HW123852   4.024   1.097   2.307  0.7800  2.1490 -0.6134
 7651SOL    HW223853   4.059   0.995   2.430 -2.4598  2.1153  0.3631
 7652SOL     OW23854   0.099   2.288   3.485 -0.0216  0.1617  0.3454
 7652SOL    HW123855   0.156   2.346   3.544  0.7502  0.3697 -0.5636
 7652SOL    HW223856   0.013   2.268   3.531 -1.3727  3.9524 -0.1160
 7653SOL     OW23857   0.748   0.213   0.772 -0.1022 -0.5637 -0.5400
 7653SOL    HW123858   0.696   0.169   0.845 -3.0463  0.4627 -1.8503
 7653SOL    HW223859   0.790   0.298   0.806 -0.7938 -0.4881  0.1407
 7654SOL     OW23860   0.828   5.681   4.840 -0.3132 -0.4376  0.0997
 7654SOL    HW123861   0.796   5.678   4.745 -0.1042 -0.2515  0.0232
 7654SOL    HW223862   0.750   5.692   4.901 -0.6253 -2.0481  0.0567
 7655SOL     OW23863   3.909   6.895   1.938 -0.0170  0.2855 -0.4223
 7655SOL    HW123864   3.903   6.861   2.032  2.8749 -0.6404 -0.4501
 7655SOL    HW223865   3.909   6.995   1.938 -1.1471  0.2986  0.4362
 7656SOL     OW23866   6.840   0.133   0.489 -0.0010  0.0402  0.0005
 7656SOL    HW123867   6.935   0.106   0.472 -0.0577  0.1163 -0.4668
 7656SOL    HW223868   6.804   0.081   0.567  0.1338 -0.6894 -0.4105
 7657SOL     OW23869   6.402   4.279   5.897  0.4018  0.0455  0.3312
 7657SOL    HW123870   6.328   4.250   5.836 -0.8736  0.4195  1.6345
 7657SOL    HW223871   6.416   4.378   5.888  2.0141 -0.2720 -1.2050
 7658SOL     OW23872   6.913   2.056   3.352 -0.0028 -0.4847  0.3756
 7658SOL    HW123873   6.991   2.025   3.297  1.3279  1.9688  0.7322
 7658SOL    HW223874   6.943   2.073   3.446 -0.9343  0.5021  0.5201
 7659SOL     OW23875   2.106   4.194   3.436  0.4246  0.4757  0.1079
 7659SOL    HW123876   2.080   4.098   3.441  1.7844  0.0430 -0.5425
 7659SOL    HW223877   2.046   4.242   3.372  0.5126 -0.2330 -0.5259
 7660SOL     OW23878   0.097   4.375   2.006  0.6375  0.4606 -0.0113
 7660SOL    HW123879   0.082   4.277   1.991  0.6540  0.2440  1.3149
 7660SOL    HW223880   0.097   4.422   1.918  1.3487 -0.8321 -0.7338
 7661SOL     OW23881   0.413   6.841   6.346 -0.0624 -0.1501 -0.4742
 7661SOL    HW123882   0.462   6.820   6.261 -0.6384 -2.0190 -0.4072
 7661SOL    HW223883   0.349   6.767   6.366 -1.2303  1.1164  0.6708
 7662SOL     OW23884   4.144   3.191   6.565 -0.2299 -0.0965 -0.4820
 7662SOL    HW123885   4.143   3.138   6.649  2.9350  1.6938  0.8667
 7662SOL    HW223886   4.082   3.270   6.574 -0.4823 -0.3324 -0.1547
 7663SOL     OW23887   1.273   4.181   2.482 -0.1999 -0.1500  0.1527
 7663SOL    HW123888   1.222   4.259   2.447 -2.5086 -1.2729  0.7807
 7663SOL    HW223889   1.333   4.211   2.556 -0.4045  1.1424 -0.1809
 7664SOL     OW23890   3.822   0.421   5.165 -0.7200 -0.0071 -0.3743
 7664SOL    HW123891   3.920   0.434   5.151 -0.2104 -1.1852  1.6955
 7664SOL    HW223892   3.774   0.504   5.139  0.9907  1.1651  0.0302
 7665SOL     OW23893   0.230   5.988   2.593  0.1900  0.7588 -0.2996
 7665SOL    HW123894   0.300   5.931   2.634  0.1866  0.1751 -1.0766
 7665SOL    HW223895   0.145   5.981   2.646  0.3089  0.3665 -0.1580
 7666SOL     OW23896   4.226   2.838   0.934  0.0786  0.5872 -0.0738
 7666SOL    HW123897   4.152   2.774   0.918  0.4662  0.0652  0.1880
 7666SOL    HW223898   4.267   2.864   0.846  0.7982 -0.5905 -0.1083
 7667SOL     OW23899   3.202   3.698   3.973 -0.2663  0.1037 -0.1123
 7667SOL    HW123900   3.179   3.793   3.953  0.1767  0.1032 -0.6338
 7667SOL    HW223901   3.131   3.658   4.031 -1.1352  0.3601 -0.9694
 7668SOL     OW23902   2.130   0.839   0.007 -0.7528  0.1108 -0.1101
 7668SOL    HW123903   2.219   0.861   0.047 -1.1183 -0.0923  0.8325
 7668SOL    HW223904   2.126   0.875  -0.086 -0.4019  1.8190  0.4930
 7669SOL     OW23905   6.247   4.785   4.320  0.2225 -0.3151  0.7335
 7669SOL    HW123906   6.227   4.765   4.416  2.0435  0.0490  1.2303
 7669SOL    HW223907   6.166   4.825   4.277 -0.2494  0.6920  2.4612
 7670SOL     OW23908   1.050   4.018   3.798  0.0521 -0.2102  0.0834
 7670SOL    HW123909   1.088   3.930   3.769  0.8259 -0.1233  0.7944
 7670SOL    HW223910   1.108   4.092   3.764 -0.5128  0.0174 -0.3859
 7671SOL     OW23911   5.027   4.523   6.548 -0.7087  0.5098  0.2269
 7671SOL    HW123912   4.937   4.485   6.570 -0.1134 -1.2770 -0.1859
 7671SOL    HW223913   5.095   4.449   6.547  0.5707  1.6319 -0.5501
 7672SOL     OW23914   0.586   1.856   0.497  0.2718 -0.8847 -0.3977
 7672SOL    HW123915   0.544   1.928   0.553  0.7324 -0.7313 -0.2456
 7672SOL    HW223916   0.624   1.896   0.414  0.0894 -1.0276 -0.5497
 7673SOL     OW23917   0.002   5.081   1.183  0.1068  0.5600  0.5744
 7673SOL    HW123918   0.085   5.029   1.196  1.0058  2.2563  2.0348
 7673SOL    HW223919  -0.074   5.019   1.161  1.4107 -1.1563  0.7563
 7674SOL     OW23920   4.916   2.538   6.315  0.5304  0.1886  0.3324
 7674SOL    HW123921   4.922   2.631   6.278 -0.3441  0.2240  0.2648
 7674SOL    HW223922   4.861   2.538   6.398 -0.5845 -0.4668 -0.3806
 7675SOL     OW23923   5.713   4.002   1.006 -0.0076 -0.1755  0.4958
 7675SOL    HW123924   5.614   4.010   0.993  0.1400  1.0769  0.0333
 7675SOL    HW223925   5.756   3.979   0.919  0.0370 -1.7322  0.8952
 7676SOL     OW23926   2.411   4.189   5.321  0.1645 -0.6570  0.2613
 7676SOL    HW123927   2.378   4.121   5.255  1.7244 -0.5805 -0.6437
 7676SOL    HW223928   2.473   4.145   5.387 -0.2288 -0.4456  0.7812
 7677SOL     OW23929   6.128   6.203   3.563  0.1868  0.5387 -0.5942
 7677SOL    HW123930   6.063   6.158   3.502 -0.0923  0.0148  0.0722
 7677SOL    HW223931   6.154   6.140   3.636 -0.7134  1.6231  0.7362
 7678SOL     OW23932   3.951   6.178   1.204  0.6605  0.5572  0.3312
 7678SOL    HW123933   3.877   6.246   1.201 -0.2335 -0.3349  1.3438
 7678SOL    HW223934   4.033   6.219   1.243  0.7393  1.5740 -0.8331
 7679SOL     OW23935   6.213   1.605   6.449 -0.1542  0.3135 -0.5322
 7679SOL    HW123936   6.262   1.642   6.370  1.0353 -0.7660 -0.3131
 7679SOL    HW223937   6.252   1.643   6.533 -2.8351  3.2498 -0.3960
 7680SOL     OW23938   3.334   6.575   6.725 -0.2486  0.4613 -0.2043
 7680SOL    HW123939   3.433   6.569   6.711 -0.3695  0.7661 -1.3136
 7680SOL    HW223940   3.294   6.484   6.721 -0.0969  0.4058 -0.4738
 7681SOL     OW23941   1.935   0.235   0.283 -0.1119 -0.4573 -0.6148
 7681SOL    HW123942   1.956   0.292   0.363  0.4538  0.8338 -1.6474
 7681SOL    HW223943   1.838   0.244   0.260 -0.1273 -0.2971 -0.4866
 7682SOL     OW23944   3.073   3.936   5.085 -0.1658 -0.4348 -0.4183
 7682SOL    HW123945   3.034   3.902   4.999 -0.9176 -2.2448  0.5801
 7682SOL    HW223946   3.173   3.929   5.081 -0.2270 -1.2027 -0.8829
 7683SOL     OW23947   1.691   5.987   7.019 -0.1834  0.2931 -0.1478
 7683SOL    HW123948   1.740   5.901   7.032  0.7137  0.6714 -0.9094
 7683SOL    HW223949   1.737   6.059   7.071  0.7749  0.8835 -1.7428
 7684SOL     OW23950   1.304   1.921   1.315 -0.1915 -1.1295  0.0352
 7684SOL    HW123951   1.396   1.909   1.279  0.1430  1.0355  0.0285
 7684SOL    HW223952   1.239   1.925   1.239  0.2712  1.4288 -0.3306
 7685SOL     OW23953   6.468   5.405   6.065  0.2556  0.0493  0.0042
 7685SOL    HW123954   6.421   5.349   6.134 -0.2905  1.1372  0.5608
 7685SOL    HW223955   6.419   5.399   5.978 -0.6259  0.7348  0.4340
 7686SOL     OW23956   0.895   5.535   0.660 -0.0850  0.2983  0.0638
 7686SOL    HW123957   0.925   5.612   0.603 -1.2522  1.2050  0.6460
 7686SOL    HW223958   0.975   5.483   0.690  0.7203  1.2391 -0.3970
 7687SOL     OW23959   0.821   2.979   4.556  0.2196 -0.4907  0.5371
 7687SOL    HW123960   0.723   2.958   4.552 -0.0357  0.4728  1.4626
 7687SOL    HW223961   0.867   2.935   4.479 -1.0353 -0.4160 -0.2841
 7688SOL     OW23962   6.752   4.976   2.084  0.2071 -0.1655  0.8085
 7688SOL    HW123963   6.825   5.014   2.029 -2.0411  0.9550 -1.5988
 7688SOL    HW223964   6.723   5.043   2.153  0.7139 -0.2067  1.0665
 7689SOL     OW23965   0.673   3.449   1.549 -0.1994  0.0563  0.8440
 7689SOL    HW123966   0.752   3.389   1.549 -0.1420  0.0953  2.1894
 7689SOL    HW223967   0.699   3.539   1.585 -0.2153  1.0132 -1.4095
 7690SOL     OW23968   1.253   5.425   3.678  0.5147 -0.0476  0.6299
 7690SOL    HW123969   1.252   5.368   3.760  2.3626 -0.5069  0.3947
 7690SOL    HW223970   1.175   5.487   3.679 -0.5954 -1.3779  1.7594
 7691SOL     OW23971   7.005   0.531   0.373 -0.0444 -0.5560 -0.8122
 7691SOL    HW123972   7.021   0.463   0.302 -0.6543  0.2674 -1.7621
 7691SOL    HW223973   6.924   0.507   0.425  0.5916 -1.3379 -0.1531
 7692SOL     OW23974   3.653   4.919   0.301  0.2809  0.2537  0.3554
 7692SOL    HW123975   3.642   4.883   0.208  0.3893  0.3675  0.2985
 7692SOL    HW223976   3.736   4.882   0.342 -0.5351 -0.9831  0.9616
 7693SOL     OW23977   1.315   4.048   6.739 -0.2459 -0.2742  0.7439
 7693SOL    HW123978   1.335   3.972   6.801  0.1951 -0.4519  0.3860
 7693SOL    HW223979   1.387   4.117   6.746 -0.5201 -0.0024  0.8892
 7694SOL     OW23980   6.105   1.593   3.797 -0.0132  0.1712 -0.4051
 7694SOL    HW123981   6.177   1.658   3.821 -0.0314  0.8774 -2.1004
 7694SOL    HW223982   6.125   1.553   3.707  0.1157 -2.3745  0.6752
 7695SOL     OW23983   1.608   3.771   4.822  0.5572 -0.3412  0.2157
 7695SOL    HW123984   1.548   3.702   4.862  0.5310 -0.5130 -0.1210
 7695SOL    HW223985   1.634   3.837   4.893 -0.1662 -0.1646  0.3270
 7696SOL     OW23986   2.668   6.929   2.699  0.0187 -0.0809  0.1710
 7696SOL    HW123987   2.720   6.874   2.634 -2.1100 -0.4677 -1.3069
 7696SOL    HW223988   2.605   6.869   2.750 -1.4022  0.7613 -0.5404
 7697SOL     OW23989   0.228   6.445   4.593 -0.4532 -0.0523 -0.3839
 7697SOL    HW123990   0.318   6.465   4.632  0.1922  0.1729 -1.9205
 7697SOL    HW223991   0.162   6.515   4.622  0.2882  0.7750 -0.6700
 7698SOL     OW23992   6.242   4.817   6.646 -0.0922 -0.0394 -0.0775
 7698SOL    HW123993   6.188   4.738   6.676 -1.2091  0.4150 -0.8132
 7698SOL    HW223994   6.329   4.819   6.695 -0.8748 -0.6085  1.3882
 7699SOL     OW23995   3.867   5.361   5.017 -0.1378 -0.0922  0.3125
 7699SOL    HW123996   3.844   5.458   5.023 -0.0402 -0.0645  0.2277
 7699SOL    HW223997   3.918   5.343   4.933  0.2101 -0.1432  0.5325
 7700SOL     OW23998   2.957   3.458   6.789  0.1683  0.3834  0.2787
 7700SOL    HW123999   2.905   3.481   6.707 -1.3894  1.8217  1.5910
 7700SOL    HW224000   3.053   3.486   6.775 -0.2184  1.2968 -0.7881
 7701SOL     OW24001   2.349   1.698   3.383 -0.2587  0.1236 -0.4637
 7701SOL    HW124002   2.399   1.612   3.377  0.6699  0.6381 -0.3421
 7701SOL    HW224003   2.320   1.727   3.291  0.2444  0.1489 -0.6160
 7702SOL     OW24004   0.094   6.315   3.199 -0.4723  0.3865 -0.2412
 7702SOL    HW124005   0.120   6.276   3.111  2.6908  1.0747  0.2481
 7702SOL    HW224006   0.113   6.414   3.198 -0.7878  0.4773  1.0603
 7703SOL     OW24007   4.605   5.337   2.540  0.2057 -0.8153 -0.1396
 7703SOL    HW124008   4.704   5.349   2.549  0.2278 -1.1044  0.0015
 7703SOL    HW224009   4.572   5.275   2.611 -0.1142 -0.5310 -0.0408
 7704SOL     OW24010   6.110   2.597   1.934 -0.0365  0.1853 -0.8365
 7704SOL    HW124011   6.075   2.576   1.843  0.4423 -0.5636 -0.8596
 7704SOL    HW224012   6.107   2.515   1.991  0.4715  0.4276 -0.4498
 7705SOL     OW24013   0.906   0.314   0.082 -0.0076 -0.0697 -0.3478
 7705SOL    HW124014   0.892   0.413   0.083 -1.8073 -0.3017  0.1556
 7705SOL    HW224015   0.981   0.292   0.019  0.0183  1.5475 -0.9304
 7706SOL     OW24016   4.282   0.176   0.282  0.0452 -0.7071 -0.0153
 7706SOL    HW124017   4.276   0.209   0.376 -0.4007 -1.5168  0.2480
 7706SOL    HW224018   4.295   0.077   0.281 -0.7593 -0.8275 -0.8000
 7707SOL     OW24019   5.196   2.651   1.976 -0.3317  0.1828 -0.7197
 7707SOL    HW124020   5.248   2.573   1.942 -1.7647 -1.3707  0.4696
 7707SOL    HW224021   5.105   2.651   1.935 -0.5439  0.8969 -0.2664
 7708SOL     OW24022   6.217   1.171   1.120 -1.0779 -0.3462 -0.1218
 7708SOL    HW124023   6.259   1.136   1.204 -2.1515  1.2300  1.1358
 7708SOL    HW224024   6.120   1.190   1.136 -0.6609  2.8888 -0.7112
 7709SOL     OW24025   5.790   6.910   0.850  0.0585  0.4419  0.0735
 7709SOL    HW124026   5.789   6.998   0.897 -1.7935  1.2289 -1.3238
 7709SOL    HW224027   5.885   6.883   0.833  0.6987  1.5386  1.5816
 7710SOL     OW24028   6.305   0.282   1.977 -0.1404  0.3456 -0.1633
 7710SOL    HW124029   6.394   0.253   2.012  0.4492  1.7941 -0.4179
 7710SOL    HW224030   6.233   0.249   2.038  0.6568  0.2468  0.7346
 7711SOL     OW24031   2.217   0.052   4.447  0.0028 -0.5697  0.5520
 7711SOL    HW124032   2.138   0.024   4.501  0.0252 -0.3555  0.6948
 7711SOL    HW224033   2.301   0.042   4.501  0.0707 -0.7582  0.4154
 7712SOL     OW24034   3.927   3.961   2.427  0.3988  0.6127 -0.6373
 7712SOL    HW124035   3.827   3.967   2.418  0.2176  0.0965  0.7274
 7712SOL    HW224036   3.966   4.052   2.435  0.0931  0.8392 -1.5587
 7713SOL     OW24037   1.568   6.927   5.106  0.0694  0.2761  0.3104
 7713SOL    HW124038   1.665   6.939   5.084  0.1707  0.3593  0.8035
 7713SOL    HW224039   1.557   6.911   5.204 -0.5057  1.2789  0.4260
 7714SOL     OW24040   0.303   3.225   5.544  0.1244  0.2839 -0.2375
 7714SOL    HW124041   0.272   3.228   5.639  0.2559 -0.6285 -0.1604
 7714SOL    HW224042   0.225   3.211   5.484  0.4054 -3.3696  0.0450
 7715SOL     OW24043   1.063   4.554   5.348 -0.2870 -0.0036  0.4459
 7715SOL    HW124044   0.996   4.580   5.417 -1.6733  1.1268 -1.2260
 7715SOL    HW224045   1.097   4.635   5.301  0.6036 -0.7279 -0.2208
 7716SOL     OW24046   6.095   6.629   3.291 -0.2848 -0.0604  0.0925
 7716SOL    HW124047   6.074   6.622   3.388 -0.5960 -1.2193 -0.0418
 7716SOL    HW224048   6.010   6.637   3.239 -0.0600  3.0046  0.0388
 7717SOL     OW24049   1.062   5.010   4.506  0.1871 -0.1302 -0.1282
 7717SOL    HW124050   0.988   4.971   4.560  1.2644 -1.0706  0.7119
 7717SOL    HW224051   1.141   4.948   4.507  0.1945 -0.3226 -2.9677
 7718SOL     OW24052   0.098   5.909   2.989  0.7725  0.0986  0.0858
 7718SOL    HW124053   0.197   5.911   2.972  0.9148 -0.1852  0.8603
 7718SOL    HW224054   0.061   5.821   2.961  0.7983  0.0798  0.1106
 7719SOL     OW24055   3.501   5.908   5.783 -0.1111  0.0640 -0.5331
 7719SOL    HW124056   3.409   5.945   5.771  0.0131  0.1771 -1.1816
 7719SOL    HW224057   3.556   5.930   5.703  0.8649  1.1143  0.3825
 7720SOL     OW24058   5.567   1.300   4.419 -0.2592 -0.4804 -0.0932
 7720SOL    HW124059   5.544   1.213   4.463 -1.3130 -0.1492  0.0434
 7720SOL    HW224060   5.483   1.348   4.394  0.3150 -0.1051 -1.3863
 7721SOL     OW24061   1.134   3.335   4.533 -0.1855 -0.1044 -0.4177
 7721SOL    HW124062   1.197   3.259   4.553 -0.4451 -0.5976 -1.3843
 7721SOL    HW224063   1.094   3.322   4.442 -1.5793  0.2840  0.1099
 7722SOL     OW24064   1.803   1.813   4.248  0.1685  0.1376 -0.1890
 7722SOL    HW124065   1.817   1.780   4.341 -1.1498 -0.0278 -0.0342
 7722SOL    HW224066   1.854   1.755   4.184 -0.9443 -1.3221  0.2097
 7723SOL     OW24067   4.834   4.107   1.303  0.0683 -0.0013 -0.8032
 7723SOL    HW124068   4.749   4.137   1.258  0.1821  0.2337 -0.8624
 7723SOL    HW224069   4.869   4.182   1.360 -0.7329 -0.6884  0.6661
 7724SOL     OW24070   1.059   6.758   6.594 -0.4457 -0.2922  0.2588
 7724SOL    HW124071   1.069   6.717   6.685  0.0604  0.3490  0.5070
 7724SOL    HW224072   1.099   6.698   6.525 -2.2192 -1.5267  0.2446
 7725SOL     OW24073   1.063   1.933   0.632 -0.3298 -0.8493 -0.1665
 7725SOL    HW124074   1.021   1.975   0.712  1.2807 -0.6822  0.6106
 7725SOL    HW224075   1.099   1.843   0.657  1.2619 -0.2894 -0.3754
 7726SOL     OW24076   5.912   5.996   2.328 -0.5372  0.1958  0.1499
 7726SOL    HW124077   5.911   6.025   2.424  0.6349  1.1186 -0.0831
 7726SOL    HW224078   5.936   5.899   2.322  1.9118  0.6773  0.7466
 7727SOL     OW24079   4.459   6.085   2.717 -0.2928 -0.0061  0.5263
 7727SOL    HW124080   4.429   6.181   2.720 -0.9689 -0.2286  1.0550
 7727SOL    HW224081   4.454   6.051   2.624  0.1917  0.5475  0.2908
 7728SOL     OW24082   3.701   4.259   0.092 -0.3365 -0.2753  0.3398
 7728SOL    HW124083   3.673   4.165   0.075  0.3448 -0.2809 -0.8584
 7728SOL    HW224084   3.796   4.260   0.125 -0.6975 -0.0713  1.3976
 7729SOL     OW24085   3.113   4.751   5.192 -0.2618  1.0566 -0.2929
 7729SOL    HW124086   3.035   4.702   5.154 -1.2853  1.4582  1.2161
 7729SOL    HW224087   3.180   4.686   5.226 -0.0347  0.7137 -1.3566
 7730SOL     OW24088   5.340   3.621   4.837  0.3020  0.2407  0.2555
 7730SOL    HW124089   5.421   3.650   4.786 -0.5124 -0.4183 -1.5061
 7730SOL    HW224090   5.365   3.548   4.901  1.2777  0.7720  0.4916
 7731SOL     OW24091   0.108   3.531   0.106 -0.6208  0.0179  0.2211
 7731SOL    HW124092   0.054   3.524   0.189 -2.3477  0.9254 -0.7675
 7731SOL    HW224093   0.098   3.448   0.052  1.5805 -1.1543  1.4541
 7732SOL     OW24094   1.249   4.180   5.196 -0.1062  0.2875 -0.5348
 7732SOL    HW124095   1.163   4.164   5.147 -0.0700  0.7901 -0.7661
 7732SOL    HW224096   1.318   4.114   5.166  0.1270  1.0371 -1.6839
 7733SOL     OW24097   0.182   3.032   0.676 -0.4226  0.8027 -0.0176
 7733SOL    HW124098   0.103   3.094   0.687 -1.6148 -0.8700  1.3095
 7733SOL    HW224099   0.220   3.010   0.765  0.4120  0.1313 -0.5223
 7734SOL     OW24100   0.320   2.850   5.814 -0.7818 -0.2022  0.0297
 7734SOL    HW124101   0.314   2.893   5.905 -0.3770 -0.1466  0.0336
 7734SOL    HW224102   0.383   2.903   5.757 -1.1454 -0.1567 -0.3303
 7735SOL     OW24103   5.706   4.449   6.984  0.0688 -0.0194  0.0587
 7735SOL    HW124104   5.618   4.451   7.032 -1.1255 -0.5201 -2.0112
 7735SOL    HW224105   5.749   4.360   6.997  0.8914  0.6196  2.0589
 7736SOL     OW24106   1.396   1.756   4.346 -0.1647  0.0901 -0.2528
 7736SOL    HW124107   1.316   1.696   4.349 -0.4315  0.4649  0.8214
 7736SOL    HW224108   1.458   1.726   4.273 -0.2660 -1.5234  0.2688
 7737SOL     OW24109   4.910   4.367   4.983 -0.0153 -0.6336 -0.3158
 7737SOL    HW124110   4.819   4.386   5.021  0.1595 -2.4200  1.1094
 7737SOL    HW224111   4.962   4.452   4.978 -0.9167  0.0427  1.1658
 7738SOL     OW24112   4.640   1.836   1.572 -0.0445 -0.2086 -0.4281
 7738SOL    HW124113   4.731   1.870   1.599 -0.0602 -0.8435  0.4886
 7738SOL    HW224114   4.581   1.832   1.653 -1.3691  1.5678 -1.2493
 7739SOL     OW24115   0.038   3.791   0.147  0.0609 -0.6236 -0.6121
 7739SOL    HW124116  -0.003   3.840   0.070 -0.8362 -1.9424 -0.9992
 7739SOL    HW224117   0.072   3.702   0.116  2.0862 -0.0918 -0.0198
 7740SOL     OW24118   4.319   1.084   1.285  0.5767 -0.2764 -0.5399
 7740SOL    HW124119   4.394   1.049   1.229  0.6277 -0.8100 -0.1538
 7740SOL    HW224120   4.241   1.021   1.279  0.2721  0.1141 -0.6950
 7741SOL     OW24121   4.386   1.541   0.868 -0.1288 -0.7855  0.2610
 7741SOL    HW124122   4.341   1.544   0.779 -0.2696 -0.9790  0.3254
 7741SOL    HW224123   4.324   1.576   0.938  0.4152  0.5519  0.1109
 7742SOL     OW24124   6.001   3.399   4.099 -0.1981 -0.1830 -0.3701
 7742SOL    HW124125   6.007   3.448   4.185 -1.5671 -0.0225 -0.3353
 7742SOL    HW224126   6.002   3.300   4.116  1.5476 -0.1941 -0.3596
 7743SOL     OW24127   1.229   5.304   3.196  0.1837 -0.2147  0.5680
 7743SOL    HW124128   1.290   5.353   3.258  0.0068 -0.9468  1.3392
 7743SOL    HW224129   1.258   5.209   3.188 -0.3288 -0.3513  0.2404
 7744SOL     OW24130   2.912   3.502   1.572 -0.1611 -0.2192 -0.1373
 7744SOL    HW124131   2.889   3.590   1.531 -0.2762  0.7964  2.0212
 7744SOL    HW224132   3.002   3.507   1.614 -0.2203 -1.1105  0.1272
 7745SOL     OW24133   1.484   0.674   1.676 -0.2449  0.8350  0.6798
 7745SOL    HW124134   1.577   0.674   1.712 -0.2719  0.4518  0.7587
 7745SOL    HW224135   1.419   0.685   1.751 -0.2868  0.4267  0.7050
 7746SOL     OW24136   4.059   5.240   1.478  0.1150 -0.1204  0.2256
 7746SOL    HW124137   3.968   5.278   1.498 -0.0631 -0.5400  0.2287
 7746SOL    HW224138   4.113   5.239   1.562  0.0166 -0.1496  0.2890
 7747SOL     OW24139   5.036   6.964   3.457  0.4471 -0.0166 -0.2201
 7747SOL    HW124140   5.118   6.942   3.510  2.5026  2.2762 -2.2371
 7747SOL    HW224141   4.965   6.999   3.519  1.5395 -0.5080  1.3693
 7748SOL     OW24142   0.275   0.732   1.761 -0.3889  0.8305  0.0761
 7748SOL    HW124143   0.342   0.690   1.699 -0.5786  1.1662 -0.3571
 7748SOL    HW224144   0.193   0.675   1.765 -0.4507  0.9077 -0.1234
 7749SOL     OW24145   6.232   2.236   4.629  0.3353 -0.1129  0.1559
 7749SOL    HW124146   6.207   2.160   4.570  1.4223  0.4406 -1.0704
 7749SOL    HW224147   6.228   2.321   4.577 -1.3603  0.7676  1.6381
 7750SOL     OW24148   6.460   4.878   6.418  0.1169 -0.0882  0.1068
 7750SOL    HW124149   6.475   4.781   6.435 -1.7398  0.2162  4.7179
 7750SOL    HW224150   6.363   4.894   6.401  0.4350  1.0180 -0.8115
 7751SOL     OW24151   1.446   5.502   4.553 -0.4093 -0.2842 -0.0149
 7751SOL    HW124152   1.546   5.505   4.546 -0.2086 -1.1528  1.8370
 7751SOL    HW224153   1.419   5.529   4.646 -1.9228  0.0298 -0.5206
 7752SOL     OW24154   3.763   3.232   4.465  0.6142  0.1219  0.3002
 7752SOL    HW124155   3.853   3.256   4.500 -0.0009  0.1909  1.9077
 7752SOL    HW224156   3.755   3.132   4.459  0.2853  0.0461  1.6547
 7753SOL     OW24157   2.586   0.719   3.325 -0.3850  0.2075  0.8703
 7753SOL    HW124158   2.595   0.711   3.226  1.3226  1.9143  0.8311
 7753SOL    HW224159   2.668   0.763   3.363 -1.9052  1.5889  2.7725
 7754SOL     OW24160   2.960   5.760   3.898 -0.0543 -0.2228  0.2071
 7754SOL    HW124161   2.943   5.857   3.912  1.6361  0.2814 -0.8805
 7754SOL    HW224162   3.042   5.733   3.948  0.7678 -0.5396 -1.2581
 7755SOL     OW24163   6.502   4.488   0.090  0.2851 -0.0723 -0.6756
 7755SOL    HW124164   6.427   4.426   0.065 -0.8721  0.6140  0.8673
 7755SOL    HW224165   6.495   4.509   0.188  1.7575  1.0374 -0.7861
 7756SOL     OW24166   3.784   7.002   3.426  0.3827 -0.0611  0.3997
 7756SOL    HW124167   3.791   7.038   3.519  1.2192  0.2984  0.2004
 7756SOL    HW224168   3.867   6.951   3.404 -0.0218 -0.5642  0.0237
 7757SOL     OW24169   6.889   6.781   1.720 -0.1592  0.1305 -0.3440
 7757SOL    HW124170   6.879   6.880   1.708 -1.3190 -0.0707 -1.2377
 7757SOL    HW224171   6.893   6.736   1.631  0.3743 -0.6427  0.0499
 7758SOL     OW24172   2.241   5.047   6.546 -0.1092  0.2426  0.0783
 7758SOL    HW124173   2.150   5.064   6.507 -0.5161  1.1631  1.3686
 7758SOL    HW224174   2.264   4.950   6.536 -0.6922  0.2215 -1.3531
 7759SOL     OW24175   4.789   4.244   4.530  0.0789  0.1715  0.4967
 7759SOL    HW124176   4.773   4.163   4.474 -0.1552  0.6709 -0.1700
 7759SOL    HW224177   4.816   4.216   4.622 -0.3701 -0.6615  0.3830
 7760SOL     OW24178   4.275   1.899   2.315 -0.7417  1.0970  0.2046
 7760SOL    HW124179   4.298   1.959   2.238  1.5209 -0.8897 -0.8116
 7760SOL    HW224180   4.228   1.817   2.281  1.5682 -0.5016  0.5816
 7761SOL     OW24181   4.938   6.732   0.387 -0.4522  0.9730  0.4450
 7761SOL    HW124182   4.990   6.646   0.396 -1.3203  0.4252  0.3486
 7761SOL    HW224183   4.883   6.728   0.303 -1.4386  1.1150  1.0775
 7762SOL     OW24184   0.688   1.338   6.164 -0.2328 -0.4647  0.1254
 7762SOL    HW124185   0.592   1.314   6.150 -0.6160  0.3534  1.1681
 7762SOL    HW224186   0.708   1.426   6.121 -0.2631 -0.0810  0.8780
 7763SOL     OW24187   5.078   1.868   1.406 -0.3101  0.1260  0.1742
 7763SOL    HW124188   5.008   1.939   1.410 -2.0982 -1.6029  1.6565
 7763SOL    HW224189   5.035   1.779   1.393  1.5538 -1.0739  1.6781
 7764SOL     OW24190   5.930   6.214   4.852  0.4238 -0.0388 -0.0262
 7764SOL    HW124191   6.029   6.228   4.850  0.3176  0.7365 -1.6561
 7764SOL    HW224192   5.900   6.178   4.764 -1.0036  1.8697 -0.3841
 7765SOL     OW24193   3.880   4.823   0.461 -0.5583  0.1009  0.0104
 7765SOL    HW124194   3.954   4.763   0.491 -0.0609  0.6034 -0.1900
 7765SOL    HW224195   3.877   4.904   0.519  0.0307  0.7958 -0.8947
 7766SOL     OW24196   3.011   6.274   4.752  0.1135 -0.2932 -0.0842
 7766SOL    HW124197   3.003   6.225   4.839 -0.3649  0.2863  0.1997
 7766SOL    HW224198   2.999   6.372   4.767  0.4094 -0.1496 -0.7485
 7767SOL     OW24199   2.684   1.891   4.959 -0.3587  0.4599 -0.2179
 7767SOL    HW124200   2.603   1.912   5.014 -0.6186  0.2146 -0.5035
 7767SOL    HW224201   2.751   1.845   5.016 -1.7710 -2.4871 -0.6992
 7768SOL     OW24202   2.832   1.741   5.138 -0.5940 -0.0517  0.3611
 7768SOL    HW124203   2.874   1.783   5.219 -0.9692 -0.3376  0.7036
 7768SOL    HW224204   2.900   1.739   5.064 -0.5395  1.0675  0.3639
 7769SOL     OW24205   3.298   1.625   5.484 -0.3019 -0.1098 -0.1703
 7769SOL    HW124206   3.215   1.664   5.445  0.3373  0.4469 -1.0064
 7769SOL    HW224207   3.300   1.640   5.583 -0.5450  1.0896 -0.3435
 7770SOL     OW24208   4.660   5.115   6.105 -0.0664 -0.0829  0.7054
 7770SOL    HW124209   4.607   5.124   6.021  0.4289 -0.2954  0.3650
 7770SOL    HW224210   4.634   5.188   6.168  1.2269  1.5640 -0.5550
 7771SOL     OW24211   0.181   6.411   6.805  0.4555 -0.1741  0.0144
 7771SOL    HW124212   0.186   6.352   6.725 -0.3931 -0.1573 -0.0601
 7771SOL    HW224213   0.091   6.402   6.848  0.8836 -0.1655  0.9562
 7772SOL     OW24214   4.963   6.569   6.893  0.7594 -0.7202  0.2857
 7772SOL    HW124215   5.048   6.615   6.866  0.2376  0.2938  0.3058
 7772SOL    HW224216   4.957   6.480   6.848  2.0286 -0.9971  0.6206
 7773SOL     OW24217   0.998   2.537   6.077  0.2948 -0.3414 -0.0200
 7773SOL    HW124218   0.922   2.592   6.041  1.6776  1.0125 -1.0034
 7773SOL    HW224219   0.967   2.443   6.092 -2.1716  0.6257  1.6914
 7774SOL     OW24220   5.168   4.154   5.939  0.2384 -0.7084  0.2001
 7774SOL    HW124221   5.084   4.186   5.983  0.5118 -0.4132  0.5168
 7774SOL    HW224222   5.247   4.196   5.983  0.5274 -0.4952 -0.5085
 7775SOL     OW24223   4.858   5.239   6.476 -0.0912  0.1626 -0.3212
 7775SOL    HW124224   4.795   5.287   6.538  0.3174 -0.1369  0.3321
 7775SOL    HW224225   4.938   5.208   6.527 -0.1393 -0.8233 -0.8264
 7776SOL     OW24226   5.815   1.365   4.435  0.3834 -0.1272  0.5888
 7776SOL    HW124227   5.849   1.444   4.383 -0.2242 -1.0901 -1.3447
 7776SOL    HW224228   5.718   1.351   4.415  0.3314 -1.0383  1.3827
 7777SOL     OW24229   1.859   1.812   0.892 -0.5603  0.0383 -0.3799
 7777SOL    HW124230   1.840   1.750   0.968 -0.3710 -1.6874 -1.6601
 7777SOL    HW224231   1.948   1.789   0.852 -0.1574  1.6398 -0.4403
 7778SOL     OW24232   6.723   6.666   2.292  0.2327 -0.0246 -0.0284
 7778SOL    HW124233   6.764   6.755   2.313  1.1876 -0.6481  0.8669
 7778SOL    HW224234   6.663   6.675   2.213 -0.6120  1.6559  0.7552
 7779SOL     OW24235   1.387   3.673   1.234  0.5587 -0.2314  0.2145
 7779SOL    HW124236   1.364   3.607   1.163 -1.0023  0.7792 -0.2869
 7779SOL    HW224237   1.421   3.625   1.314 -1.7448 -1.8203  0.3613
 7780SOL     OW24238   3.523   6.601   3.457 -0.0503  0.2242  0.4276
 7780SOL    HW124239   3.510   6.568   3.550 -3.3704  2.2690  0.8690
 7780SOL    HW224240   3.527   6.701   3.457 -0.7052  0.3061 -1.6367
 7781SOL     OW24241   0.189   3.870   4.876 -1.0176 -0.4218 -0.1815
 7781SOL    HW124242   0.133   3.907   4.951  0.3289  0.0292  0.6538
 7781SOL    HW224243   0.215   3.776   4.898 -0.5970 -0.2788 -0.0544
 7782SOL     OW24244   3.144   2.138   4.687 -1.0614  0.2075 -0.4671
 7782SOL    HW124245   3.151   2.174   4.780 -0.3015  0.7559 -0.7228
 7782SOL    HW224246   3.229   2.158   4.637 -1.5712  0.1826 -1.3693
 7783SOL     OW24247   0.292   6.112   3.921 -0.1917 -0.2790  0.1572
 7783SOL    HW124248   0.253   6.194   3.964 -0.1059 -0.2365  0.1556
 7783SOL    HW224249   0.369   6.139   3.863  0.8833 -0.5169  1.4280
 7784SOL     OW24250   2.558   3.754   0.853 -0.2008 -0.1536 -0.8893
 7784SOL    HW124251   2.484   3.803   0.898  0.3963  0.8893 -1.0050
 7784SOL    HW224252   2.564   3.661   0.889 -0.8980  0.0834 -0.1470
 7785SOL     OW24253   0.624   1.355   5.706  0.3794 -0.0098 -0.1311
 7785SOL    HW124254   0.568   1.329   5.628  0.3722  0.3880 -0.2613
 7785SOL    HW224255   0.605   1.294   5.783 -0.1354  0.0433 -0.2149
 7786SOL     OW24256   2.378   0.254   1.892  0.0324  0.0778  0.1020
 7786SOL    HW124257   2.443   0.326   1.867 -0.9625  0.0720 -2.8265
 7786SOL    HW224258   2.397   0.172   1.838 -1.1144 -0.6390  0.7519
 7787SOL     OW24259   2.314   2.142   2.222  0.2097 -0.6360 -0.4397
 7787SOL    HW124260   2.229   2.194   2.230  0.1591 -0.6998 -0.5637
 7787SOL    HW224261   2.293   2.044   2.218  0.2575 -0.6257 -0.9717
 7788SOL     OW24262   6.333   2.196   2.304  0.4143  0.3922 -0.2175
 7788SOL    HW124263   6.246   2.207   2.256 -0.9213 -2.0378  1.4205
 7788SOL    HW224264   6.359   2.282   2.347 -2.1008  0.8201  0.6259
 7789SOL     OW24265   3.371   5.518   1.428 -0.0936  0.1923 -0.6676
 7789SOL    HW124266   3.337   5.612   1.433 -0.5412 -0.0032  0.1178
 7789SOL    HW224267   3.305   5.461   1.380 -0.7499 -0.1196  0.5728
 7790SOL     OW24268   0.813   2.886   0.950  0.7424 -0.3522  0.5937
 7790SOL    HW124269   0.795   2.938   1.034  0.0765  0.5778 -0.1119
 7790SOL    HW224270   0.736   2.825   0.932 -0.0875  0.9585 -0.4418
 7791SOL     OW24271   1.623   3.764   3.198  0.4356  0.3691  0.4688
 7791SOL    HW124272   1.682   3.843   3.209  1.0608 -0.3175  2.4668
 7791SOL    HW224273   1.535   3.793   3.161  0.2060  2.2285  2.3081
 7792SOL     OW24274   4.346   0.650   6.330  0.0280 -0.0005  0.3485
 7792SOL    HW124275   4.377   0.673   6.422 -0.7516 -0.6301  0.7774
 7792SOL    HW224276   4.276   0.579   6.335  0.7054 -0.7918 -0.7851
 7793SOL     OW24277   6.955   0.297   0.256  0.5217  0.2222 -0.0155
 7793SOL    HW124278   7.020   0.244   0.201  0.0176 -0.4799  0.0518
 7793SOL    HW224279   6.914   0.238   0.326  0.3965  0.8535  0.4494
 7794SOL     OW24280   4.508   4.735   4.940 -0.1529  0.5187  0.0952
 7794SOL    HW124281   4.449   4.666   4.981  1.4977  0.2374  2.1202
 7794SOL    HW224282   4.492   4.737   4.841 -3.0456  0.0330  0.4504
 7795SOL     OW24283   1.128   6.230   1.285  0.1686 -0.2398  0.0962
 7795SOL    HW124284   1.061   6.271   1.223 -1.0127 -0.1478  1.4073
 7795SOL    HW224285   1.097   6.238   1.379  3.2687  2.3094  1.1015
 7796SOL     OW24286   3.088   1.198   4.887 -0.3803 -0.4412  0.2243
 7796SOL    HW124287   3.173   1.244   4.861 -1.8420  1.6105 -1.2598
 7796SOL    HW224288   3.060   1.227   4.978 -0.6438  0.7547 -0.2136
 7797SOL     OW24289   2.545   4.038   5.499 -0.1084  0.0823 -0.0826
 7797SOL    HW124290   2.513   3.949   5.465  2.6564 -1.6333  1.4162
 7797SOL    HW224291   2.578   4.027   5.593  0.4573  2.6910  0.0815
 7798SOL     OW24292   0.771   1.585   1.576 -0.0221 -0.5388  0.1423
 7798SOL    HW124293   0.862   1.618   1.550  0.1993 -0.8973  0.4417
 7798SOL    HW224294   0.755   1.605   1.673 -0.0043 -1.0235  0.2511
 7799SOL     OW24295   5.141   1.503   6.949  0.0883 -0.3355 -0.4526
 7799SOL    HW124296   5.219   1.451   6.983  0.1917  1.1310  1.7961
 7799SOL    HW224297   5.060   1.445   6.947  0.4234 -0.8964  0.9632
 7800SOL     OW24298   0.996   1.245   4.202  0.7700  0.0026 -0.2606
 7800SOL    HW124299   0.925   1.285   4.144 -0.8081  2.7490  3.2184
 7800SOL    HW224300   1.084   1.252   4.155 -0.3203  2.4176 -2.1855
 7801SOL     OW24301   0.912   5.826   5.660  0.0078 -0.5974 -0.1785
 7801SOL    HW124302   0.860   5.815   5.744  0.4663  0.7411  0.3065
 7801SOL    HW224303   0.994   5.880   5.678 -1.3680  2.3556 -1.9823
 7802SOL     OW24304   6.264   3.946   6.704 -0.1272 -0.1983 -0.0113
 7802SOL    HW124305   6.262   3.990   6.614  1.9835 -2.0621 -1.0668
 7802SOL    HW224306   6.267   3.847   6.692 -0.7473 -0.5141  2.1705
 7803SOL     OW24307   5.644   5.918   5.231 -0.1497  0.1156  0.2975
 7803SOL    HW124308   5.565   5.906   5.172  0.9132  0.8359 -1.3425
 7803SOL    HW224309   5.720   5.956   5.178  1.1761 -0.1631  1.9063
 7804SOL     OW24310   6.476   2.341   0.794  0.0261 -0.1343  0.0140
 7804SOL    HW124311   6.468   2.436   0.764  0.2255 -0.5382 -1.3972
 7804SOL    HW224312   6.570   2.310   0.783  0.1940 -0.2180  1.4362
 7805SOL     OW24313   2.168   4.292   5.397 -0.0384 -0.2081  0.2069
 7805SOL    HW124314   2.224   4.269   5.318  0.2173 -0.8653  0.5764
 7805SOL    HW224315   2.085   4.236   5.396 -1.5094  1.8580 -1.2109
 7806SOL     OW24316   6.517   5.298   5.030  0.0518  0.1978 -0.5242
 7806SOL    HW124317   6.479   5.356   5.102  1.9274 -1.4753  2.0015
 7806SOL    HW224318   6.610   5.328   5.008  0.9331 -1.5141  0.5923
 7807SOL     OW24319   5.974   6.698   5.471  0.6739  0.5303 -0.1288
 7807SOL    HW124320   5.958   6.732   5.378  1.0557 -0.0436 -0.4095
 7807SOL    HW224321   6.052   6.747   5.511 -0.4768  1.9166  0.5010
 7808SOL     OW24322   3.739   1.951   6.172 -0.0441  0.4092 -0.3546
 7808SOL    HW124323   3.785   1.913   6.092  0.3342 -1.5838  0.7324
 7808SOL    HW224324   3.699   1.877   6.226 -2.2825  1.8794  0.1429
 7809SOL     OW24325   0.298   6.846   6.879 -1.1000  0.0249  0.1401
 7809SOL    HW124326   0.373   6.819   6.819 -1.8821 -0.5394 -0.6002
 7809SOL    HW224327   0.328   6.921   6.938 -0.3693  0.7245 -1.0734
 7810SOL     OW24328   5.098   1.400   3.584  0.3354 -0.5369  0.2539
 7810SOL    HW124329   5.015   1.350   3.607  0.0806 -0.3051 -0.1542
 7810SOL    HW224330   5.088   1.496   3.609  0.9333 -0.7350  1.3022
 7811SOL     OW24331   3.317   5.704   0.847 -0.3147 -0.2903 -0.2030
 7811SOL    HW124332   3.372   5.719   0.929 -2.2783 -0.8818  1.2897
 7811SOL    HW224333   3.290   5.608   0.841 -1.7619  0.0970 -0.4558
 7812SOL     OW24334   1.213   5.069   3.549  0.6129 -0.6715 -0.5164
 7812SOL    HW124335   1.287   5.136   3.562  0.2280 -0.3523  0.0823
 7812SOL    HW224336   1.249   4.989   3.502  0.9463  0.2133 -1.8394
 7813SOL     OW24337   1.784   1.512   5.248 -0.3615 -0.0230  0.0235
 7813SOL    HW124338   1.874   1.470   5.263 -1.4815 -1.7218  2.6248
 7813SOL    HW224339   1.781   1.601   5.294 -0.3251 -0.4357  0.8412
 7814SOL     OW24340   2.780   0.729   2.847  0.1967  0.3421  0.4206
 7814SOL    HW124341   2.820   0.820   2.854 -0.8318  1.0929 -2.0672
 7814SOL    HW224342   2.844   0.668   2.801  0.1322  0.3866  0.2684
 7815SOL     OW24343   5.265   0.158   3.632 -0.4977 -0.0345 -0.1385
 7815SOL    HW124344   5.309   0.247   3.648 -2.4644  0.9702 -0.0120
 7815SOL    HW224345   5.327   0.100   3.579  1.5144  0.7609  1.1739
 7816SOL     OW24346   2.692   2.748   0.706 -0.1187 -0.7532 -0.4530
 7816SOL    HW124347   2.716   2.725   0.612 -0.6278 -0.0001 -0.7733
 7816SOL    HW224348   2.675   2.664   0.757 -0.2499 -1.1542 -1.1434
 7817SOL     OW24349   1.353   2.452   1.085 -0.4552 -0.1468  0.4324
 7817SOL    HW124350   1.374   2.514   1.160  2.3883 -0.5330  0.0875
 7817SOL    HW224351   1.432   2.447   1.023 -1.1248 -2.9225 -0.3604
 7818SOL     OW24352   4.264   4.854   4.660  0.1278 -0.1487 -0.1888
 7818SOL    HW124353   4.288   4.763   4.625 -0.3772  0.0421 -1.0707
 7818SOL    HW224354   4.322   4.923   4.616  0.4112 -0.0233  0.3702
 7819SOL     OW24355   3.901   5.631   3.662 -0.3143 -0.0771 -0.1052
 7819SOL    HW124356   3.887   5.578   3.578 -0.8207  0.4783 -0.3793
 7819SOL    HW224357   3.834   5.604   3.731 -0.6901  0.3297 -0.3081
 7820SOL     OW24358   5.518   3.838   4.481 -0.5289 -0.0825 -0.2829
 7820SOL    HW124359   5.418   3.845   4.484 -0.5868 -1.1048  1.6145
 7820SOL    HW224360   5.555   3.849   4.573  0.8967 -2.3411 -0.5058
 7821SOL     OW24361   4.950   6.497   1.071  0.0384 -0.0995  0.4267
 7821SOL    HW124362   4.862   6.524   1.032 -0.2936 -0.6505  0.7950
 7821SOL    HW224363   4.993   6.577   1.114  0.3567  0.4972 -0.9457
 7822SOL     OW24364   3.551   5.478   5.324 -0.2078 -0.0116  0.2018
 7822SOL    HW124365   3.495   5.434   5.394 -0.6101  0.1920  0.0106
 7822SOL    HW224366   3.550   5.422   5.241  0.1304 -0.1658  0.2976
 7823SOL     OW24367   0.300   0.328   5.031  0.4585  0.2623 -1.1001
 7823SOL    HW124368   0.216   0.296   4.987  1.0087 -1.4984 -0.9298
 7823SOL    HW224369   0.277   0.375   5.116 -0.3302 -1.3712 -0.3528
 7824SOL     OW24370   6.112   1.959   4.114 -0.0870 -0.0107  0.4069
 7824SOL    HW124371   6.163   2.026   4.061 -2.1313  0.9334 -0.5147
 7824SOL    HW224372   6.172   1.885   4.143  1.6316  0.7604 -1.0375
 7825SOL     OW24373   3.484   3.814   5.805  0.1964 -0.2685  0.0200
 7825SOL    HW124374   3.455   3.844   5.896  1.1334 -1.5741  0.7769
 7825SOL    HW224375   3.575   3.852   5.785 -0.5372  1.0833 -0.9557
 7826SOL     OW24376   0.441   3.775   0.962 -0.5158 -0.3556 -0.6796
 7826SOL    HW124377   0.536   3.769   0.934  0.1607  2.1809  0.7208
 7826SOL    HW224378   0.416   3.694   1.016  0.5611 -1.4338 -1.7694
 7827SOL     OW24379   0.221   5.741   1.547  0.2162 -0.6184  0.0918
 7827SOL    HW124380   0.198   5.833   1.516 -1.0125 -0.8916  0.1249
 7827SOL    HW224381   0.144   5.704   1.600  1.3458 -1.0466  1.4846
 7828SOL     OW24382   6.998   0.433   3.453  0.4067 -0.0196  0.1448
 7828SOL    HW124383   6.975   0.524   3.419 -2.4501 -0.0869  1.5519
 7828SOL    HW224384   7.090   0.433   3.491 -0.0300  2.7155  1.4469
 7829SOL     OW24385   3.686   6.047   6.203  0.1476  0.9901 -0.0325
 7829SOL    HW124386   3.613   6.113   6.186  1.4816  1.9971 -2.3875
 7829SOL    HW224387   3.685   5.978   6.130  0.0783 -0.3969  1.2469
 7830SOL     OW24388   4.539   6.726   2.844  0.2427  0.2221 -0.0176
 7830SOL    HW124389   4.487   6.811   2.835 -1.0301 -0.5409 -0.1733
 7830SOL    HW224390   4.485   6.659   2.895  1.5567 -0.2342  0.8311
 7831SOL     OW24391   6.005   5.350   6.206  0.2102 -0.2597  0.3767
 7831SOL    HW124392   6.063   5.432   6.213 -1.2594  1.4629 -3.9999
 7831SOL    HW224393   5.932   5.355   6.274 -1.2537  3.5170 -1.1935
 7832SOL     OW24394   4.700   3.565   0.722 -0.1339  0.5435  0.2978
 7832SOL    HW124395   4.633   3.637   0.702 -1.8092 -0.8481  0.5899
 7832SOL    HW224396   4.689   3.491   0.655  0.9326  0.1622  0.5289
 7833SOL     OW24397   6.556   6.809   6.264  0.0192 -1.2737 -0.5420
 7833SOL    HW124398   6.465   6.784   6.298  0.6188 -3.1357 -0.2055
 7833SOL    HW224399   6.615   6.831   6.342 -0.0212 -0.3787 -0.7448
 7834SOL     OW24400   5.069   6.048   4.720 -0.2222 -0.7495 -0.1433
 7834SOL    HW124401   5.062   6.115   4.646 -0.3859  0.7745  1.2032
 7834SOL    HW224402   5.135   5.977   4.695  1.0469  0.6903 -1.0148
 7835SOL     OW24403   5.543   6.868   3.305 -0.3294 -0.0286 -0.3705
 7835SOL    HW124404   5.630   6.823   3.325 -1.7574 -2.3281  1.1934
 7835SOL    HW224405   5.506   6.832   3.220  0.8746  2.1009 -1.8965
 7836SOL     OW24406   0.346   0.651   0.364  0.1508  0.6402  0.1670
 7836SOL    HW124407   0.373   0.734   0.412 -1.3067  0.5832  1.1464
 7836SOL    HW224408   0.250   0.631   0.382  0.1499 -0.6261 -1.0022
 7837SOL     OW24409   2.419   3.039   5.871  0.4034  0.0145 -0.1537
 7837SOL    HW124410   2.476   3.109   5.827 -1.1070  0.3230 -1.6837
 7837SOL    HW224411   2.323   3.057   5.852 -0.2927 -0.4155  2.4955
 7838SOL     OW24412   1.585   4.325   1.178 -0.2458  0.2096 -0.2717
 7838SOL    HW124413   1.643   4.404   1.197 -0.6745  0.3948  0.3090
 7838SOL    HW224414   1.555   4.285   1.265 -2.7902  1.4478 -0.4986
 7839SOL     OW24415   0.685   4.924   3.477  0.0070 -0.2144 -0.2073
 7839SOL    HW124416   0.774   4.924   3.522  0.1678  1.7670 -0.4668
 7839SOL    HW224417   0.644   5.014   3.483 -1.5893 -0.8565 -0.9051
 7840SOL     OW24418   5.103   2.677   3.050  0.1450  0.3411  0.0960
 7840SOL    HW124419   5.170   2.621   3.002  0.9663  0.5793  0.9455
 7840SOL    HW224420   5.089   2.763   3.001  0.9165  0.5498  0.2397
 7841SOL     OW24421   0.870   4.799   5.048  0.0534  0.4003  0.2288
 7841SOL    HW124422   0.796   4.748   5.003  0.8817 -1.2303  0.6210
 7841SOL    HW224423   0.955   4.746   5.040  0.8447  1.5044  1.1391
 7842SOL     OW24424   1.405   4.537   0.255  0.5670  0.0949 -0.1796
 7842SOL    HW124425   1.333   4.481   0.214  0.1058  0.6595 -0.1569
 7842SOL    HW224426   1.396   4.632   0.223  1.2663  0.1809 -0.1329
 7843SOL     OW24427   6.118   0.982   0.834  0.1272 -0.0973 -0.1569
 7843SOL    HW124428   6.036   0.941   0.874  0.2971 -0.7882 -0.4951
 7843SOL    HW224429   6.156   1.049   0.897 -1.4805  1.2728 -0.5557
 7844SOL     OW24430   1.073   3.237   4.902 -0.0735 -0.1788 -0.3155
 7844SOL    HW124431   1.086   3.215   4.999 -2.5997  0.6055  0.3010
 7844SOL    HW224432   1.069   3.152   4.849  0.0644 -0.6950  0.4793
 7845SOL     OW24433   6.567   3.513   1.491  0.1289 -0.0217  0.3586
 7845SOL    HW124434   6.603   3.431   1.446 -2.2018 -0.6032 -0.5827
 7845SOL    HW224435   6.639   3.555   1.546  1.5273 -2.4239  0.4914
 7846SOL     OW24436   5.171   6.626   4.151 -0.3949 -0.0176 -0.3304
 7846SOL    HW124437   5.239   6.690   4.187  0.6558 -0.7783 -0.8963
 7846SOL    HW224438   5.112   6.673   4.085  0.2403  0.4305 -0.5938
 7847SOL     OW24439   0.030   6.472   2.903 -0.3312 -0.2433  0.3505
 7847SOL    HW124440   0.039   6.567   2.934 -1.1984  0.2254 -0.7678
 7847SOL    HW224441   0.103   6.417   2.944  0.2002  0.9020  1.0058
 7848SOL     OW24442   6.574   2.374   1.291  0.4499  0.0001  0.5712
 7848SOL    HW124443   6.480   2.405   1.285  1.0217  2.8672  3.4890
 7848SOL    HW224444   6.627   2.411   1.215 -0.8987 -3.0550 -2.1177
 7849SOL     OW24445   6.436   0.010   1.879 -0.3815  0.2224 -0.7980
 7849SOL    HW124446   6.496   0.080   1.919  1.6011 -1.5515 -0.4808
 7849SOL    HW224447   6.381  -0.032   1.951  1.0955 -0.9896 -0.3143
 7850SOL     OW24448   3.228   1.524   3.552 -0.4074  0.3282 -0.2157
 7850SOL    HW124449   3.245   1.551   3.457 -2.5817  0.0913 -0.7368
 7850SOL    HW224450   3.133   1.492   3.560  0.5690 -2.5088  1.3932
 7851SOL     OW24451   2.369   6.518   1.352  0.3245  0.7905  0.0746
 7851SOL    HW124452   2.304   6.592   1.367 -0.2780  0.8065 -2.2242
 7851SOL    HW224453   2.394   6.477   1.439 -0.9493  2.3189  1.2075
 7852SOL     OW24454   3.119   3.983   3.958  0.0532  0.1203  0.2956
 7852SOL    HW124455   3.099   4.014   4.051  0.5399  1.3347  0.0052
 7852SOL    HW224456   3.202   4.027   3.925 -0.6724  0.4961 -1.0998
 7853SOL     OW24457   4.986   4.332   3.458  0.0266 -0.5549 -0.0852
 7853SOL    HW124458   5.061   4.302   3.516  0.4574  0.7810  0.0860
 7853SOL    HW224459   5.015   4.327   3.362 -0.2343 -1.5476 -0.1178
 7854SOL     OW24460   5.182   5.648   1.578 -0.0419 -0.1018  0.0108
 7854SOL    HW124461   5.118   5.665   1.503  0.0446  1.1868  0.2160
 7854SOL    HW224462   5.200   5.733   1.626  2.8395 -0.1332 -0.8450
 7855SOL     OW24463   5.396   3.190   4.664  0.4139  0.4279 -0.4227
 7855SOL    HW124464   5.337   3.143   4.730 -0.1854 -0.4700 -1.5593
 7855SOL    HW224465   5.354   3.277   4.638 -0.0711  0.1228 -0.6856
 7856SOL     OW24466   0.949   3.638   4.857  0.4807  0.7982  0.1170
 7856SOL    HW124467   0.989   3.601   4.941  0.2470  1.5274  0.5554
 7856SOL    HW224468   0.850   3.625   4.859  0.3769  1.5951  0.3544
 7857SOL     OW24469   6.316   3.329   1.717 -0.0759 -0.5577  0.2726
 7857SOL    HW124470   6.303   3.413   1.664  0.3453  0.2350  1.3876
 7857SOL    HW224471   6.231   3.276   1.716  0.3401 -1.3169 -2.3933
 7858SOL     OW24472   0.326   4.958   3.139  0.1520 -0.6202  0.3749
 7858SOL    HW124473   0.293   5.045   3.104 -0.7663 -1.3133 -0.5292
 7858SOL    HW224474   0.426   4.961   3.150  0.0179  0.9301  1.5196
 7859SOL     OW24475   5.944   4.724   4.674  0.2266  0.3044 -0.9281
 7859SOL    HW124476   5.925   4.764   4.584  1.2843 -0.4706 -1.5195
 7859SOL    HW224477   5.909   4.630   4.678 -0.5900  0.6168 -0.1990
 7860SOL     OW24478   0.130   6.843   1.769 -0.1028  0.4596 -0.2923
 7860SOL    HW124479   0.092   6.935   1.773  0.4529  0.7035 -0.5740
 7860SOL    HW224480   0.057   6.778   1.744 -1.3614  0.2832  3.2491
 7861SOL     OW24481   0.224   5.427   1.287  0.7659 -0.6974 -0.0734
 7861SOL    HW124482   0.318   5.456   1.305  1.3205 -0.9111 -2.2886
 7861SOL    HW224483   0.163   5.506   1.288  0.7236 -0.6762  2.3796
 7862SOL     OW24484   1.424   0.313   5.825  0.4410  0.7568 -0.6917
 7862SOL    HW124485   1.400   0.318   5.728  0.4464  0.0716 -0.7320
 7862SOL    HW224486   1.370   0.380   5.877  1.1374  1.8269 -1.2953
 7863SOL     OW24487   2.651   5.505   1.132 -0.2898 -0.0761  0.2678
 7863SOL    HW124488   2.626   5.592   1.174 -0.5792 -1.0655  2.2538
 7863SOL    HW224489   2.673   5.438   1.203 -1.1551 -1.9628 -1.1477
 7864SOL     OW24490   3.934   5.039   1.838 -0.2945  0.6003  0.0265
 7864SOL    HW124491   3.908   4.957   1.890 -0.1048  0.9135  0.6252
 7864SOL    HW224492   3.903   5.029   1.744  0.4501 -0.5266 -0.1233
 7865SOL     OW24493   1.905   5.178   0.749  0.4254 -0.3738  0.1408
 7865SOL    HW124494   1.969   5.103   0.760  1.2403 -0.3394 -3.3174
 7865SOL    HW224495   1.951   5.264   0.771  1.4682 -0.3978 -1.7972
 7866SOL     OW24496   1.519   6.569   1.021  0.2111  0.3312 -0.5121
 7866SOL    HW124497   1.436   6.527   0.987  0.5852 -0.0104 -1.0159
 7866SOL    HW224498   1.541   6.533   1.112  0.5451 -0.5824 -0.9506
 7867SOL     OW24499   3.508   0.231   1.777  0.0636  0.0582 -0.6225
 7867SOL    HW124500   3.483   0.327   1.762  0.7245  0.1191 -1.3410
 7867SOL    HW224501   3.553   0.194   1.696 -0.3588 -0.9269 -0.4295
 7868SOL     OW24502   4.087   3.050   6.168  0.2058 -0.5163  0.4626
 7868SOL    HW124503   4.052   3.118   6.103 -1.3819 -1.6114  0.1198
 7868SOL    HW224504   4.098   2.962   6.122  2.3704 -0.4943  0.8682
 7869SOL     OW24505   4.379   0.714   2.675 -0.0546  0.4517 -0.4392
 7869SOL    HW124506   4.404   0.723   2.772 -0.6310  0.7725 -0.3154
 7869SOL    HW224507   4.409   0.795   2.625  0.2594  0.2776 -0.5349
 7870SOL     OW24508   1.674   1.200   2.063  0.2318  0.0751 -0.7625
 7870SOL    HW124509   1.702   1.242   1.977  2.2261  2.9757  1.1314
 7870SOL    HW224510   1.754   1.167   2.112 -0.7641 -0.6496  0.4496
 7871SOL     OW24511   1.599   4.820   1.848  0.7619 -0.1423 -0.1130
 7871SOL    HW124512   1.617   4.805   1.751  0.2398  1.9685 -0.5895
 7871SOL    HW224513   1.685   4.845   1.893  0.9028 -0.5376 -0.1635
 7872SOL     OW24514   5.734   4.283   2.759 -0.1428 -0.1598  0.3920
 7872SOL    HW124515   5.753   4.202   2.815  0.3690 -0.3237 -0.0095
 7872SOL    HW224516   5.820   4.330   2.740 -0.5590  1.2355  1.7448
 7873SOL     OW24517   5.577   6.507   2.040  0.3829  0.4808  0.1963
 7873SOL    HW124518   5.577   6.482   1.943 -1.0289  0.6971  0.1211
 7873SOL    HW224519   5.671   6.514   2.072  0.9991 -4.2071  0.0795
 7874SOL     OW24520   3.332   6.700   5.484 -0.2524  0.2402  0.0512
 7874SOL    HW124521   3.238   6.682   5.514  0.0993  1.7041  2.2786
 7874SOL    HW224522   3.390   6.717   5.564  1.8724 -0.3543 -1.2854
 7875SOL     OW24523   6.654   3.618   3.931  0.4551 -0.5649  0.1864
 7875SOL    HW124524   6.648   3.693   3.866 -0.4374 -0.7987 -0.0116
 7875SOL    HW224525   6.706   3.647   4.011  1.3899 -0.2198 -0.5371
 7876SOL     OW24526   7.002   4.813   4.893  0.2552 -0.2379  0.1208
 7876SOL    HW124527   6.909   4.849   4.892  0.7662  1.2780  1.6704
 7876SOL    HW224528   7.050   4.844   4.811 -0.2111  0.1303 -0.0230
 7877SOL     OW24529   1.036   4.359   3.774  0.2072  0.9898  0.5080
 7877SOL    HW124530   0.990   4.297   3.837 -1.3054  0.2777 -1.2131
 7877SOL    HW224531   0.978   4.375   3.694  1.8288  2.2690 -0.4857
 7878SOL     OW24532   5.137   0.110   5.546 -1.6548 -0.4579  0.1614
 7878SOL    HW124533   5.048   0.092   5.589 -0.6871 -0.4859  2.2440
 7878SOL    HW224534   5.202   0.040   5.573 -0.3318  0.9405  0.7065
 7879SOL     OW24535   2.547   1.162   0.488  0.4617  0.3299  0.9477
 7879SOL    HW124536   2.593   1.093   0.544 -0.1370  0.5645  1.7514
 7879SOL    HW224537   2.613   1.233   0.462  0.7375  0.2545  1.4256
 7880SOL     OW24538   4.164   5.653   0.270  0.1674  0.6047 -0.7037
 7880SOL    HW124539   4.144   5.702   0.355  0.4936  0.0097 -0.2816
 7880SOL    HW224540   4.240   5.698   0.223  0.8745  0.1454 -0.0087
 7881SOL     OW24541   4.469   5.816   5.923 -0.1423  0.2432  0.3465
 7881SOL    HW124542   4.553   5.810   5.976  1.5462 -0.3836 -2.2278
 7881SOL    HW224543   4.397   5.762   5.968  1.4409 -1.0169  1.4754
 7882SOL     OW24544   4.193   1.673   5.630  0.2194 -0.0705 -0.0150
 7882SOL    HW124545   4.277   1.642   5.585  0.8709 -1.9030  2.2795
 7882SOL    HW224546   4.213   1.757   5.682  1.0512 -1.2216  1.5999
 7883SOL     OW24547   4.081   0.708   5.930 -0.1465 -0.4771 -0.6599
 7883SOL    HW124548   4.031   0.678   5.849 -0.0008 -2.1558 -0.1581
 7883SOL    HW224549   4.139   0.634   5.963 -1.8125 -0.6397  2.2514
 7884SOL     OW24550   4.890   3.048   2.352 -0.2873  0.1647  0.2213
 7884SOL    HW124551   4.842   3.044   2.264  0.7739 -1.2207 -0.3509
 7884SOL    HW224552   4.863   2.969   2.408  1.4034 -0.7803 -0.2106
 7885SOL     OW24553   4.300   0.650   3.461  0.0639 -0.3414  0.4671
 7885SOL    HW124554   4.231   0.655   3.533 -0.1356 -1.4095  0.3631
 7885SOL    HW224555   4.387   0.684   3.497 -0.5320  1.1752  0.5482
 7886SOL     OW24556   5.443   6.599   2.361  0.6395  0.1819  0.4184
 7886SOL    HW124557   5.421   6.591   2.458 -0.9452 -0.3643  0.0382
 7886SOL    HW224558   5.543   6.595   2.349  0.8699  0.4771  2.0226
 7887SOL     OW24559   3.452   0.466   3.410 -0.5254  0.0957 -0.8912
 7887SOL    HW124560   3.400   0.535   3.359  1.5627  1.5791 -1.1062
 7887SOL    HW224561   3.544   0.460   3.374  0.3610 -0.3841  1.2960
 7888SOL     OW24562   5.264   4.897   3.924  0.0894  0.0256  0.0777
 7888SOL    HW124563   5.309   4.985   3.933  1.6067 -0.5269 -1.6104
 7888SOL    HW224564   5.272   4.864   3.830 -0.1253 -2.0697  0.7281
 7889SOL     OW24565   5.293   3.792   5.578 -0.2938 -0.0859  0.1084
 7889SOL    HW124566   5.346   3.743   5.648  1.1905  0.8076 -0.3482
 7889SOL    HW224567   5.355   3.833   5.512 -1.5730  1.1323 -0.3794
 7890SOL     OW24568   3.214   0.468   4.250  0.0451  0.5613 -0.0975
 7890SOL    HW124569   3.181   0.539   4.189 -0.6042  0.7954  0.5123
 7890SOL    HW224570   3.221   0.504   4.343  0.1741 -0.0310  0.1294
 7891SOL     OW24571   0.424   0.660   2.744 -0.5478 -0.3046  0.0118
 7891SOL    HW124572   0.329   0.685   2.725 -0.6965 -1.1363 -0.3791
 7891SOL    HW224573   0.478   0.743   2.757 -1.4728  0.1693  0.9825
 7892SOL     OW24574   6.869   4.200   1.483 -0.0573 -0.0049  0.2633
 7892SOL    HW124575   6.869   4.173   1.387  3.7480 -2.4890  0.7488
 7892SOL    HW224576   6.854   4.120   1.541  1.0405  0.7854  1.7358
 7893SOL     OW24577   0.370   2.224   6.613  0.7613  0.1699  0.2071
 7893SOL    HW124578   0.371   2.194   6.708 -1.3605 -0.0992  0.1909
 7893SOL    HW224579   0.311   2.163   6.560 -1.0820  2.4493 -0.5110
 7894SOL     OW24580   5.921   6.799   1.285 -0.0656  0.2739 -0.2608
 7894SOL    HW124581   5.890   6.708   1.314  0.2779  0.3834  0.4531
 7894SOL    HW224582   5.918   6.862   1.362 -0.3071  0.8782 -0.7550
 7895SOL     OW24583   2.263   1.707   5.681 -0.4327 -0.0569 -0.6409
 7895SOL    HW124584   2.203   1.704   5.761  3.2023  0.2390  2.4262
 7895SOL    HW224585   2.289   1.802   5.663  2.4135 -0.3916  1.0652
 7896SOL     OW24586   4.395   5.157   3.984 -0.0718  0.2667  0.3657
 7896SOL    HW124587   4.460   5.196   4.050 -0.1277 -0.5335  0.9135
 7896SOL    HW224588   4.330   5.227   3.955  2.4605  1.7908 -2.0709
 7897SOL     OW24589   5.223   3.240   5.156  0.3493  0.1700 -0.7344
 7897SOL    HW124590   5.253   3.145   5.165  2.3255  0.8755  1.0056
 7897SOL    HW224591   5.169   3.265   5.236  1.7513  1.0960 -0.0272
 7898SOL     OW24592   3.351   1.027   1.062 -0.5024 -0.3317  0.4512
 7898SOL    HW124593   3.289   1.091   1.016 -1.6302 -0.7686  1.3255
 7898SOL    HW224594   3.440   1.072   1.076 -0.6204  0.3268 -0.7529
 7899SOL     OW24595   0.573   1.675   0.720 -0.1363 -0.1115  0.0853
 7899SOL    HW124596   0.486   1.719   0.740  0.0180 -0.2187  1.0585
 7899SOL    HW224597   0.609   1.709   0.633 -1.2296 -0.1998 -0.4185
 7900SOL     OW24598   0.797   2.892   0.568 -0.3324 -0.3168  0.1413
 7900SOL    HW124599   0.769   2.914   0.474 -1.1470  0.5314  0.5717
 7900SOL    HW224600   0.873   2.827   0.565 -0.1298 -0.0531 -1.1155
 7901SOL     OW24601   1.912   1.118   3.961  0.0353 -0.1476  0.0331
 7901SOL    HW124602   1.973   1.045   3.931  1.6884  1.0111  0.4322
 7901SOL    HW224603   1.941   1.205   3.921 -1.5170  0.4153  0.0503
 7902SOL     OW24604   4.960   1.713   4.505 -0.1710  0.0279 -0.3659
 7902SOL    HW124605   4.909   1.628   4.514 -1.1520  0.5770 -0.5176
 7902SOL    HW224606   4.911   1.774   4.442  1.0602  0.3045 -1.0736
 7903SOL     OW24607   4.904   5.678   6.414  0.1472 -0.0098  0.2658
 7903SOL    HW124608   4.830   5.655   6.477  0.2134 -0.2005  0.2741
 7903SOL    HW224609   4.866   5.705   6.325  0.0797 -0.4154  0.1708
 7904SOL     OW24610   0.996   2.500   3.938  0.4756  0.1856 -0.7104
 7904SOL    HW124611   0.942   2.417   3.927  0.2217  0.5717 -2.8524
 7904SOL    HW224612   1.090   2.484   3.907  0.3227  0.7842 -1.5174
 7905SOL     OW24613   3.677   4.308   6.055  0.6413  0.1591 -0.0111
 7905SOL    HW124614   3.655   4.289   5.959 -1.0702 -2.4287  0.8040
 7905SOL    HW224615   3.745   4.243   6.087 -0.2474 -0.3000  1.0186
 7906SOL     OW24616   1.471   6.495   5.889  0.1256  0.5244  0.0018
 7906SOL    HW124617   1.526   6.483   5.972  1.0764  3.0195 -0.2065
 7906SOL    HW224618   1.522   6.461   5.811  0.5576  1.0288  0.0597
 7907SOL     OW24619   2.608   5.096   1.600 -0.4843 -0.3043  0.1284
 7907SOL    HW124620   2.705   5.078   1.611 -0.5518 -0.0497  1.1904
 7907SOL    HW224621   2.556   5.013   1.621 -0.5165 -0.3983 -0.2972
 7908SOL     OW24622   5.719   4.305   3.976  0.1340  0.0474  0.8637
 7908SOL    HW124623   5.650   4.233   3.970  0.0212  0.1192  1.2809
 7908SOL    HW224624   5.770   4.310   3.890 -1.1314  0.7438  0.1232
 7909SOL     OW24625   5.352   3.851   1.708 -0.2255  0.2179  0.2977
 7909SOL    HW124626   5.295   3.801   1.773 -1.1962  0.5545 -0.2693
 7909SOL    HW224627   5.430   3.891   1.756 -0.1877 -0.6715  0.9993
 7910SOL     OW24628   2.658   2.438   4.119  0.0557  0.2298  0.0507
 7910SOL    HW124629   2.706   2.397   4.196 -0.1028  0.9479  0.5471
 7910SOL    HW224630   2.699   2.408   4.033 -0.3812 -1.3623  0.3684
 7911SOL     OW24631   4.068   7.011   5.589  0.1748  0.3078  0.2473
 7911SOL    HW124632   4.102   6.934   5.536  2.0002 -0.2690  2.0959
 7911SOL    HW224633   4.110   7.096   5.557  0.8678  0.0391  0.4417
 7912SOL     OW24634   5.757   0.925   0.139  0.1333 -0.4051  0.1710
 7912SOL    HW124635   5.820   1.002   0.140 -1.6429  1.1268 -0.4791
 7912SOL    HW224636   5.743   0.894   0.045 -0.9251  0.0086  0.1859
 7913SOL     OW24637   4.139   1.532   4.862  0.7546  0.4971 -0.0946
 7913SOL    HW124638   4.194   1.527   4.945  1.4326 -2.0371 -0.6207
 7913SOL    HW224639   4.062   1.470   4.868  0.3140  0.9288 -1.0263
 7914SOL     OW24640   1.274   6.477   0.345 -0.6680 -0.1807 -0.3786
 7914SOL    HW124641   1.368   6.448   0.363 -0.1654  2.7770  2.5317
 7914SOL    HW224642   1.275   6.561   0.291 -1.5073  0.9620  1.3214
 7915SOL     OW24643   6.811   6.465   0.403 -0.4983 -0.1744  0.0673
 7915SOL    HW124644   6.861   6.406   0.466 -0.9798 -1.6391 -0.8696
 7915SOL    HW224645   6.774   6.410   0.328 -1.6405  1.2052 -0.4266
 7916SOL     OW24646   3.443   2.993   0.248 -0.3192 -0.3667  0.5996
 7916SOL    HW124647   3.426   3.059   0.321 -0.9232 -0.0037  0.1355
 7916SOL    HW224648   3.443   2.900   0.286  0.6135 -0.1053  1.2648
 7917SOL     OW24649   6.458   5.991   6.338 -0.2115  0.0449 -0.2372
 7917SOL    HW124650   6.375   5.976   6.284  0.4597 -0.1748 -1.2192
 7917SOL    HW224651   6.538   5.959   6.287  0.6818  1.8264 -0.0365
 7918SOL     OW24652   7.007   6.750   2.047  0.4973  0.5310  0.7240
 7918SOL    HW124653   7.017   6.667   2.101  1.3246  1.1963  1.6361
 7918SOL    HW224654   7.010   6.728   1.949  0.6941 -0.4982  0.9571
 7919SOL     OW24655   4.453   2.001   5.283  0.2418 -0.0134 -0.0887
 7919SOL    HW124656   4.496   2.029   5.197 -1.0996  0.9310 -0.4773
 7919SOL    HW224657   4.455   2.077   5.348 -5.0436  1.9743 -1.7576
 7920SOL     OW24658   5.612   5.586   5.784 -0.6426  0.1027 -0.4443
 7920SOL    HW124659   5.645   5.546   5.699  0.6597 -2.3319  1.1059
 7920SOL    HW224660   5.676   5.656   5.815 -0.3982  0.0262 -0.7775
 7921SOL     OW24661   0.688   6.363   4.011  0.5756  0.3350  0.0315
 7921SOL    HW124662   0.604   6.314   3.991  1.1201 -0.5392 -0.1725
 7921SOL    HW224663   0.737   6.316   4.085  1.1044  0.5728 -0.1619
 7922SOL     OW24664   5.327   1.147   6.790 -0.1942 -0.2814 -0.0951
 7922SOL    HW124665   5.391   1.119   6.861 -0.2884 -2.0012 -0.6400
 7922SOL    HW224666   5.352   1.104   6.703 -1.0803  0.4119 -0.7214
 7923SOL     OW24667   1.926   1.729   0.355 -0.9386  0.6393  0.7115
 7923SOL    HW124668   1.899   1.650   0.411  1.2704  0.0302  1.0432
 7923SOL    HW224669   1.941   1.808   0.415 -1.1904  0.7492  0.6307
 7924SOL     OW24670   4.841   5.122   5.863 -0.1514 -0.2381 -0.0435
 7924SOL    HW124671   4.904   5.182   5.912 -1.8456 -0.1830  2.2183
 7924SOL    HW224672   4.748   5.154   5.874 -0.8359 -1.5889 -1.4067
 7925SOL     OW24673   6.458   4.481   0.364 -0.1294 -0.6242  0.3707
 7925SOL    HW124674   6.515   4.541   0.421 -0.6232 -0.8870  1.1501
 7925SOL    HW224675   6.414   4.412   0.421 -1.3165 -0.3743 -0.2088
 7926SOL     OW24676   6.199   5.281   6.516  0.1112 -0.5812  0.1213
 7926SOL    HW124677   6.216   5.292   6.418 -3.3955  0.3432 -0.5207
 7926SOL    HW224678   6.144   5.199   6.530 -1.3748  0.5307  0.9937
 7927SOL     OW24679   0.386   6.995   5.281 -0.0383  0.7506  0.3853
 7927SOL    HW124680   0.396   6.992   5.381 -1.1882 -0.7123  0.4954
 7927SOL    HW224681   0.329   6.918   5.251 -0.5367  1.7262 -1.3083
 7928SOL     OW24682   4.097   5.417   0.679  0.2683  0.2414 -0.1158
 7928SOL    HW124683   4.082   5.437   0.775 -0.3783  0.4431 -0.2522
 7928SOL    HW224684   4.009   5.418   0.630  0.7380  1.8154 -1.0144
 7929SOL     OW24685   1.348   2.615   0.556 -0.3700 -0.1541 -0.5530
 7929SOL    HW124686   1.355   2.715   0.550 -0.2046 -0.1177  0.0806
 7929SOL    HW224687   1.435   2.578   0.590 -0.8458 -0.3794  0.4728
 7930SOL     OW24688   1.001   5.664   5.893 -0.2648  0.0977  0.7303
 7930SOL    HW124689   0.903   5.678   5.881 -0.2393  0.0155  0.4196
 7930SOL    HW224690   1.017   5.597   5.966 -0.4237  0.5365  1.1729
 7931SOL     OW24691   3.172   1.222   0.935 -0.1901 -0.7548  0.0107
 7931SOL    HW124692   3.152   1.276   1.017 -3.1647 -1.3745 -0.1858
 7931SOL    HW224693   3.158   1.280   0.854  0.6291 -0.7255 -0.1105
 7932SOL     OW24694   0.603   4.192   5.671  1.1730  0.1868 -0.2646
 7932SOL    HW124695   0.639   4.112   5.719  1.1729  0.1106 -0.3923
 7932SOL    HW224696   0.554   4.164   5.589  1.8282  0.3562 -0.7269
 7933SOL     OW24697   2.006   1.617   6.889 -0.0171  0.5440  0.1376
 7933SOL    HW124698   1.912   1.651   6.881 -0.4630 -0.5630  0.3725
 7933SOL    HW224699   2.068   1.692   6.909 -1.0813  1.0796  1.5232
 7934SOL     OW24700   0.206   4.712   4.207 -0.1836  0.4441  0.1398
 7934SOL    HW124701   0.186   4.763   4.290 -1.5990  0.5309 -0.2408
 7934SOL    HW224702   0.176   4.764   4.127 -2.4385 -1.2728 -0.2209
 7935SOL     OW24703   6.216   0.269   1.393 -0.8825 -0.1975  0.0292
 7935SOL    HW124704   6.246   0.205   1.464 -0.4353  0.7314  0.6931
 7935SOL    HW224705   6.154   0.336   1.432  0.5106  1.2201 -0.0833
 7936SOL     OW24706   0.094   1.740   5.880  0.3869 -0.1027  0.1857
 7936SOL    HW124707   0.184   1.708   5.850  0.0758 -1.5009  0.6524
 7936SOL    HW224708   0.025   1.674   5.851 -0.5448  1.1107 -0.4304
 7937SOL     OW24709   1.724   4.170   3.384 -0.0970 -0.4130  0.4166
 7937SOL    HW124710   1.718   4.175   3.484 -0.2781  1.0870  0.3564
 7937SOL    HW224711   1.748   4.260   3.348 -0.1343 -0.9157 -0.9061
 7938SOL     OW24712   0.692   0.342   1.023  0.1643  0.1745  0.9479
 7938SOL    HW124713   0.782   0.367   0.988  0.1860 -0.9427  0.1654
 7938SOL    HW224714   0.697   0.253   1.069 -0.7656 -0.4894 -0.1775
 7939SOL     OW24715   5.462   3.119   1.585 -0.1421  0.2689  0.1746
 7939SOL    HW124716   5.372   3.125   1.543 -0.0737  1.0829  0.1253
 7939SOL    HW224717   5.514   3.201   1.564  0.0816  0.4706  1.4050
 7940SOL     OW24718   2.671   5.878   6.444  0.2937  0.1110 -0.0684
 7940SOL    HW124719   2.643   5.974   6.435  0.7242  0.2251 -0.2566
 7940SOL    HW224720   2.734   5.855   6.369 -1.6303 -1.0010 -1.4484
 7941SOL     OW24721   4.603   1.472   5.233 -0.2987 -0.0531 -0.5142
 7941SOL    HW124722   4.556   1.473   5.145 -0.9771  1.9973 -0.1775
 7941SOL    HW224723   4.587   1.384   5.278  1.0066 -1.6007 -2.8721
 7942SOL     OW24724   4.711   6.280   3.668  0.6763  0.6079 -0.5010
 7942SOL    HW124725   4.692   6.363   3.721 -0.5303  0.3385 -0.4800
 7942SOL    HW224726   4.747   6.210   3.729 -0.3480  0.4254 -0.0740
 7943SOL     OW24727   6.475   2.260   6.799 -0.4085  0.8150  0.0398
 7943SOL    HW124728   6.405   2.248   6.869 -0.1856  1.0390  0.3045
 7943SOL    HW224729   6.491   2.174   6.751 -1.4981  0.9644 -0.6213
 7944SOL     OW24730   2.171   3.506   0.977 -0.6812 -0.1432 -0.4702
 7944SOL    HW124731   2.122   3.439   1.033  0.4769 -0.5837  0.0502
 7944SOL    HW224732   2.257   3.466   0.944  0.6940  1.4771  0.9635
 7945SOL     OW24733   6.920   2.493   6.154 -0.3570 -0.2794  0.3011
 7945SOL    HW124734   6.975   2.575   6.173  0.5950 -0.3973 -1.6303
 7945SOL    HW224735   6.981   2.415   6.143 -1.1211 -0.8922  0.3770
 7946SOL     OW24736   3.948   3.595   5.137 -0.2164 -0.8501 -0.5690
 7946SOL    HW124737   4.030   3.646   5.162 -0.4462 -0.1003 -1.3219
 7946SOL    HW224738   3.971   3.523   5.072  0.1669 -1.9787  0.7523
 7947SOL     OW24739   2.447   2.124   6.216  0.6415  0.0857 -0.0980
 7947SOL    HW124740   2.366   2.169   6.252  0.0792 -0.1037 -1.0942
 7947SOL    HW224741   2.433   2.025   6.218 -0.1338  0.0905 -2.3971
 7948SOL     OW24742   3.314   6.815   1.351  0.2814 -0.0507 -0.7745
 7948SOL    HW124743   3.392   6.751   1.349  0.3785  0.0779 -1.0483
 7948SOL    HW224744   3.327   6.880   1.426 -0.0993 -0.7043 -0.1272
 7949SOL     OW24745   6.176   3.228   5.957 -0.4462 -0.1795 -0.1751
 7949SOL    HW124746   6.088   3.181   5.960  0.8150 -2.7016 -0.4438
 7949SOL    HW224747   6.194   3.260   5.864 -0.4884 -0.8801 -0.4303
 7950SOL     OW24748   6.388   6.013   4.035 -0.0902  0.2055  0.1483
 7950SOL    HW124749   6.361   5.924   4.071 -0.0352  0.9613  2.1763
 7950SOL    HW224750   6.357   6.085   4.096 -1.4960  1.7533 -2.2143
 7951SOL     OW24751   5.711   3.540   5.609 -0.0197 -0.3593 -0.3575
 7951SOL    HW124752   5.731   3.533   5.707 -1.6074 -0.3421 -0.0078
 7951SOL    HW224753   5.681   3.452   5.574 -2.0058  0.2074 -0.1975
 7952SOL     OW24754   3.321   5.142   1.851  0.1819 -1.1296 -0.3502
 7952SOL    HW124755   3.276   5.053   1.854  0.1186 -1.0932 -0.1904
 7952SOL    HW224756   3.420   5.130   1.850  0.2006 -1.1823  0.8160
 7953SOL     OW24757   1.448   4.514   4.710 -0.0963 -0.3721 -0.1485
 7953SOL    HW124758   1.475   4.457   4.787  0.1542  3.1393  2.6181
 7953SOL    HW224759   1.530   4.554   4.668 -0.3543 -0.5274 -0.8096
 7954SOL     OW24760   1.447   4.203   0.361 -0.2389 -0.3199 -0.5667
 7954SOL    HW124761   1.364   4.153   0.386 -0.7556  0.6216 -0.3485
 7954SOL    HW224762   1.451   4.213   0.262 -0.9672  0.5684 -0.5233
 7955SOL     OW24763   5.768   0.944   2.645  0.0058 -0.3672  0.3535
 7955SOL    HW124764   5.702   0.942   2.570 -2.0399  0.2501  2.0187
 7955SOL    HW224765   5.860   0.929   2.610 -0.6288  1.6616 -2.4891
 7956SOL     OW24766   2.102   1.976   3.506  0.3561 -0.1030  0.0787
 7956SOL    HW124767   2.195   1.999   3.477 -0.0658 -0.7527 -1.9760
 7956SOL    HW224768   2.096   1.878   3.524  0.4914  0.2146  2.1067
 7957SOL     OW24769   2.668   2.238   6.155 -0.4419  0.0132  0.1061
 7957SOL    HW124770   2.606   2.191   6.217 -1.4592  1.7329  0.4481
 7957SOL    HW224771   2.665   2.194   6.065 -0.1998 -1.4792  0.8054
 7958SOL     OW24772   0.592   5.209   2.477  0.4509 -0.0425  0.5173
 7958SOL    HW124773   0.683   5.248   2.490  0.1067  0.6466  0.8998
 7958SOL    HW224774   0.600   5.113   2.450  1.3289  0.4164 -0.9661
 7959SOL     OW24775   4.370   4.571   0.709  0.1373  0.9397 -0.1377
 7959SOL    HW124776   4.368   4.480   0.751  0.9415  0.5913 -0.8284
 7959SOL    HW224777   4.460   4.588   0.670 -0.1575  1.8415 -0.4536
 7960SOL     OW24778   4.584   0.659   1.582 -0.0179  0.4889 -0.6994
 7960SOL    HW124779   4.543   0.750   1.586  1.9677  1.5175 -2.0156
 7960SOL    HW224780   4.546   0.609   1.504 -1.8113 -0.2420  0.5736
 7961SOL     OW24781   1.897   3.299   6.653  0.1784 -0.4819  0.4173
 7961SOL    HW124782   1.864   3.391   6.672 -1.2707 -0.9234  0.2036
 7961SOL    HW224783   1.887   3.280   6.555  0.2246 -0.9557  0.5026
 7962SOL     OW24784   0.363   2.176   4.795 -0.3519  0.1339 -0.1930
 7962SOL    HW124785   0.292   2.240   4.824 -2.5010 -1.1123 -2.3783
 7962SOL    HW224786   0.413   2.216   4.717  1.4066  0.9619  1.2658
 7963SOL     OW24787   0.064   3.955   5.122  0.1898 -0.1255 -0.0306
 7963SOL    HW124788  -0.015   3.893   5.127 -0.2901  0.3867 -0.9703
 7963SOL    HW224789   0.033   4.044   5.088  0.8376  0.6913  1.4313
 7964SOL     OW24790   0.877   5.497   2.400 -0.4521 -0.6110  0.1952
 7964SOL    HW124791   0.929   5.565   2.348 -0.7621 -1.7117 -1.6915
 7964SOL    HW224792   0.939   5.425   2.431 -0.0948  0.5669  2.3461
 7965SOL     OW24793   2.752   4.840   3.529 -0.3976 -0.4097 -0.2495
 7965SOL    HW124794   2.726   4.770   3.595 -3.0506 -0.3385 -1.1078
 7965SOL    HW224795   2.737   4.931   3.570  1.5222 -0.2863  0.2942
 7966SOL     OW24796   0.711   5.741   3.688  0.7233  0.4089 -0.6905
 7966SOL    HW124797   0.806   5.768   3.675  1.0924  1.0771  2.5222
 7966SOL    HW224798   0.704   5.678   3.765 -1.5849  1.8802  0.4414
 7967SOL     OW24799   4.488   4.967   4.506 -0.1194  0.1796  0.4114
 7967SOL    HW124800   4.559   5.011   4.560 -1.2489  3.5168 -0.5620
 7967SOL    HW224801   4.529   4.898   4.446  1.8663  0.1770  1.7005
 7968SOL     OW24802   6.476   0.537   6.247 -0.3418 -0.3256  0.4437
 7968SOL    HW124803   6.462   0.438   6.251  1.9951 -0.6668  1.7302
 7968SOL    HW224804   6.424   0.580   6.321 -1.1082 -0.6040  0.0805
 7969SOL     OW24805   4.119   2.439   0.683 -0.0073 -0.2266 -0.3752
 7969SOL    HW124806   4.025   2.440   0.717  0.4168 -1.7352  0.9533
 7969SOL    HW224807   4.118   2.424   0.584 -1.1727  0.1563 -0.4337
 7970SOL     OW24808   0.556   0.555   3.709  0.3326 -0.0810  0.1385
 7970SOL    HW124809   0.590   0.646   3.733  0.0446 -0.0792  0.5391
 7970SOL    HW224810   0.465   0.541   3.749 -0.4581  0.1814 -1.4860
 7971SOL     OW24811   2.037   0.745   2.052 -0.4558  0.0555 -0.1071
 7971SOL    HW124812   2.012   0.837   2.083 -1.3213 -0.5297  0.9904
 7971SOL    HW224813   1.959   0.683   2.065  0.1625 -0.8725 -0.7042
 7972SOL     OW24814   5.036   4.109   3.263  0.0773 -0.1553 -0.2479
 7972SOL    HW124815   5.127   4.086   3.228 -0.5521 -2.5499 -0.4922
 7972SOL    HW224816   4.981   4.146   3.188  0.0874 -1.1377 -0.7648
 7973SOL     OW24817   4.953   3.068   4.968  0.0921  0.0966 -0.2208
 7973SOL    HW124818   4.955   3.093   5.065 -1.5513  2.1509 -0.6421
 7973SOL    HW224819   4.883   2.998   4.953  1.4918 -1.4709  0.2720
 7974SOL     OW24820   6.239   3.051   3.181  0.6117  0.5486  0.1915
 7974SOL    HW124821   6.283   2.966   3.210  0.6313  1.7504  4.2028
 7974SOL    HW224822   6.309   3.117   3.154  0.9846  0.7976  1.6869
 7975SOL     OW24823   2.385   4.378   1.454 -0.4229 -0.0897  0.1259
 7975SOL    HW124824   2.297   4.415   1.423 -0.0180  0.2088 -0.6812
 7975SOL    HW224825   2.425   4.322   1.382  0.0816 -0.1847  0.4713
 7976SOL     OW24826   1.473   6.338   1.514  0.4748  0.5855 -0.0702
 7976SOL    HW124827   1.435   6.316   1.424 -0.1074 -0.4681  0.4163
 7976SOL    HW224828   1.400   6.336   1.582  1.0944  0.3046  0.5923
 7977SOL     OW24829   3.740   2.687   0.899 -0.1675 -0.9446 -0.0886
 7977SOL    HW124830   3.670   2.753   0.927 -0.3540 -1.7890  1.5428
 7977SOL    HW224831   3.786   2.651   0.980  2.5489 -0.0556 -1.0966
 7978SOL     OW24832   5.493   6.546   5.832 -0.5411  0.4478 -0.0056
 7978SOL    HW124833   5.442   6.484   5.773 -0.3643  0.0915  0.2129
 7978SOL    HW224834   5.570   6.497   5.874  0.0991  1.0179 -0.4765
 7979SOL     OW24835   2.417   3.891   1.319 -0.1718 -0.2159  0.0341
 7979SOL    HW124836   2.491   3.911   1.255  0.7693  0.3040  1.2330
 7979SOL    HW224837   2.395   3.974   1.372 -2.1234 -0.1581 -0.7725
 7980SOL     OW24838   0.867   3.122   3.967 -0.1561 -0.3811  0.2044
 7980SOL    HW124839   0.798   3.113   4.039 -0.8218 -1.5915 -0.5376
 7980SOL    HW224840   0.848   3.204   3.913 -0.1249  0.0995  0.9172
 7981SOL     OW24841   1.361   4.617   3.886  0.3674  0.1864 -0.1236
 7981SOL    HW124842   1.395   4.701   3.929 -0.8613  1.0926 -0.8706
 7981SOL    HW224843   1.287   4.640   3.823 -1.4219 -1.6434  1.1929
 7982SOL     OW24844   1.782   4.400   3.761  0.3463 -0.0852  0.6681
 7982SOL    HW124845   1.684   4.414   3.744  0.2690 -1.1846  0.1581
 7982SOL    HW224846   1.833   4.417   3.676  0.5462 -0.0776  0.7896
 7983SOL     OW24847   4.032   2.852   6.958  0.5858 -0.4276 -0.0177
 7983SOL    HW124848   3.972   2.843   7.038  0.0539  1.7783 -0.1104
 7983SOL    HW224849   3.987   2.812   6.878 -0.5108  0.5766  0.0597
 7984SOL     OW24850   6.281   5.045   4.766 -0.3722  0.1847  0.6653
 7984SOL    HW124851   6.334   5.101   4.702  0.4413 -0.6970  0.5294
 7984SOL    HW224852   6.256   5.100   4.845  1.5056  0.4437  1.1352
 7985SOL     OW24853   3.025   1.867   6.182  0.5451  0.2423 -0.2176
 7985SOL    HW124854   3.061   1.785   6.138 -1.4691 -0.3335 -0.9003
 7985SOL    HW224855   3.053   1.947   6.130 -1.8450 -0.4249 -2.7631
 7986SOL     OW24856   0.606   0.058   0.972  0.1098  0.3841 -0.4110
 7986SOL    HW124857   0.610   0.018   1.064 -0.1502  1.9821  0.3418
 7986SOL    HW224858   0.516   0.098   0.957  0.0137 -0.2137 -1.5500
 7987SOL     OW24859   4.607   2.050   6.115  0.6947 -0.4771 -0.6456
 7987SOL    HW124860   4.578   2.118   6.183  1.5041  0.1491 -0.9064
 7987SOL    HW224861   4.685   2.086   6.064  0.6782 -1.3232 -1.2800
 7988SOL     OW24862   1.581   2.390   2.970  0.2851  0.1735 -0.0882
 7988SOL    HW124863   1.484   2.401   2.947  0.3026  0.2153 -0.1428
 7988SOL    HW224864   1.612   2.471   3.020  0.2205  0.0367  0.1734
 7989SOL     OW24865   0.543   1.855   2.503 -0.8729  0.3734  0.4647
 7989SOL    HW124866   0.581   1.799   2.576  2.0958  0.9369 -0.5332
 7989SOL    HW224867   0.522   1.797   2.424 -0.8847  0.2351  0.5694
 7990SOL     OW24868   4.825   3.178   6.422  0.4199  0.1255  0.6756
 7990SOL    HW124869   4.782   3.159   6.511 -0.1031  0.4620  0.4959
 7990SOL    HW224870   4.754   3.187   6.352  0.8010  0.3769  0.3192
 7991SOL     OW24871   4.555   5.316   4.171  0.3154 -0.2819 -0.2779
 7991SOL    HW124872   4.506   5.276   4.249 -1.1472 -0.5320 -1.2999
 7991SOL    HW224873   4.586   5.408   4.195 -0.1823 -0.3272  0.5793
 7992SOL     OW24874   1.255   3.956   4.795  0.0563 -0.0043 -0.6016
 7992SOL    HW124875   1.346   3.927   4.826 -0.9457  0.1805  3.0285
 7992SOL    HW224876   1.249   4.056   4.799  0.3702  0.1894 -3.2750
 7993SOL     OW24877   4.512   0.562   2.445 -0.8554 -0.4925 -0.0642
 7993SOL    HW124878   4.574   0.492   2.409 -0.9065  0.8029 -2.9192
 7993SOL    HW224879   4.559   0.612   2.518  0.2009 -1.6514  0.1034
 7994SOL     OW24880   3.926   6.047   0.234 -0.4226  0.2402 -0.0985
 7994SOL    HW124881   4.011   6.096   0.219 -0.7558  1.0695  0.6691
 7994SOL    HW224882   3.879   6.033   0.147  0.5222 -0.2984 -0.5362
 7995SOL     OW24883   1.797   3.586   5.957  0.2293  0.3883 -0.1661
 7995SOL    HW124884   1.705   3.564   5.991  0.7558  1.2065  1.9687
 7995SOL    HW224885   1.823   3.519   5.887 -2.4279  0.8415 -1.7544
 7996SOL     OW24886   4.363   6.948   0.984 -0.6248 -0.5101 -0.0455
 7996SOL    HW124887   4.351   6.862   0.936  1.4335 -0.8669 -0.0253
 7996SOL    HW224888   4.444   6.995   0.948 -0.4207  0.3480  1.4351
 7997SOL     OW24889   6.165   6.810   5.608 -0.9381 -0.2141 -0.2639
 7997SOL    HW124890   6.262   6.801   5.584 -1.2063  0.2239 -1.6046
 7997SOL    HW224891   6.153   6.792   5.705  0.8343  2.0117  0.4638
 7998SOL     OW24892   4.170   2.806   6.035 -0.1088  0.1546 -0.2728
 7998SOL    HW124893   4.098   2.764   5.981 -0.7927  0.8619  0.0704
 7998SOL    HW224894   4.256   2.804   5.983 -0.5906  0.1922 -1.0886
 7999SOL     OW24895   0.617   6.843   2.429  0.2778 -0.1636  0.0112
 7999SOL    HW124896   0.644   6.798   2.514  1.0405  0.3525  0.0499
 7999SOL    HW224897   0.527   6.809   2.401 -0.8827  1.0069  2.0383
 8000SOL     OW24898   4.215   2.190   2.026 -0.5002 -0.4342  0.8229
 8000SOL    HW124899   4.128   2.150   1.998  1.0465 -3.2536 -0.3735
 8000SOL    HW224900   4.267   2.217   1.946  0.4870 -0.5374  1.4081
 8001SOL     OW24901   6.785   4.053   0.947 -0.2077 -0.6099  0.0959
 8001SOL    HW124902   6.706   4.023   0.999 -1.8039 -1.1811 -2.4987
 8001SOL    HW224903   6.793   3.999   0.864  0.2606  2.2803 -1.8898
 8002SOL     OW24904   4.842   4.550   6.883  0.5892 -0.3242 -0.5573
 8002SOL    HW124905   4.912   4.620   6.873  0.2890  0.0205 -0.2667
 8002SOL    HW224906   4.766   4.570   6.821  1.0343 -1.0635 -1.3624
 8003SOL     OW24907   4.717   4.915   4.731 -0.0907  0.1471  0.0994
 8003SOL    HW124908   4.703   4.930   4.829  2.0464  0.0088  0.4718
 8003SOL    HW224909   4.732   5.002   4.686 -0.1299  0.1385  0.0699
 8004SOL     OW24910   1.260   3.089   1.743  0.8350  0.6389  0.0511
 8004SOL    HW124911   1.194   3.086   1.818  0.1198 -3.6259 -0.5400
 8004SOL    HW224912   1.213   3.075   1.656  2.0231  2.5079 -0.9628
 8005SOL     OW24913   4.869   5.091   3.090  0.3496 -0.7650  0.1169
 8005SOL    HW124914   4.856   5.168   3.027  0.2484 -0.2565  0.7445
 8005SOL    HW224915   4.780   5.062   3.125  0.5549  0.9904  2.3865
 8006SOL     OW24916   5.077   2.321   4.047  0.7867  0.4025 -0.8003
 8006SOL    HW124917   5.056   2.415   4.073 -0.4179 -0.0323 -0.1374
 8006SOL    HW224918   5.044   2.303   3.955  1.8812  0.8923 -1.3095
 8007SOL     OW24919   5.222   2.955   5.981  0.4902 -0.2892 -0.0130
 8007SOL    HW124920   5.210   2.859   6.009 -0.4959 -0.3158 -0.4627
 8007SOL    HW224921   5.192   3.014   6.056 -0.0825 -0.3464 -0.1921
 8008SOL     OW24922   1.584   4.200   0.600 -0.0294  0.0415  0.2401
 8008SOL    HW124923   1.528   4.160   0.673 -1.0595  0.7716 -0.1342
 8008SOL    HW224924   1.527   4.218   0.520  0.5414  1.6532  0.1618
 8009SOL     OW24925   3.217   0.017   0.954 -0.2496 -0.5371 -0.5498
 8009SOL    HW124926   3.198   0.041   0.859 -0.7621 -0.2784 -0.3842
 8009SOL    HW224927   3.160   0.072   1.015 -2.3210 -2.8870 -0.1826
 8010SOL     OW24928   5.809   5.999   2.896  0.3307 -0.3183 -0.1083
 8010SOL    HW124929   5.722   6.014   2.849  1.2185 -1.6210 -2.2927
 8010SOL    HW224930   5.856   6.086   2.907 -1.0851  0.3681  0.8572
 8011SOL     OW24931   0.625   5.743   5.248 -0.0400  0.1061 -0.4910
 8011SOL    HW124932   0.707   5.786   5.285  2.3546 -1.2431 -3.7525
 8011SOL    HW224933   0.548   5.807   5.256  1.3846  1.6641  2.1580
 8012SOL     OW24934   6.148   2.905   5.248 -0.0731  0.1850 -0.4126
 8012SOL    HW124935   6.148   2.807   5.267 -0.4542  0.2042 -0.3138
 8012SOL    HW224936   6.118   2.955   5.330  0.4834  0.4107 -0.3372
 8013SOL     OW24937   4.199   4.759   3.847 -0.8331 -0.2609  0.4577
 8013SOL    HW124938   4.165   4.688   3.786 -0.5145  0.7584 -0.9485
 8013SOL    HW224939   4.254   4.716   3.920 -0.7526 -1.4617 -0.2773
 8014SOL     OW24940   1.295   6.221   6.649  0.3225 -0.2111  0.0625
 8014SOL    HW124941   1.201   6.226   6.616  0.2661  1.2093  0.3755
 8014SOL    HW224942   1.330   6.128   6.637 -0.9387 -0.6262 -0.5342
 8015SOL     OW24943   3.697   1.175   4.830  0.5344 -0.0634  0.3731
 8015SOL    HW124944   3.774   1.182   4.766  1.2211  0.8770  1.2738
 8015SOL    HW224945   3.659   1.266   4.845 -1.0325 -0.5628 -0.3674
 8016SOL     OW24946   1.451   4.778   2.407 -0.0720 -0.2742  0.1494
 8016SOL    HW124947   1.534   4.811   2.451 -0.8033  0.3855  1.0651
 8016SOL    HW224948   1.421   4.845   2.339  0.0369 -0.4354 -0.0619
 8017SOL     OW24949   1.089   0.798   2.472 -0.4322  0.0175 -0.6591
 8017SOL    HW124950   1.095   0.824   2.568 -0.8732  2.3395 -1.1805
 8017SOL    HW224951   0.994   0.803   2.442 -0.3827 -1.2723 -1.0968
 8018SOL     OW24952   1.748   6.296   3.527 -0.4002 -0.0914 -0.4097
 8018SOL    HW124953   1.648   6.295   3.531 -0.4330  1.7640  1.7795
 8018SOL    HW224954   1.778   6.348   3.447 -1.1567 -0.9726 -1.2828
 8019SOL     OW24955   0.617   3.704   3.651 -0.3011 -0.7574 -0.0300
 8019SOL    HW124956   0.687   3.645   3.610  0.8428  0.1102  0.5919
 8019SOL    HW224957   0.633   3.798   3.622 -0.5091 -0.3822  1.0348
 8020SOL     OW24958   2.275   6.196   0.662  0.3423 -0.6336  0.3630
 8020SOL    HW124959   2.234   6.287   0.677  0.8856 -0.5653  1.5456
 8020SOL    HW224960   2.223   6.147   0.593  0.2672  0.7316 -0.5956
 8021SOL     OW24961   6.993   6.124   2.677 -0.1486 -0.0912 -0.1813
 8021SOL    HW124962   6.937   6.066   2.618  1.3073 -1.0468 -0.6900
 8021SOL    HW224963   7.018   6.208   2.627  1.7805 -1.2705 -1.3416
 8022SOL     OW24964   1.233   2.589   5.378  0.3904  0.9191  0.2862
 8022SOL    HW124965   1.304   2.527   5.345  0.4159  0.9313  0.3181
 8022SOL    HW224966   1.259   2.683   5.360  0.6598  0.9517  0.8354
 8023SOL     OW24967   2.815   1.968   1.823 -0.2181 -0.3983 -0.1827
 8023SOL    HW124968   2.802   2.064   1.799 -1.0106 -0.5366 -0.3229
 8023SOL    HW224969   2.752   1.911   1.770 -0.1005 -0.9538  0.2590
 8024SOL     OW24970   3.584   6.020   4.580 -0.6210 -0.1285 -0.0477
 8024SOL    HW124971   3.616   5.926   4.568 -0.1793  0.1872 -1.6265
 8024SOL    HW224972   3.518   6.042   4.508 -1.4124  0.4951  0.8408
 8025SOL     OW24973   6.103   2.402   2.134 -0.1859 -0.3167 -0.0350
 8025SOL    HW124974   6.114   2.304   2.115 -0.2847  0.1278 -2.6656
 8025SOL    HW224975   6.181   2.434   2.187  2.1249 -1.0030 -2.7941
 8026SOL     OW24976   0.899   2.431   1.600  0.7673 -0.1068  0.1579
 8026SOL    HW124977   0.915   2.490   1.679 -0.2983 -0.6882  0.8360
 8026SOL    HW224978   0.835   2.358   1.625  2.1482 -1.6524 -0.6060
 8027SOL     OW24979   0.802   0.924   2.139 -0.3717  0.4152  0.1237
 8027SOL    HW124980   0.707   0.894   2.129 -0.2418 -0.0220  0.1523
 8027SOL    HW224981   0.842   0.881   2.220  0.7656 -1.8963 -1.5400
 8028SOL     OW24982   1.194   3.346   1.192 -0.1129  0.3515 -0.4081
 8028SOL    HW124983   1.134   3.394   1.256  0.1682  1.6001 -1.0554
 8028SOL    HW224984   1.239   3.412   1.132  1.4592 -0.5907 -0.3410
 8029SOL     OW24985   1.737   3.441   5.264  0.2908  0.1593 -0.1889
 8029SOL    HW124986   1.732   3.342   5.250  3.8962  0.0212 -1.4556
 8029SOL    HW224987   1.757   3.461   5.359  0.1071 -0.3417 -0.0424
 8030SOL     OW24988   1.931   5.607   2.621  0.5596 -0.5921 -0.3093
 8030SOL    HW124989   2.026   5.637   2.607  0.3791 -0.4817 -1.3583
 8030SOL    HW224990   1.927   5.508   2.614  0.2340 -0.4646 -2.7780
 8031SOL     OW24991   5.466   1.192   5.608  0.5952 -0.3696  1.0382
 8031SOL    HW124992   5.490   1.245   5.689 -2.0009  1.3081  0.8376
 8031SOL    HW224993   5.437   1.100   5.636 -1.3841  0.5498  2.2319
 8032SOL     OW24994   0.799   6.456   0.169 -0.2248 -0.0037  0.3010
 8032SOL    HW124995   0.763   6.480   0.259  0.7321  1.1223  0.4082
 8032SOL    HW224996   0.890   6.497   0.157  0.3916 -1.5096 -0.5313
 8033SOL     OW24997   3.206   5.191   6.551 -0.0213  0.0557 -0.3046
 8033SOL    HW124998   3.297   5.215   6.516 -0.5212  1.5753 -0.6681
 8033SOL    HW224999   3.145   5.173   6.475 -0.3447  0.3363 -0.1134
 8034SOL     OW25000   0.493   3.976   2.310  0.9153 -0.1016 -0.6642
 8034SOL    HW125001   0.505   4.070   2.278 -2.4153  0.2202 -1.3385
 8034SOL    HW225002   0.466   3.918   2.233  0.9031 -1.1565  0.1153
 8035SOL     OW25003   6.891   3.004   0.246 -0.0961  0.4951 -0.6889
 8035SOL    HW125004   6.946   2.980   0.166  0.3403 -1.5396  0.1489
 8035SOL    HW225005   6.938   2.973   0.328 -1.4615  0.7713  0.2190
 8036SOL     OW25006   2.991   1.014   3.058  0.5585  0.2733  0.5373
 8036SOL    HW125007   2.929   1.054   3.126  1.6162  1.5772  0.7802
 8036SOL    HW225008   3.063   1.080   3.036  0.2240 -0.0943 -1.9141
 8037SOL     OW25009   1.478   4.789   5.638  0.0258  0.0247  0.0570
 8037SOL    HW125010   1.439   4.712   5.688 -0.7251  0.1633 -0.3091
 8037SOL    HW225011   1.553   4.757   5.580  0.0002 -0.3554  0.2314
 8038SOL     OW25012   2.179   1.861   6.164  0.2657 -0.0267 -0.0730
 8038SOL    HW125013   2.114   1.827   6.232  1.5630  1.9722  2.3401
 8038SOL    HW225014   2.271   1.862   6.204  1.3343  0.0031 -2.3720
 8039SOL     OW25015   6.137   0.514   5.288  1.0631  0.2058  0.1608
 8039SOL    HW125016   6.145   0.467   5.200  0.8485 -0.2187  0.3604
 8039SOL    HW225017   6.225   0.555   5.312  1.4003 -0.5119  0.2043
 8040SOL     OW25018   5.453   4.644   5.036 -0.5258 -0.4410 -0.1631
 8040SOL    HW125019   5.516   4.721   5.044  0.0106 -0.6892 -1.6249
 8040SOL    HW225020   5.361   4.674   5.058 -0.2618  0.5257 -0.3113
 8041SOL     OW25021   0.282   0.068   6.033 -0.1579 -0.1334  0.0669
 8041SOL    HW125022   0.215   0.142   6.023  1.6102  1.4134 -1.1429
 8041SOL    HW225023   0.254  -0.010   5.977 -0.5508  0.8075 -1.0843
 8042SOL     OW25024   4.640   1.457   1.095 -0.6059 -0.1314 -0.3407
 8042SOL    HW125025   4.612   1.404   1.015 -0.5232 -0.0941 -0.3949
 8042SOL    HW225026   4.739   1.473   1.092 -0.3545 -1.3976  0.5334
 8043SOL     OW25027   3.457   1.307   0.696 -0.1303 -0.3965 -0.0260
 8043SOL    HW125028   3.377   1.280   0.642 -0.6885  0.8382  0.1431
 8043SOL    HW225029   3.533   1.328   0.634 -0.4937  0.1547 -0.2979
 8044SOL     OW25030   2.445   1.041   5.456  0.0116  0.3764 -0.1720
 8044SOL    HW125031   2.388   1.012   5.380 -0.3377 -1.3270  0.6957
 8044SOL    HW225032   2.536   1.002   5.447  0.2526  0.9236 -0.1766
 8045SOL     OW25033   1.544   6.971   0.824 -0.0366  0.2067  0.4088
 8045SOL    HW125034   1.547   6.902   0.752  1.0635  0.5491  0.1110
 8045SOL    HW225035   1.452   7.011   0.827 -0.2950 -0.3108 -0.3241
 8046SOL     OW25036   3.181   6.104   1.291 -0.4129 -0.6307 -0.2022
 8046SOL    HW125037   3.127   6.067   1.367 -1.2311  2.3940  0.8341
 8046SOL    HW225038   3.273   6.063   1.292 -0.5012 -0.8897  2.2564
 8047SOL     OW25039   4.994   4.566   0.649  0.4679  0.2310  0.1581
 8047SOL    HW125040   4.951   4.604   0.731  0.6263  0.6715  0.0383
 8047SOL    HW225041   4.951   4.604   0.567  0.5201  0.0312  0.0351
 8048SOL     OW25042   1.979   0.086   0.738  0.1681  0.6475  0.5881
 8048SOL    HW125043   1.898   0.126   0.694  0.2587 -0.0008 -0.1940
 8048SOL    HW225044   2.029   0.157   0.788  0.5266  1.6139 -1.0753
 8049SOL     OW25045   4.847   4.858   3.417  0.6138 -0.4169  0.7602
 8049SOL    HW125046   4.860   4.947   3.461 -0.2084  1.1656 -1.9380
 8049SOL    HW225047   4.936   4.817   3.398  1.2907  1.8020 -1.5081
 8050SOL     OW25048   3.718   2.987   0.538  0.1706 -0.2930 -0.2926
 8050SOL    HW125049   3.697   2.925   0.463 -1.5583  1.1993 -1.1149
 8050SOL    HW225050   3.649   2.977   0.610 -0.2571  0.7942 -0.5293
 8051SOL     OW25051   3.250   1.489   2.464 -0.6618  0.4409 -0.0656
 8051SOL    HW125052   3.266   1.511   2.560 -1.4847 -0.5765  0.3225
 8051SOL    HW225053   3.204   1.401   2.457 -0.0831  0.2217 -1.4319
 8052SOL     OW25054   5.549   7.002   6.355  0.6158  0.5418  0.2491
 8052SOL    HW125055   5.541   6.907   6.385 -2.8534  0.9462  0.9550
 8052SOL    HW225056   5.540   7.006   6.255  2.7975  0.0622 -0.0386
 8053SOL     OW25057   2.232   2.987   4.346 -0.0916 -0.0267  0.3176
 8053SOL    HW125058   2.212   3.080   4.376 -2.7808 -0.8588  1.4359
 8053SOL    HW225059   2.277   2.938   4.420  2.0220  0.5311 -0.5373
 8054SOL     OW25060   0.946   5.149   6.378  0.0864 -0.0801  0.0432
 8054SOL    HW125061   0.914   5.200   6.458 -0.5201 -0.9578  0.3761
 8054SOL    HW225062   0.873   5.089   6.345 -0.1468  1.2519 -2.0174
 8055SOL     OW25063   5.152   4.454   0.161  0.3900 -0.0188  0.8989
 8055SOL    HW125064   5.210   4.378   0.191 -1.3321 -1.0080  1.8579
 8055SOL    HW225065   5.139   4.448   0.062  2.7277  0.8391  0.4878
 8056SOL     OW25066   6.987   6.436   2.635  0.0506 -0.4299 -0.4870
 8056SOL    HW125067   7.002   6.436   2.734 -2.0099 -1.4453 -0.1151
 8056SOL    HW225068   7.001   6.529   2.600 -0.8483  0.3577  1.0793
 8057SOL     OW25069   0.689   0.889   6.889 -0.6302 -0.7790  0.1783
 8057SOL    HW125070   0.751   0.845   6.824  0.2740 -0.0639  0.5479
 8057SOL    HW225071   0.658   0.976   6.851 -1.6086 -1.2336 -0.1042
 8058SOL     OW25072   0.152   2.308   4.958  0.6639  0.1011 -1.0996
 8058SOL    HW125073   0.209   2.251   5.016 -1.3560 -1.5488 -0.6172
 8058SOL    HW225074   0.065   2.262   4.941 -0.8024  2.7402 -1.2932
 8059SOL     OW25075   5.687   2.770   5.993  0.2449  0.2945 -0.3593
 8059SOL    HW125076   5.617   2.838   5.972 -2.0595 -0.8769  2.6569
 8059SOL    HW225077   5.721   2.786   6.086  0.2567 -2.0855  0.1019
 8060SOL     OW25078   0.640   6.662   1.766 -0.1657 -0.0231  0.5102
 8060SOL    HW125079   0.729   6.708   1.771 -0.6027  0.7620  1.6408
 8060SOL    HW225080   0.568   6.731   1.761 -0.6755 -0.6530 -2.2432
 8061SOL     OW25081   3.833   5.191   6.459 -0.0531  0.0717 -0.3244
 8061SOL    HW125082   3.900   5.118   6.446  0.1291  0.1281  0.2665
 8061SOL    HW225083   3.792   5.183   6.550  0.0377  0.7558 -0.2194
 8062SOL     OW25084   0.759   5.935   6.613 -0.4423  0.4008 -0.5379
 8062SOL    HW125085   0.673   5.922   6.662 -0.3177 -0.9185 -0.6533
 8062SOL    HW225086   0.741   5.945   6.515 -0.3979 -0.8440 -0.6786
 8063SOL     OW25087   3.127   1.429   4.304 -0.2717 -0.2872  0.8139
 8063SOL    HW125088   3.073   1.513   4.310 -0.2577 -0.2941  1.0788
 8063SOL    HW225089   3.145   1.395   4.397  0.1197 -0.3303  0.7223
 8064SOL     OW25090   0.829   2.504   6.937  0.5999  0.2510 -0.1859
 8064SOL    HW125091   0.746   2.464   6.977 -1.0600  2.4202 -1.2933
 8064SOL    HW225092   0.876   2.435   6.883 -1.2998 -0.6641 -0.7587
 8065SOL     OW25093   4.233   6.380   1.755  0.3760 -0.2797 -0.0230
 8065SOL    HW125094   4.194   6.304   1.704  1.0346 -0.2426 -0.6016
 8065SOL    HW225095   4.331   6.363   1.770  0.7864  0.9198 -1.0910
 8066SOL     OW25096   0.170   6.321   4.052  0.0859 -0.3203  0.6665
 8066SOL    HW125097   0.210   6.408   4.081  0.7270 -0.5290  0.4389
 8066SOL    HW225098   0.162   6.260   4.130  1.3378 -0.7014  0.5291
 8067SOL     OW25099   4.110   4.900   0.822 -0.3410 -0.8942 -0.4984
 8067SOL    HW125100   4.179   4.973   0.822 -0.8776 -0.3748 -0.1764
 8067SOL    HW225101   4.134   4.832   0.891 -1.4017  0.5340  1.3786
 8068SOL     OW25102   4.108   2.355   6.975 -0.1709  0.6260  0.2188
 8068SOL    HW125103   4.060   2.349   7.062  0.3177 -0.0563  0.4475
 8068SOL    HW225104   4.179   2.425   6.980  0.1287  0.3040  0.5058
 8069SOL     OW25105   2.919   3.420   0.275  0.3433  0.2447  0.1390
 8069SOL    HW125106   2.929   3.382   0.183  0.9767 -1.5370  0.8922
 8069SOL    HW225107   2.939   3.349   0.343 -1.7971  1.0045  1.6907
 8070SOL     OW25108   1.607   2.036   3.275  0.0656 -0.4471  0.3068
 8070SOL    HW125109   1.634   2.071   3.185 -1.9961  0.1121 -0.1289
 8070SOL    HW225110   1.688   2.033   3.334  1.5012 -0.9206 -1.5570
 8071SOL     OW25111   3.703   6.874   6.150  0.0701 -0.6153  0.2454
 8071SOL    HW125112   3.764   6.845   6.223 -0.2868  0.2580  0.9149
 8071SOL    HW225113   3.694   6.974   6.151  0.6437 -0.5083 -1.4757
 8072SOL     OW25114   4.690   2.742   6.502 -0.3154  0.1897  0.4291
 8072SOL    HW125115   4.671   2.832   6.542 -0.1981 -0.8592  3.0056
 8072SOL    HW225116   4.777   2.708   6.536 -0.2484 -0.8159 -0.6892
 8073SOL     OW25117   2.847   1.637   4.746 -0.2658  0.4137 -0.3590
 8073SOL    HW125118   2.901   1.691   4.811 -0.3761  1.1557 -0.8738
 8073SOL    HW225119   2.909   1.590   4.683 -0.1910  0.4281 -0.2971
 8074SOL     OW25120   1.449   6.866   0.501 -0.0415 -0.0470 -0.0131
 8074SOL    HW125121   1.428   6.957   0.537  0.5714 -0.1042  0.5097
 8074SOL    HW225122   1.515   6.874   0.427 -1.5770  0.1027 -1.4080
 8075SOL     OW25123   0.696   5.218   2.016 -0.9159  0.6235 -0.2131
 8075SOL    HW125124   0.705   5.120   2.034 -0.4263  0.7371  0.1916
 8075SOL    HW225125   0.771   5.248   1.958  0.5756  1.2870  1.9377
 8076SOL     OW25126   5.268   2.237   5.230 -0.0362 -0.4943 -0.3675
 8076SOL    HW125127   5.321   2.228   5.314 -1.1535 -0.5522  0.3585
 8076SOL    HW225128   5.190   2.174   5.234 -0.4830  0.0039 -1.1434
 8077SOL     OW25129   5.543   3.618   2.942 -0.5206  0.0608  0.2956
 8077SOL    HW125130   5.459   3.619   2.997 -0.8834  0.8083 -0.2543
 8077SOL    HW225131   5.544   3.535   2.885 -0.0210 -0.8460  1.5811
 8078SOL     OW25132   0.102   1.668   1.039  0.5588 -0.2347  0.7283
 8078SOL    HW125133   0.132   1.642   0.947  0.0404  1.0299  0.1649
 8078SOL    HW225134   0.057   1.590   1.083  1.4839 -1.0818  0.2119
 8079SOL     OW25135   2.153   4.492   5.571 -0.2830  0.3227 -0.2800
 8079SOL    HW125136   2.219   4.563   5.548 -0.6832  0.8051  0.0602
 8079SOL    HW225137   2.121   4.449   5.486  1.4031 -0.8035 -0.4119
 8080SOL     OW25138   3.195   6.732   4.605  0.6691  0.1092  0.3993
 8080SOL    HW125139   3.154   6.661   4.548  1.8459  0.7731 -1.3800
 8080SOL    HW225140   3.139   6.815   4.602  0.8074  0.1921  0.0682
 8081SOL     OW25141   1.499   2.951   5.411  0.1365 -0.3104  0.2600
 8081SOL    HW125142   1.512   3.049   5.403  1.3547 -0.5459 -1.0035
 8081SOL    HW225143   1.543   2.918   5.495 -0.7454  0.2851  0.9646
 8082SOL     OW25144   2.469   5.478   3.785  0.2591  0.0945 -0.0245
 8082SOL    HW125145   2.467   5.500   3.883  1.4594 -0.8693  0.2457
 8082SOL    HW225146   2.388   5.423   3.762  0.5893 -0.7302  0.7142
 8083SOL     OW25147   6.969   0.921   1.634 -0.4088 -0.3315 -0.3590
 8083SOL    HW125148   6.891   0.907   1.573 -0.7810  0.0459  0.0224
 8083SOL    HW225149   6.941   0.900   1.728  0.4544 -1.9941 -0.4238
 8084SOL     OW25150   4.013   5.935   3.457  0.0914  0.1753  0.5465
 8084SOL    HW125151   3.960   5.932   3.542 -0.8178  0.4421  0.0100
 8084SOL    HW225152   4.056   5.846   3.441  0.7773  0.3078  1.5858
 8085SOL     OW25153   4.160   0.559   4.387  0.2835  0.3681  0.2895
 8085SOL    HW125154   4.094   0.633   4.398  1.3691  1.2701  0.9379
 8085SOL    HW225155   4.131   0.480   4.442 -0.6084  0.4833  0.0019
 8086SOL     OW25156   2.994   5.039   2.818  0.1269 -0.9397  0.0079
 8086SOL    HW125157   2.933   4.967   2.782 -1.4662  0.9265 -1.2157
 8086SOL    HW225158   3.059   5.066   2.747  0.3285 -0.7556  0.2604
 8087SOL     OW25159   2.282   1.504   4.661  0.0436  0.4247 -0.4013
 8087SOL    HW125160   2.323   1.548   4.741  1.1210  0.6731 -1.0650
 8087SOL    HW225161   2.210   1.442   4.691  0.9737 -0.1071  0.8282
 8088SOL     OW25162   5.041   2.087   0.624 -0.4675  0.6219 -0.4615
 8088SOL    HW125163   5.073   2.181   0.613 -1.0936  1.0894  1.4393
 8088SOL    HW225164   4.957   2.086   0.679  1.5994 -1.2854  2.9928
 8089SOL     OW25165   1.869   4.718   2.918  0.4662  0.0501  0.2055
 8089SOL    HW125166   1.801   4.692   2.849 -0.9791 -0.6290  1.8116
 8089SOL    HW225167   1.927   4.790   2.881 -0.3353 -0.1835 -1.6642
 8090SOL     OW25168   2.319   1.762   3.110  0.2200 -0.1242 -0.1790
 8090SOL    HW125169   2.361   1.684   3.063 -1.2521 -1.1182  0.0974
 8090SOL    HW225170   2.365   1.846   3.082  1.4689 -1.0230 -0.9259
 8091SOL     OW25171   0.646   1.896   4.109 -0.2982 -0.6707 -0.3659
 8091SOL    HW125172   0.688   1.869   4.022 -0.1657 -0.6141 -0.3194
 8091SOL    HW225173   0.557   1.851   4.118  0.0641 -1.3625 -0.1355
 8092SOL     OW25174   3.071   6.532   0.640  0.3901  0.3627  0.1859
 8092SOL    HW125175   3.136   6.524   0.564  1.2786 -0.3073  0.9896
 8092SOL    HW225176   3.116   6.575   0.718 -1.1268  3.1154 -0.3235
 8093SOL     OW25177   4.828   5.862   6.958  0.8179  0.1463  0.3400
 8093SOL    HW125178   4.816   5.867   6.859  1.4434 -2.0957  0.1149
 8093SOL    HW225179   4.798   5.773   6.992 -0.7430  1.3468  2.4149
 8094SOL     OW25180   4.780   0.884   1.971 -0.0312  0.3660  0.6822
 8094SOL    HW125181   4.753   0.961   1.913  1.4770  1.1225  0.9286
 8094SOL    HW225182   4.699   0.845   2.015 -1.1144  0.3443 -1.1940
 8095SOL     OW25183   2.693   6.709   0.275 -0.5567 -0.1169 -0.7566
 8095SOL    HW125184   2.771   6.770   0.259  0.4340 -1.3101 -0.5554
 8095SOL    HW225185   2.699   6.630   0.216  0.2168 -1.8802  1.5230
 8096SOL     OW25186   1.143   2.390   0.550 -0.1645  0.4249  0.0493
 8096SOL    HW125187   1.155   2.309   0.607  0.5718 -0.3138 -1.1019
 8096SOL    HW225188   1.173   2.471   0.600  2.4006 -0.4353  0.0753
 8097SOL     OW25189   4.525   1.194   5.288  0.1007 -0.0776  0.1851
 8097SOL    HW125190   4.494   1.113   5.238 -0.8626  0.3212  0.1074
 8097SOL    HW225191   4.565   1.166   5.375  1.1716 -0.7339 -0.5041
 8098SOL     OW25192   1.142   2.251   2.213  0.2454 -0.1435  0.3547
 8098SOL    HW125193   1.193   2.222   2.294 -1.9959 -2.9807  0.9296
 8098SOL    HW225194   1.046   2.263   2.237 -0.1889  0.5624 -1.5662
 8099SOL     OW25195   3.018   3.607   1.269 -0.0745  0.5334 -0.2967
 8099SOL    HW125196   2.956   3.622   1.193 -0.0913  1.7928 -0.0581
 8099SOL    HW225197   2.977   3.644   1.353  1.2963  2.1455 -0.2783
 8100SOL     OW25198   3.996   6.607   0.227 -0.0030  0.4754 -0.3266
 8100SOL    HW125199   4.018   6.558   0.312  1.7346 -0.9374 -1.5150
 8100SOL    HW225200   4.005   6.706   0.242  1.7550  0.1863  0.7708
 8101SOL     OW25201   6.607   1.272   4.480  0.1185  0.8078 -0.3968
 8101SOL    HW125202   6.688   1.329   4.490  1.2144 -0.0579 -3.1713
 8101SOL    HW225203   6.570   1.283   4.388 -0.6879 -1.5613 -0.4343
 8102SOL     OW25204   2.641   0.015   0.133 -0.6519  0.3392  0.0747
 8102SOL    HW125205   2.728  -0.027   0.105 -1.3227 -1.3536  0.3819
 8102SOL    HW225206   2.571  -0.056   0.140 -1.3884  1.1901  2.5907
 8103SOL     OW25207   3.332   1.748   2.998  0.2779  0.2887 -0.8529
 8103SOL    HW125208   3.236   1.770   3.009  0.1580  0.5251 -2.1995
 8103SOL    HW225209   3.364   1.778   2.908  2.0788  1.8529  0.2367
 8104SOL     OW25210   3.797   3.986   3.480  0.0557 -0.1829  0.8357
 8104SOL    HW125211   3.874   4.038   3.442 -1.7857  0.4412 -2.4105
 8104SOL    HW225212   3.737   3.956   3.406 -2.7458 -0.8617  3.1910
 8105SOL     OW25213   3.238   0.826   5.298  0.4018 -0.0034 -0.6187
 8105SOL    HW125214   3.163   0.848   5.359  1.5058  0.5336  0.5972
 8105SOL    HW225215   3.204   0.821   5.204 -1.6510 -2.4734  0.1627
 8106SOL     OW25216   5.181   6.040   1.221 -0.4124  0.4752  0.0693
 8106SOL    HW125217   5.189   6.065   1.125 -0.4686 -1.4082 -0.4517
 8106SOL    HW225218   5.204   5.943   1.233  1.3176  1.0693  2.2099
 8107SOL     OW25219   2.065   3.800   0.377 -0.3897  0.4377  0.4047
 8107SOL    HW125220   2.020   3.725   0.425 -0.8742  0.6292  0.2574
 8107SOL    HW225221   2.147   3.766   0.332 -0.2887  0.1224  0.8257
 8108SOL     OW25222   3.547   1.291   6.670 -0.1601 -0.0165  0.6214
 8108SOL    HW125223   3.621   1.246   6.720 -0.6396 -1.8370 -0.2169
 8108SOL    HW225224   3.491   1.221   6.624 -1.4601  1.4162 -0.0447
 8109SOL     OW25225   2.101   4.657   6.581 -0.1278  0.3132 -0.3283
 8109SOL    HW125226   2.025   4.721   6.596  0.9780  1.6557 -0.2949
 8109SOL    HW225227   2.124   4.655   6.483 -1.0172 -1.0725 -0.5325
 8110SOL     OW25228   2.375   6.565   6.618 -0.3149  0.1682 -0.3517
 8110SOL    HW125229   2.316   6.645   6.605 -1.8157 -0.4341  2.0450
 8110SOL    HW225230   2.407   6.562   6.713  0.3089 -1.6936 -0.5718
 8111SOL     OW25231   6.160   1.495   2.401 -0.2777 -0.5077  1.2003
 8111SOL    HW125232   6.064   1.471   2.386 -0.0294 -0.7894 -0.0445
 8111SOL    HW225233   6.198   1.533   2.317 -0.1939  2.7828  2.5677
 8112SOL     OW25234   2.179   6.544   4.808  0.2360  0.6750 -0.3170
 8112SOL    HW125235   2.151   6.457   4.848  0.7502 -0.2544 -1.9240
 8112SOL    HW225236   2.112   6.615   4.832  0.6890  0.2820  2.4525
 8113SOL     OW25237   5.546   6.236   2.300 -0.0451 -0.3962  0.8797
 8113SOL    HW125238   5.473   6.286   2.254  0.9349  0.6335  0.4078
 8113SOL    HW225239   5.557   6.146   2.257  0.0331  0.0724 -0.1005
 8114SOL     OW25240   6.265   1.826   6.285 -0.0814 -0.5276  0.1856
 8114SOL    HW125241   6.255   1.899   6.352  1.5346  0.7202 -0.8683
 8114SOL    HW225242   6.196   1.836   6.213 -0.4024 -0.5616  0.4843
 8115SOL     OW25243   1.655   2.313   1.924  0.1568 -0.2772 -0.2675
 8115SOL    HW125244   1.652   2.364   2.011 -0.2392 -1.2266  0.2889
 8115SOL    HW225245   1.750   2.305   1.894  0.6169 -2.2242  1.4896
 8116SOL     OW25246   5.943   0.677   3.071 -0.1072  0.2803 -0.1731
 8116SOL    HW125247   5.874   0.607   3.054  0.3377 -0.6828  1.7471
 8116SOL    HW225248   6.012   0.642   3.135 -0.3909  2.7347  1.6510
 8117SOL     OW25249   2.234   1.532   1.975  0.3244  0.3445  0.3060
 8117SOL    HW125250   2.320   1.534   2.027  1.4871 -0.4377 -1.4827
 8117SOL    HW225251   2.215   1.438   1.946  0.2977  0.8746 -1.5383
 8118SOL     OW25252   1.014   5.261   3.607 -0.1068 -0.2537  0.2616
 8118SOL    HW125253   1.055   5.177   3.572 -0.6298 -0.1507 -0.6290
 8118SOL    HW225254   0.914   5.256   3.594 -0.2109  0.1978  0.8694
 8119SOL     OW25255   5.334   0.727   0.405  0.0422  0.3172  0.4896
 8119SOL    HW125256   5.419   0.756   0.361 -0.3302 -1.0942 -1.2519
 8119SOL    HW225257   5.350   0.642   0.456 -0.9254 -1.9141 -2.6297
 8120SOL     OW25258   5.726   5.686   4.657  0.3072 -0.1610 -0.3032
 8120SOL    HW125259   5.748   5.715   4.564  0.4822  0.6334 -0.0154
 8120SOL    HW225260   5.770   5.747   4.722 -0.9625  0.1341  0.3049
 8121SOL     OW25261   5.296   5.292   1.089 -0.6346 -0.2028  0.1156
 8121SOL    HW125262   5.302   5.342   1.003 -1.2612 -0.6258 -0.1800
 8121SOL    HW225263   5.331   5.199   1.077 -1.4341 -0.5127  0.1076
 8122SOL     OW25264   3.379   4.362   0.385  0.2352 -0.5009  0.8614
 8122SOL    HW125265   3.437   4.443   0.385 -1.1060  0.4903  0.7882
 8122SOL    HW225266   3.330   4.355   0.472  0.8474 -1.6237  1.1324
 8123SOL     OW25267   0.886   1.812   4.228  0.6085 -0.3938  0.2933
 8123SOL    HW125268   0.915   1.875   4.301  2.1032  0.4059 -0.9302
 8123SOL    HW225269   0.817   1.856   4.171  1.6233  0.1758 -0.5370
 8124SOL     OW25270   3.039   6.934   2.200 -0.6671 -0.1806 -0.1171
 8124SOL    HW125271   3.009   7.012   2.256 -2.8623  0.1884 -1.6795
 8124SOL    HW225272   2.968   6.864   2.201  0.3585 -1.2462 -0.4821
 8125SOL     OW25273   4.026   4.229   5.950  0.8270 -0.0324  0.3472
 8125SOL    HW125274   4.041   4.303   6.016 -0.9163 -0.0691  0.8516
 8125SOL    HW225275   3.957   4.258   5.883  2.0556 -0.2621 -1.0584
 8126SOL     OW25276   5.425   6.778   5.948 -0.0607 -0.3543 -0.7214
 8126SOL    HW125277   5.444   6.869   5.910  1.3288  0.1777  1.0954
 8126SOL    HW225278   5.460   6.708   5.886 -1.1353  0.3114 -2.1416
 8127SOL     OW25279   1.206   3.543   2.133  0.6009 -0.3347  0.5077
 8127SOL    HW125280   1.283   3.499   2.177  1.1064 -0.5791 -0.5796
 8127SOL    HW225281   1.129   3.547   2.196  0.3762 -3.1867  0.5534
 8128SOL     OW25282   3.952   4.419   6.540  0.2384  0.3239 -0.3592
 8128SOL    HW125283   3.932   4.403   6.637  1.2658  0.3371 -0.1354
 8128SOL    HW225284   3.876   4.385   6.484 -0.1137 -0.1948  0.4212
 8129SOL     OW25285   6.212   0.520   3.495  0.6145  0.5521  0.1263
 8129SOL    HW125286   6.297   0.466   3.493 -0.2287 -0.8237 -0.5677
 8129SOL    HW225287   6.226   0.602   3.550  1.6439 -0.9501  2.2928
 8130SOL     OW25288   0.041   4.492   2.467  0.2244  0.0566  0.1857
 8130SOL    HW125289  -0.005   4.409   2.499  0.9714 -0.5740 -0.3334
 8130SOL    HW225290   0.007   4.516   2.376  0.1599  0.2005  0.2477
 8131SOL     OW25291   6.898   3.956   3.717  0.3711 -0.2507 -0.1043
 8131SOL    HW125292   6.965   4.024   3.747  1.5494 -1.7111  0.6610
 8131SOL    HW225293   6.885   3.963   3.618  2.7510 -0.8550 -0.5105
 8132SOL     OW25294   1.745   1.296   0.773 -0.1642  0.3476 -0.1652
 8132SOL    HW125295   1.664   1.284   0.830 -0.1690  1.3117  0.0454
 8132SOL    HW225296   1.776   1.391   0.778  0.6234  0.1332 -0.7225
 8133SOL     OW25297   3.686   1.152   5.923 -0.3821 -0.2864  0.1212
 8133SOL    HW125298   3.609   1.206   5.889 -0.6020  0.8685  2.2805
 8133SOL    HW225299   3.758   1.213   5.956 -0.2460 -1.2710  1.7922
 8134SOL     OW25300   3.414   4.844   1.479 -0.1986  0.1921  0.0886
 8134SOL    HW125301   3.433   4.775   1.409  1.3160  0.7028 -0.0375
 8134SOL    HW225302   3.403   4.933   1.436  2.0012  0.7399  0.5434
 8135SOL     OW25303   4.887   6.858   2.809 -0.0407 -0.2563 -0.2783
 8135SOL    HW125304   4.975   6.903   2.795  0.5128 -1.3992 -0.5745
 8135SOL    HW225305   4.862   6.864   2.906 -0.2236  1.0927 -0.3900
 8136SOL     OW25306   4.312   2.149   6.489  0.2216  0.0291 -0.2170
 8136SOL    HW125307   4.217   2.163   6.517 -0.2648 -0.6616 -1.4645
 8136SOL    HW225308   4.369   2.138   6.570 -0.6241  1.2632  0.5737
 8137SOL     OW25309   6.452   6.142   5.011  0.8181  0.0439  0.5720
 8137SOL    HW125310   6.387   6.141   5.087  0.7421 -0.1770  0.5060
 8137SOL    HW225311   6.475   6.048   4.986  0.4416  0.1030 -0.0157
 8138SOL     OW25312   0.075   2.420   2.321 -0.1491  0.5874  1.1849
 8138SOL    HW125313   0.161   2.416   2.270 -0.2947 -0.5690  1.0050
 8138SOL    HW225314   0.058   2.514   2.351  1.2949  0.7799  1.4358
 8139SOL     OW25315   0.020   6.415   0.718  0.0313  0.0320  0.0742
 8139SOL    HW125316   0.096   6.458   0.669  0.5887 -1.1921 -0.1848
 8139SOL    HW225317  -0.027   6.350   0.658 -0.1997 -0.4083  0.7074
 8140SOL     OW25318   0.256   5.151   5.866  0.2796 -0.1413 -0.1116
 8140SOL    HW125319   0.242   5.222   5.797  1.3146 -0.7539 -0.9955
 8140SOL    HW225320   0.171   5.102   5.882 -0.6981  1.8632  1.2095
 8141SOL     OW25321   6.680   5.930   2.886  0.0527 -0.0544 -0.7970
 8141SOL    HW125322   6.651   5.842   2.924  1.0884  0.3202  0.9612
 8141SOL    HW225323   6.657   5.934   2.789 -2.9121 -0.9892 -0.2284
 8142SOL     OW25324   1.707   5.648   4.137  0.3542 -0.5640 -0.2025
 8142SOL    HW125325   1.803   5.660   4.159 -0.0993 -0.6295  2.0131
 8142SOL    HW225326   1.683   5.551   4.143  0.0728 -0.5059 -0.3457
 8143SOL     OW25327   4.198   0.367   0.949 -0.7326  0.6985  0.6875
 8143SOL    HW125328   4.285   0.412   0.969 -0.5390  0.4699  0.3680
 8143SOL    HW225329   4.197   0.277   0.991 -0.8626  0.7478  0.7899
 8144SOL     OW25330   0.834   3.705   1.354 -0.5050 -0.6130 -0.0987
 8144SOL    HW125331   0.885   3.786   1.327  0.6827 -1.2216  0.2708
 8144SOL    HW225332   0.836   3.638   1.281  0.3122 -1.1345  0.3870
 8145SOL     OW25333   0.613   0.879   5.089  0.5513  1.1511 -0.0811
 8145SOL    HW125334   0.559   0.963   5.078 -1.7106 -0.2071  0.1142
 8145SOL    HW225335   0.639   0.844   4.999 -1.2452  0.4059 -0.3433
 8146SOL     OW25336   1.042   2.126   6.480  0.0236 -0.0218  0.3345
 8146SOL    HW125337   0.984   2.045   6.491 -0.6982  0.4495  0.0477
 8146SOL    HW225338   0.985   2.206   6.466  0.6395  0.8453  2.3448
 8147SOL     OW25339   2.163   6.321   5.686 -0.1787 -0.2797  0.1153
 8147SOL    HW125340   2.098   6.347   5.615 -0.1620  1.4738  0.6842
 8147SOL    HW225341   2.117   6.320   5.775  0.0434 -1.4099  0.2308
 8148SOL     OW25342   4.693   6.874   5.310  0.6574  0.0062  0.2849
 8148SOL    HW125343   4.667   6.816   5.388 -1.0465  1.2905  0.7410
 8148SOL    HW225344   4.715   6.965   5.343 -0.7950  0.7773 -0.7693
 8149SOL     OW25345   5.116   0.381   0.928  0.1988 -0.1569  0.3580
 8149SOL    HW125346   5.086   0.420   1.015  1.4546  0.1826  0.6541
 8149SOL    HW225347   5.143   0.286   0.942 -0.3606 -0.3544  0.1591
 8150SOL     OW25348   3.718   2.539   5.324 -0.1020 -0.5690  0.1569
 8150SOL    HW125349   3.811   2.507   5.307 -0.6781 -1.3152 -1.8632
 8150SOL    HW225350   3.720   2.631   5.362  1.4639 -0.9315  1.0197
 8151SOL     OW25351   3.476   4.167   3.012 -0.2975  0.0080  0.5207
 8151SOL    HW125352   3.516   4.078   2.990 -1.8809 -0.7559  0.5990
 8151SOL    HW225353   3.546   4.238   3.004  0.9676 -1.2189  0.3461
 8152SOL     OW25354   3.647   2.140   3.714  0.1505  0.3741  0.0955
 8152SOL    HW125355   3.625   2.129   3.617 -0.4827  1.3951  0.1138
 8152SOL    HW225356   3.686   2.230   3.729  1.7043 -0.3409  0.5552
 8153SOL     OW25357   4.093   5.107   5.334  0.9745  0.2660 -0.2300
 8153SOL    HW125358   4.022   5.122   5.402 -0.0424 -0.5340 -1.0811
 8153SOL    HW225359   4.058   5.049   5.261  2.2608  0.5068 -1.0829
 8154SOL     OW25360   6.066   6.068   1.081 -0.0108  0.2827  0.7256
 8154SOL    HW125361   5.970   6.081   1.105  0.0289  0.7113  0.6725
 8154SOL    HW225362   6.074   6.001   1.007 -0.3003  0.5163  0.4776
 8155SOL     OW25363   5.865   6.949   1.515 -0.0354  0.2736  0.0784
 8155SOL    HW125364   5.953   6.913   1.547 -1.1763 -2.3471  0.5031
 8155SOL    HW225365   5.882   7.017   1.444  2.3699 -1.8295 -1.5868
 8156SOL     OW25366   6.969   2.235   1.533 -0.1300 -0.4945 -0.0548
 8156SOL    HW125367   6.911   2.168   1.578  0.0756  0.2068  1.3074
 8156SOL    HW225368   6.918   2.320   1.519 -0.2380 -0.7397 -1.3249
 8157SOL     OW25369   5.778   6.558   1.670 -0.1693  0.6008 -0.5068
 8157SOL    HW125370   5.744   6.646   1.703  3.4686  2.3989 -1.0203
 8157SOL    HW225371   5.857   6.530   1.725 -0.8208 -2.0622 -0.8006
 8158SOL     OW25372   4.893   5.570   0.489 -0.2968 -0.2872  0.0421
 8158SOL    HW125373   4.842   5.489   0.460 -0.5963  0.1266 -0.6356
 8158SOL    HW225374   4.836   5.625   0.550  0.0155 -0.7282  0.7409
 8159SOL     OW25375   6.493   6.982   5.662  0.0168 -0.1099 -0.6360
 8159SOL    HW125376   6.429   7.058   5.676  3.0093  2.2614  1.6001
 8159SOL    HW225377   6.478   6.911   5.731 -0.4772  0.2300 -0.3944
 8160SOL     OW25378   1.361   5.421   2.454 -0.1960  0.1312 -0.4871
 8160SOL    HW125379   1.361   5.496   2.521 -1.1846 -0.2132 -0.0829
 8160SOL    HW225380   1.452   5.382   2.449  0.1420  0.8427 -0.1039
 8161SOL     OW25381   0.744   6.426   2.963 -0.0740  0.4527  0.0426
 8161SOL    HW125382   0.830   6.476   2.976 -0.3412  1.2203 -1.0124
 8161SOL    HW225383   0.744   6.383   2.873 -1.5880  2.1288 -0.8135
 8162SOL     OW25384   5.394   5.801   5.135  0.4102  0.4316  0.0249
 8162SOL    HW125385   5.296   5.804   5.116  0.5350 -0.9309 -0.9491
 8162SOL    HW225386   5.408   5.779   5.232 -0.2230  1.4171  0.3597
 8163SOL     OW25387   3.665   4.873   2.897  0.7689 -1.1192  0.2010
 8163SOL    HW125388   3.740   4.811   2.922 -0.0027 -2.3557 -0.4365
 8163SOL    HW225389   3.661   4.880   2.797  2.0674  1.5509  0.2493
 8164SOL     OW25390   1.240   0.294   0.745 -0.3819 -0.1090 -0.3891
 8164SOL    HW125391   1.172   0.290   0.673  0.0801 -0.1927 -0.8273
 8164SOL    HW225392   1.289   0.381   0.740 -1.2354  0.4534  0.6519
 8165SOL     OW25393   2.391   2.552   1.477  0.3835 -0.0654 -0.6692
 8165SOL    HW125394   2.462   2.502   1.429  1.2126 -1.2820  1.6391
 8165SOL    HW225395   2.431   2.600   1.555 -1.0928  0.5293 -0.2321
 8166SOL     OW25396   0.440   6.082   5.511  0.1058  0.1518 -0.0610
 8166SOL    HW125397   0.381   6.146   5.561 -0.4228 -1.0010  0.8505
 8166SOL    HW225398   0.514   6.051   5.571 -0.7893 -1.5856  0.2142
 8167SOL     OW25399   4.407   5.757   2.337 -0.3428 -0.0714 -0.4977
 8167SOL    HW125400   4.487   5.697   2.329 -0.3487 -0.3579  1.1473
 8167SOL    HW225401   4.324   5.702   2.339 -0.2673 -0.2725  2.6480
 8168SOL     OW25402   5.628   6.306   5.018  0.1045 -0.3497  0.4363
 8168SOL    HW125403   5.617   6.384   4.957  3.9426  1.3070  1.5639
 8168SOL    HW225404   5.712   6.257   4.995 -0.2565 -1.8863  2.1332
 8169SOL     OW25405   4.544   1.014   2.163  0.2399  0.1171  0.3659
 8169SOL    HW125406   4.498   0.950   2.226  2.1030 -1.9353 -0.2361
 8169SOL    HW225407   4.477   1.050   2.098 -0.6875 -2.4589 -0.2465
 8170SOL     OW25408   3.730   0.359   5.566  0.5125  0.2195 -0.3250
 8170SOL    HW125409   3.715   0.339   5.469  0.2199  1.8964 -0.6514
 8170SOL    HW225410   3.706   0.454   5.585 -2.7712 -0.9007  2.1190
 8171SOL     OW25411   1.855   3.326   3.085  0.0551 -0.1062  0.2318
 8171SOL    HW125412   1.775   3.276   3.051  1.1070 -2.2610  0.7858
 8171SOL    HW225413   1.927   3.326   3.016  0.3748 -0.0755  0.5608
 8172SOL     OW25414   2.299   0.084   5.836 -0.0891  0.5973 -0.2628
 8172SOL    HW125415   2.261   0.173   5.812 -0.9682  0.0778 -0.8752
 8172SOL    HW225416   2.397   0.093   5.851 -0.1013  1.5983 -0.6789
 8173SOL     OW25417   0.140   1.416   6.239  0.0559 -0.9196  0.5752
 8173SOL    HW125418   0.059   1.423   6.296 -1.3730 -0.8006 -1.3664
 8173SOL    HW225419   0.203   1.490   6.262 -2.7627  2.3392 -1.3518
 8174SOL     OW25420   3.392   4.718   0.559 -0.5755  0.4033  0.0143
 8174SOL    HW125421   3.426   4.716   0.653 -1.6447 -2.8859  0.4849
 8174SOL    HW225422   3.292   4.724   0.560 -0.8669 -2.6407 -0.6374
 8175SOL     OW25423   3.203   5.618   3.599 -0.1339  0.2383  0.7438
 8175SOL    HW125424   3.148   5.655   3.524  0.0046  2.4477  1.6598
 8175SOL    HW225425   3.289   5.583   3.563 -0.4640  0.3997 -0.2415
 8176SOL     OW25426   3.924   4.049   6.700  0.6534  0.1875 -0.0310
 8176SOL    HW125427   3.977   3.968   6.676 -0.8064 -1.1295  0.9686
 8176SOL    HW225428   3.973   4.101   6.771  0.3306 -1.3922  1.4039
 8177SOL     OW25429   5.360   2.676   6.465 -0.6886 -0.0795 -0.3177
 8177SOL    HW125430   5.375   2.582   6.498  0.8454 -0.0311 -0.7996
 8177SOL    HW225431   5.411   2.689   6.379 -2.1584  0.7205 -1.0984
 8178SOL     OW25432   5.856   4.010   3.956  0.5891  0.1888  0.2481
 8178SOL    HW125433   5.805   4.009   4.042 -0.8485 -0.0483 -0.5648
 8178SOL    HW225434   5.791   4.013   3.879  1.8448  0.9362 -0.8179
 8179SOL     OW25435   4.328   4.179   0.449 -0.2332 -0.1998  0.5320
 8179SOL    HW125436   4.297   4.273   0.454  0.0750 -0.0708 -0.0097
 8179SOL    HW225437   4.391   4.167   0.373  0.4616 -0.6294  1.1509
 8180SOL     OW25438   6.075   3.722   6.053  0.5562 -0.2459 -0.3454
 8180SOL    HW125439   6.156   3.695   6.105  0.6806 -1.1767 -0.9797
 8180SOL    HW225440   6.048   3.646   5.992 -0.8893 -0.0239 -0.0225
 8181SOL     OW25441   6.179   0.302   4.090  0.1716 -0.7106 -0.3912
 8181SOL    HW125442   6.138   0.381   4.135  0.1185 -0.9449 -0.0197
 8181SOL    HW225443   6.217   0.240   4.159 -1.1194 -1.7486 -0.5707
 8182SOL     OW25444   1.831   0.644   3.120 -0.5511  0.8252  0.3795
 8182SOL    HW125445   1.916   0.677   3.162  0.7056 -1.2839 -0.3702
 8182SOL    HW225446   1.815   0.549   3.148 -1.3308  0.3852 -1.4599
 8183SOL     OW25447   2.718   2.122   1.348 -0.3602  0.4033 -0.4057
 8183SOL    HW125448   2.622   2.149   1.345 -0.3162  0.5257 -0.7936
 8183SOL    HW225449   2.724   2.024   1.369 -0.6381  0.0344 -1.8933
 8184SOL     OW25450   0.234   1.858   4.600  0.2121 -0.1254 -0.6960
 8184SOL    HW125451   0.208   1.877   4.506  0.5534 -0.1656 -0.7973
 8184SOL    HW225452   0.271   1.941   4.642 -1.8349  0.4901  0.0467
 8185SOL     OW25453   2.755   1.100   3.199 -0.5799 -0.2491 -1.1145
 8185SOL    HW125454   2.752   1.063   3.292  1.4878 -1.3303 -1.4213
 8185SOL    HW225455   2.734   1.198   3.201  0.9811  0.1076  0.7209
 8186SOL     OW25456   2.036   3.096   3.998  0.2455  0.8024  0.0867
 8186SOL    HW125457   1.948   3.084   4.044 -0.2541  3.5391  0.0253
 8186SOL    HW225458   2.106   3.041   4.043 -1.2491 -0.5685  0.8309
 8187SOL     OW25459   0.882   2.633   3.087  0.0968 -0.1037  0.1615
 8187SOL    HW125460   0.934   2.568   3.143 -0.5835  0.4771  1.4917
 8187SOL    HW225461   0.943   2.706   3.057  0.7768 -1.1012 -1.0149
 8188SOL     OW25462   6.161   5.868   0.909  0.2505 -0.0501  0.4936
 8188SOL    HW125463   6.216   5.798   0.953  1.3832  0.1926 -0.4805
 8188SOL    HW225464   6.215   5.913   0.838 -0.7099  1.2704  0.5654
 8189SOL     OW25465   2.727   6.098   1.388 -0.2359  0.1807 -0.1140
 8189SOL    HW125466   2.767   6.137   1.471  0.6250 -0.6509 -0.1223
 8189SOL    HW225467   2.744   6.160   1.311  0.7312  0.0035 -0.0492
 8190SOL     OW25468   4.012   3.210   3.147  0.5119  0.1949  0.1584
 8190SOL    HW125469   4.034   3.170   3.058  1.4065 -0.2340  0.5575
 8190SOL    HW225470   4.095   3.216   3.202 -0.0783  0.2203  1.0638
 8191SOL     OW25471   0.571   3.194   5.513 -0.4660  1.1702 -0.5857
 8191SOL    HW125472   0.479   3.228   5.536 -0.2838  1.3858 -0.1691
 8191SOL    HW225473   0.567   3.145   5.426 -1.7364 -1.8435  0.9893
 8192SOL     OW25474   6.115   0.048   2.641  0.3542  0.4217  0.1287
 8192SOL    HW125475   6.075  -0.036   2.678  0.1620  0.8812  0.9950
 8192SOL    HW225476   6.061   0.126   2.671  0.5490  0.8593 -0.6480
 8193SOL     OW25477   3.914   0.172   1.896  0.0635  0.0278 -0.0762
 8193SOL    HW125478   4.009   0.179   1.866 -0.1649 -0.4277 -0.9288
 8193SOL    HW225479   3.858   0.239   1.847 -0.3830 -0.9893 -0.9908
 8194SOL     OW25480   3.122   1.349   1.179 -0.1656 -0.3521 -0.4671
 8194SOL    HW125481   3.154   1.321   1.270  0.0443 -0.3700 -0.5455
 8194SOL    HW225482   3.103   1.448   1.179 -1.7296 -0.6196  0.0511
 8195SOL     OW25483   6.102   2.053   4.462  0.5272 -0.9325 -0.4454
 8195SOL    HW125484   6.114   1.971   4.405  0.6582 -0.7162 -0.7345
 8195SOL    HW225485   6.048   2.120   4.412  0.4052 -0.8512 -0.2010
 8196SOL     OW25486   0.567   5.289   4.997 -0.2353  0.3508  0.2609
 8196SOL    HW125487   0.654   5.317   5.037 -1.3628  0.9016  2.4806
 8196SOL    HW225488   0.531   5.211   5.047 -0.8422 -0.1305 -0.8943
 8197SOL     OW25489   6.177   4.150   4.892  0.6009 -0.3086 -0.3558
 8197SOL    HW125490   6.137   4.102   4.970  0.9629 -1.3179 -0.7785
 8197SOL    HW225491   6.109   4.213   4.854  0.4264  0.2110  0.7700
 8198SOL     OW25492   0.187   4.765   3.286 -0.6222 -0.0668 -0.2591
 8198SOL    HW125493   0.184   4.788   3.384  0.5945 -2.2022  0.3573
 8198SOL    HW225494   0.216   4.844   3.234 -0.5315  0.9056  1.1999
 8199SOL     OW25495   3.502   1.179   4.389  0.2632  0.4053  0.0107
 8199SOL    HW125496   3.574   1.213   4.328  0.0066  1.3538  0.2236
 8199SOL    HW225497   3.441   1.119   4.338  0.1052  1.1106 -0.6549
 8200SOL     OW25498   5.050   3.137   1.514 -0.0593 -0.4264 -0.5547
 8200SOL    HW125499   5.052   3.100   1.606  0.8900 -0.5104 -0.5929
 8200SOL    HW225500   4.956   3.152   1.485 -0.3855 -1.0520  0.1618
 8201SOL     OW25501   4.071   4.367   5.340 -0.3930  0.6568 -0.3469
 8201SOL    HW125502   4.132   4.418   5.279 -0.6182  1.2632 -0.0702
 8201SOL    HW225503   3.976   4.394   5.321 -0.4202  1.4908  0.8333
 8202SOL     OW25504   0.272   4.748   2.927 -0.1368 -0.6938  0.0982
 8202SOL    HW125505   0.303   4.813   2.997  1.5991 -0.1359 -1.1217
 8202SOL    HW225506   0.340   4.743   2.853 -1.2493 -2.3125 -0.8853
 8203SOL     OW25507   0.727   6.107   6.964 -0.0161 -0.2645 -0.5693
 8203SOL    HW125508   0.671   6.148   7.036  0.6681  0.1873 -0.2855
 8203SOL    HW225509   0.712   6.008   6.962 -1.0587 -0.1159 -0.7121
 8204SOL     OW25510   2.229   2.572   6.765  0.0230  0.2721  0.0388
 8204SOL    HW125511   2.157   2.515   6.804  0.2572  0.0565  0.1604
 8204SOL    HW225512   2.317   2.543   6.801  0.4325 -0.9400 -1.7760
 8205SOL     OW25513   2.606   4.981   6.262 -0.2778 -0.0343 -0.0534
 8205SOL    HW125514   2.553   4.931   6.331 -0.1736  1.8333  1.4783
 8205SOL    HW225515   2.659   4.917   6.207 -1.6429 -1.7137  0.5057
 8206SOL     OW25516   1.648   5.544   5.065 -0.5089 -0.4071 -0.1629
 8206SOL    HW125517   1.621   5.464   5.118 -1.2578  0.6625  1.1309
 8206SOL    HW225518   1.748   5.549   5.061 -0.4483 -1.7184 -0.7904
 8207SOL     OW25519   4.828   4.342   6.587  0.0640 -0.0495  0.4475
 8207SOL    HW125520   4.762   4.406   6.626 -0.6563 -0.8184  0.5247
 8207SOL    HW225521   4.835   4.357   6.488  1.3946  1.4557  0.7176
 8208SOL     OW25522   5.304   2.017   1.828  0.0860 -0.6621 -0.2074
 8208SOL    HW125523   5.224   2.017   1.768 -0.4227 -1.1683  0.4398
 8208SOL    HW225524   5.387   2.005   1.774 -0.0868  1.6763 -1.0784
 8209SOL     OW25525   0.421   3.030   5.177 -0.2121  0.2296  0.3196
 8209SOL    HW125526   0.429   3.129   5.175 -0.5335  0.2530  0.1129
 8209SOL    HW225527   0.494   2.989   5.123 -0.4282  0.3744 -0.0851
 8210SOL     OW25528   2.142   5.955   4.687  0.1157  0.2123 -0.0577
 8210SOL    HW125529   2.079   5.940   4.611  0.9278  0.4806 -0.8000
 8210SOL    HW225530   2.212   6.021   4.660  0.6525  0.0111  0.7913
 8211SOL     OW25531   3.589   6.234   0.273 -0.4157 -0.4220  0.2748
 8211SOL    HW125532   3.566   6.288   0.355 -1.2795 -0.5935  0.1590
 8211SOL    HW225533   3.613   6.296   0.199 -1.0935 -0.1888  0.2357
 8212SOL     OW25534   3.499   5.904   1.506 -0.2413  0.1657 -0.1580
 8212SOL    HW125535   3.545   5.816   1.523 -0.5732 -0.6014 -2.7656
 8212SOL    HW225536   3.567   5.974   1.486 -0.0379  0.1598  0.4927
 8213SOL     OW25537   3.848   1.642   2.610 -0.6533 -0.3973 -0.0668
 8213SOL    HW125538   3.762   1.691   2.625 -1.0636 -1.1306  0.0053
 8213SOL    HW225539   3.863   1.629   2.512 -0.4271  0.0658 -0.0980
 8214SOL     OW25540   2.044   3.031   0.118  0.2249  0.2867  0.0732
 8214SOL    HW125541   2.073   2.990   0.031  0.2580  0.8098 -0.1627
 8214SOL    HW225542   1.951   3.066   0.109 -0.7645 -1.8903  0.9861
 8215SOL     OW25543   1.156   6.543   2.162 -0.1076 -0.0501  0.3123
 8215SOL    HW125544   1.132   6.520   2.257  0.1309 -1.2073  0.1074
 8215SOL    HW225545   1.231   6.608   2.161  1.7593 -2.0715  0.9461
 8216SOL     OW25546   6.633   3.597   5.881 -0.3697 -0.3370 -0.0734
 8216SOL    HW125547   6.598   3.672   5.825  2.3902 -0.8225 -2.6753
 8216SOL    HW225548   6.577   3.516   5.866 -0.4316 -0.1102 -1.1559
 8217SOL     OW25549   3.626   6.454   3.000  0.1663 -0.8495 -0.5073
 8217SOL    HW125550   3.604   6.380   2.937 -0.0079 -0.4387 -0.9295
 8217SOL    HW225551   3.593   6.431   3.092 -0.7384 -0.8776 -0.8298
 8218SOL     OW25552   4.359   5.098   3.135 -0.2582  0.1874  0.2100
 8218SOL    HW125553   4.269   5.107   3.178  0.4446 -0.6591  1.9660
 8218SOL    HW225554   4.405   5.017   3.171  0.6182 -0.2463 -1.7893
 8219SOL     OW25555   5.847   6.299   1.116 -0.3917  0.0332  0.8819
 8219SOL    HW125556   5.785   6.364   1.160 -2.9928 -3.0421  2.1857
 8219SOL    HW225557   5.798   6.250   1.044  1.9273  0.4810 -1.1051
 8220SOL     OW25558   3.014   2.284   6.077  0.2249 -0.1272 -0.0262
 8220SOL    HW125559   3.034   2.318   6.169 -0.1214 -0.2358  0.0905
 8220SOL    HW225560   3.053   2.193   6.066  1.8155  0.5816 -0.5949
 8221SOL     OW25561   2.257   6.477   0.763 -0.7310 -0.2831  0.6201
 8221SOL    HW125562   2.345   6.485   0.715 -1.1783 -0.4150 -0.2543
 8221SOL    HW225563   2.214   6.567   0.768 -0.5910 -0.2347  0.9644
 8222SOL     OW25564   1.698   3.973   1.395  0.5875 -0.2370  0.0303
 8222SOL    HW125565   1.682   3.984   1.493  0.3174 -1.0111  0.0778
 8222SOL    HW225566   1.780   4.024   1.369 -1.6742  3.6709 -0.1871
 8223SOL     OW25567   0.019   0.271   4.398  0.3769  0.2499 -0.8251
 8223SOL    HW125568   0.077   0.276   4.317  1.3256 -1.2625 -0.2964
 8223SOL    HW225569  -0.021   0.179   4.405  0.3230  0.3404  0.4012
 8224SOL     OW25570   4.466   3.915   6.553  0.1689 -0.6067 -0.0441
 8224SOL    HW125571   4.524   3.838   6.525  1.0366 -0.0994  0.2975
 8224SOL    HW225572   4.513   4.001   6.532 -1.2280 -0.1136 -1.3907
 8225SOL     OW25573   5.093   4.712   0.244 -0.3408  0.0828 -0.0712
 8225SOL    HW125574   5.002   4.728   0.206 -1.3057 -0.9605  1.6538
 8225SOL    HW225575   5.135   4.633   0.199  0.1467  1.1204 -1.5112
 8226SOL     OW25576   2.285   2.224   2.841 -0.1443 -0.3962  0.1263
 8226SOL    HW125577   2.361   2.219   2.776 -0.5009 -1.5847 -0.2323
 8226SOL    HW225578   2.321   2.215   2.934  0.1896 -0.5735 -0.0161
 8227SOL     OW25579   2.796   5.366   5.926  0.1474 -0.0585  0.3725
 8227SOL    HW125580   2.891   5.336   5.933  0.4449  0.6872 -0.3736
 8227SOL    HW225581   2.747   5.343   6.011  0.1234 -3.4217 -0.3769
 8228SOL     OW25582   6.664   0.262   5.856 -0.5626 -0.2057 -0.3070
 8228SOL    HW125583   6.731   0.297   5.790 -0.4557 -0.3384 -0.2706
 8228SOL    HW225584   6.689   0.168   5.881  0.9105  0.6976  1.8966
 8229SOL     OW25585   4.814   4.451   3.679  0.3995 -0.3467  0.0140
 8229SOL    HW125586   4.870   4.478   3.601  0.0637 -0.6028 -0.3199
 8229SOL    HW225587   4.818   4.522   3.750 -0.1217  0.3656 -0.6624
 8230SOL     OW25588   0.815   3.719   0.477 -0.5360  0.4939 -0.3314
 8230SOL    HW125589   0.724   3.682   0.494 -0.1581  0.1189  1.0300
 8230SOL    HW225590   0.830   3.729   0.379 -1.6411 -0.4456 -0.6094
 8231SOL     OW25591   4.786   4.479   5.358  0.6141 -0.1435  0.1916
 8231SOL    HW125592   4.849   4.548   5.322  1.2444 -0.5087  0.5687
 8231SOL    HW225593   4.746   4.428   5.283 -1.2939  1.8155 -0.2348
 8232SOL     OW25594   1.027   4.081   6.433  0.0120  0.1529  0.5314
 8232SOL    HW125595   1.089   4.004   6.448 -0.6204 -0.3857  0.4011
 8232SOL    HW225596   0.947   4.050   6.381 -0.6328  0.7193  1.1745
 8233SOL     OW25597   5.097   3.971   5.448  0.1051 -0.3268 -0.5714
 8233SOL    HW125598   5.080   3.889   5.504  2.2247 -1.3523 -1.3401
 8233SOL    HW225599   5.075   3.950   5.353 -0.5036  0.4316 -0.6115
 8234SOL     OW25600   0.392   2.318   0.759  0.3093 -0.1290  0.0864
 8234SOL    HW125601   0.414   2.245   0.824 -0.0413 -1.0255 -0.7775
 8234SOL    HW225602   0.318   2.374   0.795  1.3030  0.4935  1.2483
 8235SOL     OW25603   0.242   0.269   3.143  0.1217 -0.3192  0.2342
 8235SOL    HW125604   0.245   0.353   3.196  3.3518 -0.9528  1.2760
 8235SOL    HW225605   0.317   0.268   3.077  0.8979 -2.8340  1.0484
 8236SOL     OW25606   3.230   4.879   2.240  0.1084 -0.3756  0.1984
 8236SOL    HW125607   3.170   4.853   2.164 -0.2465  2.0556 -0.4315
 8236SOL    HW225608   3.321   4.898   2.205  0.0024  0.5448  0.4155
 8237SOL     OW25609   2.442   2.215   1.982 -0.7296  0.6605 -0.5452
 8237SOL    HW125610   2.532   2.259   1.993 -0.7894  0.9334 -1.0925
 8237SOL    HW225611   2.403   2.196   2.072 -0.2203  0.7469 -0.3019
 8238SOL     OW25612   6.533   5.147   5.670 -0.1274 -0.1784 -0.9608
 8238SOL    HW125613   6.578   5.168   5.757  0.4221  0.4537 -1.3847
 8238SOL    HW225614   6.474   5.067   5.681  1.3085 -1.2125 -0.4559
 8239SOL     OW25615   5.791   3.697   5.094  0.7636  0.0216  0.2387
 8239SOL    HW125616   5.692   3.700   5.108  0.6503  2.5051 -0.5883
 8239SOL    HW225617   5.825   3.604   5.109 -1.8747 -1.1920 -0.8314
 8240SOL     OW25618   6.433   5.012   5.972  0.1801  0.2510  0.3047
 8240SOL    HW125619   6.507   5.079   5.977  0.2099  0.2599 -0.1769
 8240SOL    HW225620   6.347   5.058   5.954 -0.4025  0.5147  3.2817
 8241SOL     OW25621   0.918   1.627   0.221  0.2989  0.6444  0.8320
 8241SOL    HW125622   0.958   1.580   0.300  0.2987  1.1353  1.1257
 8241SOL    HW225623   0.839   1.575   0.188 -0.9171  1.4531  2.3768
 8242SOL     OW25624   2.109   3.070   1.623  0.0687  0.1682 -0.1536
 8242SOL    HW125625   2.178   3.044   1.555  1.6050 -0.3439  1.5124
 8242SOL    HW225626   2.116   3.168   1.643  2.4166 -0.3423  2.0925
 8243SOL     OW25627   3.961   4.646   5.723  0.0823 -0.6754 -0.2463
 8243SOL    HW125628   3.959   4.612   5.817 -2.2305 -0.7622 -0.2667
 8243SOL    HW225629   4.011   4.582   5.665 -0.0620 -1.5623  0.5914
 8244SOL     OW25630   1.880   3.107   1.348 -0.2060 -0.6237  1.4040
 8244SOL    HW125631   1.870   3.038   1.421 -0.2583  0.2699  2.2631
 8244SOL    HW225632   1.977   3.131   1.339 -0.1602 -0.9739  0.9445
 8245SOL     OW25633   3.723   2.347   0.926  0.2826  0.2398 -0.2465
 8245SOL    HW125634   3.737   2.430   0.981  0.8152  0.3785 -0.5889
 8245SOL    HW225635   3.652   2.291   0.969 -0.6117  1.2172 -0.4097
 8246SOL     OW25636   4.487   0.761   6.647 -0.4282 -0.0761 -0.3034
 8246SOL    HW125637   4.489   0.770   6.547  2.2108 -3.9196 -0.8186
 8246SOL    HW225638   4.561   0.814   6.687 -1.1012  0.9629 -0.3899
 8247SOL     OW25639   0.306   3.637   5.279 -0.3756 -0.0561  0.2673
 8247SOL    HW125640   0.275   3.730   5.262 -1.0871 -0.4279 -0.5483
 8247SOL    HW225641   0.403   3.637   5.302 -0.6471  1.0018  1.4907
 8248SOL     OW25642   1.590   2.482   6.139  0.4590  0.8923 -0.7761
 8248SOL    HW125643   1.674   2.427   6.133  1.2619  2.0165 -0.2821
 8248SOL    HW225644   1.541   2.478   6.053  0.3783 -0.7623 -0.6863
 8249SOL     OW25645   1.124   0.509   5.065 -0.1895  0.5306  0.2230
 8249SOL    HW125646   1.091   0.561   5.144 -0.5843  1.4940 -0.5605
 8249SOL    HW225647   1.213   0.544   5.037  0.8162 -1.0269  1.3580
 8250SOL     OW25648   1.969   1.641   1.947  0.3923  0.5213  0.1293
 8250SOL    HW125649   2.042   1.583   1.984 -0.2312  0.2967  1.0538
 8250SOL    HW225650   1.978   1.733   1.984 -1.4717 -0.2072  2.6851
 8251SOL     OW25651   1.641   5.465   3.411 -0.5145 -0.3586 -0.3046
 8251SOL    HW125652   1.688   5.442   3.326 -1.9527 -0.6853 -1.0546
 8251SOL    HW225653   1.678   5.550   3.448  3.4462 -2.5707  1.3691
 8252SOL     OW25654   5.977   2.194   4.278 -0.2503  0.4418 -0.1412
 8252SOL    HW125655   5.880   2.167   4.278 -0.2566  0.4388  0.8202
 8252SOL    HW225656   6.013   2.186   4.186 -1.1172  0.2516 -0.4783
 8253SOL     OW25657   4.540   2.439   6.841  0.8313  0.7212 -0.2494
 8253SOL    HW125658   4.613   2.379   6.808 -0.2885 -1.1515  0.5135
 8253SOL    HW225659   4.491   2.479   6.764  1.1063  0.0262 -0.7933
 8254SOL     OW25660   2.389   1.633   4.870 -0.7620  0.8395 -0.3089
 8254SOL    HW125661   2.443   1.705   4.826 -0.7037  1.5915  0.9307
 8254SOL    HW225662   2.306   1.673   4.909 -0.8217  0.1993  0.2375
 8255SOL     OW25663   6.987   3.918   6.601 -0.6731  0.1165  0.1927
 8255SOL    HW125664   7.065   3.931   6.540 -0.4844 -1.9601 -0.0653
 8255SOL    HW225665   7.010   3.851   6.671 -1.8549  0.3519  0.8316
 8256SOL     OW25666   3.191   2.229   6.881  0.2096  0.2403 -0.5938
 8256SOL    HW125667   3.245   2.310   6.902 -1.0968  1.3803 -1.4552
 8256SOL    HW225668   3.098   2.256   6.859 -0.4380 -1.5761 -0.2336
 8257SOL     OW25669   0.367   5.466   6.824  0.2773  0.3920  0.3442
 8257SOL    HW125670   0.330   5.559   6.827 -1.1269 -0.1404  0.1435
 8257SOL    HW225671   0.410   5.446   6.912  0.5156  1.1959  0.4236
 8258SOL     OW25672   0.632   6.439   1.910 -0.4247 -0.5085  0.0552
 8258SOL    HW125673   0.635   6.519   1.849  1.2616 -0.2962  0.3679
 8258SOL    HW225674   0.568   6.372   1.873  0.8792 -0.5901 -2.2599
 8259SOL     OW25675   1.704   0.516   5.790 -0.4575 -0.4656 -0.4062
 8259SOL    HW125676   1.647   0.598   5.791  0.3535  0.1120  0.8494
 8259SOL    HW225677   1.651   0.438   5.823 -1.5252 -0.7048 -2.5002
 8260SOL     OW25678   6.832   4.653   1.929 -0.3017  0.2658 -0.2037
 8260SOL    HW125679   6.877   4.740   1.912  1.9441 -0.6871  0.4815
 8260SOL    HW225680   6.843   4.627   2.025  1.1967 -1.8546 -0.8653
 8261SOL     OW25681   0.353   6.491   5.795 -0.1744  0.5969 -0.1626
 8261SOL    HW125682   0.287   6.567   5.795 -1.0734 -0.1199  1.4283
 8261SOL    HW225683   0.446   6.527   5.802 -0.6648  1.5944  2.6192
 8262SOL     OW25684   1.329   3.685   1.701 -0.8586  0.1457  0.3090
 8262SOL    HW125685   1.231   3.681   1.718 -1.1798 -1.6243 -1.5356
 8262SOL    HW225686   1.353   3.621   1.628  1.6063  0.9215  0.3350
 8263SOL     OW25687   3.559   6.002   2.928 -0.4504 -0.5014  0.3497
 8263SOL    HW125688   3.478   5.995   2.986  0.2594 -1.5062  1.2398
 8263SOL    HW225689   3.569   5.919   2.874  0.3119 -0.6212  0.6705
 8264SOL     OW25690   4.065   3.332   0.176  0.1982  0.6508 -0.3171
 8264SOL    HW125691   4.078   3.427   0.202  0.2026  0.6400 -0.2807
 8264SOL    HW225692   4.088   3.272   0.253  0.7226  0.5974 -0.5043
 8265SOL     OW25693   6.300   3.749   1.840  0.3080  0.3491  0.7514
 8265SOL    HW125694   6.213   3.750   1.792  0.6499  0.1348  0.1219
 8265SOL    HW225695   6.300   3.821   1.910 -1.1247 -0.9251  2.1298
 8266SOL     OW25696   1.172   0.280   6.947 -0.1481  0.2617 -0.2798
 8266SOL    HW125697   1.172   0.355   6.881  0.2628 -1.1877 -2.0013
 8266SOL    HW225698   1.266   0.247   6.960 -0.3095  0.1002  0.5284
 8267SOL     OW25699   0.258   1.978   6.822  0.0097 -0.2161 -0.0725
 8267SOL    HW125700   0.213   1.993   6.734 -1.8114 -2.2356  0.4044
 8267SOL    HW225701   0.219   2.039   6.890 -1.3949 -1.2590  0.1113
 8268SOL     OW25702   5.960   5.000   6.130 -0.0977 -0.3770  0.8019
 8268SOL    HW125703   5.887   5.065   6.153  0.7262  0.6750  0.5322
 8268SOL    HW225704   5.984   5.011   6.033  0.4727 -0.6604  0.9107
 8269SOL     OW25705   1.877   4.876   1.925 -0.0922  0.0046  0.0672
 8269SOL    HW125706   1.959   4.828   1.893  0.3258 -0.9775  2.3979
 8269SOL    HW225707   1.891   4.974   1.917  0.9142 -0.1646 -0.4685
 8270SOL     OW25708   1.876   2.830   2.871  0.1394 -0.1252  0.0779
 8270SOL    HW125709   1.781   2.801   2.862  0.3363 -0.7123 -0.1583
 8270SOL    HW225710   1.892   2.864   2.963 -0.2690 -0.1396  0.1565
 8271SOL     OW25711   3.126   0.747   1.664 -0.5948  0.3812 -0.3927
 8271SOL    HW125712   3.135   0.651   1.639  0.0193  0.1241  0.7738
 8271SOL    HW225713   3.041   0.784   1.626 -1.4933 -0.9684  0.2569
 8272SOL     OW25714   6.672   6.483   4.103  0.0633 -1.1875 -0.1677
 8272SOL    HW125715   6.683   6.399   4.157  0.4266 -0.1174  1.5156
 8272SOL    HW225716   6.587   6.529   4.130 -0.6964 -1.5366 -1.8692
 8273SOL     OW25717   5.006   5.947   2.766  0.7561  0.3607  0.1789
 8273SOL    HW125718   4.913   5.979   2.747  0.9018  1.5323  1.3195
 8273SOL    HW225719   5.006   5.847   2.770  0.1160  0.1765 -2.5908
 8274SOL     OW25720   2.629   5.694   3.152 -0.0929  0.2551 -0.1533
 8274SOL    HW125721   2.554   5.693   3.218  0.0820 -1.0526  0.0515
 8274SOL    HW225722   2.704   5.637   3.185  0.0220 -0.3928 -1.4430
 8275SOL     OW25723   6.416   0.588   3.816  0.4512 -0.0930  0.1614
 8275SOL    HW125724   6.452   0.662   3.760 -0.8582  1.0085  0.7099
 8275SOL    HW225725   6.444   0.500   3.778 -1.6526  0.5061 -3.1976
 8276SOL     OW25726   1.669   2.528   0.025 -0.2157 -0.1149 -0.1929
 8276SOL    HW125727   1.677   2.626   0.004 -1.2671  0.1469  0.5062
 8276SOL    HW225728   1.662   2.477  -0.060  1.2053  0.3090 -0.5989
 8277SOL     OW25729   5.279   6.081   1.687 -0.0999  0.1300 -0.1109
 8277SOL    HW125730   5.216   6.067   1.611  0.8436  0.7054 -1.0445
 8277SOL    HW225731   5.318   5.993   1.716  0.9510  0.0637 -1.5923
 8278SOL     OW25732   1.064   5.827   2.477  0.6962  0.4633 -0.5296
 8278SOL    HW125733   0.988   5.888   2.499  0.1518 -0.2374 -0.4327
 8278SOL    HW225734   1.132   5.876   2.423 -0.1458  0.9138 -1.1917
 8279SOL     OW25735   5.124   6.784   3.226  0.1699 -0.1149  0.2900
 8279SOL    HW125736   5.078   6.834   3.299  1.6302 -0.2366  1.3451
 8279SOL    HW225737   5.188   6.845   3.179 -2.3490  0.6038 -2.4700
 8280SOL     OW25738   0.726   3.115   4.199 -0.2455  0.4570  0.1640
 8280SOL    HW125739   0.688   3.154   4.284  1.2241 -0.0387  1.0896
 8280SOL    HW225740   0.694   3.021   4.189 -2.6900  1.3655 -1.3565
 8281SOL     OW25741   4.180   1.336   2.032 -0.2020 -0.6350  0.1144
 8281SOL    HW125742   4.093   1.352   2.079 -1.0779  0.0772 -1.6447
 8281SOL    HW225743   4.247   1.405   2.061 -0.2715 -1.0541  1.3125
 8282SOL     OW25744   5.448   1.979   4.874 -0.2994 -0.1557  0.3021
 8282SOL    HW125745   5.422   2.021   4.787  2.3385  1.0847  0.0088
 8282SOL    HW225746   5.469   1.882   4.859 -0.0837 -0.0043 -0.4356
 8283SOL     OW25747   5.529   2.854   1.668  0.1083 -0.1866 -0.0958
 8283SOL    HW125748   5.605   2.841   1.732  0.6759  0.0563 -0.7051
 8283SOL    HW225749   5.505   2.951   1.664  0.1080 -0.1948 -0.2894
 8284SOL     OW25750   4.557   2.764   0.726  0.6488 -0.3977  0.0791
 8284SOL    HW125751   4.475   2.793   0.677 -0.2776 -0.3788  1.5712
 8284SOL    HW225752   4.534   2.690   0.789  2.2959 -2.1355 -1.2186
 8285SOL     OW25753   1.700   5.509   6.293 -0.1769 -0.3349  0.5727
 8285SOL    HW125754   1.663   5.526   6.384  0.1284  1.5161  0.3865
 8285SOL    HW225755   1.772   5.574   6.273 -0.2321 -0.6998 -1.0033
 8286SOL     OW25756   0.398   0.217   5.716  0.4718 -0.1207  0.3699
 8286SOL    HW125757   0.348   0.284   5.771  1.2967  0.4365  0.4633
 8286SOL    HW225758   0.469   0.174   5.773  0.8928 -0.0234 -0.0742
 8287SOL     OW25759   5.113   1.247   2.545  0.4924 -0.3546  0.5036
 8287SOL    HW125760   5.110   1.342   2.574 -0.5813 -0.5023  0.9036
 8287SOL    HW225761   5.202   1.228   2.503  1.0537  0.5765  1.2391
 8288SOL     OW25762   3.225   3.471   6.753  0.3223 -0.2815  0.1911
 8288SOL    HW125763   3.311   3.495   6.798 -0.5625  0.8341  1.3474
 8288SOL    HW225764   3.244   3.426   6.666  2.0784 -1.4540  1.1296
 8289SOL     OW25765   4.901   3.771   4.372  0.8896 -0.1176 -0.1258
 8289SOL    HW125766   4.834   3.705   4.339 -0.9609  1.0457  1.1398
 8289SOL    HW225767   4.921   3.752   4.469  0.3999  1.0957  0.2296
 8290SOL     OW25768   0.595   2.094   3.282 -0.2015 -0.1969  0.0216
 8290SOL    HW125769   0.517   2.032   3.286  0.9544 -1.7697 -0.6352
 8290SOL    HW225770   0.642   2.094   3.371 -1.8022  2.0121  0.9596
 8291SOL     OW25771   4.941   0.120   5.770  0.1245  0.5129 -0.3038
 8291SOL    HW125772   4.873   0.053   5.743 -0.3876  0.8277  0.1885
 8291SOL    HW225773   4.897   0.196   5.817  1.0425 -0.3779  2.1303
 8292SOL     OW25774   1.807   1.929   5.889 -0.2094  0.2951  0.2009
 8292SOL    HW125775   1.822   1.911   5.987 -1.2196 -2.3147 -0.0404
 8292SOL    HW225776   1.709   1.923   5.870  0.0092  0.5456 -1.0388
 8293SOL     OW25777   2.280   5.169   5.063 -0.1048 -0.5888  0.6105
 8293SOL    HW125778   2.258   5.176   4.965 -0.1215 -0.1167  0.6448
 8293SOL    HW225779   2.355   5.104   5.076  0.5377  0.0532  0.1855
 8294SOL     OW25780   4.226   0.594   1.935  0.9061 -0.1560 -0.5006
 8294SOL    HW125781   4.266   0.526   1.873  2.3926  1.0449 -0.9079
 8294SOL    HW225782   4.294   0.623   2.001  0.2168  0.7776 -0.1785
 8295SOL     OW25783   1.031   2.733   0.863 -0.2065  0.1072 -0.6777
 8295SOL    HW125784   1.122   2.752   0.900 -0.3900  0.0883 -0.2071
 8295SOL    HW225785   0.962   2.777   0.920 -0.4547  0.8067 -1.5004
 8296SOL     OW25786   3.567   6.862   6.793  0.4857  0.4643 -0.1089
 8296SOL    HW125787   3.610   6.943   6.755  1.9971 -0.1352  0.2570
 8296SOL    HW225788   3.587   6.782   6.736  1.0408 -0.0639  0.7832
 8297SOL     OW25789   4.445   2.068   2.147  0.6188  0.0466  0.7132
 8297SOL    HW125790   4.510   2.126   2.196  1.5455 -0.6398  0.3441
 8297SOL    HW225791   4.361   2.119   2.129  1.2077  1.0952  0.8380
 8298SOL     OW25792   6.190   5.418   3.046  0.1961  0.0884 -0.0366
 8298SOL    HW125793   6.133   5.403   2.964  1.4134  2.3141 -1.3917
 8298SOL    HW225794   6.197   5.516   3.064  3.8550 -0.0080 -0.1862
 8299SOL     OW25795   5.264   4.842   1.107 -0.6444 -0.2517 -0.6794
 8299SOL    HW125796   5.275   4.795   1.194  1.2744  3.6915  1.5109
 8299SOL    HW225797   5.191   4.910   1.114  0.1963  0.8158 -1.7383
 8300SOL     OW25798   3.238   6.792   2.958 -0.1717 -0.2702 -0.4103
 8300SOL    HW125799   3.280   6.763   2.872  0.2983  0.9595 -0.6102
 8300SOL    HW225800   3.296   6.764   3.035  1.0412  1.3840 -0.6809
 8301SOL     OW25801   3.448   5.227   3.102  0.2382  0.7502 -0.5372
 8301SOL    HW125802   3.529   5.215   3.044  0.7257  0.3765  0.2155
 8301SOL    HW225803   3.409   5.137   3.123 -0.5994  0.9482 -1.2037
 8302SOL     OW25804   6.885   6.592   5.723 -0.4366 -0.0917  0.4175
 8302SOL    HW125805   6.949   6.549   5.787 -1.9480  0.7452  2.5962
 8302SOL    HW225806   6.927   6.597   5.632  2.0314 -0.7552  1.4472
 8303SOL     OW25807   1.183   2.215   4.355 -0.2557  0.3930 -0.4047
 8303SOL    HW125808   1.101   2.185   4.402  1.3608 -2.5489  0.7629
 8303SOL    HW225809   1.261   2.210   4.417  1.4679 -0.8321 -2.5294
 8304SOL     OW25810   1.806   2.356   2.814 -0.1707 -0.2554  0.0256
 8304SOL    HW125811   1.849   2.268   2.838 -0.6193 -0.3088  0.6535
 8304SOL    HW225812   1.718   2.363   2.860 -0.6949 -0.0002 -0.9985
 8305SOL     OW25813   0.361   0.027   0.026  0.5846  0.1371 -0.0248
 8305SOL    HW125814   0.426   0.003   0.098  0.8318  0.0279 -0.2833
 8305SOL    HW225815   0.356   0.127   0.018 -0.5838  0.1921  1.1727
 8306SOL     OW25816   3.197   3.647   5.137 -0.0664 -0.2174  0.7702
 8306SOL    HW125817   3.186   3.626   5.235 -2.0600  2.0358  1.1334
 8306SOL    HW225818   3.243   3.735   5.127  1.4836 -1.1135 -0.4278
 8307SOL     OW25819   0.687   2.910   5.334  0.0035  0.4920  0.0464
 8307SOL    HW125820   0.761   2.854   5.371  0.9062  0.4709 -1.7128
 8307SOL    HW225821   0.723   2.996   5.300 -1.1275  1.4222  1.0840
 8308SOL     OW25822   4.117   5.532   2.920 -0.2724  0.1476 -0.7428
 8308SOL    HW125823   4.140   5.551   3.016 -0.8802  1.3229 -0.8045
 8308SOL    HW225824   4.085   5.616   2.877  0.7519 -0.1758 -2.2149
 8309SOL     OW25825   3.221   6.216   2.732 -0.3123 -0.2658  0.2428
 8309SOL    HW125826   3.203   6.123   2.764 -2.5100  0.5633  1.7048
 8309SOL    HW225827   3.180   6.228   2.641 -0.2641 -0.6455  0.1685
 8310SOL     OW25828   2.569   4.819   1.638  0.7879 -0.3601 -0.3352
 8310SOL    HW125829   2.630   4.829   1.716  0.1198  0.9393  0.0546
 8310SOL    HW225830   2.543   4.723   1.627  0.7226 -0.5388  1.1709
 8311SOL     OW25831   4.588   5.531   6.121 -0.3578  0.0385  0.4325
 8311SOL    HW125832   4.617   5.613   6.171  1.2619  0.0334 -0.4376
 8311SOL    HW225833   4.573   5.456   6.186  2.5272 -0.2108  0.9034
 8312SOL     OW25834   4.548   6.063   1.403 -0.6710  0.0525  0.4344
 8312SOL    HW125835   4.593   6.147   1.370 -1.2359 -0.2729 -1.2459
 8312SOL    HW225836   4.611   5.986   1.392 -1.0480 -0.1410 -0.3772
 8313SOL     OW25837   3.467   4.320   5.451 -0.2906 -0.6770  0.4607
 8313SOL    HW125838   3.490   4.311   5.354 -1.2666 -0.5096  0.2034
 8313SOL    HW225839   3.384   4.268   5.471 -0.3342 -0.3690  1.1163
 8314SOL     OW25840   1.185   5.625   4.800  0.2300  0.2258  0.0244
 8314SOL    HW125841   1.155   5.578   4.717 -0.3325 -1.4965  1.1448
 8314SOL    HW225842   1.152   5.719   4.799 -0.4229  0.0069 -1.3429
 8315SOL     OW25843   1.695   4.850   2.570  0.0224  0.4437 -0.2722
 8315SOL    HW125844   1.687   4.765   2.623 -2.1754 -0.1183 -1.4022
 8315SOL    HW225845   1.784   4.893   2.590  0.2464 -0.9102  2.0618
 8316SOL     OW25846   2.640   4.173   6.103  0.3133  0.6236  0.4071
 8316SOL    HW125847   2.646   4.074   6.088  0.2989  0.7044 -0.1418
 8316SOL    HW225848   2.704   4.200   6.175 -0.8723 -0.0322  1.7608
 8317SOL     OW25849   6.394   6.428   4.594  0.1291 -0.0387 -0.2059
 8317SOL    HW125850   6.365   6.498   4.659  0.8421 -0.0699  0.1499
 8317SOL    HW225851   6.490   6.405   4.609  0.1144 -0.5459 -0.8188
 8318SOL     OW25852   6.676   0.130   4.477  0.1663 -0.0208 -0.3727
 8318SOL    HW125853   6.705   0.119   4.572 -0.9603  0.8207  0.0869
 8318SOL    HW225854   6.718   0.211   4.438  1.4048 -0.9030 -0.9241
 8319SOL     OW25855   4.715   2.742   2.248  0.5901  0.2518 -0.1090
 8319SOL    HW125856   4.710   2.683   2.167  2.0082  0.0129 -0.0461
 8319SOL    HW225857   4.694   2.836   2.223 -1.0044 -0.1360 -0.3464
 8320SOL     OW25858   6.717   2.107   4.818 -0.2907 -0.0551  0.0551
 8320SOL    HW125859   6.674   2.117   4.908 -0.6428 -0.2231 -0.0919
 8320SOL    HW225860   6.816   2.118   4.827 -0.1690 -1.4838  0.6846
 8321SOL     OW25861   6.570   6.212   2.310  0.0619 -0.2631  0.4152
 8321SOL    HW125862   6.519   6.212   2.396 -0.5568 -0.0183  0.0495
 8321SOL    HW225863   6.668   6.210   2.330 -0.0759 -0.1748  1.1258
 8322SOL     OW25864   3.781   1.159   6.761 -0.4099 -0.4281  0.3246
 8322SOL    HW125865   3.818   1.232   6.818 -1.1736  0.1540  0.0981
 8322SOL    HW225866   3.830   1.156   6.674 -1.5657  1.0854 -0.4340
 8323SOL     OW25867   0.044   4.867   5.165  0.1315  0.4021 -0.2510
 8323SOL    HW125868   0.033   4.873   5.066 -0.2253 -1.9056 -0.3875
 8323SOL    HW225869   0.141   4.867   5.189  0.2275  0.3238 -0.6408
 8324SOL     OW25870   1.617   4.158   3.644  0.0559 -0.2408  0.0766
 8324SOL    HW125871   1.688   4.168   3.713  1.7202  0.4446 -1.6244
 8324SOL    HW225872   1.590   4.062   3.638  1.2047 -0.6123  0.4540
 8325SOL     OW25873   3.002   1.757   1.862  0.6632  0.1735 -0.3095
 8325SOL    HW125874   2.924   1.820   1.864 -1.4087 -2.2520  1.0610
 8325SOL    HW225875   3.036   1.742   1.954 -0.5396 -2.5058 -0.2076
 8326SOL     OW25876   4.284   6.430   6.075  0.2668 -0.4138 -0.4027
 8326SOL    HW125877   4.305   6.394   6.166  0.5685  1.5051  0.3461
 8326SOL    HW225878   4.367   6.434   6.020  0.6044  0.8344  0.1708
 8327SOL     OW25879   2.594   6.054   5.399  0.2339 -0.5655  0.9890
 8327SOL    HW125880   2.502   6.094   5.404  0.3223 -0.3536  0.8856
 8327SOL    HW225881   2.608   5.995   5.479  0.4451  0.3290  1.6356
 8328SOL     OW25882   2.020   5.348   5.566 -0.0436 -0.0312 -0.4243
 8328SOL    HW125883   1.977   5.437   5.584  0.2250 -0.3014  1.7338
 8328SOL    HW225884   1.957   5.292   5.512 -0.9295  0.8471 -0.3345
 8329SOL     OW25885   6.921   1.224   1.712  0.1613 -0.4900  0.2267
 8329SOL    HW125886   6.945   1.320   1.704  0.9205 -0.5144  1.8037
 8329SOL    HW225887   6.977   1.170   1.648  0.0657  0.0535 -0.3208
 8330SOL     OW25888   0.858   2.608   5.533  0.0990 -0.0389  0.1136
 8330SOL    HW125889   0.921   2.682   5.513  0.4064 -0.6823 -1.5278
 8330SOL    HW225890   0.890   2.557   5.613  1.9524 -0.6237 -0.9325
 8331SOL     OW25891   3.763   1.943   1.191 -0.1981  0.0369  0.4163
 8331SOL    HW125892   3.837   1.933   1.257  0.1211 -0.1309  0.0410
 8331SOL    HW225893   3.787   2.016   1.126 -0.5013  0.1908  0.4748
 8332SOL     OW25894   4.280   0.195   5.082  0.5397 -0.3913 -0.1730
 8332SOL    HW125895   4.339   0.255   5.028  2.2974 -0.0746  1.9690
 8332SOL    HW225896   4.332   0.118   5.116 -0.8057 -1.1972  0.1331
 8333SOL     OW25897   4.229   5.654   3.568 -0.1396 -0.1686  0.1160
 8333SOL    HW125898   4.160   5.635   3.498 -2.1316  2.8253  1.0767
 8333SOL    HW225899   4.189   5.644   3.659  1.3594 -0.4123  0.7869
 8334SOL     OW25900   3.750   4.816   6.615 -0.1615  0.8063 -0.1707
 8334SOL    HW125901   3.716   4.905   6.646 -1.6767 -0.1534  1.0366
 8334SOL    HW225902   3.675   4.750   6.613  1.0950 -0.6765 -0.2452
 8335SOL     OW25903   1.769   0.741   1.803 -0.0657  0.0503 -0.1401
 8335SOL    HW125904   1.844   0.692   1.847  2.4012  2.2797 -1.5836
 8335SOL    HW225905   1.727   0.805   1.868 -0.5598 -0.9823  0.5849
 8336SOL     OW25906   1.607   6.584   1.529  0.2106 -0.0470 -0.0766
 8336SOL    HW125907   1.689   6.604   1.476  0.7855  0.5504  0.9995
 8336SOL    HW225908   1.574   6.493   1.505  0.8795 -0.0842 -0.9156
 8337SOL     OW25909   2.426   0.216   5.173 -0.5055 -0.5409 -0.4154
 8337SOL    HW125910   2.505   0.179   5.221 -0.5567  0.1586  0.2418
 8337SOL    HW225911   2.454   0.257   5.087  0.0424  0.7255  0.3403
 8338SOL     OW25912   6.890   5.826   6.811  0.1076  0.9781  0.1576
 8338SOL    HW125913   6.811   5.854   6.756 -0.6794 -0.5936  0.4338
 8338SOL    HW225914   6.931   5.745   6.770  0.8128  1.0424  0.7287
 8339SOL     OW25915   1.657   0.414   4.022 -0.0462  0.6105  0.0097
 8339SOL    HW125916   1.563   0.423   4.055 -0.1113  0.6332 -0.1803
 8339SOL    HW225917   1.718   0.403   4.099 -0.3384 -0.5408  0.1009
 8340SOL     OW25918   3.396   1.418   0.953  0.0184 -0.0455  0.8577
 8340SOL    HW125919   3.414   1.361   1.033  1.2271  0.4468  0.9638
 8340SOL    HW225920   3.397   1.361   0.871 -0.2987 -0.4088  1.1012
 8341SOL     OW25921   6.528   3.026   3.665 -0.5517 -0.0401 -0.3495
 8341SOL    HW125922   6.436   3.062   3.677  0.0027  1.1215  0.5127
 8341SOL    HW225923   6.549   2.963   3.740 -0.4095  0.1868 -0.1995
 8342SOL     OW25924   2.231   1.515   5.422  0.3433 -0.5630 -0.4851
 8342SOL    HW125925   2.276   1.462   5.494 -0.2283 -0.8409 -0.3212
 8342SOL    HW225926   2.147   1.556   5.459  0.6700  0.2949 -0.6655
 8343SOL     OW25927   6.780   3.113   5.295  0.1143  0.0357  0.1915
 8343SOL    HW125928   6.787   3.151   5.203 -0.9277 -1.8973 -0.7426
 8343SOL    HW225929   6.684   3.090   5.314  0.6819 -2.2682  0.5754
 8344SOL     OW25930   5.119   1.670   3.637 -0.1738 -0.4892 -0.1190
 8344SOL    HW125931   5.160   1.751   3.679  1.4279 -2.4142  2.3303
 8344SOL    HW225932   5.022   1.665   3.661  0.2862 -0.5458  1.9021
 8345SOL     OW25933   1.336   6.980   2.008 -0.2565  0.7247  0.3973
 8345SOL    HW125934   1.360   7.065   2.055 -0.5582  1.8075 -1.2864
 8345SOL    HW225935   1.358   6.989   1.911  1.2103 -1.7545  0.4145
 8346SOL     OW25936   1.464   1.000   5.306  0.0589  0.0899  0.4235
 8346SOL    HW125937   1.450   1.064   5.230  1.6347  0.0815  0.0982
 8346SOL    HW225938   1.384   1.002   5.366 -1.4699 -0.2809 -1.4936
 8347SOL     OW25939   0.331   3.931   3.698  0.1701 -0.0028 -0.5118
 8347SOL    HW125940   0.280   4.007   3.659 -0.5413 -0.2476 -0.0777
 8347SOL    HW225941   0.285   3.845   3.676  0.2661 -0.2115  0.0832
 8348SOL     OW25942   0.441   4.562   1.250 -0.2779 -0.2007  0.5952
 8348SOL    HW125943   0.496   4.504   1.309  0.9873  1.4535  1.1020
 8348SOL    HW225944   0.456   4.658   1.273 -1.4853  0.4021 -0.9193
 8349SOL     OW25945   6.247   6.118   3.818  0.1669  0.8796  0.5862
 8349SOL    HW125946   6.186   6.184   3.863  0.7726  0.6846  1.7466
 8349SOL    HW225947   6.312   6.082   3.885  0.8898  0.3049 -0.3930
 8350SOL     OW25948   2.899   2.133   6.609  0.2527  0.0729 -0.0495
 8350SOL    HW125949   2.852   2.108   6.524 -1.7097  1.6005  0.4933
 8350SOL    HW225950   2.929   2.051   6.657  1.8311 -0.8089 -2.3917
 8351SOL     OW25951   1.769   6.557   2.539  0.2211  0.1977 -0.1304
 8351SOL    HW125952   1.671   6.544   2.520  0.0443  0.3126  0.6410
 8351SOL    HW225953   1.815   6.591   2.457 -0.7067  1.7684 -0.0553
 8352SOL     OW25954   6.223   5.407   5.879 -0.3159  0.1249 -0.1345
 8352SOL    HW125955   6.236   5.368   5.788  0.4824 -0.4658  0.2257
 8352SOL    HW225956   6.137   5.457   5.881 -1.2121 -1.3398 -0.7021
 8353SOL     OW25957   2.972   3.820   2.349 -0.2293 -0.0059  0.1200
 8353SOL    HW125958   2.989   3.844   2.444 -1.9831 -1.1811  0.7960
 8353SOL    HW225959   2.882   3.856   2.321  0.9003  1.6714 -1.6282
 8354SOL     OW25960   2.438   4.440   2.908 -0.1496  0.1731 -0.0872
 8354SOL    HW125961   2.354   4.494   2.902 -1.2887 -1.3851  0.9585
 8354SOL    HW225962   2.471   4.439   3.002  0.5762  0.0917 -0.3339
 8355SOL     OW25963   6.016   3.863   6.316 -0.1269  0.7594 -0.1457
 8355SOL    HW125964   6.081   3.931   6.350  2.1209 -1.1329 -0.4056
 8355SOL    HW225965   6.040   3.838   6.222 -0.0654 -1.2347  0.3430
 8356SOL     OW25966   0.013   2.100   4.331  0.3404 -0.2665 -0.3461
 8356SOL    HW125967  -0.021   2.119   4.239  1.6954  0.3541 -0.7557
 8356SOL    HW225968   0.083   2.168   4.354 -0.8701  0.3741  1.6625
 8357SOL     OW25969   2.610   6.259   5.987 -0.0689  0.0768  0.1762
 8357SOL    HW125970   2.511   6.265   5.999  0.1805  0.2033  2.7097
 8357SOL    HW225971   2.639   6.325   5.918 -1.7487 -0.1355 -0.7997
 8358SOL     OW25972   3.100   3.746   3.593 -0.6804  0.1071  0.7454
 8358SOL    HW125973   3.130   3.841   3.586  0.0559 -0.1248  0.6922
 8358SOL    HW225974   3.039   3.735   3.671 -2.4821  1.0610 -0.4684
 8359SOL     OW25975   0.860   5.165   4.809  0.5629  0.7494  0.4802
 8359SOL    HW125976   0.801   5.235   4.850  0.6474 -0.3854  2.6832
 8359SOL    HW225977   0.900   5.109   4.881  1.0082 -1.1827 -1.1821
 8360SOL     OW25978   1.404   0.923   4.412 -0.2554 -0.3798 -0.2164
 8360SOL    HW125979   1.498   0.949   4.387  0.7547 -1.6200  2.0373
 8360SOL    HW225980   1.372   0.852   4.349  1.0340 -1.2376  0.0521
 8361SOL     OW25981   3.315   6.024   3.075  0.7060 -0.2660  0.0404
 8361SOL    HW125982   3.257   5.949   3.108  0.8427 -0.9326 -1.1445
 8361SOL    HW225983   3.289   6.109   3.120  0.4483 -0.9957  1.3147
 8362SOL     OW25984   0.484   2.468   1.849  0.2727  0.0370 -0.0151
 8362SOL    HW125985   0.501   2.396   1.916 -0.6184 -0.3895 -0.2417
 8362SOL    HW225986   0.512   2.437   1.758  0.4420  0.2047 -0.0228
 8363SOL     OW25987   4.415   6.101   4.700 -0.4789 -0.9565 -0.4365
 8363SOL    HW125988   4.426   6.021   4.641  1.7277 -1.1173  0.0800
 8363SOL    HW225989   4.505   6.128   4.735 -1.0509  2.0590 -0.9879
 8364SOL     OW25990   2.335   1.961   1.422  0.2860 -0.1729 -1.0333
 8364SOL    HW125991   2.364   1.928   1.512 -1.2233  0.3318 -0.3335
 8364SOL    HW225992   2.256   1.909   1.391 -0.3325  0.8563 -1.2276
 8365SOL     OW25993   4.672   3.114   5.465  0.3831 -0.4995 -0.0316
 8365SOL    HW125994   4.717   3.024   5.462  0.0923 -0.6545  0.2262
 8365SOL    HW225995   4.575   3.103   5.446  0.4995 -0.1212 -0.9169
 8366SOL     OW25996   5.534   5.497   6.344  0.1842 -0.5407 -0.3872
 8366SOL    HW125997   5.547   5.499   6.245 -1.7322  1.1339 -0.6681
 8366SOL    HW225998   5.592   5.566   6.387  1.0900 -1.3349 -0.3121
 8367SOL     OW25999   1.766   5.009   4.064 -0.0402  0.2943 -0.3277
 8367SOL    HW126000   1.859   5.016   4.099  0.2965 -0.2827 -1.0753
 8367SOL    HW226001   1.766   5.023   3.965 -0.7398  0.2444 -0.3428
 8368SOL     OW26002   2.634   2.010   4.195  0.4540 -0.5223 -0.6305
 8368SOL    HW126003   2.649   1.911   4.200  0.9245 -0.4693 -0.8792
 8368SOL    HW226004   2.539   2.031   4.217  0.5139 -0.9720  0.0845
 8369SOL     OW26005   0.366   5.821   3.419 -0.2288 -0.0373 -0.0194
 8369SOL    HW126006   0.282   5.841   3.367  0.4589 -1.5678 -1.8537
 8369SOL    HW226007   0.444   5.825   3.357  0.4467 -3.5963  0.4110
 8370SOL     OW26008   6.270   1.351   6.416  0.0201  0.0853  0.2965
 8370SOL    HW126009   6.242   1.441   6.450  0.2283 -0.7834  3.0794
 8370SOL    HW226010   6.194   1.286   6.427 -0.3019 -0.0395 -2.1581
 8371SOL     OW26011   1.259   5.835   0.091 -0.0043  0.0599  0.5698
 8371SOL    HW126012   1.176   5.858   0.042  0.0027  1.9146  1.3442
 8371SOL    HW226013   1.334   5.893   0.059  0.6456 -0.6000  0.8710
 8372SOL     OW26014   3.424   6.611   4.135  0.0017  0.8261  0.0296
 8372SOL    HW126015   3.514   6.570   4.119 -1.5514 -1.8215 -2.9072
 8372SOL    HW226016   3.410   6.687   4.072  0.4762  1.9349  1.2018
 8373SOL     OW26017   1.608   2.901   1.587 -0.0043  0.4525  0.1560
 8373SOL    HW126018   1.568   2.906   1.678  1.3405 -0.8656  0.8661
 8373SOL    HW226019   1.708   2.908   1.594  0.1892 -0.5654 -1.1119
 8374SOL     OW26020   0.810   3.774   2.183  0.1231 -0.5148  0.1818
 8374SOL    HW126021   0.828   3.873   2.190  1.6462 -0.5279 -2.2771
 8374SOL    HW226022   0.715   3.760   2.155  0.1225  0.3045 -0.2767
 8375SOL     OW26023   5.030   6.946   1.083 -0.4875 -0.5334  0.1075
 8375SOL    HW126024   5.064   6.852   1.082 -1.1298 -0.7996 -1.9589
 8375SOL    HW226025   5.058   6.991   1.168  0.9579 -2.1637  0.5467
 8376SOL     OW26026   1.094   0.832   0.591 -0.1434 -0.5004 -0.6889
 8376SOL    HW126027   1.134   0.902   0.532  0.4534 -0.2355  0.0104
 8376SOL    HW226028   1.009   0.867   0.631  0.7453  0.3107  0.5793
 8377SOL     OW26029   1.573   1.413   6.888 -0.7113 -0.1169 -0.2102
 8377SOL    HW126030   1.620   1.360   6.817  1.4520 -0.7356  1.5627
 8377SOL    HW226031   1.611   1.505   6.891 -0.9374 -0.0304  0.0089
 8378SOL     OW26032   4.461   6.942   3.086 -0.0454 -0.4965 -0.3054
 8378SOL    HW126033   4.425   6.869   3.143 -0.1263  0.4931  0.9708
 8378SOL    HW226034   4.402   6.955   3.007 -2.0963  0.4992  1.2844
 8379SOL     OW26035   3.232   5.760   3.089 -0.6084  0.1127 -0.7785
 8379SOL    HW126036   3.289   5.779   3.169 -1.8041 -1.5501  0.5252
 8379SOL    HW226037   3.263   5.676   3.045 -0.6816  0.4054 -1.4080
 8380SOL     OW26038   1.558   3.472   0.595  0.3743  0.5145  0.4216
 8380SOL    HW126039   1.639   3.420   0.569  0.3053  1.2659 -1.4863
 8380SOL    HW226040   1.549   3.552   0.534 -2.0519  0.1755  0.2483
 8381SOL     OW26041   6.656   1.678   5.474  0.8547  0.1269 -0.7301
 8381SOL    HW126042   6.687   1.773   5.481  0.2497  0.2919 -0.2107
 8381SOL    HW226043   6.642   1.655   5.377 -0.5184  1.0854 -0.7966
 8382SOL     OW26044   0.563   5.786   1.970  0.2255  0.2850  0.7707
 8382SOL    HW126045   0.603   5.711   2.023  0.8973  0.6529  0.7892
 8382SOL    HW226046   0.596   5.783   1.876  0.1925  0.5113  0.7506
 8383SOL     OW26047   1.072   3.897   5.525 -0.6437  0.0541 -0.6148
 8383SOL    HW126048   1.009   3.959   5.479 -1.6283 -0.4137  0.0759
 8383SOL    HW226049   1.165   3.911   5.489 -1.0435  1.1061 -1.2757
 8384SOL     OW26050   5.569   2.372   3.745  0.1142 -0.1096  0.4749
 8384SOL    HW126051   5.572   2.443   3.815 -0.9617  0.9670 -0.5280
 8384SOL    HW226052   5.657   2.324   3.743  1.4166  2.1381  0.2510
 8385SOL     OW26053   5.688   1.316   6.346  0.2157 -0.0573 -0.1990
 8385SOL    HW126054   5.626   1.334   6.270  0.1652 -0.2851 -0.2123
 8385SOL    HW226055   5.783   1.320   6.313  0.2315  0.9262 -0.0454
 8386SOL     OW26056   0.170   1.777   6.161 -0.1130  0.3470 -0.7471
 8386SOL    HW126057   0.140   1.767   6.066  0.3165 -1.7199 -0.7176
 8386SOL    HW226058   0.235   1.704   6.183 -0.5388  0.5245  1.2731
 8387SOL     OW26059   5.798   5.999   1.155  0.0272  0.7601  0.0616
 8387SOL    HW126060   5.797   5.899   1.160 -1.1855  0.6942 -0.8132
 8387SOL    HW226061   5.760   6.037   1.240  3.7340  0.6675  1.9622
 8388SOL     OW26062   1.058   2.495   3.235  0.4533 -0.0097  0.0327
 8388SOL    HW126063   1.101   2.586   3.241 -1.2393  0.7847  0.7011
 8388SOL    HW226064   1.033   2.464   3.327 -2.5487  0.6618 -0.4628
 8389SOL     OW26065   4.691   2.413   2.600  0.0200 -0.3866  0.6451
 8389SOL    HW126066   4.616   2.467   2.563 -1.1554 -0.3242  2.9357
 8389SOL    HW226067   4.699   2.328   2.548 -3.6096 -1.7520  1.9668
 8390SOL     OW26068   0.006   0.246   6.051 -0.1333 -0.0405 -0.2213
 8390SOL    HW126069   0.022   0.337   6.013  0.5814 -0.3812 -0.7499
 8390SOL    HW226070  -0.081   0.246   6.100  0.4181  1.2494  0.8136
 8391SOL     OW26071   5.073   4.718   3.325 -0.2392  0.1654 -0.7250
 8391SOL    HW126072   5.134   4.639   3.330 -0.2626  0.2186  0.9614
 8391SOL    HW226073   5.062   4.746   3.230 -0.0811 -1.7403 -1.3447
 8392SOL     OW26074   5.776   5.349   6.394 -0.1499 -0.4492 -0.6865
 8392SOL    HW126075   5.777   5.254   6.427  0.5621  0.2069  1.3074
 8392SOL    HW226076   5.685   5.370   6.357 -0.4288 -1.7903 -0.8331
 8393SOL     OW26077   2.088   1.534   0.237  0.1070  0.2189 -0.0669
 8393SOL    HW126078   2.025   1.605   0.265  1.0105  0.9092  0.2591
 8393SOL    HW226079   2.043   1.473   0.172 -1.3419 -0.1538  1.2233
 8394SOL     OW26080   0.089   2.652   2.960  0.2825 -0.3218  0.3460
 8394SOL    HW126081  -0.001   2.682   2.929  0.4187  1.2128  1.3450
 8394SOL    HW226082   0.159   2.714   2.925  0.6709  0.0426  1.6975
 8395SOL     OW26083   6.866   5.912   3.185 -0.1421  0.3864 -0.0673
 8395SOL    HW126084   6.891   5.986   3.122  1.4455  0.7910  0.9972
 8395SOL    HW226085   6.767   5.914   3.200 -0.0547  2.8773  0.6153
 8396SOL     OW26086   1.399   0.431   5.214  0.0381  0.0344 -0.3592
 8396SOL    HW126087   1.388   0.523   5.251 -1.7589  0.2152 -1.2389
 8396SOL    HW226088   1.490   0.422   5.173  0.4549  1.2070  0.2642
 8397SOL     OW26089   2.638   4.751   5.750  0.5690 -0.0334 -0.1436
 8397SOL    HW126090   2.736   4.731   5.741  0.2607 -0.8134 -2.5140
 8397SOL    HW226091   2.601   4.701   5.828  1.6828 -1.4269 -0.4491
 8398SOL     OW26092   0.769   5.913   2.796 -0.6125  0.1024 -0.3716
 8398SOL    HW126093   0.721   5.999   2.780  0.7950  0.6516 -2.0397
 8398SOL    HW226094   0.773   5.861   2.710  0.1401 -0.7718  0.1765
 8399SOL     OW26095   3.757   5.904   2.517  0.1302  0.0180  0.0919
 8399SOL    HW126096   3.836   5.965   2.529  0.0278  0.4710 -1.3405
 8399SOL    HW226097   3.790   5.810   2.506  0.4170  0.0930  0.2824
 8400SOL     OW26098   1.026   6.926   4.280  0.1038 -0.2246  0.0915
 8400SOL    HW126099   1.034   7.019   4.244  0.8038 -1.2788 -2.7035
 8400SOL    HW226100   1.117   6.887   4.293 -0.1979 -0.9054  0.1965
 8401SOL     OW26101   6.281   0.045   5.986  0.0977  0.0902 -1.0263
 8401SOL    HW126102   6.262   0.096   6.070 -0.3223 -1.1539 -0.3534
 8401SOL    HW226103   6.365  -0.008   5.997 -0.8486 -1.4088 -0.7441
 8402SOL     OW26104   0.037   6.873   6.955 -0.1805  0.4089  0.4349
 8402SOL    HW126105   0.123   6.848   6.911 -0.5777 -1.3536  0.5735
 8402SOL    HW226106   0.051   6.954   7.012  1.9512 -1.0744  2.1681
 8403SOL     OW26107   1.135   5.371   2.598  0.1210  0.0817  0.1407
 8403SOL    HW126108   1.118   5.429   2.677  0.7766  0.6260 -0.1082
 8403SOL    HW226109   1.218   5.401   2.551  1.0452 -1.6438  0.5694
 8404SOL     OW26110   1.584   1.079   0.077  0.1974  0.2124 -0.4051
 8404SOL    HW126111   1.620   1.067  -0.016 -0.0817 -1.1945 -0.3603
 8404SOL    HW226112   1.484   1.075   0.074  0.0630  2.3839 -0.3050
 8405SOL     OW26113   6.217   1.315   5.845  0.0909  0.4591  0.1056
 8405SOL    HW126114   6.273   1.320   5.927  0.5460 -1.6766 -0.0085
 8405SOL    HW226115   6.121   1.303   5.871  0.2927 -0.7231  0.3611
 8406SOL     OW26116   3.286   1.995   1.487 -0.0151 -0.2410 -0.2542
 8406SOL    HW126117   3.380   2.016   1.462 -0.4112 -0.1031 -1.7191
 8406SOL    HW226118   3.226   2.012   1.409 -1.2918 -0.1172  0.7201
 8407SOL     OW26119   5.383   6.877   5.150 -0.1619  0.2785  0.3475
 8407SOL    HW126120   5.437   6.919   5.077  0.4181  0.7341  1.0322
 8407SOL    HW226121   5.319   6.944   5.187 -0.4436  0.0527  0.2757
 8408SOL     OW26122   0.453   5.866   4.631 -0.2020  0.3470  0.0573
 8408SOL    HW126123   0.434   5.784   4.685 -2.7566  0.9126  0.1457
 8408SOL    HW226124   0.477   5.942   4.692  0.8376  0.0217  0.0701
 8409SOL     OW26125   2.791   4.764   1.485 -0.1801  0.0736 -0.0970
 8409SOL    HW126126   2.702   4.798   1.513 -0.2988  0.2413 -0.6587
 8409SOL    HW226127   2.846   4.744   1.566 -0.5993  0.2986  0.2503
 8410SOL     OW26128   0.573   3.347   3.980  0.8902 -0.3862 -0.4375
 8410SOL    HW126129   0.651   3.357   3.918  0.4568  2.1305 -0.6470
 8410SOL    HW226130   0.518   3.430   3.978 -0.0766 -0.9018  2.0685
 8411SOL     OW26131   4.987   4.464   4.621 -0.8229 -0.4773  0.6931
 8411SOL    HW126132   4.929   4.414   4.557 -0.8938 -0.5704  0.8297
 8411SOL    HW226133   4.944   4.551   4.645 -0.8275 -0.4725  0.6691
 8412SOL     OW26134   2.086   0.298   6.765 -0.3209 -0.2133 -0.4485
 8412SOL    HW126135   2.051   0.345   6.847 -3.7051  1.0536 -2.4285
 8412SOL    HW226136   2.080   0.199   6.778  0.7280 -0.0861  1.3592
 8413SOL     OW26137   6.675   5.922   6.168  0.0599 -0.6525 -0.0679
 8413SOL    HW126138   6.767   5.922   6.207 -0.9973  1.0878  2.7550
 8413SOL    HW226139   6.642   5.828   6.160  1.9869 -1.2974 -1.0532
 8414SOL     OW26140   4.396   6.728   0.568 -0.3728  0.2810 -0.5681
 8414SOL    HW126141   4.462   6.752   0.497 -0.3973  0.0880 -0.6554
 8414SOL    HW226142   4.351   6.811   0.601  1.4387  0.7437  0.9959
 8415SOL     OW26143   0.988   5.050   5.030  0.0706  0.3906 -0.5824
 8415SOL    HW126144   1.087   5.036   5.031  0.0972  0.5509 -0.8488
 8415SOL    HW226145   0.943   4.965   5.056  0.3018  0.6061  0.5869
 8416SOL     OW26146   6.418   2.852   5.556  0.4178  0.3518 -0.1138
 8416SOL    HW126147   6.319   2.856   5.556  0.4122  0.2256 -0.2485
 8416SOL    HW226148   6.452   2.844   5.650  0.2759 -0.2496 -0.1144
 8417SOL     OW26149   5.076   6.624   3.725  0.1395 -1.1000  0.6482
 8417SOL    HW126150   5.131   6.705   3.707 -2.2194  0.1475 -1.5451
 8417SOL    HW226151   5.043   6.626   3.819  1.4616 -0.4241  1.1177
 8418SOL     OW26152   5.114   6.137   2.595  0.3516 -0.1514 -0.2073
 8418SOL    HW126153   5.101   6.233   2.620 -1.6497 -0.4576  0.0873
 8418SOL    HW226154   5.084   6.078   2.670  1.5737 -1.0271 -0.3768
 8419SOL     OW26155   4.142   3.652   0.957  0.0994 -0.3409 -0.1499
 8419SOL    HW126156   4.150   3.636   1.056  0.2284  1.7631  0.2254
 8419SOL    HW226157   4.153   3.750   0.938  0.4139 -0.7459 -2.3009
 8420SOL     OW26158   0.701   3.517   3.103  0.2688  0.5879  0.5707
 8420SOL    HW126159   0.773   3.504   3.035 -0.5216  0.3230 -0.2348
 8420SOL    HW226160   0.683   3.615   3.115  0.2696  0.6268  0.2497
 8421SOL     OW26161   1.029   5.074   2.002  0.0921  0.6433  0.6567
 8421SOL    HW126162   1.061   5.158   2.045 -1.7332  1.2286  0.9793
 8421SOL    HW226163   1.026   5.000   2.070  0.2908  0.7101  0.7374
 8422SOL     OW26164   6.583   3.118   1.578  0.1190  0.3977 -0.0827
 8422SOL    HW126165   6.657   3.166   1.625  1.8780 -0.7769 -1.4604
 8422SOL    HW226166   6.623   3.053   1.513 -2.0874 -2.5700  1.2984
 8423SOL     OW26167   4.732   6.217   1.256  0.0898 -0.2724 -0.0153
 8423SOL    HW126168   4.761   6.122   1.244 -1.6008 -0.8027 -0.2027
 8423SOL    HW226169   4.698   6.253   1.169 -0.9325 -0.1066  0.4328
 8424SOL     OW26170   2.882   4.345   1.160  0.1380 -0.0536  0.1421
 8424SOL    HW126171   2.878   4.370   1.256 -1.2911  0.6921 -0.0951
 8424SOL    HW226172   2.865   4.425   1.103 -2.0129 -1.0121 -0.6694
 8425SOL     OW26173   1.360   1.959   4.823  0.0550 -0.2425  0.2846
 8425SOL    HW126174   1.323   1.897   4.893 -1.1358 -0.2251 -0.3112
 8425SOL    HW226175   1.295   2.033   4.807  0.1567 -0.4433 -1.0967
 8426SOL     OW26176   4.959   2.718   1.167  0.1540  0.9447 -0.2966
 8426SOL    HW126177   5.016   2.742   1.088  2.7787  2.0001  1.7834
 8426SOL    HW226178   5.002   2.644   1.218 -0.7434  1.2395  0.9411
 8427SOL     OW26179   3.507   3.907   1.919 -0.0336 -0.3396 -0.0336
 8427SOL    HW126180   3.569   3.842   1.874  0.4970 -0.2127  0.5114
 8427SOL    HW226181   3.558   3.962   1.985 -0.1728  1.5922 -1.4391
 8428SOL     OW26182   2.197   3.819   3.263 -0.1726 -0.2185  0.7743
 8428SOL    HW126183   2.163   3.781   3.177  0.8330  1.3815 -0.3662
 8428SOL    HW226184   2.234   3.910   3.248  4.3884 -1.6306  1.9233
 8429SOL     OW26185   0.930   0.418   3.773 -0.5988 -0.3191 -0.4250
 8429SOL    HW126186   0.930   0.450   3.678 -2.0470 -1.6098 -0.8991
 8429SOL    HW226187   0.891   0.326   3.777  2.5667 -1.7527  0.9885
 8430SOL     OW26188   1.489   1.294   1.673 -0.4228  0.6234 -0.3751
 8430SOL    HW126189   1.568   1.234   1.675 -0.0533  1.1149  0.3938
 8430SOL    HW226190   1.429   1.272   1.751 -0.1706  1.3891  0.0431
 8431SOL     OW26191   4.036   0.131   5.311  0.1187 -0.5696  0.6352
 8431SOL    HW126192   4.118   0.171   5.269  0.4756 -0.3829  1.4924
 8431SOL    HW226193   4.045   0.031   5.310  0.1654 -0.5654  0.3606
 8432SOL     OW26194   5.351   3.715   3.364  0.2701 -0.0470 -0.2100
 8432SOL    HW126195   5.416   3.641   3.383 -0.2763 -0.5426 -0.2304
 8432SOL    HW226196   5.370   3.792   3.425 -0.2791 -0.8989  1.0805
 8433SOL     OW26197   1.714   5.002   6.539 -0.1450  0.3130 -0.5811
 8433SOL    HW126198   1.730   5.014   6.441 -1.5924  0.5867 -0.7962
 8433SOL    HW226199   1.717   5.091   6.584  0.0637  0.2363 -0.4396
 8434SOL     OW26200   6.701   4.401   4.584 -0.0644  0.3949 -0.2704
 8434SOL    HW126201   6.682   4.303   4.588  0.4203  0.2629 -1.0502
 8434SOL    HW226202   6.654   4.447   4.660 -0.3126 -0.4312  0.0896
 8435SOL     OW26203   6.937   3.448   0.521  0.3120  0.3610 -0.1948
 8435SOL    HW126204   6.852   3.411   0.558 -0.0862  0.5729 -0.8796
 8435SOL    HW226205   6.998   3.472   0.596  0.1454 -0.6676  0.2771
 8436SOL     OW26206   4.545   4.469   5.988 -0.0538 -0.2425 -0.1111
 8436SOL    HW126207   4.448   4.469   5.963 -0.1511 -1.4198  0.2075
 8436SOL    HW226208   4.586   4.382   5.961  1.1330  0.5677 -1.0221
 8437SOL     OW26209   3.151   3.311   5.909  0.2790  0.0370 -1.0014
 8437SOL    HW126210   3.219   3.247   5.943 -0.1790 -0.1117 -0.3468
 8437SOL    HW226211   3.063   3.293   5.953 -0.2847 -0.0297 -2.1240
 8438SOL     OW26212   0.898   5.284   1.510  0.1549  0.0715 -0.5117
 8438SOL    HW126213   0.973   5.219   1.497 -0.7802 -0.9013 -1.2137
 8438SOL    HW226214   0.924   5.373   1.472  1.4467  0.1427  0.4561
 8439SOL     OW26215   2.188   6.050   6.097 -0.0561  0.4455  0.6556
 8439SOL    HW126216   2.092   6.057   6.122 -0.4071  2.1419 -0.9806
 8439SOL    HW226217   2.222   5.959   6.122 -2.1037 -0.2450  1.1324
 8440SOL     OW26218   5.129   2.939   6.760 -0.8690 -0.0699  0.3700
 8440SOL    HW126219   5.110   2.917   6.664 -1.4226  0.5952  0.3237
 8440SOL    HW226220   5.221   2.975   6.768 -0.2093 -1.6617  0.3363
 8441SOL     OW26221   5.678   6.799   6.082 -0.2373 -0.0050 -0.1606
 8441SOL    HW126222   5.687   6.787   6.181  1.1358  1.0892 -0.1195
 8441SOL    HW226223   5.582   6.788   6.055 -0.2036 -3.6711  0.7861
 8442SOL     OW26224   3.324   6.878   6.432  0.2223  0.3401 -0.0513
 8442SOL    HW126225   3.320   6.906   6.528 -0.5330 -1.7543  0.5704
 8442SOL    HW226226   3.272   6.794   6.419  0.1457  0.6781 -2.3608
 8443SOL     OW26227   3.198   7.003   5.498  0.1508  0.3928  0.2635
 8443SOL    HW126228   3.222   6.985   5.402  0.4667  2.6310 -0.1278
 8443SOL    HW226229   3.280   6.994   5.555 -0.0102 -0.8107  0.3372
 8444SOL     OW26230   6.358   6.005   2.624 -0.2466 -0.1632 -0.1204
 8444SOL    HW126231   6.329   6.099   2.645 -0.3605 -0.0820 -0.6402
 8444SOL    HW226232   6.280   5.954   2.587 -0.3769 -0.6747  0.8197
 8445SOL     OW26233   3.829   0.620   5.802  0.4368  0.1149 -0.4750
 8445SOL    HW126234   3.730   0.632   5.797  0.5432  0.5697 -2.2949
 8445SOL    HW226235   3.853   0.568   5.883 -1.2208  0.7332  0.4461
 8446SOL     OW26236   2.692   0.450   6.314  0.1876 -0.0256 -0.3257
 8446SOL    HW126237   2.605   0.498   6.327  0.6433  0.4430  1.1378
 8446SOL    HW226238   2.767   0.516   6.313  0.5107 -0.3567 -2.2774
 8447SOL     OW26239   6.322   4.258   3.748  0.2138  0.1488 -0.1709
 8447SOL    HW126240   6.407   4.283   3.793  0.0834  1.8347 -0.7858
 8447SOL    HW226241   6.339   4.239   3.651  0.0204 -0.4250 -0.0987
 8448SOL     OW26242   6.521   0.625   2.037 -0.3441  0.1249  0.4187
 8448SOL    HW126243   6.515   0.569   2.120 -0.9120 -1.3499 -0.5769
 8448SOL    HW226244   6.444   0.605   1.978 -0.1310  1.4246 -0.3222
 8449SOL     OW26245   1.837   1.514   0.478  0.5189 -0.0859  0.7509
 8449SOL    HW126246   1.806   1.458   0.401  0.4989  1.7586 -0.6414
 8449SOL    HW226247   1.911   1.467   0.526  1.4532 -0.6997 -1.2241
 8450SOL     OW26248   1.164   2.167   3.388  0.5746 -0.7081  0.0012
 8450SOL    HW126249   1.113   2.210   3.462 -1.0655 -0.9502 -0.9483
 8450SOL    HW226250   1.131   2.074   3.374  0.4087 -0.4553 -1.4403
 8451SOL     OW26251   4.671   0.013   2.347 -0.8178  0.0396  0.3607
 8451SOL    HW126252   4.719   0.000   2.260  0.8064  1.2926  1.0064
 8451SOL    HW226253   4.728  -0.023   2.421 -1.3279  0.6837  1.0771
 8452SOL     OW26254   4.442   6.492   2.987 -0.3164  0.0832 -0.2976
 8452SOL    HW126255   4.416   6.424   2.918  2.3692 -1.3060 -0.0550
 8452SOL    HW226256   4.484   6.446   3.065 -3.2090  1.5990  2.4144
 8453SOL     OW26257   1.388   5.076   0.445  0.1569 -0.1815  0.0278
 8453SOL    HW126258   1.465   5.013   0.450 -0.2371 -0.6814 -0.0754
 8453SOL    HW226259   1.328   5.064   0.524 -0.0425 -0.0985 -0.1069
 8454SOL     OW26260   4.685   6.667   3.968 -0.2086  0.0269 -0.5189
 8454SOL    HW126261   4.699   6.623   4.057  0.8019 -0.1470 -0.7486
 8454SOL    HW226262   4.729   6.757   3.968  0.2926 -0.2133 -1.0249
 8455SOL     OW26263   5.007   4.195   7.013 -0.5572 -0.0679  0.2560
 8455SOL    HW126264   4.988   4.157   6.923 -1.1622  0.2493  0.2461
 8455SOL    HW226265   4.927   4.246   7.045  0.4197  1.6856  0.0146
 8456SOL     OW26266   0.962   2.946   5.828 -0.3852  0.0043  0.3683
 8456SOL    HW126267   0.904   2.976   5.904  0.5429  0.1670  1.0332
 8456SOL    HW226268   1.054   2.927   5.862  0.2865  0.9044 -0.8554
 8457SOL     OW26269   3.032   2.300   0.111  0.2138  0.5751  0.0481
 8457SOL    HW126270   3.055   2.208   0.145  3.8161  0.7711 -1.3767
 8457SOL    HW226271   2.992   2.292   0.020  1.8082  0.3930 -0.6655
 8458SOL     OW26272   3.475   3.961   0.385 -0.3292  0.5101 -0.3898
 8458SOL    HW126273   3.523   4.034   0.434 -1.3107  0.7346  0.2582
 8458SOL    HW226274   3.503   3.872   0.421 -0.9876  0.6705  0.5630
 8459SOL     OW26275   2.661   5.131   0.730  0.1212  0.3673  0.4161
 8459SOL    HW126276   2.563   5.140   0.713  0.1652 -0.2871 -0.2220
 8459SOL    HW226277   2.704   5.221   0.722 -0.1504  0.3940 -1.1665
 8460SOL     OW26278   2.002   5.993   3.566 -0.0811 -0.6166 -0.6945
 8460SOL    HW126279   2.064   5.926   3.606  0.5814 -0.0014 -0.6789
 8460SOL    HW226280   2.044   6.084   3.569 -1.3738 -0.0150  0.2146
 8461SOL     OW26281   1.732   5.716   4.749 -0.0047 -0.3569  0.6301
 8461SOL    HW126282   1.808   5.742   4.808 -0.3757 -2.2925  2.0395
 8461SOL    HW226283   1.652   5.771   4.770  0.1883 -0.2828  1.1678
 8462SOL     OW26284   2.592   5.748   1.269 -0.4606 -0.0087 -0.4245
 8462SOL    HW126285   2.569   5.744   1.366  0.4593  0.2341 -0.1836
 8462SOL    HW226286   2.684   5.786   1.258 -0.6797  0.2629 -1.4124
 8463SOL     OW26287   2.850   1.617   6.463  0.2703 -0.1287 -0.2027
 8463SOL    HW126288   2.874   1.553   6.390  0.1223  0.8063 -1.1075
 8463SOL    HW226289   2.752   1.614   6.479  0.5509 -1.9184  1.5309
 8464SOL     OW26290   4.436   2.148   1.234  0.1653 -0.0704  0.1408
 8464SOL    HW126291   4.395   2.058   1.250  1.5023 -0.6540  0.4789
 8464SOL    HW226292   4.482   2.148   1.145 -0.6481  0.6166 -0.2954
 8465SOL     OW26293   5.337   3.589   6.173 -0.2467 -0.5791  0.0701
 8465SOL    HW126294   5.255   3.569   6.119 -0.0914 -1.3600  0.1163
 8465SOL    HW226295   5.349   3.519   6.243 -0.9258  0.8661  1.7167
 8466SOL     OW26296   3.445   6.640   5.249  0.2531  0.0058  0.5516
 8466SOL    HW126297   3.381   6.657   5.323  0.1716 -0.0934  0.5046
 8466SOL    HW226298   3.501   6.560   5.270  1.6006  1.1416  1.4106
 8467SOL     OW26299   1.096   6.381   6.230  0.4577  0.4984 -0.7548
 8467SOL    HW126300   1.095   6.475   6.197 -0.1985  1.1147  0.8916
 8467SOL    HW226301   1.166   6.371   6.300 -1.0187  0.4230  0.7742
 8468SOL     OW26302   3.947   5.254   5.590 -0.2630  0.1498 -0.3485
 8468SOL    HW126303   4.028   5.234   5.644  0.3993  1.8814 -0.6546
 8468SOL    HW226304   3.902   5.336   5.626 -1.3604 -0.2387 -0.7752
 8469SOL     OW26305   6.372   0.154   2.716  0.6128 -0.3372  0.3405
 8469SOL    HW126306   6.367   0.207   2.801 -0.8885  2.1284 -1.1804
 8469SOL    HW226307   6.283   0.114   2.696  0.6986 -0.0857 -0.5647
 8470SOL     OW26308   6.426   1.953   4.487  0.4048  0.0001 -0.1879
 8470SOL    HW126309   6.339   1.916   4.520  0.6480 -1.3724 -1.0129
 8470SOL    HW226310   6.501   1.917   4.544  0.8595 -2.6175 -2.2361
 8471SOL     OW26311   1.486   2.762   6.566  0.0824 -0.1813  0.0897
 8471SOL    HW126312   1.388   2.782   6.565  0.5202  2.2524 -0.6110
 8471SOL    HW226313   1.534   2.836   6.613  1.6733 -0.9135 -0.3427
 8472SOL     OW26314   5.812   6.807   3.645  0.5000 -0.4580  0.2700
 8472SOL    HW126315   5.766   6.735   3.698  4.0018 -2.5061  0.8497
 8472SOL    HW226316   5.781   6.896   3.676 -3.2352 -1.5965  0.3123
 8473SOL     OW26317   4.979   2.954   3.532 -0.2834  0.0346 -0.1498
 8473SOL    HW126318   5.048   2.967   3.461  0.0048 -1.3149 -0.1472
 8473SOL    HW226319   4.998   2.869   3.581 -1.6282 -0.0617  0.2318
 8474SOL     OW26320   1.870   0.602   4.326  0.0898  0.4320 -0.1139
 8474SOL    HW126321   1.813   0.650   4.260 -0.2792 -1.6019 -1.3871
 8474SOL    HW226322   1.965   0.604   4.296  0.1915  1.0236  0.2478
 8475SOL     OW26323   2.629   6.779   1.615  0.6000  0.4049  0.3076
 8475SOL    HW126324   2.596   6.822   1.531 -1.3931  1.7482  1.6584
 8475SOL    HW226325   2.650   6.683   1.598 -1.8543  0.0529 -1.2908
 8476SOL     OW26326   0.884   6.717   2.138  0.1608 -0.3413  0.0438
 8476SOL    HW126327   0.941   6.779   2.191 -0.5472 -0.1429  0.6016
 8476SOL    HW226328   0.924   6.625   2.139  0.3617 -0.2549  0.6090
 8477SOL     OW26329   4.076   2.191   6.239 -0.2809 -0.5698 -0.4811
 8477SOL    HW126330   3.987   2.202   6.285 -0.1322 -0.6134 -0.1820
 8477SOL    HW226331   4.065   2.209   6.141 -0.8276 -1.5496 -0.6081
 8478SOL     OW26332   0.217   2.401   3.064  0.1124 -0.7538  0.1778
 8478SOL    HW126333   0.192   2.485   3.016  0.7098 -0.8762 -0.3656
 8478SOL    HW226334   0.161   2.325   3.031 -0.0293 -0.6826  0.2544
 8479SOL     OW26335   0.098   6.920   3.607  0.1802  0.7360 -0.0521
 8479SOL    HW126336   0.037   6.931   3.685  0.9367  0.6013  0.5663
 8479SOL    HW226337   0.193   6.938   3.635  0.5609 -0.1301 -0.7387
 8480SOL     OW26338   3.362   1.283   4.878 -0.2578 -0.6634 -0.3391
 8480SOL    HW126339   3.389   1.244   4.790  1.5899  1.4211 -0.7950
 8480SOL    HW226340   3.379   1.217   4.951  1.7549 -1.1068 -1.1608
 8481SOL     OW26341   3.441   3.162   5.906 -0.0911  0.1950 -0.0368
 8481SOL    HW126342   3.387   3.154   5.821  0.7496 -1.2014 -0.4821
 8481SOL    HW226343   3.451   3.258   5.931 -1.8400  0.5457 -0.5507
 8482SOL     OW26344   6.997   3.197   5.477  0.1884  0.4815  0.3410
 8482SOL    HW126345   6.975   3.195   5.379  2.0778  0.2456 -0.1213
 8482SOL    HW226346   6.972   3.286   5.515 -0.2646  0.6912 -0.4221
 8483SOL     OW26347   4.487   6.056   4.213 -0.5099  0.5531 -0.0858
 8483SOL    HW126348   4.444   6.103   4.291 -1.2444 -0.3716  0.0919
 8483SOL    HW226349   4.420   5.993   4.172  0.5491 -0.6085 -0.0794
 8484SOL     OW26350   0.040   0.816   1.157  0.2339 -0.1779  0.0728
 8484SOL    HW126351   0.002   0.888   1.100  0.0643  0.6535  1.2118
 8484SOL    HW226352   0.004   0.727   1.128 -2.1695  0.5176  0.7432
 8485SOL     OW26353   3.172   5.970   0.771  0.1173 -0.2059  0.5960
 8485SOL    HW126354   3.195   5.873   0.765 -0.2896 -0.2304 -1.2910
 8485SOL    HW226355   3.124   5.988   0.856  2.4994 -1.1209  2.2591
 8486SOL     OW26356   0.580   5.953   0.594  0.1262  0.1328 -0.3010
 8486SOL    HW126357   0.596   6.018   0.668 -0.4656 -0.1036  0.0426
 8486SOL    HW226358   0.483   5.955   0.568  0.2057 -0.2406 -0.6315
 8487SOL     OW26359   0.366   4.419   0.058 -0.8789  0.5802  0.0376
 8487SOL    HW126360   0.388   4.417   0.156  0.5052 -0.0551 -0.2564
 8487SOL    HW226361   0.269   4.439   0.046 -1.5350 -1.2500  1.6263
 8488SOL     OW26362   3.792   4.413   5.301  0.0056  0.3996 -0.4364
 8488SOL    HW126363   3.732   4.339   5.273 -1.0280  0.6698  0.9384
 8488SOL    HW226364   3.774   4.437   5.397  2.6082  0.2002  0.2041
 8489SOL     OW26365   5.867   1.635   3.910 -0.2810  0.2877 -0.3826
 8489SOL    HW126366   5.946   1.626   3.849  0.7161 -0.4587  0.9611
 8489SOL    HW226367   5.886   1.588   3.996 -2.2686 -0.0315 -0.0689
 8490SOL     OW26368   1.300   6.082   4.083 -0.8052 -0.1468  0.3379
 8490SOL    HW126369   1.364   6.121   4.017 -2.3475 -0.2145 -1.2599
 8490SOL    HW226370   1.347   6.069   4.171  1.0769  0.6964 -0.4843
 8491SOL     OW26371   5.061   2.321   1.915  0.4579 -0.5817  0.0798
 8491SOL    HW126372   5.142   2.371   1.946 -0.7892  0.6176  1.5262
 8491SOL    HW226373   5.039   2.248   1.980  1.8418 -2.6961 -1.6478
 8492SOL     OW26374   2.078   3.171   4.535  0.0147  0.1301  0.3767
 8492SOL    HW126375   2.134   3.194   4.615  0.7986  0.6595 -0.3057
 8492SOL    HW226376   1.998   3.119   4.564  1.5037 -1.8065  1.2649
 8493SOL     OW26377   3.632   1.090   1.211 -0.0449 -0.1319 -0.3285
 8493SOL    HW126378   3.685   1.077   1.127 -0.8341 -2.2093 -0.5547
 8493SOL    HW226379   3.637   1.008   1.267 -0.1915  0.9376  1.3055
 8494SOL     OW26380   3.633   2.085   3.448 -0.8998 -0.3618  0.2451
 8494SOL    HW126381   3.535   2.091   3.427 -0.6562  0.9771 -0.6248
 8494SOL    HW226382   3.674   2.013   3.392 -0.3259  2.9121 -4.0021
 8495SOL     OW26383   2.714   6.898   2.239  0.4250 -0.0446  0.5741
 8495SOL    HW126384   2.728   6.892   2.140 -0.5693 -1.8798  0.4922
 8495SOL    HW226385   2.648   6.971   2.258 -3.8151 -3.0631 -0.8034
 8496SOL     OW26386   5.984   3.489   3.387 -0.8582  0.0064  0.5685
 8496SOL    HW126387   6.031   3.502   3.474  1.1635  0.2736 -0.5092
 8496SOL    HW226388   6.026   3.414   3.336 -1.3738  0.4617 -0.5775
 8497SOL     OW26389   6.295   3.700   5.798 -0.6806 -0.1629  0.0321
 8497SOL    HW126390   6.353   3.774   5.833  0.4791 -0.0666 -1.9564
 8497SOL    HW226391   6.301   3.621   5.859  0.3440  0.3837  0.6629
 8498SOL     OW26392   5.243   4.866   4.448 -0.1997 -0.5229  0.3622
 8498SOL    HW126393   5.192   4.929   4.507 -0.5976  0.1528 -0.6697
 8498SOL    HW226394   5.341   4.882   4.459 -0.2576 -0.6473  1.0906
 8499SOL     OW26395   0.552   2.528   0.956 -0.1167  0.0314 -0.2642
 8499SOL    HW126396   0.486   2.469   0.911  0.2025  0.6453 -1.5950
 8499SOL    HW226397   0.557   2.615   0.907  0.5105  0.5910  0.7658
 8500SOL     OW26398   2.756   2.734   0.405  0.3900 -0.1637 -0.0167
 8500SOL    HW126399   2.692   2.695   0.339  0.1261 -0.9568  0.6845
 8500SOL    HW226400   2.766   2.832   0.389 -0.4596 -0.1635 -0.5770
 8501SOL     OW26401   5.467   3.824   6.164 -0.2387 -0.0982 -0.4452
 8501SOL    HW126402   5.424   3.734   6.162 -0.1140 -0.2386  1.7009
 8501SOL    HW226403   5.555   3.820   6.116 -0.4428 -0.9977 -0.7599
 8502SOL     OW26404   1.320   1.696   6.826 -0.0460  0.0868 -0.8002
 8502SOL    HW126405   1.412   1.707   6.788 -0.2396  0.4625 -1.1541
 8502SOL    HW226406   1.266   1.637   6.766  0.6856 -2.1566  0.5904
 8503SOL     OW26407   3.738   3.676   3.393  0.0613 -0.5044 -0.0197
 8503SOL    HW126408   3.825   3.695   3.348 -0.6130  1.5181 -0.5707
 8503SOL    HW226409   3.740   3.584   3.433  2.4526 -0.4768  0.0430
 8504SOL     OW26410   0.351   5.506   2.060 -0.4009  0.5373 -0.2197
 8504SOL    HW126411   0.361   5.549   1.971  0.6194 -0.4268 -0.5936
 8504SOL    HW226412   0.387   5.413   2.056 -1.6003 -0.0081  0.8329
 8505SOL     OW26413   1.813   4.926   4.950  0.5724  0.0448  0.6367
 8505SOL    HW126414   1.899   4.956   4.909  0.6557  3.0799  2.7256
 8505SOL    HW226415   1.737   4.947   4.888  0.9554  1.7562  0.7074
 8506SOL     OW26416   4.489   1.459   4.959 -0.4026  0.7857  0.1643
 8506SOL    HW126417   4.409   1.472   5.017 -0.1979  0.7959  0.4456
 8506SOL    HW226418   4.490   1.530   4.888 -0.2034  1.2877  0.6596
 8507SOL     OW26419   6.926   3.470   0.256 -0.2340 -0.2205  0.2084
 8507SOL    HW126420   6.942   3.447   0.352  0.0287  0.9974  0.4701
 8507SOL    HW226421   6.854   3.539   0.250 -1.2269 -1.2899 -0.5780
 8508SOL     OW26422   1.288   3.171   5.859 -0.3672  0.4143  0.1117
 8508SOL    HW126423   1.325   3.196   5.949 -0.0440 -0.0461  0.1081
 8508SOL    HW226424   1.271   3.072   5.856  0.0439  0.3577 -0.4862
 8509SOL     OW26425   5.302   0.312   6.525 -0.6946 -0.3556  0.5866
 8509SOL    HW126426   5.375   0.247   6.502 -1.5684 -1.1788  0.0291
 8509SOL    HW226427   5.288   0.313   6.624  0.4381  0.2341  0.7523
 8510SOL     OW26428   6.030   3.307   5.657 -0.3587 -0.1129  0.7595
 8510SOL    HW126429   5.976   3.224   5.672 -1.4156  0.3456 -0.3790
 8510SOL    HW226430   5.977   3.372   5.603  0.9561  0.7842  0.5108
 8511SOL     OW26431   3.730   1.459   4.829  0.0190 -0.2896 -0.5734
 8511SOL    HW126432   3.658   1.514   4.786 -0.2297  0.2996  0.5799
 8511SOL    HW226433   3.772   1.510   4.903  0.7335 -1.1411 -0.3744
 8512SOL     OW26434   3.867   1.177   2.912 -0.4768  0.2765 -0.0586
 8512SOL    HW126435   3.913   1.261   2.942 -0.7044  0.8228 -1.1892
 8512SOL    HW226436   3.927   1.127   2.850 -1.7139  1.5449 -2.4324
 8513SOL     OW26437   0.992   2.881   1.991  0.3666  0.4564 -0.1963
 8513SOL    HW126438   0.968   2.879   1.894  3.0001 -0.7095 -0.8908
 8513SOL    HW226439   0.972   2.792   2.032  0.9315  0.3653 -0.1133
 8514SOL     OW26440   4.711   3.759   6.063 -0.5215 -0.1760 -0.0245
 8514SOL    HW126441   4.687   3.668   6.097 -1.3924 -1.4920 -3.7269
 8514SOL    HW226442   4.805   3.758   6.028  0.0588  0.8861  1.4207
 8515SOL     OW26443   6.595   0.886   2.708 -0.1211 -0.2024  0.3984
 8515SOL    HW126444   6.563   0.957   2.646 -1.2921 -0.7941  0.2778
 8515SOL    HW226445   6.619   0.804   2.656  2.0332  0.3494  0.4578
 8516SOL     OW26446   2.454   5.198   4.822 -0.2233  0.4122 -0.4569
 8516SOL    HW126447   2.363   5.180   4.784 -1.0447 -1.7037  2.2128
 8516SOL    HW226448   2.514   5.120   4.805  0.1164  0.4603  0.4476
 8517SOL     OW26449   3.347   6.042   0.113  0.3722 -0.4961 -0.0911
 8517SOL    HW126450   3.446   6.035   0.114  0.4166  0.1239  0.2289
 8517SOL    HW226451   3.308   5.965   0.062  1.0176 -0.6839 -0.3014
 8518SOL     OW26452   0.153   5.830   4.760  0.0054 -0.3644 -0.1675
 8518SOL    HW126453   0.205   5.915   4.764  1.0214 -0.9397 -0.8421
 8518SOL    HW226454   0.125   5.812   4.666 -1.4201 -0.0826  0.1698
 8519SOL     OW26455   0.259   0.593   1.358 -0.6250  0.3375 -0.0120
 8519SOL    HW126456   0.227   0.680   1.394 -2.1248 -0.1513 -0.0708
 8519SOL    HW226457   0.278   0.603   1.260  1.9058  1.2565  0.4984
 8520SOL     OW26458   1.341   5.888   5.087 -0.1105 -0.1010  0.5035
 8520SOL    HW126459   1.299   5.954   5.149 -0.1523  1.1724 -0.8201
 8520SOL    HW226460   1.336   5.923   4.993  3.3843 -0.0951  0.1730
 8521SOL     OW26461   0.001   6.074   5.128 -0.0615 -0.2382 -0.4403
 8521SOL    HW126462  -0.051   6.096   5.210 -0.4119  2.0685 -1.2059
 8521SOL    HW226463  -0.045   6.112   5.048  1.7512  0.1005 -1.3788
 8522SOL     OW26464   2.711   0.468   3.780 -0.1916 -0.2546 -0.1227
 8522SOL    HW126465   2.794   0.473   3.834 -1.3422  0.6369  1.6415
 8522SOL    HW226466   2.633   0.498   3.835 -1.4335  0.7328 -2.2903
 8523SOL     OW26467   1.018   6.703   0.441 -0.1490  0.2142 -0.1378
 8523SOL    HW126468   0.937   6.707   0.499  0.3549 -0.7995  0.6831
 8523SOL    HW226469   1.071   6.621   0.464 -0.7311 -1.1292 -3.1403
 8524SOL     OW26470   6.266   4.059   4.603  0.0017 -0.1727 -0.4553
 8524SOL    HW126471   6.202   4.113   4.659  0.8162 -1.4964  1.8869
 8524SOL    HW226472   6.215   3.997   4.544 -1.0784 -2.4375  2.5878
 8525SOL     OW26473   1.866   6.395   1.021  0.2458  0.8855 -0.2163
 8525SOL    HW126474   1.961   6.384   0.992 -0.1283  1.5256 -1.8288
 8525SOL    HW226475   1.837   6.489   1.002 -0.2437  1.1648  1.7639
 8526SOL     OW26476   0.267   5.495   0.656  0.0987 -0.1179  0.6007
 8526SOL    HW126477   0.354   5.467   0.617 -0.4364  1.1567 -1.6312
 8526SOL    HW226478   0.244   5.434   0.733  2.6136 -0.8454  0.8574
 8527SOL     OW26479   3.716   2.128   4.894  0.8120 -0.3044  0.3788
 8527SOL    HW126480   3.671   2.207   4.853 -0.5221 -0.3263  1.7285
 8527SOL    HW226481   3.748   2.066   4.821 -0.3944  0.2310 -0.6415
 8528SOL     OW26482   4.503   0.666   4.732 -0.0839  0.3103 -0.2079
 8528SOL    HW126483   4.599   0.661   4.761 -0.1011 -0.0079 -0.1993
 8528SOL    HW226484   4.489   0.606   4.653 -0.5561 -0.6643  0.5819
 8529SOL     OW26485   4.252   5.014   3.803  0.2905  0.1309 -0.3784
 8529SOL    HW126486   4.223   4.922   3.829  0.1150  0.1665 -0.4458
 8529SOL    HW226487   4.308   5.053   3.875 -1.1217  0.6697  0.4628
 8530SOL     OW26488   4.442   2.355   0.440  0.4220 -0.4715 -0.3608
 8530SOL    HW126489   4.426   2.444   0.482  0.7862  0.0276 -1.2667
 8530SOL    HW226490   4.508   2.363   0.365 -0.1872 -1.3380 -1.0260
 8531SOL     OW26491   5.807   6.041   2.078  0.5491  0.4640  0.2155
 8531SOL    HW126492   5.812   6.026   2.177 -0.6963 -1.4390  0.0371
 8531SOL    HW226493   5.880   5.990   2.032 -0.5817 -0.9822 -0.0253
 8532SOL     OW26494   1.247   6.555   5.107  0.2515  0.0699  0.2167
 8532SOL    HW126495   1.327   6.613   5.092  0.6743 -0.8940 -1.5262
 8532SOL    HW226496   1.170   6.611   5.136  0.6621  1.5305 -1.3364
 8533SOL     OW26497   1.766   3.381   1.081  0.2583  0.3405 -0.2148
 8533SOL    HW126498   1.768   3.467   1.030 -0.2590  0.3974 -0.1404
 8533SOL    HW226499   1.696   3.386   1.152 -0.8150 -0.6842 -1.1691
 8534SOL     OW26500   5.515   0.773   3.870 -0.0553  0.0621 -0.2883
 8534SOL    HW126501   5.614   0.759   3.861  0.2517  1.6964  0.2544
 8534SOL    HW226502   5.485   0.841   3.804 -0.5202  0.7999  0.6716
 8535SOL     OW26503   1.931   2.662   1.467  0.4448  0.9336  0.3014
 8535SOL    HW126504   1.898   2.650   1.373  1.4787 -0.4860  0.0740
 8535SOL    HW226505   1.989   2.584   1.491  0.3696  1.3856  2.0548
 8536SOL     OW26506   0.002   3.160   6.708 -0.5282  0.2223 -0.0147
 8536SOL    HW126507  -0.098   3.162   6.714 -0.5029 -0.0499  0.5449
 8536SOL    HW226508   0.032   3.223   6.636 -1.0947  0.3837 -0.1178
 8537SOL     OW26509   0.383   6.959   5.553 -0.3463 -0.0808 -0.0561
 8537SOL    HW126510   0.397   6.997   5.644 -1.7307  1.3635 -0.3979
 8537SOL    HW226511   0.373   6.860   5.559  0.4222 -0.1007  1.2435
 8538SOL     OW26512   5.254   6.404   5.743  0.3845  0.3791 -0.3743
 8538SOL    HW126513   5.291   6.320   5.781 -0.1182  0.2988 -0.0420
 8538SOL    HW226514   5.226   6.465   5.817 -1.8520 -0.3284 -0.5505
 8539SOL     OW26515   5.129   0.332   6.305  0.2468 -0.4687 -0.3691
 8539SOL    HW126516   5.089   0.418   6.276  0.0548 -0.5824 -0.4408
 8539SOL    HW226517   5.174   0.344   6.394  1.9414  0.2024 -1.2705
 8540SOL     OW26518   2.050   6.005   1.310 -0.4449 -0.0728  0.0070
 8540SOL    HW126519   2.132   5.957   1.339 -0.7808 -0.4876  0.2920
 8540SOL    HW226520   2.041   6.091   1.361  0.5025  0.6394 -0.9687
 8541SOL     OW26521   6.334   5.659   2.755  0.3380 -0.4628  0.4105
 8541SOL    HW126522   6.235   5.645   2.753 -0.1675  2.1231  2.4159
 8541SOL    HW226523   6.356   5.744   2.707  1.3905 -0.1437  1.4259
 8542SOL     OW26524   2.285   6.814   6.516 -0.4083 -0.5586 -0.0328
 8542SOL    HW126525   2.340   6.889   6.551 -0.4383 -0.0025 -1.1483
 8542SOL    HW226526   2.298   6.805   6.418 -1.4740 -1.1120 -0.1459
 8543SOL     OW26527   3.772   6.139   3.066 -0.1842 -0.8247  0.1568
 8543SOL    HW126528   3.689   6.105   3.021 -0.6733 -1.1943  1.2786
 8543SOL    HW226529   3.751   6.160   3.162  0.5817  0.8472 -0.0056
 8544SOL     OW26530   6.974   3.648   2.729 -0.6761  0.1376  0.3025
 8544SOL    HW126531   6.902   3.657   2.660 -0.0792 -0.1691 -0.3790
 8544SOL    HW226532   7.062   3.674   2.688 -0.6197  2.1581  1.5955
 8545SOL     OW26533   1.419   5.960   6.260  0.1065 -0.2058  0.2245
 8545SOL    HW126534   1.502   6.004   6.226 -1.2055  0.3589 -2.5475
 8545SOL    HW226535   1.351   5.956   6.186 -3.8108  2.8293  3.2221
 8546SOL     OW26536   3.306   2.856   1.498  0.2196 -0.0745 -0.5341
 8546SOL    HW126537   3.385   2.916   1.494  0.1536  0.0574  0.0914
 8546SOL    HW226538   3.316   2.792   1.574 -0.8538  0.7775  0.3528
 8547SOL     OW26539   0.875   1.188   1.672  0.1457  0.2828 -0.3182
 8547SOL    HW126540   0.805   1.162   1.606  0.4565 -0.0446 -0.5208
 8547SOL    HW226541   0.908   1.107   1.719 -0.5914  0.5970  0.7694
 8548SOL     OW26542   3.008   5.965   3.399  0.2077  0.0956  0.0181
 8548SOL    HW126543   3.048   6.041   3.347  1.8069 -0.7892 -0.1117
 8548SOL    HW226544   2.997   5.993   3.494 -2.1519  1.5151 -0.5893
 8549SOL     OW26545   4.759   3.924   5.764 -0.3676  0.4360 -0.1553
 8549SOL    HW126546   4.744   3.857   5.692  0.1763  0.1007  0.0386
 8549SOL    HW226547   4.683   3.920   5.830 -0.9327  0.8371 -0.7729
 8550SOL     OW26548   0.901   2.710   0.146  0.0580 -0.3210 -0.3588
 8550SOL    HW126549   0.821   2.650   0.156  1.3467 -1.6948  3.0055
 8550SOL    HW226550   0.980   2.656   0.116  0.9334 -0.1105  1.4546
 8551SOL     OW26551   3.241   1.754   6.790  0.2172  0.2087  0.6382
 8551SOL    HW126552   3.298   1.680   6.824 -0.9133 -0.1630  1.8009
 8551SOL    HW226553   3.161   1.715   6.744  0.5419  0.7220 -0.3865
 8552SOL     OW26554   2.100   6.201   4.884 -0.5241 -0.2327  0.1453
 8552SOL    HW126555   2.113   6.215   4.982 -0.4384  2.8465 -0.2222
 8552SOL    HW226556   2.131   6.109   4.859  0.3267 -0.7508  2.8240
 8553SOL     OW26557   0.657   3.258   4.415 -0.1079  0.3770  0.3634
 8553SOL    HW126558   0.615   3.211   4.492  1.0071 -0.9618  0.1840
 8553SOL    HW226559   0.601   3.337   4.389 -1.9270 -0.7509  0.7710
 8554SOL     OW26560   3.794   2.114   5.920 -0.1000  0.1743  0.4515
 8554SOL    HW126561   3.716   2.144   5.865  0.3893  0.9596  0.1681
 8554SOL    HW226562   3.786   2.016   5.939  0.6736 -0.6124 -2.6777
 8555SOL     OW26563   0.193   5.363   5.403 -0.4947  0.8851 -0.2054
 8555SOL    HW126564   0.253   5.285   5.418 -0.4658  0.8880 -0.2996
 8555SOL    HW226565   0.129   5.372   5.479 -2.0487 -0.6346 -1.2556
 8556SOL     OW26566   5.236   5.791   6.252  0.4885 -0.5135  0.0629
 8556SOL    HW126567   5.200   5.719   6.193 -3.4455  1.7079 -0.6511
 8556SOL    HW226568   5.203   5.777   6.345  0.6298 -0.2267  0.1585
 8557SOL     OW26569   5.848   5.247   5.974  0.1062 -0.2037  0.4929
 8557SOL    HW126570   5.897   5.293   6.048  1.3972 -1.3285  0.3644
 8557SOL    HW226571   5.825   5.314   5.903  1.5756  0.3520  0.4993
 8558SOL     OW26572   2.843   4.256   0.420 -0.0364 -0.4197 -0.3465
 8558SOL    HW126573   2.932   4.260   0.375 -0.1383 -0.8433 -0.5878
 8558SOL    HW226574   2.773   4.293   0.359  0.2053  1.5325  0.4753
 8559SOL     OW26575   2.180   3.626   3.053 -0.1336 -0.4392 -0.2590
 8559SOL    HW126576   2.250   3.664   2.993  1.2362 -0.3048  1.3471
 8559SOL    HW226577   2.165   3.530   3.031  2.0944 -1.0660  0.6333
 8560SOL     OW26578   5.498   4.967   1.171  0.0201 -0.5420 -0.3454
 8560SOL    HW126579   5.451   5.011   1.248 -1.3395  0.0352 -1.4571
 8560SOL    HW226580   5.431   4.918   1.115  0.4768  1.3629 -2.7077
 8561SOL     OW26581   0.825   5.721   0.933 -0.1506 -0.4676 -0.4458
 8561SOL    HW126582   0.745   5.733   0.992  0.9032 -0.6797  1.0954
 8561SOL    HW226583   0.796   5.682   0.846 -1.9353  1.0738 -0.6055
 8562SOL     OW26584   5.987   4.978   3.847  0.4303 -0.5617 -0.3213
 8562SOL    HW126585   5.936   4.942   3.925  0.4428  1.1163  0.5005
 8562SOL    HW226586   5.936   5.052   3.804  1.4106  0.0226 -0.5240
 8563SOL     OW26587   3.131   3.102   6.565 -0.0353 -0.5720 -0.0139
 8563SOL    HW126588   3.177   3.038   6.504 -1.4477 -1.4217 -0.2296
 8563SOL    HW226589   3.181   3.189   6.565  1.7992 -1.5798  0.1369
 8564SOL     OW26590   1.383   2.325   2.739  0.4663 -0.2250 -0.6202
 8564SOL    HW126591   1.331   2.243   2.764  0.6035 -0.1712 -0.1523
 8564SOL    HW226592   1.370   2.395   2.809 -0.6861  0.6392 -1.6387
 8565SOL     OW26593   5.696   2.103   1.975  0.2660 -0.0791 -0.2237
 8565SOL    HW126594   5.666   2.070   2.064 -0.8393  1.7407  0.1276
 8565SOL    HW226595   5.794   2.088   1.965  0.2228 -1.2150  0.8680
 8566SOL     OW26596   1.055   0.996   3.510 -0.1408 -0.4942  0.2176
 8566SOL    HW126597   0.977   0.934   3.501 -0.7269  0.4773 -1.9535
 8566SOL    HW226598   1.054   1.062   3.435  2.3677  0.0124  0.5415
 8567SOL     OW26599   4.099   3.175   4.228  0.0788  0.7961 -0.3450
 8567SOL    HW126600   4.121   3.211   4.137  0.0204  1.3839 -0.1299
 8567SOL    HW226601   4.084   3.077   4.222  0.8087  0.7061 -0.8418
 8568SOL     OW26602   0.579   6.757   6.144  0.3732  0.4381  0.3771
 8568SOL    HW126603   0.677   6.763   6.161  0.2397  0.7582  1.0822
 8568SOL    HW226604   0.563   6.720   6.052  1.1406 -1.2469  0.8816
 8569SOL     OW26605   6.053   3.988   1.322  0.1948 -0.1155  0.1160
 8569SOL    HW126606   5.964   4.014   1.358 -0.1397 -1.1983  0.1062
 8569SOL    HW226607   6.056   4.005   1.224 -0.6274 -1.6286 -0.2046
 8570SOL     OW26608   6.760   0.831   6.278  0.4206 -0.4380 -0.6151
 8570SOL    HW126609   6.785   0.928   6.276  0.6595 -0.4374  1.2367
 8570SOL    HW226610   6.692   0.815   6.349 -0.7780 -1.3958 -1.9162
 8571SOL     OW26611   4.223   5.440   6.732 -0.1594  0.3019 -0.0513
 8571SOL    HW126612   4.255   5.372   6.666  0.8223  0.6038  0.1103
 8571SOL    HW226613   4.267   5.528   6.715  0.6169  0.2170  1.4147
 8572SOL     OW26614   2.916   3.965   1.323 -0.5129 -0.5281 -0.2568
 8572SOL    HW126615   2.894   4.009   1.236 -3.2003 -2.6834 -0.8137
 8572SOL    HW226616   2.857   4.001   1.395 -0.4874 -0.9429 -0.0256
 8573SOL     OW26617   5.567   5.651   1.451  0.5507  0.5889  0.1343
 8573SOL    HW126618   5.633   5.578   1.468 -0.7195 -0.1492  2.3509
 8573SOL    HW226619   5.605   5.739   1.479  0.5221  0.1346  1.6494
 8574SOL     OW26620   1.176   0.906   4.904 -0.2066 -0.3609  0.7108
 8574SOL    HW126621   1.220   0.992   4.930  0.0778 -0.0268 -0.7653
 8574SOL    HW226622   1.242   0.846   4.860 -0.9345 -0.2947 -0.5427
 8575SOL     OW26623   0.999   2.495   5.218 -0.0533  0.5152  0.2666
 8575SOL    HW126624   0.925   2.451   5.269 -0.1799  1.9089  1.3369
 8575SOL    HW226625   1.053   2.552   5.279  2.4252 -1.0263 -0.3180
 8576SOL     OW26626   0.840   2.569   6.595  1.0334  0.4346 -0.1194
 8576SOL    HW126627   0.856   2.595   6.690  4.1528 -1.7310  0.1042
 8576SOL    HW226628   0.840   2.469   6.588  1.9714  0.5441 -2.5171
 8577SOL     OW26629   0.698   6.606   3.550 -0.3588 -0.5053 -0.0522
 8577SOL    HW126630   0.673   6.565   3.462  1.2652  0.2497 -0.9066
 8577SOL    HW226631   0.754   6.541   3.602 -0.7728 -0.7032  0.1526
 8578SOL     OW26632   6.713   2.318   3.987 -0.5196 -0.5205 -0.1028
 8578SOL    HW126633   6.812   2.309   4.003 -0.5125 -0.7241 -0.2557
 8578SOL    HW226634   6.664   2.300   4.072 -0.3196  2.1174  0.6597
 8579SOL     OW26635   0.241   7.014   0.313 -0.2594  0.4013 -0.4635
 8579SOL    HW126636   0.336   7.006   0.284 -0.9134  1.3605 -3.2330
 8579SOL    HW226637   0.198   6.924   0.314  0.6328 -0.0320  0.7666
 8580SOL     OW26638   0.165   6.123   0.469 -0.4171 -0.3683  0.0539
 8580SOL    HW126639   0.191   6.037   0.513 -0.7936 -0.6158 -0.2019
 8580SOL    HW226640   0.243   6.185   0.469 -0.8616  0.3364  2.7195
 8581SOL     OW26641   1.580   5.328   5.204 -0.3411  1.3282  0.5316
 8581SOL    HW126642   1.511   5.257   5.217 -1.8279  2.9562  1.9709
 8581SOL    HW226643   1.666   5.299   5.246 -0.7814  0.2107  0.6921
 8582SOL     OW26644   0.508   5.047   5.117  0.0338 -0.2196 -0.0109
 8582SOL    HW126645   0.541   4.960   5.152 -0.9112 -0.0243  1.4365
 8582SOL    HW226646   0.419   5.034   5.073  0.6287 -0.2421 -1.2400
 8583SOL     OW26647   6.401   6.622   0.051  0.4516 -0.0563  0.6562
 8583SOL    HW126648   6.350   6.536   0.048 -1.1482  0.8686 -0.9998
 8583SOL    HW226649   6.389   6.665   0.141 -1.5129 -0.0118  0.4081
 8584SOL     OW26650   0.108   5.237   6.975 -0.0351 -0.0269  0.0121
 8584SOL    HW126651   0.135   5.142   6.981  1.2939  0.4141  1.4230
 8584SOL    HW226652   0.164   5.293   7.036  0.0771  1.8587 -1.7061
 8585SOL     OW26653   2.653   1.966   2.096  0.0878  0.6228  0.4136
 8585SOL    HW126654   2.640   1.987   1.999 -2.3834  0.7486  0.6994
 8585SOL    HW226655   2.748   1.939   2.112  0.9192  1.9780 -1.7555
 8586SOL     OW26656   0.017   2.517   1.422  0.7692 -0.4746 -0.1960
 8586SOL    HW126657  -0.070   2.547   1.460  0.9855 -0.4421  0.2780
 8586SOL    HW226658   0.091   2.569   1.463  1.1057 -1.2774  0.2440
 8587SOL     OW26659   4.975   3.106   0.459  0.0953  0.3473 -0.1530
 8587SOL    HW126660   4.937   3.041   0.392 -0.6757  2.0201 -1.4340
 8587SOL    HW226661   5.038   3.059   0.520 -0.4752 -1.5959 -0.9907
 8588SOL     OW26662   4.388   0.668   2.208 -0.1726  0.7522  0.5483
 8588SOL    HW126663   4.299   0.706   2.232  0.1614  1.0760  1.3103
 8588SOL    HW226664   4.442   0.653   2.292  0.2181 -0.1097  0.1569
 8589SOL     OW26665   1.299   4.817   3.408  0.4900  0.0788 -0.4485
 8589SOL    HW126666   1.247   4.732   3.419  0.8915 -0.0940  0.1266
 8589SOL    HW226667   1.298   4.843   3.311  1.1901 -1.1110 -0.8027
 8590SOL     OW26668   0.305   0.967   3.744 -0.5828 -0.0517 -0.6098
 8590SOL    HW126669   0.372   1.002   3.679 -0.0355 -1.6354 -0.9371
 8590SOL    HW226670   0.253   1.043   3.783  2.4834  1.4349  0.8888
 8591SOL     OW26671   5.099   4.228   4.325  0.2500 -0.2512  0.0541
 8591SOL    HW126672   5.066   4.313   4.284  0.4928  0.7396  1.7985
 8591SOL    HW226673   5.033   4.155   4.309 -0.7263  0.6501 -0.1466
 8592SOL     OW26674   1.199   1.374   0.235  0.5504  0.5497  0.0543
 8592SOL    HW126675   1.291   1.390   0.269  0.7437  0.7256 -0.5436
 8592SOL    HW226676   1.133   1.413   0.300  0.7789 -1.4947  1.6001
 8593SOL     OW26677   4.960   1.584   0.161 -0.8770 -0.0239 -0.0555
 8593SOL    HW126678   4.871   1.630   0.154 -1.4066 -1.0481 -0.1770
 8593SOL    HW226679   5.020   1.617   0.088 -1.5457 -0.1655 -0.6846
 8594SOL     OW26680   3.457   0.604   6.853 -0.0794 -0.1328  0.0429
 8594SOL    HW126681   3.378   0.603   6.792  0.7937 -3.9160 -1.2539
 8594SOL    HW226682   3.434   0.555   6.938 -0.2314  2.1912  1.4411
 8595SOL     OW26683   3.718   3.235   3.232 -0.0591  0.3617 -0.1123
 8595SOL    HW126684   3.751   3.242   3.138 -1.3228  2.0851 -0.4816
 8595SOL    HW226685   3.665   3.318   3.255 -1.2735 -0.8028  1.5146
 8596SOL     OW26686   5.855   1.174   2.308 -0.4708 -0.0222  0.1975
 8596SOL    HW126687   5.823   1.222   2.227  1.2301  1.0438  0.1067
 8596SOL    HW226688   5.790   1.102   2.332 -1.0140 -0.3714 -2.0896
 8597SOL     OW26689   4.949   1.301   0.997 -0.4955  0.4455 -0.1846
 8597SOL    HW126690   5.001   1.381   1.026  0.5986 -0.6824  1.1235
 8597SOL    HW226691   4.965   1.284   0.900  1.8322  0.0161  0.2118
 8598SOL     OW26692   0.494   6.250   6.374 -0.5441 -0.1195 -0.0082
 8598SOL    HW126693   0.516   6.295   6.461  1.4655  1.3946 -1.2141
 8598SOL    HW226694   0.559   6.175   6.359 -0.0734  0.4290 -0.7572
 8599SOL     OW26695   1.725   6.659   0.891  0.4506 -0.6332  0.1649
 8599SOL    HW126696   1.654   6.626   0.954 -1.0480  0.1456 -1.0312
 8599SOL    HW226697   1.790   6.716   0.941 -2.2308  2.2607  0.6500
 8600SOL     OW26698   2.827   5.790   2.634  0.0071  0.2281 -0.1436
 8600SOL    HW126699   2.822   5.884   2.670 -1.7962 -0.4242  1.5143
 8600SOL    HW226700   2.906   5.782   2.574  2.0687  1.9930  2.1009
 8601SOL     OW26701   6.742   3.313   0.630 -0.1091 -0.5777  0.4341
 8601SOL    HW126702   6.688   3.332   0.712 -1.8702 -0.0906 -0.7590
 8601SOL    HW226703   6.689   3.254   0.568  0.3762  0.5409 -1.1215
 8602SOL     OW26704   6.186   0.478   6.137  0.5205 -0.1379 -0.6188
 8602SOL    HW126705   6.163   0.465   6.234  2.0221 -0.4957 -0.2880
 8602SOL    HW226706   6.233   0.565   6.125 -2.0176  1.2345 -1.5075
 8603SOL     OW26707   2.601   0.294   0.883 -0.1249 -0.1875 -1.1685
 8603SOL    HW126708   2.697   0.290   0.853 -0.3890 -0.6917 -1.9664
 8603SOL    HW226709   2.585   0.382   0.928  2.3942 -2.3347  4.9683
 8604SOL     OW26710   3.464   4.896   6.382 -0.1359  0.4930  0.2192
 8604SOL    HW126711   3.509   4.966   6.326  0.1268 -1.1652 -1.7514
 8604SOL    HW226712   3.530   4.825   6.406 -0.7687  0.0786  0.7656
 8605SOL     OW26713   1.462   5.303   6.542 -0.0964 -0.8628  0.8401
 8605SOL    HW126714   1.539   5.273   6.598  0.7464 -0.8555 -0.2782
 8605SOL    HW226715   1.475   5.273   6.448 -0.2687  1.1565  0.1198
 8606SOL     OW26716   6.960   5.104   1.949  0.1336  0.0183 -0.4280
 8606SOL    HW126717   6.933   5.110   1.853 -0.9757 -0.6427 -0.1711
 8606SOL    HW226718   6.999   5.191   1.978  1.3876 -0.0791 -1.7355
 8607SOL     OW26719   1.101   5.454   4.300 -0.1927 -0.1885  0.5732
 8607SOL    HW126720   1.121   5.473   4.397 -0.9064 -1.4771  1.0065
 8607SOL    HW226721   1.106   5.355   4.285 -1.3827 -0.1112 -0.4116
 8608SOL     OW26722   0.340   1.154   1.145  0.3050  0.1030 -0.2412
 8608SOL    HW126723   0.439   1.144   1.146  0.3155  0.2027  0.2214
 8608SOL    HW226724   0.298   1.072   1.108  0.4752 -0.8588  1.5868
 8609SOL     OW26725   0.366   1.200   2.232  0.6847  0.5460  0.3523
 8609SOL    HW126726   0.300   1.249   2.174 -0.6096 -1.0155  0.4364
 8609SOL    HW226727   0.438   1.160   2.176  0.3630  0.4538  0.0016
 8610SOL     OW26728   2.668   6.775   1.201 -0.8512 -0.4236 -0.0923
 8610SOL    HW126729   2.761   6.793   1.233 -0.6067 -0.5891 -0.7208
 8610SOL    HW226730   2.645   6.679   1.216 -1.6310  0.0210  1.8835
 8611SOL     OW26731   5.772   5.168   0.593 -0.0308  0.3160  0.0675
 8611SOL    HW126732   5.731   5.224   0.520 -1.3886 -0.7252 -0.0057
 8611SOL    HW226733   5.870   5.188   0.599  0.0850  0.5735 -1.9112
 8612SOL     OW26734   6.688   6.063   0.852  0.0704 -0.3959 -0.1813
 8612SOL    HW126735   6.732   6.132   0.910  0.1115 -0.2261 -0.4149
 8612SOL    HW226736   6.598   6.096   0.823 -0.1357 -0.6680  0.1489
 8613SOL     OW26737   1.331   1.009   1.707  0.4011  0.5349 -0.5191
 8613SOL    HW126738   1.242   0.998   1.661 -0.2901  1.9905  0.4169
 8613SOL    HW226739   1.401   1.026   1.638  0.3453 -2.3403 -1.4489
 8614SOL     OW26740   4.543   3.259   6.773  0.3877  0.6269  0.2564
 8614SOL    HW126741   4.492   3.247   6.858  2.1483  0.9647  1.4070
 8614SOL    HW226742   4.565   3.356   6.761 -1.4799  0.9032 -1.6309
 8615SOL     OW26743   5.163   3.321   5.430 -0.5380  0.2885 -0.2592
 8615SOL    HW126744   5.184   3.419   5.428  0.7902  0.1662  2.8557
 8615SOL    HW226745   5.068   3.308   5.461 -0.1230  0.6070  1.2241
 8616SOL     OW26746   6.487   1.079   1.790  0.4745  0.0375  0.2930
 8616SOL    HW126747   6.555   1.144   1.755 -0.7435  0.9302 -0.4821
 8616SOL    HW226748   6.534   1.000   1.829  2.0484  1.7164  2.0328
 8617SOL     OW26749   3.282   2.984   3.200 -1.1046  0.0628 -0.5554
 8617SOL    HW126750   3.334   3.060   3.161  0.2341 -0.8161 -0.5293
 8617SOL    HW226751   3.250   2.924   3.127 -0.2343 -0.5536 -0.4361
 8618SOL     OW26752   1.518   0.626   2.452 -0.1504 -0.5451 -0.6957
 8618SOL    HW126753   1.551   0.532   2.462  0.4676 -0.2680 -0.0353
 8618SOL    HW226754   1.577   0.688   2.504  0.4547  0.4208 -2.4500
 8619SOL     OW26755   6.836   5.189   2.945 -0.0919  0.1787  0.3828
 8619SOL    HW126756   6.878   5.107   2.985  1.7136  0.2056 -1.3199
 8619SOL    HW226757   6.785   5.163   2.863  0.1247  0.6957  0.0846
 8620SOL     OW26758   1.800   3.604   6.642 -0.4379  0.0442  0.3970
 8620SOL    HW126759   1.736   3.642   6.574  0.3833  2.4362  0.8805
 8620SOL    HW226760   1.874   3.670   6.659  0.8845 -1.6700  1.5963
 8621SOL     OW26761   0.796   2.842   3.266 -0.1847  0.0734  0.5498
 8621SOL    HW126762   0.776   2.746   3.247 -0.0504  0.3247 -1.0507
 8621SOL    HW226763   0.716   2.897   3.243  1.0210  0.7306 -2.6701
 8622SOL     OW26764   5.162   3.916   0.481 -0.1267 -0.2567  0.5050
 8622SOL    HW126765   5.207   3.976   0.547  1.1108 -1.8838  1.2110
 8622SOL    HW226766   5.126   3.971   0.406  0.7065  1.3885  1.2469
 8623SOL     OW26767   5.718   3.646   0.061  0.1668  0.5084  0.3542
 8623SOL    HW126768   5.721   3.563   0.117 -1.0549 -1.9218 -2.8557
 8623SOL    HW226769   5.631   3.692   0.073 -0.7072 -0.8389 -0.5315
 8624SOL     OW26770   5.669   4.880   0.416 -0.3924  0.4858 -0.4238
 8624SOL    HW126771   5.686   4.947   0.489  3.6298 -0.3000 -0.3857
 8624SOL    HW226772   5.610   4.808   0.450 -0.4061  1.2693  1.3464
 8625SOL     OW26773   0.103   0.671   5.111  0.2283 -0.4212 -0.4196
 8625SOL    HW126774   0.034   0.736   5.142  0.9135  0.4635 -0.7187
 8625SOL    HW226775   0.141   0.622   5.190  0.1186 -0.0474 -0.1351
 8626SOL     OW26776   3.870   0.467   6.007  0.4554 -0.4700 -0.5358
 8626SOL    HW126777   3.833   0.387   5.960  0.3943 -0.8868  0.1990
 8626SOL    HW226778   3.945   0.439   6.067  1.0144  0.1591 -0.9339
 8627SOL     OW26779   4.668   0.273   6.873  0.4263  0.4328 -0.0069
 8627SOL    HW126780   4.718   0.286   6.788  2.7103  1.9195  1.4263
 8627SOL    HW226781   4.633   0.180   6.878 -0.3722  0.5205 -2.8164
 8628SOL     OW26782   6.466   4.352   2.034 -0.3032  0.4657  0.4589
 8628SOL    HW126783   6.564   4.350   2.015 -0.3646  1.5320 -0.0023
 8628SOL    HW226784   6.433   4.446   2.034 -1.5231  0.0673 -0.3657
 8629SOL     OW26785   5.109   1.633   0.377 -0.5133 -0.0964  0.6973
 8629SOL    HW126786   5.041   1.609   0.307 -0.6048 -0.8697  1.0522
 8629SOL    HW226787   5.201   1.610   0.344 -0.4402  0.6332  0.3586
 8630SOL     OW26788   3.220   1.547   3.280  0.1392 -0.1766  0.5856
 8630SOL    HW126789   3.224   1.500   3.192 -3.0725  1.0919 -0.3757
 8630SOL    HW226790   3.267   1.635   3.274 -0.7712  0.2799 -0.1886
 8631SOL     OW26791   0.408   3.570   5.784 -0.2936 -0.3928 -0.1592
 8631SOL    HW126792   0.340   3.497   5.780 -0.5237 -0.1978  0.1963
 8631SOL    HW226793   0.493   3.538   5.741 -1.3409  0.1774 -2.9087
 8632SOL     OW26794   6.939   0.860   5.854 -0.3558  0.1638  0.1480
 8632SOL    HW126795   6.913   0.768   5.825 -0.2373 -0.1260  0.9266
 8632SOL    HW226796   7.008   0.853   5.927  1.8284  0.8798 -1.7275
 8633SOL     OW26797   1.942   5.170   1.851  0.0357 -0.3908  0.5005
 8633SOL    HW126798   1.952   5.177   1.752 -1.0383 -2.0922  0.2203
 8633SOL    HW226799   2.016   5.219   1.897  1.4884 -0.9578 -1.1618
 8634SOL     OW26800   1.125   1.742   4.121 -0.3533  0.5538 -0.1135
 8634SOL    HW126801   1.177   1.822   4.152  0.1447 -0.3868  1.6186
 8634SOL    HW226802   1.028   1.756   4.139 -0.2799  0.8178  0.0812
 8635SOL     OW26803   0.412   6.992   2.797 -0.0986 -0.0832 -0.2045
 8635SOL    HW126804   0.330   7.036   2.834  0.1348 -1.4410  2.0829
 8635SOL    HW226805   0.489   7.055   2.803 -1.1729  1.9815 -4.2076
 8636SOL     OW26806   2.930   5.623   6.128  0.4649 -0.3568  0.4441
 8636SOL    HW126807   2.926   5.687   6.052  1.1405  1.8822  2.1820
 8636SOL    HW226808   3.020   5.579   6.131  0.6093 -0.0763  0.2157
 8637SOL     OW26809   0.197   0.253   2.019 -0.0752 -0.8179  0.3170
 8637SOL    HW126810   0.262   0.184   2.051  2.5774  1.5774  0.5852
 8637SOL    HW226811   0.194   0.328   2.086 -2.8986 -0.6414  0.0931
 8638SOL     OW26812   6.201   3.563   2.093 -0.3152 -0.1394  0.5431
 8638SOL    HW126813   6.244   3.627   2.029 -2.0116  1.3418  0.7773
 8638SOL    HW226814   6.271   3.513   2.143  1.0593  0.3272 -0.8403
 8639SOL     OW26815   1.435   4.507   2.371  0.2807 -0.5195 -0.2551
 8639SOL    HW126816   1.373   4.482   2.296  1.0605 -1.1669 -0.7052
 8639SOL    HW226817   1.447   4.606   2.373 -2.9112 -0.0376  1.5873
 8640SOL     OW26818   2.637   4.981   4.350  0.0132 -0.8928 -0.1278
 8640SOL    HW126819   2.645   5.049   4.424  2.0000  0.8087 -1.8003
 8640SOL    HW226820   2.703   4.908   4.365  0.4900 -0.4949 -0.2769
 8641SOL     OW26821   4.245   1.909   1.058  0.1253  0.4267 -0.0907
 8641SOL    HW126822   4.242   1.810   1.048  2.8253  0.4610 -2.6822
 8641SOL    HW226823   4.265   1.933   1.152  1.4106 -1.6035  0.2181
 8642SOL     OW26824   2.024   3.312   1.085 -0.5040  0.2083  0.1789
 8642SOL    HW126825   1.927   3.334   1.090 -0.4385  0.2669  2.0128
 8642SOL    HW226826   2.054   3.274   1.173  1.0117 -0.3532 -0.5405
 8643SOL     OW26827   2.075   4.780   1.694 -0.4108  0.2941 -0.1799
 8643SOL    HW126828   2.080   4.809   1.598 -0.3431  0.9445  0.0195
 8643SOL    HW226829   2.167   4.774   1.732 -0.4466  0.1726 -0.1105
 8644SOL     OW26830   5.682   6.925   2.443 -0.3152 -0.2334 -0.2531
 8644SOL    HW126831   5.636   6.986   2.379 -2.5184 -1.7569 -0.2548
 8644SOL    HW226832   5.748   6.868   2.393 -0.0618  0.4191 -0.6734
 8645SOL     OW26833   3.425   5.798   3.309  0.6971 -0.2237  0.2338
 8645SOL    HW126834   3.524   5.799   3.320  0.6608  1.9085  0.6976
 8645SOL    HW226835   3.390   5.707   3.335  2.6020 -1.4554 -1.2186
 8646SOL     OW26836   6.137   0.747   0.668 -0.6488  0.3072  0.3089
 8646SOL    HW126837   6.137   0.821   0.736  1.0723  1.1627 -0.5855
 8646SOL    HW226838   6.078   0.773   0.591  0.4094  1.0378 -0.2756
 8647SOL     OW26839   4.921   1.213   5.383  0.1239 -0.7168 -0.2880
 8647SOL    HW126840   4.955   1.273   5.310 -0.5990 -0.4194 -0.3899
 8647SOL    HW226841   4.911   1.120   5.348  0.1596 -0.6574 -0.4563
 8648SOL     OW26842   4.756   5.506   5.893 -0.1467  0.2192  0.1346
 8648SOL    HW126843   4.680   5.492   5.957 -0.3758  2.2450  0.3697
 8648SOL    HW226844   4.843   5.495   5.941 -0.3153  0.7314  0.5678
 8649SOL     OW26845   2.643   2.448   0.489 -0.6008  0.0755 -0.5254
 8649SOL    HW126846   2.603   2.357   0.478  2.3564 -1.2750 -1.3604
 8649SOL    HW226847   2.699   2.469   0.409  2.8003  0.3421  1.7108
 8650SOL     OW26848   4.312   6.939   0.285 -0.3318 -0.2906 -0.1763
 8650SOL    HW126849   4.221   6.903   0.268  0.4421 -2.2714 -0.4161
 8650SOL    HW226850   4.380   6.880   0.241  1.3591 -1.5640  3.6956
 8651SOL     OW26851   2.239   0.960   4.956  0.2792  1.0003 -0.1954
 8651SOL    HW126852   2.236   0.862   4.934 -2.4342  1.1162 -0.6892
 8651SOL    HW226853   2.328   0.983   4.995  0.5209 -1.9594  1.2838
 8652SOL     OW26854   2.661   3.848   6.061 -0.0999  0.4296 -0.1374
 8652SOL    HW126855   2.671   3.774   5.994  1.4235  0.1505  0.3613
 8652SOL    HW226856   2.686   3.814   6.152 -2.0013  0.8363  0.5916
 8653SOL     OW26857   4.516   2.181   6.333  0.5550  0.2690 -0.4112
 8653SOL    HW126858   4.422   2.191   6.366 -0.2139 -0.9443 -2.1220
 8653SOL    HW226859   4.569   2.128   6.399  0.1813  1.2761  0.7473
 8654SOL     OW26860   3.626   0.020   5.780 -0.5157  0.5171 -0.0346
 8654SOL    HW126861   3.618   0.108   5.734  0.1630  0.1875 -0.8072
 8654SOL    HW226862   3.575   0.022   5.866 -0.4716  1.6728 -0.0237
 8655SOL     OW26863   3.626   0.851   0.131 -0.2169 -0.4087  0.0959
 8655SOL    HW126864   3.613   0.783   0.203  0.3143  1.2499  1.8396
 8655SOL    HW226865   3.654   0.805   0.047  0.8841 -2.2865  1.4108
 8656SOL     OW26866   6.524   4.695   1.136  0.1054  0.4749 -0.3366
 8656SOL    HW126867   6.468   4.634   1.080 -0.3804  0.8230 -0.2316
 8656SOL    HW226868   6.474   4.779   1.153  0.9555  1.1055 -0.8789
 8657SOL     OW26869   6.013   4.389   5.991 -0.1392  0.1060 -0.2148
 8657SOL    HW126870   6.100   4.365   6.034  0.6926 -0.0150 -1.8641
 8657SOL    HW226871   5.981   4.311   5.936 -1.5202  0.0038  0.6822
 8658SOL     OW26872   5.272   4.000   3.890 -0.2480  0.3792 -0.0291
 8658SOL    HW126873   5.339   3.963   3.954 -0.0437  1.1682  0.2239
 8658SOL    HW226874   5.191   4.030   3.939 -0.8475 -0.6574 -0.3450
 8659SOL     OW26875   1.974   1.686   4.074  0.8299  0.6340  0.0266
 8659SOL    HW126876   1.989   1.734   3.987  1.4121 -0.0558 -0.2710
 8659SOL    HW226877   1.994   1.589   4.061 -0.8510  0.2055  0.4716
 8660SOL     OW26878   0.225   6.240   1.418 -0.1824 -0.4545 -0.3369
 8660SOL    HW126879   0.211   6.309   1.489  1.0258 -1.2256  0.6972
 8660SOL    HW226880   0.219   6.284   1.328 -0.7749  0.7297  0.2534
 8661SOL     OW26881   4.324   1.922   1.372  0.0057  0.3884  0.7980
 8661SOL    HW126882   4.412   1.875   1.377 -0.1180  0.2733  2.4138
 8661SOL    HW226883   4.254   1.865   1.416 -0.8909  0.4894 -0.4449
 8662SOL     OW26884   0.197   3.699   3.663  0.2546  0.4358 -0.8559
 8662SOL    HW126885   0.252   3.662   3.738  1.7756  1.3309 -1.4834
 8662SOL    HW226886   0.143   3.625   3.622  1.8936 -0.7558 -0.9841
 8663SOL     OW26887   1.721   6.479   3.745 -0.9472  0.4857 -0.0839
 8663SOL    HW126888   1.652   6.545   3.717  0.3941  1.4596 -1.2391
 8663SOL    HW226889   1.738   6.414   3.671 -2.5592 -1.5235  1.1843
 8664SOL     OW26890   0.048   7.014   0.786 -1.6882  0.6927 -0.3334
 8664SOL    HW126891   0.038   7.089   0.851 -0.8537 -0.1664  0.8420
 8664SOL    HW226892   0.080   7.050   0.698  1.1616  1.5137  0.9184
 8665SOL     OW26893   6.707   5.225   0.405 -0.1588  0.4783  0.0658
 8665SOL    HW126894   6.747   5.164   0.473  0.9153  0.5554 -0.4652
 8665SOL    HW226895   6.764   5.224   0.322 -2.8682 -1.7145 -1.9565
 8666SOL     OW26896   3.942   3.927   3.886 -0.3101 -0.4456 -0.4795
 8666SOL    HW126897   3.929   4.024   3.909  1.2732 -0.3356  0.0855
 8666SOL    HW226898   3.995   3.883   3.958  0.1003 -1.4187 -1.3571
 8667SOL     OW26899   4.624   5.270   0.815  0.3794 -0.1750  0.0594
 8667SOL    HW126900   4.587   5.288   0.723 -1.0893 -1.6679  0.3193
 8667SOL    HW226901   4.641   5.172   0.826 -0.9508 -0.2485  1.8908
 8668SOL     OW26902   6.540   3.980   4.960 -0.4368  0.0324  0.5074
 8668SOL    HW126903   6.540   4.080   4.952  0.2910 -0.0602 -1.0540
 8668SOL    HW226904   6.625   3.944   4.923 -1.1474 -1.2473  0.0639
 8669SOL     OW26905   5.707   0.434   1.024 -0.1997  0.1465 -0.3200
 8669SOL    HW126906   5.632   0.494   1.052 -0.0273 -0.1143  0.7315
 8669SOL    HW226907   5.792   0.486   1.018 -0.2918  0.2604 -0.6345
 8670SOL     OW26908   2.641   6.267   3.750 -0.5612  0.1050 -0.2442
 8670SOL    HW126909   2.681   6.293   3.662  0.2002 -0.5367 -0.1013
 8670SOL    HW226910   2.649   6.168   3.762  1.5794  0.3996  1.5686
 8671SOL     OW26911   3.317   6.194   3.885 -0.5771 -0.1928  0.0505
 8671SOL    HW126912   3.386   6.177   3.956 -0.6863 -0.1860  0.1588
 8671SOL    HW226913   3.354   6.169   3.796 -0.5416 -0.4841  0.1458
 8672SOL     OW26914   6.469   0.099   5.148  0.5070  0.0570  0.2363
 8672SOL    HW126915   6.534   0.141   5.085  0.6476 -1.0169 -0.3685
 8672SOL    HW226916   6.463   0.001   5.129 -2.7020  0.3785 -1.0328
 8673SOL     OW26917   5.520   2.986   1.030 -0.0890  0.2466 -0.5318
 8673SOL    HW126918   5.451   2.944   0.971  0.2218 -0.9690 -0.0609
 8673SOL    HW226919   5.484   2.992   1.123  0.8284 -1.4862 -0.0245
 8674SOL     OW26920   0.568   3.846   3.337 -0.2886 -1.0754 -0.4794
 8674SOL    HW126921   0.606   3.821   3.248  1.7973  2.7044 -0.8768
 8674SOL    HW226922   0.641   3.845   3.406 -1.6974 -3.1039  1.1132
 8675SOL     OW26923   1.987   4.820   4.626  0.4405 -0.5055  0.3632
 8675SOL    HW126924   1.891   4.847   4.617  0.5794  0.0490  0.5281
 8675SOL    HW226925   2.034   4.834   4.539  0.5949  0.1158  0.5455
 8676SOL     OW26926   2.669   5.644   4.278 -0.1788  0.6498 -0.1414
 8676SOL    HW126927   2.664   5.630   4.179 -0.7361 -1.3712  0.1203
 8676SOL    HW226928   2.606   5.717   4.304 -2.9182 -1.2697 -0.9116
 8677SOL     OW26929   0.760   5.412   6.006 -0.0251 -0.1397 -0.2977
 8677SOL    HW126930   0.819   5.339   6.041  0.7049  0.6367  0.1174
 8677SOL    HW226931   0.767   5.416   5.907 -0.9717 -1.3869 -0.4393
 8678SOL     OW26932   0.201   0.920   2.922 -0.2548  0.0099 -0.9342
 8678SOL    HW126933   0.219   0.993   2.856 -2.3024  1.5809  0.1485
 8678SOL    HW226934   0.145   0.956   2.997 -0.2876 -2.3962  0.2731
 8679SOL     OW26935   1.915   4.179   6.466 -0.5293  0.4486 -0.2497
 8679SOL    HW126936   2.014   4.194   6.462 -0.4366  0.0614  0.3945
 8679SOL    HW226937   1.867   4.264   6.442 -0.0453  0.6129 -0.6483
 8680SOL     OW26938   4.246   6.234   2.382  0.4007  0.1484  0.6170
 8680SOL    HW126939   4.309   6.162   2.412 -0.6374 -0.4373  1.4867
 8680SOL    HW226940   4.175   6.247   2.451 -0.3242  0.9190 -0.2453
 8681SOL     OW26941   6.073   4.498   2.978  0.0857  0.3513  0.1937
 8681SOL    HW126942   6.016   4.516   2.898 -1.3892 -4.3339 -0.1111
 8681SOL    HW226943   6.029   4.533   3.060 -0.5881  1.3171 -0.5628
 8682SOL     OW26944   4.363   3.390   0.458  0.2752 -0.0274 -0.8655
 8682SOL    HW126945   4.368   3.355   0.365 -0.7769 -2.5813 -0.0554
 8682SOL    HW226946   4.276   3.363   0.500  0.3544  1.7705  0.6292
 8683SOL     OW26947   5.106   6.529   6.558  0.0974  0.4157  0.0843
 8683SOL    HW126948   5.158   6.517   6.473  0.3862  0.5950  0.2346
 8683SOL    HW226949   5.039   6.455   6.567  1.4630 -0.7995  0.7289
 8684SOL     OW26950   5.397   6.764   4.495 -0.0298 -0.3541  0.2481
 8684SOL    HW126951   5.442   6.840   4.540  0.5906 -1.2112  1.1219
 8684SOL    HW226952   5.357   6.703   4.564  0.2157 -1.2644 -0.3905
 8685SOL     OW26953   5.937   3.542   3.853  0.3145  0.7772 -0.2082
 8685SOL    HW126954   5.957   3.480   3.929 -0.8155  0.2370 -0.3253
 8685SOL    HW226955   5.983   3.509   3.771  0.5301  0.6487 -0.0373
 8686SOL     OW26956   0.405   4.930   1.967 -0.3687 -0.9928  0.2985
 8686SOL    HW126957   0.498   4.969   1.966 -0.7974  0.2635 -2.9130
 8686SOL    HW226958   0.369   4.933   2.060  1.9850  0.5483  1.2657
 8687SOL     OW26959   3.932   6.228   4.190 -0.4106  0.0716 -0.2324
 8687SOL    HW126960   4.011   6.188   4.144 -1.4326  0.4126 -2.4047
 8687SOL    HW226961   3.848   6.192   4.150 -1.3702  0.7399  1.1060
 8688SOL     OW26962   0.049   0.711   3.157  0.2680 -0.0129 -0.3110
 8688SOL    HW126963  -0.015   0.718   3.080 -3.1359  0.4038  2.3399
 8688SOL    HW226964   0.094   0.799   3.170 -1.6477  0.9643  0.1046
 8689SOL     OW26965   5.585   2.772   4.141  0.4426 -0.7432 -0.2524
 8689SOL    HW126966   5.572   2.755   4.239 -0.8869 -0.3782 -0.3461
 8689SOL    HW226967   5.571   2.687   4.090  0.3748 -0.7771 -0.1774
 8690SOL     OW26968   2.228   4.582   0.479 -0.3535  0.0482 -0.4689
 8690SOL    HW126969   2.306   4.525   0.503 -0.0674 -0.0255 -1.5228
 8690SOL    HW226970   2.196   4.558   0.388 -0.2474  1.5361 -0.9343
 8691SOL     OW26971   3.299   1.327   4.065  1.0472  0.2169  0.1143
 8691SOL    HW126972   3.309   1.377   3.979 -0.9510  0.7294  0.1135
 8691SOL    HW226973   3.264   1.389   4.135 -0.9647 -0.9968  0.2610
 8692SOL     OW26974   5.267   3.992   2.059 -0.3933  0.5127 -0.3189
 8692SOL    HW126975   5.221   4.079   2.078 -0.4182  0.6604 -1.0350
 8692SOL    HW226976   5.355   3.990   2.105  0.1332  1.4175 -1.2556
 8693SOL     OW26977   6.853   1.744   5.148  0.0756  0.0184  0.0652
 8693SOL    HW126978   6.890   1.656   5.175 -1.7753 -0.3513  1.6576
 8693SOL    HW226979   6.827   1.742   5.052 -3.0272 -2.4428  0.7854
 8694SOL     OW26980   4.111   0.322   4.798 -0.2254 -0.3515  0.0923
 8694SOL    HW126981   4.203   0.323   4.759 -0.3168 -2.3986 -0.2486
 8694SOL    HW226982   4.113   0.365   4.889  0.9268  0.1688 -0.1606
 8695SOL     OW26983   0.443   4.960   1.615  0.5686  0.0015 -0.4873
 8695SOL    HW126984   0.419   4.864   1.600 -0.5794  0.1799  0.1128
 8695SOL    HW226985   0.535   4.966   1.654 -0.4008 -1.0615  2.2262
 8696SOL     OW26986   0.234   6.191   0.025 -0.2036 -0.4108  0.5052
 8696SOL    HW126987   0.288   6.261   0.072 -0.3823 -0.6244  1.0469
 8696SOL    HW226988   0.203   6.225  -0.063  0.4570 -0.1306  0.3720
 8697SOL     OW26989   5.546   1.571   5.975 -0.0704 -0.1344 -0.0465
 8697SOL    HW126990   5.454   1.530   5.971 -0.7340  1.3204 -0.4326
 8697SOL    HW226991   5.550   1.636   6.051  0.9834 -0.9144  0.5923
 8698SOL     OW26992   5.025   6.201   5.706 -0.1200 -0.1503 -0.3491
 8698SOL    HW126993   5.124   6.209   5.694 -0.3438 -0.7714 -3.2011
 8698SOL    HW226994   4.994   6.110   5.677 -1.6888  0.5443 -1.0045
 8699SOL     OW26995   5.697   6.280   2.518 -0.4974 -0.7621 -0.0909
 8699SOL    HW126996   5.644   6.322   2.592 -0.9290 -1.2139 -0.1335
 8699SOL    HW226997   5.641   6.277   2.435  0.4615  0.9856 -0.8298
 8700SOL     OW26998   0.133   3.002   3.529  1.0372 -0.1160  0.5601
 8700SOL    HW126999   0.210   2.970   3.584  1.0611  0.9109  1.1500
 8700SOL    HW227000   0.068   2.927   3.516  2.2365 -1.0736 -0.1655
 8701SOL     OW27001   6.404   6.879   2.121 -0.4058  0.2391  0.4536
 8701SOL    HW127002   6.388   6.930   2.205 -0.7899 -0.8821  1.0890
 8701SOL    HW227003   6.458   6.797   2.141 -1.1833 -0.4725 -0.2283
 8702SOL     OW27004   2.182   3.643   3.518  0.2274  0.0873 -0.1466
 8702SOL    HW127005   2.219   3.678   3.431 -3.0397  2.5039 -0.7748
 8702SOL    HW227006   2.219   3.696   3.594  1.4598 -0.6071 -0.2358
 8703SOL     OW27007   3.259   5.812   6.087 -0.1509 -0.0599  0.0647
 8703SOL    HW127008   3.333   5.749   6.062 -0.3163  0.5205 -2.0435
 8703SOL    HW227009   3.207   5.772   6.163  1.5775 -1.0197  0.8261
 8704SOL     OW27010   1.856   3.364   1.509 -0.5316  0.5064 -1.0965
 8704SOL    HW127011   1.830   3.313   1.591 -0.7807  0.0375 -1.4631
 8704SOL    HW227012   1.845   3.305   1.428  1.4349  0.3396 -1.2988
 8705SOL     OW27013   3.802   5.028   1.285  0.2398 -0.4515 -0.6706
 8705SOL    HW127014   3.752   4.943   1.268 -1.4946 -0.1204  2.2082
 8705SOL    HW227015   3.740   5.106   1.275  1.3044  0.3553 -1.2502
 8706SOL     OW27016   5.811   1.903   5.731 -0.4755 -0.1994  0.3039
 8706SOL    HW127017   5.728   1.854   5.758  0.2933 -2.0340 -0.4617
 8706SOL    HW227018   5.802   1.933   5.636 -0.0601 -0.9345  0.0218
 8707SOL     OW27019   5.937   3.111   6.015  0.5708 -0.5510  0.2949
 8707SOL    HW127020   5.855   3.131   6.068 -0.2075 -2.7129 -0.0013
 8707SOL    HW227021   5.950   3.012   6.009  1.8763 -0.3286 -1.6854
 8708SOL     OW27022   5.942   1.170   0.704  0.3024 -1.2872  0.4304
 8708SOL    HW127023   5.988   1.195   0.618 -0.1895 -2.5659 -0.2225
 8708SOL    HW227024   5.996   1.101   0.752  0.0097 -1.4107  0.5862
 8709SOL     OW27025   5.293   0.425   1.194  0.2975 -0.0608 -0.4058
 8709SOL    HW127026   5.354   0.499   1.166 -0.6352  0.5947 -0.7534
 8709SOL    HW227027   5.331   0.337   1.165  0.9433  0.3574 -0.8468
 8710SOL     OW27028   6.846   1.237   6.752 -0.6765  0.6817 -0.1837
 8710SOL    HW127029   6.890   1.149   6.770  0.9686  0.7289 -3.2884
 8710SOL    HW227030   6.752   1.221   6.721 -0.4395  0.0297 -0.5820
 8711SOL     OW27031   2.979   3.850   0.901 -0.1032 -0.1196  0.0957
 8711SOL    HW127032   3.020   3.759   0.908  1.4959  0.5984  0.4147
 8711SOL    HW227033   2.911   3.850   0.828  0.9885 -1.1798 -0.9671
 8712SOL     OW27034   4.435   0.864   5.802 -0.1979 -0.5036  0.3465
 8712SOL    HW127035   4.350   0.884   5.752 -0.9082 -1.5275  1.0913
 8712SOL    HW227036   4.412   0.829   5.892  1.0541  0.0440  0.8979
 8713SOL     OW27037   2.897   0.555   4.378 -0.2859  0.4088  0.0842
 8713SOL    HW127038   2.983   0.598   4.350 -0.8117  2.3544  1.3057
 8713SOL    HW227039   2.822   0.621   4.368 -1.0859 -0.0954  2.2922
 8714SOL     OW27040   4.719   0.099   3.963  0.4795  0.3178  0.5846
 8714SOL    HW127041   4.689   0.072   3.872  0.6102 -2.3298  1.2325
 8714SOL    HW227042   4.677   0.039   4.032 -0.1891  2.6858  2.3882
 8715SOL     OW27043   2.229   2.153   0.145  0.3113  0.5270  0.2757
 8715SOL    HW127044   2.301   2.084   0.142 -1.9172 -1.9407 -2.0817
 8715SOL    HW227045   2.200   2.175   0.052 -1.6447  1.8001  1.1183
 8716SOL     OW27046   2.076   4.326   3.078  0.1626 -0.3361  0.0066
 8716SOL    HW127047   2.065   4.310   2.979  1.0527 -0.3770 -0.0917
 8716SOL    HW227048   2.105   4.420   3.093  0.0780 -0.3453  0.2337
 8717SOL     OW27049   2.456   1.955   5.108  0.4481  0.0760 -0.2941
 8717SOL    HW127050   2.463   2.036   5.167  3.5891  0.8663 -1.5543
 8717SOL    HW227051   2.402   1.978   5.027 -0.8739  0.0584  0.5517
 8718SOL     OW27052   1.678   3.041   6.429  0.1374 -0.2836 -0.3981
 8718SOL    HW127053   1.626   3.108   6.482 -0.1986 -0.6857 -0.2109
 8718SOL    HW227054   1.776   3.052   6.447 -0.0349 -1.1352  1.1763
 8719SOL     OW27055   1.557   6.567   1.938 -0.2542 -0.2250 -0.1415
 8719SOL    HW127056   1.490   6.597   1.870  0.4220  0.6073 -0.4621
 8719SOL    HW227057   1.530   6.478   1.974 -1.7194  0.2414 -0.0040
 8720SOL     OW27058   6.817   2.398   3.645  0.0692  0.1096 -0.2114
 8720SOL    HW127059   6.850   2.443   3.728  2.3088 -1.8773  0.0923
 8720SOL    HW227060   6.795   2.467   3.576 -1.6654  1.8098  1.8984
 8721SOL     OW27061   3.363   0.973   3.743  0.1363 -0.4115  0.3038
 8721SOL    HW127062   3.405   0.896   3.792 -1.8407 -0.8173  1.4567
 8721SOL    HW227063   3.432   1.043   3.727  1.5843 -1.6583  0.8077
 8722SOL     OW27064   5.215   2.150   6.943  0.3679  0.3052  0.1056
 8722SOL    HW127065   5.139   2.184   6.887 -0.0466  0.1692  0.5727
 8722SOL    HW227066   5.268   2.084   6.891 -0.0782  0.1011 -0.0942
 8723SOL     OW27067   3.253   5.703   2.772  0.2664  0.3080 -0.3053
 8723SOL    HW127068   3.188   5.628   2.780  0.5834 -0.1169 -1.4322
 8723SOL    HW227069   3.292   5.703   2.680  2.9115 -0.3168  0.7262
 8724SOL     OW27070   3.118   4.892   1.599  0.3761 -0.4092 -0.5187
 8724SOL    HW127071   3.065   4.819   1.642 -0.0837 -1.0573 -2.1177
 8724SOL    HW227072   3.185   4.853   1.536 -0.8080  0.5321 -2.4537
 8725SOL     OW27073   6.912   2.148   3.628 -0.3533  0.0330  0.2739
 8725SOL    HW127074   6.856   2.224   3.660  0.3098  0.3086  0.7975
 8725SOL    HW227075   6.981   2.125   3.697  0.4824  0.0124 -0.5376
 8726SOL     OW27076   6.041   1.347   3.126  0.8381 -0.0876 -0.3709
 8726SOL    HW127077   6.052   1.251   3.100 -1.0919 -0.0381 -1.5971
 8726SOL    HW227078   6.124   1.398   3.102  1.4096 -1.1986 -0.8379
 8727SOL     OW27079   1.676   1.660   3.685  0.4515 -0.5561 -0.6842
 8727SOL    HW127080   1.580   1.683   3.672  0.3713 -0.8149 -0.5396
 8727SOL    HW227081   1.687   1.562   3.696  1.0266 -0.8865 -3.4088
 8728SOL     OW27082   3.234   4.537   1.196  0.0586  0.1102  0.1739
 8728SOL    HW127083   3.154   4.549   1.137 -0.0927 -1.5351  0.0171
 8728SOL    HW227084   3.316   4.532   1.139 -0.0811 -1.4135  0.0786
 8729SOL     OW27085   0.602   0.152   2.769  0.5952 -0.3085 -0.1071
 8729SOL    HW127086   0.701   0.164   2.782  0.4607  0.9473 -0.1848
 8729SOL    HW227087   0.577   0.179   2.676  0.3988 -2.1030 -0.6084
 8730SOL     OW27088   6.936   5.829   0.296 -0.1275  0.6494  0.4780
 8730SOL    HW127089   7.024   5.876   0.302 -0.7272  2.9363 -4.1824
 8730SOL    HW227090   6.867   5.892   0.260 -2.0850 -2.6021 -2.0524
 8731SOL     OW27091   2.697   5.237   6.190 -0.1977  0.1113  0.3091
 8731SOL    HW127092   2.746   5.280   6.265  1.4847  0.7006 -1.0526
 8731SOL    HW227093   2.684   5.139   6.210  0.0777  0.2871  1.4030
 8732SOL     OW27094   4.122   0.595   3.708 -0.5579 -0.4303  0.3269
 8732SOL    HW127095   4.043   0.594   3.646  1.1847 -0.6623 -2.0449
 8732SOL    HW227096   4.141   0.502   3.740 -2.4412 -0.1026  2.6792
 8733SOL     OW27097   2.750   1.380   5.991  0.3149 -0.8484 -0.1637
 8733SOL    HW127098   2.821   1.312   6.007  1.0838 -0.4490 -1.5895
 8733SOL    HW227099   2.755   1.410   5.895 -1.4382 -0.4095 -0.1429
 8734SOL     OW27100   2.442   5.677   6.819 -0.6482  0.0351 -0.0511
 8734SOL    HW127101   2.496   5.594   6.808 -1.2343 -0.2765 -0.6251
 8734SOL    HW227102   2.453   5.735   6.739  0.0624  0.7048  0.5093
 8735SOL     OW27103   6.507   6.984   6.932  0.1344  0.2332 -1.3037
 8735SOL    HW127104   6.541   6.898   6.970 -0.2239  1.1878  1.4324
 8735SOL    HW227105   6.528   6.988   6.834  0.6708 -2.6644 -1.3935
 8736SOL     OW27106   4.119   6.645   2.120 -0.1969 -0.4956 -0.1014
 8736SOL    HW127107   4.153   6.724   2.070  1.4167 -0.4602  0.9810
 8736SOL    HW227108   4.097   6.571   2.056  1.1689 -0.2133 -0.9300
 8737SOL     OW27109   4.975   6.059   0.058 -0.4697  0.3901  0.5670
 8737SOL    HW127110   4.948   6.140   0.110 -0.9826  0.7791 -0.2843
 8737SOL    HW227111   4.894   6.011   0.026 -0.1632 -0.0302  0.4132
 8738SOL     OW27112   0.092   5.924   6.049  0.0339 -0.6246  0.2714
 8738SOL    HW127113   0.041   5.861   5.990  0.9770 -1.2251  0.0888
 8738SOL    HW227114   0.179   5.947   6.006  0.7370 -1.0686  1.4180
 8739SOL     OW27115   3.988   1.360   0.413 -0.6143 -0.3906  0.4986
 8739SOL    HW127116   3.994   1.419   0.493 -1.8258 -0.3218  0.5623
 8739SOL    HW227117   4.074   1.362   0.363  0.5988 -1.3298  2.4100
 8740SOL     OW27118   1.870   5.471   6.625  0.3947  0.0107 -0.2388
 8740SOL    HW127119   1.923   5.461   6.541 -1.0727 -0.7572 -1.1150
 8740SOL    HW227120   1.817   5.556   6.621  1.4131  0.7153  0.5832
 8741SOL     OW27121   5.375   3.428   5.024 -0.2670 -0.1157  0.0809
 8741SOL    HW127122   5.330   3.345   5.059 -0.4849  0.1791  0.5108
 8741SOL    HW227123   5.473   3.422   5.041 -0.0518 -0.9653 -1.2607
 8742SOL     OW27124   4.368   0.475   3.925 -0.3426  0.5686  0.2369
 8742SOL    HW127125   4.342   0.566   3.891 -0.7561  0.4824  0.3202
 8742SOL    HW227126   4.297   0.441   3.987  0.8133  1.1102  1.9216
 8743SOL     OW27127   0.534   0.219   1.560  0.8170 -0.9786 -0.6796
 8743SOL    HW127128   0.470   0.153   1.599  0.1933 -1.0496 -1.8032
 8743SOL    HW227129   0.556   0.288   1.629 -1.7690 -0.0067 -0.7279
 8744SOL     OW27130   1.160   5.588   0.005 -0.4746 -0.0060 -0.0743
 8744SOL    HW127131   1.215   5.656   0.053 -0.9326  0.8046 -0.6693
 8744SOL    HW227132   1.195   5.577  -0.089  2.2643 -3.6818  1.1523
 8745SOL     OW27133   4.410   0.615   0.983  0.2002 -0.3777 -0.3204
 8745SOL    HW127134   4.466   0.626   1.065  0.5643 -0.6909 -0.5239
 8745SOL    HW227135   4.342   0.688   0.979 -1.5553 -1.7967  1.6065
 8746SOL     OW27136   5.246   5.878   5.783  0.2214  0.7902  0.5737
 8746SOL    HW127137   5.166   5.912   5.833  0.2983  0.3920  0.9820
 8746SOL    HW227138   5.328   5.921   5.820  0.1556  1.6934 -0.2811
 8747SOL     OW27139   2.144   2.175   0.435  0.1814  0.0732  0.0418
 8747SOL    HW127140   2.160   2.188   0.337 -2.2977  0.4197 -0.3957
 8747SOL    HW227141   2.056   2.216   0.459  1.1728  0.8195  2.6362
 8748SOL     OW27142   1.849   6.096   1.927  0.1169  0.2957  0.0129
 8748SOL    HW127143   1.833   6.007   1.884  0.4345  0.0990  0.3028
 8748SOL    HW227144   1.812   6.168   1.867  0.9964  0.0591 -0.8420
 8749SOL     OW27145   3.921   0.792   3.936 -0.6321  0.2168  0.0634
 8749SOL    HW127146   3.901   0.859   4.007 -1.6223 -0.3897  0.3756
 8749SOL    HW227147   3.957   0.708   3.977  1.1413  0.7328 -0.3701
 8750SOL     OW27148   2.083   1.445   6.693 -0.4968 -0.0716 -0.1640
 8750SOL    HW127149   2.098   1.490   6.605  1.1776  1.1204  0.6769
 8750SOL    HW227150   2.044   1.511   6.758 -1.7094 -0.9331  0.0126
 8751SOL     OW27151   1.458   2.020   5.397 -0.4318 -0.0046 -0.6229
 8751SOL    HW127152   1.397   2.069   5.459 -0.1515 -0.4859  0.0436
 8751SOL    HW227153   1.447   1.921   5.410  2.1552 -0.1547  1.2478
 8752SOL     OW27154   4.040   2.178   6.567  0.0813  0.2639  0.3491
 8752SOL    HW127155   3.965   2.239   6.593 -1.0948 -2.1570  3.2698
 8752SOL    HW227156   4.003   2.099   6.519  1.2277  0.4335 -0.8784
 8753SOL     OW27157   6.643   5.667   6.485  0.3810 -0.5908  0.2978
 8753SOL    HW127158   6.608   5.690   6.394  1.4274  2.2702  0.5399
 8753SOL    HW227159   6.719   5.602   6.476  0.8776  0.1308 -0.9274
 8754SOL     OW27160   0.675   3.845   4.565 -0.8188  0.0558 -0.1709
 8754SOL    HW127161   0.653   3.793   4.483  2.5037 -0.8681 -0.6402
 8754SOL    HW227162   0.751   3.907   4.545 -1.6095  1.7105  1.6093
 8755SOL     OW27163   0.549   5.592   6.664 -0.0414 -0.1282  0.1041
 8755SOL    HW127164   0.538   5.691   6.654  0.6735 -0.1215 -0.7891
 8755SOL    HW227165   0.478   5.557   6.725  0.4082  1.1036  1.4175
 8756SOL     OW27166   0.644   4.744   1.358 -0.2004 -0.0329 -0.5249
 8756SOL    HW127167   0.629   4.715   1.452  3.6363  0.4059  0.4069
 8756SOL    HW227168   0.685   4.835   1.358  0.1206 -0.1334 -2.6130
 8757SOL     OW27169   6.269   5.229   3.822  0.1929  0.0373 -0.2112
 8757SOL    HW127170   6.335   5.304   3.813  2.3300 -1.7539 -0.2419
 8757SOL    HW227171   6.290   5.158   3.756 -2.1946 -0.3652 -0.6271
 8758SOL     OW27172   3.010   3.001   5.245  0.4481 -0.5116  0.1345
 8758SOL    HW127173   3.103   3.026   5.269  0.7461 -0.1163 -1.3209
 8758SOL    HW227174   2.993   2.906   5.270  0.7111 -0.1384  1.8291
 8759SOL     OW27175   3.310   3.179   0.437  0.0578 -0.7054 -0.2003
 8759SOL    HW127176   3.288   3.250   0.503  0.7167  2.4465 -3.0414
 8759SOL    HW227177   3.245   3.182   0.361 -0.2346 -3.6345 -0.1942
 8760SOL     OW27178   2.447   4.382   0.286  0.0564  0.1700 -0.4679
 8760SOL    HW127179   2.518   4.337   0.233 -0.7062 -1.2055 -0.3721
 8760SOL    HW227180   2.430   4.331   0.370 -0.1738  1.1857  0.1272
 8761SOL     OW27181   3.095   3.487   4.780  0.3441  0.2585 -0.1344
 8761SOL    HW127182   3.170   3.421   4.783 -0.0040 -0.1401 -0.0583
 8761SOL    HW227183   3.071   3.514   4.873  0.3287  0.3149 -0.1546
 8762SOL     OW27184   5.027   2.766   3.766 -0.5678 -0.1469  0.0539
 8762SOL    HW127185   5.017   2.806   3.857 -0.9294  0.0284 -0.0598
 8762SOL    HW227186   5.124   2.765   3.740 -0.4048 -0.7439  0.6796
 8763SOL     OW27187   0.398   6.306   0.470 -0.1730 -0.1854  0.1980
 8763SOL    HW127188   0.380   6.395   0.511 -0.8298 -0.2828  0.1391
 8763SOL    HW227189   0.494   6.301   0.441 -0.1415  0.5147  0.1582
 8764SOL     OW27190   3.733   0.688   5.112  0.0276  0.4583  0.0087
 8764SOL    HW127191   3.813   0.707   5.056 -0.4092  2.1961 -0.0581
 8764SOL    HW227192   3.756   0.702   5.208  0.7250 -2.3472  0.3581
 8765SOL     OW27193   0.082   5.655   1.863  0.0108  0.4461 -0.2262
 8765SOL    HW127194   0.071   5.650   1.962  0.0983  1.2533 -0.1651
 8765SOL    HW227195   0.176   5.629   1.839 -0.2891 -0.6901 -0.1935
 8766SOL     OW27196   0.356   5.677   4.867 -0.1092 -0.3842 -0.2014
 8766SOL    HW127197   0.280   5.731   4.832  0.7473 -0.7781 -2.8343
 8766SOL    HW227198   0.326   5.583   4.881 -0.6302 -0.0808  0.8775
 8767SOL     OW27199   5.659   6.837   4.116 -0.9238  0.2727  0.3504
 8767SOL    HW127200   5.568   6.807   4.086 -0.2357 -0.8191 -0.7354
 8767SOL    HW227201   5.698   6.768   4.177  0.1777 -0.5440 -1.2074
 8768SOL     OW27202   4.051   0.704   4.638 -0.6729  0.4666 -0.4990
 8768SOL    HW127203   4.111   0.684   4.716 -0.8250 -0.4087 -0.5939
 8768SOL    HW227204   3.961   0.665   4.654 -2.1938  4.0846  0.8850
 8769SOL     OW27205   2.831   2.199   2.502 -0.2004 -0.5663  0.2577
 8769SOL    HW127206   2.926   2.183   2.475 -0.0749  2.8773 -2.0113
 8769SOL    HW227207   2.770   2.173   2.427 -0.8726 -0.8418  0.8900
 8770SOL     OW27208   6.530   3.767   3.646 -0.6414  0.6260  0.4100
 8770SOL    HW127209   6.603   3.819   3.690 -0.9956 -0.6265  2.6466
 8770SOL    HW227210   6.442   3.795   3.683 -1.0196 -0.0694  0.0694
 8771SOL     OW27211   5.342   5.054   0.583  0.5707 -0.7284 -0.0912
 8771SOL    HW127212   5.424   5.018   0.627  1.2272 -0.1558 -0.8197
 8771SOL    HW227213   5.315   4.992   0.509  0.4766 -0.7939 -0.0030
 8772SOL     OW27214   4.621   5.391   3.565  0.5127  0.8272 -0.1381
 8772SOL    HW127215   4.682   5.369   3.489 -0.2715 -1.7506 -0.1172
 8772SOL    HW227216   4.589   5.307   3.608 -0.0449  2.1850  2.3024
 8773SOL     OW27217   2.674   1.330   3.850  0.0103 -0.0104  0.3483
 8773SOL    HW127218   2.664   1.249   3.792  2.8055 -1.8567  2.1740
 8773SOL    HW227219   2.687   1.301   3.945  1.0946  2.5871  1.0785
 8774SOL     OW27220   6.241   6.959   0.238 -0.6378  0.9964 -0.1850
 8774SOL    HW127221   6.194   6.934   0.153  0.3952 -0.6508 -0.3130
 8774SOL    HW227222   6.264   6.876   0.289  1.8083  1.7365  0.0392
 8775SOL     OW27223   2.304   5.607   4.939 -0.4384  0.4261 -0.6720
 8775SOL    HW127224   2.380   5.544   4.950  1.1310  2.4824  1.2697
 8775SOL    HW227225   2.314   5.683   5.003 -3.7645  1.1972 -0.8616
 8776SOL     OW27226   6.141   6.807   1.539  0.1209  0.1324 -0.1207
 8776SOL    HW127227   6.124   6.739   1.610 -0.7792  2.1738  1.7693
 8776SOL    HW227228   6.183   6.764   1.459  0.6224 -2.3841  1.4100
 8777SOL     OW27229   4.569   3.491   1.128  0.1818  0.1169  0.7695
 8777SOL    HW127230   4.524   3.417   1.079  1.3846  0.7259 -1.3621
 8777SOL    HW227231   4.667   3.472   1.136  0.0338  0.0207  3.0434
 8778SOL     OW27232   2.638   7.007   1.984  0.2709 -0.1092  0.2478
 8778SOL    HW127233   2.540   6.988   1.990  0.1624  0.5661  0.8330
 8778SOL    HW227234   2.684   6.932   1.937 -0.6577  0.0007 -0.8955
 8779SOL     OW27235   6.363   5.879   2.162  0.2834  0.1067 -0.1348
 8779SOL    HW127236   6.344   5.834   2.249 -0.1410  3.7559  1.8440
 8779SOL    HW227237   6.296   5.952   2.146  1.9357  1.3210 -2.1512
 8780SOL     OW27238   1.036   1.448   6.150  0.4374 -0.4866  0.0571
 8780SOL    HW127239   0.997   1.375   6.094  0.0503 -0.6465  0.5331
 8780SOL    HW227240   1.093   1.506   6.093 -1.4907  0.5073 -0.9339
 8781SOL     OW27241   3.015   3.180   0.492  0.1175 -0.0019  0.1322
 8781SOL    HW127242   3.071   3.158   0.572 -1.6048 -1.1304  1.0937
 8781SOL    HW227243   3.000   3.097   0.439 -1.6674 -0.0119  0.6027
 8782SOL     OW27244   1.689   0.842   3.626 -0.3350 -0.7490 -0.6751
 8782SOL    HW127245   1.644   0.902   3.560  0.2995  0.7737  0.1980
 8782SOL    HW227246   1.788   0.854   3.618 -0.1778  2.3514  2.8657
 8783SOL     OW27247   3.259   5.093   0.511  0.4003 -0.0777 -0.1305
 8783SOL    HW127248   3.172   5.067   0.554 -0.2003  0.3687 -1.0611
 8783SOL    HW227249   3.260   5.191   0.493  0.9202 -0.1498 -0.5201
 8784SOL     OW27250   2.886   1.697   0.064 -0.1365 -0.0001  0.1485
 8784SOL    HW127251   2.952   1.698   0.139 -1.2338 -0.8774  1.1758
 8784SOL    HW227252   2.903   1.774   0.003  1.6934 -0.1004  0.4764
 8785SOL     OW27253   4.715   6.173   3.036 -0.0926  0.0096  0.0935
 8785SOL    HW127254   4.702   6.111   3.114 -1.9195 -0.7984 -0.8008
 8785SOL    HW227255   4.692   6.266   3.063  0.2366 -0.0966  0.7672
 8786SOL     OW27256   6.349   0.736   3.167  0.0372 -0.0928 -0.0813
 8786SOL    HW127257   6.375   0.793   3.089  0.0499 -0.4101 -0.3085
 8786SOL    HW227258   6.430   0.715   3.221  0.3394 -1.4288 -1.0193
 8787SOL     OW27259   2.540   0.531   6.645  0.2679  0.1096 -0.0966
 8787SOL    HW127260   2.629   0.487   6.658 -0.3864 -1.0599  0.6274
 8787SOL    HW227261   2.469   0.461   6.639 -0.6032  1.0258 -0.7532
 8788SOL     OW27262   2.103   2.483   5.534  0.3481  0.4769  0.7761
 8788SOL    HW127263   2.088   2.516   5.440  1.9163  0.0034  0.3347
 8788SOL    HW227264   2.076   2.555   5.598 -1.3591  0.5784  0.0251
 8789SOL     OW27265   1.172   5.999   1.143 -0.1724  0.0169 -0.3169
 8789SOL    HW127266   1.158   6.090   1.182  0.4188  0.0986 -0.2864
 8789SOL    HW227267   1.217   6.008   1.054  0.1292 -0.2552 -0.1926
 8790SOL     OW27268   2.760   4.031   0.546 -0.5354  0.1153  0.0402
 8790SOL    HW127269   2.669   4.005   0.512 -0.4733  0.9466 -0.7823
 8790SOL    HW227270   2.791   4.114   0.500  1.4009 -1.1031 -0.9817
 8791SOL     OW27271   0.585   6.040   0.307  0.4005 -0.0152 -0.8358
 8791SOL    HW127272   0.589   6.057   0.406  0.4918  0.8582 -0.9750
 8791SOL    HW227273   0.609   6.124   0.259  1.8032 -0.8327 -1.6025
 8792SOL     OW27274   5.653   4.564   5.383  0.8481  0.2423 -0.2764
 8792SOL    HW127275   5.633   4.483   5.329  1.0529 -0.5515  0.8137
 8792SOL    HW227276   5.569   4.616   5.397  0.7001  0.1827 -0.8849
 8793SOL     OW27277   6.973   5.149   0.319 -0.0137  0.4211  0.0168
 8793SOL    HW127278   7.038   5.076   0.297  1.1872  0.9669  1.5739
 8793SOL    HW227279   6.983   5.175   0.415 -1.0388  2.0404 -0.2761
 8794SOL     OW27280   3.423   2.424   6.610 -0.3692 -0.0685 -0.0646
 8794SOL    HW127281   3.413   2.448   6.706 -1.3291 -0.4636 -0.0538
 8794SOL    HW227282   3.408   2.326   6.598 -3.5127  0.3975 -0.9822
 8795SOL     OW27283   5.675   3.437   0.583  0.1338  0.7901  0.0857
 8795SOL    HW127284   5.597   3.377   0.601 -0.0152  0.6951 -0.8283
 8795SOL    HW227285   5.749   3.383   0.543  0.2408  1.0959 -0.1323
 8796SOL     OW27286   0.074   3.317   6.922 -0.2117  0.5927 -0.1856
 8796SOL    HW127287   0.079   3.266   7.008  0.8663  1.0659  0.0494
 8796SOL    HW227288   0.048   3.255   6.849 -0.2733 -0.0089  0.3340
 8797SOL     OW27289   1.544   1.591   3.261  0.3366 -0.4093  0.6554
 8797SOL    HW127290   1.561   1.508   3.314 -2.3894 -1.9670 -0.7009
 8797SOL    HW227291   1.493   1.656   3.317  0.8483 -0.3952  1.1229
 8798SOL     OW27292   4.551   3.234   6.305  0.2696  0.0859 -0.6954
 8798SOL    HW127293   4.519   3.152   6.257  1.1339  0.2992 -1.6723
 8798SOL    HW227294   4.506   3.240   6.394  1.4357 -2.3709  0.1529
 8799SOL     OW27295   4.709   5.627   5.195  0.2180  0.0566  0.2415
 8799SOL    HW127296   4.648   5.655   5.121  2.3910  0.4331 -1.5196
 8799SOL    HW227297   4.742   5.534   5.178  1.3774  0.4479  0.2844
 8800SOL     OW27298   2.178   5.073   2.630 -0.0157 -0.2226  0.4084
 8800SOL    HW127299   2.277   5.059   2.633  0.3874  1.2389 -2.2380
 8800SOL    HW227300   2.156   5.165   2.663 -0.7865 -1.2327  2.8964
 8801SOL     OW27301   4.404   1.198   4.879 -0.1787  0.1603  0.1342
 8801SOL    HW127302   4.306   1.208   4.895 -0.0481  0.1557  0.9892
 8801SOL    HW227303   4.446   1.288   4.871  0.0615  0.2501  1.8902
 8802SOL     OW27304   3.532   6.724   5.714  0.6058 -0.5749  0.4710
 8802SOL    HW127305   3.456   6.730   5.777 -1.5529  1.3555 -2.0663
 8802SOL    HW227306   3.609   6.777   5.749 -0.4380  0.2648  1.5663
 8803SOL     OW27307   5.287   1.810   2.551 -0.3059 -0.3038  0.6684
 8803SOL    HW127308   5.259   1.878   2.482 -0.6128 -0.3953  0.7038
 8803SOL    HW227309   5.238   1.827   2.636  1.4644  0.9990  1.4834
 8804SOL     OW27310   5.703   5.556   2.441 -0.4375 -0.0435  0.4690
 8804SOL    HW127311   5.674   5.460   2.438  3.2838 -1.3014 -2.0363
 8804SOL    HW227312   5.650   5.608   2.373 -0.8096 -0.9157  0.0708
 8805SOL     OW27313   3.948   0.253   3.503 -0.5460 -0.4609  1.3164
 8805SOL    HW127314   4.003   0.184   3.456 -1.0228 -0.6325  1.0005
 8805SOL    HW227315   3.897   0.209   3.577 -0.6868 -0.4138  1.2485
 8806SOL     OW27316   4.712   6.549   6.326 -0.2219 -0.0906  0.0213
 8806SOL    HW127317   4.671   6.639   6.339  0.3414  0.2450 -0.4703
 8806SOL    HW227318   4.697   6.518   6.232  0.2030 -0.1843 -0.0196
 8807SOL     OW27319   3.620   0.545   4.312 -0.5106 -0.4413 -0.4098
 8807SOL    HW127320   3.546   0.606   4.341 -0.5017 -1.2665  1.5275
 8807SOL    HW227321   3.620   0.463   4.369  2.7308  0.1268  0.6576
 8808SOL     OW27322   3.352   4.694   6.262  0.8493  0.5174  0.1934
 8808SOL    HW127323   3.259   4.698   6.227  0.3703 -0.6957  1.2802
 8808SOL    HW227324   3.370   4.776   6.317  0.2241  0.4705  0.4722
 8809SOL     OW27325   4.620   0.237   4.544 -0.7075  0.0761  0.3246
 8809SOL    HW127326   4.705   0.265   4.587 -0.5783  0.0583  0.0869
 8809SOL    HW227327   4.634   0.150   4.496 -0.9322 -0.0653  0.5148
 8810SOL     OW27328   5.451   4.006   0.916 -0.1495  0.4098  0.1524
 8810SOL    HW127329   5.389   3.927   0.909 -0.1608  0.2721  1.5502
 8810SOL    HW227330   5.397   4.090   0.922 -0.1594  0.4337 -0.2432
 8811SOL     OW27331   2.384   5.242   2.009  0.3837  0.0560  0.3676
 8811SOL    HW127332   2.291   5.255   1.975  1.0999  2.5156 -0.9330
 8811SOL    HW227333   2.424   5.332   2.028  1.9525 -1.0141  2.5367
 8812SOL     OW27334   5.580   2.509   4.524  0.2654 -0.0931  0.1422
 8812SOL    HW127335   5.650   2.464   4.579 -0.8413 -0.8211  0.9980
 8812SOL    HW227336   5.617   2.594   4.486  1.0046  0.5785  2.2264
 8813SOL     OW27337   4.149   6.971   6.297 -0.3659  0.6540  0.0999
 8813SOL    HW127338   4.216   6.897   6.292 -1.2878 -0.1788 -0.0826
 8813SOL    HW227339   4.175   7.044   6.234  0.3030  0.2938 -0.0447
 8814SOL     OW27340   6.980   6.877   3.226 -0.6497 -0.2417  0.5739
 8814SOL    HW127341   7.070   6.897   3.266 -0.1419 -2.3482  0.6086
 8814SOL    HW227342   6.915   6.858   3.299 -0.9048  0.3762  0.5145
 8815SOL     OW27343   1.555   6.216   2.836  0.2164  1.0785 -0.0068
 8815SOL    HW127344   1.652   6.226   2.859 -0.0759  2.8384  0.6201
 8815SOL    HW227345   1.500   6.250   2.911 -0.9845 -1.5980  0.4510
 8816SOL     OW27346   5.576   2.048   1.721  0.2396  0.6827  0.5437
 8816SOL    HW127347   5.653   2.032   1.659 -0.3143  0.2811 -0.0600
 8816SOL    HW227348   5.608   2.046   1.815  0.7211 -1.1361  0.3892
 8817SOL     OW27349   5.902   4.938   5.880  0.3296 -0.3627 -0.1901
 8817SOL    HW127350   5.945   4.931   5.789 -1.2210  1.4216 -1.1247
 8817SOL    HW227351   5.804   4.920   5.871  0.0495  0.4668  1.0212
 8818SOL     OW27352   2.067   6.098   3.227  0.4825  0.0137 -0.6047
 8818SOL    HW127353   2.132   6.140   3.165 -0.4209  1.7060 -0.4932
 8818SOL    HW227354   2.054   6.157   3.307 -0.4173 -0.7683 -0.1393
 8819SOL     OW27355   0.228   1.284   1.932 -0.1609 -0.2498  0.0345
 8819SOL    HW127356   0.195   1.229   1.855  0.5644 -0.2313 -0.2985
 8819SOL    HW227357   0.153   1.341   1.966 -0.5717 -0.4819 -0.4584
 8820SOL     OW27358   2.485   0.377   4.965  0.1280  0.1464 -0.1596
 8820SOL    HW127359   2.531   0.459   5.000  0.3279  0.0691 -0.2473
 8820SOL    HW227360   2.536   0.339   4.888 -0.2878  0.2882 -0.5111
 8821SOL     OW27361   1.601   2.227   1.016 -0.3391 -0.4730  0.2747
 8821SOL    HW127362   1.507   2.205   0.989 -0.4362 -1.1066  1.0959
 8821SOL    HW227363   1.612   2.326   1.019 -1.0238 -0.3941  0.3235
 8822SOL     OW27364   5.312   2.433   1.844  0.7243  0.5111  0.5647
 8822SOL    HW127365   5.409   2.425   1.867  0.3450 -1.6746  1.6009
 8822SOL    HW227366   5.288   2.365   1.774 -0.2266  0.4695  0.9171
 8823SOL     OW27367   4.232   5.404   6.328  0.1916 -0.1823  0.5640
 8823SOL    HW127368   4.182   5.337   6.274 -1.9670  1.0627  0.8943
 8823SOL    HW227369   4.168   5.452   6.388  1.2347  3.4470 -0.9620
 8824SOL     OW27370   5.483   3.866   6.717 -0.1741 -0.5389 -0.2924
 8824SOL    HW127371   5.570   3.902   6.751  0.6455 -1.2515 -1.5838
 8824SOL    HW227372   5.434   3.938   6.668 -0.5610  0.0005  0.8452
 8825SOL     OW27373   6.064   3.059   5.475  0.5492  0.5044 -0.5802
 8825SOL    HW127374   6.078   3.150   5.435 -4.7494  0.5997 -3.1195
 8825SOL    HW227375   6.009   3.066   5.558 -1.3127 -0.3162 -1.6806
 8826SOL     OW27376   6.260   3.977   2.018  0.2693  0.2558  0.0764
 8826SOL    HW127377   6.175   3.985   2.070  0.2360 -0.5871  0.1784
 8826SOL    HW227378   6.268   4.053   1.955 -1.1213 -0.2193 -0.7241
 8827SOL     OW27379   1.598   2.673   5.093  0.3692  0.6123  0.5938
 8827SOL    HW127380   1.552   2.598   5.141 -1.5717  0.9381 -0.6491
 8827SOL    HW227381   1.661   2.635   5.026  2.1318  0.1592  2.3942
 8828SOL     OW27382   6.441   1.659   0.371 -0.1892  0.2085 -0.1320
 8828SOL    HW127383   6.376   1.726   0.407  0.1058  1.7062 -2.1946
 8828SOL    HW227384   6.530   1.672   0.414 -0.6505 -0.2870  1.0001
 8829SOL     OW27385   5.934   3.186   1.397 -0.0869 -0.2381  0.7542
 8829SOL    HW127386   5.897   3.236   1.475  0.6228  0.6435  0.5314
 8829SOL    HW227387   6.024   3.222   1.373 -1.5302  1.7019 -2.4525
 8830SOL     OW27388   0.307   6.059   4.808 -0.1057 -0.3117 -0.0272
 8830SOL    HW127389   0.299   6.055   4.908 -0.3334  1.6173  0.0774
 8830SOL    HW227390   0.374   6.129   4.783 -0.5651 -0.2786 -1.2386
 8831SOL     OW27391   3.426   5.962   1.232 -0.2380  0.0136  0.4185
 8831SOL    HW127392   3.501   5.986   1.169 -0.0522  0.7059  0.8879
 8831SOL    HW227393   3.464   5.937   1.321 -0.5000 -0.9823  0.2630
 8832SOL     OW27394   1.746   0.067   6.966  0.2413  0.2580 -0.2711
 8832SOL    HW127395   1.813   0.050   7.037 -1.3163 -0.8107  1.0274
 8832SOL    HW227396   1.667   0.115   7.005  0.5230  2.1936 -1.9145
 8833SOL     OW27397   3.062   0.254   5.461 -0.2578  0.0727  0.3555
 8833SOL    HW127398   2.966   0.238   5.442 -1.0377  0.7111  3.2266
 8833SOL    HW227399   3.102   0.174   5.506 -0.0267  0.5328  0.9953
 8834SOL     OW27400   0.804   4.057   2.208 -0.1975 -0.2041 -0.0915
 8834SOL    HW127401   0.862   4.074   2.288  1.2289  0.7171 -1.2716
 8834SOL    HW227402   0.720   4.109   2.216  1.0371  1.9417 -0.3208
 8835SOL     OW27403   4.763   2.014   5.520 -0.7729 -0.1473 -0.3794
 8835SOL    HW127404   4.834   1.982   5.582 -1.9905  1.6655  2.1314
 8835SOL    HW227405   4.705   1.938   5.493  1.1072 -1.3700 -1.2195
 8836SOL     OW27406   6.461   6.821   5.411 -0.5816  0.5903  0.3116
 8836SOL    HW127407   6.503   6.895   5.464  0.5886 -0.4853  0.9432
 8836SOL    HW227408   6.462   6.845   5.314 -0.9178  1.7160  0.5717
 8837SOL     OW27409   6.585   5.335   5.468  0.2919  0.4988 -0.1191
 8837SOL    HW127410   6.523   5.413   5.478  1.3756  1.1312  2.3132
 8837SOL    HW227411   6.543   5.254   5.510  1.3958  1.1764  2.5331
 8838SOL     OW27412   0.341   0.317   0.541 -0.1134 -0.4550  0.5587
 8838SOL    HW127413   0.371   0.233   0.585  0.4864 -0.5157  0.0541
 8838SOL    HW227414   0.244   0.332   0.561  0.5464  0.5307  3.4486
 8839SOL     OW27415   4.908   0.383   3.389 -0.2656 -0.0643 -0.3848
 8839SOL    HW127416   4.951   0.473   3.386 -0.4346 -0.0075 -1.2538
 8839SOL    HW227417   4.917   0.345   3.481 -0.0820  0.7820 -0.0453
 8840SOL     OW27418   1.769   6.052   3.789 -0.1855 -1.1609 -0.3209
 8840SOL    HW127419   1.819   6.072   3.705 -1.0411  0.3469 -0.5101
 8840SOL    HW227420   1.834   6.050   3.866  0.1869  1.2184 -0.4885
 8841SOL     OW27421   5.232   0.778   6.107  0.1373 -0.0764  0.4178
 8841SOL    HW127422   5.313   0.752   6.055  0.3215 -0.5242  0.9264
 8841SOL    HW227423   5.180   0.846   6.055 -0.5483 -1.6925 -1.0970
 8842SOL     OW27424   5.260   3.105   3.044 -0.6415 -0.0005 -0.5688
 8842SOL    HW127425   5.334   3.125   3.109 -1.3353  0.5580  0.0677
 8842SOL    HW227426   5.206   3.188   3.029 -0.3804 -0.0669 -2.0284
 8843SOL     OW27427   2.841   6.328   4.172 -0.0073  0.1064 -0.4396
 8843SOL    HW127428   2.791   6.366   4.250  0.4699 -1.5282  0.7192
 8843SOL    HW227429   2.891   6.247   4.201  0.0465 -0.6635 -2.5232
 8844SOL     OW27430   6.830   4.777   0.359  0.1436 -0.3233 -0.5185
 8844SOL    HW127431   6.926   4.795   0.379 -0.8919  2.9734  2.5409
 8844SOL    HW227432   6.808   4.810   0.268  1.2123  2.4141  0.1261
 8845SOL     OW27433   6.756   5.937   5.285 -0.3184  0.4998 -0.3180
 8845SOL    HW127434   6.789   6.028   5.311  1.4167 -0.2177  0.1162
 8845SOL    HW227435   6.826   5.892   5.229  0.0563 -1.5996  1.7381
 8846SOL     OW27436   6.670   4.524   3.335 -0.0434  0.3365 -0.1793
 8846SOL    HW127437   6.756   4.569   3.358 -1.7223  2.5323  2.3174
 8846SOL    HW227438   6.657   4.525   3.236  1.9203  1.6402 -0.4786
 8847SOL     OW27439   6.374   3.766   6.108  0.0692  0.0444  0.2962
 8847SOL    HW127440   6.451   3.708   6.137  1.5873  1.7649 -0.1321
 8847SOL    HW227441   6.378   3.853   6.156  0.0824  1.2534 -1.7972
 8848SOL     OW27442   1.875   6.796   6.161 -0.0086  0.0649  0.3421
 8848SOL    HW127443   1.940   6.872   6.150  1.7094 -1.1502  1.4333
 8848SOL    HW227444   1.871   6.743   6.077  1.6356 -0.6844  0.6768
 8849SOL     OW27445   2.047   6.361   5.950 -0.0537  0.0091  0.0241
 8849SOL    HW127446   2.050   6.435   6.018 -0.1646 -1.1386  1.3052
 8849SOL    HW227447   1.986   6.289   5.981 -1.3359  0.1268 -2.0278
 8850SOL     OW27448   2.211   3.466   5.208 -0.0885  0.2223 -0.0359
 8850SOL    HW127449   2.236   3.460   5.305  0.6464 -1.5996 -0.2989
 8850SOL    HW227450   2.230   3.559   5.175  1.1823  0.4316  1.1706
 8851SOL     OW27451   1.460   5.976   2.752  0.1976 -0.1847  0.0087
 8851SOL    HW127452   1.470   5.971   2.653  0.4930  0.9271 -0.0350
 8851SOL    HW227453   1.508   6.057   2.786 -0.7273 -0.0061  0.9419
 8852SOL     OW27454   2.971   4.748   5.456  0.4624 -0.1927  0.0546
 8852SOL    HW127455   2.989   4.713   5.364 -3.1450 -4.3300  0.5378
 8852SOL    HW227456   2.904   4.822   5.451 -0.7880 -1.3298 -0.6809
 8853SOL     OW27457   1.782   5.392   1.195  0.2518  0.6767 -0.3680
 8853SOL    HW127458   1.716   5.369   1.266 -0.1019 -3.0265 -1.6668
 8853SOL    HW227459   1.738   5.385   1.105  2.1272 -1.1205 -1.2282
 8854SOL     OW27460   0.313   4.775   5.382  0.0481  0.0653  0.2925
 8854SOL    HW127461   0.353   4.722   5.308 -0.8632  1.4085 -1.2432
 8854SOL    HW227462   0.381   4.838   5.419  0.6943 -1.0652  1.0919
 8855SOL     OW27463   6.435   4.967   1.105 -0.2203 -0.5143  0.0250
 8855SOL    HW127464   6.408   5.040   1.168  1.3141  0.2517 -0.1629
 8855SOL    HW227465   6.501   5.003   1.039 -1.1962 -1.5065 -1.5288
 8856SOL     OW27466   3.428   1.108   4.028  1.0593  0.3607  0.5196
 8856SOL    HW127467   3.479   1.128   3.945  2.1838 -1.0398  0.8382
 8856SOL    HW227468   3.386   1.192   4.063 -1.5038  0.6366 -2.7535
 8857SOL     OW27469   3.163   5.223   3.717 -0.0612  0.1303 -0.4160
 8857SOL    HW127470   3.128   5.303   3.766  0.2498 -0.7555  1.3246
 8857SOL    HW227471   3.086   5.166   3.688 -0.2697 -1.4610  2.8004
 8858SOL     OW27472   5.261   2.304   1.561 -0.0736  0.2222  0.0236
 8858SOL    HW127473   5.242   2.391   1.515  0.6765  0.1359 -0.4760
 8858SOL    HW227474   5.311   2.243   1.499  0.4078 -0.1369  0.7384
 8859SOL     OW27475   4.787   5.850   3.581 -0.7616  0.0376 -0.1056
 8859SOL    HW127476   4.708   5.819   3.528 -0.4741 -1.0426  0.0621
 8859SOL    HW227477   4.847   5.904   3.522 -1.3835  0.4547 -0.3643
 8860SOL     OW27478   1.350   6.045   4.861  0.2366  0.0766 -0.0770
 8860SOL    HW127479   1.289   6.112   4.903 -0.3549 -0.9283  0.6830
 8860SOL    HW227480   1.444   6.075   4.872  0.0406  0.2461  1.2062
 8861SOL     OW27481   4.093   1.875   0.790  0.1907  0.3799  0.4300
 8861SOL    HW127482   4.095   1.858   0.889 -1.2134  1.7223  0.7220
 8861SOL    HW227483   4.039   1.957   0.771 -0.0139 -0.1528 -1.5091
 8862SOL     OW27484   6.188   2.609   0.861  0.1802 -0.0077 -0.3576
 8862SOL    HW127485   6.170   2.682   0.928 -1.1859 -0.4487 -0.2060
 8862SOL    HW227486   6.198   2.649   0.770 -0.2063  0.4156 -0.2204
 8863SOL     OW27487   2.631   5.020   4.785 -0.5927  0.4641 -0.3450
 8863SOL    HW127488   2.701   5.026   4.856  0.6975 -0.1298 -1.5201
 8863SOL    HW227489   2.622   4.925   4.754 -1.3903  0.6554 -0.7464
 8864SOL     OW27490   5.963   2.362   5.984  0.3419 -0.2391  0.5731
 8864SOL    HW127491   6.006   2.296   5.923 -0.5869 -0.6024  0.2932
 8864SOL    HW227492   5.939   2.444   5.933  1.6422  0.4091  0.9543
 8865SOL     OW27493   4.818   6.207   5.411 -0.3599  0.1353  0.1629
 8865SOL    HW127494   4.721   6.227   5.407 -0.6877 -0.9547  1.7774
 8865SOL    HW227495   4.869   6.288   5.441 -0.7000  0.7727 -0.9019
 8866SOL     OW27496   5.667   5.610   3.359 -0.4136 -0.6139 -0.1913
 8866SOL    HW127497   5.587   5.600   3.299  0.1601  1.1809 -1.3450
 8866SOL    HW227498   5.649   5.683   3.425  0.4039  0.1079 -0.7484
 8867SOL     OW27499   4.767   3.001   4.022 -0.2464 -0.0877 -0.1774
 8867SOL    HW127500   4.800   3.039   3.936  1.1725 -0.6969  0.0599
 8867SOL    HW227501   4.751   3.075   4.087 -1.2031  0.3645 -0.9135
 8868SOL     OW27502   1.847   6.999   3.810 -0.4510  0.1987  0.3980
 8868SOL    HW127503   1.798   7.085   3.826  0.6123  0.4384  2.8640
 8868SOL    HW227504   1.784   6.922   3.822 -0.5825  0.5420  2.2196
 8869SOL     OW27505   4.912   1.351   6.959  0.1388 -0.1368 -0.0706
 8869SOL    HW127506   4.883   1.255   6.952 -1.2430  0.2896 -0.4247
 8869SOL    HW227507   4.880   1.389   7.046  3.4904 -0.8627  1.6549
 8870SOL     OW27508   6.222   6.278   0.917 -0.0713  0.1100  0.3077
 8870SOL    HW127509   6.155   6.315   0.853 -1.1852  2.7339  2.8158
 8870SOL    HW227510   6.183   6.198   0.963 -0.1268 -0.4278 -0.6496
 8871SOL     OW27511   5.654   0.345   6.427 -0.0337 -0.0726 -0.4035
 8871SOL    HW127512   5.626   0.258   6.467 -1.3594  0.1280 -0.8436
 8871SOL    HW227513   5.594   0.417   6.460  0.9911  0.6772 -0.1232
 8872SOL     OW27514   1.769   0.607   4.568  0.2761 -0.2579 -0.5772
 8872SOL    HW127515   1.808   0.599   4.477 -0.4992  0.2444 -0.9676
 8872SOL    HW227516   1.785   0.522   4.619  1.3815 -0.2540 -0.9017
 8873SOL     OW27517   2.345   3.356   0.798 -0.0147 -0.2547 -0.5243
 8873SOL    HW127518   2.285   3.406   0.735 -3.6154 -0.4064  2.3966
 8873SOL    HW227519   2.369   3.268   0.758 -0.3950  0.4948 -2.4997
 8874SOL     OW27520   2.343   0.475   2.114 -0.6528 -0.2734 -0.0575
 8874SOL    HW127521   2.433   0.443   2.143 -0.3924 -0.7525 -1.2982
 8874SOL    HW227522   2.318   0.430   2.028 -2.1119 -0.2006  0.2888
 8875SOL     OW27523   6.990   0.833   4.388  0.6967 -0.4191  0.4785
 8875SOL    HW127524   7.007   0.916   4.442  1.0576 -1.1573  1.5361
 8875SOL    HW227525   6.941   0.766   4.444  0.0336 -0.7730 -0.4976
 8876SOL     OW27526   1.196   2.634   2.706  0.0293  0.1496  0.4105
 8876SOL    HW127527   1.111   2.683   2.726  0.7283  1.0021  1.4409
 8876SOL    HW227528   1.184   2.537   2.726 -0.6451  0.2922  0.7275
 8877SOL     OW27529   4.924   3.392   1.593  0.1436  0.2733 -0.7907
 8877SOL    HW127530   4.977   3.413   1.511 -1.0080 -0.4492 -1.7500
 8877SOL    HW227531   4.930   3.294   1.612 -1.3121  0.0592 -1.2861
 8878SOL     OW27532   5.344   5.800   1.760  0.0819  0.4697  0.9454
 8878SOL    HW127533   5.331   5.796   1.859  0.2854  1.5820  1.0314
 8878SOL    HW227534   5.441   5.815   1.741  0.3752 -1.7640  0.5021
 8879SOL     OW27535   5.735   3.116   3.658  0.0184 -0.3342 -0.1800
 8879SOL    HW127536   5.740   3.059   3.740  1.4515 -0.7825 -0.5641
 8879SOL    HW227537   5.827   3.137   3.625 -0.4207  2.6132  0.2011
 8880SOL     OW27538   1.248   4.929   5.560  0.4986 -0.5450  0.1734
 8880SOL    HW127539   1.315   4.855   5.569 -0.8756 -1.6327  2.2125
 8880SOL    HW227540   1.255   4.990   5.639  0.5070  0.5820 -0.6807
 8881SOL     OW27541   0.532   0.748   6.462 -0.0609 -0.2018  0.7631
 8881SOL    HW127542   0.615   0.736   6.517  1.3412  1.4238 -0.8665
 8881SOL    HW227543   0.466   0.802   6.515  1.1443  1.0954  1.0274
 8882SOL     OW27544   4.709   2.739   2.748  0.2341  0.3178 -0.0821
 8882SOL    HW127545   4.671   2.655   2.787 -2.2321  0.8589 -1.1061
 8882SOL    HW227546   4.723   2.806   2.822 -2.4660  0.6299  0.2757
 8883SOL     OW27547   2.621   1.099   3.699  0.5492  0.0461  0.2919
 8883SOL    HW127548   2.627   1.038   3.778  3.9524 -0.8081 -0.4604
 8883SOL    HW227549   2.678   1.063   3.625 -3.3915  0.1873 -3.1130
 8884SOL     OW27550   6.632   5.104   6.373 -0.4938  0.3833 -0.0759
 8884SOL    HW127551   6.600   5.010   6.373 -0.1581  0.2537  1.5267
 8884SOL    HW227552   6.710   5.112   6.310  0.3827 -0.7443  0.8265
 8885SOL     OW27553   3.156   5.148   1.441 -0.2655  0.0681 -0.0400
 8885SOL    HW127554   3.128   5.067   1.494 -3.1904 -0.6555 -2.4084
 8885SOL    HW227555   3.240   5.127   1.391  0.7275 -0.3588  1.7165
 8886SOL     OW27556   3.805   0.578   2.724  0.2454 -0.4420  0.2564
 8886SOL    HW127557   3.740   0.653   2.742  0.2491 -0.2893 -0.3531
 8886SOL    HW227558   3.895   0.604   2.757  0.7382  0.7332 -1.8327
 8887SOL     OW27559   5.988   0.704   2.051 -0.3035 -0.4690  1.0547
 8887SOL    HW127560   5.938   0.788   2.031 -0.0619 -0.7025 -0.7460
 8887SOL    HW227561   6.086   0.725   2.057 -0.3587 -0.4289  1.9299
 8888SOL     OW27562   4.926   1.341   2.334  0.4612 -0.2596  0.0904
 8888SOL    HW127563   4.849   1.277   2.328  0.5212 -0.5054  1.5561
 8888SOL    HW227564   4.995   1.303   2.396  0.1914  1.5208  1.5497
 8889SOL     OW27565   1.346   7.017   1.743  0.1515 -0.0561 -0.3430
 8889SOL    HW127566   1.406   6.993   1.666  1.5714 -1.5109  1.1371
 8889SOL    HW227567   1.260   7.052   1.707  1.4787  1.1713 -2.5613
 8890SOL     OW27568   6.859   2.955   0.840 -0.1694  0.1287 -0.0259
 8890SOL    HW127569   6.791   2.893   0.799 -1.0429  1.3246 -0.4349
 8890SOL    HW227570   6.890   3.020   0.772 -0.8001  1.4286  0.8836
 8891SOL     OW27571   5.395   4.336   0.554  0.2931  0.6509  0.0422
 8891SOL    HW127572   5.451   4.368   0.478  0.1078  0.3266 -0.2317
 8891SOL    HW227573   5.348   4.414   0.596  1.1500  0.9684  0.4506
 8892SOL     OW27574   0.619   4.334   5.380  0.9066 -0.0715  0.0492
 8892SOL    HW127575   0.710   4.324   5.340  0.9559 -0.3636  0.2255
 8892SOL    HW227576   0.598   4.431   5.390  1.7138  0.0188  1.1310
 8893SOL     OW27577   0.752   3.165   5.244 -0.3538 -0.0656 -0.2756
 8893SOL    HW127578   0.846   3.184   5.270 -0.8753  1.3578  0.7061
 8893SOL    HW227579   0.743   3.169   5.144  0.9166 -1.8441 -0.5024
 8894SOL     OW27580   2.733   1.861   1.441 -0.1294 -0.1714 -0.1177
 8894SOL    HW127581   2.803   1.789   1.441 -0.3946 -0.4284 -0.2614
 8894SOL    HW227582   2.679   1.856   1.525  0.5594  0.5569  0.3941
 8895SOL     OW27583   0.761   1.726   3.004  0.1172  0.2895  0.2997
 8895SOL    HW127584   0.772   1.825   3.006 -0.8481  0.5211 -2.3990
 8895SOL    HW227585   0.847   1.683   3.032  1.3786  1.9124 -0.8408
 8896SOL     OW27586   6.092   5.716   1.397 -0.0866 -0.3805 -0.4786
 8896SOL    HW127587   6.052   5.638   1.444 -1.1961 -0.5258 -1.6142
 8896SOL    HW227588   6.180   5.689   1.358 -0.1518 -0.8776 -0.2917
 8897SOL     OW27589   0.843   4.134   2.896  0.2692  0.1801  0.5138
 8897SOL    HW127590   0.823   4.231   2.877  0.9810 -0.0097 -1.3952
 8897SOL    HW227591   0.937   4.114   2.871 -0.0791 -1.1786  0.2514
 8898SOL     OW27592   1.345   6.725   2.114  0.7909 -0.5251 -0.1986
 8898SOL    HW127593   1.316   6.811   2.072 -1.1935 -0.3798  1.3296
 8898SOL    HW227594   1.445   6.722   2.118  0.9144  2.1149  0.4644
 8899SOL     OW27595   3.062   5.441   2.773 -0.2014 -0.1339 -0.2316
 8899SOL    HW127596   3.124   5.380   2.823  0.5313  0.6176 -0.1798
 8899SOL    HW227597   2.977   5.452   2.825  0.1712 -0.1046  0.3894
 8900SOL     OW27598   3.214   6.331   1.438 -0.7599 -0.4508  0.0163
 8900SOL    HW127599   3.193   6.249   1.384 -0.5688 -0.6760  0.2847
 8900SOL    HW227600   3.312   6.350   1.432 -0.9087  0.1545 -0.6051
 8901SOL     OW27601   0.691   1.722   6.531 -0.3539 -0.3467  0.5181
 8901SOL    HW127602   0.719   1.738   6.626 -1.8766 -0.9262  1.0853
 8901SOL    HW227603   0.726   1.633   6.501 -0.7579 -0.6329  0.8919
 8902SOL     OW27604   4.703   5.844   1.382 -0.3849  0.6379 -0.1313
 8902SOL    HW127605   4.794   5.855   1.340  0.0472  0.5413  0.7485
 8902SOL    HW227606   4.650   5.777   1.331  0.4047 -0.0331 -0.0903
 8903SOL     OW27607   2.375   4.977   4.298 -0.2838  0.0963  0.3783
 8903SOL    HW127608   2.469   4.965   4.328  0.0924  1.7040 -0.0682
 8903SOL    HW227609   2.372   4.976   4.198 -0.5690  1.1280  0.3678
 8904SOL     OW27610   0.840   2.169   4.843  0.0307  0.5981 -0.1291
 8904SOL    HW127611   0.773   2.097   4.864  1.2258 -0.4161  0.2748
 8904SOL    HW227612   0.876   2.155   4.751 -0.5905  1.3905 -0.5088
 8905SOL     OW27613   1.712   4.468   4.266  0.1878  0.1856 -0.3974
 8905SOL    HW127614   1.626   4.491   4.220  0.3257  1.3722 -0.0693
 8905SOL    HW227615   1.782   4.449   4.198 -0.2845 -0.6442 -0.6670
 8906SOL     OW27616   0.343   1.240   6.374 -0.9573  0.0938 -0.1845
 8906SOL    HW127617   0.395   1.310   6.422 -0.1579 -0.7977  0.2596
 8906SOL    HW227618   0.252   1.276   6.353 -0.5993  1.2311  0.1095
 8907SOL     OW27619   3.560   5.694   6.820 -0.2861  0.2986 -0.0267
 8907SOL    HW127620   3.492   5.748   6.869  0.0691  0.9802 -0.2658
 8907SOL    HW227621   3.524   5.602   6.802 -0.5085  0.1096  1.2990
 8908SOL     OW27622   4.365   6.705   6.141  0.0415 -0.4820 -0.1576
 8908SOL    HW127623   4.300   6.635   6.169 -1.2110  0.4151 -0.7384
 8908SOL    HW227624   4.343   6.736   6.049  0.7592  0.4610 -0.0260
 8909SOL     OW27625   4.681   6.551   0.995 -0.4885 -0.1826 -0.0079
 8909SOL    HW127626   4.675   6.590   1.087 -0.1728 -1.4169  0.5701
 8909SOL    HW227627   4.684   6.624   0.927 -0.1321  0.7717  1.0046
 8910SOL     OW27628   3.185   4.397   6.242 -0.4513 -1.0897 -0.0806
 8910SOL    HW127629   3.164   4.394   6.339 -0.6391 -0.5317 -0.1031
 8910SOL    HW227630   3.169   4.489   6.206  2.2725 -0.5025 -0.0451
 8911SOL     OW27631   6.473   1.596   3.107  0.3302 -0.1274  0.2449
 8911SOL    HW127632   6.572   1.580   3.110  0.7199  1.7143 -0.8029
 8911SOL    HW227633   6.456   1.691   3.079 -1.7317  0.1049  2.0111
 8912SOL     OW27634   0.280   3.688   1.558  0.4268  0.2236 -0.0248
 8912SOL    HW127635   0.338   3.746   1.500 -0.4334  2.2208  1.0447
 8912SOL    HW227636   0.306   3.699   1.653 -0.3161 -0.5327  0.2810
 8913SOL     OW27637   2.346   4.219   6.028  0.4295 -0.0047  0.2679
 8913SOL    HW127638   2.303   4.130   6.036  0.9243 -0.0777  2.7470
 8913SOL    HW227639   2.444   4.211   6.045  0.4566  1.0261  0.7203
 8914SOL     OW27640   0.412   2.270   3.603 -0.1779  0.4941 -0.3968
 8914SOL    HW127641   0.356   2.316   3.673  1.3642 -0.5135  1.6040
 8914SOL    HW227642   0.442   2.338   3.536 -0.6364  1.7893  0.6463
 8915SOL     OW27643   6.925   6.215   4.258 -0.5396 -0.0629 -0.4372
 8915SOL    HW127644   7.018   6.178   4.265 -0.4520 -0.8159 -3.7507
 8915SOL    HW227645   6.928   6.314   4.261  0.4707 -0.0616 -0.9864
 8916SOL     OW27646   6.401   6.352   0.257  0.2882 -0.2747  0.1770
 8916SOL    HW127647   6.438   6.436   0.296  0.9252  0.5315 -1.9938
 8916SOL    HW227648   6.419   6.275   0.318  2.1532  0.7288  0.9514
 8917SOL     OW27649   5.018   5.630   1.352 -0.2010  0.7682 -0.1478
 8917SOL    HW127650   5.005   5.533   1.330 -0.4620  1.1008 -1.5716
 8917SOL    HW227651   4.942   5.683   1.315  0.3424  1.6141 -0.0813
 8918SOL     OW27652   6.969   2.276   2.724 -0.1748 -0.6519 -0.1472
 8918SOL    HW127653   6.910   2.357   2.720  2.8764  1.7035 -1.8661
 8918SOL    HW227654   6.971   2.232   2.634 -0.7123 -1.8729  0.4145
 8919SOL     OW27655   1.221   2.792   6.553  0.2660  0.0343  0.2626
 8919SOL    HW127656   1.161   2.725   6.510  0.0791  0.1162  0.3969
 8919SOL    HW227657   1.200   2.884   6.519  1.1742 -0.0759 -0.6659
 8920SOL     OW27658   1.591   2.503   0.950 -0.1684 -0.4056  0.0782
 8920SOL    HW127659   1.565   2.592   0.987  1.0128 -0.9077  2.2825
 8920SOL    HW227660   1.661   2.515   0.880 -1.0647  0.4509 -0.7076
 8921SOL     OW27661   2.246   2.948   2.747 -0.0131  0.2422  0.0234
 8921SOL    HW127662   2.296   2.883   2.690  0.0792 -1.2250  1.7197
 8921SOL    HW227663   2.193   3.010   2.688  0.5661 -0.7980 -1.6520
 8922SOL     OW27664   3.710   0.112   0.190 -0.3155 -0.9793 -0.3383
 8922SOL    HW127665   3.658   0.052   0.130  0.9401  0.6416 -3.2438
 8922SOL    HW227666   3.648   0.162   0.251 -1.9282 -0.7965 -2.0677
 8923SOL     OW27667   3.346   5.461   2.309  0.8529 -0.1290  0.0825
 8923SOL    HW127668   3.330   5.549   2.263  2.3872 -0.4313 -1.1083
 8923SOL    HW227669   3.350   5.388   2.242 -1.0932 -1.2843  1.1193
 8924SOL     OW27670   1.530   2.674   2.341  0.2996 -0.3752 -0.3029
 8924SOL    HW127671   1.465   2.646   2.412 -0.0415 -1.4260 -0.9969
 8924SOL    HW227672   1.492   2.750   2.289 -1.5517 -2.4459 -2.2289
 8925SOL     OW27673   3.310   6.407   2.913  0.2270  0.3589 -0.1991
 8925SOL    HW127674   3.348   6.485   2.863  1.3105 -1.1707 -1.8592
 8925SOL    HW227675   3.248   6.356   2.853 -1.9966  0.9575  1.4639
 8926SOL     OW27676   3.553   6.295   6.204  0.0929 -0.7986  0.4355
 8926SOL    HW127677   3.524   6.254   6.118 -2.0853  0.4523  0.5291
 8926SOL    HW227678   3.492   6.265   6.278 -0.4986  1.2220  0.8076
 8927SOL     OW27679   5.962   5.309   0.762 -0.0616  0.3045 -0.3797
 8927SOL    HW127680   5.940   5.273   0.853  1.3357 -0.5126 -0.3325
 8927SOL    HW227681   6.032   5.380   0.771 -0.2999  0.5952 -0.7838
 8928SOL     OW27682   3.969   0.653   2.474  0.3403 -0.0459  0.1207
 8928SOL    HW127683   4.020   0.656   2.388 -0.5030 -0.3417 -0.4006
 8928SOL    HW227684   3.958   0.746   2.510 -0.5453  0.2492 -0.8585
 8929SOL     OW27685   3.417   0.209   5.140  0.2121  0.1371 -0.1430
 8929SOL    HW127686   3.474   0.221   5.059 -0.6206 -2.0877 -1.1281
 8929SOL    HW227687   3.391   0.112   5.149 -0.3775  0.4567  2.3409
 8930SOL     OW27688   3.311   3.990   1.748  0.7554  0.0339  0.2757
 8930SOL    HW127689   3.356   3.975   1.836 -0.2491 -0.9493  0.6483
 8930SOL    HW227690   3.227   4.043   1.763  0.9084  0.4116 -0.1811
 8931SOL     OW27691   2.154   6.227   2.656  0.0104  0.1016 -0.0937
 8931SOL    HW127692   2.074   6.267   2.610 -0.9549 -0.1900  1.2782
 8931SOL    HW227693   2.161   6.130   2.633 -0.6213 -0.1045  0.5483
 8932SOL     OW27694   3.469   3.424   5.989 -0.3475 -0.4203  0.2659
 8932SOL    HW127695   3.381   3.458   5.958  0.0218 -0.7778 -1.2564
 8932SOL    HW227696   3.535   3.499   5.994 -0.6125 -0.2324  0.9447
 8933SOL     OW27697   1.230   2.330   5.202 -0.2800 -0.5066 -0.1327
 8933SOL    HW127698   1.146   2.372   5.236  0.9985  0.5887  1.9071
 8933SOL    HW227699   1.263   2.380   5.122  0.3178  1.4287  1.2509
 8934SOL     OW27700   5.395   6.310   0.323 -0.9254 -0.0732  0.2781
 8934SOL    HW127701   5.317   6.365   0.292 -1.6176 -1.3011 -0.2413
 8934SOL    HW227702   5.399   6.312   0.423 -0.8733  0.9902  0.2691
 8935SOL     OW27703   4.417   1.857   1.730 -0.3107  0.2225 -0.5078
 8935SOL    HW127704   4.351   1.927   1.702 -1.3273 -0.3609  0.3384
 8935SOL    HW227705   4.406   1.775   1.673  2.6902  1.5681 -3.3461
 8936SOL     OW27706   2.584   5.484   1.500 -0.2263 -0.4080  0.4464
 8936SOL    HW127707   2.554   5.565   1.551  0.8011 -0.1763  0.7109
 8936SOL    HW227708   2.675   5.500   1.463  0.7090 -2.0118  1.8825
 8937SOL     OW27709   1.550   1.787   0.388  0.0413  0.0066 -0.5739
 8937SOL    HW127710   1.592   1.875   0.408 -1.0053  0.4503 -0.2418
 8937SOL    HW227711   1.536   1.737   0.473  0.9585 -0.6509 -0.7945
 8938SOL     OW27712   4.424   1.627   1.156  0.2537 -0.1816 -0.5548
 8938SOL    HW127713   4.484   1.552   1.130 -0.0122 -0.4347 -0.4513
 8938SOL    HW227714   4.474   1.692   1.213  0.0339 -1.1829  0.8360
 8939SOL     OW27715   3.186   5.572   6.230 -0.0932  0.6409 -0.5510
 8939SOL    HW127716   3.185   5.648   6.294  0.3412  2.0520 -2.1548
 8939SOL    HW227717   3.280   5.555   6.200 -0.1848 -0.5259 -0.2415
 8940SOL     OW27718   1.455   5.238   6.276 -0.1009 -0.2118  0.2402
 8940SOL    HW127719   1.386   5.250   6.204 -0.5470  1.8075  0.9251
 8940SOL    HW227720   1.538   5.198   6.237 -0.3093  0.8842 -1.4286
 8941SOL     OW27721   3.834   3.221   5.220  0.1947 -0.4748  0.4184
 8941SOL    HW127722   3.810   3.182   5.131  1.4972  0.1685 -0.2508
 8941SOL    HW227723   3.770   3.294   5.243  1.5946  1.4718 -1.4930
 8942SOL     OW27724   0.576   4.607   1.612  0.3231 -0.3661 -0.6350
 8942SOL    HW127725   0.502   4.634   1.673  2.7875 -0.7247  2.8028
 8942SOL    HW227726   0.577   4.507   1.604 -0.0664 -0.3134 -1.4227
 8943SOL     OW27727   2.202   0.233   0.858  0.1264  0.1006  0.5615
 8943SOL    HW127728   2.234   0.241   0.952  0.4341  1.2898  0.3717
 8943SOL    HW227729   2.279   0.206   0.799  0.0312 -0.2271  0.5865
 8944SOL     OW27730   2.490   5.074   5.424  0.8513  0.1218  0.1407
 8944SOL    HW127731   2.514   5.125   5.507  2.6177 -1.3376  0.5925
 8944SOL    HW227732   2.411   5.015   5.443  2.3390 -1.5965  1.4695
 8945SOL     OW27733   6.568   0.205   1.992 -1.0577 -0.0219 -0.3385
 8945SOL    HW127734   6.622   0.225   2.073 -0.8439  0.3643 -0.5752
 8945SOL    HW227735   6.593   0.268   1.918 -3.8018  2.1187  0.3739
 8946SOL     OW27736   0.932   2.265   2.588  0.4148  0.4149 -0.5298
 8946SOL    HW127737   0.925   2.365   2.582  0.0515  0.3994 -0.3991
 8946SOL    HW227738   0.898   2.235   2.677  0.0061  0.1284 -0.7752
 8947SOL     OW27739   2.568   6.156   6.249 -0.2555  0.0558  0.3223
 8947SOL    HW127740   2.590   6.235   6.307  2.0798 -0.4835  0.2982
 8947SOL    HW227741   2.556   6.186   6.155 -2.3595  0.7122  0.7437
 8948SOL     OW27742   6.187   3.277   1.378  0.2618 -0.1585  0.4305
 8948SOL    HW127743   6.227   3.198   1.424  1.0031 -0.6012 -0.9330
 8948SOL    HW227744   6.230   3.361   1.412  0.9055 -0.4903  0.4354
 8949SOL     OW27745   6.409   3.448   5.884  0.2479  0.2960  0.8429
 8949SOL    HW127746   6.388   3.418   5.791 -1.8815  1.9907  0.6931
 8949SOL    HW227747   6.367   3.386   5.950  1.0919 -0.4579  0.6964
 8950SOL     OW27748   3.105   4.447   1.643  0.5192  0.1240  0.0543
 8950SOL    HW127749   3.185   4.505   1.629  0.3168  0.1759 -0.9654
 8950SOL    HW227750   3.063   4.469   1.731  1.9439 -0.3106  0.8798
 8951SOL     OW27751   0.310   3.891   5.225 -0.4177 -0.3302  0.1170
 8951SOL    HW127752   0.218   3.929   5.222 -0.7283 -1.1135 -0.7906
 8951SOL    HW227753   0.372   3.951   5.174 -0.4296  0.1782  0.6965
 8952SOL     OW27754   2.215   4.027   2.911 -0.2254 -0.1582 -0.1462
 8952SOL    HW127755   2.246   4.058   3.000  0.7432 -2.8201  0.5384
 8952SOL    HW227756   2.253   4.085   2.839  0.6402  0.7991  1.0587
 8953SOL     OW27757   6.239   2.827   0.010  0.6708  0.2346 -0.2786
 8953SOL    HW127758   6.303   2.796   0.081 -0.4588  0.4660  0.8791
 8953SOL    HW227759   6.207   2.919   0.032  0.3559  0.3396 -1.1375
 8954SOL     OW27760   4.911   3.163   2.620 -0.1075  0.5635 -0.0089
 8954SOL    HW127761   4.876   3.113   2.541  0.9442  0.9588 -0.7381
 8954SOL    HW227762   5.011   3.156   2.622 -0.1734 -1.2979  2.5008
 8955SOL     OW27763   4.125   4.489   5.585 -0.4508 -0.3158 -0.1852
 8955SOL    HW127764   4.204   4.456   5.637 -0.3271 -0.5942 -0.5439
 8955SOL    HW227765   4.102   4.422   5.514  0.0912  0.5667 -1.2290
 8956SOL     OW27766   5.477   4.056   2.234 -0.4742 -0.2268 -0.0101
 8956SOL    HW127767   5.458   4.127   2.301  0.9726 -1.0175  1.3213
 8956SOL    HW227768   5.526   4.095   2.156  1.1540  0.1107  1.1480
 8957SOL     OW27769   0.490   3.958   2.970 -0.7488 -0.5571  0.2823
 8957SOL    HW127770   0.532   3.989   2.884  0.9006  0.3201  1.3498
 8957SOL    HW227771   0.400   3.919   2.951  0.2933 -2.0198 -2.0539
 8958SOL     OW27772   2.888   0.497   3.951 -0.5482 -0.1324  0.3451
 8958SOL    HW127773   2.983   0.467   3.947 -0.5701 -0.3174  1.0860
 8958SOL    HW227774   2.852   0.483   4.043 -1.3400 -0.2067  0.0357
 8959SOL     OW27775   6.312   0.400   3.182  0.5323 -0.3081 -0.1553
 8959SOL    HW127776   6.383   0.439   3.241  0.4568  1.8775 -1.4112
 8959SOL    HW227777   6.267   0.324   3.229  1.1545  0.6850  2.1562
 8960SOL     OW27778   0.556   2.520   3.298 -0.4458 -0.1438 -0.5564
 8960SOL    HW127779   0.468   2.472   3.302 -1.1361  1.0612 -0.9434
 8960SOL    HW227780   0.553   2.589   3.226  1.4977 -1.3763 -1.9206
 8961SOL     OW27781   5.898   4.250   6.947 -0.0880 -0.0777 -0.8618
 8961SOL    HW127782   5.851   4.164   6.967 -0.7879  0.4876 -0.0052
 8961SOL    HW227783   5.963   4.270   7.021 -3.2867  2.4552  1.5364
 8962SOL     OW27784   4.498   0.201   2.999  0.4310 -0.1837  0.9666
 8962SOL    HW127785   4.591   0.182   3.030  1.7939  0.3742 -2.4018
 8962SOL    HW227786   4.472   0.135   2.928 -0.4433  1.6034 -0.4589
 8963SOL     OW27787   4.733   0.834   0.116 -0.2384  0.1100  0.0055
 8963SOL    HW127788   4.663   0.799   0.054  0.2945  0.8146 -1.0286
 8963SOL    HW227789   4.819   0.785   0.101 -0.3218 -0.2816  0.7823
 8964SOL     OW27790   2.952   6.092   2.876 -0.7890 -0.4354  0.6894
 8964SOL    HW127791   2.887   6.041   2.933 -1.2283 -0.4009  0.2313
 8964SOL    HW227792   3.030   6.033   2.855 -0.5710 -0.4137  1.4032
 8965SOL     OW27793   4.228   6.977   2.568  0.3576  0.0571  0.4726
 8965SOL    HW127794   4.277   7.023   2.494  0.6601 -0.2788  0.4610
 8965SOL    HW227795   4.256   6.881   2.572 -2.3592 -0.9303 -1.3750
 8966SOL     OW27796   5.247   6.823   3.602  0.2402 -0.0236 -0.1595
 8966SOL    HW127797   5.285   6.765   3.530  1.7280  0.2614  0.3618
 8966SOL    HW227798   5.321   6.874   3.646 -0.3327 -1.5815  2.8274
 8967SOL     OW27799   2.144   3.541   0.708  0.4574  0.0180  0.3136
 8967SOL    HW127800   2.136   3.527   0.807  0.2750  1.5638  0.5575
 8967SOL    HW227801   2.184   3.631   0.691  0.7521 -0.3494 -1.0320
 8968SOL     OW27802   1.502   1.075   1.483  0.0333 -0.2358  0.3844
 8968SOL    HW127803   1.449   1.064   1.399 -0.0641  0.3046  0.3681
 8968SOL    HW227804   1.558   1.158   1.477 -0.0251 -0.1544  0.8788
 8969SOL     OW27805   5.278   3.528   2.248 -0.6102 -0.6369  0.0744
 8969SOL    HW127806   5.238   3.605   2.197 -0.3834 -0.4063  0.2440
 8969SOL    HW227807   5.377   3.533   2.244 -0.5939 -1.0524 -0.1023
 8970SOL     OW27808   0.857   3.075   3.051 -0.2293  0.2358  0.1629
 8970SOL    HW127809   0.932   3.009   3.056 -0.3235  0.1582  0.5987
 8970SOL    HW227810   0.799   3.065   3.132  0.2145  1.3916  0.6547
 8971SOL     OW27811   2.493   6.296   3.980 -0.2669 -0.3442 -0.3846
 8971SOL    HW127812   2.551   6.304   3.898 -0.3168 -1.0253 -0.4958
 8971SOL    HW227813   2.503   6.204   4.018 -1.4220 -0.5329 -0.5099
 8972SOL     OW27814   2.303   3.701   1.716 -0.0223  0.1435  0.4881
 8972SOL    HW127815   2.336   3.617   1.758 -0.8185  0.5420  1.9698
 8972SOL    HW227816   2.380   3.761   1.696  0.5327 -0.8120 -0.3827
 8973SOL     OW27817   4.395   4.138   6.285  0.1793 -0.2020 -0.1193
 8973SOL    HW127818   4.304   4.141   6.328 -0.0968  0.3298 -0.7184
 8973SOL    HW227819   4.465   4.141   6.356 -0.2637 -0.8568  0.3665
 8974SOL     OW27820   4.009   6.873   5.271 -0.2858  0.6495  0.1935
 8974SOL    HW127821   4.064   6.812   5.214  0.6118 -0.5315  2.2483
 8974SOL    HW227822   3.912   6.849   5.262 -0.0988  0.0604 -0.3297
 8975SOL     OW27823   6.798   0.269   6.196 -0.6684 -0.4995 -0.3405
 8975SOL    HW127824   6.747   0.213   6.261 -1.4185 -0.3543 -0.7986
 8975SOL    HW227825   6.741   0.344   6.165 -0.9496 -1.5100 -2.4474
 8976SOL     OW27826   6.462   1.874   3.047  0.2280  0.7348  0.7241
 8976SOL    HW127827   6.481   1.955   3.104 -0.3639  1.8996 -0.6606
 8976SOL    HW227828   6.436   1.904   2.955  0.4495 -1.0763  0.0394
 8977SOL     OW27829   4.234   5.656   0.689  0.5881 -0.0876 -0.7154
 8977SOL    HW127830   4.197   5.721   0.623  3.2349  0.8504 -1.3977
 8977SOL    HW227831   4.189   5.567   0.677 -1.9369  1.1298 -0.8796
 8978SOL     OW27832   3.321   5.278   2.098 -0.2114 -0.2123 -0.2550
 8978SOL    HW127833   3.336   5.213   2.023  1.5242 -0.2791  0.1156
 8978SOL    HW227834   3.235   5.255   2.144 -0.9302 -0.6433 -1.7191
 8979SOL     OW27835   5.178   2.459   5.478 -0.6014  0.3633 -0.7707
 8979SOL    HW127836   5.101   2.492   5.532 -1.0017 -0.8738 -0.5550
 8979SOL    HW227837   5.158   2.473   5.381 -0.1106  2.0942 -0.6495
 8980SOL     OW27838   3.687   4.363   1.202  0.3335  0.3575 -0.0898
 8980SOL    HW127839   3.674   4.434   1.132 -0.9336 -0.2399 -0.4919
 8980SOL    HW227840   3.603   4.353   1.254  1.5074  1.3818  2.1359
 8981SOL     OW27841   3.885   5.449   3.444  0.2412  0.1744 -0.6017
 8981SOL    HW127842   3.969   5.398   3.428  1.7154  2.7486 -1.7392
 8981SOL    HW227843   3.854   5.490   3.358 -2.1928 -0.6369 -0.1972
 8982SOL     OW27844   0.168   3.533   3.044  0.3383 -0.4065 -0.6799
 8982SOL    HW127845   0.106   3.584   3.104  0.0175 -0.8544 -0.6226
 8982SOL    HW227846   0.261   3.568   3.053 -0.0934  1.0527 -1.6301
 8983SOL     OW27847   0.574   6.578   0.008 -0.3845 -0.1068  0.2759
 8983SOL    HW127848   0.603   6.639  -0.066 -1.8707 -0.5475 -0.7252
 8983SOL    HW227849   0.655   6.539   0.053  0.5616  0.4004 -0.9315
 8984SOL     OW27850   0.735   6.951   0.012  0.3903 -0.0434 -0.2084
 8984SOL    HW127851   0.712   7.037   0.057 -0.7267 -0.8279  0.7864
 8984SOL    HW227852   0.773   6.970  -0.079 -2.0780  1.4601 -1.0418
 8985SOL     OW27853   3.698   3.007   5.020  0.2063 -0.0851  0.2503
 8985SOL    HW127854   3.774   2.969   4.967  1.3709  0.7127  1.3117
 8985SOL    HW227855   3.631   3.045   4.956  0.7624 -0.6438 -0.7074
 8986SOL     OW27856   1.985   0.022   6.395 -0.0953 -0.7990 -0.3634
 8986SOL    HW127857   1.984  -0.069   6.435  1.9012 -0.0291  1.6727
 8986SOL    HW227858   1.934   0.085   6.453  0.5252 -0.1745 -0.4795
 8987SOL     OW27859   0.276   0.941   6.241 -0.2523 -0.5334 -0.3820
 8987SOL    HW127860   0.285   1.005   6.165 -1.4422 -1.0609 -0.9938
 8987SOL    HW227861   0.262   0.992   6.326 -0.2112  0.0390 -0.7142
 8988SOL     OW27862   1.520   1.474   0.110  0.0417  0.5948 -0.9195
 8988SOL    HW127863   1.593   1.533   0.145  0.3975  0.9544 -2.1959
 8988SOL    HW227864   1.549   1.434   0.023  0.7256 -3.2597  0.8847
 8989SOL     OW27865   6.714   5.806   4.265 -0.1203 -0.1687 -0.5650
 8989SOL    HW127866   6.789   5.819   4.200  0.4994  0.4508  0.2385
 8989SOL    HW227867   6.737   5.853   4.351 -2.2527  1.6645 -0.9014
 8990SOL     OW27868   3.945   6.940   3.935  0.4696 -0.3169 -0.4794
 8990SOL    HW127869   3.932   6.931   4.034 -2.4246 -1.5697 -0.8742
 8990SOL    HW227870   3.913   7.030   3.905 -0.9384 -0.8204 -0.5445
 8991SOL     OW27871   6.216   6.723   2.019 -0.0726  0.5709  0.0164
 8991SOL    HW127872   6.145   6.794   2.022  1.1122  1.7660  0.3019
 8991SOL    HW227873   6.302   6.759   2.055  1.4359  0.0294 -2.7407
 8992SOL     OW27874   4.448   0.341   4.952 -0.4467  0.0628 -0.3214
 8992SOL    HW127875   4.540   0.338   4.991 -0.1790  0.6111 -0.8847
 8992SOL    HW227876   4.415   0.436   4.954 -1.8835 -0.4002  1.8591
 8993SOL     OW27877   6.499   4.770   6.071 -0.1697  0.2464  0.6573
 8993SOL    HW127878   6.483   4.701   6.001 -0.4326 -0.2645  1.2175
 8993SOL    HW227879   6.464   4.858   6.039 -0.4577 -0.0225  0.2235
 8994SOL     OW27880   4.438   6.091   6.724  0.4251 -0.7566  0.0058
 8994SOL    HW127881   4.388   6.178   6.714  0.3501 -0.9024 -1.0265
 8994SOL    HW227882   4.466   6.080   6.819 -2.8539 -1.3837  1.0438
 8995SOL     OW27883   5.893   3.780   1.662  0.2611  0.0503 -0.0161
 8995SOL    HW127884   5.809   3.756   1.711 -0.2526 -0.6801 -1.2132
 8995SOL    HW227885   5.870   3.839   1.584  1.1692  1.9790  1.1236
 8996SOL     OW27886   0.078   6.321   5.323 -0.2397 -0.7179  0.9945
 8996SOL    HW127887   0.145   6.366   5.382 -0.6784 -0.3159  1.1979
 8996SOL    HW227888   0.108   6.327   5.227  0.8606 -2.0563  1.2291
 8997SOL     OW27889   5.191   6.519   5.981  0.3552  0.4024 -0.0584
 8997SOL    HW127890   5.158   6.612   5.999  1.3272  0.4607  1.7300
 8997SOL    HW227891   5.127   6.453   6.021 -0.1603  0.3064 -1.0298
 8998SOL     OW27892   0.999   3.748   5.965  0.0178  0.4200  0.4806
 8998SOL    HW127893   1.055   3.830   5.977  1.0850  0.0116 -1.3750
 8998SOL    HW227894   0.911   3.772   5.925  0.5177  0.6207 -0.5080
 8999SOL     OW27895   6.585   5.660   5.031 -0.0402  0.4034  0.3611
 8999SOL    HW127896   6.683   5.676   5.047 -0.1547  0.6382  0.8643
 8999SOL    HW227897   6.571   5.629   4.937  0.3948  1.5139 -0.0864
 9000SOL     OW27898   1.096   5.141   4.276  0.1636  0.6330 -0.0413
 9000SOL    HW127899   1.065   5.088   4.355  1.6856 -2.2805 -1.2413
 9000SOL    HW227900   1.042   5.117   4.195  0.5297  1.3694 -0.5242
 9001SOL     OW27901   1.912   5.222   2.439  0.0447 -0.0323 -0.6010
 9001SOL    HW127902   1.876   5.286   2.371  1.3295  0.5599 -0.7608
 9001SOL    HW227903   1.930   5.134   2.395 -0.3577 -0.0591 -0.7177
 9002SOL     OW27904   2.398   2.034   6.922 -0.3706 -0.5781 -0.7461
 9002SOL    HW127905   2.299   2.050   6.915 -0.2159  0.4626 -0.6070
 9002SOL    HW227906   2.414   1.949   6.972 -1.1671  0.8667  2.2207
 9003SOL     OW27907   5.252   1.891   6.082 -0.0713  0.1479  0.1480
 9003SOL    HW127908   5.284   1.938   6.001 -0.0320 -2.5278 -1.5165
 9003SOL    HW227909   5.153   1.900   6.089 -0.0693  0.4309 -0.1558
 9004SOL     OW27910   0.592   0.397   6.533 -0.0197  0.2554  0.1777
 9004SOL    HW127911   0.565   0.307   6.566 -1.4601  0.4943 -0.2695
 9004SOL    HW227912   0.573   0.404   6.435  1.1004  0.6824 -0.0222
 9005SOL     OW27913   4.026   3.785   6.895 -0.4258 -0.0732 -0.1062
 9005SOL    HW127914   4.029   3.858   6.963  2.4922 -1.0478  0.9569
 9005SOL    HW227915   4.025   3.824   6.803 -0.3594  1.2978  0.4636
 9006SOL     OW27916   3.350   6.717   3.819 -0.1083  0.4080  0.0297
 9006SOL    HW127917   3.348   6.803   3.769 -1.0407  2.2889  3.0399
 9006SOL    HW227918   3.257   6.680   3.826 -0.1731  0.7621  1.2489
 9007SOL     OW27919   5.880   5.647   3.174 -0.1339  0.7319  0.0034
 9007SOL    HW127920   5.807   5.605   3.227 -0.0839  1.2913  0.5180
 9007SOL    HW227921   5.857   5.742   3.153 -0.1099  0.5522 -0.8979
 9008SOL     OW27922   3.762   3.837   5.798  0.0398 -0.1945  0.5149
 9008SOL    HW127923   3.825   3.876   5.865  0.2624 -0.2361  0.3280
 9008SOL    HW227924   3.811   3.816   5.714  0.0065 -1.2314  0.7380
 9009SOL     OW27925   4.231   0.786   5.459  0.3485  0.4488 -0.5762
 9009SOL    HW127926   4.137   0.783   5.494  1.3480 -1.4817  2.2654
 9009SOL    HW227927   4.279   0.864   5.499  1.0201 -0.8332  1.2575
 9010SOL     OW27928   0.198   2.475   3.668 -0.2648 -0.0369 -0.1641
 9010SOL    HW127929   0.117   2.528   3.642  2.0931  3.3071 -1.2936
 9010SOL    HW227930   0.210   2.480   3.767 -2.2708 -2.0444  0.2643
 9011SOL     OW27931   0.004   5.099   2.517  0.3525 -0.9646  0.3796
 9011SOL    HW127932   0.041   5.053   2.436 -0.0250  0.1303 -0.4268
 9011SOL    HW227933   0.058   5.181   2.535 -1.6974  0.7520 -0.9044
 9012SOL     OW27934   2.866   0.880   4.263 -0.0995  0.0785  0.1119
 9012SOL    HW127935   2.863   0.965   4.210  1.2191 -0.2954 -0.6004
 9012SOL    HW227936   2.853   0.901   4.360  0.0733  1.0696 -0.0694
 9013SOL     OW27937   5.280   6.448   1.771  0.3408  0.4614  0.2209
 9013SOL    HW127938   5.255   6.422   1.678  1.0761 -0.4914  0.2760
 9013SOL    HW227939   5.378   6.434   1.785  0.2599  0.6896  1.1097
 9014SOL     OW27940   6.363   2.652   3.885  0.7454 -0.3045 -0.7829
 9014SOL    HW127941   6.299   2.703   3.827  1.1887 -0.6994 -1.6503
 9014SOL    HW227942   6.381   2.704   3.969  1.3294  1.0732 -1.7144
 9015SOL     OW27943   3.285   6.995   4.970  0.0981  0.0907 -0.1405
 9015SOL    HW127944   3.342   7.001   4.888  1.0122 -3.1816  0.1143
 9015SOL    HW227945   3.193   6.966   4.945  0.1684 -0.1778 -0.0942
 9016SOL     OW27946   3.371   2.937   2.883 -0.3862  0.0735  0.5677
 9016SOL    HW127947   3.467   2.955   2.906 -0.1471  1.4080 -1.2891
 9016SOL    HW227948   3.364   2.915   2.786 -1.8784 -0.9518  0.8723
 9017SOL     OW27949   5.465   3.858   1.178 -0.5385 -0.0346  0.0550
 9017SOL    HW127950   5.423   3.855   1.269 -0.5755  0.5399  0.0613
 9017SOL    HW227951   5.463   3.952   1.143 -2.7998 -0.5974 -1.6045
 9018SOL     OW27952   4.880   6.389   5.886  0.3637  0.1513  0.7201
 9018SOL    HW127953   4.877   6.483   5.851  1.9883  0.1309  0.4617
 9018SOL    HW227954   4.917   6.328   5.816 -0.9605 -0.7662  0.7761
 9019SOL     OW27955   6.265   3.947   3.364 -0.0943  0.2290  0.8423
 9019SOL    HW127956   6.181   3.914   3.319  0.4735  0.3639 -0.3530
 9019SOL    HW227957   6.339   3.882   3.348  0.5722  1.1694  0.0398
 9020SOL     OW27958   6.771   2.334   0.412  0.0174  0.2709  0.0119
 9020SOL    HW127959   6.720   2.397   0.470 -2.1826 -1.9076  0.6110
 9020SOL    HW227960   6.867   2.335   0.438 -0.6105  0.5900  2.5874
 9021SOL     OW27961   2.244   0.337   1.614  0.1107 -0.1813  0.1729
 9021SOL    HW127962   2.344   0.342   1.609  0.2491 -1.2210  1.3142
 9021SOL    HW227963   2.215   0.345   1.709 -0.6925 -2.4184  0.1769
 9022SOL     OW27964   4.391   2.247   4.211 -0.4724 -0.6324 -0.2665
 9022SOL    HW127965   4.416   2.154   4.237 -2.3030 -1.1063 -0.0334
 9022SOL    HW227966   4.382   2.303   4.293  0.7358 -0.1962 -0.4144
 9023SOL     OW27967   0.625   2.741   1.594 -0.7943 -0.2391 -0.1343
 9023SOL    HW127968   0.657   2.709   1.683  1.0900  1.8487  0.0557
 9023SOL    HW227969   0.665   2.684   1.522 -2.8209 -2.3270  0.2806
 9024SOL     OW27970   0.917   3.252   0.534 -0.4230  0.3328 -0.1192
 9024SOL    HW127971   0.827   3.229   0.496  0.7660 -1.3941 -2.1189
 9024SOL    HW227972   0.932   3.199   0.618 -0.1111 -1.7935 -1.4475
 9025SOL     OW27973   0.952   2.664   3.671  0.2790 -0.2795 -0.2531
 9025SOL    HW127974   0.930   2.648   3.767 -1.7037 -3.6163 -1.1301
 9025SOL    HW227975   0.899   2.742   3.638 -0.2188 -0.0914  0.9296
 9026SOL     OW27976   4.518   5.057   6.652  0.0254  0.1103 -0.1209
 9026SOL    HW127977   4.581   5.027   6.581  2.5733  1.7501  1.3080
 9026SOL    HW227978   4.425   5.030   6.627  1.2356 -2.6193 -2.2107
 9027SOL     OW27979   1.990   0.417   6.981  0.5226  0.4112 -0.5785
 9027SOL    HW127980   1.919   0.386   7.044  1.4114 -1.4353 -0.4309
 9027SOL    HW227981   2.044   0.488   7.025 -1.0076  1.6506 -0.5910
 9028SOL     OW27982   1.134   3.694   3.660  0.2645 -0.6272  0.3391
 9028SOL    HW127983   1.152   3.623   3.591 -0.3837 -0.2564 -0.2236
 9028SOL    HW227984   1.162   3.660   3.750  2.8643 -0.4316 -0.3141
 9029SOL     OW27985   1.262   1.450   0.571 -0.0147 -0.2106  0.4668
 9029SOL    HW127986   1.327   1.458   0.495  0.5928 -1.7870  0.7978
 9029SOL    HW227987   1.310   1.420   0.653 -0.5805  1.8827  1.6478
 9030SOL     OW27988   5.534   6.070   5.473 -0.7419 -0.4656  0.0113
 9030SOL    HW127989   5.610   6.068   5.538 -1.0932 -1.2399  0.4141
 9030SOL    HW227990   5.562   6.119   5.391 -0.6976  1.6654  1.2204
 9031SOL     OW27991   5.912   5.582   6.375 -0.4377 -0.0946 -0.1619
 9031SOL    HW127992   6.007   5.557   6.362 -0.5487 -1.0088  0.6443
 9031SOL    HW227993   5.856   5.500   6.386 -1.1303  0.4477  0.5734
 9032SOL     OW27994   0.360   6.736   0.964  0.0571  0.8269 -0.9359
 9032SOL    HW127995   0.367   6.795   1.044  0.5907 -0.1966 -0.2120
 9032SOL    HW227996   0.266   6.737   0.930 -0.3492  0.6613  0.1675
 9033SOL     OW27997   1.326   0.687   6.904  0.5108  0.1198 -0.3983
 9033SOL    HW127998   1.411   0.737   6.887  1.6060 -1.8267 -0.9500
 9033SOL    HW227999   1.348   0.599   6.946 -1.4905  0.9225  2.6113
 9034SOL     OW28000   3.113   2.162   3.329  0.0215  0.5588 -0.4739
 9034SOL    HW128001   3.068   2.166   3.239 -2.3900 -0.3126  0.6090
 9034SOL    HW228002   3.060   2.215   3.395  1.7601  1.1787  0.4743
 9035SOL     OW28003   1.188   5.405   5.418  0.0065 -0.1826 -0.2328
 9035SOL    HW128004   1.197   5.307   5.401  2.7844 -0.1157  0.3383
 9035SOL    HW228005   1.192   5.454   5.330  1.0966 -0.4714 -0.3525
 9036SOL     OW28006   1.270   4.757   2.872 -0.1129 -0.2599  0.1635
 9036SOL    HW128007   1.289   4.845   2.916 -1.5376 -0.3559  1.0261
 9036SOL    HW228008   1.198   4.769   2.803  0.4806 -0.5556 -0.5263
 9037SOL     OW28009   6.327   4.534   3.389  0.1656 -0.2769  0.1349
 9037SOL    HW128010   6.340   4.476   3.308  1.9753  2.9885 -2.1268
 9037SOL    HW228011   6.404   4.522   3.452  1.0314  0.3240 -0.7862
 9038SOL     OW28012   1.765   6.704   4.262  0.3032 -0.3484  0.1780
 9038SOL    HW128013   1.833   6.708   4.189 -0.3216  2.6188 -0.3912
 9038SOL    HW228014   1.812   6.700   4.351  1.2816  1.5008 -0.2075
 9039SOL     OW28015   1.045   2.915   4.020  0.0453  0.3693  0.1627
 9039SOL    HW128016   1.131   2.950   4.058  1.0796  0.0443 -1.7259
 9039SOL    HW228017   0.992   2.991   3.982 -0.5844  0.5822  1.4114
 9040SOL     OW28018   2.881   0.688   0.983  0.7330 -0.1365 -0.5322
 9040SOL    HW128019   2.853   0.736   1.065  0.7853 -0.6648 -0.1959
 9040SOL    HW228020   2.805   0.633   0.948  0.7070  0.0950 -0.8468
 9041SOL     OW28021   0.542   6.055   1.168 -0.3984  0.3529 -0.0847
 9041SOL    HW128022   0.620   6.096   1.121  0.9224 -0.6675  1.1250
 9041SOL    HW228023   0.524   6.105   1.252 -1.5755  1.0504 -0.7250
 9042SOL     OW28024   5.458   1.345   6.176 -0.6327 -0.1385  0.5585
 9042SOL    HW128025   5.440   1.264   6.232  0.2627 -2.3496 -2.1424
 9042SOL    HW228026   5.485   1.317   6.084  2.0745  3.1792  0.1388
 9043SOL     OW28027   2.885   0.150   4.112 -0.0318 -0.3137  0.1626
 9043SOL    HW128028   2.981   0.175   4.106  0.0359 -0.6411 -0.2132
 9043SOL    HW228029   2.863   0.085   4.039 -0.9012  0.9111 -0.7075
 9044SOL     OW28030   1.877   1.492   2.207  0.3675  0.2192 -0.2506
 9044SOL    HW128031   1.794   1.479   2.263  0.5136  3.7121  1.0220
 9044SOL    HW228032   1.850   1.517   2.114 -0.2477  3.3976  0.6501
 9045SOL     OW28033   3.359   0.840   2.899  0.1020 -0.0080  0.0528
 9045SOL    HW128034   3.286   0.772   2.909 -2.9564  3.0883  1.0738
 9045SOL    HW228035   3.388   0.871   2.989 -1.2813  2.5299 -0.2866
 9046SOL     OW28036   0.684   1.083   1.511  0.6163  0.0831  0.0734
 9046SOL    HW128037   0.693   1.043   1.419  2.4373  1.4193 -0.3871
 9046SOL    HW228038   0.636   1.018   1.570  2.0062 -2.1221 -1.0519
 9047SOL     OW28039   5.019   2.152   2.141  0.4467  0.0286 -0.2899
 9047SOL    HW128040   5.107   2.115   2.170  0.8722 -0.3490 -1.9291
 9047SOL    HW228041   4.945   2.106   2.189  1.1264  0.2544  1.0066
 9048SOL     OW28042   4.838   3.959   4.813  0.3743 -0.1334 -0.2979
 9048SOL    HW128043   4.888   3.944   4.898  0.2589 -0.7878 -0.3391
 9048SOL    HW228044   4.857   3.883   4.750 -0.3322 -0.1647 -0.4726
 9049SOL     OW28045   0.506   2.167   5.389  0.1057  0.2126  0.0693
 9049SOL    HW128046   0.417   2.152   5.432  0.1762 -1.1488 -0.2201
 9049SOL    HW228047   0.504   2.252   5.336 -1.4419 -0.4383 -0.9698
 9050SOL     OW28048   5.732   3.660   3.675  0.4501  0.2456 -0.0519
 9050SOL    HW128049   5.782   3.613   3.747 -1.9495  1.3170  2.5257
 9050SOL    HW228050   5.775   3.643   3.587  0.5276 -5.7019  0.7519
 9051SOL     OW28051   2.568   2.973   6.417  0.5193 -0.2253  0.5775
 9051SOL    HW128052   2.636   3.038   6.384 -0.5056  0.4223 -0.3668
 9051SOL    HW228053   2.532   3.005   6.505 -0.5919  0.9965 -0.2835
 9052SOL     OW28054   4.930   4.960   3.971 -0.3009 -0.3487 -0.0179
 9052SOL    HW128055   5.005   4.942   4.034  1.4377  3.6543 -0.6453
 9052SOL    HW228056   4.861   5.018   4.016  0.3432  1.4948 -1.2831
 9053SOL     OW28057   1.713   6.180   1.332 -0.3661  0.3453  0.3166
 9053SOL    HW128058   1.613   6.179   1.326 -0.3065 -0.5012 -0.7412
 9053SOL    HW228059   1.752   6.149   1.246  0.8609  2.7027 -0.0669
 9054SOL     OW28060   6.062   5.012   5.670  0.7649  0.5112 -0.2215
 9054SOL    HW128061   6.026   4.960   5.593 -0.3514 -1.6491  1.6452
 9054SOL    HW228062   6.135   4.960   5.715 -0.1708  0.6225  1.5351
 9055SOL     OW28063   3.198   5.789   1.175  0.0398 -0.0941  0.2027
 9055SOL    HW128064   3.118   5.765   1.120  0.0124 -2.2795  1.0830
 9055SOL    HW228065   3.256   5.851   1.124 -1.5965  0.5601 -0.9616
 9056SOL     OW28066   3.679   3.351   5.607  0.1281 -0.1511  0.1452
 9056SOL    HW128067   3.674   3.449   5.586 -0.9268  0.0292  1.1261
 9056SOL    HW228068   3.723   3.339   5.696  1.1754 -0.6555 -0.4213
 9057SOL     OW28069   4.153   0.756   6.916  0.6958 -0.4147 -0.3617
 9057SOL    HW128070   4.216   0.810   6.972  0.2211  0.4933 -0.6963
 9057SOL    HW228071   4.172   0.773   6.820  0.8349 -1.1955 -0.4787
 9058SOL     OW28072   6.462   0.077   0.186  0.2980  0.2067  0.4698
 9058SOL    HW128073   6.473   0.083   0.087  0.4308 -0.1885  0.4569
 9058SOL    HW228074   6.390   0.011   0.208  0.5219  0.0163  0.6419
 9059SOL     OW28075   6.081   3.386   4.434 -0.1606 -0.0131 -0.4110
 9059SOL    HW128076   5.992   3.365   4.476 -0.3123  0.0136 -0.7198
 9059SOL    HW228077   6.137   3.437   4.500 -0.1227 -0.6067  0.0190
 9060SOL     OW28078   4.528   6.939   4.097 -0.5232 -0.6100 -0.4571
 9060SOL    HW128079   4.497   6.866   4.158 -1.4978 -0.5352 -0.8508
 9060SOL    HW228080   4.455   6.963   4.033 -0.5387  1.2852  0.1948
 9061SOL     OW28081   5.527   4.087   3.962  0.0469  0.4860 -0.1561
 9061SOL    HW128082   5.428   4.099   3.947  0.1310 -0.5175 -1.7936
 9061SOL    HW228083   5.562   4.019   3.898  1.2300 -1.6311  2.5557
 9062SOL     OW28084   0.939   3.311   2.246 -0.4187  0.2339  0.0227
 9062SOL    HW128085   0.933   3.406   2.277  1.8972  0.9567 -1.4773
 9062SOL    HW228086   1.021   3.268   2.284  0.3887 -0.0608 -1.9119
 9063SOL     OW28087   3.013   4.419   0.702 -0.1640  0.1376 -0.3717
 9063SOL    HW128088   2.954   4.446   0.626 -0.8158  1.1516  0.4651
 9063SOL    HW228089   3.000   4.322   0.721  0.5921 -0.3262 -2.0385
 9064SOL     OW28090   4.746   2.088   7.015 -0.7446  0.0531 -0.0805
 9064SOL    HW128091   4.740   2.062   7.111  0.2288 -2.3606 -0.5983
 9064SOL    HW228092   4.672   2.152   6.993 -2.3609 -1.0686  1.7449
 9065SOL     OW28093   2.300   5.946   2.988 -0.0395  0.1313  0.0263
 9065SOL    HW128094   2.344   5.950   3.078  0.2407  0.0727 -0.1094
 9065SOL    HW228095   2.206   5.915   3.000  0.4925 -1.5263  0.1389
 9066SOL     OW28096   2.373   0.734   2.014 -0.3446  0.5106 -0.6741
 9066SOL    HW128097   2.352   0.642   2.048 -1.9251  1.7474  2.0224
 9066SOL    HW228098   2.451   0.771   2.064 -0.7982  1.2565 -0.5052
 9067SOL     OW28099   0.279   4.330   1.618  0.0051 -0.1538 -0.4746
 9067SOL    HW128100   0.238   4.337   1.528 -1.0620 -0.1584 -0.0067
 9067SOL    HW228101   0.235   4.396   1.680  1.7661  0.9331 -0.3284
 9068SOL     OW28102   5.473   2.036   4.095 -0.1477  0.1788  0.4972
 9068SOL    HW128103   5.418   1.975   4.038  0.2503  0.9948 -0.8004
 9068SOL    HW228104   5.413   2.088   4.156 -0.5746 -0.7553  0.8950
 9069SOL     OW28105   0.699   1.805   4.939 -0.1400  0.9308  0.3529
 9069SOL    HW128106   0.778   1.772   4.888 -1.6338  0.3716 -1.7373
 9069SOL    HW228107   0.635   1.850   4.877 -2.3935 -0.3784  1.5658
 9070SOL     OW28108   4.226   0.222   4.446 -0.4938 -0.2956  0.0680
 9070SOL    HW128109   4.280   0.143   4.418  1.4569  1.5065 -1.7163
 9070SOL    HW228110   4.266   0.263   4.528 -1.7012 -1.2839  1.1885
 9071SOL     OW28111   5.040   0.079   4.512  0.2156  0.5792 -0.2399
 9071SOL    HW128112   5.040   0.143   4.435 -0.0541  0.2805 -0.4937
 9071SOL    HW228113   5.124   0.089   4.564  1.3805 -0.6570 -1.7868
 9072SOL     OW28114   5.790   5.400   0.186  0.0966 -0.5357  0.0203
 9072SOL    HW128115   5.730   5.383   0.107  1.7779 -1.0984 -1.1898
 9072SOL    HW228116   5.751   5.474   0.242 -0.0120  1.5521 -2.6130
 9073SOL     OW28117   4.015   3.988   4.942  0.5058  0.1082 -0.0149
 9073SOL    HW128118   4.006   4.024   4.849 -2.3350 -0.7793 -0.1805
 9073SOL    HW228119   4.048   3.894   4.938  0.8314  0.2244 -0.0856
 9074SOL     OW28120   2.099   2.002   3.111 -0.4137 -0.0869 -0.4986
 9074SOL    HW128121   2.093   2.063   3.190  0.7330 -0.0873 -0.3956
 9074SOL    HW228122   2.192   1.965   3.104 -1.6518 -4.0699  1.1350
 9075SOL     OW28123   5.675   6.793   1.856 -0.3309  0.4583 -0.0078
 9075SOL    HW128124   5.669   6.884   1.814 -0.9106  0.7717  0.7291
 9075SOL    HW228125   5.592   6.776   1.910 -0.1639 -0.4568 -0.0318
 9076SOL     OW28126   0.781   3.088   1.152  0.1156 -0.3889 -0.9456
 9076SOL    HW128127   0.879   3.068   1.152  0.0283 -0.8582 -0.1964
 9076SOL    HW228128   0.767   3.182   1.185  0.1699 -1.3118  1.9933
 9077SOL     OW28129   3.989   3.476   3.104 -0.5957 -0.0162 -0.1726
 9077SOL    HW128130   3.895   3.509   3.090 -0.9212  1.4602  4.1512
 9077SOL    HW228131   3.987   3.387   3.148  0.1476 -0.7189 -1.4870
 9078SOL     OW28132   5.385   1.245   2.373 -0.6886  0.0804 -0.1764
 9078SOL    HW128133   5.393   1.244   2.273 -0.8767 -0.1768 -0.1887
 9078SOL    HW228134   5.427   1.329   2.408 -1.8396  0.8525 -0.5815
 9079SOL     OW28135   3.610   4.230   0.467  0.6181  0.0246  0.4836
 9079SOL    HW128136   3.526   4.243   0.414  1.4479 -0.3729 -0.9989
 9079SOL    HW228137   3.639   4.317   0.506 -0.5128  0.1487  1.0943
 9080SOL     OW28138   3.009   5.044   3.583 -0.1340  0.3256  0.0399
 9080SOL    HW128139   3.033   4.978   3.512  2.5838  0.5373  0.6578
 9080SOL    HW228140   2.925   5.092   3.557 -1.7657 -2.7303 -0.8065
 9081SOL     OW28141   3.671   6.589   0.158 -0.3973 -0.3220  0.4397
 9081SOL    HW128142   3.653   6.635   0.246 -0.4519  1.5694 -0.5185
 9081SOL    HW228143   3.766   6.604   0.131 -0.6589  0.0121 -0.3197
 9082SOL     OW28144   5.598   0.782   6.332  0.0689 -0.3395  0.1231
 9082SOL    HW128145   5.517   0.793   6.389 -1.1572 -1.1732 -1.3696
 9082SOL    HW228146   5.677   0.761   6.389 -1.1973 -1.6157  1.4866
 9083SOL     OW28147   4.541   4.729   1.883  0.6400 -0.0895 -0.3548
 9083SOL    HW128148   4.613   4.740   1.816  0.9670  2.5528  0.3246
 9083SOL    HW228149   4.570   4.769   1.970 -1.9134  1.9304 -0.3069
 9084SOL     OW28150   2.536   4.403   6.438  0.3313  0.0900 -0.1683
 9084SOL    HW128151   2.501   4.414   6.531 -0.2861 -1.8368 -0.1342
 9084SOL    HW228152   2.536   4.306   6.414  0.0273  0.5934 -2.3569
 9085SOL     OW28153   0.858   4.393   2.440 -0.3882 -0.4488  0.6160
 9085SOL    HW128154   0.761   4.366   2.445 -0.2117 -1.1659  0.3092
 9085SOL    HW228155   0.899   4.354   2.358  0.3117 -0.6345  1.0460
 9086SOL     OW28156   2.116   3.601   4.945 -0.3069 -0.1333  0.0856
 9086SOL    HW128157   2.043   3.581   5.010 -0.9247 -0.0109 -0.5533
 9086SOL    HW228158   2.170   3.678   4.977  2.3050 -2.8332  2.7640
 9087SOL     OW28159   2.327   2.182   4.069 -0.5237 -0.4288 -0.6384
 9087SOL    HW128160   2.381   2.136   3.999 -0.0270 -1.4166  0.3699
 9087SOL    HW228161   2.248   2.125   4.093 -0.1260 -0.5812  0.3346
 9088SOL     OW28162   5.394   3.077   6.756 -0.3663  0.0664  0.6083
 9088SOL    HW128163   5.402   3.027   6.670  0.1548  0.7115  0.2706
 9088SOL    HW228164   5.484   3.083   6.800 -0.8116 -1.2525  1.7882
 9089SOL     OW28165   4.381   0.968   2.369  0.1119  0.2846 -0.4914
 9089SOL    HW128166   4.286   0.995   2.384 -0.6493 -2.9249  1.5145
 9089SOL    HW228167   4.432   0.975   2.455  1.4414  0.9268 -1.2882
 9090SOL     OW28168   2.363   4.303   3.870  0.5630 -0.0326 -0.2777
 9090SOL    HW128169   2.295   4.237   3.836  1.1632  0.2823 -2.2489
 9090SOL    HW228170   2.455   4.273   3.841  1.0550  0.5715  0.6364
 9091SOL     OW28171   6.372   2.185   4.977  0.2980 -0.0297 -0.3054
 9091SOL    HW128172   6.374   2.087   4.958 -0.0608 -0.1459  0.2485
 9091SOL    HW228173   6.407   2.235   4.897  1.6499 -0.6633 -0.1312
 9092SOL     OW28174   4.591   2.693   5.134  0.6940 -0.2109  0.4575
 9092SOL    HW128175   4.595   2.764   5.204 -3.1256 -1.4420  2.2386
 9092SOL    HW228176   4.658   2.622   5.155  1.2055  0.5461  1.5121
 9093SOL     OW28177   4.722   1.499   6.266 -0.1459  0.5330 -0.2564
 9093SOL    HW128178   4.789   1.564   6.303  0.3505 -0.6415  0.9817
 9093SOL    HW228179   4.641   1.549   6.237 -0.0184  1.6702  1.2231
 9094SOL     OW28180   3.994   0.397   4.559  0.4183  0.0311  0.1054
 9094SOL    HW128181   3.943   0.323   4.515  1.9536  0.0754 -1.9010
 9094SOL    HW228182   4.019   0.369   4.651  1.0743 -2.0587 -0.6434
 9095SOL     OW28183   2.218   4.609   2.847  0.7105  0.9364  0.1232
 9095SOL    HW128184   2.200   4.700   2.886  1.8695  1.3027 -0.1665
 9095SOL    HW228185   2.131   4.566   2.821  0.1490  1.9583  0.2607
 9096SOL     OW28186   3.779   2.051   3.961 -0.0045 -0.1280  0.4860
 9096SOL    HW128187   3.719   2.080   3.886  0.0912  0.8091  0.7503
 9096SOL    HW228188   3.862   2.010   3.923 -0.4583 -0.7187  0.1052
 9097SOL     OW28189   3.270   3.513   2.905  0.2493 -0.3837 -0.4289
 9097SOL    HW128190   3.297   3.417   2.911  0.0837 -0.3635  0.7382
 9097SOL    HW228191   3.171   3.521   2.915  0.2316 -0.1104 -0.7967
 9098SOL     OW28192   5.629   3.424   6.043 -0.2822 -0.0981  0.3805
 9098SOL    HW128193   5.578   3.349   6.001 -0.0440 -0.6881  1.1044
 9098SOL    HW228194   5.665   3.484   5.972 -0.0294 -0.9728 -0.2592
 9099SOL     OW28195   1.581   0.378   2.489 -0.7543  0.1775  0.0159
 9099SOL    HW128196   1.557   0.307   2.556 -0.0405  1.9506  2.2667
 9099SOL    HW228197   1.660   0.348   2.435 -0.3973 -0.7004  0.9918
 9100SOL     OW28198   1.960   0.038   4.584  0.1946 -0.6220  0.4387
 9100SOL    HW128199   1.877   0.050   4.530  2.4708  0.3514 -3.1765
 9100SOL    HW228200   1.943   0.069   4.678 -2.4123  3.9005 -1.1932
 9101SOL     OW28201   4.192   6.091   0.407 -0.3799  0.5423  0.0901
 9101SOL    HW128202   4.167   6.143   0.326  0.9536  1.0566 -0.0101
 9101SOL    HW228203   4.291   6.095   0.420 -0.6356  1.2181  2.2406
 9102SOL     OW28204   4.660   4.435   0.459  0.0645 -0.0293  0.3666
 9102SOL    HW128205   4.643   4.345   0.419 -0.8120 -0.8202  2.3797
 9102SOL    HW228206   4.588   4.499   0.431 -0.2254 -0.4079  0.2518
 9103SOL     OW28207   1.257   1.390   6.995 -0.6220 -0.3100  0.3219
 9103SOL    HW128208   1.242   1.386   7.093 -0.8257 -0.5619  0.2804
 9103SOL    HW228209   1.356   1.394   6.976 -0.5996  0.4835  0.5611
 9104SOL     OW28210   0.424   6.423   2.471  0.4795 -0.0518 -0.5150
 9104SOL    HW128211   0.359   6.364   2.518 -0.3093  1.1187 -0.0737
 9104SOL    HW228212   0.378   6.469   2.395  1.4932 -1.1944 -1.8562
 9105SOL     OW28213   6.664   2.883   1.101 -0.7050 -0.7720  0.0980
 9105SOL    HW128214   6.729   2.831   1.155  2.1701 -0.6551 -2.9187
 9105SOL    HW228215   6.628   2.826   1.027 -1.7602  0.0248 -0.0313
 9106SOL     OW28216   3.640   1.425   2.867  0.2162 -0.1085 -0.3624
 9106SOL    HW128217   3.627   1.329   2.890  0.5328  0.3258  1.8131
 9106SOL    HW228218   3.736   1.450   2.880 -0.3234  1.0915  1.6801
 9107SOL     OW28219   2.591   5.356   4.083  0.2710  0.1846 -0.3244
 9107SOL    HW128220   2.641   5.319   4.005 -0.4908 -0.3554 -0.5650
 9107SOL    HW228221   2.623   5.313   4.167  2.0782  1.7426 -0.1248
 9108SOL     OW28222   0.416   4.297   6.399  0.6305  0.0944 -0.0129
 9108SOL    HW128223   0.365   4.239   6.335  0.1589  0.3564  0.1216
 9108SOL    HW228224   0.409   4.392   6.370 -0.6996  0.3892  1.1409
 9109SOL     OW28225   3.442   5.234   6.918  0.0354  0.6845 -0.5044
 9109SOL    HW128226   3.434   5.150   6.864  0.4824  0.0008  0.4689
 9109SOL    HW228227   3.352   5.274   6.932 -0.4269 -0.7387  0.7265
 9110SOL     OW28228   2.275   1.240   5.960  0.0286  0.0814  0.3146
 9110SOL    HW128229   2.325   1.315   5.915 -0.2003  0.9444  1.4522
 9110SOL    HW228230   2.332   1.159   5.963  0.8800  0.6727  0.4542
 9111SOL     OW28231   4.508   2.014   4.275 -0.3788  0.3319 -0.6326
 9111SOL    HW128232   4.495   1.918   4.250  0.9090  0.3980 -1.6519
 9111SOL    HW228233   4.585   2.052   4.223 -0.8029  1.8922 -0.1691
 9112SOL     OW28234   0.941   4.823   6.116 -0.5338  0.5024  0.3436
 9112SOL    HW128235   0.938   4.922   6.128 -1.6587  0.3188  1.8717
 9112SOL    HW228236   0.949   4.778   6.206  1.1448 -0.7702 -0.3924
 9113SOL     OW28237   6.980   5.232   4.690 -0.0211  0.1713  0.0037
 9113SOL    HW128238   6.949   5.319   4.651 -0.0468  0.7682  1.3250
 9113SOL    HW228239   6.928   5.157   4.649 -1.0452  0.9014 -0.0599
 9114SOL     OW28240   0.040   0.070   1.778  0.1512 -0.8545  0.2845
 9114SOL    HW128241  -0.010   0.077   1.864  1.9794 -0.3137  1.3788
 9114SOL    HW228242   0.025   0.153   1.723 -2.0662 -1.7641 -0.5706
 9115SOL     OW28243   6.788   3.914   4.872  0.4541 -0.2805 -0.1512
 9115SOL    HW128244   6.812   3.818   4.890 -0.3496 -0.7103 -1.2624
 9115SOL    HW228245   6.848   3.950   4.801  0.4606 -0.0903 -0.0503
 9116SOL     OW28246   1.404   0.986   2.611  0.6001 -0.1336 -0.3212
 9116SOL    HW128247   1.482   1.044   2.633  0.2214  0.2683 -0.0205
 9116SOL    HW228248   1.419   0.894   2.648  0.4235  0.2535  0.7376
 9117SOL     OW28249   5.818   1.739   6.829  0.8482 -0.2890  0.3139
 9117SOL    HW128250   5.862   1.781   6.908  0.2018  0.7877  0.1235
 9117SOL    HW228251   5.877   1.749   6.749 -0.3970  2.7086 -0.3356
 9118SOL     OW28252   5.785   3.786   1.181  0.1024  0.2100  0.2513
 9118SOL    HW128253   5.707   3.824   1.132  0.3444 -0.5852 -0.7869
 9118SOL    HW228254   5.864   3.782   1.121  0.0986 -1.8886  0.2864
 9119SOL     OW28255   0.495   0.890   3.375  0.6966 -0.3393  0.8974
 9119SOL    HW128256   0.462   0.907   3.283 -0.2273 -0.1201  1.2595
 9119SOL    HW228257   0.540   0.800   3.379  2.3492  0.3874 -0.1636
 9120SOL     OW28258   2.360   3.682   6.035  0.2494 -0.3274 -0.3658
 9120SOL    HW128259   2.341   3.769   6.082  2.7248 -0.6267  1.4057
 9120SOL    HW228260   2.286   3.618   6.054  0.0060  0.3561  1.2028
 9121SOL     OW28261   5.229   5.333   1.464 -0.0661  0.3460  0.1309
 9121SOL    HW128262   5.294   5.264   1.497 -0.3374  0.0944  0.1459
 9121SOL    HW228263   5.274   5.422   1.460  0.0569  0.3221  0.8847
 9122SOL     OW28264   4.682   6.626   6.708 -0.8120  0.4464  0.0270
 9122SOL    HW128265   4.711   6.708   6.756 -0.6105 -0.0044  0.6799
 9122SOL    HW228266   4.760   6.565   6.695 -0.2745  1.6183 -3.0740
 9123SOL     OW28267   1.175   2.163   0.997 -0.5637  0.2873 -0.2314
 9123SOL    HW128268   1.184   2.132   1.092 -1.4825  0.1124 -0.1917
 9123SOL    HW228269   1.150   2.260   0.996  0.1977  0.4934 -0.3208
 9124SOL     OW28270   0.881   0.180   2.841 -0.3408 -0.9205 -0.1231
 9124SOL    HW128271   0.923   0.241   2.909 -2.6846  1.4067 -0.6023
 9124SOL    HW228272   0.867   0.090   2.882  0.9857 -0.4599  1.4692
 9125SOL     OW28273   1.044   6.672   5.249 -0.0613  0.2563  0.2166
 9125SOL    HW128274   0.951   6.675   5.213 -0.8826 -0.3128  2.1391
 9125SOL    HW228275   1.041   6.677   5.349  1.9524 -0.2218  0.3469
 9126SOL     OW28276   6.779   0.816   0.223 -0.5587 -0.4820  0.0257
 9126SOL    HW128277   6.873   0.815   0.257  0.2338  1.5665 -1.8533
 9126SOL    HW228278   6.726   0.883   0.274 -0.5127 -0.3814 -0.0582
 9127SOL     OW28279   2.776   4.760   2.981  0.1389  0.1638  0.1106
 9127SOL    HW128280   2.748   4.686   2.920  0.0636  1.7703 -1.9301
 9127SOL    HW228281   2.732   4.748   3.070  1.7202 -3.3051  0.6026
 9128SOL     OW28282   4.148   3.865   0.587  0.8256  0.2976  0.4480
 9128SOL    HW128283   4.125   3.962   0.576  0.3458  0.1978  0.5414
 9128SOL    HW228284   4.211   3.854   0.664  0.9045  0.5378  0.4182
 9129SOL     OW28285   1.389   1.005   4.024 -0.5326  0.2058  0.1302
 9129SOL    HW128286   1.372   0.916   4.068 -2.1203 -0.1696 -1.1379
 9129SOL    HW228287   1.468   0.998   3.964 -0.1029 -0.0813  0.7132
 9130SOL     OW28288   1.376   0.445   6.273 -0.2210  0.2996 -0.1904
 9130SOL    HW128289   1.344   0.536   6.248 -0.0686  0.2134 -0.7135
 9130SOL    HW228290   1.325   0.376   6.221  0.7549  0.1583 -0.9708
 9131SOL     OW28291   4.113   2.427   0.421  0.3996  1.3240 -0.3050
 9131SOL    HW128292   4.030   2.414   0.367  0.5886  1.6763 -0.6862
 9131SOL    HW228293   4.164   2.505   0.385  1.7718  0.0798 -1.1694
 9132SOL     OW28294   6.197   2.413   4.414  0.4278  0.4006 -0.4368
 9132SOL    HW128295   6.106   2.441   4.442 -0.3635 -1.6535 -0.8101
 9132SOL    HW228296   6.216   2.447   4.322  0.0253  0.7771 -0.3822
 9133SOL     OW28297   0.965   4.109   2.433 -0.3121 -0.0009  0.3708
 9133SOL    HW128298   0.946   4.057   2.516  1.4249  1.9224  2.0532
 9133SOL    HW228299   1.060   4.138   2.432 -0.5623  0.9542 -1.7878
 9134SOL     OW28300   0.537   3.191   1.356 -0.4452 -0.4001  0.8951
 9134SOL    HW128301   0.596   3.245   1.295 -2.6580  0.0652 -0.9710
 9134SOL    HW228302   0.587   3.110   1.388  1.0100 -0.3410 -1.0514
 9135SOL     OW28303   2.130   0.708   4.247  0.2750 -0.3898  0.2063
 9135SOL    HW128304   2.115   0.807   4.252 -0.5752 -0.3304 -2.1467
 9135SOL    HW228305   2.168   0.685   4.157 -0.9985 -2.3399  0.1024
 9136SOL     OW28306   0.519   2.464   2.874 -0.0185 -0.2005  0.2070
 9136SOL    HW128307   0.428   2.424   2.886 -0.0726 -0.0783  0.2014
 9136SOL    HW228308   0.569   2.411   2.805 -0.0518 -0.3232  0.2765
 9137SOL     OW28309   4.994   0.568   5.525 -0.1612  0.1915 -0.2002
 9137SOL    HW128310   5.014   0.488   5.467 -0.1378 -0.1435  0.2620
 9137SOL    HW228311   5.007   0.651   5.472  0.8415 -0.0746 -0.3936
 9138SOL     OW28312   4.780   6.293   0.310 -0.4326  0.4189  0.3654
 9138SOL    HW128313   4.744   6.202   0.333  2.0259 -1.2548 -1.8724
 9138SOL    HW228314   4.724   6.334   0.239 -0.1687 -0.4571 -0.3637
 9139SOL     OW28315   0.508   2.800   0.908  0.0627 -0.2852 -0.1279
 9139SOL    HW128316   0.539   2.777   0.815  1.1180 -1.2678  0.4422
 9139SOL    HW228317   0.522   2.898   0.924 -0.7272  0.0226 -1.2142
 9140SOL     OW28318   5.903   2.971   4.526  0.3284  0.0884  0.1523
 9140SOL    HW128319   5.827   3.028   4.556 -0.6878 -1.6347  1.0203
 9140SOL    HW228320   5.981   3.029   4.503 -1.0196  1.8618 -0.1440
 9141SOL     OW28321   4.557   0.229   2.164 -0.5485  0.3011 -0.1933
 9141SOL    HW128322   4.550   0.274   2.075  0.1399  1.2366  0.2096
 9141SOL    HW228323   4.646   0.184   2.171 -1.2291 -1.1654 -0.5912
 9142SOL     OW28324   3.438   4.223   1.650 -0.3124 -0.5851  0.0676
 9142SOL    HW128325   3.370   4.163   1.692 -0.1733  0.0693  1.2709
 9142SOL    HW228326   3.486   4.173   1.579 -1.4498 -1.3303 -0.2147
 9143SOL     OW28327   3.704   4.136   4.533  0.0226 -0.5745 -0.0285
 9143SOL    HW128328   3.671   4.211   4.591  3.3192  0.5645  0.6121
 9143SOL    HW228329   3.725   4.172   4.442 -1.3543 -1.4919 -0.7426
 9144SOL     OW28330   4.444   4.029   5.592 -0.0773  0.1064 -0.2899
 9144SOL    HW128331   4.359   4.081   5.591  0.2343  0.6889  0.9013
 9144SOL    HW228332   4.449   3.974   5.675  0.2351 -0.7492 -0.8642
 9145SOL     OW28333   5.956   0.124   5.846  0.2978  0.3856  0.1955
 9145SOL    HW128334   6.056   0.129   5.849  0.3375 -0.3115  2.0189
 9145SOL    HW228335   5.927   0.085   5.759  1.8369 -2.2026  0.7157
 9146SOL     OW28336   5.917   1.102   5.066 -0.9228 -0.0337  0.5099
 9146SOL    HW128337   5.902   1.049   5.149 -0.6724 -3.2637 -1.3246
 9146SOL    HW228338   5.875   1.192   5.076 -2.8135 -1.0738  3.3053
 9147SOL     OW28339   5.952   2.036   3.469 -0.0216 -0.0477  0.1748
 9147SOL    HW128340   5.932   1.999   3.559  0.9992 -1.2253 -0.0583
 9147SOL    HW228341   6.044   2.075   3.468 -0.2980  0.6190 -0.1657
 9148SOL     OW28342   6.786   3.089   5.885 -0.1029  0.1874  0.2673
 9148SOL    HW128343   6.800   2.995   5.915 -2.6990 -0.1861  0.5936
 9148SOL    HW228344   6.764   3.090   5.787  0.4770  0.5200  0.1389
 9149SOL     OW28345   5.142   3.358   4.898 -0.1377  0.2067  0.4126
 9149SOL    HW128346   5.228   3.363   4.947 -0.2931 -1.4064  0.9125
 9149SOL    HW228347   5.067   3.340   4.962 -0.8736  1.5452 -0.0156
 9150SOL     OW28348   5.591   6.213   5.799 -0.1604 -0.1061 -0.1102
 9150SOL    HW128349   5.663   6.182   5.737  0.3732  0.0511  0.4139
 9150SOL    HW228350   5.523   6.141   5.811  0.2353 -0.4834 -0.1310
 9151SOL     OW28351   6.018   3.475   5.930  0.6492  1.2265 -0.3823
 9151SOL    HW128352   6.025   3.419   5.847 -0.8637  2.0453 -1.1149
 9151SOL    HW228353   6.066   3.430   6.005 -1.9804 -2.0570 -0.4443
 9152SOL     OW28354   0.054   1.727   6.428 -0.0509 -0.8397  0.4338
 9152SOL    HW128355  -0.013   1.657   6.403  1.3650 -2.4202  0.8912
 9152SOL    HW228356   0.099   1.762   6.346 -0.2755 -0.9727  0.2537
 9153SOL     OW28357   1.000   6.220   2.560 -0.0474  0.0490 -0.0899
 9153SOL    HW128358   0.965   6.227   2.654  1.5156 -0.5017  0.5731
 9153SOL    HW228359   0.959   6.142   2.515  0.0393 -0.3712  0.5432
 9154SOL     OW28360   0.033   6.085   3.507  0.2343  0.3789  0.0895
 9154SOL    HW128361   0.116   6.138   3.527  0.5724  0.0188 -0.3094
 9154SOL    HW228362   0.050   6.028   3.426 -0.9429  1.5236 -1.0030
 9155SOL     OW28363   5.852   2.013   2.794  0.4819  0.6164  0.3315
 9155SOL    HW128364   5.863   2.110   2.811 -1.8488  1.6023 -2.7498
 9155SOL    HW228365   5.934   1.964   2.822  1.7770  3.4468  1.8489
 9156SOL     OW28366   2.659   3.467   0.230 -0.4695  0.5509 -0.4552
 9156SOL    HW128367   2.610   3.383   0.254 -0.2276 -0.3654 -2.8907
 9156SOL    HW228368   2.757   3.451   0.238 -0.4532  1.1697  0.7196
 9157SOL     OW28369   0.105   1.505   6.868 -0.0790  0.3001  0.1696
 9157SOL    HW128370   0.110   1.598   6.904  0.3214  0.3997 -0.1354
 9157SOL    HW228371   0.125   1.506   6.770 -0.0054 -0.1184  0.1766
 9158SOL     OW28372   2.931   4.950   4.673  0.1014  0.0652 -0.5269
 9158SOL    HW128373   2.962   5.044   4.684 -1.1216  0.6560 -1.7698
 9158SOL    HW228374   2.902   4.913   4.761 -1.4501  1.6468 -0.3247
 9159SOL     OW28375   0.545   4.054   4.689 -0.0186  0.1995 -0.3905
 9159SOL    HW128376   0.590   3.995   4.623  1.7278  0.5269  0.4548
 9159SOL    HW228377   0.507   4.134   4.643  1.1231  0.3927 -1.0141
 9160SOL     OW28378   0.185   2.610   2.648  0.3149  0.2540 -0.4024
 9160SOL    HW128379   0.178   2.533   2.710  0.5909  0.1298 -0.5242
 9160SOL    HW228380   0.215   2.691   2.698  0.3169  0.2092 -0.3318
 9161SOL     OW28381   0.178   2.660   1.581  0.1461 -0.1193  0.3022
 9161SOL    HW128382   0.251   2.722   1.610 -0.0570 -0.2881  1.2023
 9161SOL    HW228383   0.097   2.674   1.638  0.0109 -1.0369  0.3614
 9162SOL     OW28384   3.151   0.793   1.935  0.4612  0.1334 -0.4224
 9162SOL    HW128385   3.203   0.717   1.975  1.5940  0.4699 -1.2008
 9162SOL    HW228386   3.153   0.785   1.835  1.2274  1.5681 -0.5481
 9163SOL     OW28387   0.990   5.472   2.817 -0.2856  0.1665  0.1813
 9163SOL    HW128388   0.986   5.568   2.789 -1.0195  0.7648  2.1523
 9163SOL    HW228389   1.028   5.466   2.909  0.3788 -1.5195 -0.1697
 9164SOL     OW28390   5.179   2.015   1.119 -0.1806  0.7304 -0.3255
 9164SOL    HW128391   5.126   1.949   1.172  0.2451  0.3966 -0.3104
 9164SOL    HW228392   5.187   2.101   1.170 -1.4559  1.1004 -0.7045
 9165SOL     OW28393   2.378   2.645   6.546  0.0417 -0.0407  0.4978
 9165SOL    HW128394   2.323   2.626   6.628  0.8489  0.4697  1.1705
 9165SOL    HW228395   2.455   2.704   6.570 -0.3203  1.0213 -0.8424
 9166SOL     OW28396   6.157   0.566   0.882 -0.1140  0.1488 -0.3962
 9166SOL    HW128397   6.139   0.621   0.801  1.4641 -0.9682 -1.5694
 9166SOL    HW228398   6.187   0.475   0.854 -1.1251 -0.8160  1.4774
 9167SOL     OW28399   6.963   5.070   5.285  0.0595 -0.2064  0.3771
 9167SOL    HW128400   6.864   5.079   5.293 -0.1206  1.0124 -2.1215
 9167SOL    HW228401   6.985   4.986   5.237 -0.0943  1.2958 -2.5353
 9168SOL     OW28402   1.726   3.101   2.977  1.0361  0.4890 -0.3149
 9168SOL    HW128403   1.664   3.070   2.904  0.6351  1.4015 -0.3701
 9168SOL    HW228404   1.820   3.102   2.943  0.9517  0.1365 -0.5685
 9169SOL     OW28405   1.341   6.112   0.916  0.0159 -0.2678  0.1020
 9169SOL    HW128406   1.262   6.159   0.878  0.0584 -1.1333 -1.1109
 9169SOL    HW228407   1.425   6.162   0.893 -0.1703  0.9661  1.8770
 9170SOL     OW28408   4.333   5.795   0.063  0.2123 -0.2765  0.0098
 9170SOL    HW128409   4.386   5.872   0.101 -0.6707  0.0464  0.6194
 9170SOL    HW228410   4.396   5.723   0.034  1.1972  1.3438 -2.1840
 9171SOL     OW28411   6.365   3.319   2.826  0.0104 -0.3267  0.0365
 9171SOL    HW128412   6.370   3.227   2.786  0.3007 -0.2135 -0.1897
 9171SOL    HW228413   6.272   3.335   2.859  0.1456 -0.9928  0.7889
 9172SOL     OW28414   4.648   0.914   4.082  0.4003 -0.5632 -0.2039
 9172SOL    HW128415   4.634   0.828   4.032  0.9568 -0.7090 -0.1156
 9172SOL    HW228416   4.740   0.916   4.120  0.1160 -0.2902  0.4989
 9173SOL     OW28417   3.585   3.960   6.537  0.2226  0.5348 -0.1802
 9173SOL    HW128418   3.541   3.877   6.573 -0.9343  1.3432  0.3658
 9173SOL    HW228419   3.684   3.953   6.548  0.2494 -1.2325 -1.1662
 9174SOL     OW28420   4.113   1.554   6.513  0.3167  0.0053  0.8118
 9174SOL    HW128421   4.204   1.528   6.543  0.5763 -1.4255 -1.0432
 9174SOL    HW228422   4.098   1.522   6.419 -1.8186  0.8791  0.7950
 9175SOL     OW28423   6.911   0.763   6.697  0.2980  0.7225 -0.5792
 9175SOL    HW128424   6.927   0.728   6.789  0.3302 -1.4976 -1.3792
 9175SOL    HW228425   6.814   0.754   6.674  0.2807  1.3096 -0.7647
 9176SOL     OW28426   2.086   6.708   2.829 -0.0532  0.5874 -0.3240
 9176SOL    HW128427   2.170   6.674   2.871  0.3778  2.3945  0.3343
 9176SOL    HW228428   2.009   6.692   2.892 -0.4270 -1.8372 -1.2708
 9177SOL     OW28429   5.498   0.153   6.538  0.7265  0.2199 -0.1009
 9177SOL    HW128430   5.459   0.117   6.623  0.8357  0.3363 -0.0003
 9177SOL    HW228431   5.522   0.076   6.478  1.0360  0.1176  0.1475
 9178SOL     OW28432   3.893   2.903   6.513 -0.2546  0.3519 -0.6234
 9178SOL    HW128433   3.896   2.855   6.600  1.6316  2.3330  0.5112
 9178SOL    HW228434   3.966   2.869   6.453  0.9109  1.5107  0.0804
 9179SOL     OW28435   3.812   3.319   6.810 -0.1492 -0.0669 -0.2184
 9179SOL    HW128436   3.825   3.221   6.821  1.4787  0.2411  0.9824
 9179SOL    HW228437   3.798   3.362   6.899  0.0318  0.9147 -0.6410
 9180SOL     OW28438   4.317   0.325   5.912  0.0238  0.1469 -0.4826
 9180SOL    HW128439   4.287   0.231   5.897  0.4344  0.1762 -1.5825
 9180SOL    HW228440   4.414   0.334   5.887 -0.2139  1.0316 -1.1159
 9181SOL     OW28441   6.449   4.857   4.900  0.3588 -0.0532  0.0560
 9181SOL    HW128442   6.415   4.763   4.906  1.0299 -0.2178  2.5058
 9181SOL    HW228443   6.381   4.914   4.854 -2.6647 -0.7028  3.2421
 9182SOL     OW28444   4.368   5.265   3.389 -0.0576 -0.3924 -0.1668
 9182SOL    HW128445   4.432   5.240   3.316 -0.4469  0.1076 -0.6868
 9182SOL    HW228446   4.409   5.244   3.478  1.7709  1.9387 -0.3619
 9183SOL     OW28447   5.924   0.135   1.786 -0.4568  0.0743 -0.3998
 9183SOL    HW128448   6.020   0.145   1.760  0.4871 -4.0178  0.7904
 9183SOL    HW228449   5.869   0.113   1.705  0.2100 -0.6541 -0.6627
 9184SOL     OW28450   2.626   2.363   6.666 -0.2606  0.0216 -0.4070
 9184SOL    HW128451   2.591   2.349   6.573  0.3218  0.7409 -0.7521
 9184SOL    HW228452   2.639   2.275   6.711 -0.6181 -0.3300 -0.9850
 9185SOL     OW28453   2.690   0.471   2.622 -0.5015  0.5709 -0.7169
 9185SOL    HW128454   2.785   0.482   2.650 -0.5720 -1.1906  0.3882
 9185SOL    HW228455   2.645   0.560   2.618  1.3250  1.4842 -1.8276
 9186SOL     OW28456   3.449   2.283   0.322  0.3606 -0.4068 -0.0615
 9186SOL    HW128457   3.429   2.312   0.228 -4.1062  0.3030  0.8804
 9186SOL    HW228458   3.485   2.360   0.373 -0.2218  0.1219 -0.4348
 9187SOL     OW28459   1.960   2.261   5.350 -0.0844 -0.4947  0.6679
 9187SOL    HW128460   1.882   2.323   5.342  0.7436  0.3737 -0.9654
 9187SOL    HW228461   2.007   2.277   5.437 -0.5244  0.3888  0.7480
 9188SOL     OW28462   3.125   3.539   4.171 -0.4584 -0.0027 -0.4565
 9188SOL    HW128463   3.177   3.518   4.253 -0.1941  1.0204 -0.3506
 9188SOL    HW228464   3.027   3.541   4.192 -0.4769 -0.8435 -0.4213
 9189SOL     OW28465   1.418   3.135   1.449  0.1781  0.4440 -0.0116
 9189SOL    HW128466   1.420   3.065   1.521 -0.2556 -1.0277 -1.3729
 9189SOL    HW228467   1.324   3.154   1.423  0.0874  3.4643  2.0575
 9190SOL     OW28468   4.214   4.758   5.034  0.0664  0.5987 -0.5277
 9190SOL    HW128469   4.247   4.663   5.028  0.8798  0.8120  0.2330
 9190SOL    HW228470   4.287   4.820   5.006  0.5026  1.1055  1.5920
 9191SOL     OW28471   6.333   4.807   3.589 -0.0564 -0.2949 -0.6416
 9191SOL    HW128472   6.284   4.756   3.661 -0.0658  2.3602  1.3607
 9191SOL    HW228473   6.431   4.803   3.606 -0.1241  1.3457  0.2982
 9192SOL     OW28474   6.914   4.436   0.125  0.0467 -0.1134 -0.4382
 9192SOL    HW128475   6.844   4.421   0.195 -0.2155  1.6187 -0.2757
 9192SOL    HW228476   6.889   4.516   0.070  1.7370  0.3361 -0.5972
 9193SOL     OW28477   6.778   2.575   5.348 -0.4573  0.2691  0.4485
 9193SOL    HW128478   6.802   2.502   5.412  0.3833  0.3743  0.2649
 9193SOL    HW228479   6.849   2.645   5.349  0.1210 -0.2330 -1.3633
 9194SOL     OW28480   6.392   0.854   2.911  0.5890  0.1707  0.2742
 9194SOL    HW128481   6.465   0.843   2.844 -0.0530  0.0950 -0.4264
 9194SOL    HW228482   6.372   0.952   2.923 -1.5395  0.1326 -2.1730
 9195SOL     OW28483   2.745   3.809   6.321  0.0489 -0.0510  0.1523
 9195SOL    HW128484   2.820   3.744   6.333 -0.7204 -1.1289 -0.7715
 9195SOL    HW228485   2.758   3.886   6.383  1.0275 -1.0285  1.1956
 9196SOL     OW28486   5.528   7.016   4.966  0.1678  0.1717 -0.4089
 9196SOL    HW128487   5.619   7.054   4.984 -0.1961  0.7559  0.2474
 9196SOL    HW228488   5.527   6.975   4.875  0.6370  1.6055 -1.0989
 9197SOL     OW28489   1.366   0.816   0.425 -0.0970  0.0037 -0.1253
 9197SOL    HW128490   1.332   0.722   0.419  0.4095 -0.1108 -1.5819
 9197SOL    HW228491   1.448   0.825   0.368 -1.9953  2.1333 -2.7435
 9198SOL     OW28492   4.836   2.094   0.300 -0.0107 -0.1403 -0.0997
 9198SOL    HW128493   4.923   2.127   0.264  0.1590  0.2702  0.6540
 9198SOL    HW228494   4.849   2.004   0.341  0.1311  0.0358  0.2538
 9199SOL     OW28495   0.460   2.607   5.889 -0.3610 -0.0808 -0.6311
 9199SOL    HW128496   0.520   2.554   5.829 -0.5026 -1.3119  0.2772
 9199SOL    HW228497   0.437   2.694   5.845 -0.5179 -0.9768 -2.3709
 9200SOL     OW28498   5.575   2.706   0.781  0.8223  0.4005 -0.1943
 9200SOL    HW128499   5.515   2.626   0.776  1.1540  0.1094  0.3806
 9200SOL    HW228500   5.594   2.738   0.688 -0.5243  0.7378 -0.3799
 9201SOL     OW28501   2.354   4.556   0.884 -0.5420 -0.3015 -0.0300
 9201SOL    HW128502   2.453   4.575   0.882 -0.6511  0.3213  0.1364
 9201SOL    HW228503   2.330   4.495   0.809 -0.2991  0.9345 -1.1482
 9202SOL     OW28504   5.800   4.425   0.761  0.0347  0.4219  0.2212
 9202SOL    HW128505   5.751   4.376   0.689 -1.8458  1.5088  0.6972
 9202SOL    HW228506   5.743   4.501   0.794  1.7943  1.3341  1.2817
 9203SOL     OW28507   0.377   6.204   5.057 -0.1467  0.4696 -0.5351
 9203SOL    HW128508   0.292   6.250   5.031 -0.3483  0.4808  0.1221
 9203SOL    HW228509   0.357   6.110   5.085 -0.1654  0.9180  1.0549
 9204SOL     OW28510   6.802   4.178   4.462  0.1323 -0.0884  0.2584
 9204SOL    HW128511   6.713   4.147   4.428 -0.9716  0.7099  2.2530
 9204SOL    HW228512   6.821   4.270   4.426  0.9547 -0.8726 -1.4407
 9205SOL     OW28513   3.011   6.497   1.420 -0.1694 -0.0397  0.0592
 9205SOL    HW128514   3.090   6.438   1.436  0.7582  1.0594 -0.3263
 9205SOL    HW228515   3.042   6.591   1.407 -1.5012  0.3284 -0.6323
 9206SOL     OW28516   0.931   0.867   4.117 -0.1251 -0.4823  0.2954
 9206SOL    HW128517   0.988   0.862   4.199 -0.8324 -1.2077  0.7475
 9206SOL    HW228518   0.966   0.802   4.049 -0.7078 -1.3157  0.7724
 9207SOL     OW28519   6.619   0.091   6.363  0.0017  0.1542  0.0608
 9207SOL    HW128520   6.636  -0.007   6.375 -1.4880 -0.1669 -0.2930
 9207SOL    HW228521   6.634   0.138   6.450  1.2390 -0.2843  0.1115
 9208SOL     OW28522   5.709   1.520   3.368  0.9001  0.3630 -0.2466
 9208SOL    HW128523   5.807   1.507   3.380  0.8553  0.8946  0.7609
 9208SOL    HW228524   5.661   1.496   3.453  0.2666  1.1581 -0.3622
 9209SOL     OW28525   6.881   4.480   3.085  0.4071 -0.1313  0.0800
 9209SOL    HW128526   6.898   4.571   3.050 -4.0017  0.1421 -1.9736
 9209SOL    HW228527   6.881   4.482   3.185  2.9482  1.4082  0.1274
 9210SOL     OW28528   2.857   0.384   2.274  0.2239  0.9541 -0.1418
 9210SOL    HW128529   2.842   0.325   2.195 -1.8102  2.4320 -0.9372
 9210SOL    HW228530   2.924   0.341   2.335 -0.6670 -1.8202 -0.9689
 9211SOL     OW28531   1.765   3.487   3.578 -0.0474 -1.0337  0.1838
 9211SOL    HW128532   1.840   3.541   3.615 -0.8023  1.1418 -1.2377
 9211SOL    HW228533   1.756   3.401   3.629  0.4276  0.6913  3.4278
 9212SOL     OW28534   4.062   0.817   5.041 -0.2718  0.4751 -0.2433
 9212SOL    HW128535   4.134   0.756   5.008 -1.7100 -1.1110 -0.5896
 9212SOL    HW228536   4.002   0.841   4.965 -2.5472 -1.7204  0.7216
 9213SOL     OW28537   5.655   4.741   1.896  0.4605 -0.2199 -0.0429
 9213SOL    HW128538   5.652   4.677   1.820  2.1730  0.5222 -0.8010
 9213SOL    HW228539   5.708   4.822   1.870 -0.1513  0.7248  1.4613
 9214SOL     OW28540   4.070   1.109   5.798  0.3841 -0.0672 -0.2604
 9214SOL    HW128541   4.078   1.066   5.888  0.2362 -0.1637 -0.2933
 9214SOL    HW228542   4.063   1.209   5.809  0.2063 -0.0903 -0.1555
 9215SOL     OW28543   6.145   2.378   6.187  0.0485  0.1034 -0.0178
 9215SOL    HW128544   6.100   2.398   6.274  1.2757  2.5713  0.1503
 9215SOL    HW228545   6.078   2.381   6.113 -0.7114 -0.2959  0.6365
 9216SOL     OW28546   6.546   1.580   6.511  0.5240 -0.8606 -0.5612
 9216SOL    HW128547   6.573   1.673   6.485  0.0747 -0.3669  0.6625
 9216SOL    HW228548   6.595   1.514   6.454 -0.3472  0.1412 -2.6001
 9217SOL     OW28549   1.725   3.656   0.991  0.4473  0.8686 -0.4916
 9217SOL    HW128550   1.757   3.704   1.072  0.1963  0.7112 -0.2979
 9217SOL    HW228551   1.713   3.721   0.916  1.3098  0.9166 -0.6001
 9218SOL     OW28552   1.260   6.429   1.693  0.5118 -0.0932 -0.4189
 9218SOL    HW128553   1.336   6.492   1.699  0.8684 -0.2992 -2.3037
 9218SOL    HW228554   1.178   6.471   1.733  1.1792  0.7897  0.0510
 9219SOL     OW28555   2.133   6.294   0.216  0.1238 -0.1291 -0.0611
 9219SOL    HW128556   2.091   6.367   0.163 -0.1426  0.4047  0.8542
 9219SOL    HW228557   2.209   6.331   0.269 -0.5986 -0.2888  1.1273
 9220SOL     OW28558   4.111   0.266   2.563 -0.0080  0.1134  0.0125
 9220SOL    HW128559   4.017   0.250   2.535  0.5542  1.2614 -2.8081
 9220SOL    HW228560   4.156   0.326   2.498  2.5342  0.1065  1.6155
 9221SOL     OW28561   6.265   6.373   4.342  0.2515  0.1175  0.5294
 9221SOL    HW128562   6.292   6.432   4.266 -0.4130 -0.5293 -0.2321
 9221SOL    HW228563   6.323   6.391   4.421  2.0645 -0.3486 -0.6458
 9222SOL     OW28564   0.328   2.180   5.596  0.0313  0.2780 -0.5886
 9222SOL    HW128565   0.410   2.138   5.635  0.2528  2.3972  1.3963
 9222SOL    HW228566   0.251   2.167   5.659 -0.4884  0.6757 -1.1366
 9223SOL     OW28567   5.976   4.650   2.757  0.2240 -0.4650  0.0442
 9223SOL    HW128568   5.976   4.567   2.702  0.5747  0.4925 -1.4953
 9223SOL    HW228569   5.883   4.671   2.788  0.3480 -2.1897  1.7419
 9224SOL     OW28570   1.783   5.693   3.474 -0.1493 -0.2973  0.3199
 9224SOL    HW128571   1.788   5.732   3.566 -0.6328 -0.9950  0.6516
 9224SOL    HW228572   1.829   5.754   3.409  0.9193 -0.1848  1.1511
 9225SOL     OW28573   4.582   4.084   1.003 -0.0857  0.2012 -0.6436
 9225SOL    HW128574   4.649   4.122   0.940  0.3702  2.4735  1.0612
 9225SOL    HW228575   4.599   4.121   1.095 -2.0283 -1.2927  0.3893
 9226SOL     OW28576   6.605   5.327   0.072 -0.0579  0.3954  0.1100
 9226SOL    HW128577   6.507   5.313   0.058  0.4941 -1.5645 -2.5037
 9226SOL    HW228578   6.655   5.246   0.042  2.5919  2.6901 -2.1306
 9227SOL     OW28579   3.204   1.706   0.766 -0.4962 -0.0654  0.2259
 9227SOL    HW128580   3.301   1.690   0.783 -0.0443  1.2870 -0.8701
 9227SOL    HW228581   3.152   1.625   0.793  0.9402 -0.8749  0.6989
 9228SOL     OW28582   5.827   1.555   2.771 -0.2490  0.0369  0.2885
 9228SOL    HW128583   5.831   1.497   2.689  0.5105 -0.4225  0.6326
 9228SOL    HW228584   5.892   1.630   2.761 -0.3039  0.0963  0.3782
 9229SOL     OW28585   0.515   0.587   2.291  0.2334 -0.1919 -0.3900
 9229SOL    HW128586   0.581   0.549   2.227  1.2605 -0.9075  1.0591
 9229SOL    HW228587   0.458   0.514   2.328  2.4134 -0.5267  2.6401
 9230SOL     OW28588   2.045   0.349   0.535  0.1000  0.0988  0.1955
 9230SOL    HW128589   2.142   0.358   0.558  0.1750 -1.1081  0.4045
 9230SOL    HW228590   1.990   0.377   0.614  0.2476  1.3372 -0.1159
 9231SOL     OW28591   3.048   5.320   6.709 -0.4480  0.2505 -0.0890
 9231SOL    HW128592   3.105   5.274   6.641  0.9693  0.9821  0.5448
 9231SOL    HW228593   3.045   5.418   6.688  0.3882  0.5549  1.1209
 9232SOL     OW28594   0.367   3.203   0.585  0.4960 -0.1053 -0.0629
 9232SOL    HW128595   0.300   3.170   0.652 -1.3191  1.5022 -0.9635
 9232SOL    HW228596   0.321   3.216   0.497  1.9775  1.2286 -0.6816
 9233SOL     OW28597   6.916   0.720   3.398  0.0669  0.6744  0.4130
 9233SOL    HW128598   6.991   0.745   3.459 -1.0158  2.8879  0.9293
 9233SOL    HW228599   6.949   0.717   3.304  0.8487  1.4419  0.6526
 9234SOL     OW28600   3.111   1.288   5.138  0.3071  0.2871 -0.1442
 9234SOL    HW128601   3.046   1.272   5.212  0.9014 -2.6842 -0.1468
 9234SOL    HW228602   3.188   1.225   5.146  0.4400 -0.1337 -3.2033
 9235SOL     OW28603   4.653   2.684   5.829  0.0359 -0.3045 -0.0866
 9235SOL    HW128604   4.699   2.723   5.909 -2.4542  0.7482  0.9060
 9235SOL    HW228605   4.633   2.757   5.764 -3.7434  0.1017  1.3248
 9236SOL     OW28606   5.182   5.506   5.865  0.9227  0.5196  0.3077
 9236SOL    HW128607   5.154   5.551   5.780 -1.5070 -0.6481  0.4202
 9236SOL    HW228608   5.273   5.466   5.853  0.9568  1.0543 -1.4568
 9237SOL     OW28609   4.810   5.437   2.133  0.1300  0.5947 -0.4191
 9237SOL    HW128610   4.895   5.394   2.163  0.1519  1.0490  0.1699
 9237SOL    HW228611   4.756   5.370   2.082  1.5367  0.7345 -2.2059
 9238SOL     OW28612   3.860   0.368   1.714 -0.5135 -0.9578  0.2327
 9238SOL    HW128613   3.951   0.339   1.686 -0.4261  0.5330 -1.1957
 9238SOL    HW228614   3.800   0.374   1.634 -1.4129 -0.3694  0.9231
 9239SOL     OW28615   0.461   0.617   1.567  0.1237  0.0287 -0.2791
 9239SOL    HW128616   0.393   0.613   1.494 -0.7985  0.7738  0.5262
 9239SOL    HW228617   0.543   0.566   1.538 -1.0073 -1.4722 -0.9916
 9240SOL     OW28618   4.877   3.416   4.541  0.2536 -0.5918  0.2650
 9240SOL    HW128619   4.783   3.391   4.568 -0.1470  0.2831 -0.2899
 9240SOL    HW228620   4.925   3.451   4.621  0.3521 -1.7065  0.7185
 9241SOL     OW28621   2.783   5.900   5.666 -0.0489  0.4147 -0.0041
 9241SOL    HW128622   2.862   5.933   5.615 -0.0416  2.4171  1.1845
 9241SOL    HW228623   2.774   5.952   5.751 -2.1037 -0.3988  0.3523
 9242SOL     OW28624   4.668   5.931   1.006  0.2429 -0.0522 -0.3186
 9242SOL    HW128625   4.632   6.022   1.022  0.8752  0.2135 -0.3736
 9242SOL    HW228626   4.765   5.937   0.982  0.3761 -0.7605  0.0076
 9243SOL     OW28627   1.441   0.164   6.676  0.0617  0.5155  0.1733
 9243SOL    HW128628   1.435   0.074   6.632  0.4994  0.1856  0.7748
 9243SOL    HW228629   1.387   0.230   6.624 -0.0722 -0.0419 -0.4091
 9244SOL     OW28630   1.007   0.588   5.287  0.3387  0.4309 -0.4793
 9244SOL    HW128631   0.923   0.637   5.261 -0.0510  0.7667  1.2393
 9244SOL    HW228632   0.983   0.502   5.331  0.9191  0.1882 -0.6319
 9245SOL     OW28633   3.078   2.136   2.198 -0.4379 -0.1308  0.0806
 9245SOL    HW128634   3.155   2.096   2.149  0.2073  1.3552 -0.1874
 9245SOL    HW228635   3.038   2.210   2.144  0.4057  1.6942  1.7867
 9246SOL     OW28636   6.586   3.242   6.470 -0.2587  0.0295 -0.6497
 9246SOL    HW128637   6.565   3.285   6.382 -2.0388  0.4577 -0.0742
 9246SOL    HW228638   6.633   3.308   6.529 -1.1890  0.5734 -0.4795
 9247SOL     OW28639   3.609   3.586   2.022  0.6059  0.6139  0.2145
 9247SOL    HW128640   3.509   3.590   2.014  0.7619  1.5150 -2.1501
 9247SOL    HW228641   3.651   3.636   1.946  2.8847 -0.0896  0.9152
 9248SOL     OW28642   2.431   0.116   6.227 -0.0077  0.2036 -0.1481
 9248SOL    HW128643   2.335   0.131   6.203 -0.0142  0.7992  0.2333
 9248SOL    HW228644   2.443   0.127   6.326  0.5589  0.7074 -0.2662
 9249SOL     OW28645   6.186   3.755   0.231 -0.0633  0.2020  0.5503
 9249SOL    HW128646   6.224   3.838   0.190  1.1271 -0.2779  0.6307
 9249SOL    HW228647   6.089   3.769   0.251 -1.0540  0.1261 -3.3700
 9250SOL     OW28648   1.820   5.151   4.498 -0.7117  0.5825  0.3912
 9250SOL    HW128649   1.908   5.104   4.489 -0.8885  0.2935  0.1421
 9250SOL    HW228650   1.808   5.181   4.593 -0.1990  0.9194  0.3540
 9251SOL     OW28651   3.914   2.718   6.703  0.4520 -0.0411 -0.2478
 9251SOL    HW128652   3.978   2.643   6.720  0.2101 -0.0369  0.6766
 9251SOL    HW228653   3.827   2.681   6.672  0.3805 -0.1310  0.0620
 9252SOL     OW28654   0.999   1.939   5.813 -1.0235 -0.9076  0.0057
 9252SOL    HW128655   0.970   1.846   5.833  1.1426 -1.5557  0.3265
 9252SOL    HW228656   1.072   1.966   5.876 -0.2242  0.2781 -1.3718
 9253SOL     OW28657   3.464   5.451   2.575 -0.6298  0.6590  0.0806
 9253SOL    HW128658   3.377   5.453   2.525 -0.2765 -0.0285 -0.5874
 9253SOL    HW228659   3.464   5.373   2.637 -1.5504  2.1830  2.1030
 9254SOL     OW28660   2.799   1.306   6.613 -0.3395  0.3383 -0.3539
 9254SOL    HW128661   2.820   1.270   6.704 -0.1835 -1.0873 -0.9308
 9254SOL    HW228662   2.755   1.396   6.622  0.1217  0.4478  1.0985
 9255SOL     OW28663   3.015   4.849   3.392  0.1550 -0.1007  0.1540
 9255SOL    HW128664   2.998   4.843   3.293 -0.4710 -1.3330  0.3253
 9255SOL    HW228665   2.930   4.831   3.442  0.7277 -0.6952  0.9377
 9256SOL     OW28666   6.174   6.353   6.115 -0.2132 -0.4858 -0.2760
 9256SOL    HW128667   6.089   6.402   6.136  0.3674  1.2288 -1.6304
 9256SOL    HW228668   6.251   6.407   6.148  0.3858 -2.0825  1.0373
 9257SOL     OW28669   4.136   5.754   1.286 -0.3963  0.0676 -0.0914
 9257SOL    HW128670   4.206   5.763   1.215 -0.3272  0.8984  0.0702
 9257SOL    HW228671   4.156   5.674   1.342  0.5722  0.4234  0.0992
 9258SOL     OW28672   2.835   5.950   1.763  0.1317 -0.2631  0.0372
 9258SOL    HW128673   2.837   6.012   1.684  0.5115 -1.2381 -0.7305
 9258SOL    HW228674   2.916   5.891   1.761 -0.4105 -1.0376  0.5499
 9259SOL     OW28675   3.503   2.975   0.718 -0.3208  0.0422 -0.0418
 9259SOL    HW128676   3.444   2.921   0.659 -0.8117  0.1974  0.2956
 9259SOL    HW228677   3.497   2.940   0.812 -0.3002  0.3954  0.0938
 9260SOL     OW28678   6.837   3.753   2.942 -0.3244  0.0757 -0.6387
 9260SOL    HW128679   6.745   3.713   2.946  0.2321 -1.2670 -0.5307
 9260SOL    HW228680   6.886   3.716   2.864  0.9479 -1.1716  0.6778
 9261SOL     OW28681   5.713   6.862   6.957 -0.7106  0.2433 -0.1196
 9261SOL    HW128682   5.744   6.796   6.889  0.4270 -0.3718  0.9599
 9261SOL    HW228683   5.675   6.813   7.036 -0.0297  0.8708  0.6094
 9262SOL     OW28684   0.082   3.587   1.246  0.6827  0.9772  0.5194
 9262SOL    HW128685   0.051   3.669   1.295  0.7607  1.1087  0.3526
 9262SOL    HW228686   0.072   3.507   1.305 -0.5648  0.9213  0.2525
 9263SOL     OW28687   4.909   0.542   6.577 -0.2916 -0.0266 -0.1317
 9263SOL    HW128688   4.820   0.578   6.605 -0.6106 -1.0359  0.1655
 9263SOL    HW228689   4.903   0.443   6.563  1.0854 -0.3233  1.1519
 9264SOL     OW28690   0.204   0.736   0.739  0.1490 -0.8968 -0.1303
 9264SOL    HW128691   0.298   0.750   0.771  0.2544 -0.9848 -0.4018
 9264SOL    HW228692   0.175   0.816   0.686  0.3657 -1.2224 -0.7519
 9265SOL     OW28693   3.660   6.437   1.719  0.1121 -0.3017  0.2941
 9265SOL    HW128694   3.692   6.365   1.782  0.3066  0.2145  0.7971
 9265SOL    HW228695   3.720   6.517   1.727  0.2761 -0.3181 -0.7292
 9266SOL     OW28696   1.976   0.391   2.077  0.4191 -0.4419  0.0943
 9266SOL    HW128697   1.939   0.312   2.029  0.3576 -0.2183 -0.2309
 9266SOL    HW228698   2.030   0.360   2.156 -0.8012 -0.7524  0.8254
 9267SOL     OW28699   6.054   1.549   0.871  0.9321  0.4756  0.0610
 9267SOL    HW128700   5.978   1.490   0.842  1.8865  0.0658 -1.7589
 9267SOL    HW228701   6.056   1.631   0.813  2.3898  0.0498 -0.5366
 9268SOL     OW28702   1.538   6.025   1.083 -0.0089  0.2612 -0.7547
 9268SOL    HW128703   1.565   5.931   1.106 -0.0684  0.2739 -0.6273
 9268SOL    HW228704   1.456   6.023   1.025 -1.1379  0.2541  0.7514
 9269SOL     OW28705   1.001   1.639   4.686 -0.9939 -0.0097 -0.3997
 9269SOL    HW128706   0.909   1.604   4.700 -0.3365 -1.6832  0.0622
 9269SOL    HW228707   1.035   1.679   4.771  0.0482 -2.8803  0.6588
 9270SOL     OW28708   5.017   0.627   3.066 -0.3578  1.2128  0.4145
 9270SOL    HW128709   5.105   0.649   3.024  0.3789 -0.5754  0.9282
 9270SOL    HW228710   4.945   0.634   2.997  0.1140  2.9932  0.0576
 9271SOL     OW28711   2.828   0.804   1.213  0.0068 -0.2805 -0.0809
 9271SOL    HW128712   2.859   0.764   1.299 -1.0266 -0.0074  0.4346
 9271SOL    HW228713   2.754   0.869   1.231 -0.4513 -0.4680 -1.2085
 9272SOL     OW28714   5.761   1.932   6.520  0.3799  0.6448  0.0469
 9272SOL    HW128715   5.763   1.848   6.466  0.4682  1.3921 -1.1513
 9272SOL    HW228716   5.824   1.924   6.597  1.0398 -0.0691 -0.5512
 9273SOL     OW28717   0.663   6.626   4.682 -0.0909  0.1309  0.2990
 9273SOL    HW128718   0.677   6.687   4.604 -0.5731 -1.3349 -0.9714
 9273SOL    HW228719   0.751   6.589   4.712 -0.0894 -0.6831 -0.6994
 9274SOL     OW28720   1.690   2.474   2.179 -0.3080  0.1861  0.2972
 9274SOL    HW128721   1.611   2.534   2.189 -0.1010  0.9769 -2.0832
 9274SOL    HW228722   1.774   2.527   2.189 -0.1016 -0.1945  0.6046
 9275SOL     OW28723   3.444   0.060   2.002 -0.2023 -0.2227  0.7145
 9275SOL    HW128724   3.447   0.121   1.923 -0.4613 -0.4039  0.5651
 9275SOL    HW228725   3.349   0.043   2.029 -0.0988  0.5922  1.6557
 9276SOL     OW28726   3.343   4.453   6.695  0.2262 -0.2149 -0.1650
 9276SOL    HW128727   3.359   4.435   6.792  0.7886  0.2229 -0.1693
 9276SOL    HW228728   3.346   4.367   6.645 -0.5460 -0.5005  0.2656
 9277SOL     OW28729   1.170   0.003   2.930 -0.0468  0.0044  0.9647
 9277SOL    HW128730   1.165   0.085   2.873 -3.2889 -0.2114  0.7924
 9277SOL    HW228731   1.243  -0.057   2.896  0.2091  1.3227 -0.9564
 9278SOL     OW28732   1.308   4.589   4.242  0.3609 -0.2682 -0.1909
 9278SOL    HW128733   1.356   4.526   4.181 -0.9338 -2.3700  0.8731
 9278SOL    HW228734   1.299   4.549   4.333 -1.0642  1.1725  0.3627
 9279SOL     OW28735   5.328   1.025   2.211  0.4734 -0.2322 -0.1131
 9279SOL    HW128736   5.351   1.064   2.121 -0.1587  1.4257  0.3998
 9279SOL    HW228737   5.366   1.083   2.283  1.5678 -1.9211  0.7336
 9280SOL     OW28738   5.600   1.590   4.550 -0.2121 -0.2244  0.2906
 9280SOL    HW128739   5.538   1.627   4.480 -1.6359 -1.6687  0.7243
 9280SOL    HW228740   5.586   1.491   4.558  1.2404 -0.3775  1.3413
 9281SOL     OW28741   2.419   0.527   0.155 -0.1382  0.4513 -0.0090
 9281SOL    HW128742   2.444   0.431   0.164  0.2960  0.3839 -1.6132
 9281SOL    HW228743   2.501   0.582   0.141 -0.4469  0.9698  0.1746
 9282SOL     OW28744   6.914   5.514   1.753 -0.5633  0.0270 -0.7301
 9282SOL    HW128745   6.958   5.425   1.737 -2.7069 -1.4166  0.8424
 9282SOL    HW228746   6.980   5.577   1.793  0.8596 -1.0085 -1.3397
 9283SOL     OW28747   0.846   4.988   6.749  0.8085 -0.1716  0.8255
 9283SOL    HW128748   0.939   5.025   6.747  0.1227  1.8041  2.3587
 9283SOL    HW228749   0.793   5.026   6.673  0.6187  0.5342  1.3096
 9284SOL     OW28750   6.815   3.273   1.642 -0.2481  0.0273  0.2690
 9284SOL    HW128751   6.898   3.225   1.668 -0.1552  0.2934  0.4590
 9284SOL    HW228752   6.831   3.323   1.557 -0.9651 -2.0049 -1.1344
 9285SOL     OW28753   5.621   3.272   4.843  0.4474  0.0583  0.4417
 9285SOL    HW128754   5.705   3.229   4.809  0.4682 -0.0425  0.6196
 9285SOL    HW228755   5.559   3.288   4.766  0.7047  0.3045  0.2803
 9286SOL     OW28756   5.820   0.762   6.804 -0.4415  0.4060  0.5970
 9286SOL    HW128757   5.836   0.687   6.868 -1.5991  0.7598  1.3372
 9286SOL    HW228758   5.824   0.849   6.854 -1.1703  0.7026  0.1528
 9287SOL     OW28759   0.714   2.299   3.143  0.0627 -0.0158  0.2002
 9287SOL    HW128760   0.666   2.230   3.197  1.0013  0.1625  1.2946
 9287SOL    HW228761   0.689   2.391   3.175 -0.9785  0.1758 -1.0752
 9288SOL     OW28762   4.188   1.554   6.032 -0.5430 -0.1600 -0.3763
 9288SOL    HW128763   4.285   1.566   6.049 -0.0724  2.4714 -3.7560
 9288SOL    HW228764   4.174   1.498   5.950 -1.9574 -0.9824  0.3717
 9289SOL     OW28765   6.162   6.454   0.284  0.3321  0.2192  0.7761
 9289SOL    HW128766   6.246   6.407   0.259 -0.3771 -0.5082 -0.3200
 9289SOL    HW228767   6.083   6.402   0.251 -0.5435  1.0900  1.4257
 9290SOL     OW28768   6.934   1.209   5.457 -0.0755 -0.4691  0.1682
 9290SOL    HW128769   6.995   1.199   5.379  1.8622 -0.3248  1.5959
 9290SOL    HW228770   6.857   1.146   5.447 -1.6306  1.6997 -3.3466
 9291SOL     OW28771   3.975   5.612   4.230 -0.3302 -0.0681 -0.0153
 9291SOL    HW128772   4.051   5.548   4.237 -0.1660 -0.1866 -2.2370
 9291SOL    HW228773   3.893   5.570   4.271  0.0284 -1.2805 -0.4780
 9292SOL     OW28774   3.504   1.298   5.747 -0.0234  0.0661  0.5588
 9292SOL    HW128775   3.572   1.290   5.675  0.3942 -0.4168  1.0039
 9292SOL    HW228776   3.416   1.262   5.714 -0.0184  0.4990  0.0583
 9293SOL     OW28777   1.783   4.950   0.094 -0.2354  0.4503 -0.3578
 9293SOL    HW128778   1.756   4.994   0.180  2.3775 -1.4308  1.5840
 9293SOL    HW228779   1.714   4.884   0.066  0.0517 -0.8380  1.8144
 9294SOL     OW28780   6.946   4.661   5.690  0.3156 -0.4433 -0.1651
 9294SOL    HW128781   6.920   4.632   5.782 -1.1970  0.4246 -0.2945
 9294SOL    HW228782   6.960   4.579   5.633  0.8435 -0.9771  0.6988
 9295SOL     OW28783   2.502   0.916   6.173  0.9808 -0.0196 -0.1846
 9295SOL    HW128784   2.527   1.005   6.210  2.8610 -0.8334  0.6324
 9295SOL    HW228785   2.526   0.845   6.239  2.1645 -1.3385 -1.9698
 9296SOL     OW28786   3.209   6.713   2.318  0.4318  0.3088  0.4140
 9296SOL    HW128787   3.156   6.761   2.247 -0.0561  1.2366  1.3753
 9296SOL    HW228788   3.148   6.680   2.389  0.8821 -0.9125  0.2490
 9297SOL     OW28789   2.309   4.946   0.073  0.3099 -0.3325 -0.1776
 9297SOL    HW128790   2.262   4.859   0.082  1.1541 -1.0088 -1.9488
 9297SOL    HW228791   2.242   5.019   0.061 -0.3708 -0.8269  0.5239
 9298SOL     OW28792   6.946   5.875   1.823  0.6337 -0.0948 -0.2468
 9298SOL    HW128793   6.951   5.923   1.911  3.2311 -0.7179  0.0289
 9298SOL    HW228794   6.996   5.789   1.829  2.3138  0.5969 -2.7321
 9299SOL     OW28795   6.693   4.734   4.152  0.5319  0.0565  0.0382
 9299SOL    HW128796   6.789   4.711   4.137  0.2484 -2.0815  1.0715
 9299SOL    HW228797   6.642   4.724   4.066  1.2559  1.6102 -0.6123
 9300SOL     OW28798   6.084   4.201   4.369  0.6491  0.5910  0.3212
 9300SOL    HW128799   6.127   4.114   4.392  1.4757  0.6575 -0.8758
 9300SOL    HW228800   6.070   4.207   4.270 -2.1061  0.6150  0.6419
 9301SOL     OW28801   2.635   4.577   2.435  0.7549  0.5015 -0.0387
 9301SOL    HW128802   2.541   4.589   2.401  0.5959 -0.4445  0.0343
 9301SOL    HW228803   2.699   4.586   2.360  0.7497  2.6778  0.1527
 9302SOL     OW28804   3.703   3.020   1.205  0.0978 -0.1439 -0.1541
 9302SOL    HW128805   3.670   2.955   1.275 -1.1669  0.0043 -0.5777
 9302SOL    HW228806   3.785   2.983   1.161 -0.4047 -1.3125 -0.1575
 9303SOL     OW28807   0.429   3.567   3.104 -0.4799 -0.2087 -0.1913
 9303SOL    HW128808   0.420   3.604   3.197  0.8229  1.3940 -0.6473
 9303SOL    HW228809   0.525   3.543   3.087 -0.4674  0.7009 -1.5162
 9304SOL     OW28810   4.483   3.694   1.276 -0.1580  0.4841 -0.5294
 9304SOL    HW128811   4.527   3.685   1.366 -0.3330  1.7276 -0.3021
 9304SOL    HW228812   4.519   3.625   1.214  0.1223 -0.2537  0.4385
 9305SOL     OW28813   5.092   1.726   0.861 -0.3732  0.1159  0.1244
 9305SOL    HW128814   5.059   1.702   0.770  1.5066 -0.4751 -0.4497
 9305SOL    HW228815   5.145   1.811   0.856  1.1782 -0.8091  0.3016
 9306SOL     OW28816   6.484   2.691   5.364 -0.1809  0.4715 -0.6245
 9306SOL    HW128817   6.582   2.689   5.346 -0.1585 -0.2125 -0.4379
 9306SOL    HW228818   6.466   2.753   5.441  0.3220 -0.8292  0.5879
 9307SOL     OW28819   4.239   3.522   6.963 -0.6353  0.2146  0.5003
 9307SOL    HW128820   4.224   3.568   6.876  0.4218  0.2501  0.3242
 9307SOL    HW228821   4.211   3.426   6.956 -0.0086  0.0644 -0.0720
 9308SOL     OW28822   5.238   6.043   6.168 -0.0242  0.7036 -0.0905
 9308SOL    HW128823   5.140   6.063   6.165 -0.4032 -1.0653 -0.7899
 9308SOL    HW228824   5.254   5.965   6.228  0.9799  1.0008  0.0477
 9309SOL     OW28825   0.209   3.267   3.070  0.3248 -0.0643 -0.0744
 9309SOL    HW128826   0.197   3.366   3.065 -0.3057 -0.0235  1.6334
 9309SOL    HW228827   0.170   3.232   3.155  0.3493 -1.8226 -0.7210
 9310SOL     OW28828   5.015   1.875   3.989  0.0488 -0.5315  0.2805
 9310SOL    HW128829   4.932   1.831   3.954  0.3583 -1.5800  0.8281
 9310SOL    HW228830   4.996   1.911   4.080 -0.7976  2.3185 -0.9130
 9311SOL     OW28831   0.825   2.399   2.079  0.3090  0.1790  0.2593
 9311SOL    HW128832   0.875   2.486   2.082 -0.5809  0.7692 -1.0869
 9311SOL    HW228833   0.841   2.349   2.164  2.0008  0.9925  0.4721
 9312SOL     OW28834   2.209   5.663   2.598  0.5989 -0.5240 -0.1206
 9312SOL    HW128835   2.247   5.651   2.506  0.5033  2.0535 -0.5795
 9312SOL    HW228836   2.280   5.643   2.666  2.0399  1.5033 -0.9087
 9313SOL     OW28837   2.046   1.413   5.213  0.4397 -0.3141  0.2214
 9313SOL    HW128838   2.094   1.450   5.293 -0.6316  0.7552  0.3923
 9313SOL    HW228839   2.076   1.319   5.197  3.1790  0.5348 -0.1542
 9314SOL     OW28840   2.158   1.778   2.813 -0.6835  0.3408 -0.3206
 9314SOL    HW128841   2.226   1.806   2.745 -0.7361  0.8904 -0.1554
 9314SOL    HW228842   2.198   1.786   2.904  0.1346 -2.4565 -0.3365
 9315SOL     OW28843   5.431   4.346   1.977 -0.2418 -0.6755 -0.1114
 9315SOL    HW128844   5.337   4.313   1.987 -0.0184 -1.0664  0.8035
 9315SOL    HW228845   5.431   4.431   1.924 -1.0370 -1.0228 -0.6895
 9316SOL     OW28846   1.440   3.226   5.464 -0.5583  0.0901 -0.2785
 9316SOL    HW128847   1.467   3.262   5.553  0.6228 -3.1607  0.8353
 9316SOL    HW228848   1.381   3.292   5.418 -1.0596  1.9995  2.7978
 9317SOL     OW28849   1.980   0.146   5.464  0.6900 -0.3657  0.4724
 9317SOL    HW128850   2.015   0.164   5.556 -1.3694  1.0121  1.0490
 9317SOL    HW228851   2.008   0.219   5.403  0.1405 -0.0666  0.5718
 9318SOL     OW28852   3.396   5.223   5.786  0.1596 -0.1003  0.3223
 9318SOL    HW128853   3.495   5.221   5.775  0.1489  1.1083 -0.2083
 9318SOL    HW228854   3.371   5.294   5.851 -0.4129  0.5949 -0.6270
 9319SOL     OW28855   6.513   2.004   6.619  0.6556 -0.0377  0.1007
 9319SOL    HW128856   6.423   2.011   6.578  0.6773  0.4797  0.1257
 9319SOL    HW228857   6.572   1.946   6.563 -0.3776 -2.3771  1.3269
 9320SOL     OW28858   4.910   3.582   2.846 -0.1453 -0.0714 -0.2440
 9320SOL    HW128859   4.970   3.519   2.797  1.6972  0.3864  1.2877
 9320SOL    HW228860   4.819   3.540   2.857  0.6234 -1.8972 -0.4251
 9321SOL     OW28861   5.830   1.558   6.025  0.0952  0.0539  0.4982
 9321SOL    HW128862   5.732   1.550   6.006  0.4858  1.1958 -2.7261
 9321SOL    HW228863   5.856   1.655   6.025  0.9695 -0.1085  3.3191
 9322SOL     OW28864   1.939   6.724   3.623  0.0446  0.3532 -0.3325
 9322SOL    HW128865   2.010   6.683   3.679 -0.3961  0.6762  0.4812
 9322SOL    HW228866   1.980   6.769   3.544  0.7274  0.3909  0.0405
 9323SOL     OW28867   5.402   0.757   2.241  0.0589 -0.5646 -0.2344
 9323SOL    HW128868   5.496   0.747   2.272  0.0663  0.0783 -0.0177
 9323SOL    HW228869   5.385   0.853   2.216 -1.0088 -0.2770  1.3807
 9324SOL     OW28870   5.031   4.568   2.406 -0.1304  0.0090 -0.5404
 9324SOL    HW128871   4.948   4.580   2.460  0.2222  0.5298 -0.1006
 9324SOL    HW228872   5.082   4.490   2.441  0.3706  0.6742  0.2559
 9325SOL     OW28873   1.161   6.491   0.033  0.4316  0.3042 -0.2602
 9325SOL    HW128874   1.087   6.475  -0.032 -0.2154 -0.4942  0.6317
 9325SOL    HW228875   1.242   6.439   0.006  0.4078  0.5568 -0.8155
 9326SOL     OW28876   1.974   4.908   2.547 -0.1411 -0.1910  0.2370
 9326SOL    HW128877   2.058   4.955   2.573 -1.1585  1.2305  1.0908
 9326SOL    HW228878   1.950   4.932   2.453  0.0261 -0.0228  0.2371
 9327SOL     OW28879   4.549   0.724   3.554  0.2903  0.1904  0.0796
 9327SOL    HW128880   4.579   0.654   3.620 -0.9510  0.0528  0.5208
 9327SOL    HW228881   4.567   0.815   3.592 -0.9878  0.1227  0.9267
 9328SOL     OW28882   6.224   5.220   0.960  0.2323  0.0183 -0.2040
 9328SOL    HW128883   6.166   5.140   0.952  1.5365 -0.9943  0.1196
 9328SOL    HW228884   6.202   5.269   1.045 -0.7346  0.1540 -0.5281
 9329SOL     OW28885   5.853   3.091   5.698 -0.5862  0.2674  0.2440
 9329SOL    HW128886   5.778   3.025   5.686  0.2139 -0.8722  1.1810
 9329SOL    HW228887   5.864   3.110   5.796  0.3567  0.4008  0.1172
 9330SOL     OW28888   0.600   5.779   4.986  0.8152  0.0921  0.7732
 9330SOL    HW128889   0.590   5.774   5.086 -1.2141  0.5653  0.6416
 9330SOL    HW228890   0.515   5.747   4.943  0.8275  1.9701 -0.7523
 9331SOL     OW28891   3.748   6.815   5.879 -0.1406 -0.4091 -0.3263
 9331SOL    HW128892   3.734   6.906   5.840  0.3926 -0.9688 -1.9024
 9331SOL    HW228893   3.737   6.819   5.979  1.2371  1.6592 -0.2054
 9332SOL     OW28894   3.116   4.675   1.407 -0.9232  0.1020 -0.3275
 9332SOL    HW128895   3.095   4.614   1.483 -2.9300  0.8331 -0.2174
 9332SOL    HW228896   3.170   4.627   1.339  0.0566 -0.8720  1.0868
 9333SOL     OW28897   1.804   0.602   2.054 -0.0149 -0.3989  0.4351
 9333SOL    HW128898   1.862   0.521   2.066 -0.5753 -0.7968  0.5102
 9333SOL    HW228899   1.710   0.579   2.079 -0.3831 -0.0111 -0.5521
 9334SOL     OW28900   6.185   0.696   3.855 -0.3458  0.4004  0.0144
 9334SOL    HW128901   6.110   0.632   3.842 -0.1423  0.1234  0.1973
 9334SOL    HW228902   6.272   0.648   3.841 -0.2190  1.1624 -2.3652
 9335SOL     OW28903   0.577   0.134   6.656  0.7395 -0.5138  0.6528
 9335SOL    HW128904   0.599   0.054   6.602  0.2509  0.7087 -1.4782
 9335SOL    HW228905   0.480   0.133   6.680  0.0689  0.6817 -1.7268
 9336SOL     OW28906   1.480   2.010   5.822 -0.5241  0.2219  0.5411
 9336SOL    HW128907   1.478   2.016   5.722  1.3525 -2.6992  0.2125
 9336SOL    HW228908   1.517   2.095   5.860  2.5277 -0.0089 -1.5648
 9337SOL     OW28909   6.116   1.826   3.345  0.2619 -0.3591  0.2920
 9337SOL    HW128910   6.154   1.889   3.278  0.4512  1.2349  1.8092
 9337SOL    HW228911   6.032   1.865   3.384  0.9239 -0.5173  1.9849
 9338SOL     OW28912   3.555   0.562   5.795  0.0528 -0.0520  0.1141
 9338SOL    HW128913   3.565   0.594   5.700 -0.7155  1.1614  0.4121
 9338SOL    HW228914   3.531   0.465   5.795  1.5534 -0.4495 -0.8716
 9339SOL     OW28915   2.930   0.980   2.800  0.3294  0.0616  0.1752
 9339SOL    HW128916   2.955   0.990   2.896 -0.2848  0.3659  0.3032
 9339SOL    HW228917   2.844   1.028   2.782  0.3556 -0.1294 -0.4895
 9340SOL     OW28918   3.471   3.820   5.070 -0.1885  0.0371 -0.2471
 9340SOL    HW128919   3.565   3.798   5.096 -0.4889  0.8969  1.7471
 9340SOL    HW228920   3.467   3.838   4.972  1.6943 -0.1246 -0.3871
 9341SOL     OW28921   1.650   6.615   4.855 -0.3933  0.5624  0.4721
 9341SOL    HW128922   1.725   6.572   4.905  0.2146  0.2544 -0.6506
 9341SOL    HW228923   1.680   6.704   4.821  0.0469 -0.2093 -1.2930
 9342SOL     OW28924   1.511   0.164   2.671  0.2463 -0.3622  0.5487
 9342SOL    HW128925   1.553   0.074   2.676 -0.3123 -0.7125 -0.6874
 9342SOL    HW228926   1.414   0.154   2.650  0.4092  0.5476 -0.7586
 9343SOL     OW28927   2.773   1.866   5.964 -0.0817  0.2845  0.0089
 9343SOL    HW128928   2.857   1.836   6.009  0.7432 -0.0898 -1.6791
 9343SOL    HW228929   2.698   1.806   5.991  0.2501  0.4103  1.2726
 9344SOL     OW28930   6.429   1.558   4.719 -0.7055  0.4596 -0.0067
 9344SOL    HW128931   6.368   1.522   4.649  1.1285 -1.1118 -0.8719
 9344SOL    HW228932   6.483   1.633   4.682 -0.6458  0.4831  0.1243
 9345SOL     OW28933   6.852   6.594   3.440  0.1507 -0.1896 -0.2175
 9345SOL    HW128934   6.831   6.571   3.535  2.8099  1.0306  0.7377
 9345SOL    HW228935   6.877   6.510   3.390  0.4223 -0.6141  0.6240
 9346SOL     OW28936   1.356   3.383   2.617  0.2215 -0.3981 -0.3975
 9346SOL    HW128937   1.414   3.443   2.562  0.1396 -0.1807 -0.2477
 9346SOL    HW228938   1.386   3.386   2.713  0.1939 -0.5653 -0.3843
 9347SOL     OW28939   5.354   0.705   4.491 -0.1954 -0.0825 -0.3626
 9347SOL    HW128940   5.310   0.617   4.503 -0.6216 -0.0874 -1.8014
 9347SOL    HW228941   5.399   0.709   4.401  1.3332  0.5311  0.3853
 9348SOL     OW28942   3.318   0.303   1.140 -0.5756 -0.0943 -0.2164
 9348SOL    HW128943   3.332   0.299   1.041  1.5054 -1.6343  0.0634
 9348SOL    HW228944   3.233   0.257   1.164  0.2246 -2.1679 -1.1280
 9349SOL     OW28945   4.843   2.566   0.089  0.4929  0.0774 -0.2952
 9349SOL    HW128946   4.770   2.562   0.158  1.5597  0.8235  0.9198
 9349SOL    HW228947   4.916   2.502   0.114  0.3657 -0.5295 -1.4027
 9350SOL     OW28948   4.650   0.124   6.375 -0.7454 -0.3456 -0.3481
 9350SOL    HW128949   4.726   0.106   6.313  1.0320  2.7936  0.6890
 9350SOL    HW228950   4.645   0.051   6.443  1.3647 -0.6604 -0.4507
 9351SOL     OW28951   2.651   5.979   0.645 -0.3518 -0.7028 -0.2569
 9351SOL    HW128952   2.731   6.030   0.616 -0.5196 -0.3858 -0.1707
 9351SOL    HW228953   2.679   5.888   0.677  0.4089  0.4484  2.7153
 9352SOL     OW28954   1.218   2.747   1.709  0.1660 -0.1997 -0.1175
 9352SOL    HW128955   1.147   2.803   1.751  2.5204  3.4074 -0.5954
 9352SOL    HW228956   1.289   2.726   1.775  1.0400  0.4861 -0.8132
 9353SOL     OW28957   0.670   3.697   6.594  0.0442  0.4002  0.5281
 9353SOL    HW128958   0.714   3.714   6.505  0.7895 -0.3676  0.7366
 9353SOL    HW228959   0.627   3.607   6.594 -0.1947  0.5131  0.8511
 9354SOL     OW28960   4.087   0.952   6.033  0.2802 -0.2892 -0.2176
 9354SOL    HW128961   4.063   0.866   5.989 -1.2924 -0.2215  0.4473
 9354SOL    HW228962   4.149   0.934   6.110  0.6347 -0.7193 -0.5941
 9355SOL     OW28963   5.143   4.790   5.504  0.0897 -0.4367  0.7737
 9355SOL    HW128964   5.141   4.795   5.604  2.5053 -1.7535  0.9613
 9355SOL    HW228965   5.177   4.876   5.467  1.3431 -0.6923  1.2703
 9356SOL     OW28966   2.598   1.865   1.668 -0.2589  0.0527  0.4500
 9356SOL    HW128967   2.550   1.929   1.728 -2.2731 -1.8838  1.0415
 9356SOL    HW228968   2.564   1.772   1.685  1.3572 -0.9719 -1.5331
 9357SOL     OW28969   4.141   6.715   5.125  0.4828  0.1641 -0.0670
 9357SOL    HW128970   4.172   6.669   5.041 -1.7069 -0.7731 -0.4442
 9357SOL    HW228971   4.138   6.649   5.200  0.8526  0.5952  0.3259
 9358SOL     OW28972   2.758   1.828   2.413  0.1759  0.3409  0.0051
 9358SOL    HW128973   2.814   1.862   2.489  0.0313  1.0799 -0.2037
 9358SOL    HW228974   2.796   1.860   2.327 -0.8148  1.2560 -0.1179
 9359SOL     OW28975   0.986   6.547   3.032  0.2773  0.8048  0.1057
 9359SOL    HW128976   0.984   6.542   3.132 -0.1738  0.0979  0.0736
 9359SOL    HW228977   1.012   6.639   3.003  0.3934  1.0183  0.8741
 9360SOL     OW28978   6.118   5.799   2.561  0.0390  0.5640  0.5266
 9360SOL    HW128979   6.085   5.734   2.629  2.9544 -1.8285 -0.1309
 9360SOL    HW228980   6.059   5.795   2.480 -1.0248  0.3214  1.2996
 9361SOL     OW28981   4.393   1.844   3.455 -0.0105  0.4899 -0.4643
 9361SOL    HW128982   4.484   1.816   3.487  1.1948  0.1713 -3.8174
 9361SOL    HW228983   4.387   1.944   3.456 -0.3915  0.5000  1.4788
 9362SOL     OW28984   6.469   6.761   4.105 -0.4234 -0.3993 -0.0456
 9362SOL    HW128985   6.544   6.804   4.054  1.8987 -0.5908  2.8770
 9362SOL    HW228986   6.437   6.824   4.176 -2.6240 -0.5989 -0.8118
 9363SOL     OW28987   4.694   1.194   5.533 -0.3128  0.2072  0.0196
 9363SOL    HW128988   4.687   1.284   5.577 -1.6665 -0.2292  0.7453
 9363SOL    HW228989   4.769   1.196   5.466 -0.1311  1.7765  0.2196
 9364SOL     OW28990   0.069   1.147   1.476 -0.3844  0.3481 -0.3218
 9364SOL    HW128991   0.159   1.190   1.469  0.0056 -0.3757  0.1231
 9364SOL    HW228992   0.080   1.050   1.497 -1.2532  0.0643 -1.1377
 9365SOL     OW28993   1.575   4.885   6.027 -0.0510  0.2371 -0.1830
 9365SOL    HW128994   1.610   4.975   6.052 -0.7009  0.5014 -0.1933
 9365SOL    HW228995   1.514   4.852   6.099 -0.7282  0.3274 -0.7003
 9366SOL     OW28996   5.435   0.970   6.533  0.9453  0.1550  0.3193
 9366SOL    HW128997   5.501   0.944   6.604 -0.1782  0.1550  1.3895
 9366SOL    HW228998   5.375   0.893   6.513  0.3668  0.5756  0.3865
 9367SOL     OW28999   3.677   4.556   1.672 -0.0946 -0.1851  0.7818
 9367SOL    HW129000   3.688   4.457   1.669  1.3608 -0.0178 -0.2058
 9367SOL    HW229001   3.614   4.580   1.746  1.5434 -1.7017  2.8181
 9368SOL     OW29002   2.945   3.861   6.730  0.0040  0.2717  0.4976
 9368SOL    HW129003   2.894   3.925   6.673  1.0349  0.3008 -0.4371
 9368SOL    HW229004   2.886   3.825   6.802 -1.9748 -1.2211 -1.6924
 9369SOL     OW29005   0.474   1.101   6.070 -0.9949 -0.1962 -0.3785
 9369SOL    HW129006   0.538   1.044   6.123  0.4141  0.9253 -0.7969
 9369SOL    HW229007   0.482   1.077   5.973 -1.3988 -0.2151 -0.4078
 9370SOL     OW29008   5.636   0.719   5.532 -0.4992  0.2740  0.2524
 9370SOL    HW129009   5.585   0.634   5.520  1.0967 -0.4985 -1.6787
 9370SOL    HW229010   5.574   0.797   5.521 -1.4716 -0.6328 -1.0063
 9371SOL     OW29011   2.473   6.768   5.036  0.2379 -0.3685  0.2907
 9371SOL    HW129012   2.569   6.792   5.019 -0.2068  0.5924 -1.0417
 9371SOL    HW229013   2.455   6.676   5.000  0.2341  0.1818 -1.2118
 9372SOL     OW29014   4.543   2.956   6.858 -0.0697  0.1478  0.0469
 9372SOL    HW129015   4.634   2.976   6.823  1.0596 -0.7759  2.2346
 9372SOL    HW229016   4.511   3.032   6.914 -0.9560  0.7358 -1.2118
 9373SOL     OW29017   2.842   6.189   6.888  0.4770 -0.4635 -0.5612
 9373SOL    HW129018   2.773   6.135   6.935  0.0530  1.2591  0.9262
 9373SOL    HW229019   2.798   6.267   6.843  1.1161 -1.0525 -2.2946
 9374SOL     OW29020   4.850   2.920   6.810  0.4622  0.9834  0.6971
 9374SOL    HW129021   4.804   2.881   6.890  1.3194  0.3321  0.8971
 9374SOL    HW229022   4.945   2.889   6.809 -0.3105 -1.9579 -2.4262
 9375SOL     OW29023   5.546   0.946   6.111 -0.2320 -0.0192  0.1134
 9375SOL    HW129024   5.551   0.889   6.029 -2.2683 -1.5105  0.9469
 9375SOL    HW229025   5.565   0.891   6.192 -0.0394  1.0274  0.8069
 9376SOL     OW29026   3.324   3.585   3.613  0.1477  0.1120  0.4695
 9376SOL    HW129027   3.336   3.582   3.712  0.9885  1.8525  0.4587
 9376SOL    HW229028   3.246   3.643   3.591  0.0114 -0.2085  0.1042
 9377SOL     OW29029   4.109   0.603   0.139 -0.2200  0.0153  0.3729
 9377SOL    HW129030   4.064   0.674   0.193 -0.4207 -0.8935  1.4373
 9377SOL    HW229031   4.206   0.600   0.163  0.0436  0.7434 -0.5745
 9378SOL     OW29032   2.143   5.931   2.579  0.1036 -0.0923 -0.0518
 9378SOL    HW129033   2.048   5.952   2.603 -0.0895 -0.9161 -0.0891
 9378SOL    HW229034   2.159   5.833   2.588  0.8937  0.0112 -0.2701
 9379SOL     OW29035   0.171   4.723   0.825  0.7542  0.6287 -0.1817
 9379SOL    HW129036   0.213   4.640   0.789 -0.7176  0.3280 -1.2881
 9379SOL    HW229037   0.123   4.702   0.910  1.0096  0.5138 -0.0642
 9380SOL     OW29038   5.664   6.103   1.404  0.0995 -0.0223 -0.1053
 9380SOL    HW129039   5.607   6.120   1.323  0.0346 -0.0909 -0.0745
 9380SOL    HW229040   5.623   6.146   1.484  1.6273  2.5517 -0.5987
 9381SOL     OW29041   4.714   3.181   5.974 -0.2705 -0.0563  0.1536
 9381SOL    HW129042   4.673   3.265   5.939 -0.8478 -0.1782  0.5180
 9381SOL    HW229043   4.642   3.118   6.002  0.1212 -1.0850 -1.0311
 9382SOL     OW29044   5.716   5.585   0.399 -0.1676  0.3004 -0.2777
 9382SOL    HW129045   5.796   5.618   0.449 -1.4613  2.2619  0.6216
 9382SOL    HW229046   5.655   5.661   0.379 -0.3029 -0.5771 -3.9037
 9383SOL     OW29047   4.920   2.533   3.465 -0.2971 -0.3562 -0.2477
 9383SOL    HW129048   4.950   2.626   3.440 -0.1842 -0.3811 -0.2073
 9383SOL    HW229049   4.966   2.506   3.550 -1.0718 -0.0664  0.2733
 9384SOL     OW29050   6.706   1.466   6.330 -0.6205 -0.0116 -0.1723
 9384SOL    HW129051   6.706   1.543   6.266 -2.4559  0.5555  0.4325
 9384SOL    HW229052   6.723   1.381   6.280  0.7703  0.6926 -0.9506
 9385SOL     OW29053   0.293   6.611   1.750 -0.2737 -0.6074  0.4778
 9385SOL    HW129054   0.253   6.702   1.734 -2.0900 -1.6100 -1.1655
 9385SOL    HW229055   0.338   6.610   1.839 -1.6392  1.4316  1.2820
 9386SOL     OW29056   0.177   0.135   2.354 -0.0216 -0.0623  0.2124
 9386SOL    HW129057   0.244   0.074   2.396  0.7667  0.4190 -0.3125
 9386SOL    HW229058   0.122   0.178   2.425 -0.0554 -0.7852  0.6269
 9387SOL     OW29059   5.930   3.518   1.587 -0.5344  0.3488 -0.5409
 9387SOL    HW129060   6.006   3.543   1.527  0.3794 -1.0598 -0.0184
 9387SOL    HW229061   5.879   3.600   1.612  0.1115  1.1759 -1.8205
 9388SOL     OW29062   6.596   5.468   6.682 -0.3418 -0.1592  0.4857
 9388SOL    HW129063   6.611   5.558   6.642  0.8842  0.5959  2.4843
 9388SOL    HW229064   6.601   5.398   6.611  0.3043  1.2156 -0.8660
 9389SOL     OW29065   4.123   3.595   0.210 -0.6856 -0.5022 -0.2125
 9389SOL    HW129066   4.163   3.620   0.122 -1.1022 -0.5254 -0.4121
 9389SOL    HW229067   4.171   3.643   0.284 -0.0523 -0.8177 -0.4144
 9390SOL     OW29068   1.640   5.016   1.198  0.4093 -0.3446  0.5285
 9390SOL    HW129069   1.640   5.046   1.102 -1.3371 -0.0556  0.5727
 9390SOL    HW229070   1.561   5.056   1.245  1.1678 -0.5916  2.0621
 9391SOL     OW29071   1.280   1.189   4.917 -0.4667  0.2333  0.0916
 9391SOL    HW129072   1.182   1.208   4.927 -0.3035  0.0927  2.6463
 9391SOL    HW229073   1.322   1.263   4.864 -1.2443  2.8571  2.8331
 9392SOL     OW29074   5.124   3.967   2.324 -0.1562 -0.0956 -0.8463
 9392SOL    HW129075   5.163   3.965   2.416  0.6826  0.5095 -1.1820
 9392SOL    HW229076   5.166   3.896   2.268 -0.8976 -0.6756 -0.6802
 9393SOL     OW29077   2.347   2.709   6.100  0.5589 -0.1864  0.0443
 9393SOL    HW129078   2.422   2.775   6.102  0.6587 -0.2942 -0.0525
 9393SOL    HW229079   2.382   2.621   6.067  0.2500 -0.0591 -0.6397
 9394SOL     OW29080   5.140   6.928   1.679  0.0111  0.2230 -0.5679
 9394SOL    HW129081   5.156   6.952   1.775  2.4549  1.4263 -1.1971
 9394SOL    HW229082   5.112   6.833   1.673  0.9309 -0.2133  1.2767
 9395SOL     OW29083   5.664   4.612   4.557 -0.3754 -0.5695 -0.1495
 9395SOL    HW129084   5.702   4.671   4.486  1.1924 -3.3801 -1.8062
 9395SOL    HW229085   5.639   4.667   4.636  2.6070  2.0987 -0.8668
 9396SOL     OW29086   0.959   6.100   6.207 -0.0723  0.0881 -0.0744
 9396SOL    HW129087   1.010   6.185   6.219  0.6148 -0.1816 -0.9746
 9396SOL    HW229088   1.014   6.035   6.154 -0.4364 -1.0597  0.9093
 9397SOL     OW29089   1.772   1.588   6.604 -0.1272 -0.3134  0.0819
 9397SOL    HW129090   1.785   1.494   6.574  1.1281 -0.3732  0.7150
 9397SOL    HW229091   1.752   1.590   6.702 -2.1545 -0.0124 -0.3052
 9398SOL     OW29092   0.481   6.266   4.815 -0.3723  0.0754 -0.2644
 9398SOL    HW129093   0.446   6.359   4.799  0.8759  0.3324 -1.6713
 9398SOL    HW229094   0.489   6.250   4.914 -1.4329  1.1275  0.0154
 9399SOL     OW29095   6.515   6.543   5.869 -0.4387  0.3015  0.1767
 9399SOL    HW129096   6.483   6.633   5.842  0.9985  1.0671  0.9388
 9399SOL    HW229097   6.460   6.509   5.945  0.6660  1.7404  1.6899
 9400SOL     OW29098   0.650   2.432   5.802 -0.3778  0.1642 -0.0413
 9400SOL    HW129099   0.600   2.443   5.716 -0.5647 -1.6338 -0.2060
 9400SOL    HW229100   0.748   2.423   5.782 -0.5899 -2.1044 -0.2925
 9401SOL     OW29101   1.447   5.765   5.328 -0.5671  0.2794  0.2470
 9401SOL    HW129102   1.490   5.689   5.279  1.0541  1.5854 -0.4697
 9401SOL    HW229103   1.390   5.818   5.264 -0.6998  0.3690  0.4391
 9402SOL     OW29104   4.750   2.927   4.691  0.3298  0.3052  0.5333
 9402SOL    HW129105   4.747   3.026   4.705  1.7472  0.2088  1.8136
 9402SOL    HW229106   4.784   2.883   4.774  1.2011 -1.1190 -0.5298
 9403SOL     OW29107   6.304   4.457   4.151  0.2982  0.0877  0.3212
 9403SOL    HW129108   6.328   4.496   4.240  0.5888  0.4015  0.1050
 9403SOL    HW229109   6.263   4.367   4.165  2.6674 -1.0035  0.6485
 9404SOL     OW29110   2.575   5.754   1.584 -0.5682  0.1826 -0.7255
 9404SOL    HW129111   2.519   5.727   1.662 -1.2627  1.8621 -0.5796
 9404SOL    HW229112   2.672   5.753   1.610 -0.8488  1.7543  0.5517
 9405SOL     OW29113   1.397   6.275   1.241  0.1224 -0.2590  0.3185
 9405SOL    HW129114   1.305   6.246   1.267  0.1857  0.6245  1.6524
 9405SOL    HW229115   1.436   6.210   1.176 -1.9881  0.1466 -1.4476
 9406SOL     OW29116   6.271   1.215   0.864 -0.2170  0.0616 -0.1594
 9406SOL    HW129117   6.252   1.236   0.960 -0.6632  0.2909 -0.2955
 9406SOL    HW229118   6.356   1.162   0.858 -1.6910 -2.5814  0.6125
 9407SOL     OW29119   5.315   0.706   5.222  0.0406  0.0497 -0.2339
 9407SOL    HW129120   5.373   0.787   5.211  1.6049 -1.0472 -0.3937
 9407SOL    HW229121   5.221   0.735   5.240  0.5508  1.8928 -0.2957
 9408SOL     OW29122   2.647   3.561   6.998  0.3636 -0.2102 -0.3287
 9408SOL    HW129123   2.644   3.519   7.089 -0.7232 -0.8258 -0.6367
 9408SOL    HW229124   2.736   3.605   6.985  0.6577 -0.4030  0.9005
 9409SOL     OW29125   2.129   3.368   4.784 -0.6067 -0.4935  0.3421
 9409SOL    HW129126   2.130   3.273   4.814 -2.3032 -0.5019  0.5007
 9409SOL    HW229127   2.151   3.428   4.861 -0.3589 -0.7212  0.4484
 9410SOL     OW29128   0.742   6.819   4.501 -0.1407  0.4124  0.1103
 9410SOL    HW129129   0.790   6.796   4.417 -1.2771 -2.1682  0.0491
 9410SOL    HW229130   0.689   6.903   4.488  0.1056  0.3363 -1.5874
 9411SOL     OW29131   0.774   2.636   5.968  1.0601  0.0335 -0.2782
 9411SOL    HW129132   0.726   2.549   5.951  2.5628 -1.0103  0.5677
 9411SOL    HW229133   0.722   2.711   5.927 -0.1526 -1.2802 -1.2660
 9412SOL     OW29134   3.729   1.481   4.459 -0.0550  0.3716  0.7477
 9412SOL    HW129135   3.745   1.565   4.407  0.2662 -0.8805 -1.2948
 9412SOL    HW229136   3.631   1.460   4.459  0.1006 -0.5551 -0.9983
 9413SOL     OW29137   4.725   6.054   2.780  0.0514  0.3591  0.2988
 9413SOL    HW129138   4.640   6.077   2.732 -0.3208 -1.3037  0.1123
 9413SOL    HW229139   4.737   6.116   2.858 -1.6629  0.1978  0.7176
 9414SOL     OW29140   6.747   2.178   5.346  0.0706 -0.4028 -0.1187
 9414SOL    HW129141   6.667   2.235   5.324  0.1942 -0.1782  0.0085
 9414SOL    HW229142   6.800   2.222   5.418  1.2916  0.3642 -1.4291
 9415SOL     OW29143   0.203   2.941   5.451  0.1895 -0.2999 -1.0353
 9415SOL    HW129144   0.291   2.894   5.456  0.0306 -0.7207 -2.0919
 9415SOL    HW229145   0.185   2.969   5.357  0.3931  2.1251 -0.4394
 9416SOL     OW29146   2.455   1.453   0.641 -0.0845 -0.3179  0.2274
 9416SOL    HW129147   2.389   1.449   0.566 -0.0121  1.3567  0.0493
 9416SOL    HW229148   2.426   1.522   0.708  0.6067 -0.7783  1.0263
 9417SOL     OW29149   2.306   5.574   6.559 -0.2197  0.6728 -0.3749
 9417SOL    HW129150   2.285   5.667   6.588  2.1426  1.6964 -1.6521
 9417SOL    HW229151   2.317   5.571   6.460 -1.9853 -1.3990 -0.5951
 9418SOL     OW29152   2.090   5.828   3.237 -0.0729 -0.8041 -0.7240
 9418SOL    HW129153   2.027   5.779   3.177 -0.5752 -0.6157 -0.3648
 9418SOL    HW229154   2.061   5.923   3.246  0.3201 -0.6885 -0.6295
 9419SOL     OW29155   0.010   2.212   2.983  0.5141  0.2857  0.1967
 9419SOL    HW129156  -0.002   2.226   2.885  1.2112  0.8389  0.1871
 9419SOL    HW229157  -0.011   2.116   3.005  1.3895 -0.1181 -0.6614
 9420SOL     OW29158   2.983   3.275   4.411 -0.2848  0.4107 -0.4974
 9420SOL    HW129159   3.057   3.340   4.393 -0.1185  0.6137  0.8335
 9420SOL    HW229160   2.902   3.325   4.440 -0.6697  0.1228 -1.0667
 9421SOL     OW29161   5.778   0.715   3.833 -0.6387  0.0713 -0.1213
 9421SOL    HW129162   5.839   0.645   3.795 -0.1327  1.4822 -2.0742
 9421SOL    HW229163   5.811   0.806   3.807 -1.2101  1.1065  2.4238
 9422SOL     OW29164   3.222   6.366   4.180 -0.1140  0.1742  0.1609
 9422SOL    HW129165   3.318   6.365   4.152 -0.3661  0.1617 -0.7230
 9422SOL    HW229166   3.188   6.272   4.188 -0.0263  0.1751  0.5927
 9423SOL     OW29167   2.800   5.580   6.389  0.5877 -0.1007 -0.4380
 9423SOL    HW129168   2.816   5.639   6.310 -0.7383 -0.3313 -0.9030
 9423SOL    HW229169   2.709   5.539   6.382  0.1788  0.3801  1.5240
 9424SOL     OW29170   3.236   5.782   6.381  0.5776  0.5938  0.0199
 9424SOL    HW129171   3.174   5.844   6.430 -0.6523 -0.5542 -0.0155
 9424SOL    HW229172   3.311   5.756   6.442 -0.2077  0.2363  0.8699
 9425SOL     OW29173   0.034   2.265   1.990  0.3128 -0.1589 -0.3305
 9425SOL    HW129174   0.102   2.303   2.053 -0.1862  0.4844 -0.1684
 9425SOL    HW229175  -0.005   2.182   2.030 -0.1073  0.3230  0.2958
 9426SOL     OW29176   2.942   3.770   3.816  1.0312 -0.5356  0.1277
 9426SOL    HW129177   2.913   3.718   3.896  3.0187 -1.7513  0.1455
 9426SOL    HW229178   2.997   3.848   3.845 -0.8576  0.8976  0.0357
 9427SOL     OW29179   3.833   5.927   7.019 -0.5715  0.3476 -0.0260
 9427SOL    HW129180   3.754   5.867   7.006  0.0801 -0.8091  1.1531
 9427SOL    HW229181   3.916   5.872   7.032  0.3798  1.5332 -0.8020
 9428SOL     OW29182   5.656   4.479   3.732 -0.2344  0.3103 -0.0373
 9428SOL    HW129183   5.616   4.493   3.642 -0.1751  1.7514  0.1392
 9428SOL    HW229184   5.738   4.421   3.724 -1.3091 -1.2001 -0.6223
 9429SOL     OW29185   2.982   5.486   0.250  0.1104 -0.4949  0.4358
 9429SOL    HW129186   2.902   5.459   0.195  0.3208  0.7143 -0.5233
 9429SOL    HW229187   2.951   5.527   0.336 -0.3045 -0.4631  0.2755
 9430SOL     OW29188   4.047   3.182   5.945  0.0801 -0.8767  0.6337
 9430SOL    HW129189   4.040   3.278   5.973 -1.0675 -0.7172 -0.1251
 9430SOL    HW229190   3.960   3.152   5.907  1.4149 -1.1709 -2.4357
 9431SOL     OW29191   4.949   5.302   0.790 -0.1511  0.0486  0.2397
 9431SOL    HW129192   4.852   5.303   0.764 -0.1638 -1.2422  0.1818
 9431SOL    HW229193   4.965   5.371   0.861 -0.7360  1.5108 -0.9900
 9432SOL     OW29194   0.874   4.405   2.827 -0.1008  0.0615 -0.2859
 9432SOL    HW129195   0.878   4.399   2.728  0.2640 -0.0121 -0.2667
 9432SOL    HW229196   0.963   4.433   2.863 -0.5355  1.1888 -0.0556
 9433SOL     OW29197   4.897   4.984   1.333 -0.4526  0.3950 -0.2331
 9433SOL    HW129198   4.803   5.008   1.311 -0.2720  1.3576  0.0171
 9433SOL    HW229199   4.944   5.064   1.370  1.1258  0.5676 -2.4504
 9434SOL     OW29200   3.187   2.116   1.030 -0.0645 -0.1964  0.1910
 9434SOL    HW129201   3.286   2.109   1.014 -0.3199 -0.6869 -1.3823
 9434SOL    HW229202   3.152   2.196   0.982 -0.0773  1.5358  2.8849
 9435SOL     OW29203   5.466   6.978   0.915 -0.2895 -0.2299 -0.8342
 9435SOL    HW129204   5.430   6.923   0.840 -1.1478 -0.6360 -0.1349
 9435SOL    HW229205   5.528   7.047   0.878 -0.5688 -0.5288 -1.9026
 9436SOL     OW29206   2.163   2.768   5.626 -0.4262 -0.1416  0.2556
 9436SOL    HW129207   2.151   2.775   5.725  1.0407  1.0526  0.3773
 9436SOL    HW229208   2.260   2.756   5.605 -0.6379  0.3597 -1.0782
 9437SOL     OW29209   2.974   2.677   0.579 -0.6978 -0.2252 -0.2245
 9437SOL    HW129210   2.945   2.609   0.646  0.0513 -0.1919  0.1454
 9437SOL    HW229211   2.895   2.709   0.527 -0.9244 -2.2427 -1.2258
 9438SOL     OW29212   6.180   5.211   6.065 -0.1786 -0.0949  0.3658
 9438SOL    HW129213   6.185   5.271   5.986  2.4606  0.5457  0.9064
 9438SOL    HW229214   6.096   5.229   6.117 -0.8781  0.9836 -1.0872
 9439SOL     OW29215   0.495   3.669   3.909 -0.3276 -0.4201  0.0504
 9439SOL    HW129216   0.516   3.685   3.813 -0.0388  1.3637  0.3704
 9439SOL    HW229217   0.433   3.741   3.942  1.2282  0.2383  1.7106
 9440SOL     OW29218   1.526   1.691   2.313 -0.1382  0.3503 -0.2599
 9440SOL    HW129219   1.554   1.714   2.219  1.3339  2.0487  0.5322
 9440SOL    HW229220   1.474   1.767   2.352  0.8905  0.4980  0.9064
 9441SOL     OW29221   4.165   6.333   4.964  0.7601 -0.7820 -0.0081
 9441SOL    HW129222   4.144   6.326   5.061  0.2266 -2.1398 -0.1918
 9441SOL    HW229223   4.197   6.426   4.942  0.1439 -0.2459  1.3037
 9442SOL     OW29224   6.038   3.226   3.307 -0.7973  0.0571 -0.1801
 9442SOL    HW129225   6.125   3.186   3.277 -0.1469  1.2776  0.0014
 9442SOL    HW229226   5.971   3.218   3.233  0.0294  0.7363 -1.0362
 9443SOL     OW29227   4.836   5.827   1.892 -0.0028 -0.5676 -0.2791
 9443SOL    HW129228   4.807   5.921   1.908  0.6617 -0.5320  0.8247
 9443SOL    HW229229   4.786   5.789   1.814 -3.5138 -0.7176  1.8418
 9444SOL     OW29230   4.297   1.432   0.311 -0.3650  0.1326  0.2285
 9444SOL    HW129231   4.340   1.489   0.241  1.0666 -0.2472  0.7625
 9444SOL    HW229232   4.288   1.338   0.276 -0.5563  0.1645  0.1939
 9445SOL     OW29233   5.930   2.437   4.437 -0.2105 -0.0405 -0.5649
 9445SOL    HW129234   5.869   2.435   4.515 -1.4215  0.7974 -1.4618
 9445SOL    HW229235   5.915   2.356   4.380  1.2082 -1.0469  0.4276
 9446SOL     OW29236   5.391   1.778   6.509 -0.3459 -0.0594  0.1838
 9446SOL    HW129237   5.458   1.762   6.581  0.1359  0.3334 -0.1647
 9446SOL    HW229238   5.399   1.707   6.439 -0.2764 -0.0009  0.1319
 9447SOL     OW29239   3.189   0.545   1.240 -0.1199  0.1297 -0.3746
 9447SOL    HW129240   3.255   0.479   1.203  1.1255  0.7522  0.6754
 9447SOL    HW229241   3.226   0.637   1.231 -1.6598  0.6795 -1.4204
 9448SOL     OW29242   6.468   3.861   2.117 -0.5102 -0.2874 -0.2098
 9448SOL    HW129243   6.384   3.886   2.068  0.4858 -0.8475 -2.3062
 9448SOL    HW229244   6.546   3.907   2.075  0.5985 -2.1264 -0.2636
 9449SOL     OW29245   1.976   4.992   2.260 -0.1279 -0.2609  0.7858
 9449SOL    HW129246   2.075   5.009   2.262 -0.4231  1.6186  1.2688
 9449SOL    HW229247   1.957   4.912   2.203  1.5697  0.0865 -0.3374
 9450SOL     OW29248   5.208   3.062   4.808 -0.2139 -1.3847 -0.2951
 9450SOL    HW129249   5.140   3.001   4.769 -0.4077 -2.1100  1.1221
 9450SOL    HW229250   5.163   3.131   4.864  0.1324 -1.0936 -0.3672
 9451SOL     OW29251   3.878   3.944   1.928  0.2118  0.1560 -0.6669
 9451SOL    HW129252   3.868   3.995   1.843  0.0555  3.8365  1.3631
 9451SOL    HW229253   3.972   3.909   1.935  0.8265  1.5651 -1.4694
 9452SOL     OW29254   6.341   2.138   1.405 -0.4499 -0.2525  0.3454
 9452SOL    HW129255   6.314   2.229   1.372 -1.3195 -0.2690  0.9999
 9452SOL    HW229256   6.362   2.143   1.503  1.1930 -0.4054  0.0408
 9453SOL     OW29257   5.516   6.204   2.011  0.5681 -0.0076  0.5899
 9453SOL    HW129258   5.566   6.226   1.928 -0.8080  0.5874 -0.1165
 9453SOL    HW229259   5.467   6.285   2.044 -1.3945 -0.9606  0.1908
 9454SOL     OW29260   5.990   6.100   6.368  0.2053 -0.0416 -0.4760
 9454SOL    HW129261   5.922   6.162   6.328 -0.2702  0.0076  0.3839
 9454SOL    HW229262   5.945   6.036   6.430  1.0759  0.8150  1.1089
 9455SOL     OW29263   0.018   1.221   4.314 -0.8893  0.4191 -0.5170
 9455SOL    HW129264   0.089   1.195   4.249 -1.6329  0.3890 -1.3394
 9455SOL    HW229265   0.017   1.156   4.390  0.4709  0.8707 -0.0855
 9456SOL     OW29266   1.591   0.370   0.554  0.1701  0.2389 -0.0270
 9456SOL    HW129267   1.509   0.342   0.503 -1.0985  1.2900  1.3470
 9456SOL    HW229268   1.628   0.454   0.515  0.2649  0.0736 -0.2968
 9457SOL     OW29269   5.723   6.086   1.819 -0.2452 -0.2809 -0.0899
 9457SOL    HW129270   5.751   6.090   1.915 -2.9054  1.4877  0.7335
 9457SOL    HW229271   5.801   6.109   1.761  0.9726  0.5341  1.7465
 9458SOL     OW29272   6.027   6.063   3.270  0.5073  0.7208 -0.2924
 9458SOL    HW129273   5.982   6.151   3.250  0.8395  0.9774  0.0747
 9458SOL    HW229274   6.117   6.061   3.227  0.6603  0.7179  0.0260
 9459SOL     OW29275   5.611   3.948   4.251 -0.5717  0.1079 -0.2300
 9459SOL    HW129276   5.577   4.042   4.249 -1.3934 -0.1859 -0.6861
 9459SOL    HW229277   5.605   3.912   4.344  3.9237  1.9291  1.0631
 9460SOL     OW29278   1.229   3.905   6.475  0.6713  0.0117  0.2104
 9460SOL    HW129279   1.299   3.968   6.442 -0.9034  1.2099 -1.0349
 9460SOL    HW229280   1.244   3.886   6.572  1.8112  1.4585  0.3565
 9461SOL     OW29281   5.329   6.932   1.446  0.0438  0.0487 -0.1399
 9461SOL    HW129282   5.276   6.978   1.375  1.1871  0.8024 -0.5384
 9461SOL    HW229283   5.269   6.872   1.500 -1.1479  0.7202 -0.6896
 9462SOL     OW29284   2.451   2.812   5.612 -0.2929 -0.4255 -0.5445
 9462SOL    HW129285   2.503   2.885   5.657  0.0423 -1.0484  0.0981
 9462SOL    HW229286   2.456   2.823   5.513 -1.1899  1.0823 -0.4610
 9463SOL     OW29287   1.716   0.125   4.511  0.1719 -0.4893  0.4920
 9463SOL    HW129288   1.651   0.200   4.524  0.6154 -0.2538  1.5157
 9463SOL    HW229289   1.686   0.066   4.437  0.9411  1.9212 -1.8872
 9464SOL     OW29290   0.560   0.398   1.764  0.3335 -0.3883 -0.0428
 9464SOL    HW129291   0.560   0.310   1.813 -1.8674 -0.8510 -0.7427
 9464SOL    HW229292   0.472   0.443   1.778  0.9973  1.1520 -0.6868
 9465SOL     OW29293   3.634   2.113   2.711 -0.3280 -0.5235 -0.0194
 9465SOL    HW129294   3.717   2.132   2.659 -0.9963 -1.3338 -1.4138
 9465SOL    HW229295   3.561   2.085   2.650 -1.1493 -1.5227  1.3527
 9466SOL     OW29296   2.410   4.357   2.308  0.2609  0.4534  0.0036
 9466SOL    HW129297   2.488   4.363   2.245  0.1487 -0.1916 -0.2086
 9466SOL    HW229298   2.373   4.448   2.324 -0.6908  0.5210 -2.1189
 9467SOL     OW29299   6.486   1.170   3.188  0.2647  0.1520  0.3650
 9467SOL    HW129300   6.444   1.085   3.218  0.6301 -0.3293 -0.4458
 9467SOL    HW229301   6.579   1.177   3.225 -0.4079  1.1067  1.9689
 9468SOL     OW29302   5.767   0.401   5.557 -0.0431  0.1478  0.8460
 9468SOL    HW129303   5.800   0.464   5.487 -0.4084  1.6381  1.9579
 9468SOL    HW229304   5.824   0.407   5.639  0.9705 -2.2799  0.4147
 9469SOL     OW29305   3.765   4.223   1.439  0.2770  0.7419 -0.2975
 9469SOL    HW129306   3.733   4.272   1.358  0.7127  1.1654 -0.2258
 9469SOL    HW229307   3.739   4.127   1.433  0.0607  0.8278 -0.8040
 9470SOL     OW29308   3.008   7.019   4.899 -0.7941  0.2561  0.3638
 9470SOL    HW129309   2.952   7.005   4.980 -0.2407  0.8662  0.8655
 9470SOL    HW229310   3.005   7.115   4.871 -0.1902  0.2546  0.2651
 9471SOL     OW29311   5.878   3.817   4.241 -0.2235  0.1584 -0.0333
 9471SOL    HW129312   5.781   3.841   4.240 -0.1442  0.4687 -0.6793
 9471SOL    HW229313   5.913   3.813   4.147  0.1588 -0.9240  0.1361
 9472SOL     OW29314   0.546   3.090   0.964  0.6145 -0.2892 -0.8257
 9472SOL    HW129315   0.622   3.103   1.028  0.6927 -0.1380 -0.9495
 9472SOL    HW229316   0.569   3.131   0.876 -0.4893  1.7776 -0.2165
 9473SOL     OW29317   6.817   3.986   1.620 -0.1785  0.7481  0.4831
 9473SOL    HW129318   6.875   3.935   1.684  0.3217  2.0370  1.1030
 9473SOL    HW229319   6.721   3.960   1.634  0.1837 -1.2036 -0.3657
 9474SOL     OW29320   4.932   6.556   4.262 -0.5469  0.1026 -0.4164
 9474SOL    HW129321   5.018   6.597   4.233 -0.3941 -0.0925 -0.2470
 9474SOL    HW229322   4.906   6.484   4.197  0.1598 -0.8192  0.2903
 9475SOL     OW29323   6.244   1.905   0.239 -0.1167 -0.0692 -0.1388
 9475SOL    HW129324   6.285   1.963   0.168  0.8354 -0.6536 -0.0697
 9475SOL    HW229325   6.261   1.945   0.329 -1.1136  0.5407 -0.1985
 9476SOL     OW29326   5.119   0.420   1.961 -0.0810 -0.4953  0.4713
 9476SOL    HW129327   5.149   0.328   1.986  1.1635  0.2234  1.7500
 9476SOL    HW229328   5.053   0.454   2.028 -0.1677 -0.2584  0.2712
 9477SOL     OW29329   6.478   4.703   2.494  0.5654  0.4081  0.1520
 9477SOL    HW129330   6.540   4.625   2.499  0.4309  0.3692  2.6146
 9477SOL    HW229331   6.395   4.683   2.548  0.3660  2.0813  0.5129
 9478SOL     OW29332   3.906   2.862   5.903  0.1062  0.0740 -0.1120
 9478SOL    HW129333   3.822   2.912   5.922 -0.6656 -0.8784 -0.8876
 9478SOL    HW229334   3.923   2.861   5.804  0.4767 -0.5785 -0.0540
 9479SOL     OW29335   5.598   6.342   2.765  0.4475 -0.6989  0.0549
 9479SOL    HW129336   5.672   6.318   2.828  1.8679  1.7811 -0.5252
 9479SOL    HW229337   5.535   6.406   2.810 -0.4918 -1.5620  0.0149
 9480SOL     OW29338   6.335   1.889   2.115 -0.0295 -0.1872 -0.3752
 9480SOL    HW129339   6.248   1.842   2.104  0.9401 -1.6309 -2.6825
 9480SOL    HW229340   6.402   1.827   2.156  0.5771  0.0556 -0.9758
 9481SOL     OW29341   0.170   5.207   3.139  0.0321 -1.0117 -0.0463
 9481SOL    HW129342   0.249   5.260   3.171  0.2992 -0.5931 -1.3611
 9481SOL    HW229343   0.091   5.226   3.198  0.0487  1.0622 -0.6134
 9482SOL     OW29344   5.391   1.821   3.913  0.1963  0.8305 -0.1406
 9482SOL    HW129345   5.454   1.805   3.837  0.1848 -0.9361  0.1876
 9482SOL    HW229346   5.299   1.839   3.878  0.4469  1.3174 -0.5584
 9483SOL     OW29347   3.897   5.646   5.029  0.7307  0.3130 -0.5399
 9483SOL    HW129348   3.872   5.709   5.103  2.9381  0.8712 -0.2036
 9483SOL    HW229349   3.964   5.689   4.969  1.8959 -1.5049 -0.6224
 9484SOL     OW29350   0.601   2.948   3.825 -0.2752  0.1665  0.3653
 9484SOL    HW129351   0.535   2.924   3.754  0.0122  0.3355  0.0378
 9484SOL    HW229352   0.557   3.010   3.891 -1.2047 -1.7027  1.5688
 9485SOL     OW29353   1.466   6.685   3.051 -0.1765  0.5603  0.1764
 9485SOL    HW129354   1.397   6.696   3.123  0.7367  2.6019  0.8199
 9485SOL    HW229355   1.476   6.771   3.001  1.2516  0.0380 -0.4937
 9486SOL     OW29356   5.341   0.404   4.267  0.0844  0.2217  0.4951
 9486SOL    HW129357   5.366   0.448   4.181 -1.7905 -0.8754 -0.6807
 9486SOL    HW229358   5.421   0.358   4.305  0.7163 -0.2636 -1.2962
 9487SOL     OW29359   1.701   3.155   4.780  0.4383 -0.1666 -0.0621
 9487SOL    HW129360   1.655   3.090   4.840  0.4852  0.2515  0.4354
 9487SOL    HW229361   1.767   3.106   4.723  0.0883 -0.6286 -0.0768
 9488SOL     OW29362   0.624   2.540   0.522 -0.6126  0.5286 -0.3379
 9488SOL    HW129363   0.630   2.556   0.423 -0.1396 -0.2375 -0.4413
 9488SOL    HW229364   0.644   2.444   0.541  1.9729  1.2131  0.7592
 9489SOL     OW29365   3.982   5.828   2.970 -0.5058  0.2102  0.7603
 9489SOL    HW129366   3.981   5.873   2.881  0.6897 -2.2812 -0.6199
 9489SOL    HW229367   4.051   5.870   3.028 -0.9742  1.5642  0.3812
 9490SOL     OW29368   2.678   5.436   2.534  0.2728 -1.1615  0.6169
 9490SOL    HW129369   2.635   5.408   2.447  0.4573 -0.7888  0.4058
 9490SOL    HW229370   2.610   5.483   2.590 -0.1549 -2.3677  1.1449
 9491SOL     OW29371   2.097   3.794   6.423 -0.0956 -0.1459  0.5782
 9491SOL    HW129372   2.047   3.788   6.510  0.3008 -1.9992  0.7356
 9491SOL    HW229373   2.092   3.887   6.388  1.8592  1.3637  3.8463
 9492SOL     OW29374   2.210   0.386   4.879  0.5932  0.4990 -0.1333
 9492SOL    HW129375   2.296   0.400   4.928  0.9327  1.5520 -0.9930
 9492SOL    HW229376   2.150   0.326   4.933  1.6808  0.1070  0.6768
 9493SOL     OW29377   3.447   5.247   3.741  0.1054 -0.2768  0.5189
 9493SOL    HW129378   3.347   5.236   3.744  0.1459 -0.4850  1.5955
 9493SOL    HW229379   3.486   5.180   3.679 -0.4058 -0.4010  0.3263
 9494SOL     OW29380   1.369   3.901   4.101  0.3429  0.2496 -0.1765
 9494SOL    HW129381   1.283   3.953   4.099 -1.1984 -2.1056  0.1280
 9494SOL    HW229382   1.409   3.906   4.192 -0.1451  0.3928  0.0372
 9495SOL     OW29383   5.669   1.505   6.543 -0.0152 -0.4002  0.0778
 9495SOL    HW129384   5.698   1.591   6.501 -0.3317 -0.5056 -0.3607
 9495SOL    HW229385   5.674   1.432   6.475 -0.0420 -0.6713  0.3672
 9496SOL     OW29386   5.946   0.203   2.874 -0.5282  0.1706  0.0565
 9496SOL    HW129387   5.948   0.277   2.807 -1.6975  0.4741  0.3274
 9496SOL    HW229388   5.927   0.241   2.965  1.1688 -0.2202  0.5989
 9497SOL     OW29389   6.994   4.867   6.148 -0.1329 -0.7111  0.4414
 9497SOL    HW129390   6.909   4.824   6.175  0.0332 -0.5483  1.2373
 9497SOL    HW229391   7.071   4.809   6.174  0.0626 -0.2159  1.0035
 9498SOL     OW29392   6.640   0.783   6.662 -0.6945 -0.1107  0.5384
 9498SOL    HW129393   6.625   0.685   6.648  1.7052 -0.5975  1.0127
 9498SOL    HW229394   6.585   0.814   6.739  0.4268 -1.7021  2.0571
 9499SOL     OW29395   0.339   2.882   3.663  0.0314 -0.1910 -0.0272
 9499SOL    HW129396   0.341   2.782   3.657  0.0583 -0.1522 -0.6785
 9499SOL    HW229397   0.294   2.909   3.749 -1.8131 -0.7503 -0.7632
 9500SOL     OW29398   1.084   4.199   4.468 -0.6969 -0.2911  0.1414
 9500SOL    HW129399   1.120   4.264   4.535  0.6395  0.0836 -0.8838
 9500SOL    HW229400   1.077   4.108   4.509  4.0541 -1.0503 -0.2109
 9501SOL     OW29401   1.692   2.804   7.000  0.1899  0.5759 -0.2445
 9501SOL    HW129402   1.640   2.871   7.053 -0.5860  1.0794 -1.5829
 9501SOL    HW229403   1.706   2.840   6.907  0.3066 -0.8570 -0.7991
 9502SOL     OW29404   1.531   2.709   5.723  0.3046  0.3575  0.1082
 9502SOL    HW129405   1.571   2.760   5.799 -0.9307  0.9289  0.3942
 9502SOL    HW229406   1.572   2.617   5.720  1.6013  0.9035  0.3859
 9503SOL     OW29407   2.333   6.348   1.132 -0.4685 -0.5238  0.4682
 9503SOL    HW129408   2.250   6.361   1.079  0.1279 -0.9710 -0.5970
 9503SOL    HW229409   2.335   6.415   1.207 -0.7886  0.9149 -0.7483
 9504SOL     OW29410   7.020   6.493   0.209 -0.3982 -0.5211  0.8009
 9504SOL    HW129411   7.032   6.403   0.168 -1.2251  0.1685 -1.0421
 9504SOL    HW229412   6.984   6.482   0.302  1.1999 -2.1080  1.2870
 9505SOL     OW29413   4.870   0.521   2.062 -0.1019  0.1470  0.6751
 9505SOL    HW129414   4.782   0.485   2.033  0.2763 -0.6002  0.4401
 9505SOL    HW229415   4.901   0.590   1.997  0.2180 -0.7175 -0.1020
 9506SOL     OW29416   5.041   3.416   0.220  0.5591 -0.0161 -0.2792
 9506SOL    HW129417   5.068   3.346   0.286 -1.6107  0.2058  0.9704
 9506SOL    HW229418   5.069   3.506   0.254 -0.3764  0.0773  0.3120
 9507SOL     OW29419   6.507   2.329   5.366 -0.5516  0.2437  0.1921
 9507SOL    HW129420   6.520   2.424   5.395 -0.1148 -0.0983  1.1389
 9507SOL    HW229421   6.469   2.276   5.441 -0.7786 -0.3481 -0.3285
 9508SOL     OW29422   3.382   6.484   4.411 -0.1965  0.1374  0.4195
 9508SOL    HW129423   3.283   6.489   4.428 -0.5020 -0.3368 -1.0754
 9508SOL    HW229424   3.402   6.525   4.322  1.2490  2.1279  1.5775
 9509SOL     OW29425   4.239   0.223   0.559 -0.0507 -0.4390  0.1126
 9509SOL    HW129426   4.163   0.252   0.617  0.0539  1.1550 -0.5094
 9509SOL    HW229427   4.324   0.263   0.593  0.0905  0.0602 -0.8289
 9510SOL     OW29428   6.045   4.953   0.201 -0.2155  0.0044  0.0327
 9510SOL    HW129429   6.060   4.917   0.293  0.2818 -0.7263 -0.3287
 9510SOL    HW229430   6.064   4.882   0.133 -1.4882  0.2462 -0.6103
 9511SOL     OW29431   1.152   0.927   6.212 -0.1649  0.0130 -0.1027
 9511SOL    HW129432   1.209   0.989   6.159 -1.0513  1.0234  0.0929
 9511SOL    HW229433   1.121   0.973   6.295  0.2933 -1.1722  0.7622
 9512SOL     OW29434   2.670   1.047   1.158 -1.0527 -0.3320 -0.1563
 9512SOL    HW129435   2.659   1.094   1.070 -0.2848 -2.0654 -1.2499
 9512SOL    HW229436   2.725   1.103   1.219 -1.5438  0.8867 -0.7907
 9513SOL     OW29437   2.449   1.298   2.565  0.3026 -0.2084 -0.1050
 9513SOL    HW129438   2.489   1.296   2.473 -0.2958 -0.0901 -0.3747
 9513SOL    HW229439   2.351   1.281   2.558  0.6158 -2.7533  0.7514
 9514SOL     OW29440   4.085   3.515   5.803  0.1609 -0.3522 -0.2578
 9514SOL    HW129441   4.091   3.552   5.895 -0.5875 -1.0201  0.0721
 9514SOL    HW229442   4.177   3.490   5.771  0.4881  0.3965  0.0778
 9515SOL     OW29443   6.093   4.045   3.818 -0.2117  0.4781  0.2254
 9515SOL    HW129444   6.015   4.043   3.879 -0.6429  0.5041 -0.3167
 9515SOL    HW229445   6.064   4.019   3.726  0.7776 -1.3246  0.3902
 9516SOL     OW29446   2.933   7.005   1.729 -0.7504  0.4366  0.5594
 9516SOL    HW129447   2.896   6.920   1.768 -1.4550  0.1484 -0.6878
 9516SOL    HW229448   2.872   7.081   1.753 -0.3421  0.5366  1.3209
 9517SOL     OW29449   3.391   2.160   4.550 -0.0184 -0.1247 -0.0692
 9517SOL    HW129450   3.332   2.177   4.472  0.2254 -1.3627 -0.5525
 9517SOL    HW229451   3.485   2.187   4.527  0.2709 -1.5094 -0.6506
 9518SOL     OW29452   0.595   2.352   4.308 -0.3361  0.0763 -0.0571
 9518SOL    HW129453   0.658   2.399   4.370 -0.2074  1.1331 -0.9406
 9518SOL    HW229454   0.646   2.288   4.250 -0.0233  1.0038 -0.8405
 9519SOL     OW29455   4.179   3.120   5.722 -0.0229 -0.0850 -0.0622
 9519SOL    HW129456   4.161   3.115   5.821  1.3815 -0.7422  0.1730
 9519SOL    HW229457   4.238   3.199   5.703 -0.0899 -0.1037 -0.3518
 9520SOL     OW29458   4.286   0.882   1.889 -0.2955 -0.3634  0.1809
 9520SOL    HW129459   4.321   0.960   1.941  0.7661 -1.4968  1.2128
 9520SOL    HW229460   4.229   0.825   1.948  0.1764 -1.1800 -0.1298
 9521SOL     OW29461   5.212   1.377   0.681 -0.7974  0.0524  0.3027
 9521SOL    HW129462   5.239   1.355   0.588  1.0561  1.8445  0.3417
 9521SOL    HW229463   5.124   1.335   0.701 -0.0371 -2.5473 -1.3360
 9522SOL     OW29464   0.330   3.713   6.793  0.1738 -0.3843 -0.4131
 9522SOL    HW129465   0.389   3.767   6.732 -0.4681 -0.2054 -0.8917
 9522SOL    HW229466   0.379   3.692   6.878  2.0311 -2.8409 -1.9746
 9523SOL     OW29467   2.836   6.012   0.264 -0.0553 -0.4150  0.5118
 9523SOL    HW129468   2.856   5.945   0.336  1.4594  0.8515  1.3247
 9523SOL    HW229469   2.769   6.079   0.298 -0.2864 -0.5288  0.2885
 9524SOL     OW29470   3.100   1.419   6.056 -0.2542 -0.1621 -0.2555
 9524SOL    HW129471   3.167   1.393   6.126 -0.4139 -0.9423 -0.3888
 9524SOL    HW229472   3.137   1.401   5.965 -0.7697 -0.9307 -0.3225
 9525SOL     OW29473   4.242   0.263   3.070 -0.7783  0.1821  0.1477
 9525SOL    HW129474   4.333   0.241   3.036 -0.8772  1.0449 -0.7099
 9525SOL    HW229475   4.247   0.280   3.169  0.3153  1.8331 -0.1448
 9526SOL     OW29476   2.135   3.096   0.593 -0.4008 -0.7397 -0.4136
 9526SOL    HW129477   2.138   3.042   0.509  0.6423  1.3355 -1.7954
 9526SOL    HW229478   2.076   3.176   0.579  1.5642  0.8661 -0.0254
 9527SOL     OW29479   6.900   1.998   5.201 -0.2132 -0.3634 -0.8542
 9527SOL    HW129480   6.850   2.047   5.272  1.0197  0.1026 -0.2819
 9527SOL    HW229481   6.886   1.900   5.212 -0.9599 -0.2476 -0.6913
 9528SOL     OW29482   2.556   2.077   5.544 -0.2735 -0.0954 -0.1828
 9528SOL    HW129483   2.563   2.123   5.633 -1.2776 -1.5958  0.7090
 9528SOL    HW229484   2.606   1.990   5.547 -0.0035  0.0076 -1.2221
 9529SOL     OW29485   2.172   2.851   6.255 -0.0229  0.1520  0.6711
 9529SOL    HW129486   2.240   2.909   6.299 -0.6909  0.4838  1.2719
 9529SOL    HW229487   2.219   2.781   6.200  0.8055  0.2230  1.2691
 9530SOL     OW29488   6.781   3.296   6.117 -0.7260 -0.3641 -0.4350
 9530SOL    HW129489   6.691   3.321   6.153 -1.2590 -2.7178  0.0470
 9530SOL    HW229490   6.771   3.263   6.023 -0.3949 -0.6678 -0.3679
 9531SOL     OW29491   1.701   5.937   6.422  0.7316  0.2256  0.6337
 9531SOL    HW129492   1.764   5.889   6.361  0.4924 -0.6223  1.0418
 9531SOL    HW229493   1.607   5.911   6.400  0.3679  2.5828 -0.9370
 9532SOL     OW29494   6.841   0.922   3.634  0.1447  0.3446  0.2464
 9532SOL    HW129495   6.917   0.881   3.584 -0.8741 -1.9582  0.4540
 9532SOL    HW229496   6.779   0.966   3.570  0.0721 -0.5142 -0.2967
 9533SOL     OW29497   3.550   0.397   3.666 -0.5134  0.0813 -0.4135
 9533SOL    HW129498   3.487   0.419   3.591 -1.0001 -0.2583 -0.1089
 9533SOL    HW229499   3.552   0.298   3.679 -1.0101  0.1908  0.5198
 9534SOL     OW29500   2.000   4.757   5.103 -0.0607 -0.1053 -0.1545
 9534SOL    HW129501   2.034   4.702   5.027 -0.2071 -0.2730 -0.0985
 9534SOL    HW229502   1.947   4.834   5.068 -0.0959 -0.1602 -0.2211
 9535SOL     OW29503   3.750   5.664   0.010  0.4787 -0.4035  0.2762
 9535SOL    HW129504   3.813   5.586   0.005  1.7400  0.6896 -2.6573
 9535SOL    HW229505   3.691   5.664  -0.070  0.3772  1.5516  0.3224
 9536SOL     OW29506   3.159   1.229   2.474 -0.2015 -0.4666  0.1419
 9536SOL    HW129507   3.151   1.140   2.428  0.4088 -2.0599  2.8810
 9536SOL    HW229508   3.089   1.236   2.546  1.1600  0.2544  1.4654
 9537SOL     OW29509   6.180   1.320   0.621  0.4538 -0.0614 -0.2626
 9537SOL    HW129510   6.211   1.276   0.705 -1.8151 -0.9148  0.2215
 9537SOL    HW229511   6.257   1.331   0.558  1.4093 -3.8328 -0.0079
 9538SOL     OW29512   1.633   2.023   6.551 -0.5464 -0.1417  0.0493
 9538SOL    HW129513   1.574   2.102   6.570 -0.2667 -0.0600  0.5853
 9538SOL    HW229514   1.661   2.024   6.455 -0.9282  0.1499 -0.0606
 9539SOL     OW29515   3.088   5.595   5.804 -0.1813  0.0273  0.0709
 9539SOL    HW129516   3.098   5.690   5.832  0.4034 -0.3806  1.3656
 9539SOL    HW229517   2.993   5.578   5.778 -0.6043  0.6533  1.1299
 9540SOL     OW29518   3.262   5.435   0.761  0.3246  0.3467  0.4498
 9540SOL    HW129519   3.202   5.454   0.683 -0.6603  1.2430  1.3991
 9540SOL    HW229520   3.356   5.423   0.729  0.1650  2.0255 -0.7388
 9541SOL     OW29521   5.999   4.629   2.062 -0.6660  0.6594 -0.3226
 9541SOL    HW129522   6.030   4.649   1.969  1.1085  0.5549  0.2052
 9541SOL    HW229523   5.970   4.533   2.068 -0.3259  0.5320 -0.6610
 9542SOL     OW29524   0.580   3.564   0.095  0.2100 -0.5698  0.1726
 9542SOL    HW129525   0.534   3.490   0.046  0.0377 -0.6972  0.5307
 9542SOL    HW229526   0.605   3.533   0.187 -1.5016  0.3958  0.9951
 9543SOL     OW29527   1.211   4.674   6.300  0.2047  0.5138  0.2841
 9543SOL    HW129528   1.121   4.718   6.302  0.3667  0.8548  0.0210
 9543SOL    HW229529   1.200   4.577   6.277  0.0362  0.9007 -1.3344
 9544SOL     OW29530   0.792   3.534   1.999 -0.4639  0.3567  0.1775
 9544SOL    HW129531   0.825   3.610   2.055 -0.9263  0.4423  0.3421
 9544SOL    HW229532   0.858   3.459   2.001 -0.5722  0.2746  1.0153
 9545SOL     OW29533   2.591   2.567   5.385  0.6793  0.0604 -0.3884
 9545SOL    HW129534   2.535   2.535   5.309 -1.7263  1.6096  0.6076
 9545SOL    HW229535   2.648   2.492   5.418 -1.0044 -1.7302 -1.3236
 9546SOL     OW29536   3.823   2.592   0.483  0.3281  0.9041 -0.2010
 9546SOL    HW129537   3.867   2.680   0.467 -0.3122  1.1927 -0.3768
 9546SOL    HW229538   3.886   2.532   0.533  1.2831  0.9786 -1.2707
 9547SOL     OW29539   3.093   1.904   3.017  0.0185 -0.3505 -0.4023
 9547SOL    HW129540   3.077   1.919   3.114  0.8394 -2.7811  0.1955
 9547SOL    HW229541   3.082   1.990   2.967  1.9238  1.5276  2.1258
 9548SOL     OW29542   6.615   6.746   6.995 -0.0236 -0.0327 -0.3853
 9548SOL    HW129543   6.700   6.707   7.031 -0.1123 -0.5454 -0.7178
 9548SOL    HW229544   6.537   6.696   7.033 -0.0799 -1.8413 -2.6550
 9549SOL     OW29545   1.071   0.058   6.802 -0.6856 -0.7332  0.9117
 9549SOL    HW129546   1.096   0.134   6.862  0.1445  1.0874 -1.5418
 9549SOL    HW229547   0.971   0.048   6.800 -0.7678 -0.1755  1.7836
 9550SOL     OW29548   4.963   1.973   6.914  0.0235  0.1988  0.1482
 9550SOL    HW129549   5.023   1.927   6.979  0.9069 -0.5510 -1.1450
 9550SOL    HW229550   4.874   1.989   6.956  0.7289  0.2343  1.7013
 9551SOL     OW29551   1.497   2.487   6.624  0.4507  0.2401 -0.0043
 9551SOL    HW129552   1.513   2.585   6.613 -1.2578  0.5464  0.0210
 9551SOL    HW229553   1.547   2.437   6.553  1.1301  1.1336 -0.1712
 9552SOL     OW29554   4.987   4.840   1.640  0.3693  0.2126  0.0874
 9552SOL    HW129555   4.938   4.924   1.661 -1.4242 -0.9615  0.8618
 9552SOL    HW229556   4.984   4.823   1.541 -0.8761  0.1512  0.1169
 9553SOL     OW29557   2.171   4.965   5.970 -0.1382 -0.1341  0.3280
 9553SOL    HW129558   2.145   4.994   5.878 -0.0394  1.5287  0.7940
 9553SOL    HW229559   2.233   4.886   5.964 -0.7012 -0.5039 -0.9793
 9554SOL     OW29560   0.030   1.472   1.726 -0.5808  0.8300 -0.2015
 9554SOL    HW129561   0.031   1.571   1.713  2.9471  1.1072  0.9598
 9554SOL    HW229562   0.028   1.451   1.824 -1.7503 -0.2948 -0.4398
 9555SOL     OW29563   1.794   2.646   6.045  0.1549  0.1379 -0.2809
 9555SOL    HW129564   1.839   2.678   5.962  0.9416 -0.2294 -0.0002
 9555SOL    HW229565   1.698   2.625   6.025  0.2872  0.2557 -1.0473
 9556SOL     OW29566   1.111   6.847   0.237  0.3906  0.4355  0.3809
 9556SOL    HW129567   1.091   6.939   0.271  0.5392  0.4893  0.3223
 9556SOL    HW229568   1.082   6.779   0.305 -3.4238  0.3141 -1.1362
 9557SOL     OW29569   6.211   1.327   6.997  0.2057  0.0962  0.0883
 9557SOL    HW129570   6.123   1.330   6.948  0.8803  1.7512 -1.1310
 9557SOL    HW229571   6.275   1.270   6.947  1.1712  2.4779 -1.6191
 9558SOL     OW29572   4.322   1.260   0.972 -0.1086  1.0311 -0.1978
 9558SOL    HW129573   4.391   1.302   0.914 -0.9708  0.7834 -1.4574
 9558SOL    HW229574   4.305   1.318   1.052  1.5603  1.0625  0.1510
 9559SOL     OW29575   6.235   5.481   1.664  0.1683  0.1230 -0.0651
 9559SOL    HW129576   6.304   5.408   1.668  0.7179  0.6679  0.9661
 9559SOL    HW229577   6.246   5.540   1.743 -0.4516  1.1692 -0.7422
 9560SOL     OW29578   0.972   4.662   3.435 -0.0235 -0.1226  0.0112
 9560SOL    HW129579   1.041   4.643   3.366 -0.9768 -0.9676 -0.7361
 9560SOL    HW229580   0.881   4.649   3.396 -0.6533  1.8573  0.7081
 9561SOL     OW29581   0.758   5.954   4.203  0.0126  0.0896 -1.0405
 9561SOL    HW129582   0.700   5.974   4.124  2.5044  0.0073 -3.0366
 9561SOL    HW229583   0.844   5.914   4.171  1.2968  0.4306  1.7304
 9562SOL     OW29584   4.397   3.224   0.745 -0.4530  0.5437 -0.1491
 9562SOL    HW129585   4.396   3.320   0.772 -0.1803  1.1701 -2.2308
 9562SOL    HW229586   4.480   3.205   0.692 -0.8348 -0.6827 -0.3416
 9563SOL     OW29587   5.206   4.613   3.062 -0.0465  0.1585 -0.6163
 9563SOL    HW129588   5.144   4.575   2.994 -1.0239  0.1910  0.2213
 9563SOL    HW229589   5.284   4.553   3.074 -0.7676 -0.7763 -0.4691
 9564SOL     OW29590   6.896   1.300   5.702 -0.5942  0.2089 -0.4525
 9564SOL    HW129591   6.896   1.271   5.606 -0.5188 -1.0400 -0.1018
 9564SOL    HW229592   6.895   1.219   5.761 -0.5968  0.9551  0.6068
 9565SOL     OW29593   1.733   1.957   2.646 -0.1603  0.6683 -0.1406
 9565SOL    HW129594   1.779   1.988   2.729  1.6290 -2.4974  0.2016
 9565SOL    HW229595   1.654   1.900   2.671  0.0970  0.0958 -0.6169
 9566SOL     OW29596   6.559   3.413   6.904  0.7526  0.0275 -0.6112
 9566SOL    HW129597   6.507   3.329   6.917  0.6107  0.3774  1.5726
 9566SOL    HW229598   6.650   3.402   6.945  0.9275  0.7437 -0.7940
 9567SOL     OW29599   2.028   2.611   5.311 -0.1677  0.6534 -0.5733
 9567SOL    HW129600   1.991   2.683   5.371 -1.1770 -1.1461  1.0688
 9567SOL    HW229601   1.954   2.568   5.261  0.3974  0.5684 -1.3460
 9568SOL     OW29602   6.072   3.754   3.941  0.1969 -0.3814  0.4517
 9568SOL    HW129603   6.043   3.838   3.895  0.3728 -0.2520  0.5760
 9568SOL    HW229604   6.001   3.684   3.931 -0.2615  0.0054  0.9456
 9569SOL     OW29605   5.872   2.020   3.905 -0.1898  0.0849  0.5165
 9569SOL    HW129606   5.892   1.976   3.818  0.8685  0.1302  0.7168
 9569SOL    HW229607   5.849   1.950   3.973 -1.9229  0.1132 -0.0036
 9570SOL     OW29608   2.141   3.954   1.897 -0.2094 -0.1771  0.5310
 9570SOL    HW129609   2.103   3.932   1.986  0.7816  0.0384  1.0139
 9570SOL    HW229610   2.177   4.047   1.898  0.6878 -0.5077  0.2129
 9571SOL     OW29611   5.203   5.776   1.244 -0.2000  0.1571  0.2037
 9571SOL    HW129612   5.132   5.725   1.292 -0.7255  1.4491  0.8608
 9571SOL    HW229613   5.293   5.739   1.267 -0.6388 -2.9054 -2.2983
 9572SOL     OW29614   6.325   5.297   0.128  0.2299 -0.2399 -0.4173
 9572SOL    HW129615   6.244   5.261   0.081 -0.4804  1.0271 -0.2168
 9572SOL    HW229616   6.332   5.256   0.219 -1.6393  1.4047  0.5474
 9573SOL     OW29617   0.567   5.864   4.395  0.0869  0.3996 -0.5058
 9573SOL    HW129618   0.558   5.882   4.493  0.5901  0.1228 -0.4054
 9573SOL    HW229619   0.640   5.920   4.357  2.0363 -1.7195 -0.0886
 9574SOL     OW29620   4.853   3.135   4.401 -0.3933 -0.4851 -0.3411
 9574SOL    HW129621   4.896   3.151   4.490  1.5328 -0.6314 -1.2161
 9574SOL    HW229622   4.912   3.168   4.328 -1.0915 -2.0201 -1.6642
 9575SOL     OW29623   4.707   5.319   5.028  0.0723 -0.0644 -0.1543
 9575SOL    HW129624   4.639   5.382   4.991  2.0330  1.3283 -1.6031
 9575SOL    HW229625   4.665   5.261   5.098 -2.2235  1.6556 -0.0152
 9576SOL     OW29626   3.510   6.232   2.765 -0.0297 -0.0496 -0.1594
 9576SOL    HW129627   3.551   6.151   2.807  0.2320  0.0872 -0.1524
 9576SOL    HW229628   3.410   6.224   2.769 -0.0290 -1.0586 -1.4899
 9577SOL     OW29629   3.674   3.605   6.462 -0.5016  0.1811 -0.2632
 9577SOL    HW129630   3.768   3.586   6.435 -0.3664  0.0801  0.2784
 9577SOL    HW229631   3.612   3.574   6.390 -0.2578 -1.7741  0.3101
 9578SOL     OW29632   0.580   4.941   4.829  0.5200 -0.3921  0.0887
 9578SOL    HW129633   0.484   4.920   4.812  0.6183 -0.2881 -0.6276
 9578SOL    HW229634   0.587   5.013   4.897  0.0398  0.5269 -0.8100
 9579SOL     OW29635   2.518   5.822   4.989 -0.0916  0.6058  0.0286
 9579SOL    HW129636   2.576   5.740   4.985  1.9321  1.9690 -0.1062
 9579SOL    HW229637   2.535   5.880   4.909 -1.1904  1.3734  0.3154
 9580SOL     OW29638   6.296   0.111   3.282  0.3421 -0.5775  0.1465
 9580SOL    HW129639   6.294   0.132   3.380  0.4157  1.9256 -0.3051
 9580SOL    HW229640   6.242   0.029   3.264 -1.9045  0.3798  1.9861
 9581SOL     OW29641   3.169   3.690   0.532 -0.5033 -0.2892  0.1502
 9581SOL    HW129642   3.075   3.722   0.523 -0.1761  0.5201 -0.4204
 9581SOL    HW229643   3.230   3.767   0.551  0.1595 -0.6877 -0.2828
 9582SOL     OW29644   5.718   5.543   1.799 -0.5667 -0.0641 -0.3743
 9582SOL    HW129645   5.706   5.637   1.832 -3.6164 -0.3640 -0.3424
 9582SOL    HW229646   5.700   5.539   1.701  4.9493  0.1939 -1.6703
 9583SOL     OW29647   4.221   1.238   4.395  0.7431  0.4503  0.5873
 9583SOL    HW129648   4.191   1.182   4.473 -1.8973  0.2447 -0.4653
 9583SOL    HW229649   4.318   1.223   4.379  0.7388 -1.6939  2.0657
 9584SOL     OW29650   1.473   3.391   2.866  0.5295  0.1649  0.0568
 9584SOL    HW129651   1.570   3.408   2.846  0.4038  1.4575  0.4707
 9584SOL    HW229652   1.466   3.318   2.934  1.2243  0.0913  0.0588
 9585SOL     OW29653   6.865   5.152   5.712  0.4104  0.4994  0.3588
 9585SOL    HW129654   6.810   5.077   5.750 -0.0379  0.5500 -0.1760
 9585SOL    HW229655   6.936   5.113   5.652 -0.7651  0.5494 -1.1242
 9586SOL     OW29656   1.669   0.746   6.047  0.3556  0.5362 -0.3217
 9586SOL    HW129657   1.684   0.667   6.106 -2.2063 -0.1852 -0.5314
 9586SOL    HW229658   1.664   0.717   5.952 -0.0878  1.0052 -0.4478
 9587SOL     OW29659   0.961   4.781   5.841  0.5569 -0.0997 -0.5208
 9587SOL    HW129660   1.019   4.863   5.847  1.6038 -0.6952 -1.9782
 9587SOL    HW229661   0.940   4.749   5.934  0.6222  1.4539  0.0723
 9588SOL     OW29662   2.482   5.702   6.325 -0.7542 -0.3346 -0.7990
 9588SOL    HW129663   2.538   5.765   6.378 -1.3926 -0.6719  0.3103
 9588SOL    HW229664   2.541   5.640   6.273 -0.0901 -0.5893  0.2317
 9589SOL     OW29665   4.458   1.708   6.352  0.2556  0.1902  0.7117
 9589SOL    HW129666   4.552   1.740   6.360 -0.2219  2.5007 -1.6978
 9589SOL    HW229667   4.399   1.760   6.414  0.2561  0.1551  0.7420
 9590SOL     OW29668   1.840   0.347   4.907  0.0340 -0.2537  0.2970
 9590SOL    HW129669   1.878   0.436   4.930 -0.4190  0.1079 -0.3215
 9590SOL    HW229670   1.740   0.351   4.912  0.0272 -0.8912  0.8334
 9591SOL     OW29671   3.298   3.795   6.879  0.7280 -0.5034  0.0688
 9591SOL    HW129672   3.359   3.773   6.955  0.0031 -0.5127  0.6505
 9591SOL    HW229673   3.208   3.821   6.914  1.1168  2.0483 -0.6177
 9592SOL     OW29674   5.499   4.190   1.647  0.0211  0.1396  0.3743
 9592SOL    HW129675   5.513   4.116   1.714 -1.6807 -2.9071 -2.3677
 9592SOL    HW229676   5.402   4.209   1.639  0.2759  1.1444 -0.5420
 9593SOL     OW29677   0.587   3.080   4.784  0.1737  0.5789  0.3197
 9593SOL    HW129678   0.563   3.074   4.687  1.1378  0.4903  0.0830
 9593SOL    HW229679   0.513   3.041   4.839  0.2464 -0.7071 -0.4530
 9594SOL     OW29680   4.834   5.199   3.851 -0.0751 -0.3370  0.0274
 9594SOL    HW129681   4.876   5.152   3.928  0.4067  0.4477  0.2432
 9594SOL    HW229682   4.885   5.282   3.829  0.8425 -1.4079 -2.2322
 9595SOL     OW29683   4.649   0.309   2.410  0.0834 -0.3029  0.4217
 9595SOL    HW129684   4.665   0.227   2.466 -2.4810  0.5462  2.6286
 9595SOL    HW229685   4.606   0.282   2.324 -0.7119 -1.3294  1.0987
 9596SOL     OW29686   2.829   0.172   2.104 -0.0807  0.4850 -0.1809
 9596SOL    HW129687   2.755   0.112   2.075 -1.1232  2.4984 -1.9247
 9596SOL    HW229688   2.895   0.119   2.158 -2.4721 -1.4805  1.0423
 9597SOL     OW29689   1.611   5.373   1.411  0.7479 -0.1677 -0.1188
 9597SOL    HW129690   1.589   5.285   1.453 -0.4897  0.0825 -0.1819
 9597SOL    HW229691   1.656   5.432   1.479 -0.4501 -0.0732  0.6234
 9598SOL     OW29692   5.927   6.689   0.241 -0.2561  0.4759  0.1389
 9598SOL    HW129693   5.839   6.733   0.258 -1.0719 -0.4509 -1.4693
 9598SOL    HW229694   5.914   6.590   0.235  1.1090  0.2125  1.0154
 9599SOL     OW29695   1.704   6.952   1.055 -0.6497 -0.0137  0.1143
 9599SOL    HW129696   1.798   6.949   1.020 -0.5784 -0.5627  0.3280
 9599SOL    HW229697   1.640   6.947   0.978 -0.5193  1.4433 -0.1070
 9600SOL     OW29698   0.453   3.909   4.903  0.1219  0.7842  0.4529
 9600SOL    HW129699   0.367   3.915   4.954  0.2031  2.6736  0.4294
 9600SOL    HW229700   0.452   3.975   4.828  1.4778  0.6058  0.2608
 9601SOL     OW29701   2.110   6.337   0.954  0.2319  0.2398 -0.2986
 9601SOL    HW129702   2.126   6.238   0.947 -2.1247 -0.2786  0.8196
 9601SOL    HW229703   2.146   6.382   0.872 -0.4188 -1.7871 -1.7868
 9602SOL     OW29704   6.165   4.577   6.449 -0.1598  0.4003  0.4549
 9602SOL    HW129705   6.165   4.657   6.510  1.0755  1.0057 -0.2859
 9602SOL    HW229706   6.103   4.594   6.373  1.2078  1.3684 -0.5144
 9603SOL     OW29707   2.521   1.501   2.730  0.0776 -0.0048  0.1149
 9603SOL    HW129708   2.503   1.432   2.660 -1.9933  0.3776  0.2305
 9603SOL    HW229709   2.589   1.465   2.795 -0.1453 -1.4920 -0.4423
 9604SOL     OW29710   6.747   5.375   1.397 -0.1511  0.4280 -0.1076
 9604SOL    HW129711   6.836   5.333   1.409 -0.2438  0.5499  1.0768
 9604SOL    HW229712   6.753   5.448   1.329  0.6478  0.4335 -0.0336
 9605SOL     OW29713   0.405   1.988   5.945 -0.4745  0.2637  0.4469
 9605SOL    HW129714   0.466   2.045   5.890  1.3602 -1.6504  0.3679
 9605SOL    HW229715   0.449   1.968   6.033 -1.0675 -1.0363  0.4614
 9606SOL     OW29716   6.020   5.883   6.707 -0.0851 -0.7224  0.3372
 9606SOL    HW129717   6.108   5.846   6.735 -0.2737 -0.7753  0.8799
 9606SOL    HW229718   5.947   5.838   6.759 -0.3581 -0.0240  0.5713
 9607SOL     OW29719   3.837   5.621   2.106  0.2087  0.1999  0.2753
 9607SOL    HW129720   3.898   5.543   2.121 -1.7344 -1.1754  1.4808
 9607SOL    HW229721   3.743   5.588   2.095 -0.5476  2.3400 -0.1400
 9608SOL     OW29722   6.913   0.882   2.555 -0.2752  0.4372  0.7487
 9608SOL    HW129723   6.892   0.929   2.470 -0.1926 -0.7336  0.0659
 9608SOL    HW229724   6.839   0.818   2.578  0.4696 -0.4821  0.6551
 9609SOL     OW29725   5.484   0.525   0.571  0.3745  0.2184 -0.6116
 9609SOL    HW129726   5.572   0.530   0.523  0.6302 -0.4193 -0.2177
 9609SOL    HW229727   5.476   0.601   0.634  0.4950  0.4716 -0.9001
 9610SOL     OW29728   4.850   1.085   6.987 -0.1778 -0.2868  0.1600
 9610SOL    HW129729   4.755   1.059   6.972 -1.4471  2.9238  1.7084
 9610SOL    HW229730   4.894   1.019   7.049 -1.5812 -1.4470 -0.0417
 9611SOL     OW29731   1.320   2.108   2.374 -0.1599  0.1136  0.3943
 9611SOL    HW129732   1.361   2.150   2.455 -1.6498  0.7841  0.8397
 9611SOL    HW229733   1.281   2.019   2.399 -2.1229  1.0633  0.8633
 9612SOL     OW29734   3.711   2.866   2.648 -0.1877 -0.3389  0.1846
 9612SOL    HW129735   3.692   2.768   2.649  0.8498 -0.5713  2.0431
 9612SOL    HW229736   3.766   2.888   2.568  0.3624 -1.4637  0.2254
 9613SOL     OW29737   3.242   1.753   6.347 -0.3104  0.0521  0.5467
 9613SOL    HW129738   3.295   1.783   6.267 -0.5159 -1.1493 -0.0671
 9613SOL    HW229739   3.149   1.789   6.341 -0.0099  0.9230  0.8597
 9614SOL     OW29740   0.852   1.221   2.082  0.1231 -0.6294  0.3309
 9614SOL    HW129741   0.839   1.123   2.068 -1.6968 -0.2168 -1.2439
 9614SOL    HW229742   0.800   1.250   2.162 -1.7591 -0.5019 -0.8840
 9615SOL     OW29743   1.238   3.307   3.807 -0.1785  0.0049  0.0007
 9615SOL    HW129744   1.257   3.209   3.812  1.7191  0.3969  1.3970
 9615SOL    HW229745   1.186   3.335   3.888 -1.0655  0.1029 -0.5903
 9616SOL     OW29746   2.625   5.389   3.433 -0.3773  0.1237  0.1576
 9616SOL    HW129747   2.613   5.480   3.473 -0.8699  1.0788 -2.0286
 9616SOL    HW229748   2.669   5.396   3.344  0.9010 -1.9477  0.5411
 9617SOL     OW29749   5.020   3.985   0.833 -0.6504 -0.5217 -0.0126
 9617SOL    HW129750   5.050   3.923   0.905  0.4883 -1.3949 -1.2020
 9617SOL    HW229751   5.093   4.050   0.812 -0.6268 -0.8617 -1.0090
 9618SOL     OW29752   6.007   2.770   4.650 -0.0989 -0.2471  0.0151
 9618SOL    HW129753   5.941   2.838   4.615 -0.2263 -0.0627  0.6009
 9618SOL    HW229754   6.067   2.741   4.575 -1.2111 -0.8505 -0.6711
 9619SOL     OW29755   1.700   4.727   5.504 -0.5272 -0.4347  0.4257
 9619SOL    HW129756   1.763   4.779   5.447 -0.5123 -0.5995  0.2882
 9619SOL    HW229757   1.747   4.648   5.543 -0.7949 -0.8906 -0.1563
 9620SOL     OW29758   3.117   6.604   4.103 -0.8540  0.5885 -0.6111
 9620SOL    HW129759   3.157   6.514   4.122 -2.4003 -0.5208 -2.2811
 9620SOL    HW229760   3.181   6.675   4.130  0.5848 -0.9997  0.4030
 9621SOL     OW29761   6.596   2.609   6.455  0.2604  0.2558  0.0028
 9621SOL    HW129762   6.628   2.518   6.481  0.5193  1.2373  3.7488
 9621SOL    HW229763   6.640   2.638   6.370  2.6847 -1.8363  0.4455
 9622SOL     OW29764   2.462   0.932   1.831 -0.9352 -0.1755  0.0007
 9622SOL    HW129765   2.399   0.976   1.767 -0.9409 -0.1485  0.0251
 9622SOL    HW229766   2.419   0.850   1.869 -0.8429 -0.3211 -0.2079
 9623SOL     OW29767   3.479   6.410   4.834 -0.0084 -0.5833 -0.2689
 9623SOL    HW129768   3.550   6.387   4.767  0.9754  3.3797 -0.8474
 9623SOL    HW229769   3.501   6.498   4.876 -1.7113 -1.8784  3.8324
 9624SOL     OW29770   0.321   6.845   4.335 -0.6071  0.3742  0.8131
 9624SOL    HW129771   0.331   6.820   4.432  0.9558 -0.9304  0.3605
 9624SOL    HW229772   0.334   6.944   4.325  2.2798  0.1835  1.6490
 9625SOL     OW29773   5.904   0.836   1.382 -0.0429  0.1318  0.0907
 9625SOL    HW129774   5.982   0.881   1.425 -0.9457  1.5512  0.3110
 9625SOL    HW229775   5.896   0.867   1.287  0.4781 -1.1032 -0.3798
 9626SOL     OW29776   0.032   1.318   2.737  0.0985 -0.0152 -0.0589
 9626SOL    HW129777   0.087   1.345   2.657  1.5044  0.1429  0.9230
 9626SOL    HW229778  -0.001   1.224   2.725  1.2155 -0.3841 -0.3579
 9627SOL     OW29779   6.848   1.125   0.195  0.3144  0.2630 -0.2466
 9627SOL    HW129780   6.937   1.097   0.159 -0.0877 -0.7920 -0.4346
 9627SOL    HW229781   6.786   1.144   0.119  0.5056  1.4736 -0.1225
 9628SOL     OW29782   5.070   4.487   2.154 -0.4161 -0.3942  0.3672
 9628SOL    HW129783   5.027   4.508   2.242  0.0179 -0.8881  0.7025
 9628SOL    HW229784   5.165   4.520   2.155 -0.9158  1.1807 -0.5624
 9629SOL     OW29785   5.242   1.322   0.257 -0.0880 -0.8866  0.2155
 9629SOL    HW129786   5.246   1.334   0.158  1.7657 -0.1629  0.3330
 9629SOL    HW229787   5.311   1.380   0.300 -1.3883 -0.6022  2.0072
 9630SOL     OW29788   6.947   4.157   4.937  0.7199 -0.3991  0.3879
 9630SOL    HW129789   6.944   4.254   4.910  0.9938 -0.9492 -1.8407
 9630SOL    HW229790   6.908   4.101   4.863  1.7658 -2.0893  1.0566
 9631SOL     OW29791   5.963   3.656   1.998  0.4163 -0.4681  0.1238
 9631SOL    HW129792   6.047   3.622   2.039 -0.5762 -0.0491  2.6487
 9631SOL    HW229793   5.966   3.756   1.992 -0.3746 -0.3520  1.4040
 9632SOL     OW29794   6.736   4.953   4.843  0.0856  0.5076  0.0154
 9632SOL    HW129795   6.645   4.910   4.841  1.2937 -2.2285 -0.8644
 9632SOL    HW229796   6.743   5.012   4.923 -1.4290 -1.6808  1.9014
 9633SOL     OW29797   0.015   4.249   6.031 -0.6823  0.2230  0.4329
 9633SOL    HW129798  -0.025   4.238   6.122 -1.3162  2.0418  0.4089
 9633SOL    HW229799   0.082   4.323   6.031  0.7095 -0.9895 -0.1792
 9634SOL     OW29800   0.816   5.098   0.836  0.1319  0.2224  0.1889
 9634SOL    HW129801   0.782   5.008   0.810  0.3794  0.5330 -1.2998
 9634SOL    HW229802   0.823   5.103   0.936  0.6638 -1.5982  0.2895
 9635SOL     OW29803   2.399   0.698   5.967 -0.1410  0.5113  0.5817
 9635SOL    HW129804   2.489   0.737   5.987  0.4355 -0.5224  0.0961
 9635SOL    HW229805   2.387   0.691   5.868 -0.6616  0.3963  0.6480
 9636SOL     OW29806   5.179   3.452   0.948 -0.1556 -0.2768  0.0854
 9636SOL    HW129807   5.112   3.377   0.954  1.0797 -1.3091  2.2375
 9636SOL    HW229808   5.165   3.502   0.862  0.0281 -3.9834 -2.3333
 9637SOL     OW29809   5.722   3.161   6.196  0.4738  0.1558 -0.2913
 9637SOL    HW129810   5.717   3.260   6.209  1.5748  0.3097 -0.9398
 9637SOL    HW229811   5.639   3.118   6.232 -1.4490  1.6066 -2.7165
 9638SOL     OW29812   4.371   5.147   6.983  0.1123  0.2183  0.7770
 9638SOL    HW129813   4.290   5.117   6.934  0.0291 -0.2834  1.2211
 9638SOL    HW229814   4.388   5.244   6.962  0.3298 -0.0925 -0.5760
 9639SOL     OW29815   1.983   7.011   1.796 -0.0225 -0.6289 -0.3158
 9639SOL    HW129816   2.012   6.937   1.857 -0.0053 -0.7426 -0.4608
 9639SOL    HW229817   2.039   7.010   1.713 -0.3593 -0.7759 -0.5448
 9640SOL     OW29818   5.491   4.898   4.533 -0.2694  0.8555  0.7276
 9640SOL    HW129819   5.501   4.994   4.560  0.3163  1.3805 -1.2417
 9640SOL    HW229820   5.581   4.856   4.526 -0.3980  0.7533 -0.4153
 9641SOL     OW29821   1.767   4.629   6.172  0.0749  0.9703  0.2688
 9641SOL    HW129822   1.812   4.687   6.104 -0.1057  2.8071  1.6379
 9641SOL    HW229823   1.703   4.567   6.126  4.1242 -2.1097 -1.8356
 9642SOL     OW29824   2.263   0.320   4.404 -0.2978 -0.6155 -0.2694
 9642SOL    HW129825   2.247   0.221   4.412 -0.6950 -0.7083 -1.8745
 9642SOL    HW229826   2.217   0.367   4.479  0.9601 -1.7198  1.2521
 9643SOL     OW29827   3.557   2.234   0.693 -0.2882  0.2799  0.0545
 9643SOL    HW129828   3.584   2.329   0.705  0.0005 -0.0314  2.4597
 9643SOL    HW229829   3.463   2.222   0.725  0.3235 -0.5581  1.6787
 9644SOL     OW29830   3.159   0.454   5.600 -0.4609  0.0823 -0.1039
 9644SOL    HW129831   3.250   0.490   5.581 -1.0359  0.6333 -2.0219
 9644SOL    HW229832   3.135   0.384   5.533 -1.5464  0.1437  0.1912
 9645SOL     OW29833   5.895   2.298   3.020 -0.0580 -0.4852 -0.1444
 9645SOL    HW129834   5.894   2.209   3.066 -0.7385  0.5654  2.0074
 9645SOL    HW229835   5.809   2.312   2.971 -0.5053 -0.4922  0.6213
 9646SOL     OW29836   2.444   2.666   3.195 -0.3105 -0.3821  0.3110
 9646SOL    HW129837   2.369   2.690   3.133 -0.7677 -0.6248  0.7581
 9646SOL    HW229838   2.505   2.601   3.150  0.3843  0.8468 -0.5456
 9647SOL     OW29839   5.744   1.094   6.510 -0.6588  0.0160 -0.8281
 9647SOL    HW129840   5.705   1.152   6.438  1.0692  1.5004 -0.6269
 9647SOL    HW229841   5.826   1.048   6.475 -0.8000 -0.6327 -0.3251
 9648SOL     OW29842   2.994   3.034   1.556  0.2568  0.2167 -0.1389
 9648SOL    HW129843   3.064   3.086   1.506  1.6835 -1.1456  0.3694
 9648SOL    HW229844   3.035   2.951   1.593 -0.9868  0.6412  2.4074
 9649SOL     OW29845   6.137   0.340   3.786 -0.5623  0.0236  0.6366
 9649SOL    HW129846   6.185   0.276   3.727 -0.5543  0.6196 -0.0120
 9649SOL    HW229847   6.165   0.325   3.881 -0.0988 -0.5129  0.4203
 9650SOL     OW29848   1.731   3.004   4.079 -0.4391  0.1326 -0.5980
 9650SOL    HW129849   1.686   3.073   4.023  2.1106  0.4919 -2.3834
 9650SOL    HW229850   1.751   2.923   4.024 -0.9898 -0.9672  0.7662
 9651SOL     OW29851   4.803   0.214   3.180 -0.4006  0.2539  0.1377
 9651SOL    HW129852   4.769   0.137   3.235  1.3888 -0.2417  0.5983
 9651SOL    HW229853   4.860   0.272   3.237 -0.0042  0.7588 -0.7607
 9652SOL     OW29854   6.658   1.859   1.504  0.0663  0.4396  0.0119
 9652SOL    HW129855   6.718   1.937   1.521 -1.5122  2.7437 -3.6562
 9652SOL    HW229856   6.707   1.790   1.450 -0.1961  2.0367 -2.4513
 9653SOL     OW29857   0.947   1.794   1.372 -0.0179  0.1148 -0.1086
 9653SOL    HW129858   1.016   1.738   1.325  1.5438  2.0258 -0.2205
 9653SOL    HW229859   0.900   1.850   1.304  0.8573  1.4256  0.3275
 9654SOL     OW29860   6.203   5.278   5.631 -0.1864  0.1936 -0.3166
 9654SOL    HW129861   6.224   5.283   5.534  3.2381 -0.1307  0.2742
 9654SOL    HW229862   6.146   5.198   5.649 -2.3465  1.2072 -2.1750
 9655SOL     OW29863   2.900   2.870   0.833 -0.4275  0.2054  0.4652
 9655SOL    HW129864   2.829   2.813   0.791 -0.1697 -0.0227  0.3327
 9655SOL    HW229865   2.874   2.893   0.926  1.0196 -3.0583  1.8314
 9656SOL     OW29866   1.062   3.475   5.080  0.0456  0.0915  0.0504
 9656SOL    HW129867   1.047   3.399   5.017 -0.3805 -0.3242  0.6422
 9656SOL    HW229868   1.012   3.458   5.165 -1.1106  1.6303 -0.2660
 9657SOL     OW29869   6.163   4.718   5.437 -0.7140  0.1271 -0.2591
 9657SOL    HW129870   6.143   4.638   5.380 -3.0019  0.9126 -0.6782
 9657SOL    HW229871   6.243   4.765   5.401  0.0071 -1.3444 -0.6673
 9658SOL     OW29872   4.101   0.749   3.311  0.0384  0.1326  0.1319
 9658SOL    HW129873   4.192   0.710   3.326 -0.5708 -1.5551 -0.3723
 9658SOL    HW229874   4.061   0.776   3.399  0.4495 -0.4718  0.5094
 9659SOL     OW29875   4.594   4.989   3.854 -0.1652  0.5847  0.1631
 9659SOL    HW129876   4.682   5.036   3.843 -0.4065  0.7275 -1.3385
 9659SOL    HW229877   4.542   5.034   3.927 -0.4871  2.8937 -1.3700
 9660SOL     OW29878   1.535   2.723   6.294  0.1783 -0.7251  0.0508
 9660SOL    HW129879   1.588   2.640   6.282  1.9229 -0.0047  2.1029
 9660SOL    HW229880   1.526   2.743   6.392 -2.6927 -0.0092 -0.2540
 9661SOL     OW29881   0.216   4.875   3.545 -0.0402  0.0481 -0.7456
 9661SOL    HW129882   0.171   4.867   3.634 -0.5028 -0.2968 -1.0046
 9661SOL    HW229883   0.195   4.965   3.505 -1.1235 -0.3902 -1.1915
 9662SOL     OW29884   0.249   3.372   3.819  0.2745 -0.2071  0.0650
 9662SOL    HW129885   0.158   3.331   3.816  0.3065 -0.7944  3.1484
 9662SOL    HW229886   0.252   3.439   3.893  1.4693  2.2926 -2.1166
 9663SOL     OW29887   6.995   3.842   1.781 -0.2770 -0.4634  0.2777
 9663SOL    HW129888   7.028   3.765   1.725 -1.3170 -2.4857  2.3008
 9663SOL    HW229889   6.924   3.810   1.843  1.0194  1.5702  3.0084
 9664SOL     OW29890   6.301   5.082   3.590 -0.1261  0.1522 -0.1562
 9664SOL    HW129891   6.335   5.123   3.505 -1.4094  1.2358 -0.1717
 9664SOL    HW229892   6.334   4.987   3.596 -0.0282  0.0407 -1.8741
 9665SOL     OW29893   0.190   4.692   6.224 -0.0541 -0.2679  0.6168
 9665SOL    HW129894   0.248   4.620   6.185 -0.0632 -0.8519  1.6333
 9665SOL    HW229895   0.227   4.719   6.313 -0.0491  1.0038  0.2499
 9666SOL     OW29896   4.587   6.845   0.425  0.0416 -0.3152  0.9503
 9666SOL    HW129897   4.664   6.826   0.487  0.0544  0.5611  1.2194
 9666SOL    HW229898   4.599   6.936   0.385 -1.2715  0.1786  1.6333
 9667SOL     OW29899   2.868   3.524   3.655  0.1174  0.0086 -0.8303
 9667SOL    HW129900   2.889   3.616   3.688 -1.1519 -0.1381  0.4933
 9667SOL    HW229901   2.847   3.527   3.558  0.0991  1.1216 -0.8034
 9668SOL     OW29902   0.451   4.518   4.186 -0.1829  0.0994  0.6784
 9668SOL    HW129903   0.413   4.590   4.128 -0.2085  0.4247  1.0948
 9668SOL    HW229904   0.496   4.559   4.266 -0.6007 -0.3568  1.1592
 9669SOL     OW29905   3.864   4.594   6.028  0.1306  0.2160 -0.5634
 9669SOL    HW129906   3.821   4.684   6.022  2.3478  1.2638 -1.6633
 9669SOL    HW229907   3.796   4.523   6.010 -1.4941  1.6858 -0.4229
 9670SOL     OW29908   5.202   5.288   0.614  0.0581 -0.8407 -0.1400
 9670SOL    HW129909   5.126   5.286   0.679  1.9050  0.6025  2.2706
 9670SOL    HW229910   5.235   5.195   0.599 -1.9864 -1.4718 -1.0914
 9671SOL     OW29911   4.851   2.515   5.566 -0.1211  0.1059 -0.3998
 9671SOL    HW129912   4.800   2.431   5.553 -1.1610  0.5778  0.5251
 9671SOL    HW229913   4.881   2.550   5.477 -3.3749  1.0263 -1.2356
 9672SOL     OW29914   0.401   2.831   0.235 -0.2529 -0.3070  0.2094
 9672SOL    HW129915   0.387   2.819   0.137 -0.5708 -0.1638  0.2365
 9672SOL    HW229916   0.333   2.895   0.271 -0.7257 -1.0598  0.6830
 9673SOL     OW29917   5.360   2.456   2.637 -0.1475 -0.1966 -0.3665
 9673SOL    HW129918   5.352   2.508   2.553  0.1252 -0.7116 -0.7154
 9673SOL    HW229919   5.289   2.485   2.701  0.6289  1.3384 -0.1477
 9674SOL     OW29920   1.735   5.731   0.043 -0.4524 -0.3344 -0.2146
 9674SOL    HW129921   1.824   5.689   0.027 -0.1375 -0.6351  2.0218
 9674SOL    HW229922   1.666   5.685  -0.013  0.9698  1.0363 -3.3402
 9675SOL     OW29923   2.497   2.927   6.090 -0.5074  0.1602 -0.3765
 9675SOL    HW129924   2.475   2.950   5.995 -1.7233  1.0704  0.1024
 9675SOL    HW229925   2.480   3.007   6.148 -1.9020 -1.0121  0.9043
 9676SOL     OW29926   0.765   3.043   1.746 -0.2714  0.3121 -0.0264
 9676SOL    HW129927   0.753   3.057   1.844 -0.4408 -0.4327  0.0610
 9676SOL    HW229928   0.686   2.996   1.708 -0.1278  0.4338 -0.4951
 9677SOL     OW29929   5.067   0.315   0.669 -0.2525 -0.3777 -0.7221
 9677SOL    HW129930   4.999   0.243   0.655  1.2290 -1.9152 -0.4131
 9677SOL    HW229931   5.084   0.325   0.767 -0.6414  0.6133 -0.7460
 9678SOL     OW29932   2.420   1.937   0.197  0.3550 -1.2519  0.4856
 9678SOL    HW129933   2.354   1.883   0.249  0.8785 -0.5709  1.8897
 9678SOL    HW229934   2.506   1.944   0.248  0.0102  1.7169  0.8444
 9679SOL     OW29935   2.120   2.616   4.261 -0.7008 -0.9085 -0.0571
 9679SOL    HW129936   2.196   2.581   4.204 -1.7758 -2.4580 -0.5975
 9679SOL    HW229937   2.143   2.604   4.357  0.1026 -0.5467 -0.1892
 9680SOL     OW29938   0.712   5.175   4.431  0.2726 -1.0422 -0.1487
 9680SOL    HW129939   0.626   5.152   4.476 -0.1407 -0.5547 -0.6837
 9680SOL    HW229940   0.758   5.248   4.483 -0.0447 -0.7120 -0.3289
 9681SOL     OW29941   6.149   3.896   2.839 -0.5023  0.3324  0.1156
 9681SOL    HW129942   6.148   3.822   2.905  0.9558  0.9120  0.8270
 9681SOL    HW229943   6.166   3.859   2.747 -1.3463 -0.3512  0.2285
 9682SOL     OW29944   0.311   2.418   3.357 -0.0500 -0.8084  0.1823
 9682SOL    HW129945   0.303   2.510   3.317  1.8317 -1.4145 -1.8130
 9682SOL    HW229946   0.221   2.375   3.359 -0.4514 -0.3325 -2.6391
 9683SOL     OW29947   4.897   4.022   3.558 -0.6047 -0.1054  0.0343
 9683SOL    HW129948   4.798   4.019   3.545 -0.6328  0.6837  0.0339
 9683SOL    HW229949   4.935   4.100   3.508  0.1723 -1.0454 -0.9073
 9684SOL     OW29950   4.325   1.905   3.089 -0.2949  0.3594 -0.0994
 9684SOL    HW129951   4.411   1.867   3.123 -0.1771  1.2538  0.6446
 9684SOL    HW229952   4.344   1.988   3.037 -0.6681  0.2111 -0.4820
 9685SOL     OW29953   6.617   1.383   4.765  0.9550 -0.0227  0.5808
 9685SOL    HW129954   6.548   1.452   4.743  1.9629  0.6639 -0.5024
 9685SOL    HW229955   6.667   1.357   4.683  1.5786 -0.9795  1.2343
 9686SOL     OW29956   0.074   6.749   0.938 -0.0137  0.5143  0.3220
 9686SOL    HW129957  -0.000   6.683   0.931  1.0946 -0.6987 -0.2498
 9686SOL    HW229958   0.056   6.826   0.877 -1.5010  0.9770  1.2769
 9687SOL     OW29959   2.625   0.057   5.316 -0.2450 -0.2432  0.6636
 9687SOL    HW129960   2.666  -0.034   5.324  1.5606  0.4109 -0.4567
 9687SOL    HW229961   2.661   0.116   5.389  0.3419  0.1529  0.0696
 9688SOL     OW29962   5.475   3.021   3.643 -0.7336  0.2207  0.6840
 9688SOL    HW129963   5.550   3.087   3.633  0.2883 -1.1532 -1.5064
 9688SOL    HW229964   5.395   3.066   3.683  0.2508  2.4918  0.2106
 9689SOL     OW29965   1.642   0.698   4.937 -0.0823 -0.2546  0.0534
 9689SOL    HW129966   1.682   0.710   5.028  0.5643  0.2119 -0.2742
 9689SOL    HW229967   1.654   0.783   4.885 -0.3788 -0.5409 -0.4885
 9690SOL     OW29968   5.688   6.452   4.576  0.0874 -0.4415 -0.2433
 9690SOL    HW129969   5.636   6.511   4.638  0.2244 -0.2721 -0.2879
 9690SOL    HW229970   5.635   6.370   4.556  0.3968 -0.8988  0.7712
 9691SOL     OW29971   2.400   5.939   0.644  0.2333 -0.1994  0.3041
 9691SOL    HW129972   2.357   5.968   0.730 -1.2142  2.3924 -1.1618
 9691SOL    HW229973   2.494   5.973   0.641 -0.2164  1.1147  0.2513
 9692SOL     OW29974   4.087   1.542   3.665  0.0095 -0.2694  0.2187
 9692SOL    HW129975   3.991   1.512   3.660 -0.8071  2.3190 -1.4584
 9692SOL    HW229976   4.097   1.630   3.620  3.3541 -0.7285 -0.1837
 9693SOL     OW29977   1.293   0.219   4.281 -0.1996  0.0171  0.2462
 9693SOL    HW129978   1.334   0.129   4.264  0.1704 -0.3597  2.7379
 9693SOL    HW229979   1.207   0.208   4.330 -0.4468  1.0080  0.0539
 9694SOL     OW29980   1.813   0.957   3.125  0.1144 -0.1655 -0.4314
 9694SOL    HW129981   1.811   0.924   3.030 -1.5844  0.5117 -0.6656
 9694SOL    HW229982   1.815   0.879   3.187  0.0987 -0.6438 -1.0221
 9695SOL     OW29983   1.417   4.877   0.219 -0.5298  0.0629  0.7476
 9695SOL    HW129984   1.436   4.965   0.263  1.2293 -1.4231  3.2202
 9695SOL    HW229985   1.333   4.838   0.255 -0.6230  0.1474  0.6213
 9696SOL     OW29986   2.140   3.293   6.772  0.0233 -0.0223 -0.1161
 9696SOL    HW129987   2.049   3.305   6.733  0.4338  0.0274 -1.0706
 9696SOL    HW229988   2.162   3.373   6.829 -0.6720 -0.2089  0.4281
 9697SOL     OW29989   3.976   3.177   2.471  0.2457 -0.6602 -0.3880
 9697SOL    HW129990   3.993   3.230   2.555  0.8034 -1.4222 -0.0091
 9697SOL    HW229991   4.041   3.207   2.400 -0.5760  0.3618 -0.7422
 9698SOL     OW29992   1.993   5.381   6.103 -0.3560  0.1471  0.3280
 9698SOL    HW129993   1.964   5.285   6.096 -0.1972  0.1065  0.2321
 9698SOL    HW229994   1.945   5.435   6.034 -1.1028  0.2934  0.9471
 9699SOL     OW29995   1.934   3.038   5.897 -0.0888 -0.3473  0.0832
 9699SOL    HW129996   1.954   2.973   5.971  0.8783 -0.9123 -0.6526
 9699SOL    HW229997   2.018   3.060   5.848 -0.9269 -1.1531 -1.8118
 9700SOL     OW29998   0.676   3.809   3.079 -0.5471 -0.0474  0.0176
 9700SOL    HW129999   0.752   3.793   3.017 -1.0970  1.5524 -1.1289
 9700SOL    HW230000   0.601   3.854   3.030 -1.5260  0.0717  1.5400
 9701SOL     OW30001   0.651   6.049   3.978  0.4214  0.0271 -0.4158
 9701SOL    HW130002   0.597   6.108   3.918  2.0184  1.7162 -0.2844
 9701SOL    HW230003   0.718   5.998   3.924 -0.6061 -1.3264 -0.4643
 9702SOL     OW30004   4.583   0.809   5.356  0.8622 -0.0741  0.5309
 9702SOL    HW130005   4.539   0.846   5.274 -0.6423 -2.4603  0.1788
 9702SOL    HW230006   4.578   0.877   5.429 -0.8447  0.8245 -0.3573
 9703SOL     OW30007   7.001   1.972   2.007  0.4445  0.2299 -0.3473
 9703SOL    HW130008   7.086   1.957   2.058  0.8231 -2.5933 -1.5918
 9703SOL    HW230009   6.931   1.909   2.040 -1.2468  2.5306  0.6613
 9704SOL     OW30010   2.730   0.331   4.697  0.3993 -0.3999  0.2213
 9704SOL    HW130011   2.745   0.420   4.741 -0.1120 -0.0139 -0.3528
 9704SOL    HW230012   2.632   0.320   4.677  0.7682  0.1257 -2.1679
 9705SOL     OW30013   0.406   0.821   4.112  0.4356 -0.0314 -0.0572
 9705SOL    HW130014   0.496   0.843   4.073  0.2583 -0.4010 -0.6843
 9705SOL    HW230015   0.418   0.779   4.202  0.8269  1.4607  0.6088
 9706SOL     OW30016   2.410   1.343   3.152  0.0074  0.1884 -0.0288
 9706SOL    HW130017   2.493   1.297   3.122  0.0069  0.4298 -0.4123
 9706SOL    HW230018   2.397   1.330   3.250  1.9542  2.4003  0.6088
 9707SOL     OW30019   3.859   5.444   0.513  0.2048  0.1039 -0.0986
 9707SOL    HW130020   3.811   5.469   0.429 -0.1197 -1.1358 -0.2961
 9707SOL    HW230021   3.815   5.365   0.554  0.1988  0.8554  1.4024
 9708SOL     OW30022   3.384   6.033   3.451  0.5352  0.5596 -0.5563
 9708SOL    HW130023   3.402   6.110   3.389 -0.8273  0.0025 -1.7045
 9708SOL    HW230024   3.376   5.949   3.398  0.3138 -0.0945  0.4953
 9709SOL     OW30025   5.686   1.222   0.251  0.3248  0.0752 -0.2520
 9709SOL    HW130026   5.728   1.273   0.326 -1.7239  0.0520  0.9792
 9709SOL    HW230027   5.597   1.188   0.280  0.6300 -2.2408 -1.8325
 9710SOL     OW30028   6.204   0.208   3.555  0.2857 -0.7535 -0.3563
 9710SOL    HW130029   6.126   0.253   3.512  1.2488  1.4265  0.0636
 9710SOL    HW230030   6.185   0.110   3.563 -1.5887 -0.5932 -1.9887
 9711SOL     OW30031   0.642   0.645   3.293  0.2483 -0.3784  0.0062
 9711SOL    HW130032   0.605   0.615   3.206 -0.4042 -0.5833  0.3548
 9711SOL    HW230033   0.604   0.590   3.367 -0.8201  1.1379  0.6371
 9712SOL     OW30034   5.757   5.452   2.153 -0.0360 -0.2507  0.3889
 9712SOL    HW130035   5.671   5.405   2.173  0.6140 -1.6326  0.0618
 9712SOL    HW230036   5.738   5.547   2.128 -1.5890 -0.8634 -0.9187
 9713SOL     OW30037   4.262   5.329   0.255  0.1859 -1.1753  0.0456
 9713SOL    HW130038   4.236   5.374   0.341  0.1914  1.0320 -1.0486
 9713SOL    HW230039   4.181   5.320   0.197  0.7445  0.4432 -1.0406
 9714SOL     OW30040   5.501   1.411   3.594 -0.1322 -0.3883 -0.3766
 9714SOL    HW130041   5.569   1.475   3.629  0.3614 -0.3840 -1.3195
 9714SOL    HW230042   5.503   1.327   3.649  0.1764 -0.1343  0.0054
 9715SOL     OW30043   5.582   1.144   1.275 -0.3211 -0.7185  0.6098
 9715SOL    HW130044   5.505   1.165   1.335 -0.9721 -0.1684 -0.4016
 9715SOL    HW230045   5.597   1.046   1.273 -0.3459 -0.7529  1.5946
 9716SOL     OW30046   1.033   2.667   1.437  1.0277  0.0854  0.4811
 9716SOL    HW130047   1.050   2.588   1.496  0.2164 -2.2148 -2.1557
 9716SOL    HW230048   1.098   2.666   1.360  0.1644  1.2275 -0.3010
 9717SOL     OW30049   0.131   1.337   1.073 -0.4919  0.3992  0.3562
 9717SOL    HW130050   0.151   1.354   0.977 -1.5063 -0.3432  0.0018
 9717SOL    HW230051   0.189   1.263   1.107  0.2788  1.0523  0.4879
 9718SOL     OW30052   6.991   2.724   0.847  0.7193  0.6294  0.3285
 9718SOL    HW130053   7.077   2.723   0.797 -0.5724 -0.0139 -2.0571
 9718SOL    HW230054   6.944   2.811   0.833 -0.8667 -0.4859 -1.9817
 9719SOL     OW30055   6.980   2.107   4.945  0.3183  0.3416 -0.7103
 9719SOL    HW130056   6.956   2.065   5.032 -1.3669  1.5107 -0.5603
 9719SOL    HW230057   6.987   2.036   4.875 -3.9131 -0.2219 -0.7998
 9720SOL     OW30058   0.032   4.995   5.893 -0.5337 -0.2427 -0.2224
 9720SOL    HW130059  -0.054   5.030   5.855 -0.2840  0.5842 -0.0516
 9720SOL    HW230060   0.014   4.955   5.983 -1.0939 -2.0518 -1.1055
 9721SOL     OW30061   0.528   0.021   3.987  0.3142 -0.2011 -0.0358
 9721SOL    HW130062   0.581   0.014   4.072  1.1256  0.8215 -0.4320
 9721SOL    HW230063   0.528  -0.066   3.939 -0.5989 -0.9490  1.2577
 9722SOL     OW30064   4.132   6.416   3.388  0.7568 -0.4478 -0.1375
 9722SOL    HW130065   4.203   6.483   3.412  0.6071 -0.6920  1.0444
 9722SOL    HW230066   4.066   6.459   3.326  0.2005  0.7812  1.2655
 9723SOL     OW30067   5.993   4.675   3.178 -0.5634 -0.7465  0.7076
 9723SOL    HW130068   6.063   4.735   3.218  0.0679 -0.6803 -0.4625
 9723SOL    HW230069   5.924   4.654   3.247  1.6833 -2.5412  2.5528
 9724SOL     OW30070   0.247   0.458   5.255  0.1032 -0.3098 -0.8893
 9724SOL    HW130071   0.240   0.399   5.335 -0.3067  1.5218  0.4904
 9724SOL    HW230072   0.339   0.497   5.249  0.1601 -0.5100 -1.3643
 9725SOL     OW30073   3.454   6.261   5.731  0.0947  0.3043  0.1652
 9725SOL    HW130074   3.410   6.281   5.819 -1.0492  0.2162 -0.3611
 9725SOL    HW230075   3.400   6.302   5.657  0.5756 -0.3346 -0.5565
 9726SOL     OW30076   1.483   4.986   5.299  0.4629 -0.1816  0.0230
 9726SOL    HW130077   1.473   4.996   5.398  0.6821 -1.1990  0.1563
 9726SOL    HW230078   1.399   5.018   5.254 -0.3113 -1.2607  0.6499
 9727SOL     OW30079   4.013   0.455   3.069  0.7137 -0.1455  0.0230
 9727SOL    HW130080   4.026   0.362   3.036 -0.7700  0.0222 -1.1191
 9727SOL    HW230081   4.007   0.454   3.169  0.6612 -1.2787  0.0216
 9728SOL     OW30082   6.588   0.405   2.627  0.1809  0.0534 -0.2107
 9728SOL    HW130083   6.510   0.464   2.644 -0.3807 -0.8829  0.6036
 9728SOL    HW230084   6.563   0.334   2.561 -0.2761 -1.3192  1.3424
 9729SOL     OW30085   5.740   2.663   2.462  0.3261  0.0508  0.8742
 9729SOL    HW130086   5.641   2.658   2.448  0.3019  0.7690  0.7358
 9729SOL    HW230087   5.784   2.583   2.423 -0.0178  0.6742 -0.8765
 9730SOL     OW30088   5.993   2.641   3.533 -0.3148 -0.3979  0.3587
 9730SOL    HW130089   5.897   2.621   3.552 -0.6041  1.0416  0.5059
 9730SOL    HW230090   6.001   2.732   3.492  1.0888  0.0531  1.5255
 9731SOL     OW30091   4.193   5.022   6.620 -0.0636 -0.7707  0.1189
 9731SOL    HW130092   4.171   5.050   6.713 -2.4468 -1.6155 -0.1409
 9731SOL    HW230093   4.109   5.006   6.568  1.1840 -0.4808 -2.1630
 9732SOL     OW30094   4.962   6.305   6.720  0.9956  0.3570  0.2508
 9732SOL    HW130095   4.883   6.272   6.772  1.0061  0.1691  0.1492
 9732SOL    HW230096   5.046   6.265   6.757  0.8224 -1.6202 -1.3186
 9733SOL     OW30097   5.420   0.474   2.307 -0.0112 -0.1569 -0.7084
 9733SOL    HW130098   5.403   0.571   2.291  0.2871 -0.0724 -0.5272
 9733SOL    HW230099   5.499   0.463   2.367 -0.9395 -0.4766  0.5027
 9734SOL     OW30100   6.148   1.598   6.080 -0.1051 -0.3460 -0.0084
 9734SOL    HW130101   6.110   1.591   5.988  0.5676  1.1482 -0.4250
 9734SOL    HW230102   6.217   1.526   6.092 -0.3802 -0.7161 -0.5736
 9735SOL     OW30103   5.048   6.254   3.318  0.1882 -0.1518  0.0259
 9735SOL    HW130104   5.126   6.299   3.363 -0.8515  2.3203 -0.4846
 9735SOL    HW230105   4.964   6.277   3.366 -0.4924 -0.8245 -0.8073
 9736SOL     OW30106   4.371   0.161   2.688  0.3157 -1.0452 -0.0169
 9736SOL    HW130107   4.286   0.122   2.651  0.1059 -0.8466  0.2502
 9736SOL    HW230108   4.360   0.260   2.697  0.5972 -1.0143 -0.0323
 9737SOL     OW30109   6.701   1.073   2.183  0.2536 -0.3415  0.4473
 9737SOL    HW130110   6.602   1.063   2.191  0.3599 -0.2370  2.2758
 9737SOL    HW230111   6.725   1.088   2.087 -1.6996  1.7056  0.1742
 9738SOL     OW30112   6.077   3.929   1.780 -0.3508  0.5844  0.0175
 9738SOL    HW130113   6.006   3.886   1.725  0.4637 -1.3070  0.3667
 9738SOL    HW230114   6.148   3.966   1.720 -0.6990  0.8141 -0.2613
 9739SOL     OW30115   2.979   1.127   5.952  0.1381 -0.4968  0.2703
 9739SOL    HW130116   3.014   1.115   6.045  2.2270 -1.8266 -0.6029
 9739SOL    HW230117   2.919   1.051   5.929  0.4989 -0.7595  0.1819
 9740SOL     OW30118   3.415   4.251   6.162  0.3435  0.3971 -0.4993
 9740SOL    HW130119   3.339   4.310   6.189  0.8389  1.1463 -0.7305
 9740SOL    HW230120   3.492   4.307   6.131  0.6749 -0.3777 -1.1132
 9741SOL     OW30121   1.777   4.975   3.749 -0.0029  0.1578  0.3335
 9741SOL    HW130122   1.756   4.881   3.722  0.9377  0.0435 -0.0611
 9741SOL    HW230123   1.721   5.039   3.697  0.6609 -0.1262 -0.7600
 9742SOL     OW30124   5.481   6.137   1.207  0.5314 -0.0120 -0.7006
 9742SOL    HW130125   5.388   6.106   1.186  1.4189 -1.8352 -2.2448
 9742SOL    HW230126   5.502   6.219   1.154  0.1770 -0.2368 -1.1936
 9743SOL     OW30127   1.343   0.094   0.544  0.4922 -0.3645 -0.2930
 9743SOL    HW130128   1.260   0.042   0.527  2.0445 -3.2215  0.0773
 9743SOL    HW230129   1.331   0.150   0.626 -1.6828  0.9368 -1.4213
 9744SOL     OW30130   6.202   3.830   0.641 -0.7222 -0.1346 -0.3994
 9744SOL    HW130131   6.120   3.878   0.671 -0.3858  0.0531  0.2233
 9744SOL    HW230132   6.259   3.892   0.586  0.2664  0.5679  1.3472
 9745SOL     OW30133   0.085   0.891   3.532  0.1971 -0.4277  0.8065
 9745SOL    HW130134   0.144   0.860   3.606  0.9565  0.8960  0.7931
 9745SOL    HW230135   0.089   0.991   3.525  3.3240 -0.5649 -3.4904
 9746SOL     OW30136   6.559   0.461   0.307 -0.1401 -0.1322  0.0180
 9746SOL    HW130137   6.651   0.470   0.271 -0.9053  1.3832 -1.6885
 9746SOL    HW230138   6.540   0.364   0.325  1.5001 -0.5378 -0.2879
 9747SOL     OW30139   0.558   0.911   1.672 -0.2478  0.4419  0.0296
 9747SOL    HW130140   0.492   0.903   1.597  1.1051 -2.6337 -0.9957
 9747SOL    HW230141   0.510   0.898   1.759 -1.4933  1.7709 -0.4256
 9748SOL     OW30142   6.048   3.083   2.866 -0.0176  0.0048 -0.2605
 9748SOL    HW130143   6.107   3.008   2.896 -1.6993 -0.7214  1.4313
 9748SOL    HW230144   5.973   3.094   2.930 -1.5337  1.1537 -2.1194
 9749SOL     OW30145   0.839   3.361   0.008 -0.0749  0.6097 -0.0392
 9749SOL    HW130146   0.755   3.386   0.057  0.0912  1.6176 -0.2378
 9749SOL    HW230147   0.904   3.437   0.012  0.9383 -0.2561  0.3230
 9750SOL     OW30148   0.187   0.419   4.252 -0.6939  0.3048  0.1813
 9750SOL    HW130149   0.161   0.515   4.246 -1.1499  0.2805  1.4196
 9750SOL    HW230150   0.206   0.384   4.161  1.5985  2.1213 -0.1136
 9751SOL     OW30151   6.801   5.950   3.836  0.8659 -0.0546  0.4757
 9751SOL    HW130152   6.844   5.926   3.924 -0.9185 -0.1989  1.3510
 9751SOL    HW230153   6.795   5.869   3.779  0.3315 -0.3821  0.9872
 9752SOL     OW30154   6.630   4.696   0.495 -0.2097  0.0832 -0.2064
 9752SOL    HW130155   6.662   4.612   0.539 -1.1849 -0.1959 -0.0029
 9752SOL    HW230156   6.705   4.736   0.442  0.7711  0.0379  1.0977
 9753SOL     OW30157   0.267   5.709   6.853 -0.0223 -0.9270 -0.1453
 9753SOL    HW130158   0.171   5.687   6.871  0.6768 -1.9418  2.9600
 9753SOL    HW230159   0.278   5.808   6.847 -0.9517 -0.5833  2.3812
 9754SOL     OW30160   4.826   4.528   3.289  0.8389 -0.1756 -0.3066
 9754SOL    HW130161   4.908   4.564   3.334  1.9871  0.0773 -2.4866
 9754SOL    HW230162   4.745   4.566   3.334  1.9158  0.8100  0.9102
 9755SOL     OW30163   5.657   7.021   0.345 -0.1900  0.0072  0.0852
 9755SOL    HW130164   5.595   7.053   0.416  0.1853 -0.3969  0.6006
 9755SOL    HW230165   5.750   7.011   0.383 -0.0248 -0.3825 -0.4065
 9756SOL     OW30166   1.899   0.151   4.167  0.2673 -0.4933 -0.0444
 9756SOL    HW130167   1.899   0.155   4.067 -1.5702 -1.3617 -0.1126
 9756SOL    HW230168   1.856   0.233   4.204  0.3178 -0.4921  0.0127
 9757SOL     OW30169   5.248   2.216   3.401 -0.3598  0.7530 -0.5682
 9757SOL    HW130170   5.211   2.131   3.363 -2.6896  1.5924 -0.3292
 9757SOL    HW230171   5.264   2.281   3.327  0.5727  0.4445 -0.6540
 9758SOL     OW30172   6.162   5.941   5.036 -0.1012 -0.1634  0.1119
 9758SOL    HW130173   6.251   5.898   5.019  1.1918  2.0839  0.6333
 9758SOL    HW230174   6.172   6.009   5.109 -2.5103 -0.5142  0.8532
 9759SOL     OW30175   1.850   6.300   2.637  0.2213 -0.2828 -0.4075
 9759SOL    HW130176   1.830   6.397   2.620 -0.4565 -0.2734  0.3842
 9759SOL    HW230177   1.872   6.287   2.734 -0.1753 -0.9969 -0.4081
 9760SOL     OW30178   0.994   4.220   6.950  0.4754 -0.2786  0.2519
 9760SOL    HW130179   0.934   4.291   6.987 -0.2962 -1.8977  2.3220
 9760SOL    HW230180   0.955   4.183   6.866 -0.1944  0.2943  0.3081
 9761SOL     OW30181   5.703   6.601   3.792 -0.2847  0.7260  0.2801
 9761SOL    HW130182   5.775   6.581   3.858 -0.1097 -0.5614 -0.2636
 9761SOL    HW230183   5.620   6.628   3.840  0.0121  0.3676  1.0076
 9762SOL     OW30184   3.736   1.081   4.522  0.1936  0.2195 -0.0191
 9762SOL    HW130185   3.769   0.999   4.476  1.2401  0.2073  0.7139
 9762SOL    HW230186   3.636   1.084   4.519  0.1831 -0.5579 -0.9210
 9763SOL     OW30187   5.753   5.692   2.674  0.6523 -0.1993 -0.2835
 9763SOL    HW130188   5.677   5.744   2.711  0.6555 -1.0096  0.8886
 9763SOL    HW230189   5.725   5.647   2.589 -0.3035 -0.7745  0.3173
 9764SOL     OW30190   0.767   5.931   6.124  0.1955 -0.2205  0.3773
 9764SOL    HW130191   0.829   6.005   6.147 -0.5226  0.7813 -0.7806
 9764SOL    HW230192   0.714   5.905   6.205 -0.3494  1.3143  0.5393
 9765SOL     OW30193   5.610   0.819   0.335 -0.1372 -0.0041 -0.6401
 9765SOL    HW130194   5.661   0.863   0.261  1.4762 -0.6255  0.0476
 9765SOL    HW230195   5.657   0.735   0.363 -1.4914 -0.5353  0.1323
 9766SOL     OW30196   4.922   2.532   2.559  0.2942  0.4632  0.0782
 9766SOL    HW130197   4.837   2.489   2.591 -0.1796  0.2585 -1.4046
 9766SOL    HW230198   4.933   2.515   2.461  2.2088  0.2318  0.3038
 9767SOL     OW30199   6.970   0.684   4.843 -0.7590 -0.3875 -0.3255
 9767SOL    HW130200   6.994   0.781   4.854  1.5045 -1.0049  0.9840
 9767SOL    HW230201   7.025   0.629   4.907 -1.5305 -2.6031 -1.4639
 9768SOL     OW30202   1.009   2.017   3.009 -0.0619  0.0066 -0.6601
 9768SOL    HW130203   1.015   2.112   3.042  0.2857  0.6298 -2.4282
 9768SOL    HW230204   1.021   1.955   3.086  0.8927  1.3866  0.3593
 9769SOL     OW30205   0.611   1.521   5.948 -0.1072  0.2340 -0.0086
 9769SOL    HW130206   0.512   1.520   5.966 -0.0715  3.1391  0.9485
 9769SOL    HW230207   0.628   1.565   5.860  0.3463  0.3515  0.1364
 9770SOL     OW30208   2.112   2.378   6.180 -0.1898 -0.6731  0.0315
 9770SOL    HW130209   2.188   2.359   6.242  0.8928 -0.7010 -1.2496
 9770SOL    HW230210   2.147   2.425   6.099 -2.1109  3.0964  1.1569
 9771SOL     OW30211   5.619   3.969   3.447  0.0566 -0.2681 -0.3035
 9771SOL    HW130212   5.554   4.041   3.420  0.1057 -1.0275 -2.6339
 9771SOL    HW230213   5.634   3.907   3.370  1.2340 -1.8878  1.1557
 9772SOL     OW30214   0.281   5.157   1.219 -0.5067  0.0528 -0.1189
 9772SOL    HW130215   0.351   5.179   1.151  0.6695  1.5771  1.4994
 9772SOL    HW230216   0.217   5.234   1.227 -1.4404 -0.6656 -0.4159
 9773SOL     OW30217   0.010   6.082   5.771 -0.3184 -0.1259 -0.1008
 9773SOL    HW130218   0.028   6.130   5.857  1.7823  1.8193 -1.5300
 9773SOL    HW230219   0.081   6.014   5.755 -0.3209 -0.0053 -0.6391
 9774SOL     OW30220   1.391   0.259   0.346  0.1869  0.0291 -0.5112
 9774SOL    HW130221   1.395   0.180   0.408  0.7023 -0.7012 -1.4473
 9774SOL    HW230222   1.298   0.269   0.311  0.2222 -0.4715 -0.7617
 9775SOL     OW30223   3.312   1.652   2.256 -0.4779 -0.5094  0.5234
 9775SOL    HW130224   3.357   1.741   2.268 -0.1742 -0.6627  0.5319
 9775SOL    HW230225   3.298   1.609   2.345 -2.3433  0.3606  0.6890
 9776SOL     OW30226   2.970   6.894   4.634 -0.2299 -0.4661 -0.9463
 9776SOL    HW130227   2.964   6.972   4.572  3.1146 -0.2636 -1.1769
 9776SOL    HW230228   2.973   6.926   4.729 -1.1456 -0.4954 -0.9017
 9777SOL     OW30229   2.432   2.540   0.125 -0.5680 -0.1476  0.2804
 9777SOL    HW130230   2.507   2.604   0.141 -0.6839  0.0043  0.2127
 9777SOL    HW230231   2.469   2.447   0.120 -0.4242 -0.1068  0.5639
 9778SOL     OW30232   4.601   5.261   3.188 -0.4293 -0.2023 -0.3583
 9778SOL    HW130233   4.613   5.342   3.130  0.2072 -1.0778 -1.4844
 9778SOL    HW230234   4.551   5.191   3.137  1.3537 -1.5119 -0.3876
 9779SOL     OW30235   1.120   2.781   6.143 -0.1964  0.0085 -0.3557
 9779SOL    HW130236   1.080   2.690   6.128  1.5113 -1.0616  1.1373
 9779SOL    HW230237   1.212   2.783   6.104  0.6128  0.3301  1.4914
 9780SOL     OW30238   0.267   5.037   4.595 -0.2626  0.4641 -0.3179
 9780SOL    HW130239   0.301   5.089   4.673  0.8193  0.7389 -0.9624
 9780SOL    HW230240   0.252   5.098   4.518  0.4933 -0.0756 -0.9073
 9781SOL     OW30241   3.933   6.994   6.840  0.4018  0.1636 -0.6186
 9781SOL    HW130242   3.951   7.030   6.932 -1.6181 -0.0778 -0.0666
 9781SOL    HW230243   3.944   7.067   6.773  0.3917  0.7509  0.0046
 9782SOL     OW30244   2.991   4.993   6.360 -0.2810  0.0936  0.3999
 9782SOL    HW130245   2.978   5.086   6.395 -0.0986  0.3284 -0.1546
 9782SOL    HW230246   2.901   4.953   6.341 -0.3320  0.9662 -1.4500
 9783SOL     OW30247   1.670   5.820   6.080  0.3466 -0.0480 -0.5808
 9783SOL    HW130248   1.742   5.757   6.109  1.1690  1.5279  1.0549
 9783SOL    HW230249   1.601   5.770   6.028  2.3586 -1.7064 -1.8324
 9784SOL     OW30250   1.214   0.293   1.844 -0.7315 -0.0604  0.3296
 9784SOL    HW130251   1.253   0.271   1.933  1.1671  0.3748 -0.3645
 9784SOL    HW230252   1.229   0.389   1.823  1.5951 -0.7853 -1.7382
 9785SOL     OW30253   4.178   0.119   1.093 -0.1707 -0.4565 -0.4414
 9785SOL    HW130254   4.255   0.064   1.062  0.4976  0.4519 -0.4281
 9785SOL    HW230255   4.093   0.071   1.073  0.4055 -2.8295  2.1067
 9786SOL     OW30256   0.083   6.788   0.292 -0.0619 -0.3015 -0.3462
 9786SOL    HW130257  -0.014   6.796   0.313 -0.2634 -0.3918 -1.2025
 9786SOL    HW230258   0.106   6.692   0.278  0.4302 -0.4170  1.0780
 9787SOL     OW30259   0.557   2.337   1.610  0.2714 -0.2127  0.2605
 9787SOL    HW130260   0.579   2.258   1.553 -0.2300 -0.5014  0.4639
 9787SOL    HW230261   0.524   2.411   1.552  0.8980 -0.0909  0.0506
 9788SOL     OW30262   4.543   3.348   5.578  0.5892 -0.4800 -0.0142
 9788SOL    HW130263   4.580   3.266   5.533  2.1816  1.7456 -3.0989
 9788SOL    HW230264   4.528   3.419   5.510  1.8052  2.7509  2.8292
 9789SOL     OW30265   0.645   4.655   3.476 -0.0151  0.5683  0.1276
 9789SOL    HW130266   0.555   4.627   3.509  0.4788 -0.2842  0.7886
 9789SOL    HW230267   0.654   4.755   3.485 -0.2918  0.4800  1.6196
 9790SOL     OW30268   1.409   0.091   4.746 -0.9772 -0.3882  0.6332
 9790SOL    HW130269   1.403   0.073   4.844 -3.4261  0.5250  0.6988
 9790SOL    HW230270   1.372   0.013   4.695 -0.2470 -0.6164  0.4394
 9791SOL     OW30271   6.975   2.349   4.072 -0.1240 -0.5261 -0.0731
 9791SOL    HW130272   7.075   2.353   4.071 -0.1639  0.8867 -0.2869
 9791SOL    HW230273   6.941   2.378   4.162 -0.3530 -1.3940  0.1385
 9792SOL     OW30274   5.202   5.129   2.317 -0.5477 -0.3378 -0.0454
 9792SOL    HW130275   5.266   5.174   2.255  3.2026 -2.9862  1.4940
 9792SOL    HW230276   5.145   5.065   2.265  0.1566 -0.0694 -1.1804
 9793SOL     OW30277   4.344   5.553   0.977  0.2603 -0.2050  0.6915
 9793SOL    HW130278   4.349   5.642   0.930  1.9932 -0.2240  0.7735
 9793SOL    HW230279   4.254   5.513   0.962  0.1275  0.6287 -1.0821
 9794SOL     OW30280   2.091   2.984   2.501 -0.8376  0.0545  0.0981
 9794SOL    HW130281   2.001   2.974   2.544 -0.8880  0.0368 -0.0119
 9794SOL    HW230282   2.113   2.901   2.449 -1.2669  0.5136 -0.8407
 9795SOL     OW30283   3.478   0.306   5.818  0.0875  0.9841 -0.0796
 9795SOL    HW130284   3.478   0.263   5.908 -0.6938  1.0989 -0.0156
 9795SOL    HW230285   3.413   0.259   5.758  1.4463  0.1677 -0.9588
 9796SOL     OW30286   4.248   1.752   2.891 -0.5342  0.4569 -0.0560
 9796SOL    HW130287   4.282   1.812   2.963 -1.5382  0.3431  0.5395
 9796SOL    HW230288   4.159   1.784   2.860 -0.6312 -0.1546 -0.4334
 9797SOL     OW30289   5.984   2.539   1.683  0.0878 -0.1906  0.0244
 9797SOL    HW130290   5.983   2.602   1.605 -0.2644 -1.4196 -1.0038
 9797SOL    HW230291   6.035   2.457   1.658 -0.7821 -0.9807  0.7657
 9798SOL     OW30292   2.641   4.704   4.229  0.2852 -0.2884 -0.7192
 9798SOL    HW130293   2.671   4.698   4.324  2.0044 -2.8510 -1.3389
 9798SOL    HW230294   2.711   4.750   4.174 -0.2195  0.2188 -0.9540
 9799SOL     OW30295   6.682   0.707   1.436  0.4186 -0.0582 -0.1950
 9799SOL    HW130296   6.714   0.802   1.442 -0.6262  0.3847 -1.2446
 9799SOL    HW230297   6.679   0.668   1.528  2.7624  0.2450  0.0596
 9800SOL     OW30298   4.916   1.949   5.744  0.2115  0.2369  0.0297
 9800SOL    HW130299   4.902   2.034   5.795  0.1817 -0.1134  0.6141
 9800SOL    HW230300   4.905   1.871   5.805 -0.0264 -0.2011 -0.5591
 9801SOL     OW30301   0.211   3.889   0.842  0.5218 -0.6863 -0.8913
 9801SOL    HW130302   0.301   3.848   0.856  0.6045 -0.0503  0.6594
 9801SOL    HW230303   0.209   3.979   0.885 -0.4848 -0.1670 -1.9700
 9802SOL     OW30304   2.826   5.217   3.493  0.0078 -0.4007 -0.0233
 9802SOL    HW130305   2.739   5.262   3.471  0.1834  0.2044  0.4845
 9802SOL    HW230306   2.889   5.227   3.416 -0.6916 -1.6887 -0.7862
 9803SOL     OW30307   2.382   4.164   0.931  0.9900 -0.4574  0.0442
 9803SOL    HW130308   2.331   4.084   0.964  1.0497  0.5387  2.8434
 9803SOL    HW230309   2.331   4.207   0.856 -0.7943 -1.1758  0.7711
 9804SOL     OW30310   1.326   0.500   1.042 -0.2145  0.2898  0.0298
 9804SOL    HW130311   1.242   0.466   1.085 -0.0791 -1.1915 -0.8324
 9804SOL    HW230312   1.396   0.430   1.046  1.0180  1.5010  0.7234
 9805SOL     OW30313   2.934   1.260   0.254  0.4094 -0.2216  0.3238
 9805SOL    HW130314   3.028   1.225   0.254  0.4991 -0.0914 -1.6807
 9805SOL    HW230315   2.881   1.213   0.324  2.0951  0.1106  1.9031
 9806SOL     OW30316   6.954   4.746   4.440  0.1607 -0.0959  0.3550
 9806SOL    HW130317   6.954   4.652   4.406  1.7952  0.6152 -1.8590
 9806SOL    HW230318   6.890   4.800   4.386  2.0496  0.8353 -1.0743
 9807SOL     OW30319   1.288   4.575   6.681 -0.1921  0.3957  0.4809
 9807SOL    HW130320   1.250   4.483   6.685 -1.3036  0.8744  1.6095
 9807SOL    HW230321   1.376   4.572   6.632  0.0321 -1.3351  0.8936
 9808SOL     OW30322   3.356   4.134   1.317  0.3786 -0.1824 -0.1021
 9808SOL    HW130323   3.265   4.174   1.300  0.5779  0.4863  0.3411
 9808SOL    HW230324   3.352   4.035   1.305 -0.6052 -0.2585  0.6837
 9809SOL     OW30325   4.635   5.805   2.910  0.0589  0.1495  0.4913
 9809SOL    HW130326   4.661   5.892   2.868  2.2147 -0.6709  0.0096
 9809SOL    HW230327   4.553   5.770   2.864  1.4094  0.0713 -2.0332
 9810SOL     OW30328   3.422   0.595   6.091  0.0964 -0.5942 -0.5145
 9810SOL    HW130329   3.446   0.686   6.124 -2.6120  0.2260 -0.5866
 9810SOL    HW230330   3.453   0.584   5.997 -1.5170  1.1959 -1.3219
 9811SOL     OW30331   1.878   6.940   5.351 -0.6540  0.0744  0.2886
 9811SOL    HW130332   1.926   6.863   5.394 -0.4579  0.6144  1.0549
 9811SOL    HW230333   1.910   7.026   5.392 -2.3554  0.4516  0.8916
 9812SOL     OW30334   0.553   0.825   4.358  0.2267 -0.1048 -0.2801
 9812SOL    HW130335   0.635   0.869   4.393 -0.3620  0.4909  0.3775
 9812SOL    HW230336   0.568   0.727   4.351  0.8762 -0.0413  0.1475
 9813SOL     OW30337   1.115   1.601   1.579  0.2076  0.2951  0.2441
 9813SOL    HW130338   1.080   1.540   1.508 -0.5334 -1.5435  2.0452
 9813SOL    HW230339   1.131   1.548   1.663  1.9425  2.1722  1.1939
 9814SOL     OW30340   1.141   6.987   5.301  0.6549 -0.2273 -1.1472
 9814SOL    HW130341   1.158   6.903   5.249  1.8377 -2.0025  1.8505
 9814SOL    HW230342   1.228   7.023   5.335 -0.1385  0.1108  0.6230
 9815SOL     OW30343   6.036   5.515   0.458  0.2405  0.0771 -0.6072
 9815SOL    HW130344   6.130   5.527   0.490  0.0110 -0.4139  0.2880
 9815SOL    HW230345   6.006   5.422   0.477 -0.1177 -0.0644 -1.7626
 9816SOL     OW30346   3.017   4.840   5.923 -0.4945  0.1768 -0.4995
 9816SOL    HW130347   3.074   4.915   5.890 -0.8627  0.6462 -0.0838
 9816SOL    HW230348   2.996   4.778   5.847  3.0911 -1.7521 -0.1206
 9817SOL     OW30349   3.004   5.211   4.703 -0.2456  0.4901  0.4866
 9817SOL    HW130350   3.054   5.259   4.774 -0.8010  1.9718 -0.0841
 9817SOL    HW230351   2.971   5.277   4.635 -0.3273 -0.8040 -0.7696
 9818SOL     OW30352   0.323   5.305   1.665 -0.0253 -0.1275 -0.6498
 9818SOL    HW130353   0.358   5.274   1.576 -0.8487  0.1904 -1.0980
 9818SOL    HW230354   0.391   5.287   1.736  0.7012 -0.2609 -1.3672
 9819SOL     OW30355   5.639   0.392   1.945 -0.0160 -0.3736  0.1119
 9819SOL    HW130356   5.724   0.373   1.895  0.5439  0.0549  0.8787
 9819SOL    HW230357   5.566   0.412   1.879  0.6578 -0.0169 -0.5503
 9820SOL     OW30358   5.450   0.435   5.021  0.7814  0.0102  0.2149
 9820SOL    HW130359   5.441   0.527   4.982 -0.0802  0.8184  2.2240
 9820SOL    HW230360   5.530   0.432   5.081  1.2516 -0.8098 -0.4207
 9821SOL     OW30361   3.364   0.084   0.358  0.1586  0.3455  0.0506
 9821SOL    HW130362   3.318   0.012   0.411  1.8596 -1.5748 -0.9401
 9821SOL    HW230363   3.340   0.074   0.262  1.2775  0.3768 -0.2411
 9822SOL     OW30364   5.613   4.711   3.889 -0.3943  0.5036 -0.7811
 9822SOL    HW130365   5.627   4.638   3.822  0.8191 -1.2893  1.2974
 9822SOL    HW230366   5.552   4.679   3.961  1.3197  0.9509  0.9381
 9823SOL     OW30367   6.081   0.388   4.586  0.1353 -0.3733 -0.4062
 9823SOL    HW130368   5.995   0.379   4.636  0.5883  0.6242  0.5963
 9823SOL    HW230369   6.131   0.302   4.590 -0.1995 -0.5429  0.1797
 9824SOL     OW30370   6.886   2.052   6.338  0.0964  0.3387  0.1181
 9824SOL    HW130371   6.928   2.094   6.258 -1.5417 -0.3699 -1.1831
 9824SOL    HW230372   6.920   2.097   6.421  1.5039  1.3968 -0.9787
 9825SOL     OW30373   6.228   1.025   1.900  0.3987 -0.9031 -0.0330
 9825SOL    HW130374   6.309   1.032   1.842  0.7433 -0.9224  0.4381
 9825SOL    HW230375   6.215   1.111   1.950 -1.0749 -0.1182 -1.6411
 9826SOL     OW30376   0.366   4.501   6.185  0.2257 -0.1377 -0.4212
 9826SOL    HW130377   0.307   4.448   6.124 -0.3732 -0.1868  0.1985
 9826SOL    HW230378   0.461   4.494   6.153  0.4635 -3.0695  0.6467
 9827SOL     OW30379   4.495   6.825   1.927 -0.0536  0.0822  0.2304
 9827SOL    HW130380   4.544   6.821   1.840  1.4536  1.2452  0.9895
 9827SOL    HW230381   4.560   6.818   2.002 -1.0034  1.9152  1.2832
 9828SOL     OW30382   0.253   4.151   2.486  0.4388 -0.3008 -0.4504
 9828SOL    HW130383   0.167   4.131   2.438  0.5685  0.6617 -1.1095
 9828SOL    HW230384   0.304   4.221   2.435  1.5152 -0.7057  0.0494
 9829SOL     OW30385   4.896   0.762   3.599  0.2916  0.3000  0.1990
 9829SOL    HW130386   4.830   0.698   3.639 -0.3364  1.9401  1.9433
 9829SOL    HW230387   4.898   0.750   3.500  0.2811 -2.4471  0.4505
 9830SOL     OW30388   1.269   5.529   2.212 -0.1748 -0.3927  0.9569
 9830SOL    HW130389   1.235   5.437   2.193 -0.2386 -0.1815 -0.0051
 9830SOL    HW230390   1.324   5.528   2.295  0.5973 -1.4776  0.4536
 9831SOL     OW30391   0.485   1.847   6.782  0.5568  0.2459  0.1070
 9831SOL    HW130392   0.406   1.905   6.804  0.5287 -0.0705  0.9057
 9831SOL    HW230393   0.501   1.783   6.858  1.5727  0.2910 -0.0527
 9832SOL     OW30394   4.428   6.795   4.729  0.2747  0.2294  0.2443
 9832SOL    HW130395   4.515   6.767   4.687 -0.2462  1.0293 -1.4887
 9832SOL    HW230396   4.353   6.779   4.664 -0.8043  0.0435  1.5055
 9833SOL     OW30397   1.277   3.049   0.317  0.1194 -0.3067  0.4458
 9833SOL    HW130398   1.193   3.069   0.267 -0.0087 -0.9114  0.4108
 9833SOL    HW230399   1.310   3.132   0.360  1.8000  0.9810 -2.9624
 9834SOL     OW30400   4.568   6.797   2.208  0.3412 -0.2140  0.5132
 9834SOL    HW130401   4.529   6.721   2.261 -1.8847  0.6092  0.1611
 9834SOL    HW230402   4.574   6.878   2.266  0.1179  0.0620  0.1550
 9835SOL     OW30403   5.490   0.934   5.487 -0.5237 -0.2767 -0.2010
 9835SOL    HW130404   5.393   0.959   5.487 -0.5161 -0.1991 -1.4459
 9835SOL    HW230405   5.546   1.017   5.486 -0.4378 -0.3257  0.2135
 9836SOL     OW30406   1.338   1.131   0.763 -0.0766  0.4801 -0.2240
 9836SOL    HW130407   1.394   1.069   0.708 -1.0803 -0.8644  0.2163
 9836SOL    HW230408   1.397   1.190   0.818  0.9086 -0.2543 -0.4765
 9837SOL     OW30409   2.413   1.996   1.816  0.1297 -0.4133  0.6609
 9837SOL    HW130410   2.321   1.964   1.841 -0.3515 -0.1614 -0.6854
 9837SOL    HW230411   2.424   2.091   1.845 -0.8197  0.2287 -0.9416
 9838SOL     OW30412   5.038   0.581   4.727  0.0926  0.5637  0.1435
 9838SOL    HW130413   5.081   0.613   4.811 -1.2099 -0.8293  1.3991
 9838SOL    HW230414   5.108   0.573   4.655  1.6254 -0.0481  1.6271
 9839SOL     OW30415   4.919   2.653   4.331 -0.2263  0.1234 -0.8461
 9839SOL    HW130416   4.948   2.639   4.236 -0.5705 -0.1546 -0.9119
 9839SOL    HW230417   4.910   2.751   4.349  3.0372  0.4366 -0.1414
 9840SOL     OW30418   4.438   1.562   1.441 -0.1723  0.0540 -0.0220
 9840SOL    HW130419   4.496   1.644   1.440 -1.4615  1.0001 -0.6409
 9840SOL    HW230420   4.400   1.547   1.350 -0.3630 -0.9605  0.2099
 9841SOL     OW30421   1.864   3.035   1.826 -0.1602 -0.1780 -0.2520
 9841SOL    HW130422   1.959   3.049   1.799  0.1266  1.0765  1.2479
 9841SOL    HW230423   1.806   3.104   1.783  0.1246  1.0896  1.3140
 9842SOL     OW30424   1.726   3.127   3.566  0.2816 -0.2417 -0.0244
 9842SOL    HW130425   1.775   3.158   3.485 -1.1217  0.2753 -0.6986
 9842SOL    HW230426   1.762   3.175   3.647  1.1419 -0.1754 -0.4323
 9843SOL     OW30427   6.118   3.417   2.874  0.2378 -0.0696 -0.1824
 9843SOL    HW130428   6.090   3.467   2.792  0.3074 -0.0036 -0.1659
 9843SOL    HW230429   6.072   3.328   2.876 -0.1628  0.1404 -0.0266
 9844SOL     OW30430   5.030   2.861   4.022  0.2428  0.1943  0.4306
 9844SOL    HW130431   4.980   2.946   4.007  1.1485  0.5570 -0.6785
 9844SOL    HW230432   5.112   2.879   4.075 -0.3296 -0.2624  1.5076
 9845SOL     OW30433   6.216   1.462   4.884  0.2431 -0.7309 -0.3418
 9845SOL    HW130434   6.160   1.486   4.806 -1.1660  0.8512  1.0779
 9845SOL    HW230435   6.313   1.476   4.862 -0.0695 -0.9665 -1.9688
 9846SOL     OW30436   1.016   1.224   4.876 -0.7355 -0.3153  0.2106
 9846SOL    HW130437   0.939   1.282   4.903  0.5645  1.6241 -0.1444
 9846SOL    HW230438   1.045   1.248   4.784  0.6946 -0.5892  0.5709
 9847SOL     OW30439   1.547   3.182   0.045 -0.5092 -0.3987 -0.3515
 9847SOL    HW130440   1.643   3.206   0.033 -0.2261 -1.3653 -0.1452
 9847SOL    HW230441   1.517   3.124  -0.032 -1.1135  0.4213 -0.7482
 9848SOL     OW30442   6.385   6.791   5.845 -0.3202  0.4172 -0.5425
 9848SOL    HW130443   6.421   6.822   5.933 -0.3209 -1.8010  0.2995
 9848SOL    HW230444   6.286   6.783   5.851 -0.4495  1.3815 -1.1542
 9849SOL     OW30445   2.263   5.305   1.045  0.2301 -0.0912  0.2015
 9849SOL    HW130446   2.354   5.326   1.007  1.0348 -0.9003  1.6175
 9849SOL    HW230447   2.209   5.389   1.049  1.0498  0.4778 -0.2702
 9850SOL     OW30448   1.897   0.468   0.716 -0.1703  0.0233  0.3589
 9850SOL    HW130449   1.943   0.468   0.804 -1.2315  2.3315  0.9706
 9850SOL    HW230450   1.865   0.560   0.694 -0.1405 -0.5186 -2.3515
 9851SOL     OW30451   4.860   1.813   0.968 -0.3441  0.2839 -0.2087
 9851SOL    HW130452   4.792   1.741   0.952  0.3962 -0.4927  0.0365
 9851SOL    HW230453   4.946   1.788   0.924  0.5888 -0.0651  1.7018
 9852SOL     OW30454   2.392   1.592   6.348  0.5959  0.6132 -0.5297
 9852SOL    HW130455   2.453   1.538   6.290  0.3587 -2.6748  2.0250
 9852SOL    HW230456   2.433   1.601   6.439 -0.8980  2.0132  0.0497
 9853SOL     OW30457   5.018   5.072   0.186 -0.4108 -0.0107  0.3500
 9853SOL    HW130458   4.994   5.059   0.282 -1.9256  0.1520  0.0186
 9853SOL    HW230459   4.954   5.022   0.128 -0.6871  1.3894 -0.6289
 9854SOL     OW30460   5.379   5.329   6.088  0.8137  0.0930  1.2121
 9854SOL    HW130461   5.323   5.331   6.171  0.4546 -0.8178  1.0023
 9854SOL    HW230462   5.345   5.258   6.026  1.3991  0.4103  0.5113
 9855SOL     OW30463   2.083   3.978   2.324 -0.2513 -0.3608 -0.5314
 9855SOL    HW130464   1.983   3.989   2.324 -0.1885  0.3452 -1.0249
 9855SOL    HW230465   2.125   4.064   2.295  0.5598 -0.2467  0.9204
 9856SOL     OW30466   1.083   6.652   5.782  0.3144  0.0772 -0.2697
 9856SOL    HW130467   1.012   6.665   5.713 -0.8488 -0.0548  0.8583
 9856SOL    HW230468   1.061   6.571   5.838  1.9011 -0.5862 -0.5323
 9857SOL     OW30469   6.500   0.523   0.607 -0.7034 -0.4176  0.1193
 9857SOL    HW130470   6.478   0.619   0.625  0.8400  0.2671 -1.3513
 9857SOL    HW230471   6.543   0.515   0.517  2.0095 -2.0104  1.4196
 9858SOL     OW30472   3.561   4.973   4.476 -0.1793  0.0958  0.1923
 9858SOL    HW130473   3.468   4.960   4.511  0.4326 -0.5662  1.6893
 9858SOL    HW230474   3.609   5.039   4.533  0.7691 -0.8021  0.4649
 9859SOL     OW30475   3.249   4.863   1.857 -0.2142  0.5258 -0.3214
 9859SOL    HW130476   3.254   4.866   1.757 -1.3050  0.9626 -0.3769
 9859SOL    HW230477   3.301   4.785   1.891 -0.0898  0.1960 -1.2472
 9860SOL     OW30478   4.251   6.524   5.613  0.2837  0.0691  0.2117
 9860SOL    HW130479   4.185   6.598   5.619 -2.0318 -1.7114 -1.5662
 9860SOL    HW230480   4.221   6.448   5.670  0.1894 -1.1469 -1.3987
 9861SOL     OW30481   2.541   1.745   2.269  0.6986 -0.7192 -0.2091
 9861SOL    HW130482   2.616   1.738   2.334 -0.4806  1.0700  1.4337
 9861SOL    HW230483   2.563   1.813   2.199  1.2669 -1.4275 -0.7384
 9862SOL     OW30484   1.605   3.554   1.375  0.3396 -0.1271 -0.0145
 9862SOL    HW130485   1.641   3.462   1.363  0.2757 -0.2489  0.6904
 9862SOL    HW230486   1.673   3.621   1.346  0.7731 -0.3791  0.4042
 9863SOL     OW30487   0.078   1.926   3.207 -0.1408  0.9257  0.1752
 9863SOL    HW130488   0.003   1.960   3.150 -0.0555 -0.0014 -0.5267
 9863SOL    HW230489   0.143   1.877   3.149  0.7154  1.2324  0.8677
 9864SOL     OW30490   2.672   5.351   2.205 -0.6126  0.0708 -1.1590
 9864SOL    HW130491   2.621   5.392   2.129 -0.2710  3.8667  0.4452
 9864SOL    HW230492   2.768   5.340   2.178 -0.6259  0.7502 -1.5005
 9865SOL     OW30493   0.170   3.731   2.608 -0.0163 -0.0940 -0.3166
 9865SOL    HW130494   0.132   3.716   2.517  0.9626  1.3793 -1.0196
 9865SOL    HW230495   0.255   3.783   2.599  1.6889 -2.4089  1.2297
 9866SOL     OW30496   6.450   5.449   3.170 -0.4682  0.5132  0.9926
 9866SOL    HW130497   6.506   5.477   3.092  0.6852 -1.7552  0.9061
 9866SOL    HW230498   6.355   5.435   3.140  0.0286 -0.6693 -0.1410
 9867SOL     OW30499   5.499   1.930   0.450  0.0448 -0.0599 -0.3820
 9867SOL    HW130500   5.448   1.918   0.535 -1.1279  0.7767 -0.9407
 9867SOL    HW230501   5.590   1.890   0.460 -0.0397  0.1000  1.2924
 9868SOL     OW30502   2.569   4.517   1.167 -0.6750  0.5465  0.3401
 9868SOL    HW130503   2.530   4.432   1.201  2.5233 -1.3238 -0.2110
 9868SOL    HW230504   2.630   4.555   1.237  0.3423  0.6270 -0.5748
 9869SOL     OW30505   5.913   2.397   5.567 -0.2493  0.4457 -0.3350
 9869SOL    HW130506   5.973   2.366   5.641 -0.8340 -1.8806 -0.7830
 9869SOL    HW230507   5.959   2.469   5.515  2.4737 -1.6764 -1.0568
 9870SOL     OW30508   1.285   4.420   4.519  0.5507  0.2862 -0.2576
 9870SOL    HW130509   1.350   4.458   4.585  0.0351 -1.2568  1.1812
 9870SOL    HW230510   1.329   4.345   4.469  1.2511  2.0014 -2.4314
 9871SOL     OW30511   5.326   6.823   4.225 -0.3923  0.1969  0.1960
 9871SOL    HW130512   5.365   6.796   4.313  1.6317  0.8480 -0.4499
 9871SOL    HW230513   5.295   6.918   4.231 -2.8713 -0.5962  0.9848
 9872SOL     OW30514   0.744   2.020   2.132  0.2309 -0.4106  0.0750
 9872SOL    HW130515   0.844   2.023   2.139  0.2607  2.1073 -0.3910
 9872SOL    HW230516   0.715   2.072   2.051 -1.4575 -1.4388 -0.0182
 9873SOL     OW30517   6.904   5.713   5.170 -0.0724 -0.2144  0.0860
 9873SOL    HW130518   7.001   5.693   5.159  0.2453  0.6641  1.0719
 9873SOL    HW230519   6.854   5.628   5.190  0.7574 -0.4673  1.1765
 9874SOL     OW30520   5.991   1.060   0.114  0.0811 -0.1373  0.1412
 9874SOL    HW130521   6.047   0.982   0.085  2.0180  0.5834  1.7098
 9874SOL    HW230522   6.029   1.099   0.198 -1.8467  1.4609  0.3473
 9875SOL     OW30523   4.798   1.011   0.860 -0.6023  0.1259  0.2712
 9875SOL    HW130524   4.855   1.046   0.934  0.0223 -0.4799  0.0971
 9875SOL    HW230525   4.853   1.004   0.777 -1.0348 -0.1197  0.0022
 9876SOL     OW30526   1.678   6.816   6.344 -0.6243  0.2263  0.2612
 9876SOL    HW130527   1.618   6.736   6.349 -0.1886 -0.1413 -0.2588
 9876SOL    HW230528   1.732   6.811   6.260  1.9795 -0.7733  1.8880
 9877SOL     OW30529   3.749   0.277   6.993 -0.3943  0.3300 -0.1452
 9877SOL    HW130530   3.745   0.210   7.067  0.8945  0.4377  0.0509
 9877SOL    HW230531   3.790   0.361   7.026  0.5019  0.2673 -1.0407
 9878SOL     OW30532   0.066   2.059   3.847  0.2695  0.1349  0.2012
 9878SOL    HW130533   0.003   2.005   3.903  1.2030 -1.4536 -0.2371
 9878SOL    HW230534   0.143   2.089   3.904  0.8289 -0.8301 -0.0262
 9879SOL     OW30535   3.564   0.586   2.171  0.6884 -0.5938  0.1739
 9879SOL    HW130536   3.562   0.495   2.212  1.6531 -0.4405  0.6004
 9879SOL    HW230537   3.659   0.616   2.162  0.3688  1.5649  2.7217
 9880SOL     OW30538   3.663   2.898   3.935 -0.2754 -0.0164  0.3185
 9880SOL    HW130539   3.617   2.833   3.876  3.7954 -2.0764 -0.9692
 9880SOL    HW230540   3.667   2.987   3.890 -2.7212  0.2457  0.4767
 9881SOL     OW30541   0.475   5.914   5.783 -0.2334  0.6944 -0.3479
 9881SOL    HW130542   0.559   5.902   5.731  0.4604 -1.4238  1.0943
 9881SOL    HW230543   0.397   5.884   5.728  0.5339 -1.9193 -0.1463
 9882SOL     OW30544   3.385   1.985   4.070  0.7612 -0.4450 -0.1165
 9882SOL    HW130545   3.359   2.058   4.007  1.6279 -1.1647 -1.3433
 9882SOL    HW230546   3.338   1.900   4.045  1.0353 -0.7143  0.2566
 9883SOL     OW30547   6.154   6.471   4.947 -0.1760  0.1664 -0.7463
 9883SOL    HW130548   6.057   6.493   4.945  0.0461  1.1583 -1.1658
 9883SOL    HW230549   6.172   6.393   4.886 -0.9640 -1.2147  0.7068
 9884SOL     OW30550   1.352   3.840   0.745  0.2136 -0.6737 -0.2520
 9884SOL    HW130551   1.412   3.918   0.765 -0.7688  0.1408 -0.3990
 9884SOL    HW230552   1.289   3.827   0.821  0.4730 -1.4435 -0.1604
 9885SOL     OW30553   3.203   3.394   1.313  0.9220 -0.1515  0.5265
 9885SOL    HW130554   3.287   3.443   1.335 -0.3221  0.5734  4.4739
 9885SOL    HW230555   3.129   3.459   1.299  0.4073 -0.8430 -0.0665
 9886SOL     OW30556   6.468   6.630   6.617 -0.3146 -0.5895 -0.9063
 9886SOL    HW130557   6.396   6.698   6.635 -0.8279 -1.2377 -0.5001
 9886SOL    HW230558   6.429   6.552   6.568  0.0357 -1.1193 -0.3444
 9887SOL     OW30559   4.341   5.857   1.140  0.1826 -1.0293  0.2584
 9887SOL    HW130560   4.345   5.847   1.041 -0.0437 -2.6843  0.3822
 9887SOL    HW230561   4.420   5.811   1.181 -0.4198 -1.5125  0.9055
 9888SOL     OW30562   2.193   4.601   4.420 -0.1587  0.5546 -0.1200
 9888SOL    HW130563   2.129   4.533   4.385  0.3917  0.8322 -1.7117
 9888SOL    HW230564   2.162   4.692   4.393  1.0412  0.6732 -1.1700
 9889SOL     OW30565   0.531   3.173   2.635 -0.0603  0.4171 -0.7616
 9889SOL    HW130566   0.553   3.128   2.722 -0.2484 -0.4617 -1.1586
 9889SOL    HW230567   0.468   3.116   2.583 -2.4654  2.3394 -0.1407
 9890SOL     OW30568   3.503   3.518   5.014 -0.1958 -0.5723  0.4104
 9890SOL    HW130569   3.477   3.612   5.035 -0.2678 -0.6240  0.5572
 9890SOL    HW230570   3.420   3.464   4.997 -0.1442 -0.5583  0.1072
 9891SOL     OW30571   6.128   6.852   1.124  0.4114 -0.0409 -0.0437
 9891SOL    HW130572   6.054   6.847   1.191 -0.7263  2.3159 -1.0113
 9891SOL    HW230573   6.204   6.904   1.162  0.4767 -0.1692  0.0036
 9892SOL     OW30574   6.015   2.600   4.222  0.2633 -0.1710  0.0096
 9892SOL    HW130575   6.066   2.672   4.270 -0.1775  0.2940 -0.2049
 9892SOL    HW230576   5.979   2.535   4.289  2.6494 -1.5413  0.0444
 9893SOL     OW30577   0.486   1.542   1.217 -0.2098  0.1726 -0.1144
 9893SOL    HW130578   0.410   1.586   1.265  1.0599  2.3712  0.0192
 9893SOL    HW230579   0.464   1.535   1.120 -1.2705 -0.8448  0.1791
 9894SOL     OW30580   0.746   0.702   5.242 -0.8427 -0.1334 -0.0802
 9894SOL    HW130581   0.762   0.766   5.318 -0.8801  0.4841 -0.5861
 9894SOL    HW230582   0.704   0.751   5.166 -0.2609 -0.6288 -0.7240
 9895SOL     OW30583   5.301   4.542   1.657  0.2677 -0.5500 -0.6718
 9895SOL    HW130584   5.253   4.614   1.708  0.0122 -2.2495  1.6603
 9895SOL    HW230585   5.399   4.564   1.656  0.6064 -1.3509  2.4240
 9896SOL     OW30586   1.341   5.977   6.538  0.4459  0.0591 -0.3172
 9896SOL    HW130587   1.260   5.919   6.550 -0.1475  0.7925 -0.6808
 9896SOL    HW230588   1.362   5.985   6.441  0.6139  0.3249 -0.2606
 9897SOL     OW30589   2.650   0.085   4.828 -0.3506 -0.5180 -0.0992
 9897SOL    HW130590   2.622  -0.001   4.785 -0.4855 -0.1685 -0.7224
 9897SOL    HW230591   2.668   0.153   4.757 -1.4907  0.3531  0.4087
 9898SOL     OW30592   4.302   1.604   1.678 -0.7377  0.0961 -0.1022
 9898SOL    HW130593   4.350   1.587   1.591 -2.6622 -0.1743 -1.1586
 9898SOL    HW230594   4.231   1.535   1.691 -0.8598  0.4777  1.4327
 9899SOL     OW30595   1.213   1.399   5.892 -0.9877  0.5012 -0.0281
 9899SOL    HW130596   1.239   1.443   5.806 -0.3389 -0.4054 -0.3143
 9899SOL    HW230597   1.145   1.327   5.873 -1.4799  0.8720  0.3313
 9900SOL     OW30598   6.851   3.062   4.408 -0.6076  0.4167  0.4274
 9900SOL    HW130599   6.768   3.105   4.372 -0.5044 -0.6130 -1.1633
 9900SOL    HW230600   6.847   2.963   4.391  0.7653  0.2951  0.6951
 9901SOL     OW30601   2.617   6.116   6.668  0.0840  0.4366 -0.4444
 9901SOL    HW130602   2.596   6.207   6.704 -0.4930 -0.1114  0.6306
 9901SOL    HW230603   2.561   6.099   6.587  0.2989  1.0810 -0.7387
 9902SOL     OW30604   1.604   6.282   4.426  0.4672 -0.3909  0.2631
 9902SOL    HW130605   1.657   6.337   4.362  2.4973 -1.5511  0.8417
 9902SOL    HW230606   1.548   6.216   4.376 -1.0544  1.2952 -0.3815
 9903SOL     OW30607   3.155   5.159   5.447 -0.0299 -0.0670  0.4482
 9903SOL    HW130608   3.081   5.101   5.413  0.7530  0.0675 -1.6200
 9903SOL    HW230609   3.231   5.158   5.382  1.0426  1.2690  1.6148
 9904SOL     OW30610   4.376   1.818   1.990 -0.5332  0.2578  0.1976
 9904SOL    HW130611   4.387   1.826   1.891  0.8037 -1.3869  0.1572
 9904SOL    HW230612   4.421   1.895   2.036 -0.0037  0.3364 -0.4399
 9905SOL     OW30613   0.326   0.697   4.607  0.8725 -0.4359 -0.1089
 9905SOL    HW130614   0.376   0.638   4.544 -0.2168 -2.1198  0.5396
 9905SOL    HW230615   0.231   0.665   4.615  1.0210 -0.4334  2.5241
 9906SOL     OW30616   1.818   4.266   0.093 -0.0688  0.0338  0.0760
 9906SOL    HW130617   1.907   4.221   0.093  0.6826  1.4287  1.1231
 9906SOL    HW230618   1.784   4.272   0.187 -2.2208 -2.1738 -0.4529
 9907SOL     OW30619   3.605   4.210   5.815  0.4334  0.3838 -0.0897
 9907SOL    HW130620   3.518   4.253   5.840 -0.6077 -2.6078  2.0709
 9907SOL    HW230621   3.589   4.146   5.740  0.7580 -0.1526  0.2938
 9908SOL     OW30622   6.294   6.721   6.378 -0.3899  0.4608 -0.1211
 9908SOL    HW130623   6.269   6.634   6.419  2.2116  1.1375  3.3790
 9908SOL    HW230624   6.321   6.785   6.450  0.6812  3.1926 -2.7412
 9909SOL     OW30625   5.166   4.619   4.389 -0.1010 -0.4875 -0.1905
 9909SOL    HW130626   5.184   4.717   4.389 -1.8668 -0.1003 -1.8938
 9909SOL    HW230627   5.182   4.582   4.481 -0.2422  1.5489  0.7048
 9910SOL     OW30628   1.531   0.046   6.315  0.6406  0.0226  0.0612
 9910SOL    HW130629   1.437   0.012   6.315  0.4042  0.5856 -1.7476
 9910SOL    HW230630   1.593  -0.029   6.339 -0.1505 -0.7477 -0.2233
 9911SOL     OW30631   1.759   2.077   0.825  0.1494 -0.0159 -0.3546
 9911SOL    HW130632   1.702   2.109   0.900  1.1965  0.1437  0.3964
 9911SOL    HW230633   1.781   1.980   0.837  1.0131  0.2158  0.0162
 9912SOL     OW30634   6.345   2.480   6.626  0.4364  0.1209  0.1870
 9912SOL    HW130635   6.375   2.390   6.659 -0.5979  0.3389  1.9022
 9912SOL    HW230636   6.424   2.539   6.611  1.0763 -0.7708 -0.0171
 9913SOL     OW30637   5.985   5.257   0.352  0.3830  0.0660  0.3129
 9913SOL    HW130638   5.934   5.315   0.288  1.3152 -0.0097 -0.5261
 9913SOL    HW230639   5.950   5.163   0.346 -1.4169  0.5598  1.9835
 9914SOL     OW30640   1.947   2.807   3.118 -0.3946 -0.3007  0.2879
 9914SOL    HW130641   2.042   2.791   3.089 -0.3309  0.4798  0.0459
 9914SOL    HW230642   1.948   2.866   3.199 -0.4765 -3.6049  2.9199
 9915SOL     OW30643   1.554   0.443   3.378 -0.1404  0.1997  0.5088
 9915SOL    HW130644   1.481   0.454   3.310 -0.7804  0.1373  1.1695
 9915SOL    HW230645   1.639   0.418   3.332 -0.5089  0.3637 -0.2858
 9916SOL     OW30646   1.456   4.026   6.384 -0.2719 -0.4179  0.1291
 9916SOL    HW130647   1.542   3.976   6.390 -0.0524  0.0394  0.9920
 9916SOL    HW230648   1.461   4.093   6.310 -1.2175 -2.8277 -2.2913
 9917SOL     OW30649   4.096   5.682   3.328 -0.2206  0.5168  0.3976
 9917SOL    HW130650   4.177   5.661   3.272 -0.2270 -0.2578  0.6694
 9917SOL    HW230651   4.014   5.651   3.281 -0.2025 -0.4038  0.9582
 9918SOL     OW30652   0.067   3.757   6.781 -0.5326 -0.1021  0.1620
 9918SOL    HW130653   0.044   3.815   6.859 -2.1070 -0.8181  0.2755
 9918SOL    HW230654   0.166   3.742   6.778 -0.5287 -1.0540  2.7564
 9919SOL     OW30655   5.109   0.820   0.060  0.3252 -0.4615  0.2219
 9919SOL    HW130656   5.073   0.807  -0.032  0.0544 -0.1083  0.2759
 9919SOL    HW230657   5.203   0.854   0.055  0.0746  0.2226  0.0686
 9920SOL     OW30658   1.631   1.233   6.674  0.3221 -0.0188  0.6056
 9920SOL    HW130659   1.679   1.174   6.739  0.6745  1.5747  1.8477
 9920SOL    HW230660   1.697   1.271   6.609  0.6450  1.4447  1.7461
 9921SOL     OW30661   4.112   5.208   6.173  0.1461  0.2714 -0.0769
 9921SOL    HW130662   4.167   5.167   6.100  0.1339 -1.0400  0.6199
 9921SOL    HW230663   4.021   5.167   6.173 -1.1474  2.8619 -1.6182
 9922SOL     OW30664   4.369   0.806   2.989  0.1707  0.2048  0.2551
 9922SOL    HW130665   4.469   0.812   2.977  0.2593 -2.0059 -0.3686
 9922SOL    HW230666   4.340   0.711   2.985 -2.1281  0.8856 -0.6244
 9923SOL     OW30667   3.553   6.697   2.567  0.0854 -0.2788 -0.4577
 9923SOL    HW130668   3.594   6.611   2.599 -1.2217 -0.6704  0.2472
 9923SOL    HW230669   3.593   6.722   2.478  0.8268 -1.3615 -0.4501
 9924SOL     OW30670   5.315   3.282   6.614 -0.6150  0.2262 -0.3042
 9924SOL    HW130671   5.351   3.212   6.676  1.7029 -0.0656 -1.8379
 9924SOL    HW230672   5.328   3.372   6.655 -1.1989 -0.0686  0.5618
 9925SOL     OW30673   3.509   2.989   4.813  0.3435  0.1787  0.0786
 9925SOL    HW130674   3.413   2.971   4.837  0.4295  0.2457  0.4801
 9925SOL    HW230675   3.539   2.925   4.743 -0.5403  1.3032 -1.3952
 9926SOL     OW30676   6.660   5.927   1.862 -0.1637  0.1725 -0.0997
 9926SOL    HW130677   6.709   5.941   1.948  0.4903 -0.7225 -0.3069
 9926SOL    HW230678   6.723   5.942   1.786 -0.2271 -0.8760 -0.3745
 9927SOL     OW30679   2.612   3.328   5.361 -0.8055  0.1789  0.5181
 9927SOL    HW130680   2.523   3.288   5.383 -1.0465  0.2663 -0.2649
 9927SOL    HW230681   2.674   3.255   5.330 -1.3201  0.4007 -1.1493
 9928SOL     OW30682   6.292   0.024   0.568 -0.1405  0.7361  0.0425
 9928SOL    HW130683   6.276   0.092   0.497  0.8962 -1.1391 -2.1086
 9928SOL    HW230684   6.373  -0.029   0.546 -0.0051 -0.1999  2.4698
 9929SOL     OW30685   2.174   3.539   6.893  0.5379 -0.0719 -0.1767
 9929SOL    HW130686   2.174   3.626   6.845 -0.6791 -0.2714 -0.5490
 9929SOL    HW230687   2.112   3.544   6.971  0.2609 -0.6948 -0.3562
 9930SOL     OW30688   5.368   2.879   2.844  0.3957 -0.3396 -0.2783
 9930SOL    HW130689   5.382   2.880   2.745 -1.4849 -2.3344 -0.6299
 9930SOL    HW230690   5.326   2.965   2.872  2.7161  1.0813 -0.8291
 9931SOL     OW30691   6.946   0.579   2.348  0.5949  0.0438  0.6839
 9931SOL    HW130692   6.933   0.569   2.447 -0.7864  0.3813  0.5542
 9931SOL    HW230693   7.025   0.525   2.319  0.2221 -1.1404  1.7785
 9932SOL     OW30694   3.174   2.584   6.557 -0.0510  0.5824  0.8548
 9932SOL    HW130695   3.244   2.522   6.594 -0.7374 -0.0516  1.1057
 9932SOL    HW230696   3.219   2.661   6.512  0.9056 -1.1672 -1.4023
 9933SOL     OW30697   0.058   0.666   2.833 -0.3214  0.3100 -0.4745
 9933SOL    HW130698   0.124   0.598   2.865 -0.3444 -0.0626 -1.1839
 9933SOL    HW230699   0.096   0.758   2.844  0.8371  0.0545 -1.9587
 9934SOL     OW30700   1.526   4.506   3.706  0.3087  0.5821 -0.2562
 9934SOL    HW130701   1.473   4.458   3.636  0.7724 -0.5224  0.1147
 9934SOL    HW230702   1.464   4.555   3.767 -0.2055  0.2662 -0.5171
 9935SOL     OW30703   1.902   1.946   2.890  0.5276 -0.0234 -0.2879
 9935SOL    HW130704   1.975   2.005   2.924  1.1886 -1.9691  1.8975
 9935SOL    HW230705   1.941   1.860   2.856 -0.4958  0.2912 -2.4250
 9936SOL     OW30706   3.602   2.093   2.180  0.0438 -0.1211  0.3626
 9936SOL    HW130707   3.564   2.175   2.224  1.8289  0.7436  0.4067
 9936SOL    HW230708   3.630   2.116   2.087 -0.7579 -1.0968 -0.1370
 9937SOL     OW30709   4.777   1.996   5.142 -0.3045 -0.7306 -0.6520
 9937SOL    HW130710   4.843   1.923   5.159  0.0364 -0.8817 -2.4398
 9937SOL    HW230711   4.708   1.963   5.077 -2.2124 -0.5955  1.1894
 9938SOL     OW30712   3.769   1.252   2.532 -0.1288 -0.2014 -0.7614
 9938SOL    HW130713   3.856   1.292   2.559 -0.8446  1.2320 -0.5191
 9938SOL    HW230714   3.696   1.320   2.540 -1.0698 -0.9780 -2.2188
 9939SOL     OW30715   5.216   3.614   5.172 -0.5619  0.4360 -0.1055
 9939SOL    HW130716   5.292   3.569   5.123  2.1415  1.6726  2.6272
 9939SOL    HW230717   5.210   3.709   5.142 -0.1244  0.6976  0.6278
 9940SOL     OW30718   2.249   3.754   5.153  0.4194 -0.1850 -0.2983
 9940SOL    HW130719   2.158   3.776   5.189  0.7276  0.0948  0.3373
 9940SOL    HW230720   2.299   3.839   5.135 -0.0318 -0.3005 -2.2325
 9941SOL     OW30721   3.001   1.127   3.463 -0.4111 -0.2869 -0.0658
 9941SOL    HW130722   3.028   1.202   3.403 -0.2803  0.2571  0.6560
 9941SOL    HW230723   3.080   1.068   3.480 -0.3847 -0.2953 -0.2162
 9942SOL     OW30724   2.211   4.313   5.082 -0.5618 -0.3904 -0.0006
 9942SOL    HW130725   2.239   4.223   5.049  0.4412 -0.0148 -0.1930
 9942SOL    HW230726   2.232   4.383   5.013  1.4343  0.3919  1.2976
 9943SOL     OW30727   6.778   0.887   4.689 -0.0385  0.2588 -0.5545
 9943SOL    HW130728   6.725   0.962   4.650  2.8465  1.2938 -2.8103
 9943SOL    HW230729   6.860   0.923   4.733  0.9728 -1.4875 -0.9044
 9944SOL     OW30730   0.126   6.924   6.530 -1.1671 -0.1061 -0.0797
 9944SOL    HW130731   0.115   6.934   6.432 -4.3248 -0.4145  0.1584
 9944SOL    HW230732   0.175   6.839   6.550 -3.0966 -1.6151 -1.3952
 9945SOL     OW30733   3.497   5.391   0.444 -0.0192  0.3985 -0.5895
 9945SOL    HW130734   3.527   5.300   0.416 -1.8197 -0.9523  1.5459
 9945SOL    HW230735   3.529   5.410   0.536 -3.8098 -0.3792  1.0921
 9946SOL     OW30736   3.437   1.290   0.087  0.5568 -0.2860 -0.2931
 9946SOL    HW130737   3.507   1.357   0.062  0.2066 -0.0312 -0.6060
 9946SOL    HW230738   3.451   1.260   0.181  0.2093  0.8900  0.1575
 9947SOL     OW30739   4.879   0.629   4.267 -0.1426 -0.7880 -0.3298
 9947SOL    HW130740   4.944   0.562   4.233 -0.7734 -1.0433 -1.0755
 9947SOL    HW230741   4.812   0.584   4.327 -1.1253 -1.0435 -1.5681
 9948SOL     OW30742   3.573   2.316   5.442  0.1521  0.2928  0.3217
 9948SOL    HW130743   3.641   2.291   5.511 -0.4703 -0.1884  0.7713
 9948SOL    HW230744   3.610   2.387   5.382  0.3719  1.3819  1.7136
 9949SOL     OW30745   1.920   4.476   3.538 -0.6757  0.2974 -0.0161
 9949SOL    HW130746   2.016   4.472   3.564 -0.8592 -3.2630  0.5880
 9949SOL    HW230747   1.911   4.453   3.441 -0.9616  0.1454  0.0458
 9950SOL     OW30748   6.872   2.095   0.308 -0.4979  0.3638  0.8907
 9950SOL    HW130749   6.794   2.115   0.368 -0.8872  1.2453  0.1179
 9950SOL    HW230750   6.838   2.068   0.218  0.0899 -0.1669  0.8206
 9951SOL     OW30751   1.245   4.597   1.318  0.7652 -0.5827 -0.1798
 9951SOL    HW130752   1.310   4.562   1.387  1.1964  0.9662  0.2283
 9951SOL    HW230753   1.282   4.582   1.227  1.2532 -0.5727  0.0141
 9952SOL     OW30754   5.949   4.542   3.916  0.2637  0.1690  0.3941
 9952SOL    HW130755   5.931   4.545   4.014 -0.0574 -0.8887  0.3786
 9952SOL    HW230756   5.915   4.627   3.874 -0.0580  0.4099  1.1152
 9953SOL     OW30757   2.986   6.190   6.281  0.4063 -0.0158  0.2619
 9953SOL    HW130758   3.065   6.180   6.220  1.6346  0.5093  1.7131
 9953SOL    HW230759   2.904   6.157   6.234  1.6044 -1.4288 -0.9719
 9954SOL     OW30760   4.307   2.081   4.713  0.4504 -0.2482  0.0935
 9954SOL    HW130761   4.379   2.036   4.661 -0.1258 -0.7226 -0.3038
 9954SOL    HW230762   4.283   2.026   4.793 -0.4888 -0.8270 -0.5761
 9955SOL     OW30763   6.774   0.061   3.794  0.3957  0.2035  0.4014
 9955SOL    HW130764   6.700   0.128   3.792 -0.5991 -0.8794 -0.7255
 9955SOL    HW230765   6.845   0.089   3.729 -0.2141 -0.0281 -0.3818
 9956SOL     OW30766   5.421   3.692   2.544  0.1667 -1.1802 -0.5693
 9956SOL    HW130767   5.382   3.780   2.567  1.6524  0.0010 -2.3007
 9956SOL    HW230768   5.359   3.642   2.483  0.3874 -0.2163 -1.6219
 9957SOL     OW30769   4.405   0.305   4.662  0.5834 -0.1156  0.1923
 9957SOL    HW130770   4.431   0.312   4.758  1.1890  0.7610 -0.0215
 9957SOL    HW230771   4.487   0.289   4.606  0.5398  1.4417 -0.3636
 9958SOL     OW30772   3.857   1.692   4.135  0.5823  0.5742  0.0568
 9958SOL    HW130773   3.774   1.708   4.188  0.3281 -1.6118  0.4076
 9958SOL    HW230774   3.861   1.757   4.059 -1.3944  0.7648  0.0687
 9959SOL     OW30775   6.869   6.188   5.333 -0.2595 -0.5463 -0.4747
 9959SOL    HW130776   6.804   6.254   5.297  0.3408  0.9956  1.1291
 9959SOL    HW230777   6.957   6.232   5.350  0.2460 -1.8148  0.4097
 9960SOL     OW30778   6.029   1.503   0.463  0.0275  0.6938  0.2014
 9960SOL    HW130779   6.077   1.590   0.475 -0.7529  1.0371  0.8823
 9960SOL    HW230780   6.061   1.438   0.532 -0.9209  1.1258  1.0757
 9961SOL     OW30781   5.668   3.234   4.359  0.2140 -0.4974  0.1298
 9961SOL    HW130782   5.606   3.307   4.331  0.4711 -0.7089 -1.0291
 9961SOL    HW230783   5.730   3.268   4.430  0.1247  0.3131 -0.1786
 9962SOL     OW30784   2.769   6.539   2.928  0.1205  0.1740  0.7698
 9962SOL    HW130785   2.811   6.613   2.981 -0.5655  0.9510  0.2717
 9962SOL    HW230786   2.821   6.525   2.843  0.3202 -0.0009  0.9205
 9963SOL     OW30787   0.946   1.038   6.814  0.0437  0.2097 -0.2520
 9963SOL    HW130788   1.009   0.975   6.859  1.2509  2.4538  1.4161
 9963SOL    HW230789   0.926   1.006   6.721  0.1372 -2.8356  0.6769
 9964SOL     OW30790   6.222   4.815   1.153 -0.4381 -0.0013  0.0482
 9964SOL    HW130791   6.226   4.795   1.251 -0.6033  0.6587  0.1963
 9964SOL    HW230792   6.297   4.876   1.128 -0.6231  0.1463 -0.1581
 9965SOL     OW30793   4.888   3.598   2.107 -0.7969 -0.4478 -0.3473
 9965SOL    HW130794   4.877   3.562   2.015  0.5566 -0.8566 -0.3651
 9965SOL    HW230795   4.798   3.612   2.149 -1.3938 -1.2440 -1.3410
 9966SOL     OW30796   5.163   1.453   2.045  0.3457 -0.2461  0.2289
 9966SOL    HW130797   5.258   1.478   2.027  0.2645 -0.1909 -0.1226
 9966SOL    HW230798   5.115   1.533   2.081 -0.0096  0.2341 -1.2516
 9967SOL     OW30799   2.008   1.249   3.262  0.3010  0.7782 -0.1679
 9967SOL    HW130800   2.047   1.159   3.281  1.2811  1.1536 -0.3299
 9967SOL    HW230801   1.932   1.239   3.197 -0.5020 -0.0697  0.8675
 9968SOL     OW30802   1.099   4.550   2.937 -0.1983 -0.2326  0.2287
 9968SOL    HW130803   1.138   4.463   2.967  1.3801 -0.5779 -2.4245
 9968SOL    HW230804   1.173   4.612   2.910 -1.3598  0.9644 -0.3430
 9969SOL     OW30805   3.417   1.625   0.438  0.3636 -0.0178  0.3824
 9969SOL    HW130806   3.517   1.630   0.439  0.3820 -0.5068  0.9891
 9969SOL    HW230807   3.381   1.677   0.515  0.0999  0.9472 -0.3592
 9970SOL     OW30808   5.568   0.291   4.367 -0.6226 -0.6658  0.1442
 9970SOL    HW130809   5.609   0.238   4.293  0.7110 -0.9814  1.0575
 9970SOL    HW230810   5.626   0.370   4.387 -2.3769  0.9672 -0.9299
 9971SOL     OW30811   6.410   2.132   0.197  0.3817 -0.7122  0.2517
 9971SOL    HW130812   6.444   2.054   0.251 -0.2436 -1.7071 -0.7502
 9971SOL    HW230813   6.485   2.195   0.179  0.8318 -0.8948  1.3646
 9972SOL     OW30814   1.715   1.242   5.210 -0.2886  0.1025  0.9863
 9972SOL    HW130815   1.734   1.339   5.192 -0.7861  0.5160  2.5706
 9972SOL    HW230816   1.624   1.219   5.174  0.2967 -0.1079 -0.4345
 9973SOL     OW30817   6.045   6.825   0.843  0.0348 -0.6236 -0.2399
 9973SOL    HW130818   6.092   6.841   0.930 -0.8183 -2.3751  0.6162
 9973SOL    HW230819   6.111   6.828   0.768  0.3978  3.8042 -0.0153
 9974SOL     OW30820   4.276   6.806   6.992 -0.7712  0.4167  0.2191
 9974SOL    HW130821   4.355   6.765   7.037 -0.7506  0.0663 -0.1281
 9974SOL    HW230822   4.295   6.818   6.895 -0.8965  0.9608  0.2595
 9975SOL     OW30823   5.112   3.013   3.296  0.0874 -0.2793 -0.2239
 9975SOL    HW130824   5.172   3.034   3.218  1.5243 -0.5216  0.7765
 9975SOL    HW230825   5.069   2.924   3.282 -0.3958  0.0819 -1.1512
 9976SOL     OW30826   0.329   3.709   0.081  0.6159  0.5458 -0.6413
 9976SOL    HW130827   0.411   3.668   0.120  0.0151  0.7004  0.8392
 9976SOL    HW230828   0.255   3.641   0.078  0.5221  0.6642 -1.0907
 9977SOL     OW30829   2.185   4.402   6.535  0.2830  0.0832  0.2357
 9977SOL    HW130830   2.196   4.402   6.436  1.6190 -1.7439  0.3206
 9977SOL    HW230831   2.143   4.487   6.564 -0.7192  0.4075 -1.9461
 9978SOL     OW30832   5.855   6.957   2.929 -0.6021  0.1961 -0.2700
 9978SOL    HW130833   5.872   7.046   2.888 -0.5235  0.6811  0.7741
 9978SOL    HW230834   5.874   6.961   3.027  1.2537 -1.4817 -0.5047
 9979SOL     OW30835   4.772   2.529   1.905  0.2103 -0.3768  0.1102
 9979SOL    HW130836   4.811   2.509   1.815 -1.8781 -2.0516 -0.5055
 9979SOL    HW230837   4.787   2.625   1.928  2.4195 -0.3603 -1.1553
 9980SOL     OW30838   6.407   1.107   6.441 -0.0504 -0.5769 -0.6501
 9980SOL    HW130839   6.373   1.199   6.421 -0.6451 -0.4089  0.9441
 9980SOL    HW230840   6.492   1.114   6.494 -0.2725 -0.9339 -0.2418
 9981SOL     OW30841   3.230   0.437   3.915 -0.2681 -0.2505  0.2049
 9981SOL    HW130842   3.290   0.457   3.838 -0.7118  0.2046 -0.0287
 9981SOL    HW230843   3.268   0.478   3.998 -0.7961  0.9855 -0.1383
 9982SOL     OW30844   3.233   6.202   0.308 -0.2949 -0.1244 -0.8073
 9982SOL    HW130845   3.281   6.142   0.244  1.5754  0.9516 -0.4684
 9982SOL    HW230846   3.183   6.147   0.374 -0.8203 -1.2594 -2.1013
 9983SOL     OW30847   3.094   6.695   2.009 -0.4324 -0.1610  0.2105
 9983SOL    HW130848   3.170   6.640   2.044  0.5051  1.3672  0.6924
 9983SOL    HW230849   3.119   6.735   1.921 -0.0758  1.4728  1.0132
 9984SOL     OW30850   0.048   1.052   0.052 -0.0431 -0.1567  0.0973
 9984SOL    HW130851   0.049   1.052  -0.048 -2.6571  1.4954 -0.0233
 9984SOL    HW230852   0.139   1.073   0.086  0.6405  0.4556 -1.9572
 9985SOL     OW30853   5.584   3.960   1.823 -0.5309 -0.7535  0.2981
 9985SOL    HW130854   5.624   3.871   1.844 -0.4357 -0.8849 -0.4072
 9985SOL    HW230855   5.582   4.016   1.906  1.1166 -0.7491  0.3718
 9986SOL     OW30856   0.247   6.159   2.373  0.1193  0.2586 -0.0658
 9986SOL    HW130857   0.345   6.163   2.352  0.1360 -0.4970 -0.1619
 9986SOL    HW230858   0.231   6.093   2.447 -0.4878 -0.9711 -1.2340
 9987SOL     OW30859   6.723   5.516   6.933  0.0734 -0.1311  0.1692
 9987SOL    HW130860   6.677   5.453   6.996  0.2035 -0.7940 -0.3784
 9987SOL    HW230861   6.709   5.485   6.839  0.2006  0.6307 -0.1074
 9988SOL     OW30862   0.597   1.735   2.724  0.1759 -0.1360 -0.0455
 9988SOL    HW130863   0.607   1.677   2.804 -2.3898 -0.7316 -0.0731
 9988SOL    HW230864   0.684   1.781   2.705  1.3776 -1.4615  1.8822
 9989SOL     OW30865   3.217   4.114   2.556  0.0153  0.3018  0.2686
 9989SOL    HW130866   3.200   4.074   2.466  1.4616 -2.4843  1.1387
 9989SOL    HW230867   3.278   4.192   2.546  0.4967 -0.2265 -1.1287
 9990SOL     OW30868   2.937   6.455   3.957  0.9988 -0.0524  0.4985
 9990SOL    HW130869   3.009   6.514   3.993  1.9154 -1.5239  1.1834
 9990SOL    HW230870   2.903   6.395   4.030  0.0082 -0.3027 -0.1422
 9991SOL     OW30871   1.851   6.556   6.546  0.1294 -0.2876  0.7867
 9991SOL    HW130872   1.850   6.494   6.625 -1.8967 -0.5557  0.6204
 9991SOL    HW230873   1.757   6.581   6.523  0.7067  0.1705 -1.2569
 9992SOL     OW30874   4.339   0.626   0.323  0.1185 -0.3453  0.9009
 9992SOL    HW130875   4.354   0.724   0.340  1.1808  0.1645 -2.2071
 9992SOL    HW230876   4.426   0.578   0.323 -0.1957 -0.9255  0.5821
 9993SOL     OW30877   2.675   4.902   3.273  0.0965  0.4067 -0.6121
 9993SOL    HW130878   2.650   4.998   3.263 -2.3382 -0.0764  0.2030
 9993SOL    HW230879   2.701   4.884   3.368  0.6855  0.2633 -0.7953
 9994SOL     OW30880   5.692   3.102   0.404  0.0588 -0.8054 -0.0528
 9994SOL    HW130881   5.662   3.008   0.384  1.1425 -1.3626  0.8342
 9994SOL    HW230882   5.629   3.167   0.361 -2.3287 -1.8838  1.5934
 9995SOL     OW30883   6.926   4.778   1.533  0.2387  0.4242 -0.4682
 9995SOL    HW130884   6.893   4.705   1.593  0.7630  0.3105 -0.3162
 9995SOL    HW230885   7.017   4.756   1.500  0.4928  1.1076 -0.2556
 9996SOL     OW30886   1.552   6.589   0.139 -0.1630 -0.3919  0.4900
 9996SOL    HW130887   1.458   6.623   0.133 -0.8995 -2.3202  0.3769
 9996SOL    HW230888   1.569   6.552   0.230  0.3924 -0.3763  0.4012
 9997SOL     OW30889   1.466   2.281   4.849  0.3114 -0.2378  0.1403
 9997SOL    HW130890   1.512   2.261   4.763 -2.0686 -1.4722 -0.9346
 9997SOL    HW230891   1.468   2.200   4.908  1.1211  0.3117  0.9043
 9998SOL     OW30892   0.186   4.017   2.207 -0.1650 -0.2781  0.2773
 9998SOL    HW130893   0.090   3.990   2.203 -0.1491 -0.3313  0.2581
 9998SOL    HW230894   0.238   3.948   2.257  0.0474 -0.7716 -0.5917
 9999SOL     OW30895   3.499   0.716   3.692  0.2933  0.6992 -0.1647
 9999SOL    HW130896   3.551   0.631   3.701  1.1426  1.1958 -0.2647
 9999SOL    HW230897   3.401   0.696   3.701  0.5548 -0.0728  1.3611
10000SOL     OW30898   2.991   5.036   0.612 -0.0799  0.0625 -0.2318
10000SOL    HW130899   2.930   4.958   0.622  0.2404 -0.2447 -0.6552
10000SOL    HW230900   3.005   5.079   0.701 -3.2899  1.9854 -0.4608
10001SOL     OW30901   4.673   6.416   1.451 -0.0830 -0.2692  0.3924
10001SOL    HW130902   4.691   6.359   1.371 -1.8226 -0.7395  0.2874
10001SOL    HW230903   4.574   6.429   1.460  0.2243  3.8899 -0.4079
10002SOL     OW30904   0.452   2.467   1.185  0.1574  0.3509 -0.3817
10002SOL    HW130905   0.458   2.367   1.192 -0.8371  0.3215  0.3107
10002SOL    HW230906   0.509   2.499   1.110  1.3671 -0.6379  0.0784
10003SOL     OW30907   1.847   0.879   2.251  0.6254 -0.7633  0.4128
10003SOL    HW130908   1.890   0.831   2.327 -0.6662 -2.6881 -0.0028
10003SOL    HW230909   1.752   0.849   2.242  0.4882  0.0663 -1.4371
10004SOL     OW30910   1.951   4.236   5.204 -0.0787 -0.3542 -0.2019
10004SOL    HW130911   2.039   4.270   5.174 -0.4777  0.1033 -0.8869
10004SOL    HW230912   1.878   4.278   5.149 -0.6533 -1.4757 -0.3398
10005SOL     OW30913   1.871   6.965   5.078 -0.1647 -0.7258  0.7246
10005SOL    HW130914   1.838   6.962   5.173 -1.0224  1.2583  0.5281
10005SOL    HW230915   1.929   6.885   5.061 -1.6822 -2.2495  2.2786
10006SOL     OW30916   4.563   6.002   5.501  0.8220 -0.0953  0.0077
10006SOL    HW130917   4.536   5.920   5.552  0.2297 -0.9977 -1.6797
10006SOL    HW230918   4.645   5.983   5.447  0.3757  0.2432 -0.8119
10007SOL     OW30919   5.329   2.243   0.599 -0.3702  0.6758  0.4956
10007SOL    HW130920   5.336   2.271   0.503 -1.9836 -1.4672 -0.3105
10007SOL    HW230921   5.346   2.145   0.607  0.0657  0.8720  2.4823
10008SOL     OW30922   6.953   5.131   4.333  0.1329  0.6775 -0.7587
10008SOL    HW130923   6.911   5.062   4.393 -0.1800  0.5354 -1.1365
10008SOL    HW230924   7.046   5.148   4.363  0.9484 -1.4119 -1.8824
10009SOL     OW30925   4.112   4.738   2.610 -0.1149  0.0283  0.1097
10009SOL    HW130926   4.165   4.688   2.679 -1.8013 -1.2223  0.5592
10009SOL    HW230927   4.083   4.826   2.647  1.1822  0.5198  0.0242
10010SOL     OW30928   6.251   1.150   4.439 -0.3107  0.0561 -0.3601
10010SOL    HW130929   6.275   1.142   4.536 -0.0706 -0.0687 -0.4292
10010SOL    HW230930   6.246   1.058   4.399  1.6807  0.1799 -0.9741
10011SOL     OW30931   0.448   5.224   1.433  0.1118  0.2790  0.3206
10011SOL    HW130932   0.383   5.191   1.364 -0.9002 -0.6244  1.6356
10011SOL    HW230933   0.502   5.147   1.468  2.0905  1.0456 -0.8899
10012SOL     OW30934   4.934   4.858   4.427  0.2604 -0.2267  0.3495
10012SOL    HW130935   4.964   4.933   4.487 -1.1456 -0.3826  1.3123
10012SOL    HW230936   5.003   4.786   4.427  1.3503  0.7773 -0.0973
10013SOL     OW30937   0.935   6.441   6.886 -0.5772  0.2156  0.8417
10013SOL    HW130938   0.865   6.409   6.821 -0.1278  0.4902  0.2052
10013SOL    HW230939   0.977   6.524   6.850  1.3814 -0.9444  0.2576
10014SOL     OW30940   2.309   6.601   0.437 -0.1780 -0.9512  0.2525
10014SOL    HW130941   2.345   6.515   0.400  1.7999  0.9213 -2.6680
10014SOL    HW230942   2.386   6.660   0.463 -1.1318  1.5619 -2.0900
10015SOL     OW30943   0.753   2.168   4.126  0.0526  0.4652 -0.0944
10015SOL    HW130944   0.694   2.091   4.103 -0.0344  0.4488  0.1819
10015SOL    HW230945   0.803   2.198   4.044  1.0625 -0.7033  0.0636
10016SOL     OW30946   5.466   5.212   1.698  0.4965  0.5757 -0.8361
10016SOL    HW130947   5.503   5.223   1.790 -0.9866  0.1754 -0.1515
10016SOL    HW230948   5.380   5.263   1.690  0.0065 -0.3229 -1.6177
10017SOL     OW30949   4.733   2.835   0.044  0.0207  0.4513 -0.0488
10017SOL    HW130950   4.650   2.792   0.007  0.8894  0.4238 -2.0675
10017SOL    HW230951   4.805   2.766   0.052  0.4238  0.8610 -0.1186
10018SOL     OW30952   2.071   3.551   2.134 -0.6519  0.1546  0.3465
10018SOL    HW130953   2.110   3.639   2.161 -0.6658 -0.2717  1.8295
10018SOL    HW230954   2.125   3.512   2.060  0.2842  0.7005  0.7244
10019SOL     OW30955   2.776   0.963   5.145 -0.3346 -0.6310 -0.6900
10019SOL    HW130956   2.777   0.911   5.230  0.0158  1.3528  0.5696
10019SOL    HW230957   2.825   0.912   5.074 -0.1927 -2.0886  0.4097
10020SOL     OW30958   0.884   3.775   2.881 -0.0392  0.3206 -0.4180
10020SOL    HW130959   0.876   3.678   2.856  0.2289  0.2484 -0.2296
10020SOL    HW230960   0.941   3.783   2.963  1.0538  0.7467 -1.2098
10021SOL     OW30961   0.842   3.403   3.301  0.0060 -0.4695 -0.3006
10021SOL    HW130962   0.769   3.460   3.264 -1.5179 -0.6153  2.1950
10021SOL    HW230963   0.810   3.308   3.306  0.7656 -0.7248 -0.1539
10022SOL     OW30964   4.774   4.424   6.338 -0.0993  0.2367 -0.4816
10022SOL    HW130965   4.853   4.452   6.283 -0.8581 -0.2533 -1.8476
10022SOL    HW230966   4.697   4.485   6.320  0.2078  1.3004  1.5627
10023SOL     OW30967   4.086   5.798   6.996 -0.1973 -0.0547  0.3947
10023SOL    HW130968   4.037   5.739   7.060  0.0715  1.3555  1.9859
10023SOL    HW230969   4.182   5.805   7.025  0.3384 -0.6711 -1.1358
10024SOL     OW30970   3.621   6.287   3.533  0.4798  0.0534 -0.2013
10024SOL    HW130971   3.622   6.369   3.590 -1.2800 -0.8806  1.2644
10024SOL    HW230972   3.587   6.311   3.441 -0.9176  0.8403  0.4848
10025SOL     OW30973   0.840   5.257   2.825  0.0412 -0.2757 -0.4875
10025SOL    HW130974   0.895   5.340   2.815 -0.6675  0.1117 -1.3677
10025SOL    HW230975   0.791   5.259   2.911  0.6045 -0.1422 -0.1640
10026SOL     OW30976   2.117   5.586   3.966 -0.0020  0.1776  0.1192
10026SOL    HW130977   2.066   5.506   4.000  0.1534 -0.7546 -1.6908
10026SOL    HW230978   2.056   5.665   3.961 -0.7007 -0.3500  0.0864
10027SOL     OW30979   3.762   2.952   2.390  0.0042 -0.1054  0.3116
10027SOL    HW130980   3.822   3.016   2.439 -0.8563 -0.0156  1.2989
10027SOL    HW230981   3.743   2.988   2.298  2.1065 -0.5542 -0.3455
10028SOL     OW30982   2.755   3.259   1.524  0.2037  0.4001 -0.2795
10028SOL    HW130983   2.803   3.178   1.559 -0.4624  0.1216  0.0083
10028SOL    HW230984   2.807   3.341   1.547 -0.2733  0.2524  1.5518
10029SOL     OW30985   1.918   1.015   0.547  0.0450 -0.1962  0.4171
10029SOL    HW130986   1.949   0.955   0.474 -1.3489  0.7229 -0.9955
10029SOL    HW230987   1.843   1.072   0.514 -0.3202  0.5928  2.4390
10030SOL     OW30988   5.605   5.099   0.254 -0.2547  0.0808  0.1939
10030SOL    HW130989   5.614   5.005   0.287 -2.9971 -0.5228 -0.5636
10030SOL    HW230990   5.581   5.159   0.330 -3.0417 -0.6952  0.0202
10031SOL     OW30991   2.843   5.096   5.310 -0.0367  0.3465 -0.0680
10031SOL    HW130992   2.790   5.015   5.334  2.0304 -0.6817  1.3811
10031SOL    HW230993   2.909   5.073   5.238 -0.8750  1.3530 -1.1939
10032SOL     OW30994   5.826   0.802   4.681 -0.4384  0.4265 -0.1445
10032SOL    HW130995   5.751   0.830   4.620 -0.1094  0.7919 -0.3847
10032SOL    HW230996   5.860   0.882   4.730  1.6717  0.8354 -2.0981
10033SOL     OW30997   6.238   3.247   0.743 -0.0595  0.8338 -0.7164
10033SOL    HW130998   6.296   3.320   0.780  1.6350 -1.3281  1.1830
10033SOL    HW230999   6.160   3.232   0.803  0.5688 -0.0677 -0.1030
10034SOL     OW31000   2.360   4.293   3.452 -0.2506  0.2322 -0.2494
10034SOL    HW131001   2.409   4.309   3.366 -0.0460 -0.4461 -0.2636
10034SOL    HW231002   2.273   4.248   3.433 -0.5923  0.8483 -0.1683
10035SOL     OW31003   2.002   1.923   6.557  0.0671 -0.5921  0.2549
10035SOL    HW131004   2.070   1.872   6.610  0.5781  0.7626  0.9645
10035SOL    HW231005   1.943   1.975   6.619  0.0823  0.3036 -0.4505
10036SOL     OW31006   6.622   3.848   4.500  1.0367  0.9486 -0.5587
10036SOL    HW131007   6.580   3.928   4.456 -1.1505  0.0349 -0.2369
10036SOL    HW231008   6.584   3.836   4.592  0.6093 -0.9678 -0.9370
10037SOL     OW31009   1.180   1.529   4.322 -0.0510 -0.4516  0.1336
10037SOL    HW131010   1.108   1.460   4.331 -0.0905 -0.4452 -0.1169
10037SOL    HW231011   1.159   1.589   4.245  0.6874 -1.0259 -0.5422
10038SOL     OW31012   6.797   3.961   2.564  0.0087 -0.5187  0.3749
10038SOL    HW131013   6.776   3.863   2.557  1.0572 -0.7414  0.1747
10038SOL    HW231014   6.781   3.992   2.658 -2.0856 -0.4424  0.0234
10039SOL     OW31015   3.499   3.437   2.250  0.0339  0.1744 -0.4841
10039SOL    HW131016   3.528   3.414   2.344  0.0610 -1.1785 -0.7953
10039SOL    HW231017   3.526   3.530   2.229  1.1760  0.0758  0.4191
10040SOL     OW31018   0.004   2.480   6.462  0.0960  0.6961 -0.1250
10040SOL    HW131019   0.101   2.504   6.468 -0.2596  2.0138  1.0404
10040SOL    HW231020  -0.049   2.561   6.436 -0.7411  0.1198 -0.2630
10041SOL     OW31021   0.894   6.354   1.112  0.1245 -0.1830 -0.0741
10041SOL    HW131022   0.945   6.387   1.032 -3.3067 -1.2200 -2.9254
10041SOL    HW231023   0.809   6.406   1.120  0.1027 -0.5201  2.6632
10042SOL     OW31024   3.815   6.858   1.533  0.3087  0.1080  0.3907
10042SOL    HW131025   3.834   6.800   1.454  0.1475  0.1676  0.3091
10042SOL    HW231026   3.832   6.806   1.617  0.0249 -0.1013  0.3169
10043SOL     OW31027   0.887   3.211   5.733 -0.2135 -0.2135 -0.4913
10043SOL    HW131028   0.898   3.115   5.707  0.3588  0.1117 -1.5105
10043SOL    HW231029   0.969   3.262   5.708 -0.7821  0.6696 -0.5826
10044SOL     OW31030   6.320   4.379   2.622 -0.1047  0.2018 -0.0163
10044SOL    HW131031   6.416   4.366   2.648  0.9912  1.2860 -2.9920
10044SOL    HW231032   6.297   4.476   2.627 -0.3054  0.2498 -1.3984
10045SOL     OW31033   4.096   4.934   4.847 -0.5187  0.5270 -0.7208
10045SOL    HW131034   4.101   4.873   4.926  0.5599  0.2439 -1.0005
10045SOL    HW231035   4.175   4.920   4.788  0.2577  2.7979 -0.3425
10046SOL     OW31036   0.043   3.809   0.624  0.2422  0.1988  0.0081
10046SOL    HW131037   0.058   3.850   0.714 -1.3575  2.1778 -0.5326
10046SOL    HW231038   0.126   3.817   0.569  0.5112  1.1521  0.5258
10047SOL     OW31039   0.384   7.008   2.510  0.9877  0.3551 -0.6258
10047SOL    HW131040   0.387   6.983   2.606 -0.6521  0.4962 -0.5130
10047SOL    HW231041   0.413   6.930   2.454  1.9258  0.2669 -0.0368
10048SOL     OW31042   3.640   0.945   2.076 -0.1951 -0.4821 -0.1139
10048SOL    HW131043   3.652   1.043   2.062 -2.2028 -0.1749  0.0685
10048SOL    HW231044   3.692   0.916   2.156 -0.1981  0.5807  0.2882
10049SOL     OW31045   3.839   2.022   4.676  0.5418  0.5135 -0.0138
10049SOL    HW131046   3.866   1.929   4.649  0.1974  0.1426  0.9024
10049SOL    HW231047   3.921   2.079   4.688  1.0188 -0.6183  2.8362
10050SOL     OW31048   5.279   3.889   5.126  0.2211  0.2015 -0.2137
10050SOL    HW131049   5.216   3.918   5.053  0.4137 -0.2279 -0.5564
10050SOL    HW231050   5.348   3.959   5.139 -0.5117  0.8272  0.3903
10051SOL     OW31051   4.727   4.931   2.575 -0.3400  0.4954  0.2859
10051SOL    HW131052   4.673   4.849   2.594  1.4525 -0.5981  0.9140
10051SOL    HW231053   4.763   4.968   2.661 -0.4155  1.4464 -0.0768
10052SOL     OW31054   5.870   1.438   4.836 -0.3121  0.4382  0.1565
10052SOL    HW131055   5.877   1.396   4.926 -2.9161 -0.4105  0.0546
10052SOL    HW231056   5.941   1.508   4.826  1.2663 -0.7878  2.0693
10053SOL     OW31057   0.620   0.644   2.529  0.3020  0.1229 -0.1327
10053SOL    HW131058   0.578   0.615   2.443  0.8070  0.0261 -0.3505
10053SOL    HW231059   0.573   0.599   2.605  0.2470 -0.2732 -0.3945
10054SOL     OW31060   1.130   3.121   1.982  0.3768 -0.2841 -0.5638
10054SOL    HW131061   1.094   3.029   1.999 -1.2024  0.7052  2.0348
10054SOL    HW231062   1.210   3.137   2.039 -0.1779  0.3805  0.0553
10055SOL     OW31063   4.399   2.337   2.834 -0.5743 -0.2568 -0.2208
10055SOL    HW131064   4.448   2.263   2.881  1.4176  0.8770 -0.3940
10055SOL    HW231065   4.443   2.424   2.855 -2.4510  0.8155 -0.5704
10056SOL     OW31066   0.644   5.186   5.311 -0.0239 -0.3010  0.3907
10056SOL    HW131067   0.687   5.265   5.266  2.0120 -1.4601  0.1811
10056SOL    HW231068   0.600   5.128   5.242 -2.3853  1.0532  0.6366
10057SOL     OW31069   1.879   1.680   5.021 -0.4430  0.0420 -0.1653
10057SOL    HW131070   1.899   1.776   5.039 -0.1951  0.1006 -0.7231
10057SOL    HW231071   1.846   1.636   5.105 -1.1679  0.7635 -0.0631
10058SOL     OW31072   5.698   6.820   0.593  0.0736 -0.1656 -0.2600
10058SOL    HW131073   5.793   6.806   0.565  0.1744  0.3892 -0.2088
10058SOL    HW231074   5.696   6.867   0.682 -0.2456  0.4142 -0.5695
10059SOL     OW31075   6.259   5.583   0.179 -0.1517 -0.2832 -0.1202
10059SOL    HW131076   6.263   5.604   0.277  0.0712 -0.7844 -0.0183
10059SOL    HW231077   6.275   5.485   0.166 -1.7725 -0.5084 -0.5498
10060SOL     OW31078   2.929   0.682   2.311 -0.1407 -0.3005 -0.5146
10060SOL    HW131079   2.914   0.605   2.249 -0.1588 -2.1482  1.6458
10060SOL    HW231080   2.995   0.657   2.382 -0.7812  1.3706  0.7643
10061SOL     OW31081   6.946   2.805   5.070  0.5313  0.7309  0.4902
10061SOL    HW131082   6.925   2.818   5.167 -2.4803 -0.1335  0.0785
10061SOL    HW231083   6.957   2.707   5.051 -3.0274  0.3708 -0.5660
10062SOL     OW31084   3.730   3.784   5.135  0.1227 -0.2586  0.2163
10062SOL    HW131085   3.795   3.720   5.092 -1.1669 -1.5198  0.0813
10062SOL    HW231086   3.745   3.785   5.234 -1.2224 -2.4652  0.5039
10063SOL     OW31087   3.015   5.014   5.122 -0.2033 -0.8600  0.1758
10063SOL    HW131088   3.062   4.926   5.126 -1.0062 -1.3146  0.0031
10063SOL    HW231089   3.032   5.056   5.033 -1.2859 -1.7243 -0.4873
10064SOL     OW31090   1.576   2.386   3.264 -0.0068  0.0080  0.2962
10064SOL    HW131091   1.561   2.405   3.361  0.1887  0.7725  0.1874
10064SOL    HW231092   1.491   2.355   3.222 -0.0277 -0.5992  0.7650
10065SOL     OW31093   4.078   1.438   1.640 -0.1453 -0.0768  0.1746
10065SOL    HW131094   4.097   1.350   1.684 -0.6509 -0.2143  0.1326
10065SOL    HW231095   4.023   1.494   1.702  0.7431  0.4768  0.4698
10066SOL     OW31096   2.061   4.621   2.168 -0.1695 -0.1525 -0.3401
10066SOL    HW131097   2.133   4.691   2.169  1.0081 -1.3231  0.1043
10066SOL    HW231098   1.976   4.660   2.202  0.3514  1.1679 -0.4881
10067SOL     OW31099   2.347   2.838   5.319 -0.7098 -0.1187 -0.3743
10067SOL    HW131100   2.419   2.891   5.275  0.3784 -0.0120  1.4197
10067SOL    HW231101   2.258   2.869   5.287 -0.0442  1.6409 -0.6299
10068SOL     OW31102   1.802   5.303   3.890 -0.1912  0.3139  0.4523
10068SOL    HW131103   1.720   5.292   3.946 -1.2074 -0.4165 -1.0781
10068SOL    HW231104   1.778   5.353   3.806  1.1955  1.1048  0.5029
10069SOL     OW31105   2.001   5.860   3.918 -0.0576 -0.1768  0.6498
10069SOL    HW131106   2.056   5.854   3.835  0.0844  0.0903  0.7252
10069SOL    HW231107   2.009   5.952   3.957 -0.6166 -0.1067  0.6145
10070SOL     OW31108   6.788   0.154   4.727  0.3162 -0.2390 -0.3288
10070SOL    HW131109   6.882   0.124   4.743  0.0645 -0.1028  1.7211
10070SOL    HW231110   6.740   0.160   4.815 -0.7601  2.5076 -0.9967
10071SOL     OW31111   6.919   6.816   5.903  0.1906  0.2857  0.2750
10071SOL    HW131112   6.869   6.789   5.985  0.7370 -0.3934  0.3864
10071SOL    HW231113   6.912   6.744   5.834  0.6573  0.3766  0.1313
10072SOL     OW31114   2.293   2.772   4.908 -0.1264  0.7203  0.6932
10072SOL    HW131115   2.224   2.726   4.963  0.1397 -0.3764  0.1509
10072SOL    HW231116   2.312   2.862   4.946 -0.0074  0.0348  2.3369
10073SOL     OW31117   4.183   5.501   5.338 -0.0526  0.3625 -0.4848
10073SOL    HW131118   4.134   5.468   5.257 -2.0141  0.0984  0.7471
10073SOL    HW231119   4.199   5.600   5.329 -0.2946  0.3489 -1.1678
10074SOL     OW31120   6.313   3.232   6.209  0.2731  0.4551 -0.1209
10074SOL    HW131121   6.241   3.209   6.143 -0.1020  2.7696 -0.6113
10074SOL    HW231122   6.274   3.242   6.300  0.3189 -0.0972 -0.0363
10075SOL     OW31123   0.526   1.055   2.432 -0.0885  0.4664  0.0347
10075SOL    HW131124   0.508   1.111   2.352  1.9422  0.8264 -0.2245
10075SOL    HW231125   0.625   1.047   2.446 -0.3074 -2.3927  0.5386
10076SOL     OW31126   1.842   0.198   3.473 -0.3565 -0.1299  0.5466
10076SOL    HW131127   1.774   0.249   3.526 -1.0915 -1.8830  1.3865
10076SOL    HW231128   1.914   0.165   3.534  0.5385  0.5377 -0.1154
10077SOL     OW31129   1.877   2.803   0.775 -0.0080 -0.2115 -0.0319
10077SOL    HW131130   1.855   2.874   0.843 -0.2892  1.3864 -1.7024
10077SOL    HW231131   1.976   2.791   0.770  0.0318 -0.0782  0.3965
10078SOL     OW31132   1.403   1.424   4.768 -0.2287 -0.2989  0.5960
10078SOL    HW131133   1.334   1.470   4.713  0.3971 -0.1672 -0.0903
10078SOL    HW231134   1.486   1.411   4.714  1.2642  1.9462  2.1847
10079SOL     OW31135   0.278   2.380   2.129  0.0084 -0.1262 -0.2020
10079SOL    HW131136   0.280   2.471   2.089 -1.0944 -0.6089 -1.4191
10079SOL    HW231137   0.324   2.315   2.069 -0.3413 -0.5968  0.0271
10080SOL     OW31138   6.419   5.730   0.609 -0.3589  0.4628 -0.0643
10080SOL    HW131139   6.481   5.676   0.666 -1.2824 -1.2046 -0.5673
10080SOL    HW231140   6.399   5.817   0.655  0.6891  0.1260  1.0831
10081SOL     OW31141   0.868   3.918   1.757 -0.0436 -0.0414 -0.3365
10081SOL    HW131142   0.803   3.947   1.827  1.1981  1.4111  0.2537
10081SOL    HW231143   0.830   3.940   1.666 -1.1093 -0.8062 -0.1034
10082SOL     OW31144   2.501   1.525   1.257  0.0116  0.3268 -0.2363
10082SOL    HW131145   2.535   1.505   1.165  1.2410 -0.4061  0.3468
10082SOL    HW231146   2.509   1.624   1.274  0.0287  0.4280 -0.8137
10083SOL     OW31147   2.428   0.610   5.491 -0.5832  0.3178 -0.1953
10083SOL    HW131148   2.372   0.621   5.573  0.5941 -2.2936  1.0987
10083SOL    HW231149   2.379   0.552   5.426 -0.0926 -0.6691  0.2807
10084SOL     OW31150   6.660   3.907   3.867 -0.4010 -0.5016  0.6921
10084SOL    HW131151   6.729   3.940   3.802 -1.4087  1.0088  0.3507
10084SOL    HW231152   6.686   3.935   3.959 -0.6343  0.2136  0.5440
10085SOL     OW31153   1.540   2.700   3.963 -0.0064  0.4785  0.1876
10085SOL    HW131154   1.635   2.723   3.985  0.5591 -0.6274 -0.9688
10085SOL    HW231155   1.525   2.708   3.865 -0.3505 -1.8876 -0.0097
10086SOL     OW31156   0.024   4.994   3.038  0.3110  0.7837 -0.4344
10086SOL    HW131157   0.084   5.069   3.066  1.2003  0.1691 -0.6416
10086SOL    HW231158   0.050   4.963   2.946  0.6218 -0.4400  0.0472
10087SOL     OW31159   2.633   4.796   5.160  0.2251 -0.4119 -0.5175
10087SOL    HW131160   2.549   4.752   5.191 -0.0071  1.0008  1.0082
10087SOL    HW231161   2.688   4.730   5.109 -2.0163 -1.2138 -2.0359
10088SOL     OW31162   3.876   0.934   5.718  0.5987 -0.0642  0.1650
10088SOL    HW131163   3.868   0.906   5.814 -1.4381  0.5501  0.2126
10088SOL    HW231164   3.946   1.005   5.709  0.4488  0.2350  1.2817
10089SOL     OW31165   5.518   2.681   6.244  0.2393 -0.5129  0.2131
10089SOL    HW131166   5.595   2.743   6.229  0.5088 -0.9358 -0.1723
10089SOL    HW231167   5.525   2.603   6.182  2.1524 -3.1062  3.3601
10090SOL     OW31168   4.777   2.840   4.958  0.0288  0.1755 -0.2422
10090SOL    HW131169   4.683   2.805   4.963 -0.3556  1.2688  0.7406
10090SOL    HW231170   4.840   2.769   4.987 -0.3528 -0.9758 -2.0254
10091SOL     OW31171   2.143   0.341   2.295 -0.3912 -0.4572  0.0797
10091SOL    HW131172   2.210   0.383   2.234  1.0292 -2.2865  0.2804
10091SOL    HW231173   2.181   0.335   2.387 -2.0629  1.2197  0.9453
10092SOL     OW31174   5.118   4.387   6.870  0.1663  0.1576 -0.1456
10092SOL    HW131175   5.087   4.308   6.924  0.7162 -1.7893 -2.4822
10092SOL    HW231176   5.038   4.432   6.830 -0.0511 -1.6738 -1.9433
10093SOL     OW31177   0.267   1.746   0.601  0.9106 -0.4709  0.2345
10093SOL    HW131178   0.273   1.707   0.509  0.3124 -0.1334  0.0461
10093SOL    HW231179   0.310   1.836   0.602  1.3188 -0.6636  0.4018
10094SOL     OW31180   6.930   6.857   3.820 -0.0377  0.0585  0.1010
10094SOL    HW131181   6.877   6.941   3.816  1.5088  1.1129  0.7882
10094SOL    HW231182   6.873   6.784   3.860 -0.9593  1.1451  0.8504
10095SOL     OW31183   4.573   6.218   1.003  0.1652 -0.3728 -0.0133
10095SOL    HW131184   4.546   6.167   0.922 -1.7642  0.9446 -0.2575
10095SOL    HW231185   4.620   6.302   0.975 -0.2448 -0.0572  0.2424
10096SOL     OW31186   2.719   1.845   6.353 -0.0891 -0.2313 -0.4038
10096SOL    HW131187   2.800   1.787   6.359 -0.1070 -0.1824  0.3712
10096SOL    HW231188   2.747   1.941   6.356 -0.2302 -0.2092  0.9228
10097SOL     OW31189   0.870   1.411   4.498  0.0151 -0.1017 -0.4751
10097SOL    HW131190   0.836   1.461   4.578 -1.7776 -2.6874  0.5069
10097SOL    HW231191   0.956   1.366   4.520  0.5792  0.8322 -0.7095
10098SOL     OW31192   4.458   4.686   6.842 -0.2916  0.2902  0.4605
10098SOL    HW131193   4.386   4.664   6.908 -2.1516 -1.5425 -1.9362
10098SOL    HW231194   4.416   4.719   6.757  1.8893  1.4507 -0.2458
10099SOL     OW31195   4.613   0.389   3.396  0.1598  0.4139 -0.1476
10099SOL    HW131196   4.709   0.416   3.390  0.4968 -0.8634 -1.0464
10099SOL    HW231197   4.565   0.416   3.313  0.5574 -1.7661 -1.1636
10100SOL     OW31198   5.498   0.919   3.620 -0.6928 -0.8631  0.1134
10100SOL    HW131199   5.512   1.016   3.642  1.1074 -0.3667 -2.7498
10100SOL    HW231200   5.408   0.907   3.578 -0.7287 -0.3651  0.0413
10101SOL     OW31201   4.888   0.704   3.313 -0.3089 -0.1552  0.5093
10101SOL    HW131202   4.790   0.722   3.324 -0.2900  0.5726 -0.4653
10101SOL    HW231203   4.901   0.638   3.239 -0.0304  0.1202  0.3142
10102SOL     OW31204   3.018   0.581   3.004  0.0596  0.3175 -0.2027
10102SOL    HW131205   3.003   0.660   3.062  0.0914  0.6864 -0.6932
10102SOL    HW231206   2.949   0.578   2.932 -1.0261 -1.0858  0.8516
10103SOL     OW31207   3.496   2.605   1.271  0.0990  0.1272 -0.0351
10103SOL    HW131208   3.534   2.686   1.317  0.9496  0.6401 -1.5534
10103SOL    HW231209   3.501   2.527   1.333 -0.6242  1.1920  1.4281
10104SOL     OW31210   3.203   2.126   2.708 -0.1330  0.1146  0.8211
10104SOL    HW131211   3.283   2.162   2.660  0.2507 -1.3106  0.3487
10104SOL    HW231212   3.136   2.092   2.642  0.4739 -2.0211  1.2246
10105SOL     OW31213   1.956   1.375   3.815 -0.5202  0.0970  0.1238
10105SOL    HW131214   2.002   1.462   3.798 -1.7197  0.5752 -0.8548
10105SOL    HW231215   1.858   1.384   3.793 -0.5394 -1.6861 -0.7535
10106SOL     OW31216   3.040   2.573   0.163 -0.1973  0.0374  0.6220
10106SOL    HW131217   3.105   2.624   0.219  1.6320  1.1398 -2.2853
10106SOL    HW231218   3.073   2.480   0.148  1.9269  1.1129 -2.3641
10107SOL     OW31219   0.909   5.654   4.329  0.2424  0.0942  0.8756
10107SOL    HW131220   0.846   5.680   4.255 -1.2522 -1.5206  1.5133
10107SOL    HW231221   0.984   5.600   4.291  1.0214  1.6068  0.1765
10108SOL     OW31222   6.391   0.626   1.361 -0.6162  0.4131  0.3466
10108SOL    HW131223   6.490   0.626   1.374 -0.7171 -0.9686  1.3217
10108SOL    HW231224   6.366   0.555   1.294 -0.9011  1.3161 -0.5378
10109SOL     OW31225   5.861   0.565   6.997  0.5158  0.2195  0.0561
10109SOL    HW131226   5.871   0.471   7.031  0.1426 -0.6087 -1.9549
10109SOL    HW231227   5.767   0.596   7.012  0.2163 -0.3287 -0.6290
10110SOL     OW31228   6.674   2.441   2.904 -0.4748 -0.3645 -0.1654
10110SOL    HW131229   6.618   2.496   2.966 -0.5742 -0.4794 -0.1517
10110SOL    HW231230   6.662   2.344   2.925  1.4762 -0.3236  1.3319
10111SOL     OW31231   0.141   4.951   2.728 -0.3039 -0.8997  0.2089
10111SOL    HW131232   0.108   5.008   2.653 -2.6106 -0.0101  1.7728
10111SOL    HW231233   0.110   4.857   2.716  1.6330 -1.4253 -1.2412
10112SOL     OW31234   0.358   1.509   2.912  0.3789  0.6921  0.0023
10112SOL    HW131235   0.435   1.509   2.976 -0.4473  0.4184  1.0257
10112SOL    HW231236   0.382   1.456   2.830  0.9699 -0.1629  0.7068
10113SOL     OW31237   6.750   6.742   0.723 -0.7973  0.1575  0.8103
10113SOL    HW131238   6.655   6.716   0.707 -0.3262 -1.1087 -0.0542
10113SOL    HW231239   6.786   6.692   0.802  0.1337 -2.0358 -0.9027
10114SOL     OW31240   6.324   3.861   1.117 -0.0005 -0.2483  0.3565
10114SOL    HW131241   6.382   3.793   1.162  1.7963  0.9906  0.0709
10114SOL    HW231242   6.382   3.923   1.063 -1.7746  0.1638 -1.1883
10115SOL     OW31243   5.720   0.823   5.066 -0.0113  0.7436  0.0286
10115SOL    HW131244   5.759   0.877   4.991  0.4068  1.8867  1.0293
10115SOL    HW231245   5.761   0.852   5.153  1.4299 -2.3258  0.4890
10116SOL     OW31246   0.577   2.740   0.668 -0.2594  0.5176  0.4675
10116SOL    HW131247   0.646   2.808   0.643 -0.1458 -0.1922 -1.2949
10116SOL    HW231248   0.588   2.659   0.609 -1.2621 -0.4642  1.5888
10117SOL     OW31249   4.836   3.009   3.014 -0.2230  0.1391  0.7710
10117SOL    HW131250   4.836   3.056   3.102  1.4620 -1.4741  1.7040
10117SOL    HW231251   4.785   2.923   3.023 -2.0836  1.0275 -0.5307
10118SOL     OW31252   4.937   0.695   1.824  0.3187 -0.2806  0.1046
10118SOL    HW131253   4.904   0.778   1.869  1.1449 -0.5015  1.1532
10118SOL    HW231254   4.952   0.714   1.727  0.0712  0.6677  0.2398
10119SOL     OW31255   0.054   3.613   6.542 -0.2856 -0.4500 -0.4623
10119SOL    HW131256   0.049   3.642   6.637  1.2524 -0.4637 -0.3593
10119SOL    HW231257   0.148   3.623   6.508 -0.5111 -1.6898 -1.5640
10120SOL     OW31258   2.225   3.755   6.731  0.5040  0.1115 -0.3260
10120SOL    HW131259   2.301   3.819   6.742  0.9384 -0.5209  0.4809
10120SOL    HW231260   2.243   3.695   6.653  0.1057  0.9455 -1.0726
10121SOL     OW31261   0.218   3.968   6.497  0.5629  0.3657  0.6651
10121SOL    HW131262   0.300   3.957   6.554  1.2674  1.0098 -0.1974
10121SOL    HW231263   0.239   4.029   6.420 -1.0153  1.3722  0.9920
10122SOL     OW31264   5.624   0.874   1.353 -0.1731 -0.4209  0.1086
10122SOL    HW131265   5.635   0.893   1.451  0.8003 -0.6200  0.0460
10122SOL    HW231266   5.710   0.841   1.316 -0.4638 -0.0973 -0.8772
10123SOL     OW31267   6.492   2.705   3.046  0.3483 -0.4129  0.2444
10123SOL    HW131268   6.429   2.748   3.110 -0.9724 -0.4615 -0.9688
10123SOL    HW231269   6.525   2.774   2.981  0.2092 -0.7160 -0.1537
10124SOL     OW31270   2.772   5.147   1.925  0.2972 -0.0620  0.3585
10124SOL    HW131271   2.824   5.196   1.995  1.1194 -1.2484  0.6089
10124SOL    HW231272   2.732   5.212   1.861  1.8471  0.9095  0.3401
10125SOL     OW31273   5.848   4.934   1.822 -0.5638  0.1120 -0.0652
10125SOL    HW131274   5.918   4.981   1.770  0.7588 -0.9149  0.7283
10125SOL    HW231275   5.838   4.977   1.912 -0.9266  0.2313 -0.1600
10126SOL     OW31276   0.628   1.772   5.644 -0.3482 -0.1892 -0.6081
10126SOL    HW131277   0.727   1.780   5.628  0.4274 -3.1382  1.7831
10126SOL    HW231278   0.582   1.759   5.556  1.5205 -0.0129 -1.6890
10127SOL     OW31279   4.485   4.960   3.376 -0.3590 -0.2042  0.2581
10127SOL    HW131280   4.553   4.970   3.302  0.2041  0.4673  0.8486
10127SOL    HW231281   4.474   4.863   3.397  1.6115 -0.2874  1.1972
10128SOL     OW31282   5.906   5.874   3.429  0.1214 -0.4577 -0.1447
10128SOL    HW131283   5.809   5.893   3.414  0.8066  2.8328 -1.2838
10128SOL    HW231284   5.961   5.935   3.372  2.9163 -1.1679  1.5780
10129SOL     OW31285   6.348   4.536   3.886 -0.4884 -0.0551 -0.1107
10129SOL    HW131286   6.271   4.484   3.849  0.0372  0.8283 -2.7058
10129SOL    HW231287   6.342   4.539   3.985 -1.9852 -2.7342 -0.0315
10130SOL     OW31288   6.600   2.234   6.459 -0.0743  0.6188  0.3272
10130SOL    HW131289   6.546   2.166   6.508  0.3801  1.4405  2.0429
10130SOL    HW231290   6.541   2.285   6.396 -0.2894 -1.7847 -1.5658
10131SOL     OW31291   5.410   6.075   3.923 -0.7065 -0.0293  0.4935
10131SOL    HW131292   5.310   6.083   3.922 -0.9631 -1.7334  2.8321
10131SOL    HW231293   5.435   5.978   3.921  0.9189  0.3873 -0.2890
10132SOL     OW31294   4.961   7.003   0.767  0.0236  0.4528  0.3610
10132SOL    HW131295   5.053   7.026   0.797  0.6325 -2.2303  0.7924
10132SOL    HW231296   4.897   7.020   0.843  0.4750  0.3404  0.7750
10133SOL     OW31297   2.463   2.450   6.029  0.2696  0.0266 -0.2879
10133SOL    HW131298   2.500   2.440   6.121 -0.9174  0.6294  0.2751
10133SOL    HW231299   2.537   2.442   5.962  1.3785  1.0126  0.7819
10134SOL     OW31300   1.852   1.020   6.032  0.1256  0.2306 -0.3731
10134SOL    HW131301   1.872   0.972   5.947 -0.7312  0.3810 -0.6691
10134SOL    HW231302   1.760   0.995   6.064  0.6297 -0.2356  0.7935
10135SOL     OW31303   5.501   3.576   1.175  0.5780 -0.3320  0.2670
10135SOL    HW131304   5.488   3.675   1.177 -3.1783 -0.6842  1.0976
10135SOL    HW231305   5.545   3.546   1.259  1.7580  0.5913  0.0019
10136SOL     OW31306   5.576   4.791   6.906 -0.2264 -0.1354  0.2858
10136SOL    HW131307   5.506   4.735   6.950  0.5317 -0.2018  1.4759
10136SOL    HW231308   5.604   4.864   6.969  0.6310  0.0002 -0.2343
10137SOL     OW31309   6.857   6.835   4.685  0.2580  0.0970  0.3441
10137SOL    HW131310   6.875   6.742   4.717 -0.5668 -0.2025 -0.0186
10137SOL    HW231311   6.807   6.831   4.598 -2.3624  0.8075  1.6941
10138SOL     OW31312   6.251   0.788   2.031 -0.4253  0.5430 -0.5688
10138SOL    HW131313   6.240   0.881   1.995 -0.6571  0.3216 -1.0788
10138SOL    HW231314   6.285   0.728   1.959  0.3077  0.3521 -0.0801
10139SOL     OW31315   0.335   3.931   0.223  0.4157 -0.4009 -0.1654
10139SOL    HW131316   0.338   3.852   0.163  0.3846 -0.8696  0.4425
10139SOL    HW231317   0.244   3.972   0.222 -0.1092 -1.4758  0.9098
10140SOL     OW31318   5.932   3.624   6.387 -0.1297 -0.1321  0.4854
10140SOL    HW131319   5.960   3.718   6.365 -0.3369 -0.4506 -1.2631
10140SOL    HW231320   5.849   3.601   6.337 -0.1053 -1.2503  0.9245
10141SOL     OW31321   4.504   1.156   6.033 -0.0129 -0.2540  0.2776
10141SOL    HW131322   4.407   1.141   6.052 -0.5269  2.5438  0.3038
10141SOL    HW231323   4.555   1.156   6.119 -0.3592  0.3711  0.4918
10142SOL     OW31324   1.301   3.009   2.763  0.5417 -0.0403  0.0776
10142SOL    HW131325   1.250   3.084   2.806  0.7375  0.3610 -0.3831
10142SOL    HW231326   1.306   2.932   2.827  2.0460  1.0482  1.3514
10143SOL     OW31327   0.112   3.106   5.720 -0.1714 -0.0384  0.6119
10143SOL    HW131328   0.184   3.073   5.658  1.2870  2.3366  0.9246
10143SOL    HW231329   0.031   3.131   5.667  0.2536 -0.1074 -0.0758
10144SOL     OW31330   1.325   2.910   2.314 -0.1907  0.2410  0.4484
10144SOL    HW131331   1.296   2.897   2.219  1.2579  0.5945 -0.0617
10144SOL    HW231332   1.370   2.998   2.323 -1.0457  0.5779  1.6721
10145SOL     OW31333   0.672   6.942   3.239 -0.2011  0.4710 -0.1826
10145SOL    HW131334   0.686   6.959   3.336 -1.1811 -1.9871  0.4712
10145SOL    HW231335   0.575   6.926   3.221  0.2895 -2.3302 -0.8715
10146SOL     OW31336   0.447   5.042   6.778  0.1931  0.5487 -0.1156
10146SOL    HW131337   0.537   5.086   6.777  0.6427 -0.3575 -0.8970
10146SOL    HW231338   0.388   5.086   6.710  0.8873 -0.5025 -1.4480
10147SOL     OW31339   3.797   1.051   3.427 -0.2837  0.1689  0.3167
10147SOL    HW131340   3.878   1.004   3.462 -0.4621 -0.9856 -0.7567
10147SOL    HW231341   3.823   1.140   3.389  0.2484  0.4235  1.2458
10148SOL     OW31342   2.192   4.176   4.731  0.1085  0.2387 -0.2043
10148SOL    HW131343   2.181   4.098   4.669  3.1125 -0.0000 -0.6015
10148SOL    HW231344   2.262   4.154   4.799  0.9323  2.5085 -0.2402
10149SOL     OW31345   1.918   3.661   0.577  0.1810  0.4574  0.3521
10149SOL    HW131346   1.846   3.718   0.617  0.1306 -0.6892  2.0082
10149SOL    HW231347   1.984   3.637   0.648  1.1712 -0.0822 -0.7198
10150SOL     OW31348   4.557   1.480   1.804 -0.2875  0.4617  0.1592
10150SOL    HW131349   4.540   1.382   1.812  0.3166  0.1429 -1.8559
10150SOL    HW231350   4.496   1.519   1.734 -0.0020  1.3842  0.4074
10151SOL     OW31351   2.440   4.944   6.844 -0.2877 -0.1299 -0.4097
10151SOL    HW131352   2.400   4.865   6.798  0.3259 -0.5280 -0.2630
10151SOL    HW231353   2.407   4.949   6.938  0.7380 -1.0115  0.0115
10152SOL     OW31354   6.445   5.134   1.923  0.2830  0.6331  0.1542
10152SOL    HW131355   6.543   5.126   1.905  0.1567 -0.4980 -0.0932
10152SOL    HW231356   6.396   5.060   1.877 -0.3034 -0.9978  3.1380
10153SOL     OW31357   4.741   0.350   0.111  0.4722 -0.3085  0.6044
10153SOL    HW131358   4.823   0.297   0.132  1.8791  1.0485 -1.1188
10153SOL    HW231359   4.691   0.307   0.037  0.4799 -0.3460  0.6213
10154SOL     OW31360   0.993   6.343   5.559  0.4672  0.1170  0.0389
10154SOL    HW131361   0.929   6.272   5.529  0.5726 -0.0610  0.2400
10154SOL    HW231362   1.074   6.341   5.500 -0.5538  1.6480 -1.5181
10155SOL     OW31363   0.280   6.067   1.121  0.4180 -0.2338 -0.2792
10155SOL    HW131364   0.256   6.164   1.116 -1.5536 -0.5513  1.3981
10155SOL    HW231365   0.378   6.058   1.139  0.7524  1.3994 -1.0449
10156SOL     OW31366   4.488   2.959   6.215 -0.5595  0.4849 -0.0155
10156SOL    HW131367   4.404   2.953   6.270 -1.3520  1.6119 -1.0545
10156SOL    HW231368   4.542   2.876   6.228 -1.8432 -0.2793  0.6565
10157SOL     OW31369   6.649   4.179   5.736 -0.2225 -0.3254  0.6619
10157SOL    HW131370   6.551   4.162   5.731 -0.3555  0.4971  0.1989
10157SOL    HW231371   6.692   4.149   5.651 -0.4382  1.3724 -0.1035
10158SOL     OW31372   5.272   0.305   1.584 -0.1983  0.1760  0.4235
10158SOL    HW131373   5.262   0.401   1.556 -2.2055  0.1055  0.7235
10158SOL    HW231374   5.301   0.301   1.680 -0.3112  0.4918  0.4715
10159SOL     OW31375   4.377   2.385   5.476  0.0128 -0.2348  0.3164
10159SOL    HW131376   4.372   2.356   5.381  0.9294 -0.0491  0.2065
10159SOL    HW231377   4.419   2.475   5.482 -0.2390 -0.1464  0.8823
10160SOL     OW31378   4.365   3.991   0.167 -0.1266 -0.1542 -0.5543
10160SOL    HW131379   4.294   3.994   0.238 -0.7742 -1.1553 -1.1448
10160SOL    HW231380   4.383   3.897   0.141  2.4798 -0.0598  0.5854
10161SOL     OW31381   0.808   3.388   4.148  0.3509 -0.5226 -0.2017
10161SOL    HW131382   0.743   3.314   4.169 -0.3906  0.0621 -0.3727
10161SOL    HW231383   0.759   3.475   4.146  0.9277 -0.2074 -1.5505
10162SOL     OW31384   3.181   2.922   2.000 -0.4823  0.2650  0.3761
10162SOL    HW131385   3.114   2.851   2.019 -0.3013  0.2583  1.0034
10162SOL    HW231386   3.207   2.968   2.086  0.4296  0.1618  0.1649
10163SOL     OW31387   0.691   6.561   3.254  0.0225  0.7151  0.3303
10163SOL    HW131388   0.593   6.543   3.241 -0.0091  0.7954  0.4552
10163SOL    HW231389   0.726   6.612   3.176  0.0913  0.2007  0.0194
10164SOL     OW31390   6.138   2.757   2.356 -0.0177  0.0244  0.4210
10164SOL    HW131391   6.096   2.788   2.270 -0.5422  0.5589  0.8615
10164SOL    HW231392   6.113   2.661   2.372  2.1273 -0.8924 -1.2683
10165SOL     OW31393   1.428   2.866   5.012 -0.5821  0.3899 -0.2675
10165SOL    HW131394   1.448   2.888   4.916  1.1357  1.1385  0.2364
10165SOL    HW231395   1.491   2.796   5.044  0.1883  1.5493  0.8556
10166SOL     OW31396   5.954   1.868   1.719  0.0673 -0.4273  0.5294
10166SOL    HW131397   5.960   1.949   1.778 -1.6316  0.9916 -1.1294
10166SOL    HW231398   6.019   1.876   1.644  2.9027 -2.6698  2.4996
10167SOL     OW31399   6.792   3.476   4.294  0.3427 -0.5920 -0.2065
10167SOL    HW131400   6.867   3.467   4.360  0.8739  1.2888 -0.4838
10167SOL    HW231401   6.820   3.539   4.221 -0.8461 -1.3302 -1.3303
10168SOL     OW31402   0.269   1.405   0.843 -0.2550  0.4286  0.2061
10168SOL    HW131403   0.209   1.470   0.797 -1.8926 -0.5475  0.8521
10168SOL    HW231404   0.274   1.321   0.789 -0.3884  0.1016  0.6895
10169SOL     OW31405   2.367   0.942   2.956 -0.6108 -0.5962  0.5032
10169SOL    HW131406   2.329   0.999   2.884  0.5812 -1.3493 -0.7675
10169SOL    HW231407   2.466   0.956   2.962 -0.3775 -2.0844  0.5330
10170SOL     OW31408   1.777   3.493   5.531  0.0764 -0.2144 -0.0257
10170SOL    HW131409   1.872   3.473   5.556 -0.0869 -2.0758 -0.6755
10170SOL    HW231410   1.745   3.573   5.581  2.2912  1.0839 -0.5432
10171SOL     OW31411   6.969   3.316   5.862 -0.4684 -0.2376 -0.1090
10171SOL    HW131412   6.928   3.226   5.848  0.1418 -0.2994 -1.6910
10171SOL    HW231413   7.065   3.304   5.888  0.0988 -0.0619 -2.0054
10172SOL     OW31414   0.454   1.703   4.639  0.1456  0.5078  0.1028
10172SOL    HW131415   0.448   1.634   4.566 -0.1101  1.4600 -0.8093
10172SOL    HW231416   0.394   1.779   4.617  1.4910  1.6854  0.3394
10173SOL     OW31417   1.245   4.008   5.732 -0.1548  0.5932  0.0691
10173SOL    HW131418   1.258   4.104   5.707 -1.4463  0.8076  0.1193
10173SOL    HW231419   1.165   3.972   5.683  0.0616 -0.3317  0.3804
10174SOL     OW31420   6.700   1.652   1.848  0.2555  0.4545 -0.2544
10174SOL    HW131421   6.643   1.677   1.770 -1.7694  0.4776  1.1668
10174SOL    HW231422   6.719   1.734   1.903 -0.8893 -0.0106  0.8797
10175SOL     OW31423   4.562   2.031   3.269 -0.5959 -0.0284 -0.4214
10175SOL    HW131424   4.481   2.069   3.315 -0.3611 -0.0733  0.0330
10175SOL    HW231425   4.645   2.066   3.313 -0.3372  1.1636 -1.8017
10176SOL     OW31426   5.731   2.075   4.260 -0.2463 -0.0617 -0.4016
10176SOL    HW131427   5.691   2.071   4.352 -1.7741  0.4230 -1.0270
10176SOL    HW231428   5.664   2.046   4.193  0.8586 -0.3935 -1.3965
10177SOL     OW31429   4.601   6.977   0.844 -0.2431  0.5926 -0.6494
10177SOL    HW131430   4.669   6.997   0.915 -2.2663 -1.3934  2.1017
10177SOL    HW231431   4.619   6.886   0.805 -0.5504  0.6025 -0.8217
10178SOL     OW31432   0.152   0.409   4.753  0.4093 -0.2472 -0.4214
10178SOL    HW131433   0.089   0.453   4.690 -0.9550 -2.2672 -0.5604
10178SOL    HW231434   0.245   0.413   4.716  0.0509  0.9355 -1.2396
10179SOL     OW31435   2.271   0.961   3.447 -0.2195  0.2422 -0.5507
10179SOL    HW131436   2.331   0.905   3.503 -0.2051 -1.2480 -1.9694
10179SOL    HW231437   2.192   0.907   3.417 -0.3646  1.0469 -1.7216
10180SOL     OW31438   0.032   1.444   0.353 -0.2778 -0.2680 -0.4169
10180SOL    HW131439   0.009   1.440   0.256  1.1121 -0.5595 -0.7583
10180SOL    HW231440   0.007   1.533   0.390 -1.5831 -0.4437 -0.8246
10181SOL     OW31441   6.878   3.610   3.380 -0.0609  0.0418  0.3065
10181SOL    HW131442   6.806   3.577   3.319  0.5438  0.0307 -0.4201
10181SOL    HW231443   6.955   3.643   3.325  0.5029  0.0186  1.0707
10182SOL     OW31444   0.590   5.787   1.079  0.8720  0.2632 -0.2085
10182SOL    HW131445   0.511   5.769   1.020  1.9169  0.6049 -1.7737
10182SOL    HW231446   0.578   5.875   1.124 -0.2737 -0.3292  0.6967
10183SOL     OW31447   5.774   4.821   4.424 -0.1023  0.1308 -0.3169
10183SOL    HW131448   5.822   4.896   4.469 -0.8115  0.3847  0.0349
10183SOL    HW231449   5.831   4.784   4.350  0.7239  0.2493  0.2530
10184SOL     OW31450   5.130   5.866   3.236 -0.8350 -0.5798  0.1796
10184SOL    HW131451   5.143   5.921   3.153  0.7419 -0.8826  0.1880
10184SOL    HW231452   5.100   5.774   3.211 -2.9064  0.0590  0.1310
10185SOL     OW31453   4.572   0.955   5.574 -0.8911 -0.5882 -0.0799
10185SOL    HW131454   4.529   0.916   5.655 -0.5829 -1.0339 -0.1249
10185SOL    HW231455   4.626   1.035   5.600 -1.2535 -0.3911  0.0675
10186SOL     OW31456   0.504   4.142   3.739 -0.1549  0.2601 -0.2200
10186SOL    HW131457   0.464   4.053   3.761 -2.0524  1.0084 -0.4483
10186SOL    HW231458   0.476   4.170   3.647  2.2927  0.1207 -1.0831
10187SOL     OW31459   1.751   5.710   3.776  0.3753  0.6711 -0.1031
10187SOL    HW131460   1.677   5.747   3.832 -0.9321 -0.4169 -1.0442
10187SOL    HW231461   1.839   5.731   3.819 -0.5437  0.2343  2.1370
10188SOL     OW31462   3.741   5.012   5.602 -0.5568  0.3887 -0.0908
10188SOL    HW131463   3.837   4.984   5.607  0.0364  1.5606 -3.0026
10188SOL    HW231464   3.687   4.937   5.562 -0.0042  1.1625 -2.4564
10189SOL     OW31465   1.728   6.672   3.081  0.0353 -0.2177  0.0539
10189SOL    HW131466   1.748   6.756   3.031  0.3189 -0.0904  0.3750
10189SOL    HW231467   1.631   6.650   3.073 -0.0074  0.0516 -0.1656
10190SOL     OW31468   2.792   2.236   1.763  0.4158 -0.1227  0.7469
10190SOL    HW131469   2.718   2.289   1.721 -0.2426 -1.8705 -0.4490
10190SOL    HW231470   2.840   2.292   1.830 -0.4974  1.8025 -0.1365
10191SOL     OW31471   2.100   3.677   4.654 -0.7075  0.0659  0.0070
10191SOL    HW131472   2.095   3.674   4.754 -0.1673 -0.2309  0.0315
10191SOL    HW231473   2.107   3.583   4.619  1.0673  0.2352 -0.1846
10192SOL     OW31474   4.792   4.351   0.060  0.1950 -0.1026 -0.0526
10192SOL    HW131475   4.835   4.382   0.145  2.9569  1.0074 -1.7404
10192SOL    HW231476   4.784   4.428  -0.003 -2.3789 -0.7717 -0.6890
10193SOL     OW31477   2.509   3.228   1.409  0.9516  0.1707  0.4167
10193SOL    HW131478   2.607   3.235   1.428  1.0306  0.6147 -0.1218
10193SOL    HW231479   2.457   3.257   1.489  1.2584  0.0896  0.6486
10194SOL     OW31480   1.001   0.791   5.086  0.0769 -0.1475  0.3075
10194SOL    HW131481   1.079   0.823   5.032 -0.5332 -1.0603 -1.1604
10194SOL    HW231482   0.931   0.863   5.089 -0.8142 -0.8469 -2.0272
10195SOL     OW31483   1.140   6.552   3.704 -0.2918 -0.0888 -0.1872
10195SOL    HW131484   1.171   6.482   3.768 -2.9155  0.5998  2.0338
10195SOL    HW231485   1.105   6.508   3.621  0.5852 -1.1974  0.0056
10196SOL     OW31486   5.430   0.285   2.746  0.4492 -0.1131  0.2777
10196SOL    HW131487   5.406   0.287   2.649  0.8910  0.0947  0.1710
10196SOL    HW231488   5.489   0.205   2.764  3.2349  1.6597 -0.3249
10197SOL     OW31489   0.303   3.142   1.232 -0.6366  0.1416 -0.2819
10197SOL    HW131490   0.396   3.170   1.257 -1.2739  0.5996  1.7148
10197SOL    HW231491   0.280   3.056   1.277 -1.2504  0.1181 -0.6308
10198SOL     OW31492   5.468   5.769   4.772 -0.1970 -0.0550 -0.5984
10198SOL    HW131493   5.475   5.702   4.846 -0.2743 -1.0925 -1.5052
10198SOL    HW231494   5.560   5.789   4.737 -0.2817 -0.8147 -1.2898
10199SOL     OW31495   4.077   5.238   3.440 -0.0502 -0.4158  0.3084
10199SOL    HW131496   4.175   5.249   3.422  0.3503 -2.6412  0.8274
10199SOL    HW231497   4.064   5.191   3.527 -1.6294  0.4256  0.5645
10200SOL     OW31498   3.792   5.171   5.390  0.2644 -0.3225 -0.2940
10200SOL    HW131499   3.759   5.117   5.467  0.2872  0.8315  0.5395
10200SOL    HW231500   3.854   5.242   5.423  1.0810 -0.4510 -1.4894
10201SOL     OW31501   4.524   6.116   6.026  0.2239  0.0092 -0.1244
10201SOL    HW131502   4.575   6.112   5.941  0.6130  1.5974  0.0071
10201SOL    HW231503   4.429   6.089   6.009  0.4355 -0.2556 -0.9251
10202SOL     OW31504   0.657   0.538   6.770 -0.5769 -0.2451  0.1058
10202SOL    HW131505   0.649   0.462   6.835 -1.0552 -0.5175 -0.2696
10202SOL    HW231506   0.644   0.504   6.677 -0.5358  0.2554 -0.0864
10203SOL     OW31507   0.743   5.550   4.119 -0.2744 -0.3403 -0.2692
10203SOL    HW131508   0.716   5.584   4.029 -0.5397  2.0495  0.6367
10203SOL    HW231509   0.834   5.508   4.114  1.3277  2.9421 -1.0737
10204SOL     OW31510   4.077   5.218   0.952 -0.1589 -0.6868 -0.0390
10204SOL    HW131511   4.156   5.230   1.011 -0.1325 -1.2150  0.0439
10204SOL    HW231512   4.083   5.280   0.874  1.2867 -1.9766 -1.0229
10205SOL     OW31513   4.276   0.239   3.526  0.4451  0.2567  0.3598
10205SOL    HW131514   4.359   0.280   3.563  0.3460  1.2664 -0.4858
10205SOL    HW231515   4.234   0.302   3.460 -0.0861 -0.9239 -0.4701
10206SOL     OW31516   5.490   3.930   4.753 -0.5727 -0.1978  0.4073
10206SOL    HW131517   5.564   3.958   4.813  0.6596  0.9035 -1.5342
10206SOL    HW231518   5.452   4.009   4.705 -0.6903 -1.1312 -1.1518
10207SOL     OW31519   6.284   1.214   2.155 -0.0009 -0.0782  0.5411
10207SOL    HW131520   6.250   1.299   2.114  0.2567 -0.8755 -1.3964
10207SOL    HW231521   6.347   1.237   2.230 -0.4872  1.4171  0.5353
10208SOL     OW31522   4.747   0.582   0.809  0.1295  0.2451  0.4321
10208SOL    HW131523   4.683   0.654   0.782 -0.4142 -0.1379  0.6719
10208SOL    HW231524   4.755   0.580   0.909 -0.6156 -0.6423  0.4976
10209SOL     OW31525   6.262   6.351   1.774  0.0024 -0.0203  0.4311
10209SOL    HW131526   6.259   6.349   1.674  1.6033  4.3915  0.0759
10209SOL    HW231527   6.356   6.331   1.804 -0.2587 -0.3838  1.0107
10210SOL     OW31528   0.951   5.506   5.549  0.2984 -0.1631 -0.4052
10210SOL    HW131529   1.030   5.449   5.527 -0.2893 -0.7422 -1.0772
10210SOL    HW231530   0.954   5.589   5.493 -0.8664 -1.3502 -2.3525
10211SOL     OW31531   1.735   0.723   4.094  0.1807 -0.1774  0.0771
10211SOL    HW131532   1.656   0.779   4.069  0.8045  1.5531  1.7658
10211SOL    HW231533   1.801   0.724   4.019 -0.2049  0.6300 -0.2696
10212SOL     OW31534   0.861   3.800   6.770  0.1772 -0.6734  0.0931
10212SOL    HW131535   0.800   3.768   6.698 -0.7261  0.3680  0.3617
10212SOL    HW231536   0.857   3.900   6.775  2.3247 -0.5203 -0.2307
10213SOL     OW31537   4.129   2.961   1.300 -0.0897 -0.1795  0.3841
10213SOL    HW131538   4.043   2.911   1.286 -0.1808 -0.5188  1.9312
10213SOL    HW231539   4.197   2.899   1.341  0.1512  0.6678  1.3006
10214SOL     OW31540   3.154   2.431   1.734 -0.0728 -0.2565  0.5858
10214SOL    HW131541   3.087   2.441   1.808  0.2898  0.5355  0.8206
10214SOL    HW231542   3.181   2.336   1.726 -1.6463 -0.6999  0.1118
10215SOL     OW31543   0.757   4.229   0.705 -0.2886 -0.6435 -0.3591
10215SOL    HW131544   0.778   4.184   0.618  1.7677  1.7133 -1.1917
10215SOL    HW231545   0.693   4.304   0.688 -1.9524 -1.7628  0.6579
10216SOL     OW31546   5.594   0.867   4.534 -0.0384  0.3545 -0.1038
10216SOL    HW131547   5.510   0.823   4.566 -0.0917  1.7516  1.8844
10216SOL    HW231548   5.589   0.880   4.435 -1.4306 -1.0583 -0.2562
10217SOL     OW31549   4.641   0.885   4.440  0.1823 -0.6286 -0.0818
10217SOL    HW131550   4.648   0.896   4.341  2.0162  0.1484  0.0778
10217SOL    HW231551   4.719   0.832   4.473 -1.2268 -2.2410  0.8061
10218SOL     OW31552   2.787   1.505   5.723 -0.6429  0.2192 -0.3758
10218SOL    HW131553   2.712   1.560   5.685 -0.3549  0.8550 -0.0318
10218SOL    HW231554   2.838   1.462   5.649 -0.2592  1.2187 -0.6939
10219SOL     OW31555   5.535   4.902   3.639 -0.1524 -0.2130 -0.6727
10219SOL    HW131556   5.614   4.854   3.602 -0.1921  0.0153 -1.0518
10219SOL    HW231557   5.565   4.970   3.707 -0.1033 -0.8301 -0.0664
10220SOL     OW31558   4.404   1.926   5.664 -0.3407 -0.4534 -0.6572
10220SOL    HW131559   4.306   1.934   5.679 -0.1800  0.9643 -0.1520
10220SOL    HW231560   4.445   2.017   5.665  1.1569 -1.0959  0.4509
10221SOL     OW31561   0.604   6.090   2.525 -0.0351 -0.7086  0.0891
10221SOL    HW131562   0.613   6.182   2.489 -2.6641 -0.4285  0.0130
10221SOL    HW231563   0.559   6.093   2.614  1.9229 -1.7910  1.2031
10222SOL     OW31564   0.173   2.480   1.197 -0.1894  0.5855 -0.3580
10222SOL    HW131565   0.267   2.507   1.213 -0.9051  2.9164  0.3249
10222SOL    HW231566   0.119   2.493   1.280 -1.6661  2.0300 -1.4779
10223SOL     OW31567   5.784   5.069   6.472 -0.0488 -0.1492 -0.4783
10223SOL    HW131568   5.748   5.022   6.553  2.0415 -0.1325  0.5269
10223SOL    HW231569   5.879   5.042   6.458  0.5993  2.2146 -1.0840
10224SOL     OW31570   4.003   4.792   3.562  0.1990 -0.5221  0.5856
10224SOL    HW131571   4.091   4.839   3.558  0.7914 -1.5446  1.0444
10224SOL    HW231572   3.943   4.840   3.626 -0.2708  1.2310 -1.0694
10225SOL     OW31573   6.243   4.859   2.044  0.0566  0.5495 -0.4826
10225SOL    HW131574   6.233   4.775   1.990  0.9270 -0.0047  0.1900
10225SOL    HW231575   6.262   4.836   2.139 -1.1625  1.5225  0.0255
10226SOL     OW31576   5.256   4.783   4.780  0.1230  0.3420  0.0013
10226SOL    HW131577   5.289   4.718   4.711 -0.1042 -0.9368  1.0559
10226SOL    HW231578   5.331   4.845   4.805  0.7020 -0.2762 -0.1580
10227SOL     OW31579   6.342   6.715   2.891 -0.0897  0.0256 -0.5954
10227SOL    HW131580   6.409   6.667   2.834  0.1536  0.2343 -0.4864
10227SOL    HW231581   6.252   6.707   2.850  0.2579  1.1895 -1.6656
10228SOL     OW31582   5.464   5.600   0.755 -0.1538  0.0658 -0.3269
10228SOL    HW131583   5.482   5.670   0.824 -0.5364 -2.4245  2.4612
10228SOL    HW231584   5.549   5.552   0.733 -0.4005 -0.5261  0.0024
10229SOL     OW31585   6.977   6.457   1.602  0.3243  0.4635 -0.3819
10229SOL    HW131586   6.942   6.415   1.518  1.2292  1.0552 -1.0782
10229SOL    HW231587   7.061   6.410   1.629 -0.1519  0.0473  0.4060
10230SOL     OW31588   4.312   6.789   6.725 -0.4837 -0.4284 -0.3837
10230SOL    HW131589   4.363   6.726   6.666  1.1945  0.0355  0.5257
10230SOL    HW231590   4.229   6.819   6.677 -0.0208 -1.3468 -1.8274
10231SOL     OW31591   1.765   2.837   3.522  0.7435 -0.0469 -0.0538
10231SOL    HW131592   1.742   2.933   3.538 -0.6094 -0.0133 -1.9513
10231SOL    HW231593   1.861   2.821   3.547  0.2753  1.0806  2.9552
10232SOL     OW31594   6.928   1.814   0.166  0.5934 -0.0882 -0.7234
10232SOL    HW131595   6.837   1.841   0.135  1.2691  1.1142 -1.7396
10232SOL    HW231596   6.979   1.774   0.089  1.2660  0.1528 -0.4086
10233SOL     OW31597   0.683   4.930   2.034 -0.0920 -0.1681  0.3601
10233SOL    HW131598   0.632   4.865   2.091  0.2642 -0.8559 -0.1006
10233SOL    HW231599   0.779   4.931   2.064 -0.1924  0.5119  0.6823
10234SOL     OW31600   5.549   4.970   5.398  0.5885 -0.3710  0.2017
10234SOL    HW131601   5.541   4.920   5.312 -0.4462 -1.3002  0.8088
10234SOL    HW231602   5.568   5.066   5.379 -1.2600 -0.2231 -1.1558
10235SOL     OW31603   5.602   5.107   2.302 -0.5430 -0.1807  0.2536
10235SOL    HW131604   5.548   5.022   2.302  2.7777 -2.4764 -0.7260
10235SOL    HW231605   5.652   5.114   2.388 -2.5771  2.2233  1.3949
10236SOL     OW31606   2.785   6.318   3.530  0.3864 -0.5438 -0.0664
10236SOL    HW131607   2.768   6.267   3.446 -0.5335 -1.7896  0.8467
10236SOL    HW231608   2.884   6.331   3.541  0.6486 -2.0672 -0.3763
10237SOL     OW31609   1.357   0.767   3.713 -0.0016 -0.0273  0.2679
10237SOL    HW131610   1.362   0.838   3.782 -1.1634 -0.1631  0.5174
10237SOL    HW231611   1.441   0.713   3.714  0.1816  0.2582  1.2448
10238SOL     OW31612   0.865   5.720   0.172  0.3782  0.3954  0.3227
10238SOL    HW131613   0.904   5.798   0.122  1.5722  1.0941  2.2388
10238SOL    HW231614   0.926   5.642   0.165  1.3834  0.9875  1.9517
10239SOL     OW31615   2.325   3.164   0.049  0.5056  0.0882  0.6087
10239SOL    HW131616   2.369   3.108  -0.021 -0.2253  2.1633 -1.6576
10239SOL    HW231617   2.239   3.122   0.077  0.5400 -0.5115 -0.1581
10240SOL     OW31618   5.309   6.962   0.154  0.8260  0.1420  0.5202
10240SOL    HW131619   5.384   6.901   0.178  0.6433 -0.5260 -0.5050
10240SOL    HW231620   5.286   6.949   0.057 -0.9125 -0.0246  0.9146
10241SOL     OW31621   4.059   3.489   5.528 -0.4323  0.0631  0.2332
10241SOL    HW131622   4.041   3.483   5.627  0.5856  0.7661  0.4782
10241SOL    HW231623   3.975   3.513   5.481 -1.0180 -0.6309  0.8818
10242SOL     OW31624   0.598   1.359   1.520 -0.3396 -0.0709 -0.1376
10242SOL    HW131625   0.633   1.452   1.515 -1.5152  0.3965 -0.0986
10242SOL    HW231626   0.666   1.299   1.562  1.0314  0.4421 -1.5494
10243SOL     OW31627   1.125   4.454   0.051 -0.4208  0.5180  0.0463
10243SOL    HW131628   1.032   4.462   0.013  0.0031 -0.4160 -1.2571
10243SOL    HW231629   1.121   4.411   0.141 -1.3417  1.5146  0.5028
10244SOL     OW31630   3.782   6.143   0.659 -0.4080 -0.0083  1.4453
10244SOL    HW131631   3.876   6.132   0.690 -0.3980  0.2466  1.5086
10244SOL    HW231632   3.765   6.084   0.580  0.1316  0.7819  0.7278
10245SOL     OW31633   6.975   6.386   5.875 -0.5022  0.3849  0.3433
10245SOL    HW131634   6.902   6.390   5.943 -0.5711  0.2063  0.2787
10245SOL    HW231635   7.052   6.334   5.912 -1.6163 -2.1915 -0.7335
10246SOL     OW31636   3.681   3.627   5.987 -0.3196 -0.4227 -0.1207
10246SOL    HW131637   3.694   3.694   5.914 -0.3571 -1.4907 -1.1453
10246SOL    HW231638   3.679   3.673   6.076 -1.3570  1.0368 -0.8619
10247SOL     OW31639   3.745   0.591   1.866 -0.4399  0.1304  0.0146
10247SOL    HW131640   3.781   0.529   1.797  0.0163  0.9485 -0.4948
10247SOL    HW231641   3.646   0.600   1.855 -0.4027  0.0677 -0.3747
10248SOL     OW31642   2.514   5.531   5.380 -0.4482 -0.0062  0.8332
10248SOL    HW131643   2.440   5.485   5.429 -0.0606 -0.9026  0.6023
10248SOL    HW231644   2.571   5.581   5.445  0.7361 -2.1057  1.5289
10249SOL     OW31645   2.667   2.992   5.623 -0.4376 -0.3644  0.2467
10249SOL    HW131646   2.742   2.928   5.607  0.5219  0.9398 -0.6674
10249SOL    HW231647   2.664   3.059   5.549 -1.1572  0.8910  1.3676
10250SOL     OW31648   4.128   3.335   2.299  0.5364 -0.4137  1.1456
10250SOL    HW131649   4.156   3.428   2.319 -1.2617  0.8902 -1.6809
10250SOL    HW231650   4.141   3.317   2.201 -1.8721 -2.0517  1.0372
10251SOL     OW31651   3.081   5.159   2.243 -0.0537 -0.1763  0.0932
10251SOL    HW131652   3.134   5.074   2.246  0.1097 -0.0814 -0.0715
10251SOL    HW231653   3.016   5.160   2.319 -0.8847 -0.9752 -0.5839
10252SOL     OW31654   0.655   5.043   5.995 -0.4194 -0.5960  0.0527
10252SOL    HW131655   0.726   5.070   6.059 -1.0946 -1.0648  1.0157
10252SOL    HW231656   0.579   5.108   5.999 -0.7375 -0.9708  0.1885
10253SOL     OW31657   3.698   5.458   0.242  0.6309 -0.2533  0.4344
10253SOL    HW131658   3.611   5.411   0.232  0.4392  0.3521 -0.8571
10253SOL    HW231659   3.685   5.556   0.235  1.3280 -0.1100  0.9606
10254SOL     OW31660   2.183   3.836   3.742 -0.0434  0.0002  0.1442
10254SOL    HW131661   2.209   3.930   3.764 -1.1950 -0.0065  1.6655
10254SOL    HW231662   2.146   3.791   3.823  0.3009 -1.7247 -0.6030
10255SOL     OW31663   2.142   1.312   2.577 -0.2883  0.0485 -0.1570
10255SOL    HW131664   2.103   1.225   2.548  1.0186 -0.4321 -0.5507
10255SOL    HW231665   2.068   1.375   2.601 -1.3101 -0.6974 -1.1922
10256SOL     OW31666   1.566   3.666   6.496 -0.4285 -0.5112  0.1718
10256SOL    HW131667   1.601   3.754   6.462 -2.0440  0.1022 -0.0038
10256SOL    HW231668   1.497   3.683   6.567  0.2447 -1.6934  1.1443
10257SOL     OW31669   5.407   5.418   0.132  0.0685  0.2170  1.0451
10257SOL    HW131670   5.379   5.504   0.090 -0.4176  0.7465  2.3938
10257SOL    HW231671   5.367   5.411   0.223  0.1296 -1.4304  0.9802
10258SOL     OW31672   3.717   6.397   1.115 -0.5677 -0.1204  0.0113
10258SOL    HW131673   3.621   6.426   1.121 -1.9543 -4.3458  2.2071
10258SOL    HW231674   3.729   6.336   1.038  0.7591  1.2602 -0.9425
10259SOL     OW31675   3.890   1.980   6.813  0.1933 -0.5741  0.1624
10259SOL    HW131676   3.977   2.024   6.835  1.2917 -1.1397 -2.6177
10259SOL    HW231677   3.897   1.882   6.830  0.1937 -0.6546 -0.2946
10260SOL     OW31678   6.747   1.131   0.878  0.2533 -0.4020 -0.0990
10260SOL    HW131679   6.677   1.195   0.845 -2.0418 -2.5556  0.3299
10260SOL    HW231680   6.743   1.127   0.978  2.7321  1.2285  0.1446
10261SOL     OW31681   1.234   3.875   2.628 -0.0655 -0.1999 -0.3944
10261SOL    HW131682   1.136   3.883   2.644  0.1948  1.1224  0.7089
10261SOL    HW231683   1.273   3.966   2.614  0.9914 -0.7155 -0.9047
10262SOL     OW31684   3.664   5.205   2.308  0.0099  0.0816 -0.6270
10262SOL    HW131685   3.679   5.153   2.224 -2.9947 -0.4221 -0.9505
10262SOL    HW231686   3.626   5.145   2.379  2.4602  0.4964  1.1940
10263SOL     OW31687   2.350   5.732   1.053 -0.7250 -0.3494 -0.7176
10263SOL    HW131688   2.360   5.776   1.142  1.6639 -2.0389 -0.0511
10263SOL    HW231689   2.394   5.789   0.983  0.2432 -0.5142 -0.2592
10264SOL     OW31690   5.670   3.622   4.797  0.3147  0.0923 -0.2058
10264SOL    HW131691   5.705   3.605   4.705 -0.4571 -1.6158 -0.2317
10264SOL    HW231692   5.743   3.612   4.864  0.7163  0.5765 -0.5700
10265SOL     OW31693   3.158   4.077   0.497 -0.0243 -0.2488 -0.7760
10265SOL    HW131694   3.206   4.011   0.556  1.2353  0.3556 -1.0896
10265SOL    HW231695   3.204   4.166   0.502 -2.0953  0.8352  0.1707
10266SOL     OW31696   6.101   6.284   0.034  0.2414 -0.6146 -0.1384
10266SOL    HW131697   6.151   6.199   0.048 -1.7240 -1.5484  1.9137
10266SOL    HW231698   6.084   6.298  -0.064  1.7723 -1.8253 -0.6112
10267SOL     OW31699   5.526   4.397   5.086 -0.2131 -0.0048  0.5608
10267SOL    HW131700   5.447   4.336   5.074 -0.4170  0.5745 -1.2514
10267SOL    HW231701   5.501   4.490   5.057  1.0641  0.2449  0.2151
10268SOL     OW31702   5.859   4.692   5.246  0.0848 -0.3378 -0.3357
10268SOL    HW131703   5.780   4.655   5.295  0.2958 -0.2391  0.0839
10268SOL    HW231704   5.860   4.656   5.153 -1.7744  1.4840 -1.1332
10269SOL     OW31705   3.417   1.538   4.910  0.0534  0.1206 -0.4730
10269SOL    HW131706   3.473   1.541   4.993 -1.4635 -0.5593  0.6187
10269SOL    HW231707   3.396   1.443   4.887  1.1735  0.2394 -2.1798
10270SOL     OW31708   0.695   1.729   5.366  0.6010 -0.1566  0.4477
10270SOL    HW131709   0.786   1.724   5.408  0.6762  0.0265  0.3048
10270SOL    HW231710   0.688   1.812   5.311  0.8322 -0.8579 -0.6777
10271SOL     OW31711   0.485   5.512   1.285  0.8649 -0.2183 -0.3944
10271SOL    HW131712   0.533   5.430   1.316 -2.7074 -2.1333  0.6353
10271SOL    HW231713   0.483   5.514   1.185 -0.2510 -2.2896 -0.4621
10272SOL     OW31714   4.458   4.794   3.701  0.0055 -0.2642  0.0636
10272SOL    HW131715   4.388   4.850   3.656  1.9842  0.6638 -2.0834
10272SOL    HW231716   4.500   4.847   3.775  0.4454  0.3181 -0.5950
10273SOL     OW31717   2.980   3.609   0.043  0.2433  0.4229  0.3300
10273SOL    HW131718   3.034   3.542   0.093 -1.5933 -0.8674  0.6781
10273SOL    HW231719   2.948   3.569  -0.043  0.4731  1.4242 -0.2395
10274SOL     OW31720   5.023   3.792   6.961 -0.4031  0.5961  0.3296
10274SOL    HW131721   4.986   3.721   6.902  2.1907  1.9738 -3.3490
10274SOL    HW231722   4.950   3.856   6.986 -1.8589 -0.7786 -0.2085
10275SOL     OW31723   0.816   3.714   0.179  0.0240 -0.6848 -0.4288
10275SOL    HW131724   0.724   3.683   0.155 -0.2661 -0.0189 -0.2032
10275SOL    HW231725   0.878   3.696   0.104 -0.4123 -0.6247 -0.8075
10276SOL     OW31726   3.869   4.024   0.420  0.0475  0.0412 -0.2764
10276SOL    HW131727   3.815   4.106   0.437  0.2584  0.0409  0.4224
10276SOL    HW231728   3.852   3.957   0.493  0.9140  0.0058 -0.0981
10277SOL     OW31729   3.579   0.250   4.119 -0.2453  0.1504 -0.1493
10277SOL    HW131730   3.583   0.348   4.105 -0.7720  0.4957  1.7978
10277SOL    HW231731   3.671   0.214   4.134 -0.2096  0.6907  1.0371
10278SOL     OW31732   1.406   2.208   6.556  0.0692  0.1137 -0.0002
10278SOL    HW131733   1.413   2.201   6.456 -0.7774 -1.3556  0.0058
10278SOL    HW231734   1.371   2.298   6.581  1.4345  0.9377 -0.9421
10279SOL     OW31735   1.742   3.387   2.808  0.5203 -0.4980 -0.5566
10279SOL    HW131736   1.770   3.347   2.720 -0.5971 -1.2430 -0.6067
10279SOL    HW231737   1.800   3.464   2.830  0.6878 -0.1567 -2.0709
10280SOL     OW31738   5.565   4.836   6.248 -0.6533  0.3107  0.1072
10280SOL    HW131739   5.626   4.802   6.177 -0.3921  0.8524  0.0693
10280SOL    HW231740   5.618   4.880   6.320 -1.0422  1.6203 -0.3759
10281SOL     OW31741   6.187   0.514   0.069 -0.0639 -0.1008 -0.2442
10281SOL    HW131742   6.184   0.481   0.163  0.2388 -0.3193 -0.3096
10281SOL    HW231743   6.159   0.440   0.007 -0.3158  0.0585 -0.3243
10282SOL     OW31744   6.804   6.255   2.004 -0.5213 -0.7396 -0.0967
10282SOL    HW131745   6.793   6.321   1.930  0.4008 -1.8977 -1.2938
10282SOL    HW231746   6.714   6.228   2.038 -0.9256  0.5647 -0.0781
10283SOL     OW31747   2.948   1.285   4.114  0.3818 -0.0592 -0.0829
10283SOL    HW131748   3.038   1.306   4.152  0.1408 -0.6976  0.8616
10283SOL    HW231749   2.882   1.274   4.188  0.0022 -1.7782 -0.6373
10284SOL     OW31750   1.598   3.251   6.647 -0.0869  0.0377 -0.3994
10284SOL    HW131751   1.572   3.341   6.613  0.1058  0.7884  1.3396
10284SOL    HW231752   1.693   3.254   6.678  0.1094 -0.9427 -0.8793
10285SOL     OW31753   6.847   3.616   4.846  0.0388 -0.5973  0.4372
10285SOL    HW131754   6.910   3.647   4.775 -1.8022 -1.2311 -1.5653
10285SOL    HW231755   6.863   3.520   4.866 -0.0483 -0.6555  0.2209
10286SOL     OW31756   3.073   6.451   6.405  0.0861  0.3574  0.8803
10286SOL    HW131757   3.067   6.353   6.386 -0.4637  0.5810 -0.1630
10286SOL    HW231758   3.030   6.502   6.331  1.1045  1.4280  0.9984
10287SOL     OW31759   2.724   1.381   3.208  0.2835  0.1365 -0.3986
10287SOL    HW131760   2.677   1.452   3.261  0.9644  0.8518 -0.7427
10287SOL    HW231761   2.822   1.383   3.229  0.2254 -1.1263  0.0634
10288SOL     OW31762   5.499   4.353   3.338 -0.4158 -0.1628  0.1073
10288SOL    HW131763   5.576   4.335   3.278  0.0121 -1.8796  1.0801
10288SOL    HW231764   5.525   4.419   3.408 -0.4352  0.6756 -0.6693
10289SOL     OW31765   3.304   3.635   5.678  0.0929  0.0982 -0.1639
10289SOL    HW131766   3.364   3.689   5.737  0.8310  0.2260 -0.9960
10289SOL    HW231767   3.228   3.599   5.731  2.2823 -2.3287  1.6167
10290SOL     OW31768   4.761   1.156   3.975  0.2208 -0.8597  1.2225
10290SOL    HW131769   4.794   1.099   3.900 -3.1725  0.7510 -1.8510
10290SOL    HW231770   4.713   1.099   4.042 -0.4782 -1.9999 -0.1895
10291SOL     OW31771   1.278   2.831   0.906  0.6448  0.6391  0.0844
10291SOL    HW131772   1.298   2.898   0.835 -1.0098  0.4502 -0.6248
10291SOL    HW231773   1.363   2.798   0.946  1.5290  3.5825  0.9072
10292SOL     OW31774   1.042   0.808   0.147 -0.3109  0.5107 -0.2355
10292SOL    HW131775   0.961   0.867   0.147 -0.5768  0.1466 -0.7234
10292SOL    HW231776   1.059   0.775   0.240 -1.6191 -0.6398 -0.3793
10293SOL     OW31777   2.783   6.620   6.607  0.4595 -0.5332 -0.1134
10293SOL    HW131778   2.876   6.594   6.582  0.4936 -2.7356  1.9747
10293SOL    HW231779   2.778   6.720   6.615  2.0933 -0.2280 -2.0757
10294SOL     OW31780   4.098   2.267   1.072  0.2368 -0.0360  0.3626
10294SOL    HW131781   4.110   2.190   1.009  0.4973  0.3666 -0.0894
10294SOL    HW231782   4.132   2.351   1.029 -2.0621  0.7507 -0.0373
10295SOL     OW31783   4.594   6.415   5.233 -0.1645 -0.3796  0.5075
10295SOL    HW131784   4.555   6.352   5.301 -1.3009 -0.8450 -0.5424
10295SOL    HW231785   4.581   6.378   5.141 -1.6840  1.7656 -0.2211
10296SOL     OW31786   0.892   4.238   4.028  0.2678  0.1015  0.4840
10296SOL    HW131787   0.949   4.276   4.101  1.0082 -1.4796  0.7826
10296SOL    HW231788   0.798   4.231   4.060  0.3580  0.5191  0.8553
10297SOL     OW31789   1.554   1.800   2.784  0.0162  0.3038 -0.1350
10297SOL    HW131790   1.488   1.725   2.783  0.3741 -0.0237 -1.4083
10297SOL    HW231791   1.596   1.806   2.875 -0.9822 -0.1628  0.3738
10298SOL     OW31792   1.042   1.221   5.728  0.1871  0.5994  0.0846
10298SOL    HW131793   1.056   1.269   5.642  0.7177 -0.0574 -0.2052
10298SOL    HW231794   1.006   1.130   5.710  0.7282  0.2924  0.5284
10299SOL     OW31795   0.669   2.134   3.608 -0.0609 -0.8001 -0.2961
10299SOL    HW131796   0.576   2.130   3.646  0.9862  0.4667  2.6669
10299SOL    HW231797   0.685   2.224   3.567  0.1022 -0.7483 -0.1195
10300SOL     OW31798   1.776   0.600   1.394  0.0016  0.2779  0.2901
10300SOL    HW131799   1.696   0.660   1.404  0.4900  1.0652 -0.3301
10300SOL    HW231800   1.843   0.620   1.465 -0.3379 -0.3734  0.8024
10301SOL     OW31801   5.053   1.270   5.692 -0.1171  0.4270  0.8352
10301SOL    HW131802   5.074   1.191   5.635  2.2507 -1.0017  3.4402
10301SOL    HW231803   4.955   1.289   5.688 -0.2980 -0.6412 -2.2411
10302SOL     OW31804   0.652   0.871   3.719  0.3131  0.4063 -0.0569
10302SOL    HW131805   0.707   0.909   3.793  0.5827  1.0139 -0.5662
10302SOL    HW231806   0.588   0.940   3.684  1.0404  0.5255 -1.2082
10303SOL     OW31807   0.185   5.153   0.852  0.4135 -0.1397 -0.2453
10303SOL    HW131808   0.275   5.111   0.843 -0.1275 -1.0945 -1.6022
10303SOL    HW231809   0.115   5.088   0.823 -0.6090  1.0523 -0.5525
10304SOL     OW31810   5.551   4.021   3.052 -0.1390  0.4880  0.4089
10304SOL    HW131811   5.495   3.997   2.974 -0.1553  2.0062 -0.0908
10304SOL    HW231812   5.636   4.065   3.021  0.9916 -1.0516  1.1747
10305SOL     OW31813   4.067   3.721   2.583  0.2743  0.5792 -0.1169
10305SOL    HW131814   4.039   3.727   2.679  1.8176  0.9884  0.3373
10305SOL    HW231815   4.031   3.799   2.532 -1.5332 -0.2463 -0.1655
10306SOL     OW31816   5.156   3.382   3.302 -0.0835 -0.5691 -0.1530
10306SOL    HW131817   5.156   3.378   3.202 -0.6788 -1.7030 -0.1281
10306SOL    HW231818   5.062   3.390   3.335 -0.0109 -1.5438  0.3334
10307SOL     OW31819   6.691   4.256   6.564  0.1702  0.4546  0.0092
10307SOL    HW131820   6.625   4.318   6.520 -1.5100 -0.6258  0.8861
10307SOL    HW231821   6.641   4.180   6.606  1.9723 -0.1535  1.1308
10308SOL     OW31822   5.131   6.767   0.065  0.2932 -0.3880  0.0045
10308SOL    HW131823   5.080   6.835   0.118 -0.2456  0.3720 -1.4602
10308SOL    HW231824   5.094   6.676   0.084  0.1776 -0.1511  1.0021
10309SOL     OW31825   0.221   1.906   1.112 -0.7795  0.1918  0.1227
10309SOL    HW131826   0.263   1.887   1.201  0.1848 -0.3851 -0.4387
10309SOL    HW231827   0.189   1.820   1.072  1.9883 -0.1229 -1.6433
10310SOL     OW31828   5.657   0.984   2.339 -0.0134  0.1559  0.3649
10310SOL    HW131829   5.687   0.889   2.345  1.8222  0.7828  1.8708
10310SOL    HW231830   5.567   0.994   2.381 -1.3471 -1.2884 -1.9250
10311SOL     OW31831   5.538   5.784   0.930  0.7096  0.2822  0.0109
10311SOL    HW131832   5.530   5.881   0.907 -2.6415 -0.0839 -0.9792
10311SOL    HW231833   5.486   5.765   1.013 -1.3351 -1.0566 -1.4616
10312SOL     OW31834   1.618   5.309   1.690 -0.5676  0.1976 -0.0372
10312SOL    HW131835   1.661   5.225   1.658 -1.0014  0.1860 -0.6091
10312SOL    HW231836   1.675   5.387   1.666  1.5588 -0.0809  3.3825
10313SOL     OW31837   6.323   2.101   2.591 -0.4473 -0.0038  0.2070
10313SOL    HW131838   6.362   2.191   2.610  0.7758 -0.3075 -0.7268
10313SOL    HW231839   6.317   2.088   2.492  1.9597 -1.9544  0.2113
10314SOL     OW31840   6.861   5.621   4.880  0.3780  0.2812 -0.2879
10314SOL    HW131841   6.894   5.715   4.889 -1.4932  0.8846  0.8907
10314SOL    HW231842   6.788   5.617   4.812  1.2309 -0.5746 -1.1877
10315SOL     OW31843   6.528   6.312   2.856  0.5988 -0.4417  0.8761
10315SOL    HW131844   6.446   6.334   2.909  0.9467 -1.3069  1.8100
10315SOL    HW231845   6.594   6.264   2.914  0.8555 -1.7443 -0.4191
10316SOL     OW31846   5.885   6.568   4.941  0.2598  0.2495 -0.1707
10316SOL    HW131847   5.896   6.665   4.917 -0.2003  0.8897  1.9504
10316SOL    HW231848   5.796   6.536   4.909  0.7805  0.2217 -1.6889
10317SOL     OW31849   5.200   3.018   4.478 -0.4283 -0.0823 -0.0694
10317SOL    HW131850   5.269   3.045   4.545 -1.7092  1.8129  0.5653
10317SOL    HW231851   5.143   2.945   4.516  1.6094 -2.2574 -0.9045
10318SOL     OW31852   1.389   3.565   4.219 -0.4025 -0.8011  0.2761
10318SOL    HW131853   1.334   3.600   4.295 -2.2784 -0.6634 -1.0862
10318SOL    HW231854   1.478   3.611   4.220 -0.5604 -0.4382  2.0765
10319SOL     OW31855   6.756   0.013   0.722  0.2709 -0.3845  0.3555
10319SOL    HW131856   6.772  -0.086   0.729 -0.6882 -0.5764 -0.0751
10319SOL    HW231857   6.713   0.046   0.806 -1.6336 -0.7930 -0.4087
10320SOL     OW31858   1.340   1.121   5.725  0.0566 -0.2430 -0.2573
10320SOL    HW131859   1.286   1.206   5.722 -0.8128 -0.7145  1.0086
10320SOL    HW231860   1.332   1.080   5.816 -0.3911 -2.2229 -1.1408
10321SOL     OW31861   4.020   6.204   2.993  0.1213 -0.2370  0.5104
10321SOL    HW131862   4.046   6.293   3.030 -0.6508  0.8908 -1.5443
10321SOL    HW231863   3.922   6.189   3.009 -0.0572 -0.0683 -0.3934
10322SOL     OW31864   5.878   2.600   5.106  0.0373 -0.2917  0.2685
10322SOL    HW131865   5.921   2.580   5.017 -1.8024  0.8034 -0.9336
10322SOL    HW231866   5.949   2.621   5.173  1.4384 -0.0010 -1.2356
10323SOL     OW31867   2.369   0.718   4.872  0.1798  0.5116  0.8798
10323SOL    HW131868   2.389   0.709   4.774  0.9102  3.0896  0.7093
10323SOL    HW231869   2.445   0.680   4.925 -1.4084 -3.4758  0.6455
10324SOL     OW31870   2.976   6.824   0.487  0.1051  0.1270 -0.3845
10324SOL    HW131871   2.919   6.831   0.569 -0.8998 -0.6828 -0.9916
10324SOL    HW231872   2.918   6.825   0.406  1.0165 -0.0376 -1.0490
10325SOL     OW31873   2.386   5.540   4.618 -0.6499  0.1356  0.2535
10325SOL    HW131874   2.438   5.625   4.605  0.6276 -0.4931  1.0413
10325SOL    HW231875   2.298   5.562   4.659 -0.8053  1.1861 -0.6049
10326SOL     OW31876   0.371   4.193   3.106  0.4983  0.0558 -0.0876
10326SOL    HW131877   0.415   4.124   3.049  0.3715  0.2270 -0.3930
10326SOL    HW231878   0.367   4.280   3.057  1.5352  0.5386  0.6642
10327SOL     OW31879   1.940   0.787   4.686 -0.0478  0.1312  0.0948
10327SOL    HW131880   1.861   0.838   4.718  0.0124  0.2273  0.0892
10327SOL    HW231881   1.909   0.709   4.630 -0.0618  1.6286 -2.0867
10328SOL     OW31882   1.483   3.366   5.726 -0.2944  0.4318 -0.5431
10328SOL    HW131883   1.580   3.351   5.707  0.0528  2.0678 -0.2448
10328SOL    HW231884   1.441   3.281   5.759  1.3627  0.0378  0.6610
10329SOL     OW31885   3.390   2.451   1.039 -0.6942 -0.3152 -0.0508
10329SOL    HW131886   3.443   2.503   1.106 -0.9116  1.2188 -1.0352
10329SOL    HW231887   3.425   2.357   1.034  0.9132  0.2407  0.4244
10330SOL     OW31888   3.855   1.742   3.388 -0.2772  0.0308  0.0512
10330SOL    HW131889   3.800   1.710   3.466  1.2473  1.3365  1.7483
10330SOL    HW231890   3.833   1.837   3.369  2.3822  1.1533  1.8731
10331SOL     OW31891   0.183   2.581   0.092  0.2247  0.9877 -0.2242
10331SOL    HW131892   0.223   2.495   0.124 -1.5601  0.2240  0.0750
10331SOL    HW231893   0.243   2.621   0.023  0.5757 -1.0571 -1.1919
10332SOL     OW31894   0.135   0.685   4.226 -0.4240  0.1695 -0.1968
10332SOL    HW131895   0.222   0.716   4.188  0.1682 -0.6846  0.4250
10332SOL    HW231896   0.098   0.756   4.286 -0.4282  0.7480 -0.8639
10333SOL     OW31897   3.908   5.673   6.628 -0.6021 -0.4507  0.2571
10333SOL    HW131898   3.869   5.765   6.626  1.5482  0.5199 -1.5706
10333SOL    HW231899   3.994   5.674   6.678  0.6129 -0.8859 -1.7061
10334SOL     OW31900   5.202   5.218   0.049  0.8838 -0.0897 -0.5335
10334SOL    HW131901   5.263   5.281   0.096  0.8952  0.1328 -0.8436
10334SOL    HW231902   5.148   5.168   0.116  1.3305 -0.2116 -0.2636
10335SOL     OW31903   5.413   0.194   1.127  0.3631 -0.7572  0.5452
10335SOL    HW131904   5.467   0.207   1.044 -1.0856  1.7779 -0.0971
10335SOL    HW231905   5.461   0.235   1.205 -0.4197  1.3011  0.0125
10336SOL     OW31906   3.180   6.273   4.523 -0.5061 -0.3829 -0.0225
10336SOL    HW131907   3.277   6.289   4.543 -0.4709 -0.7414  0.0953
10336SOL    HW231908   3.132   6.250   4.607 -1.1394  1.9022  0.3156
10337SOL     OW31909   5.328   1.601   5.410  0.1556  0.2003 -0.3287
10337SOL    HW131910   5.283   1.644   5.488 -1.3344 -1.3128 -0.2986
10337SOL    HW231911   5.264   1.597   5.333  0.8771 -0.3071 -0.9113
10338SOL     OW31912   0.473   1.037   6.521  0.0347 -0.0104  0.0457
10338SOL    HW131913   0.436   1.089   6.444  0.3909 -0.8541 -0.7166
10338SOL    HW231914   0.572   1.049   6.525 -0.1537  1.3556  1.4074
10339SOL     OW31915   2.437   3.959   6.292 -0.3577 -0.3947  0.2732
10339SOL    HW131916   2.399   3.957   6.199 -3.1751 -0.5506  1.3269
10339SOL    HW231917   2.455   3.865   6.322 -0.8967 -0.4537  0.4186
10340SOL     OW31918   3.414   4.176   3.305 -0.1853 -0.6205 -0.2812
10340SOL    HW131919   3.462   4.258   3.336  1.7916 -1.3056 -1.3804
10340SOL    HW231920   3.394   4.184   3.207  0.9346 -1.8546 -0.6303
10341SOL     OW31921   4.929   2.444   4.483 -0.1257  0.2077 -0.3593
10341SOL    HW131922   4.840   2.400   4.477 -0.5676  0.3472  2.9759
10341SOL    HW231923   4.929   2.529   4.432 -2.0744  0.4131 -0.0711
10342SOL     OW31924   2.943   1.163   4.655 -0.1056 -0.2122  0.1686
10342SOL    HW131925   2.981   1.160   4.747  0.1225  1.1848  0.1324
10342SOL    HW231926   2.855   1.211   4.656  0.8926  1.7425 -0.6436
10343SOL     OW31927   1.666   0.975   4.356  0.0172 -0.1125  0.0819
10343SOL    HW131928   1.752   0.946   4.396 -0.0779  0.2262  0.5337
10343SOL    HW231929   1.683   1.045   4.287  0.2246 -1.0396 -0.8418
10344SOL     OW31930   2.076   4.630   4.047  0.0620  0.4601 -0.2325
10344SOL    HW131931   2.166   4.663   4.076 -0.2329  0.6745  0.4576
10344SOL    HW231932   2.069   4.532   4.064  0.3979  0.3124 -0.9016
10345SOL     OW31933   2.996   0.157   5.895  0.2952 -0.0927  0.4895
10345SOL    HW131934   3.016   0.176   5.991  1.0097 -3.1735  1.0634
10345SOL    HW231935   2.901   0.181   5.876  0.3728  1.3181  1.7216
10346SOL     OW31936   4.409   3.815   5.399  0.0413 -0.0709  0.0224
10346SOL    HW131937   4.316   3.849   5.388  1.1180  2.6458 -2.0269
10346SOL    HW231938   4.462   3.878   5.456  0.7117 -1.4528  0.9867
10347SOL     OW31939   5.838   5.903   3.136  0.3704  0.6541  0.7070
10347SOL    HW131940   5.812   5.929   3.043 -0.9418 -1.1694  0.5025
10347SOL    HW231941   5.914   5.960   3.167  1.2291  0.9219 -1.6922
10348SOL     OW31942   6.255   2.490   2.331  0.2026  0.0790 -0.5135
10348SOL    HW131943   6.327   2.556   2.354  0.5988  0.0125 -1.5127
10348SOL    HW231944   6.191   2.482   2.408  0.1364  1.6274 -0.3772
10349SOL     OW31945   2.496   1.768   4.461  0.4494 -0.0406  0.0076
10349SOL    HW131946   2.504   1.770   4.560  1.2382 -0.5268 -0.0436
10349SOL    HW231947   2.476   1.860   4.427  0.7132  0.2228  0.5664
10350SOL     OW31948   5.232   2.905   0.500 -0.4145  0.1944  0.1118
10350SOL    HW131949   5.275   2.842   0.435 -0.2427 -0.5093  0.8927
10350SOL    HW231950   5.284   2.990   0.504 -0.7907  0.5153 -1.1455
10351SOL     OW31951   6.276   3.283   3.557 -0.6683 -0.3261  0.5649
10351SOL    HW131952   6.250   3.315   3.466  0.3652  0.4062  0.5102
10351SOL    HW231953   6.352   3.338   3.591  0.5433 -2.1272  0.8642
10352SOL     OW31954   6.824   3.881   0.715 -0.2232  0.0480  0.3297
10352SOL    HW131955   6.902   3.828   0.681  0.2663  1.7006 -1.3280
10352SOL    HW231956   6.740   3.850   0.669 -0.5541 -1.5479  1.9159
10353SOL     OW31957   0.803   2.242   1.173 -0.2671  0.3212  0.2542
10353SOL    HW131958   0.781   2.276   1.081 -0.1758 -0.7271 -0.1710
10353SOL    HW231959   0.860   2.309   1.220  0.0455  0.6863 -0.6163
10354SOL     OW31960   0.699   5.338   0.834 -0.0348  0.0664  0.1732
10354SOL    HW131961   0.730   5.361   0.742  1.3818 -0.2344  0.5547
10354SOL    HW231962   0.719   5.242   0.853  0.8201  0.4359  1.2278
10355SOL     OW31963   1.155   3.213   2.895 -0.1592  0.2339 -0.3407
10355SOL    HW131964   1.169   3.311   2.882  2.5069 -0.1663 -1.2264
10355SOL    HW231965   1.060   3.190   2.875 -0.6143  2.4924 -1.0966
10356SOL     OW31966   2.485   3.979   5.788 -0.5282 -0.3305  0.6796
10356SOL    HW131967   2.533   3.892   5.776 -0.0582 -0.0662  0.6206
10356SOL    HW231968   2.406   3.966   5.848 -1.4626 -1.1622 -0.6673
10357SOL     OW31969   2.275   6.560   2.957  0.1811  0.0863  0.1312
10357SOL    HW131970   2.300   6.533   3.050  0.2122  2.2783  0.8069
10357SOL    HW231971   2.302   6.487   2.893  0.6357 -1.2316  1.7582
10358SOL     OW31972   6.408   0.592   2.726  0.2241  0.1879  0.5554
10358SOL    HW131973   6.410   0.665   2.794 -2.0263  0.8054  0.0282
10358SOL    HW231974   6.329   0.533   2.743  1.2407 -1.3438  0.1440
10359SOL     OW31975   2.930   3.917   6.030 -0.3304 -0.3277  0.5110
10359SOL    HW131976   2.837   3.880   6.026  0.0658 -1.2980 -0.1852
10359SOL    HW231977   2.930   4.012   6.000 -1.0196 -0.4876 -0.0091
10360SOL     OW31978   4.046   3.544   3.373  0.0622 -0.4402  0.1831
10360SOL    HW131979   4.072   3.631   3.415  2.6413 -1.5938  1.2327
10360SOL    HW231980   4.046   3.554   3.274  0.3097  0.7444  0.2822
10361SOL     OW31981   2.966   2.266   0.632  0.1917  0.1388 -0.6774
10361SOL    HW131982   3.062   2.285   0.611  0.5002  0.0481  0.5459
10361SOL    HW231983   2.920   2.351   0.656  0.4362 -0.0355  0.4692
10362SOL     OW31984   4.734   7.003   5.048 -0.5447  0.1229  0.4070
10362SOL    HW131985   4.752   6.918   5.097 -0.8736 -0.1408  0.0747
10362SOL    HW231986   4.639   7.006   5.019  0.1821 -0.8567 -2.3246
10363SOL     OW31987   2.589   0.465   2.308 -0.8733 -0.6601 -0.2291
10363SOL    HW131988   2.558   0.560   2.322 -1.4624 -1.0107  0.9475
10363SOL    HW231989   2.689   0.463   2.304 -0.7376 -0.2405  1.9839
10364SOL     OW31990   3.993   6.747   6.885 -0.0112 -0.4087  0.4002
10364SOL    HW131991   3.990   6.846   6.875  1.9654 -0.5039 -1.9699
10364SOL    HW231992   4.070   6.722   6.944 -0.7476 -0.5834  1.3303
10365SOL     OW31993   3.169   1.131   3.880 -0.5358  0.2233 -0.4528
10365SOL    HW131994   3.202   1.171   3.966 -1.7043 -1.2392  0.7281
10365SOL    HW231995   3.242   1.076   3.839 -0.5294 -0.5579  0.5684
10366SOL     OW31996   2.218   1.210   4.345  0.6911  0.2126  0.0115
10366SOL    HW131997   2.297   1.270   4.356 -0.5067  1.8590 -0.0260
10366SOL    HW231998   2.150   1.230   4.415 -0.4279  0.0414 -0.9944
10367SOL     OW31999   1.900   6.714   1.978 -0.2491 -0.1428  0.2807
10367SOL    HW132000   1.865   6.675   1.893  0.8717 -0.8041  0.1084
10367SOL    HW232001   1.898   6.645   2.050 -0.6218  0.2346  0.6350
10368SOL     OW32002   3.005   6.865   6.436  0.2137 -0.1622 -0.4472
10368SOL    HW132003   3.060   6.814   6.502  0.1900  1.0565  0.5559
10368SOL    HW232004   3.031   6.840   6.344 -0.2450 -2.4510 -0.0061
10369SOL     OW32005   2.749   6.566   5.134  0.4021  0.0369 -0.0843
10369SOL    HW132006   2.826   6.509   5.164 -0.6113 -0.8157  1.0118
10369SOL    HW232007   2.766   6.600   5.042  1.8883 -0.5046 -0.0295
10370SOL     OW32008   2.204   6.311   2.257 -0.1167  0.6259  0.1490
10370SOL    HW132009   2.118   6.266   2.280  0.4164 -0.7701 -0.4555
10370SOL    HW232010   2.214   6.395   2.310 -0.5379 -0.6507  2.3601
10371SOL     OW32011   6.827   5.996   0.622  0.2837  0.1820  0.0237
10371SOL    HW132012   6.784   6.028   0.707 -0.0399  0.1517 -0.1253
10371SOL    HW232013   6.847   5.899   0.629  2.6438  0.6905  1.0512
10372SOL     OW32014   4.601   0.641   3.958 -0.2104 -0.3517 -0.2051
10372SOL    HW132015   4.592   0.619   4.055 -3.6115  1.9623  0.1623
10372SOL    HW232016   4.516   0.621   3.910  0.9940 -0.3593 -2.5112
10373SOL     OW32017   3.640   1.815   2.657 -0.5424 -0.1455  0.4548
10373SOL    HW132018   3.616   1.884   2.725  0.9926 -0.1832  1.0839
10373SOL    HW232019   3.689   1.858   2.582 -0.2538 -0.4220  0.4798
10374SOL     OW32020   3.089   2.027   2.460 -0.7844  0.1300  0.2287
10374SOL    HW132021   3.090   1.928   2.446  0.0780  0.2093 -0.3604
10374SOL    HW232022   3.098   2.073   2.372  2.1822  0.6857  0.7349
10375SOL     OW32023   2.599   6.395   2.039  0.3099  0.3640  0.3869
10375SOL    HW132024   2.652   6.311   2.046 -0.1160  0.2051  2.8551
10375SOL    HW232025   2.638   6.464   2.101  0.3711  1.8443 -1.2397
10376SOL     OW32026   3.208   1.806   4.335  0.0649 -0.5975 -0.0784
10376SOL    HW132027   3.303   1.813   4.363 -0.2052 -0.0856  0.7427
10376SOL    HW232028   3.171   1.897   4.316 -0.4257 -0.7338  0.1887
10377SOL     OW32029   2.958   0.296   0.499  0.0803  0.3268 -0.5233
10377SOL    HW132030   2.861   0.302   0.477 -0.0635  0.9221  0.2343
10377SOL    HW232031   2.997   0.388   0.502  0.2794  0.2220  0.8451
10378SOL     OW32032   6.217   1.153   1.409 -0.4490 -0.5592  0.0905
10378SOL    HW132033   6.241   1.240   1.453 -2.9455 -0.7000  1.9485
10378SOL    HW232034   6.287   1.085   1.429  0.1024  0.2715  1.0727
10379SOL     OW32035   2.549   2.256   0.007 -0.0184  0.2657 -0.0408
10379SOL    HW132036   2.468   2.198  -0.000 -0.3472  0.7852 -0.5753
10379SOL    HW232037   2.618   2.210   0.064 -0.0502 -0.8921 -0.9027
10380SOL     OW32038   2.318   2.422   2.466  0.5145  0.1900  0.2145
10380SOL    HW132039   2.326   2.501   2.527 -1.3937  0.1972  0.5046
10380SOL    HW232040   2.280   2.451   2.379  0.6115 -0.2739  0.0147
10381SOL     OW32041   0.982   6.989   6.256 -0.1758  0.1593  0.1116
10381SOL    HW132042   0.920   7.061   6.287 -0.6396 -0.7317  1.3106
10381SOL    HW232043   1.066   7.030   6.222 -1.6253  1.4467 -2.1793
10382SOL     OW32044   5.100   6.097   1.457 -0.1592  0.5197  0.5148
10382SOL    HW132045   5.048   6.181   1.440 -1.6613 -0.3223  0.7306
10382SOL    HW232046   5.146   6.069   1.373 -0.7771  0.8159  0.0648
10383SOL     OW32047   4.174   4.948   0.441 -0.4013 -0.1447  0.2117
10383SOL    HW132048   4.268   4.965   0.470  0.7212 -1.3816 -2.4042
10383SOL    HW232049   4.155   4.999   0.357 -2.6059  1.1691  1.3861
10384SOL     OW32050   5.296   6.396   4.764 -0.3638  0.1423 -0.1146
10384SOL    HW132051   5.200   6.387   4.791 -1.4552 -1.0165 -3.7431
10384SOL    HW232052   5.304   6.462   4.689  1.5235 -0.4555 -0.4997
10385SOL     OW32053   1.138   3.323   7.021 -0.0379  0.4441 -0.0207
10385SOL    HW132054   1.104   3.330   7.115  0.4214  2.6319  0.0609
10385SOL    HW232055   1.083   3.258   6.970 -1.0054  0.0355  1.4655
10386SOL     OW32056   5.012   6.247   3.029 -0.2031  0.6975  0.6472
10386SOL    HW132057   4.916   6.240   3.002  0.0784  1.1941 -0.5545
10386SOL    HW232058   5.019   6.243   3.128 -1.4789  0.8045  0.7596
10387SOL     OW32059   4.578   0.079   3.273 -0.0142 -0.0187  0.1043
10387SOL    HW132060   4.532   0.167   3.284  1.3673  0.7993 -0.4408
10387SOL    HW232061   4.523   0.020   3.213 -1.4506  0.0650  1.2862
10388SOL     OW32062   2.339   6.122   5.344 -0.2477  0.1385  0.2526
10388SOL    HW132063   2.268   6.188   5.318 -0.7317 -0.3943  0.2060
10388SOL    HW232064   2.352   6.057   5.269 -0.7326 -0.6323  0.8275
10389SOL     OW32065   4.414   4.798   0.891  0.2011  0.5505  0.5712
10389SOL    HW132066   4.369   4.766   0.975 -0.3269  1.5855  0.7007
10389SOL    HW232067   4.393   4.735   0.816 -0.9067  0.6301  0.7887
10390SOL     OW32068   4.763   1.666   4.138 -0.2992 -0.1471 -0.1696
10390SOL    HW132069   4.825   1.596   4.102  0.2289  0.3898 -0.3170
10390SOL    HW232070   4.805   1.712   4.216  0.5444  1.8578 -1.7226
10391SOL     OW32071   0.306   5.621   3.024 -0.4328 -0.6260 -0.0607
10391SOL    HW132072   0.373   5.684   2.984 -0.0342  0.2308  1.8160
10391SOL    HW232073   0.340   5.528   3.017  0.5256 -0.2934  0.0126
10392SOL     OW32074   4.735   1.504   5.822 -0.1657  0.3628 -0.5033
10392SOL    HW132075   4.647   1.457   5.826  0.1359 -0.4114 -2.2990
10392SOL    HW232076   4.799   1.459   5.885 -1.0824  1.0814  0.9960
10393SOL     OW32077   0.642   6.455   6.083 -0.6108 -0.1778  0.5337
10393SOL    HW132078   0.737   6.424   6.073  0.7724  3.9348 -1.6521
10393SOL    HW232079   0.597   6.451   5.994 -0.6935  2.5503  0.3619
10394SOL     OW32080   2.406   5.287   6.124 -0.1651  0.1034 -0.3115
10394SOL    HW132081   2.364   5.378   6.125  0.4207  0.4407 -2.3626
10394SOL    HW232082   2.498   5.292   6.163  0.5246  0.7792 -1.9549
10395SOL     OW32083   6.507   0.211   1.596 -0.1638 -0.1235  0.8105
10395SOL    HW132084   6.440   0.151   1.552 -0.2803  1.8361 -1.8843
10395SOL    HW232085   6.581   0.156   1.634 -0.6496 -2.0364 -0.8597
10396SOL     OW32086   0.949   0.675   6.391 -0.2283 -0.1626  0.4737
10396SOL    HW132087   0.899   0.740   6.447 -1.9558 -0.8729 -0.1777
10396SOL    HW232088   1.035   0.651   6.436  1.2835  3.7014  0.0324
10397SOL     OW32089   1.843   6.237   5.704  0.2311 -1.3861 -0.3796
10397SOL    HW132090   1.880   6.184   5.628  3.0753 -1.0125  0.6179
10397SOL    HW232091   1.823   6.176   5.781  2.0067 -1.3059  0.2095
10398SOL     OW32092   5.935   1.458   6.674  0.2041  0.3697 -0.1306
10398SOL    HW132093   5.836   1.454   6.657  0.1526 -1.1816  0.3820
10398SOL    HW232094   5.981   1.391   6.615  0.6384 -0.8258  1.4848
10399SOL     OW32095   4.414   2.653   1.000 -0.6258 -0.4597  0.4182
10399SOL    HW132096   4.355   2.732   0.981 -0.5838 -1.1772 -3.7483
10399SOL    HW232097   4.508   2.684   1.011 -0.6621  0.1599 -0.8158
10400SOL     OW32098   4.254   4.482   5.976 -0.0861 -0.3942 -0.4789
10400SOL    HW132099   4.208   4.459   6.063  1.4372  1.3438  0.8665
10400SOL    HW232100   4.204   4.557   5.932 -0.3974 -0.7341 -0.7133
10401SOL     OW32101   4.916   4.465   1.126  0.5090  0.1918  0.3654
10401SOL    HW132102   4.991   4.398   1.126  0.3750  0.0323  1.0415
10401SOL    HW232103   4.904   4.501   1.219 -0.2201  0.2477  0.2539
10402SOL     OW32104   0.074   4.119   3.085  0.1054 -0.1722 -0.1769
10402SOL    HW132105   0.051   4.042   3.145  1.7702  1.0644  2.2206
10402SOL    HW232106   0.138   4.089   3.015 -0.2079 -1.2420 -0.0176
10403SOL     OW32107   2.750   5.252   4.848 -0.4396 -0.1494 -0.3830
10403SOL    HW132108   2.813   5.174   4.849 -3.2270 -2.5625 -1.2572
10403SOL    HW232109   2.796   5.331   4.806  2.4012 -1.3176  0.2738
10404SOL     OW32110   2.920   0.245   0.908  0.1526 -0.4056 -0.5926
10404SOL    HW132111   2.958   0.167   0.859  0.3946 -0.9276  0.4109
10404SOL    HW232112   2.966   0.329   0.878  1.8206 -0.9665  0.2797
10405SOL     OW32113   5.450   1.587   0.054 -0.0607  0.5050 -0.5690
10405SOL    HW132114   5.429   1.578  -0.043 -0.5185  1.4833 -0.5771
10405SOL    HW232115   5.549   1.587   0.066  0.0092  0.7700 -1.0917
10406SOL     OW32116   2.510   1.828   3.756 -0.2940  0.4596  0.1943
10406SOL    HW132117   2.606   1.830   3.729 -0.0389 -2.1160  0.6844
10406SOL    HW232118   2.471   1.920   3.745  2.0823  1.4926 -0.3692
10407SOL     OW32119   4.287   6.848   3.978 -0.2571  0.6948 -0.0645
10407SOL    HW132120   4.342   6.808   3.905 -2.9647 -0.6984 -1.4942
10407SOL    HW232121   4.207   6.893   3.939 -1.5180  0.4152  2.0229
10408SOL     OW32122   6.132   5.682   4.362  0.0180 -0.2750 -0.9465
10408SOL    HW132123   6.167   5.775   4.358 -0.7816  0.1317  0.7389
10408SOL    HW232124   6.050   5.675   4.305 -0.7456  0.4637  0.0289
10409SOL     OW32125   1.419   4.529   2.826 -0.2132  0.3050 -0.1622
10409SOL    HW132126   1.361   4.610   2.813 -1.1562 -0.2927  0.1893
10409SOL    HW232127   1.417   4.502   2.922 -0.2607 -0.3881 -0.3508
10410SOL     OW32128   5.267   0.163   6.142 -0.0982  0.0398  0.5464
10410SOL    HW132129   5.343   0.195   6.086  0.8561 -0.8511  1.2891
10410SOL    HW232130   5.234   0.239   6.200 -1.5677  1.1715 -1.6327
10411SOL     OW32131   5.463   6.766   2.071  0.5238 -0.2982 -0.4733
10411SOL    HW132132   5.369   6.777   2.038  0.6737  0.7997 -0.5634
10411SOL    HW232133   5.486   6.669   2.073 -0.1662 -0.5176 -1.7410
10412SOL     OW32134   6.826   2.485   4.279 -0.2861 -0.3862  0.0001
10412SOL    HW132135   6.765   2.546   4.228  0.6796  1.0777  0.5375
10412SOL    HW232136   6.800   2.486   4.376  0.8088  0.5588  0.2981
10413SOL     OW32137   6.871   5.251   6.504  0.5222 -0.0768  0.1183
10413SOL    HW132138   6.789   5.193   6.492  0.5527  0.2117 -1.7520
10413SOL    HW232139   6.887   5.264   6.602 -0.2959 -2.0769  0.5934
10414SOL     OW32140   3.909   4.629   1.031 -0.8908 -0.8325 -0.5375
10414SOL    HW132141   3.907   4.562   1.104 -0.6493 -0.8959 -0.5890
10414SOL    HW232142   4.004   4.655   1.012 -1.0708  1.5179  1.3171
10415SOL     OW32143   2.272   4.199   1.901  0.2323 -0.1380  0.1284
10415SOL    HW132144   2.353   4.216   1.845 -0.0386 -0.3645 -0.3412
10415SOL    HW232145   2.225   4.286   1.918  2.0461  0.4440  2.7423
10416SOL     OW32146   2.360   2.630   4.070  0.1363  0.2447 -0.6215
10416SOL    HW132147   2.447   2.587   4.092 -1.2560 -1.8582  1.1928
10416SOL    HW232148   2.335   2.608   3.975  1.9456  1.6557 -1.4715
10417SOL     OW32149   1.281   4.114   0.805  0.2826  0.2139  0.2232
10417SOL    HW132150   1.299   4.178   0.880  1.2635  1.0933 -0.7308
10417SOL    HW232151   1.182   4.112   0.786  0.1106  0.5554  1.0246
10418SOL     OW32152   1.436   5.323   4.346 -0.3638 -0.4340  0.2681
10418SOL    HW132153   1.512   5.259   4.336 -0.3781 -0.2864 -0.8618
10418SOL    HW232154   1.449   5.377   4.429  1.8523  0.9875 -0.8959
10419SOL     OW32155   4.405   5.539   4.484 -0.4321  0.0959  0.0472
10419SOL    HW132156   4.488   5.576   4.442  0.4114 -2.1736 -0.4378
10419SOL    HW232157   4.390   5.585   4.572  2.7074 -0.9265  1.2902
10420SOL     OW32158   6.635   3.216   4.308  0.0151 -0.3434  0.4761
10420SOL    HW132159   6.690   3.299   4.294  0.0673 -0.6151 -1.1721
10420SOL    HW232160   6.558   3.216   4.245  0.6115 -2.0272 -0.3219
10421SOL     OW32161   6.992   4.966   0.743  0.6393  0.8391  0.3821
10421SOL    HW132162   7.046   4.882   0.736  1.0807  1.0964  0.6709
10421SOL    HW232163   6.946   4.984   0.656  2.5482  1.6594 -0.5126
10422SOL     OW32164   5.866   0.369   4.748  0.6991  0.2610 -0.0017
10422SOL    HW132165   5.825   0.319   4.824 -0.2378 -0.3714 -0.9029
10422SOL    HW232166   5.815   0.454   4.731  0.0862 -0.2431 -0.7519
10423SOL     OW32167   6.881   4.574   1.676 -0.0147 -0.2378 -0.0753
10423SOL    HW132168   6.873   4.611   1.769 -2.0072  2.4583 -1.1918
10423SOL    HW232169   6.819   4.496   1.666 -1.2677  0.6667  0.3685
10424SOL     OW32170   1.399   1.934   0.056  0.3620 -0.0646  0.1188
10424SOL    HW132171   1.442   2.020   0.027  2.7285 -1.8554 -2.0287
10424SOL    HW232172   1.445   1.900   0.137  1.0609 -0.5057 -0.4570
10425SOL     OW32173   4.061   6.396   6.764  0.2895  0.4704 -0.4237
10425SOL    HW132174   4.129   6.388   6.836  0.8989 -0.0273 -1.0449
10425SOL    HW232175   4.003   6.476   6.782 -0.3139 -0.2836  1.2151
10426SOL     OW32176   1.747   1.136   4.925 -0.4052 -0.3161  0.4418
10426SOL    HW132177   1.801   1.218   4.904 -1.5042  0.3825  0.2570
10426SOL    HW232178   1.770   1.104   5.017 -0.4550  0.6253  0.7939
10427SOL     OW32179   6.821   6.679   2.643 -0.4675  0.0281 -0.2600
10427SOL    HW132180   6.824   6.693   2.742 -1.6319  0.6976 -0.2967
10427SOL    HW232181   6.879   6.746   2.598  0.5405 -0.6583 -0.0136
10428SOL     OW32182   4.631   5.148   1.525  0.0539  0.4669 -0.1157
10428SOL    HW132183   4.576   5.069   1.553 -1.5984  1.6441  0.1101
10428SOL    HW232184   4.643   5.147   1.426  0.3916 -0.2564 -0.0792
10429SOL     OW32185   4.140   2.197   4.946  0.0634  0.1059 -0.1476
10429SOL    HW132186   4.205   2.271   4.964  1.6555 -0.7415 -1.9405
10429SOL    HW232187   4.078   2.224   4.873  1.2967 -0.5856 -1.5242
10430SOL     OW32188   2.429   1.449   5.156  0.0806 -0.0099  0.2474
10430SOL    HW132189   2.448   1.547   5.159  0.0717  0.1550 -2.2618
10430SOL    HW232190   2.356   1.427   5.221 -0.6442  1.8550  0.1352
10431SOL     OW32191   3.232   4.880   2.539  0.1829  0.2752  0.0506
10431SOL    HW132192   3.188   4.824   2.468  1.0216  0.7183 -0.8364
10431SOL    HW232193   3.180   4.965   2.551 -0.0968  0.0934  0.1463
10432SOL     OW32194   2.207   4.408   6.252 -0.7870 -0.3883 -0.0315
10432SOL    HW132195   2.121   4.435   6.209 -0.8130 -0.2045  0.1325
10432SOL    HW232196   2.249   4.334   6.199 -0.9811 -0.3910 -0.1841
10433SOL     OW32197   4.820   2.291   2.815 -0.3688  0.2372  0.5252
10433SOL    HW132198   4.891   2.308   2.748 -1.5730  1.1055 -0.5658
10433SOL    HW232199   4.786   2.197   2.803  0.6723 -0.2489  1.1740
10434SOL     OW32200   0.886   5.879   1.157  0.3158 -0.2946 -0.5160
10434SOL    HW132201   0.983   5.896   1.143  0.0733  0.4009 -1.5059
10434SOL    HW232202   0.855   5.807   1.095  0.3433 -1.0688  0.3411
10435SOL     OW32203   2.229   6.083   6.717 -0.1583 -0.1906  0.1474
10435SOL    HW132204   2.150   6.085   6.655 -0.3383 -2.4181  0.2104
10435SOL    HW232205   2.201   6.116   6.807 -0.9146 -0.5421  0.0478
10436SOL     OW32206   4.180   1.234   1.788 -0.0437 -0.1305  0.1726
10436SOL    HW132207   4.170   1.290   1.871 -1.9185  0.6058 -0.4954
10436SOL    HW232208   4.112   1.160   1.790 -1.6474  1.1876 -1.6457
10437SOL     OW32209   2.294   1.579   4.205 -0.3339  0.5868 -0.2374
10437SOL    HW132210   2.334   1.670   4.197  0.5078  0.2113 -0.4101
10437SOL    HW232211   2.303   1.531   4.117  0.8815 -0.3182  0.3524
10438SOL     OW32212   1.898   6.163   6.090 -0.2369  0.3684 -0.0379
10438SOL    HW132213   1.940   6.193   6.175  0.0653  0.4887 -0.2288
10438SOL    HW232214   1.800   6.147   6.105  0.1623 -1.5022  0.8074
10439SOL     OW32215   1.341   3.744   2.403 -0.3715 -0.2121 -0.2350
10439SOL    HW132216   1.367   3.661   2.454  0.3775 -0.8897 -1.6731
10439SOL    HW232217   1.263   3.787   2.448  0.6981 -0.3619  1.9100
10440SOL     OW32218   5.309   4.733   2.436  0.7051  0.2152 -0.0362
10440SOL    HW132219   5.213   4.754   2.420  0.1886 -1.2774  0.8278
10440SOL    HW232220   5.317   4.676   2.519  2.3484  0.4863  0.0217
10441SOL     OW32221   1.507   3.492   0.857 -0.0542  0.8444 -0.0060
10441SOL    HW132222   1.587   3.527   0.906  0.5790 -1.5191  0.7425
10441SOL    HW232223   1.529   3.479   0.761  0.7861 -0.6842  0.3768
10442SOL     OW32224   2.766   5.425   3.827 -0.1485  0.3982 -0.2211
10442SOL    HW132225   2.811   5.340   3.853 -0.6696  0.2987  0.3866
10442SOL    HW232226   2.690   5.405   3.765 -0.3439  0.4098  0.0149
10443SOL     OW32227   2.160   5.793   3.690  0.1315 -0.4452 -0.3960
10443SOL    HW132228   2.160   5.764   3.594 -0.2637  0.8244 -0.7946
10443SOL    HW232229   2.251   5.780   3.729 -0.2858 -3.4379 -0.1267
10444SOL     OW32230   3.135   0.181   4.047  0.7657  0.0630 -0.3198
10444SOL    HW132231   3.158   0.100   3.993  1.1031  0.2868 -0.5187
10444SOL    HW232232   3.184   0.260   4.011  0.2488  0.4059 -0.2755
10445SOL     OW32233   6.616   3.013   0.011 -0.3074 -0.4577  0.0688
10445SOL    HW132234   6.664   2.953   0.075  0.8367  2.5526  2.2700
10445SOL    HW232235   6.544   2.961  -0.035 -0.7909 -2.9968  3.2958
10446SOL     OW32236   2.172   6.835   0.328  0.5038 -0.5877 -0.1217
10446SOL    HW132237   2.172   6.913   0.392  0.1170 -0.2142 -0.5668
10446SOL    HW232238   2.238   6.767   0.359  0.2835 -0.4390  0.7126
10447SOL     OW32239   0.871   4.579   1.476  0.2712  0.5430  0.1527
10447SOL    HW132240   0.784   4.600   1.520  0.0116 -0.9666  0.4243
10447SOL    HW232241   0.945   4.624   1.525  0.1245 -1.8968  2.9377
10448SOL     OW32242   6.081   4.352   6.771 -0.6807  0.4525  0.1300
10448SOL    HW132243   6.080   4.339   6.672  1.2127 -1.5248  0.2968
10448SOL    HW232244   5.992   4.325   6.809 -0.8342 -0.5454 -0.8736
10449SOL     OW32245   0.361   2.910   2.189 -0.0222  0.0667 -0.0749
10449SOL    HW132246   0.392   2.818   2.214  0.5036  0.1346 -0.4615
10449SOL    HW232247   0.309   2.950   2.265  1.6146  0.3044  0.9597
10450SOL     OW32248   3.660   6.396   0.554 -0.0464 -0.0775 -0.4543
10450SOL    HW132249   3.700   6.305   0.566  0.8328  0.2267 -0.9901
10450SOL    HW232250   3.596   6.414   0.629  1.5179 -0.2123  0.9719
10451SOL     OW32251   1.692   4.725   6.403 -0.2401 -0.5274 -0.5384
10451SOL    HW132252   1.736   4.671   6.332 -2.1206 -2.0569 -0.6273
10451SOL    HW232253   1.752   4.732   6.483  0.7001 -1.3560 -1.1568
10452SOL     OW32254   4.605   4.182   1.629  0.0771 -0.0923  0.7216
10452SOL    HW132255   4.567   4.157   1.540  0.1092 -0.0175  0.6862
10452SOL    HW232256   4.531   4.192   1.695  0.0010  0.3922  0.5690
10453SOL     OW32257   1.692   4.038   2.493 -0.5991  0.2109 -0.5844
10453SOL    HW132258   1.756   3.974   2.450 -0.3886  0.1503 -0.1818
10453SOL    HW232259   1.627   4.071   2.424 -0.7161 -0.4416 -0.7921
10454SOL     OW32260   1.094   0.059   1.093  0.4054 -0.2450 -0.2623
10454SOL    HW132261   1.166   0.015   1.147  0.3573 -0.1807 -0.1469
10454SOL    HW232262   1.025   0.098   1.154  0.3222 -0.2218 -0.3708
10455SOL     OW32263   6.701   4.260   1.246  0.0848 -0.1237 -0.1393
10455SOL    HW132264   6.653   4.257   1.158  0.7968  0.7724 -0.5829
10455SOL    HW232265   6.708   4.355   1.277 -1.7923 -0.5659  1.8382
10456SOL     OW32266   4.101   1.193   6.997  0.5559  0.0246 -0.1135
10456SOL    HW132267   4.060   1.102   6.983  1.1081 -0.3919  0.9056
10456SOL    HW232268   4.038   1.263   6.963  0.7803 -0.7848 -2.4061
10457SOL     OW32269   2.337   1.601   3.720 -0.2949 -0.7782  0.1600
10457SOL    HW132270   2.257   1.623   3.664 -1.2745 -3.0219  0.5437
10457SOL    HW232271   2.379   1.685   3.753 -2.1323  0.4902 -0.5550
10458SOL     OW32272   2.841   3.518   1.877  0.6944  0.0450 -0.1346
10458SOL    HW132273   2.755   3.519   1.826 -0.0481 -1.2473  1.0141
10458SOL    HW232274   2.917   3.533   1.814 -0.3844  1.7840 -1.0936
10459SOL     OW32275   5.105   1.683   4.744  0.0328 -0.0679 -0.2127
10459SOL    HW132276   5.110   1.720   4.836  0.8907 -2.8034  0.9207
10459SOL    HW232277   5.023   1.718   4.698 -0.2162  1.6083  1.4115
10460SOL     OW32278   3.613   0.106   3.054 -0.6668  0.3009 -0.2419
10460SOL    HW132279   3.669   0.137   2.977 -0.5607  1.8389  0.4266
10460SOL    HW232280   3.628   0.008   3.068  0.9131  0.4194 -0.8690
10461SOL     OW32281   4.263   1.814   5.208 -0.5290  0.5489 -0.8941
10461SOL    HW132282   4.321   1.875   5.262 -0.1795 -0.6980  0.1896
10461SOL    HW232283   4.169   1.818   5.243 -0.1960 -0.6665  0.2273
10462SOL     OW32284   0.816   5.361   4.596  0.3733  0.1570  0.5464
10462SOL    HW132285   0.836   5.314   4.682  0.7457  2.1699  1.6217
10462SOL    HW232286   0.825   5.459   4.609 -1.0092  0.6062 -1.4414
10463SOL     OW32287   4.910   5.973   5.582  0.1701  0.2676 -0.6238
10463SOL    HW132288   4.849   5.894   5.590  2.4904 -1.6289 -0.5800
10463SOL    HW232289   4.871   6.039   5.517 -2.8372  0.1458  0.9143
10464SOL     OW32290   2.288   5.820   1.331 -0.0373  0.2276 -0.1237
10464SOL    HW132291   2.371   5.874   1.350  0.9327  0.1655 -3.4054
10464SOL    HW232292   2.303   5.725   1.358  1.0099  0.2162 -0.6708
10465SOL     OW32293   1.574   6.242   0.830 -0.4687  0.0990  0.5290
10465SOL    HW132294   1.554   6.339   0.814 -1.1445 -0.2737 -1.0169
10465SOL    HW232295   1.650   6.213   0.771  0.3031 -0.1324  1.5961
10466SOL     OW32296   2.044   1.009   1.431 -0.4737 -0.6935 -0.2353
10466SOL    HW132297   2.008   0.938   1.492  0.5522 -0.9875  0.0481
10466SOL    HW232298   1.968   1.054   1.384 -1.1270 -2.5256 -1.0331
10467SOL     OW32299   5.331   3.648   3.092 -0.0315  0.7014  0.4937
10467SOL    HW132300   5.240   3.635   3.053 -0.2087 -1.9282  1.5900
10467SOL    HW232301   5.323   3.679   3.186  0.2419  1.1509  0.3717
10468SOL     OW32302   3.731   4.859   2.321 -0.7072 -0.3930 -0.2040
10468SOL    HW132303   3.669   4.818   2.254 -1.6180 -0.2624  0.5348
10468SOL    HW232304   3.825   4.834   2.300 -1.0786 -1.2274 -0.9045
10469SOL     OW32305   5.128   1.532   6.435  0.2765 -0.0281  0.6750
10469SOL    HW132306   5.077   1.447   6.427  0.1834  0.0463  0.4937
10469SOL    HW232307   5.158   1.544   6.530 -1.8609  0.9759  1.2909
10470SOL     OW32308   2.287   2.862   3.018  0.4880 -0.0548  0.1478
10470SOL    HW132309   2.281   2.893   2.923 -2.9292 -0.3653  0.1369
10470SOL    HW232310   2.275   2.940   3.079  2.0603  0.0474  0.3714
10471SOL     OW32311   2.377   6.852   6.266  0.1257 -0.5911 -0.3369
10471SOL    HW132312   2.335   6.854   6.176 -1.7135 -1.8405  0.4269
10471SOL    HW232313   2.419   6.940   6.286 -2.1608  0.7711 -1.1904
10472SOL     OW32314   6.973   7.011   6.714 -0.2050 -0.0951 -0.1658
10472SOL    HW132315   6.961   6.938   6.782  3.6215  0.1869  1.0462
10472SOL    HW232316   7.047   6.986   6.651  0.0712  2.0136 -0.7401
10473SOL     OW32317   4.295   6.635   1.145  0.7567  0.0827 -0.3721
10473SOL    HW132318   4.261   6.654   1.053  0.5561  1.2849 -0.0740
10473SOL    HW232319   4.395   6.632   1.144  0.7298 -1.1204 -0.8336
10474SOL     OW32320   5.110   0.166   3.293 -0.3625  0.0217 -0.6778
10474SOL    HW132321   5.061   0.087   3.331 -0.1078  0.4226  0.5016
10474SOL    HW232322   5.124   0.234   3.364 -2.2599  2.0273 -2.0674
10475SOL     OW32323   6.843   5.742   1.396  0.1951  0.2184  0.4466
10475SOL    HW132324   6.879   5.681   1.326 -0.9713 -1.3169  1.1289
10475SOL    HW232325   6.747   5.763   1.376  0.7505  2.4698 -0.1655
10476SOL     OW32326   5.505   6.053   0.855  0.4478  0.4521  0.1837
10476SOL    HW132327   5.604   6.064   0.849  0.3455  0.7320 -1.3638
10476SOL    HW232328   5.469   6.024   0.766 -0.5633 -2.3321  1.3791
10477SOL     OW32329   0.860   0.890   0.715  0.3688  0.3349 -0.1418
10477SOL    HW132330   0.847   0.924   0.808  0.2283  0.8144 -0.3316
10477SOL    HW232331   0.773   0.855   0.680  0.8872 -1.9858  0.7194
10478SOL     OW32332   2.825   5.655   1.622 -0.2281 -0.0452 -0.0626
10478SOL    HW132333   2.904   5.635   1.564 -1.0488 -1.2013 -0.8206
10478SOL    HW232334   2.838   5.612   1.712  0.1754  0.0994 -0.0514
10479SOL     OW32335   0.919   6.638   5.525  0.2272  0.2326  0.1495
10479SOL    HW132336   0.974   6.554   5.530  0.7048  0.5873  1.0384
10479SOL    HW232337   0.849   6.627   5.454 -0.1458 -1.1739  0.6976
10480SOL     OW32338   4.319   2.661   1.684  0.3289  0.3227  0.2646
10480SOL    HW132339   4.271   2.574   1.679  0.1336  0.3548  1.3895
10480SOL    HW232340   4.417   2.646   1.671  0.1811  0.0890 -0.6706
10481SOL     OW32341   4.620   2.253   1.722 -0.2007  0.0722 -0.2114
10481SOL    HW132342   4.672   2.232   1.805 -1.0821  0.3379  0.4198
10481SOL    HW232343   4.658   2.201   1.645  1.0627  0.3420  0.2035
10482SOL     OW32344   6.528   0.803   6.896 -0.3090 -0.0773 -0.2101
10482SOL    HW132345   6.456   0.744   6.862  0.1552 -0.3764 -0.6824
10482SOL    HW232346   6.581   0.755   6.966 -1.2342  0.5209  0.9219
10483SOL     OW32347   2.582   3.242   6.796  0.0807 -0.1812 -0.1945
10483SOL    HW132348   2.518   3.191   6.738 -0.7041 -0.8822  1.2464
10483SOL    HW232349   2.543   3.331   6.818 -0.6352 -0.7827  1.0513
10484SOL     OW32350   0.150   0.965   5.686  0.6784 -0.3520  0.2233
10484SOL    HW132351   0.068   0.928   5.730 -1.2656  1.8541 -1.2908
10484SOL    HW232352   0.167   1.058   5.717  2.5818 -0.6989  0.3828
10485SOL     OW32353   2.381   4.940   1.464  0.1717  0.0082  0.2443
10485SOL    HW132354   2.417   4.971   1.376 -0.6283  0.7329  0.1551
10485SOL    HW232355   2.441   4.869   1.501  0.3542 -0.5540 -1.0404
10486SOL     OW32356   5.950   5.482   5.615  0.0290  0.9171  0.3859
10486SOL    HW132357   5.946   5.382   5.618  0.7521  0.9003  2.2816
10486SOL    HW232358   5.868   5.517   5.570  0.7343 -0.5617 -2.2303
10487SOL     OW32359   3.617   6.755   2.996 -0.2938  0.2297  0.0818
10487SOL    HW132360   3.543   6.781   3.059 -0.8573  0.4361 -0.6548
10487SOL    HW232361   3.619   6.655   2.988 -0.1628  0.1972  0.4933
10488SOL     OW32362   3.666   4.069   2.078  0.1081  0.1735  0.3837
10488SOL    HW132363   3.758   4.041   2.050 -0.4542  0.2425 -1.6895
10488SOL    HW232364   3.663   4.167   2.092 -0.4518  0.9129 -3.5717
10489SOL     OW32365   3.266   5.273   2.884 -0.1895  0.6432  0.2426
10489SOL    HW132366   3.334   5.259   2.812  0.2763  1.1785  0.5707
10489SOL    HW232367   3.308   5.257   2.973 -0.7637 -0.0233  0.4003
10490SOL     OW32368   4.520   1.699   4.818  0.4699  0.1878  0.4761
10490SOL    HW132369   4.449   1.750   4.865 -2.0153 -1.5479 -1.1587
10490SOL    HW232370   4.500   1.695   4.720  0.9774 -3.0901  0.3809
10491SOL     OW32371   3.232   2.689   1.719  0.3215  0.3865  0.2780
10491SOL    HW132372   3.301   2.720   1.784 -0.6713 -1.6092  2.4080
10491SOL    HW232373   3.226   2.590   1.720  0.9835  0.1081 -3.7567
10492SOL     OW32374   7.012   6.250   0.925 -0.3568  0.5263  0.0093
10492SOL    HW132375   7.041   6.328   0.870 -2.1968  3.0274  2.3448
10492SOL    HW232376   7.048   6.166   0.884  2.8025  2.6049 -1.9466
10493SOL     OW32377   5.353   2.045   4.614 -0.3220 -0.8740 -0.2885
10493SOL    HW132378   5.300   2.128   4.597 -0.2548 -0.7480  0.1117
10493SOL    HW232379   5.304   1.966   4.576 -0.2104 -0.6108 -0.9903
10494SOL     OW32380   6.382   6.638   4.780  0.2582  0.0459 -0.5937
10494SOL    HW132381   6.291   6.665   4.749 -0.8602 -0.9491  1.6594
10494SOL    HW232382   6.428   6.716   4.822  0.5060  0.5527 -1.7523
10495SOL     OW32383   0.385   6.876   1.204 -0.4797 -0.2873 -0.0691
10495SOL    HW132384   0.304   6.827   1.237 -0.5771 -0.1818 -0.1513
10495SOL    HW232385   0.372   6.974   1.215  1.0838 -0.3105  3.3382
10496SOL     OW32386   1.618   6.450   6.119  0.1560 -0.4613 -0.2098
10496SOL    HW132387   1.713   6.481   6.111  0.5040 -1.9634 -3.6895
10496SOL    HW232388   1.612   6.355   6.089 -2.4389 -0.4713  0.1336
10497SOL     OW32389   4.352   6.792   5.871  0.1266 -0.1926 -0.1914
10497SOL    HW132390   4.283   6.732   5.829 -0.4509  0.2191  0.1562
10497SOL    HW232391   4.417   6.822   5.801  0.8292 -1.7540 -0.2446
10498SOL     OW32392   4.171   6.124   4.804 -0.1435 -0.4257  0.0816
10498SOL    HW132393   4.250   6.116   4.743  0.3054 -2.1922  0.8095
10498SOL    HW232394   4.189   6.195   4.872 -0.4275  1.1880 -1.4580
10499SOL     OW32395   2.080   3.792   3.996 -0.0317 -0.6545  0.5403
10499SOL    HW132396   2.029   3.871   4.031  2.1331  0.4926  1.3649
10499SOL    HW232397   2.135   3.753   4.071 -0.6431 -2.6298  0.0057
10500SOL     OW32398   6.257   3.621   0.942  0.5069 -0.2430 -0.5581
10500SOL    HW132399   6.309   3.699   0.976  0.3546 -0.0244 -0.8209
10500SOL    HW232400   6.239   3.557   1.017  1.4170 -0.4717 -0.5238
10501SOL     OW32401   6.116   4.577   3.556 -0.0530  0.2369 -0.3276
10501SOL    HW132402   6.197   4.560   3.499 -0.3575 -0.9562 -0.4319
10501SOL    HW232403   6.140   4.639   3.631  0.2207  2.3857 -2.0684
10502SOL     OW32404   4.348   0.426   2.702 -0.1869 -0.2003 -0.8558
10502SOL    HW132405   4.369   0.513   2.658  1.2708 -0.2245 -0.2747
10502SOL    HW232406   4.287   0.373   2.644  0.5974  0.3234 -2.2013
10503SOL     OW32407   6.441   3.208   3.088  0.3238  0.0872 -0.1221
10503SOL    HW132408   6.499   3.250   3.158  0.9003 -0.2281 -0.4065
10503SOL    HW232409   6.418   3.276   3.018  0.7908  0.0750 -0.2881
10504SOL     OW32410   3.817   2.383   5.581  0.0141  0.1045  0.1630
10504SOL    HW132411   3.835   2.400   5.484 -0.5278  1.5475  0.2963
10504SOL    HW232412   3.899   2.405   5.634  0.0137  0.2206  0.1168
10505SOL     OW32413   1.412   1.996   6.140  0.4911 -0.0870  0.2628
10505SOL    HW132414   1.446   2.086   6.166  0.2727  0.2212 -0.4960
10505SOL    HW232415   1.475   1.926   6.173  0.2877  0.2890  1.5043
10506SOL     OW32416   5.247   6.404   4.458  0.6226 -0.4105  0.0696
10506SOL    HW132417   5.289   6.435   4.372 -0.4543 -0.0941 -0.3656
10506SOL    HW232418   5.210   6.483   4.506 -1.3016 -0.8653 -0.5752
10507SOL     OW32419   6.542   6.868   1.320  0.2772  0.2857  0.6692
10507SOL    HW132420   6.588   6.885   1.407 -0.4879  1.0210  0.9484
10507SOL    HW232421   6.493   6.780   1.324  0.8946 -0.0620  0.6883
10508SOL     OW32422   5.239   5.674   0.001  0.7093  0.1543  0.4814
10508SOL    HW132423   5.246   5.744  -0.069  0.3184  0.7565  1.0382
10508SOL    HW232424   5.185   5.597  -0.034 -0.3047  0.8688  0.4447
10509SOL     OW32425   0.800   2.499   2.558  0.0490 -0.1588 -0.4739
10509SOL    HW132426   0.731   2.519   2.489  1.3052  0.1963 -1.6675
10509SOL    HW232427   0.799   2.570   2.628 -0.0824  0.4091 -1.0496
10510SOL     OW32428   1.191   6.610   4.320  0.3001  0.1758 -0.2383
10510SOL    HW132429   1.259   6.539   4.339  0.4734  0.1239 -1.0016
10510SOL    HW232430   1.232   6.700   4.333  0.5123  0.1439 -0.6694
10511SOL     OW32431   2.068   6.617   5.295  0.4139 -0.0658  0.6783
10511SOL    HW132432   2.075   6.700   5.240  1.3576 -0.3414  0.3527
10511SOL    HW232433   1.983   6.618   5.348  0.0920  0.7814  0.1589
10512SOL     OW32434   0.505   5.719   1.476  0.2104 -0.4781 -0.1946
10512SOL    HW132435   0.409   5.744   1.493  0.1702 -0.9952  0.4109
10512SOL    HW232436   0.509   5.651   1.402  0.1604 -0.0536 -0.5899
10513SOL     OW32437   2.644   4.663   3.683  0.1919  0.0044 -0.6166
10513SOL    HW132438   2.589   4.583   3.659 -1.2309  0.7105  0.1364
10513SOL    HW232439   2.671   4.657   3.779 -1.6881  1.3617  0.0488
10514SOL     OW32440   2.560   6.328   3.054 -0.7171  0.1831  0.1476
10514SOL    HW132441   2.577   6.328   2.956  4.2408  0.6183  0.7503
10514SOL    HW232442   2.525   6.417   3.082 -1.4178  0.3063 -1.0351
10515SOL     OW32443   3.828   5.335   1.596 -0.0270 -0.3183 -0.1168
10515SOL    HW132444   3.900   5.364   1.659 -0.7888  2.5665 -0.4390
10515SOL    HW232445   3.739   5.368   1.629 -1.0622 -2.4275 -0.5620
10516SOL     OW32446   4.880   6.922   4.620  0.7300  0.0938 -0.1844
10516SOL    HW132447   4.785   6.930   4.589  0.9549  0.3986 -0.8024
10516SOL    HW232448   4.935   6.994   4.579  1.2992 -0.2785 -0.0885
10517SOL     OW32449   5.328   2.178   2.722  0.3486  0.5768 -0.0711
10517SOL    HW132450   5.382   2.096   2.740 -0.1496  0.1862 -0.3687
10517SOL    HW232451   5.306   2.183   2.625 -0.1296  0.7531  0.0466
10518SOL     OW32452   5.610   2.498   4.004 -0.1834 -0.0036 -0.1332
10518SOL    HW132453   5.708   2.511   3.988 -0.1356 -2.2538 -2.2229
10518SOL    HW232454   5.596   2.418   4.062 -0.8237  0.8552  0.9570
10519SOL     OW32455   5.043   5.074   6.587 -0.2657 -0.8583 -0.4021
10519SOL    HW132456   5.142   5.069   6.571 -0.1658 -0.3916  0.0150
10519SOL    HW232457   4.996   5.005   6.532  0.4169 -2.0172  0.4304
10520SOL     OW32458   2.259   2.864   2.169  0.4080 -0.1562 -0.4393
10520SOL    HW132459   2.250   2.881   2.071 -0.0670  0.7126 -0.2494
10520SOL    HW232460   2.350   2.891   2.200  0.6947 -0.7871 -0.6998
10521SOL     OW32461   5.432   4.606   4.095  0.0682 -0.2240 -0.9147
10521SOL    HW132462   5.335   4.599   4.119  0.2287 -1.0557 -0.4680
10521SOL    HW232463   5.462   4.701   4.107 -0.4908 -0.1169 -0.2817
10522SOL     OW32464   4.328   5.062   1.976 -1.0033  0.1168  0.1067
10522SOL    HW132465   4.317   5.161   1.985  0.6314  0.3231  0.0945
10522SOL    HW232466   4.425   5.040   1.965 -1.5343 -1.3043 -2.3728
10523SOL     OW32467   5.715   6.511   6.484  0.6501 -0.5533  0.3037
10523SOL    HW132468   5.725   6.609   6.503 -0.5201 -0.0941 -1.2441
10523SOL    HW232469   5.680   6.465   6.565  0.2779  0.4921  0.7593
10524SOL     OW32470   2.366   1.296   5.570  0.0347 -0.3221 -0.5310
10524SOL    HW132471   2.412   1.325   5.654 -0.3196  0.6404 -0.6539
10524SOL    HW232472   2.400   1.206   5.543 -2.6864 -2.6482  2.8729
10525SOL     OW32473   0.633   2.297   4.673  0.2989 -0.3549  0.5052
10525SOL    HW132474   0.690   2.285   4.754  1.5589  3.2089  0.2827
10525SOL    HW232475   0.679   2.355   4.607 -1.4781 -1.6207 -2.0473
10526SOL     OW32476   0.322   0.117   6.716  0.4015 -0.1189 -0.5516
10526SOL    HW132477   0.261   0.058   6.769  0.3281  0.0375 -0.4615
10526SOL    HW232478   0.284   0.132   6.625 -0.0267  0.5171 -0.2732
10527SOL     OW32479   4.394   5.344   5.358  0.1186 -0.2788  0.0492
10527SOL    HW132480   4.479   5.392   5.382 -0.4158  1.5732 -1.4697
10527SOL    HW232481   4.317   5.407   5.366 -0.9653 -1.5818  0.2040
10528SOL     OW32482   3.450   1.037   6.956  0.0219  0.6656  0.4345
10528SOL    HW132483   3.470   1.132   6.979  0.7564  0.4770  0.6001
10528SOL    HW232484   3.493   1.014   6.868 -0.6894  0.6669  0.0770
10529SOL     OW32485   2.434   6.984   6.663  0.6943 -0.0547 -0.3735
10529SOL    HW132486   2.517   6.983   6.719  0.1347 -0.7212  0.4569
10529SOL    HW232487   2.356   6.957   6.718 -0.3722  2.0679 -0.7289
10530SOL     OW32488   2.984   6.543   1.063  0.5649 -0.0343 -0.1979
10530SOL    HW132489   2.982   6.568   1.160  0.5563 -0.7477 -0.0138
10530SOL    HW232490   2.897   6.570   1.020 -0.6654 -2.3415  0.6649
10531SOL     OW32491   0.735   2.120   5.536  0.0644 -0.1550  0.2163
10531SOL    HW132492   0.763   2.035   5.492 -1.3535 -1.1676  1.1732
10531SOL    HW232493   0.655   2.157   5.488  1.4192  1.3703 -0.9776
10532SOL     OW32494   6.521   5.088   6.927  0.1501  0.4531 -0.0035
10532SOL    HW132495   6.452   5.142   6.877 -1.7267 -2.1178 -0.3924
10532SOL    HW232496   6.483   5.061   7.016 -0.0235 -2.2292 -0.8169
10533SOL     OW32497   6.432   5.558   5.496 -0.1636 -0.6733  0.1391
10533SOL    HW132498   6.335   5.583   5.501  0.1846  0.7426  0.3599
10533SOL    HW232499   6.479   5.592   5.577  1.3721  2.8581 -1.9861
10534SOL     OW32500   3.300   1.523   1.841  0.3803 -0.5003 -0.0041
10534SOL    HW132501   3.275   1.588   1.768  0.6563 -0.2291  0.1409
10534SOL    HW232502   3.220   1.504   1.897  0.3914  0.0204  0.1898
10535SOL     OW32503   6.529   3.568   4.862 -0.6841 -0.3217  0.3600
10535SOL    HW132504   6.598   3.565   4.934  0.8095  2.0694 -0.8609
10535SOL    HW232505   6.518   3.662   4.830 -3.0469 -0.9461 -0.9337
10536SOL     OW32506   2.706   6.212   2.377 -0.4316  0.1784  0.2660
10536SOL    HW132507   2.670   6.138   2.321 -0.2496  0.2702  0.0261
10536SOL    HW232508   2.754   6.173   2.456  0.3066  0.0168 -0.2512
10537SOL     OW32509   0.658   0.769   4.024  0.0349 -0.1797  0.4231
10537SOL    HW132510   0.719   0.798   4.097 -0.6063  0.6854  0.6295
10537SOL    HW232511   0.711   0.752   3.941  0.4547  1.8977  0.1979
10538SOL     OW32512   0.046   3.052   3.804 -0.1413 -0.2468 -0.6490
10538SOL    HW132513   0.035   2.994   3.722 -1.0627  0.1617 -0.8308
10538SOL    HW232514   0.018   3.145   3.782  4.0492  1.0803 -1.2154
10539SOL     OW32515   5.718   1.211   1.731  0.3611  0.0478  0.3498
10539SOL    HW132516   5.624   1.179   1.745  0.2878  0.6798  1.3550
10539SOL    HW232517   5.733   1.228   1.633 -0.6802  0.2724  0.2176
10540SOL     OW32518   0.208   6.371   1.666 -0.4335 -0.3634  0.2871
10540SOL    HW132519   0.247   6.451   1.712 -0.3526 -0.2109 -0.0461
10540SOL    HW232520   0.267   6.292   1.683 -0.4700 -0.3328  0.5511
10541SOL     OW32521   5.166   2.373   1.118  0.5539 -0.2564  0.0108
10541SOL    HW132522   5.130   2.394   1.209 -0.7702 -1.3716 -0.2163
10541SOL    HW232523   5.090   2.371   1.052  1.2878 -0.9001 -0.8413
10542SOL     OW32524   1.128   2.613   4.803 -0.1138 -0.3570  0.2205
10542SOL    HW132525   1.095   2.523   4.831 -1.1292  0.3188  1.2758
10542SOL    HW232526   1.062   2.654   4.739 -0.5667  0.3591  1.1304
10543SOL     OW32527   4.724   2.016   2.827  0.4099  0.5170  0.4931
10543SOL    HW132528   4.658   1.956   2.783 -1.0145  2.2419  0.1635
10543SOL    HW232529   4.754   1.976   2.913 -0.2402 -0.8018  0.1220
10544SOL     OW32530   0.981   3.924   1.267  0.6276 -0.4782  0.2519
10544SOL    HW132531   0.902   3.982   1.288  0.3920 -1.5462  2.6908
10544SOL    HW232532   1.034   3.966   1.193 -1.8431  0.5829 -1.0568
10545SOL     OW32533   4.160   0.938   4.030 -0.1303  0.3868 -0.2003
10545SOL    HW132534   4.077   0.898   3.991  0.3454 -1.8809  0.9764
10545SOL    HW232535   4.139   0.976   4.120 -0.5634  2.8999 -1.2809
10546SOL     OW32536   2.970   3.163   2.209  0.2487 -0.1171  0.4099
10546SOL    HW132537   2.951   3.169   2.111  0.0309  0.6294  0.4922
10546SOL    HW232538   3.056   3.114   2.224  0.2431 -0.3000 -0.1467
10547SOL     OW32539   3.935   4.786   4.018 -0.0350  0.6839  0.0522
10547SOL    HW132540   4.025   4.769   3.978 -1.2652 -1.9135 -1.8925
10547SOL    HW232541   3.872   4.815   3.946 -1.1995  0.6460  1.0360
10548SOL     OW32542   0.630   5.545   3.862 -0.5033  0.0775  0.1410
10548SOL    HW132543   0.643   5.446   3.870 -2.5615 -0.1258  1.8678
10548SOL    HW232544   0.541   5.563   3.820  0.8086  1.2827 -2.3543
10549SOL     OW32545   6.995   4.295   3.299 -0.2443 -0.3209 -0.1232
10549SOL    HW132546   7.050   4.378   3.290  0.9566 -0.9608  0.8928
10549SOL    HW232547   7.006   4.239   3.217  1.0416 -0.6633  0.2653
10550SOL     OW32548   6.401   3.597   2.597  0.0806  0.5181 -0.6038
10550SOL    HW132549   6.446   3.585   2.685 -1.2363  0.9260  0.1537
10550SOL    HW232550   6.348   3.514   2.576 -0.5408  0.8683 -0.4393
10551SOL     OW32551   4.093   7.019   4.597  0.6015  0.1130 -0.6079
10551SOL    HW132552   4.118   7.031   4.693  1.6657 -1.2624 -0.6667
10551SOL    HW232553   4.110   7.103   4.546 -1.5501  1.4143  0.6729
10552SOL     OW32554   2.344   0.426   2.493  0.5177 -0.3187  0.3782
10552SOL    HW132555   2.435   0.423   2.450  1.4223 -0.8025  2.2035
10552SOL    HW232556   2.355   0.439   2.592 -1.4404  0.1680  0.5653
10553SOL     OW32557   0.299   6.077   1.715 -0.2508 -0.0458 -0.2925
10553SOL    HW132558   0.238   6.040   1.646 -0.9675  0.7480 -0.0989
10553SOL    HW232559   0.318   6.007   1.784 -0.1042 -0.6145 -0.9022
10554SOL     OW32560   0.098   6.888   5.037  0.2945 -0.4063  0.1494
10554SOL    HW132561   0.003   6.858   5.033 -0.2882  1.4003 -2.4763
10554SOL    HW232562   0.110   6.954   5.111 -1.5510  2.1828 -1.6607
10555SOL     OW32563   1.837   6.345   1.569  0.4300  0.0893 -0.2178
10555SOL    HW132564   1.807   6.359   1.664  0.5544  1.7102 -0.3926
10555SOL    HW232565   1.790   6.265   1.531  2.5475 -2.4225  2.0879
10556SOL     OW32566   5.010   6.447   0.386  0.3351  0.3103 -0.2764
10556SOL    HW132567   5.085   6.454   0.320  0.5456 -0.3275 -0.1086
10556SOL    HW232568   4.936   6.392   0.347 -0.8830  2.4461 -1.1874
10557SOL     OW32569   4.305   3.334   1.282 -0.2606 -0.3023  0.4690
10557SOL    HW132570   4.399   3.358   1.308  0.3540 -1.1247 -0.8825
10557SOL    HW232571   4.307   3.257   1.218 -1.9269 -1.0107  1.2251
10558SOL     OW32572   2.573   5.434   6.418  0.2665  0.0122  0.0417
10558SOL    HW132573   2.550   5.337   6.413  1.2319 -0.1930 -0.5975
10558SOL    HW232574   2.518   5.477   6.490 -2.6890 -0.2665 -1.8590
10559SOL     OW32575   5.299   5.188   2.569 -0.3831  0.2182 -0.1426
10559SOL    HW132576   5.308   5.111   2.631 -0.8360 -1.1047 -1.6533
10559SOL    HW232577   5.275   5.155   2.478 -1.2098  2.1988 -0.6992
10560SOL     OW32578   5.425   1.422   1.849  0.2800 -0.1613 -0.7787
10560SOL    HW132579   5.492   1.493   1.869  0.4026 -0.7061  0.8917
10560SOL    HW232580   5.426   1.402   1.751  0.4995  1.8567 -1.2404
10561SOL     OW32581   1.496   5.853   2.194  0.5865  0.5215  0.3839
10561SOL    HW132582   1.550   5.769   2.185  1.1427  0.8649  0.4254
10561SOL    HW232583   1.558   5.931   2.196  0.2493  0.7834  2.7250
10562SOL     OW32584   6.845   6.305   4.539 -0.5288  0.0679 -0.2088
10562SOL    HW132585   6.833   6.404   4.534  0.1335  0.2217  0.8959
10562SOL    HW232586   6.933   6.284   4.582  0.7290 -1.0097 -3.0885
10563SOL     OW32587   5.946   0.905   5.275 -0.0148 -0.3190 -0.0181
10563SOL    HW132588   6.045   0.920   5.267  0.1085 -1.5550 -1.3249
10563SOL    HW232589   5.924   0.875   5.368  0.7032  0.8133  0.5358
10564SOL     OW32590   4.891   3.182   0.143  0.5535 -0.1464 -0.3012
10564SOL    HW132591   4.949   3.261   0.159 -0.3949  0.4559  0.2359
10564SOL    HW232592   4.937   3.099   0.173  1.3610  0.2527 -0.4294
10565SOL     OW32593   5.869   2.683   1.017 -0.3800  0.0614 -0.0262
10565SOL    HW132594   5.769   2.676   1.018 -0.5181  1.2421 -1.4995
10565SOL    HW232595   5.895   2.775   0.987  1.1802  0.9207  3.4655
10566SOL     OW32596   5.181   6.434   2.900 -0.0584  0.3405 -0.5648
10566SOL    HW132597   5.140   6.378   2.972  1.0642 -0.7666 -0.7644
10566SOL    HW232598   5.127   6.424   2.816 -0.4839  0.4270 -0.3073
10567SOL     OW32599   0.743   0.145   0.207 -0.3485 -0.2182 -0.0684
10567SOL    HW132600   0.796   0.212   0.156  1.2566 -0.9922  0.4845
10567SOL    HW232601   0.712   0.185   0.293  0.1387 -0.0155  0.0173
10568SOL     OW32602   3.862   2.377   0.690 -0.1502 -0.0743  0.3975
10568SOL    HW132603   3.811   2.368   0.776  1.9033 -0.3750  1.6533
10568SOL    HW232604   3.827   2.311   0.624 -1.6766  0.0572  1.0137
10569SOL     OW32605   2.716   2.626   6.600 -0.2178 -0.5213  0.0466
10569SOL    HW132606   2.687   2.531   6.616 -2.0299 -0.1438 -0.7816
10569SOL    HW232607   2.722   2.643   6.502  1.9327 -0.2615  0.1757
10570SOL     OW32608   5.508   1.476   4.088  0.4396  0.2312 -0.1461
10570SOL    HW132609   5.576   1.540   4.124  0.8172  0.2998 -0.9423
10570SOL    HW232610   5.480   1.506   3.997  0.2727 -0.4840 -0.3360
10571SOL     OW32611   6.471   0.758   3.558 -0.1364  0.7200  0.0150
10571SOL    HW132612   6.371   0.757   3.560 -0.1757  0.5938 -1.2700
10571SOL    HW232613   6.505   0.810   3.636 -1.1398 -0.8061  1.5478
10572SOL     OW32614   2.081   2.024   4.274 -0.1529  0.0528  0.2654
10572SOL    HW132615   2.041   1.933   4.262 -0.5907  0.0044  1.8342
10572SOL    HW232616   2.032   2.090   4.216  0.5015 -0.7698 -1.2698
10573SOL     OW32617   4.227   3.393   6.216 -0.0090  0.4577  0.0245
10573SOL    HW132618   4.259   3.440   6.299  1.0870 -1.1764  0.5989
10573SOL    HW232619   4.178   3.310   6.242 -0.1211  0.2016 -0.9729
10574SOL     OW32620   2.478   6.085   3.475  0.6941  0.0587 -0.0956
10574SOL    HW132621   2.404   6.046   3.421  1.0468 -3.1371  1.5369
10574SOL    HW232622   2.564   6.040   3.451  1.5157  1.2601  0.4990
10575SOL     OW32623   0.594   4.354   1.358 -0.2443 -0.0653 -0.1191
10575SOL    HW132624   0.534   4.284   1.318  0.4635 -1.0813  0.5301
10575SOL    HW232625   0.626   4.322   1.447  1.1900  0.4997 -0.4108
10576SOL     OW32626   1.060   3.965   4.594  0.4675  0.5327 -0.4159
10576SOL    HW132627   1.103   3.875   4.587 -0.7440 -0.0938 -0.1258
10576SOL    HW232628   1.082   4.006   4.683 -1.1847 -0.7136  0.6366
10577SOL     OW32629   0.230   1.210   5.141 -0.4242  0.3953  0.0004
10577SOL    HW132630   0.218   1.307   5.116  1.1257  0.1568 -1.8775
10577SOL    HW232631   0.229   1.201   5.240 -1.3069  2.2278  0.2072
10578SOL     OW32632   6.678   1.778   2.520  0.5689 -0.1490  0.1746
10578SOL    HW132633   6.775   1.791   2.541  0.3755 -1.2411  1.8849
10578SOL    HW232634   6.622   1.820   2.592 -0.3509  2.5014 -1.9032
10579SOL     OW32635   3.163   2.098   3.683  0.0480 -0.5408  0.4293
10579SOL    HW132636   3.172   2.117   3.585 -0.7433 -2.3578 -0.0296
10579SOL    HW232637   3.252   2.070   3.720 -0.0484 -1.7602 -0.2281
10580SOL     OW32638   4.803   3.520   1.855 -0.1892  0.6584  0.5773
10580SOL    HW132639   4.723   3.485   1.806  0.0972  0.3902  0.2921
10580SOL    HW232640   4.875   3.541   1.788 -0.4367  2.0208  0.7123
10581SOL     OW32641   0.985   1.427   1.406 -0.1337 -0.2031 -1.0222
10581SOL    HW132642   0.895   1.467   1.389 -0.5166 -0.7764 -0.3977
10581SOL    HW232643   0.980   1.328   1.394  0.5651 -0.1792 -1.5786
10582SOL     OW32644   3.846   0.862   1.439  0.6420 -0.0132  0.4146
10582SOL    HW132645   3.915   0.817   1.382  0.2579 -0.5991  0.4044
10582SOL    HW232646   3.755   0.849   1.399  0.4903  0.5301  0.5678
10583SOL     OW32647   0.758   1.901   0.062 -0.1047 -0.0187  0.9226
10583SOL    HW132648   0.841   1.866   0.105  0.9858 -0.6300 -1.5114
10583SOL    HW232649   0.771   1.997   0.037  0.1469 -0.2951 -0.0454
10584SOL     OW32650   4.552   2.332   2.252  0.0364  0.0520 -0.4356
10584SOL    HW132651   4.516   2.397   2.319 -1.5445  1.7902 -2.7915
10584SOL    HW232652   4.632   2.371   2.206  0.1478 -0.4271 -0.6649
10585SOL     OW32653   2.696   4.310   0.171 -0.5056  0.3243 -0.1876
10585SOL    HW132654   2.742   4.398   0.184 -0.6782  0.4169 -0.1957
10585SOL    HW232655   2.721   4.273   0.082 -1.9407  1.3026 -1.0441
10586SOL     OW32656   5.332   3.986   6.516  0.8213 -0.1556  0.1288
10586SOL    HW132657   5.332   4.000   6.417  1.6931  0.1972  0.1700
10586SOL    HW232658   5.300   4.069   6.561 -0.9300 -0.7764  0.1095
10587SOL     OW32659   5.752   0.510   4.034 -0.0154  0.3385  0.6792
10587SOL    HW132660   5.777   0.589   3.978 -0.6944  1.1612  1.4911
10587SOL    HW232661   5.683   0.538   4.101  1.3557 -0.3894  2.4887
10588SOL     OW32662   3.083   6.344   3.562 -0.2806 -0.1274  0.1030
10588SOL    HW132663   3.125   6.396   3.636 -0.4546 -0.7837  0.6708
10588SOL    HW232664   3.154   6.298   3.508 -0.0524  1.4268 -0.9841
10589SOL     OW32665   0.499   6.184   2.244 -0.3908  0.5062 -0.2581
10589SOL    HW132666   0.538   6.093   2.232  0.2567  0.3229  2.4818
10589SOL    HW232667   0.572   6.251   2.250 -0.5836  0.5855  1.8441
10590SOL     OW32668   0.110   6.342   5.044  0.5172 -0.5649  0.8035
10590SOL    HW132669   0.027   6.288   5.026  0.0667  0.0203  1.0866
10590SOL    HW232670   0.099   6.433   5.005  1.1923 -0.6076  0.5044
10591SOL     OW32671   2.232   6.860   6.029 -0.0480 -0.0007  0.6584
10591SOL    HW132672   2.241   6.940   5.970  0.3705 -0.6069 -0.1278
10591SOL    HW232673   2.149   6.810   6.006  0.7756 -0.9607 -0.3597
10592SOL     OW32674   2.709   6.498   5.727 -0.8618  0.0576  0.3089
10592SOL    HW132675   2.627   6.465   5.680 -0.8256 -2.1856  1.6751
10592SOL    HW232676   2.695   6.593   5.755 -1.6473  0.8321 -2.3713
10593SOL     OW32677   1.912   1.140   2.246  0.0194  0.1563  0.4686
10593SOL    HW132678   1.907   1.040   2.244 -0.8069  0.2031 -0.2880
10593SOL    HW232679   2.005   1.169   2.225 -0.2153 -0.4256 -1.6379
10594SOL     OW32680   5.151   6.016   2.990  0.0136 -0.2831  0.1272
10594SOL    HW132681   5.094   6.084   3.036 -0.3998 -0.2211 -0.4711
10594SOL    HW232682   5.101   5.977   2.913  0.0409 -1.6799  0.7954
10595SOL     OW32683   6.182   4.102   3.040  0.2599 -0.1175  0.3956
10595SOL    HW132684   6.238   4.172   2.996  1.1195 -0.8929  0.2310
10595SOL    HW232685   6.125   4.058   2.971 -0.8570  0.9128  0.6175
10596SOL     OW32686   6.846   4.041   0.353  0.1880 -0.2418  0.2770
10596SOL    HW132687   6.869   3.945   0.372 -0.5186 -0.3600  0.5311
10596SOL    HW232688   6.913   4.100   0.398  0.4832 -0.6088  0.3275
10597SOL     OW32689   4.317   1.538   2.480 -0.1092 -0.6883  0.1667
10597SOL    HW132690   4.406   1.568   2.445  0.3382 -1.8416  0.2536
10597SOL    HW232691   4.328   1.450   2.526 -0.5284  1.0326  3.8755
10598SOL     OW32692   1.324   6.869   6.233  0.5195 -0.2504 -0.1066
10598SOL    HW132693   1.338   6.928   6.154  0.0386 -0.8854 -0.6781
10598SOL    HW232694   1.372   6.782   6.219 -1.3377 -1.2342 -0.7064
10599SOL     OW32695   4.852   0.251   6.636  0.2455  0.1458  0.4940
10599SOL    HW132696   4.848   0.166   6.584 -0.0679 -0.7441  1.9092
10599SOL    HW232697   4.937   0.253   6.689  0.1859  0.6471  0.5694
10600SOL     OW32698   2.111   6.824   2.351  0.0943  0.3606  0.1074
10600SOL    HW132699   2.072   6.743   2.395 -0.0940  0.0059 -0.6942
10600SOL    HW232700   2.164   6.876   2.418 -0.5036  0.0388  0.8395
10601SOL     OW32701   1.290   6.733   2.760 -0.1212 -0.3918  0.3879
10601SOL    HW132702   1.328   6.641   2.754  1.0270  0.1591 -3.0670
10601SOL    HW232703   1.352   6.792   2.812  2.4072 -0.3017 -2.4026
10602SOL     OW32704   3.626   5.078   6.635 -0.5057 -0.2995 -0.0870
10602SOL    HW132705   3.570   5.115   6.560 -1.6668  1.4085  1.5301
10602SOL    HW232706   3.660   5.153   6.691 -1.3754 -1.5578  2.2714
10603SOL     OW32707   6.563   4.053   6.357 -0.4306  0.0622 -0.8002
10603SOL    HW132708   6.654   4.013   6.354 -0.5478 -0.1896 -1.0875
10603SOL    HW232709   6.568   4.147   6.391 -0.2921 -0.5993  1.1531
10604SOL     OW32710   3.616   1.972   5.380  0.3749  0.0838 -0.1415
10604SOL    HW132711   3.549   1.899   5.366 -0.8968  1.0034  0.8597
10604SOL    HW232712   3.620   2.029   5.299  0.6200 -0.5010 -0.5452
10605SOL     OW32713   2.258   6.351   4.559  0.3819  0.3007  0.6094
10605SOL    HW132714   2.206   6.391   4.484  1.1318  0.9009  0.3969
10605SOL    HW232715   2.229   6.393   4.645  0.8978  1.0502  0.4275
10606SOL     OW32716   3.148   0.096   6.279 -0.3640  0.1366  0.0548
10606SOL    HW132717   3.170   0.040   6.359 -0.7082 -0.3560 -0.1852
10606SOL    HW232718   3.188   0.187   6.289 -0.4700  0.1060  0.8227
10607SOL     OW32719   0.238   2.276   4.283  0.6590  0.3706  0.4124
10607SOL    HW132720   0.201   2.366   4.260 -0.3867  0.3955  2.0621
10607SOL    HW232721   0.337   2.282   4.293  0.4906  1.6042  1.5920
10608SOL     OW32722   6.435   4.886   2.289 -0.4390 -0.0841  0.3367
10608SOL    HW132723   6.420   4.977   2.327  1.1461  0.4006 -0.1031
10608SOL    HW232724   6.458   4.823   2.363 -1.3164 -0.0727  0.6190
10609SOL     OW32725   3.587   0.177   4.923 -0.4561 -0.0715  0.0303
10609SOL    HW132726   3.600   0.147   4.829 -0.7788 -3.5662  0.9647
10609SOL    HW232727   3.673   0.166   4.974 -0.0493  2.5639  0.0536
10610SOL     OW32728   1.563   6.133   1.667  0.2994  0.1567 -0.1942
10610SOL    HW132729   1.476   6.109   1.710  0.5611  0.6505  0.6362
10610SOL    HW232730   1.547   6.194   1.590 -0.1172 -0.0311 -0.2595
10611SOL     OW32731   6.294   0.343   4.799 -0.0305  0.1236  0.2083
10611SOL    HW132732   6.250   0.391   4.723 -0.1964 -2.1455 -1.2276
10611SOL    HW232733   6.252   0.372   4.885 -1.3536  1.1786 -0.7450
10612SOL     OW32734   1.174   0.276   4.939 -0.1529  0.2247 -0.2296
10612SOL    HW132735   1.154   0.359   4.992  1.2759  0.9751 -0.7986
10612SOL    HW232736   1.234   0.217   4.991  1.7414  1.2364 -1.1474
10613SOL     OW32737   5.297   4.587   5.881  0.3731  0.2056  0.3828
10613SOL    HW132738   5.311   4.584   5.980  1.4778 -0.3184  0.2282
10613SOL    HW232739   5.233   4.515   5.854  0.9062 -0.3642  0.6050
10614SOL     OW32740   3.297   2.967   4.484 -0.2183  0.3149  0.2041
10614SOL    HW132741   3.212   2.992   4.530  0.0837 -0.8353  1.4186
10614SOL    HW232742   3.277   2.939   4.390 -1.2283 -0.3208  0.6026
10615SOL     OW32743   3.933   1.119   1.779 -0.4951 -0.1760  0.6593
10615SOL    HW132744   3.933   1.025   1.813 -1.6325 -0.6158 -0.4274
10615SOL    HW232745   3.879   1.123   1.694  0.8802  1.1498 -0.2027
10616SOL     OW32746   0.967   5.521   1.393 -0.1482 -0.3610  0.0712
10616SOL    HW132747   0.888   5.547   1.336  0.0279 -1.1035 -0.5265
10616SOL    HW232748   1.051   5.529   1.340  0.2267  0.6554  0.7784
10617SOL     OW32749   5.180   5.167   4.292 -0.4249  0.2440  0.1734
10617SOL    HW132750   5.166   5.085   4.235  2.1491 -0.5083  0.5071
10617SOL    HW232751   5.179   5.248   4.234 -0.1439 -0.2884 -0.5903
10618SOL     OW32752   0.809   0.143   3.798 -0.0392  0.1240  0.6950
10618SOL    HW132753   0.838   0.066   3.855  1.6638  0.0614 -0.1989
10618SOL    HW232754   0.734   0.115   3.738 -0.2894 -0.4577  1.2715
10619SOL     OW32755   4.072   6.130   0.688 -0.3137  0.0051 -0.1177
10619SOL    HW132756   4.071   6.229   0.704 -0.1219 -0.0223  0.0703
10619SOL    HW232757   4.055   6.112   0.591  0.4476  0.2514 -0.3013
10620SOL     OW32758   3.126   2.132   1.319 -0.1331 -0.0200  0.1045
10620SOL    HW132759   3.125   2.110   1.222  1.2566  1.5862 -0.3301
10620SOL    HW232760   3.041   2.178   1.344 -0.1234  0.3843 -0.5870
10621SOL     OW32761   4.306   5.089   0.764  0.0618  0.1875  0.1340
10621SOL    HW132762   4.320   5.138   0.850 -0.7233 -1.2611  1.1256
10621SOL    HW232763   4.390   5.041   0.739  0.6133  1.4027 -0.4802
10622SOL     OW32764   3.046   3.615   5.779  0.0201  0.4970  0.1272
10622SOL    HW132765   2.997   3.607   5.866 -1.2794  0.9636 -0.5224
10622SOL    HW232766   2.986   3.583   5.705  0.1696  2.3571 -0.8492
10623SOL     OW32767   4.575   0.987   4.877  0.4478  0.2335  0.1669
10623SOL    HW132768   4.538   1.080   4.882  1.3503  0.7343 -1.7151
10623SOL    HW232769   4.549   0.946   4.790  1.4552 -0.6681  0.2785
10624SOL     OW32770   1.462   1.359   6.055 -0.2886  0.3252  0.0089
10624SOL    HW132771   1.500   1.350   5.963 -0.1919 -2.9640  0.2538
10624SOL    HW232772   1.366   1.329   6.055 -1.2776  3.1388  0.4969
10625SOL     OW32773   4.764   4.554   2.531 -0.1360  0.0178 -0.0018
10625SOL    HW132774   4.746   4.459   2.557 -0.6296 -0.1014 -0.7764
10625SOL    HW232775   4.812   4.600   2.606  0.3645 -0.9193  0.2680
10626SOL     OW32776   6.826   5.789   2.342  0.4693 -0.0132  0.3749
10626SOL    HW132777   6.909   5.734   2.354  1.1269  0.3712 -2.0348
10626SOL    HW232778   6.751   5.730   2.314  0.5537 -0.0065  0.1370
10627SOL     OW32779   2.561   4.048   0.067  0.4940  0.7178 -0.2616
10627SOL    HW132780   2.652   4.048   0.028 -0.5556  0.6324 -2.8863
10627SOL    HW232781   2.496   4.087   0.002 -1.6937 -1.2279  0.6001
10628SOL     OW32782   5.772   5.839   1.517  0.4040 -0.2067 -0.5078
10628SOL    HW132783   5.797   5.803   1.427  0.3824 -0.3295 -0.4658
10628SOL    HW232784   5.760   5.938   1.512 -0.0609 -0.2759 -0.7407
10629SOL     OW32785   6.896   0.312   2.934 -0.4003 -0.3520 -0.2312
10629SOL    HW132786   6.809   0.361   2.921  0.1977  1.1005  1.0007
10629SOL    HW232787   6.877   0.215   2.947 -1.8035 -0.1474 -0.5344
10630SOL     OW32788   2.111   3.768   2.730  0.0914 -0.6552 -0.5597
10630SOL    HW132789   2.158   3.833   2.789 -1.2265  1.1228 -1.3874
10630SOL    HW232790   2.013   3.768   2.751 -0.1522 -1.2420 -1.5979
10631SOL     OW32791   2.986   3.058   5.749  0.1692 -0.2972  0.1370
10631SOL    HW132792   3.077   3.057   5.790  0.9791 -0.4910 -1.5706
10631SOL    HW232793   2.975   2.978   5.689 -1.4831 -0.7743  1.0084
10632SOL     OW32794   1.188   1.488   1.820 -0.6521 -0.1485  0.0654
10632SOL    HW132795   1.208   1.561   1.884 -3.1479 -0.3171  1.1405
10632SOL    HW232796   1.248   1.410   1.837  1.3454  1.2141 -0.4404
10633SOL     OW32797   1.457   6.634   0.625  0.3913  0.0262 -0.6934
10633SOL    HW132798   1.448   6.732   0.605  2.3496  0.3570 -0.1515
10633SOL    HW232799   1.542   6.600   0.585  1.1428 -0.7881  1.5005
10634SOL     OW32800   5.149   5.598   2.539 -0.2040 -0.0140 -0.9162
10634SOL    HW132801   5.214   5.553   2.477  0.6571  0.1364 -0.1486
10634SOL    HW232802   5.062   5.612   2.492  0.8767  1.4560 -2.6088
10635SOL     OW32803   1.315   1.259   4.173 -0.1705 -0.4015  0.4634
10635SOL    HW132804   1.355   1.179   4.129 -1.5616 -0.3217 -1.0256
10635SOL    HW232805   1.263   1.312   4.106 -1.4449  0.3341  1.9702
10636SOL     OW32806   2.788   5.897   0.025 -0.1497 -0.2057  0.7972
10636SOL    HW132807   2.842   5.826  -0.021 -0.7301 -0.9494  1.2392
10636SOL    HW232808   2.832   5.923   0.111  0.7251  0.8970  0.0501
10637SOL     OW32809   4.674   4.037   6.908  0.0318 -0.2405  0.3893
10637SOL    HW132810   4.738   4.042   6.832  0.2253 -0.1395  0.5595
10637SOL    HW232811   4.587   4.078   6.881  0.0713 -0.2864  0.1936
10638SOL     OW32812   4.244   0.287   6.702  0.2111  0.3438 -0.1021
10638SOL    HW132813   4.211   0.359   6.763  0.5136 -0.3109  0.8591
10638SOL    HW232814   4.298   0.221   6.755 -3.2685 -2.7617 -0.0560
10639SOL     OW32815   0.818   2.303   0.791  0.2328  0.0918  0.2369
10639SOL    HW132816   0.742   2.344   0.740  0.3664  0.2401  0.1601
10639SOL    HW232817   0.787   2.216   0.830  0.9341 -1.5223 -2.5081
10640SOL     OW32818   5.838   5.903   0.152  0.0423 -0.1034 -0.1678
10640SOL    HW132819   5.788   5.820   0.176  2.0299 -0.8800  1.6053
10640SOL    HW232820   5.926   5.877   0.111 -1.2443  1.2040 -4.2796
10641SOL     OW32821   0.380   4.483   3.332 -0.3296 -0.1267 -0.2021
10641SOL    HW132822   0.286   4.458   3.306 -0.3295 -0.5885  0.2119
10641SOL    HW232823   0.378   4.534   3.418 -0.3361  1.4569 -1.1014
10642SOL     OW32824   3.467   4.372   1.367  0.3789  0.2625  0.3686
10642SOL    HW132825   3.434   4.279   1.350 -0.2245  0.4864  0.3006
10642SOL    HW232826   3.422   4.409   1.448 -3.1649  2.2660 -2.2544
10643SOL     OW32827   5.459   2.387   5.884 -0.5111 -0.1240  0.2662
10643SOL    HW132828   5.487   2.304   5.835 -1.4731  0.1540 -0.7918
10643SOL    HW232829   5.503   2.467   5.842  1.3051 -0.1440  1.9733
10644SOL     OW32830   6.315   1.031   4.718 -0.7994 -0.4177 -0.5199
10644SOL    HW132831   6.244   0.960   4.716  0.6134 -2.0115  1.9776
10644SOL    HW232832   6.324   1.067   4.811  0.2947  1.2465 -1.2190
10645SOL     OW32833   0.594   0.611   1.933  0.6027 -0.1827  0.0924
10645SOL    HW132834   0.648   0.574   2.008  0.2063 -1.0856 -0.0508
10645SOL    HW232835   0.588   0.544   1.859  0.1305  0.2915 -0.3179
10646SOL     OW32836   1.250   4.450   5.167  0.0523  0.7536  0.1683
10646SOL    HW132837   1.178   4.471   5.234 -1.9622 -1.0386 -1.2925
10646SOL    HW232838   1.248   4.352   5.146  2.5734  0.7596 -0.3941
10647SOL     OW32839   1.837   4.427   5.881 -0.8088  0.6939 -0.0537
10647SOL    HW132840   1.746   4.427   5.923 -0.3596  1.2855  0.9550
10647SOL    HW232841   1.857   4.336   5.845 -0.7893 -0.1589  1.9999
10648SOL     OW32842   1.984   4.293   0.367 -0.4113 -0.1358  0.4555
10648SOL    HW132843   1.969   4.252   0.457  1.4071  1.2314  1.4513
10648SOL    HW232844   1.918   4.366   0.352 -0.0232  0.3711  1.1774
10649SOL     OW32845   6.921   3.116   1.920 -0.2636 -0.1620  0.4459
10649SOL    HW132846   6.980   3.104   1.841 -0.9936 -0.6150 -0.0505
10649SOL    HW232847   6.873   3.030   1.939 -0.5893  0.1301  0.9759
10650SOL     OW32848   5.727   5.467   0.727  0.1164  0.1462 -0.1478
10650SOL    HW132849   5.757   5.562   0.734 -1.1290  0.5424  0.0490
10650SOL    HW232850   5.806   5.406   0.736  0.7452  1.1166  1.2570
10651SOL     OW32851   0.336   0.701   3.868 -0.1019  0.4164 -0.3239
10651SOL    HW132852   0.339   0.783   3.810 -0.0409  1.8208  1.5706
10651SOL    HW232853   0.362   0.725   3.962  0.0381 -1.8204  0.2715
10652SOL     OW32854   4.148   5.535   2.572 -0.5249  0.1092 -0.1237
10652SOL    HW132855   4.110   5.563   2.484  0.1924  2.4192  0.2213
10652SOL    HW232856   4.122   5.603   2.642  3.2518  1.2697  0.3377
10653SOL     OW32857   5.520   5.844   6.259  0.1020  0.4102  0.1868
10653SOL    HW132858   5.575   5.818   6.338  2.9426  0.8541 -1.5175
10653SOL    HW232859   5.440   5.784   6.252  0.6740 -0.6965  2.4049
10654SOL     OW32860   6.772   4.958   1.157 -0.2124 -0.1173 -0.2069
10654SOL    HW132861   6.728   4.962   1.068  0.9648 -0.0363 -0.8006
10654SOL    HW232862   6.734   5.029   1.216  0.4515  1.2192 -1.3332
10655SOL     OW32863   1.019   3.003   4.746  0.0234 -0.4181  0.1267
10655SOL    HW132864   0.939   3.037   4.696 -1.2138 -1.9739  0.9187
10655SOL    HW232865   1.045   2.913   4.710 -1.6894 -2.1889  2.8527
10656SOL     OW32866   5.989   4.147   5.844  0.2192 -0.3154 -0.1411
10656SOL    HW132867   5.938   4.098   5.773  0.1498 -0.4733  0.0186
10656SOL    HW232868   6.025   4.082   5.911  2.4931 -0.4630 -1.4046
10657SOL     OW32869   3.237   0.681   3.663  0.2170 -0.2648 -0.2831
10657SOL    HW132870   3.169   0.740   3.705  1.7010  0.4260  1.2873
10657SOL    HW232871   3.197   0.633   3.585 -1.5291  1.4263 -0.4884
10658SOL     OW32872   5.014   0.133   6.047  0.3725  0.0144  0.7185
10658SOL    HW132873   5.007   0.120   5.948 -0.0964  0.9451  0.6133
10658SOL    HW232874   5.110   0.146   6.072  0.2981  2.9280 -0.0973
10659SOL     OW32875   0.188   1.420   2.519  0.1922 -0.1475  0.0461
10659SOL    HW132876   0.287   1.427   2.510  0.2155  2.3202  1.3748
10659SOL    HW232877   0.147   1.405   2.429  1.6399  1.0860 -0.8641
10660SOL     OW32878   1.312   1.741   5.031 -0.5135  0.0419  0.3289
10660SOL    HW132879   1.275   1.764   5.121  1.2043  3.5786  0.2645
10660SOL    HW232880   1.407   1.712   5.040 -0.4056  0.1721 -0.3165
10661SOL     OW32881   2.919   0.442   1.198  0.8369 -0.3751 -0.0773
10661SOL    HW132882   2.906   0.488   1.111  0.7113  0.8834  0.5812
10661SOL    HW232883   3.013   0.455   1.229  0.6220  0.0172  0.4275
10662SOL     OW32884   2.232   1.817   1.669 -0.0716 -0.8067  0.4441
10662SOL    HW132885   2.247   1.813   1.767 -1.5824  4.0940  1.1339
10662SOL    HW232886   2.134   1.809   1.650 -0.0293  0.3913 -0.3990
10663SOL     OW32887   6.283   5.270   4.604 -0.3121  0.0321  0.0873
10663SOL    HW132888   6.247   5.275   4.511 -0.5310  2.3997  0.2296
10663SOL    HW232889   6.213   5.303   4.668  0.1190 -0.8234  1.0283
10664SOL     OW32890   3.990   3.946   5.991 -0.1606 -0.3149  0.1886
10664SOL    HW132891   4.003   3.937   6.090  1.2745  2.3742  0.3264
10664SOL    HW232892   3.989   4.042   5.966 -0.8762 -0.9269 -2.4161
10665SOL     OW32893   4.659   2.706   3.581  0.3593 -0.4010  0.0264
10665SOL    HW132894   4.626   2.763   3.656 -0.0090 -0.4529 -0.0940
10665SOL    HW232895   4.727   2.641   3.616  0.8409  0.1588  0.1467
10666SOL     OW32896   2.748   6.511   4.435 -0.1301  0.0729 -0.5573
10666SOL    HW132897   2.791   6.601   4.443  1.2592 -0.4317 -1.9487
10666SOL    HW232898   2.653   6.522   4.406  0.6399  1.0624 -2.8973
10667SOL     OW32899   0.690   4.154   3.493  0.0457 -0.3607  0.3775
10667SOL    HW132900   0.716   4.226   3.557  0.3912 -0.2279  0.0891
10667SOL    HW232901   0.603   4.177   3.450  1.7698  1.6684 -2.3398
10668SOL     OW32902   4.809   0.952   5.788  0.0852 -0.2390 -0.3464
10668SOL    HW132903   4.903   0.959   5.754  0.2810 -1.9457 -0.2388
10668SOL    HW232904   4.783   1.038   5.831  0.9526  0.8925 -1.9829
10669SOL     OW32905   0.677   4.881   1.755 -0.0795 -0.3856 -0.1386
10669SOL    HW132906   0.775   4.884   1.733  0.3089 -0.1117  1.5090
10669SOL    HW232907   0.665   4.860   1.852 -1.6675 -0.4843 -0.3313
10670SOL     OW32908   0.939   2.746   4.635  0.2887  0.2172  0.1529
10670SOL    HW132909   0.843   2.765   4.654  0.7011  1.3871  1.1419
10670SOL    HW232910   0.955   2.749   4.536 -0.4839  1.0615  0.0489
10671SOL     OW32911   5.026   0.504   6.858 -0.3928 -0.4064 -0.1025
10671SOL    HW132912   4.958   0.544   6.920  1.7194  0.7200  1.6255
10671SOL    HW232913   5.023   0.550   6.770 -2.1621 -0.7390 -0.2647
10672SOL     OW32914   1.230   1.556   6.579 -0.9078  0.1873  0.6582
10672SOL    HW132915   1.305   1.489   6.579 -0.8364  0.2490  2.0525
10672SOL    HW232916   1.242   1.618   6.501 -0.0571 -0.4065  0.2962
10673SOL     OW32917   1.530   3.612   7.008 -0.4515  0.7870  0.5079
10673SOL    HW132918   1.512   3.605   6.910 -1.3244 -0.7632  0.7478
10673SOL    HW232919   1.492   3.532   7.054  0.0924  1.4187  2.0977
10674SOL     OW32920   5.126   6.008   0.798  0.4403  0.1552 -0.0840
10674SOL    HW132921   5.132   6.050   0.708 -0.2407 -2.0069 -1.1961
10674SOL    HW232922   5.177   6.064   0.864 -1.1032  3.1344 -1.2232
10675SOL     OW32923   1.431   6.337   3.059 -0.5864  0.1370 -0.7510
10675SOL    HW132924   1.359   6.375   3.117 -0.3699  2.9217 -2.1063
10675SOL    HW232925   1.516   6.331   3.111 -1.2614 -1.1970  0.2676
10676SOL     OW32926   0.239   0.538   3.207  0.1551 -0.4886 -0.1323
10676SOL    HW132927   0.230   0.516   3.304  0.5847 -0.4909 -0.0898
10676SOL    HW232928   0.162   0.595   3.178  0.1994 -0.2025  0.2947
10677SOL     OW32929   1.716   5.384   4.186  0.2928  0.6226 -0.3514
10677SOL    HW132930   1.653   5.333   4.128  0.2989 -0.2587  0.3813
10677SOL    HW232931   1.810   5.357   4.164  0.2323 -1.8106  1.8223
10678SOL     OW32932   6.467   1.703   3.878  0.4123 -0.5179  0.1004
10678SOL    HW132933   6.436   1.608   3.880  2.7126 -1.3160  2.5120
10678SOL    HW232934   6.560   1.708   3.842  0.7915  0.6458  1.1564
10679SOL     OW32935   3.976   1.533   5.586 -0.3974 -0.3968  0.5478
10679SOL    HW132936   3.943   1.518   5.492  0.4868 -1.4866  0.3954
10679SOL    HW232937   4.055   1.595   5.584 -2.2516  2.1474  0.9062
10680SOL     OW32938   3.177   0.488   6.347  0.1436 -0.0280  0.4130
10680SOL    HW132939   3.238   0.409   6.344 -0.0209 -0.1652  0.6811
10680SOL    HW232940   3.219   0.565   6.299 -0.8298 -1.0717 -2.3384
10681SOL     OW32941   6.024   3.631   0.793  0.1907 -0.1309  0.5768
10681SOL    HW132942   6.021   3.700   0.720  0.9042  0.9881  1.5684
10681SOL    HW232943   6.116   3.626   0.830 -0.1997 -0.5735  1.5069
10682SOL     OW32944   0.025   1.059   1.007 -0.4933  0.1465 -0.2864
10682SOL    HW132945  -0.003   1.144   1.053 -2.1533 -0.4170 -0.1703
10682SOL    HW232946  -0.007   1.061   0.912 -2.9047 -1.3810  0.4070
10683SOL     OW32947   4.662   5.659   6.548 -0.0119  0.3619 -0.0642
10683SOL    HW132948   4.663   5.560   6.565 -0.4870  0.3274 -0.2308
10683SOL    HW232949   4.586   5.681   6.487  1.4162  0.5170 -1.8767
10684SOL     OW32950   4.226   5.819   6.091  0.4207  0.1424 -0.2441
10684SOL    HW132951   4.252   5.799   6.185  0.5987  2.1683  0.1742
10684SOL    HW232952   4.170   5.744   6.055  1.9878 -1.5967  0.7753
10685SOL     OW32953   1.497   6.478   6.912  0.4323 -0.4352  0.0877
10685SOL    HW132954   1.516   6.520   7.001 -0.3517 -0.2068  0.1597
10685SOL    HW232955   1.436   6.400   6.924 -2.0010  1.2279 -0.4441
10686SOL     OW32956   1.985   2.139   5.822  0.9999 -0.2555  0.3446
10686SOL    HW132957   1.934   2.054   5.813  1.3490 -0.3368 -1.1871
10686SOL    HW232958   2.058   2.127   5.889 -0.0973 -0.5572  1.5295
10687SOL     OW32959   6.101   1.775   4.391  0.0446 -0.1624  0.5674
10687SOL    HW132960   6.024   1.786   4.328 -0.1370 -0.3754  0.7522
10687SOL    HW232961   6.072   1.722   4.470  0.3660 -0.1904  0.6673
10688SOL     OW32962   2.718   0.369   0.395 -0.5441 -0.3298 -0.4026
10688SOL    HW132963   2.669   0.374   0.308 -1.3445  1.3994  0.0961
10688SOL    HW232964   2.723   0.460   0.435  0.1679 -1.0298  1.1819
10689SOL     OW32965   0.346   0.083   1.696 -0.1514 -0.0770  0.2534
10689SOL    HW132966   0.418   0.015   1.689 -0.8460 -0.6689 -2.6226
10689SOL    HW232967   0.268   0.045   1.746 -0.4057 -1.3626 -1.0405
10690SOL     OW32968   4.739   0.312   0.786  0.6173 -0.5814 -0.2696
10690SOL    HW132969   4.758   0.410   0.777 -3.5959  0.6408  1.2211
10690SOL    HW232970   4.768   0.281   0.876 -0.3196  0.0656  0.2798
10691SOL     OW32971   1.586   0.763   5.795  0.2732 -0.0639  0.4707
10691SOL    HW132972   1.501   0.807   5.823  1.4578  1.8369  1.2687
10691SOL    HW232973   1.607   0.788   5.701  0.2944  0.0443  0.5036
10692SOL     OW32974   3.193   6.696   3.400  0.1441  0.3994 -0.2818
10692SOL    HW132975   3.268   6.681   3.464 -0.4694 -1.0048  0.1501
10692SOL    HW232976   3.123   6.752   3.444  0.2938  0.5026 -0.1732
10693SOL     OW32977   4.152   2.203   1.455 -0.0418  0.1129 -0.1156
10693SOL    HW132978   4.203   2.273   1.406 -0.1756  0.6015  0.4372
10693SOL    HW232979   4.114   2.138   1.390  0.8883  0.0013 -0.5690
10694SOL     OW32980   0.397   6.751   2.302 -0.1740  0.4779  0.1131
10694SOL    HW132981   0.307   6.790   2.284 -1.8345 -2.1039  1.9632
10694SOL    HW232982   0.428   6.699   2.223 -1.9736 -1.3590  0.5297
10695SOL     OW32983   0.634   3.871   2.522  0.0010  0.1302 -0.0807
10695SOL    HW132984   0.603   3.915   2.438  0.9241 -0.9616 -1.0402
10695SOL    HW232985   0.627   3.771   2.512 -1.2418 -0.0127  1.7005
10696SOL     OW32986   0.061   4.380   1.444  0.0549  0.1707 -0.6478
10696SOL    HW132987  -0.032   4.343   1.442  0.0241  0.1360  0.6667
10696SOL    HW232988   0.078   4.432   1.360 -1.0896  0.0250 -0.9824
10697SOL     OW32989   6.855   3.708   5.642 -0.0869 -0.4926  0.3181
10697SOL    HW132990   6.824   3.664   5.726  1.2917 -0.7402  0.7124
10697SOL    HW232991   6.787   3.775   5.613 -0.6510 -0.5110  1.5423
10698SOL     OW32992   1.596   5.406   0.993 -0.9723  0.0758 -0.6648
10698SOL    HW132993   1.649   5.468   0.934  0.2621 -1.0883 -0.8266
10698SOL    HW232994   1.552   5.336   0.937 -0.8229 -0.2989 -0.3185
10699SOL     OW32995   0.643   4.871   6.862  0.3398 -0.3386 -0.9698
10699SOL    HW132996   0.713   4.930   6.822  0.4577  1.5199  1.6597
10699SOL    HW232997   0.556   4.920   6.867  0.2707 -0.5479  0.6741
10700SOL     OW32998   5.528   3.218   2.622 -0.0566 -0.1556 -0.1871
10700SOL    HW132999   5.505   3.285   2.551  3.8937 -0.0925 -1.6500
10700SOL    HW233000   5.544   3.129   2.580  1.0489 -0.4463  0.8102
10701SOL     OW33001   4.700   2.744   1.030  0.4230 -0.3713  0.4071
10701SOL    HW133002   4.702   2.833   0.983 -0.5424 -0.9611 -0.7934
10701SOL    HW233003   4.784   2.733   1.084  1.3319  0.5432 -0.7730
10702SOL     OW33004   2.633   6.757   5.844 -0.0830  0.1601 -0.1174
10702SOL    HW133005   2.698   6.740   5.918  0.5340  1.3368 -0.3738
10702SOL    HW233006   2.541   6.768   5.882  0.4878  2.5419  0.6961
10703SOL     OW33007   6.046   4.317   6.491 -0.8409  0.5695 -0.0263
10703SOL    HW133008   6.030   4.257   6.413 -0.3297  0.3917  0.0017
10703SOL    HW233009   6.111   4.389   6.465 -0.0828  0.0683  0.4404
10704SOL     OW33010   0.313   4.540   2.208  0.7461  0.2237 -0.2496
10704SOL    HW133011   0.223   4.583   2.217  0.8206  0.2922  0.1727
10704SOL    HW233012   0.303   4.441   2.219  0.5317  0.0805 -1.5010
10705SOL     OW33013   1.914   1.958   1.202  0.2960 -0.3779 -0.0746
10705SOL    HW133014   1.833   1.899   1.197 -0.6446  0.8398  0.3749
10705SOL    HW233015   1.959   1.961   1.113  1.1438 -2.7876  0.1841
10706SOL     OW33016   0.465   1.413   1.782  0.7210  0.3994 -0.5513
10706SOL    HW133017   0.455   1.406   1.683  0.0107  0.8844 -0.5216
10706SOL    HW233018   0.393   1.361   1.827  1.7431 -0.8129 -0.2658
10707SOL     OW33019   0.248   5.271   6.649  0.0217  0.6746 -0.5047
10707SOL    HW133020   0.161   5.241   6.688  0.4681  1.6812  1.3658
10707SOL    HW233021   0.291   5.337   6.710  2.2708 -0.0577 -1.2071
10708SOL     OW33022   1.925   0.515   5.627 -0.3645  0.3087  0.1201
10708SOL    HW133023   1.879   0.573   5.559 -0.6647 -0.9055 -0.7335
10708SOL    HW233024   1.864   0.501   5.704 -0.9957 -0.3291 -0.4805
10709SOL     OW33025   3.447   5.253   6.436 -0.2459 -0.4890  0.4398
10709SOL    HW133026   3.427   5.341   6.391  1.1135 -1.1434 -1.5976
10709SOL    HW233027   3.507   5.199   6.377 -2.6981 -3.6893  0.6486
10710SOL     OW33028   6.929   2.707   6.974  0.7966 -0.0114  0.3007
10710SOL    HW133029   6.972   2.623   7.006  3.5522  1.1582 -0.0840
10710SOL    HW233030   6.866   2.686   6.899 -0.9170 -2.0024  2.1431
10711SOL     OW33031   5.795   2.361   3.449 -0.2094  0.0175  0.6143
10711SOL    HW133032   5.765   2.454   3.471  2.4054  1.3690 -0.9967
10711SOL    HW233033   5.835   2.319   3.530  0.2847  1.0496  0.9327
10712SOL     OW33034   5.505   3.354   2.852  0.8834 -0.2264  0.4691
10712SOL    HW133035   5.480   3.313   2.939 -0.1025  0.1734  0.3906
10712SOL    HW233036   5.514   3.283   2.782 -2.8295 -0.2513 -0.1650
10713SOL     OW33037   6.612   5.619   2.594  0.1863  0.5180 -0.0377
10713SOL    HW133038   6.536   5.573   2.639  0.4937  0.2900  0.2411
10713SOL    HW233039   6.694   5.563   2.599 -0.0207 -0.0056 -1.8002
10714SOL     OW33040   1.191   5.151   6.352  0.2102  0.1181  0.3070
10714SOL    HW133041   1.092   5.151   6.365 -0.0771  0.4828 -1.6117
10714SOL    HW233042   1.218   5.234   6.304  1.4262 -0.1299  0.5311
10715SOL     OW33043   2.649   6.176   0.411 -0.0536 -0.3301 -0.2888
10715SOL    HW133044   2.716   6.201   0.481 -1.2462  0.3153  0.6383
10715SOL    HW233045   2.596   6.257   0.385 -1.1099 -1.0286 -0.3400
10716SOL     OW33046   4.994   2.877   0.725  0.0863  0.0822  0.6184
10716SOL    HW133047   5.079   2.929   0.728 -0.3426  0.8496 -0.1825
10716SOL    HW233048   4.993   2.821   0.642 -0.5618  0.7326  0.1816
10717SOL     OW33049   5.020   3.051   2.056  0.0356 -0.0117  0.1473
10717SOL    HW133050   4.924   3.031   2.077  0.1825 -2.4920 -1.1946
10717SOL    HW233051   5.062   3.095   2.135 -1.9223  0.1528  1.1670
10718SOL     OW33052   3.889   6.492   2.404 -0.2925  0.2155 -0.7023
10718SOL    HW133053   3.927   6.576   2.366 -0.0733  0.8737  0.8974
10718SOL    HW233054   3.878   6.502   2.503 -1.6677 -1.1014 -0.6826
10719SOL     OW33055   4.065   2.185   4.663 -0.2157 -0.0713 -0.1673
10719SOL    HW133056   4.051   2.222   4.571 -2.7881 -0.0145  0.1633
10719SOL    HW233057   4.152   2.137   4.667 -0.2535 -0.4829 -2.7711
10720SOL     OW33058   1.851   1.835   3.203 -0.0140  0.2774 -0.7400
10720SOL    HW133059   1.933   1.874   3.160 -0.4233 -1.1654 -2.9930
10720SOL    HW233060   1.857   1.735   3.200 -1.5659  0.1540 -0.3571
10721SOL     OW33061   0.002   6.546   6.433  0.0563  0.4716 -0.6939
10721SOL    HW133062   0.035   6.453   6.448 -1.0019  0.2787  0.6864
10721SOL    HW233063  -0.096   6.544   6.413 -0.2369  1.3276  0.5208
10722SOL     OW33064   6.568   5.216   4.513 -0.0863 -0.3427 -0.1490
10722SOL    HW133065   6.632   5.199   4.588  0.2708  0.9869 -0.1358
10722SOL    HW233066   6.491   5.270   4.547 -0.2867 -0.3565 -0.5808
10723SOL     OW33067   6.607   5.524   0.280  0.1283 -0.3609  0.3601
10723SOL    HW133068   6.664   5.471   0.217 -0.6532 -0.3530 -0.3693
10723SOL    HW233069   6.529   5.469   0.308  0.4252 -0.3299  1.2703
10724SOL     OW33070   2.182   5.109   3.901 -0.3033 -0.4314  0.6442
10724SOL    HW133071   2.106   5.114   3.836 -0.9983 -1.4545  1.3489
10724SOL    HW233072   2.225   5.199   3.908 -0.1162 -0.3191 -1.3110
10725SOL     OW33073   5.074   5.593   6.118 -0.4921  0.0996 -0.1562
10725SOL    HW133074   5.105   5.568   6.027 -0.7166 -0.5415 -0.0599
10725SOL    HW233075   5.040   5.512   6.166 -1.3631  0.5965  0.1053
10726SOL     OW33076   4.264   4.407   6.737  0.1114  0.2607 -0.3553
10726SOL    HW133077   4.204   4.487   6.738  1.1223  1.0567 -1.1721
10726SOL    HW233078   4.209   4.324   6.725 -0.7988  1.0198 -1.6459
10727SOL     OW33079   0.965   4.946   5.321 -0.8463  0.3970 -0.4539
10727SOL    HW133080   0.907   5.026   5.306 -0.9659  0.6354  1.1019
10727SOL    HW233081   0.945   4.907   5.411 -1.3232 -1.8550 -1.4570
10728SOL     OW33082   4.325   0.922   0.054 -0.5345  0.1890 -0.2904
10728SOL    HW133083   4.337   1.007   0.003 -1.5145  0.6182  0.1700
10728SOL    HW233084   4.338   0.939   0.152  3.9403 -1.1174 -0.4453
10729SOL     OW33085   3.628   6.410   6.515 -0.0166 -1.0073  0.5161
10729SOL    HW133086   3.696   6.428   6.444  0.9515 -1.2392  1.3646
10729SOL    HW233087   3.544   6.378   6.472  0.7745 -1.8161 -0.5127
10730SOL     OW33088   6.638   0.705   3.339 -0.5170 -0.3664 -0.4976
10730SOL    HW133089   6.590   0.722   3.425  0.3149 -0.3580 -0.0182
10730SOL    HW233090   6.737   0.716   3.354 -0.2351 -1.8972 -1.0742
10731SOL     OW33091   0.776   3.317   3.783  0.4909 -0.5237  0.3487
10731SOL    HW133092   0.846   3.386   3.763  0.6239 -0.9045 -0.5734
10731SOL    HW233093   0.720   3.302   3.701 -0.5141 -0.4080  0.9972
10732SOL     OW33094   0.530   6.380   4.345 -0.1243 -0.3300 -0.0938
10732SOL    HW133095   0.491   6.296   4.306  1.9298 -1.2748 -0.2735
10732SOL    HW233096   0.630   6.377   4.336  0.0057  2.1313 -0.0356
10733SOL     OW33097   2.948   5.204   0.045  0.2353 -0.2297  0.0127
10733SOL    HW133098   2.894   5.275   0.001 -0.0109 -1.5776 -1.9876
10733SOL    HW233099   2.938   5.211   0.144 -1.6695  1.0437 -0.2207
10734SOL     OW33100   1.184   3.757   0.313  0.2690 -0.2457  0.3060
10734SOL    HW133101   1.110   3.819   0.337 -0.1163 -0.4516 -0.3140
10734SOL    HW233102   1.220   3.713   0.396 -0.0392  0.1469  0.6492
10735SOL     OW33103   6.150   1.142   3.379  0.1538  0.0119 -0.2242
10735SOL    HW133104   6.068   1.160   3.324  1.5211 -0.2098 -2.4614
10735SOL    HW233105   6.217   1.215   3.363  0.5984 -0.0525  1.2106
10736SOL     OW33106   0.115   4.565   0.501  0.0706  0.3555 -1.0054
10736SOL    HW133107   0.036   4.525   0.455 -1.8458 -0.0800  2.3078
10736SOL    HW233108   0.108   4.664   0.499 -0.2356  0.3300 -1.2812
10737SOL     OW33109   6.117   1.054   6.749 -0.2357  0.3059 -0.2058
10737SOL    HW133110   6.210   1.080   6.772 -0.0988 -0.1090 -0.2841
10737SOL    HW233111   6.067   1.031   6.833  0.8237 -3.0858 -0.3710
10738SOL     OW33112   6.519   6.444   1.564 -0.0328  0.1422  0.5053
10738SOL    HW133113   6.427   6.418   1.536 -0.5065  1.6571  0.5613
10738SOL    HW233114   6.541   6.402   1.652 -0.1446 -1.2768 -0.1203
10739SOL     OW33115   0.668   4.624   6.385  0.4820  0.2274 -0.1361
10739SOL    HW133116   0.637   4.661   6.472 -1.0726 -0.8958 -0.1614
10739SOL    HW233117   0.673   4.524   6.391 -1.3684 -0.0293 -1.7916
10740SOL     OW33118   0.247   3.005   0.947 -0.2224 -0.1097  0.2045
10740SOL    HW133119   0.161   2.991   0.996  0.0267  0.6436  0.8811
10740SOL    HW233120   0.316   3.040   1.010  0.3424  0.1007 -0.5143
10741SOL     OW33121   0.901   4.354   0.313  0.2380  0.8105 -0.0011
10741SOL    HW133122   0.956   4.353   0.397 -1.2729 -0.6889  1.0412
10741SOL    HW233123   0.904   4.265   0.269 -0.6490  0.9564 -0.3910
10742SOL     OW33124   6.105   3.439   6.210 -0.4370 -0.4351  0.5966
10742SOL    HW133125   6.198   3.459   6.242 -0.9787  2.3871  0.6671
10742SOL    HW233126   6.039   3.489   6.265 -1.8500 -0.7136 -0.7734
10743SOL     OW33127   1.038   3.867   3.472  0.1583 -0.5644  0.8216
10743SOL    HW133128   1.053   3.802   3.546  1.9686 -0.4757  0.5623
10743SOL    HW233129   1.109   3.937   3.474  0.6614 -0.9403 -1.3839
10744SOL     OW33130   6.847   1.229   6.127  0.1627 -0.4732  0.5334
10744SOL    HW133131   6.781   1.185   6.067 -0.1987  0.7676 -0.0100
10744SOL    HW233132   6.918   1.274   6.071  0.4904 -0.3176  1.0667
10745SOL     OW33133   1.033   1.410   3.621  0.2398  0.1186  0.2457
10745SOL    HW133134   0.986   1.340   3.675 -0.8151  0.7745  0.2110
10745SOL    HW233135   1.051   1.490   3.679  1.7546 -0.2961  0.3816
10746SOL     OW33136   2.025   3.362   4.352  0.0850  0.2639  0.6445
10746SOL    HW133137   2.064   3.286   4.404  0.4454 -0.9604 -1.3086
10746SOL    HW233138   1.926   3.353   4.350  0.1893 -0.8854 -0.5765
10747SOL     OW33139   0.640   6.528   5.416  0.0450  0.0540 -0.0605
10747SOL    HW133140   0.653   6.573   5.328  0.7060  2.3114  1.1339
10747SOL    HW233141   0.626   6.430   5.401 -0.9901  0.5181 -2.7384
10748SOL     OW33142   4.679   4.701   5.934  0.5417  0.0551 -0.3668
10748SOL    HW133143   4.661   4.605   5.957  0.7681  0.4109  1.4933
10748SOL    HW233144   4.619   4.730   5.860  0.5507 -1.5395 -1.0416
10749SOL     OW33145   5.641   3.063   6.851 -0.3912 -0.3160 -0.4109
10749SOL    HW133146   5.694   3.071   6.935  1.9925 -1.4517 -1.7035
10749SOL    HW233147   5.702   3.047   6.774 -2.6954 -2.9219 -1.8891
10750SOL     OW33148   0.748   1.104   2.807  0.4342  0.4354  0.2740
10750SOL    HW133149   0.798   1.040   2.865  1.0001 -0.6774 -1.3635
10750SOL    HW233150   0.651   1.080   2.806  0.7837 -1.0884 -1.1050
10751SOL     OW33151   2.601   4.594   2.136 -0.3460  0.5038  0.1302
10751SOL    HW133152   2.523   4.581   2.075 -0.6336 -2.0775  0.9299
10751SOL    HW233153   2.683   4.610   2.081 -0.5286 -2.0934 -1.0337
10752SOL     OW33154   5.884   0.482   6.433 -0.0696  0.3271 -0.3821
10752SOL    HW133155   5.793   0.439   6.434 -0.1832  0.5460 -0.8033
10752SOL    HW233156   5.874   0.579   6.411  0.2178  0.4937  0.2053
10753SOL     OW33157   6.091   0.982   5.963 -0.7267  0.2326 -0.3395
10753SOL    HW133158   6.152   1.006   5.887 -0.2579 -0.0995 -0.0680
10753SOL    HW233159   6.110   1.042   6.041 -1.2691  0.6331 -0.5014
10754SOL     OW33160   4.444   6.474   0.862 -0.0029 -0.5619  0.0286
10754SOL    HW133161   4.375   6.408   0.891  0.2951  0.1482  2.5878
10754SOL    HW233162   4.513   6.484   0.934  1.0123  1.1135 -1.1094
10755SOL     OW33163   5.541   6.176   1.639  0.0735 -0.1711 -0.4146
10755SOL    HW133164   5.602   6.121   1.696 -0.5098 -1.0974 -0.6640
10755SOL    HW233165   5.447   6.148   1.653 -0.3294  1.3093  0.0260
10756SOL     OW33166   6.103   3.492   3.642  0.4403 -0.2762 -0.5561
10756SOL    HW133167   6.168   3.429   3.685  2.0769  0.3760 -1.9289
10756SOL    HW233168   6.152   3.575   3.615 -1.5301  1.3910  0.6970
10757SOL     OW33169   5.285   2.185   2.456  0.0106 -0.1299  0.0514
10757SOL    HW133170   5.250   2.105   2.407 -0.7807 -1.1375  2.1446
10757SOL    HW233171   5.300   2.260   2.391 -1.5519 -1.1788 -1.6224
10758SOL     OW33172   2.627   6.314   2.753 -0.1364 -0.4507 -0.3938
10758SOL    HW133173   2.718   6.351   2.734 -0.5197  0.2087 -0.9934
10758SOL    HW233174   2.629   6.214   2.748  0.5435 -0.4331 -0.4548
10759SOL     OW33175   4.861   5.346   2.632 -0.1065  0.1234  0.0559
10759SOL    HW133176   4.863   5.438   2.673  2.7467  0.0570  0.3334
10759SOL    HW233177   4.955   5.314   2.620 -0.9937 -3.3589  1.2322
10760SOL     OW33178   4.047   6.722   5.631 -0.6834 -0.1603 -0.1091
10760SOL    HW133179   3.965   6.692   5.583 -0.8162 -2.5966  1.4673
10760SOL    HW233180   4.022   6.783   5.707 -0.7034  1.4340 -1.3319
10761SOL     OW33181   0.599   6.609   5.785  0.5923  0.3813  0.2994
10761SOL    HW133182   0.676   6.663   5.820 -1.9086  3.9101  0.8269
10761SOL    HW233183   0.581   6.634   5.690 -1.5623  1.8127  1.0106
10762SOL     OW33184   5.370   2.057   3.089 -0.1791  0.1878 -0.3617
10762SOL    HW133185   5.314   2.121   3.037  0.0018  0.3476 -0.3612
10762SOL    HW233186   5.313   2.008   3.155 -0.1330  1.1536  0.4249
10763SOL     OW33187   4.589   5.297   6.293 -0.4235 -0.2808  0.0369
10763SOL    HW133188   4.526   5.237   6.343 -0.9649  0.2633  0.0115
10763SOL    HW233189   4.654   5.338   6.358  0.1787 -1.1540  0.0103
10764SOL     OW33190   0.479   3.455   4.327  0.7405 -0.1891  0.0575
10764SOL    HW133191   0.425   3.464   4.411 -0.0559  0.3983 -0.5071
10764SOL    HW233192   0.497   3.545   4.289 -0.9795 -0.5106 -1.6768
10765SOL     OW33193   2.082   6.950   4.253 -0.4928 -0.4354  0.3267
10765SOL    HW133194   2.149   6.984   4.320 -0.0858 -1.1369  0.2925
10765SOL    HW233195   2.003   7.011   4.251 -0.2381 -0.0655  1.0062
10766SOL     OW33196   1.483   2.097   4.076 -0.2348 -0.2439 -0.2216
10766SOL    HW133197   1.564   2.043   4.055 -0.2295 -0.2366 -0.2199
10766SOL    HW233198   1.471   2.169   4.007  0.7120  0.8323  0.6945
10767SOL     OW33199   5.799   2.930   4.918 -0.0769  0.0256  0.0294
10767SOL    HW133200   5.745   2.943   5.001  0.0243 -0.0271  0.1033
10767SOL    HW233201   5.896   2.933   4.940 -0.0420  0.6972 -0.1921
10768SOL     OW33202   1.724   3.287   1.743 -0.1950  0.0332 -0.0210
10768SOL    HW133203   1.636   3.316   1.707 -0.1368 -0.1463 -0.3063
10768SOL    HW233204   1.766   3.363   1.794 -0.5772  0.0711  0.2361
10769SOL     OW33205   6.653   5.035   0.941  0.0737 -0.3788 -0.0793
10769SOL    HW133206   6.583   5.012   0.874 -0.9150  1.1213  0.3880
10769SOL    HW233207   6.723   5.092   0.898 -2.2740  3.4916  0.7348
10770SOL     OW33208   0.755   4.818   3.217 -0.0041 -0.8707  0.4682
10770SOL    HW133209   0.722   4.850   3.306 -0.1759  0.0015  0.1062
10770SOL    HW233210   0.743   4.719   3.210 -2.1528 -0.6651  0.5207
10771SOL     OW33211   1.299   6.533   0.821 -0.3115  0.3874  0.3833
10771SOL    HW133212   1.294   6.619   0.871 -0.5627  0.0396  0.9634
10771SOL    HW233213   1.361   6.543   0.743  0.6458  0.7270  1.1684
10772SOL     OW33214   0.952   4.652   0.274  0.8288 -0.9479  0.6226
10772SOL    HW133215   0.963   4.554   0.294 -1.9832 -1.2662  1.0255
10772SOL    HW233216   0.880   4.664   0.205  1.0120  0.8508  0.6955
10773SOL     OW33217   5.408   1.521   0.308  0.1322  0.4111 -0.3610
10773SOL    HW133218   5.489   1.516   0.366 -0.3572 -0.3483  0.2676
10773SOL    HW233219   5.435   1.544   0.215  1.0695  0.1088 -0.1673
10774SOL     OW33220   2.479   0.153   2.275 -0.4387  0.5579  0.0524
10774SOL    HW133221   2.385   0.146   2.241 -0.0782  2.2829 -1.4483
10774SOL    HW233222   2.522   0.236   2.238  1.1391  0.7062  2.0424
10775SOL     OW33223   5.067   5.671   1.891  0.1953 -0.4763 -0.1666
10775SOL    HW133224   5.090   5.717   1.805 -1.7369  0.5568 -0.1874
10775SOL    HW233225   4.992   5.719   1.935  0.9876 -1.1368  2.0172
10776SOL     OW33226   0.344   6.458   0.902  0.5774 -0.5669  0.0726
10776SOL    HW133227   0.332   6.439   0.804 -0.9387  0.0636  0.1123
10776SOL    HW233228   0.366   6.555   0.914  0.4484 -0.5757  0.3812
10777SOL     OW33229   0.626   6.973   1.254 -1.0290  0.6210 -0.3429
10777SOL    HW133230   0.563   6.896   1.250 -0.2137 -0.0275 -1.0005
10777SOL    HW233231   0.706   6.949   1.310 -0.0619  0.4346 -1.7569
10778SOL     OW33232   4.216   1.580   6.844 -0.0828 -1.2579 -0.0808
10778SOL    HW133233   4.307   1.575   6.886  0.1642 -0.5597 -0.5174
10778SOL    HW233234   4.220   1.542   6.752 -0.0138 -0.3736 -0.4476
10779SOL     OW33235   3.913   0.194   3.884  0.3613  0.2272 -0.8640
10779SOL    HW133236   3.866   0.247   3.954  1.7252 -0.8394  0.9650
10779SOL    HW233237   3.977   0.253   3.835 -2.2446  1.5330 -2.9277
10780SOL     OW33238   1.344   2.664   0.271  0.3421  0.2570  0.1054
10780SOL    HW133239   1.333   2.565   0.270 -0.8280  0.3817 -0.0069
10780SOL    HW233240   1.299   2.702   0.352 -1.3275  0.9146 -1.0817
10781SOL     OW33241   0.148   3.023   5.204 -0.1907  0.6173  0.0454
10781SOL    HW133242   0.247   3.007   5.202 -0.3612 -0.4960 -0.0594
10781SOL    HW233243   0.103   2.957   5.145 -1.1638 -0.2333  1.6772
10782SOL     OW33244   1.729   4.980   5.216 -0.1880 -0.3338  0.2019
10782SOL    HW133245   1.740   4.994   5.118  1.6220 -0.1187  0.4044
10782SOL    HW233246   1.632   4.987   5.240 -0.9754 -2.5348 -1.8817
10783SOL     OW33247   5.672   0.779   1.821 -0.1720  0.4624 -0.1250
10783SOL    HW133248   5.737   0.768   1.746  1.8556  0.5224  1.5514
10783SOL    HW233249   5.716   0.826   1.898 -2.4246  1.1785  0.8329
10784SOL     OW33250   5.075   5.052   4.571 -0.2109 -0.2635  0.0978
10784SOL    HW133251   5.115   5.108   4.498 -0.6472 -1.7939 -1.3469
10784SOL    HW233252   5.102   5.091   4.660  1.1187  1.0853 -0.8381
10785SOL     OW33253   2.153   3.762   5.668 -0.1376  0.0953  0.5694
10785SOL    HW133254   2.189   3.809   5.587  0.7564 -1.1815  0.1874
10785SOL    HW233255   2.112   3.675   5.640  0.1478 -0.3459  1.4724
10786SOL     OW33256   6.457   5.504   5.219 -0.3420  0.0241  0.1008
10786SOL    HW133257   6.471   5.524   5.316  1.2065  1.9838 -0.4532
10786SOL    HW233258   6.505   5.572   5.164 -0.4643 -1.5406 -2.0695
10787SOL     OW33259   5.041   1.713   5.324 -0.3971 -0.5236  0.4193
10787SOL    HW133260   4.942   1.717   5.310 -0.3033 -0.3995 -0.2409
10787SOL    HW233261   5.065   1.766   5.405 -0.6730  1.0876 -0.5085
10788SOL     OW33262   1.034   3.982   0.402  0.0910  0.4007  0.0771
10788SOL    HW133263   1.051   4.035   0.319  0.0385  0.1331 -0.1049
10788SOL    HW233264   0.937   3.992   0.428 -0.0561 -0.0712 -0.2841
10789SOL     OW33265   6.752   0.983   0.469 -0.0251 -0.1301 -0.1779
10789SOL    HW133266   6.816   1.033   0.411 -0.2949 -0.0204 -0.3859
10789SOL    HW233267   6.791   0.895   0.494 -0.0616 -0.3469 -0.8551
10790SOL     OW33268   0.580   2.965   6.523 -0.4848 -0.1071  0.0946
10790SOL    HW133269   0.680   2.971   6.525 -0.3537 -1.7796  1.8701
10790SOL    HW233270   0.541   3.055   6.502  1.3715  0.7882  0.3208
10791SOL     OW33271   4.343   5.266   6.556  0.4767  0.0068  0.2546
10791SOL    HW133272   4.304   5.179   6.586 -1.9022  0.8847 -0.0643
10791SOL    HW233273   4.318   5.283   6.461 -1.6897  2.3362  1.1373
10792SOL     OW33274   2.352   2.317   1.003  0.1899  0.0450 -0.4542
10792SOL    HW133275   2.318   2.248   1.067  0.1419 -0.0016 -0.5305
10792SOL    HW233276   2.286   2.330   0.929  0.8944 -0.9605 -1.2851
10793SOL     OW33277   0.545   4.285   2.709 -0.0711  0.3561  0.1622
10793SOL    HW133278   0.445   4.289   2.717 -0.3576 -2.2479 -1.1241
10793SOL    HW233279   0.574   4.189   2.703  2.4291  1.0876 -0.5095
10794SOL     OW33280   5.403   6.118   3.328 -0.3140  0.2694  0.1974
10794SOL    HW133281   5.403   6.143   3.231 -1.0056 -0.9481 -0.1350
10794SOL    HW233282   5.495   6.088   3.355 -0.4993 -1.0551 -0.5523
10795SOL     OW33283   0.160   5.918   6.669  0.1695  0.0713 -0.0430
10795SOL    HW133284   0.181   5.823   6.649 -0.4568  0.2033 -1.4341
10795SOL    HW233285   0.081   5.947   6.615  1.0300  1.6908 -0.5125
10796SOL     OW33286   2.122   3.382   2.874  0.2739 -0.1359  0.0399
10796SOL    HW133287   2.091   3.289   2.858  1.0482 -0.3918  0.0010
10796SOL    HW233288   2.109   3.437   2.792 -0.2096 -0.1974  0.0730
10797SOL     OW33289   5.165   1.400   3.070  0.5854  0.1897  0.2324
10797SOL    HW133290   5.223   1.448   3.005  0.4109 -0.7636 -0.6566
10797SOL    HW233291   5.110   1.466   3.121  1.2489  0.9949 -0.0707
10798SOL     OW33292   4.777   3.157   1.495 -0.3948  0.3370  0.0605
10798SOL    HW133293   4.728   3.130   1.577  0.8609 -1.6310  0.2332
10798SOL    HW233294   4.784   3.078   1.433 -2.7630  2.1212 -2.7909
10799SOL     OW33295   3.007   2.271   4.110  0.2213  0.0572  0.5144
10799SOL    HW133296   2.952   2.284   4.027  0.0926 -0.2249  0.5558
10799SOL    HW233297   2.952   2.289   4.191  0.8603  2.3363  0.5228
10800SOL     OW33298   2.408   3.122   5.472  0.4186  0.0880  0.1973
10800SOL    HW133299   2.435   3.078   5.386 -0.6804 -0.0886 -0.0702
10800SOL    HW233300   2.320   3.086   5.502  0.7422  0.2227  1.3567
10801SOL     OW33301   0.028   6.805   5.586  0.5059 -0.0199  0.1158
10801SOL    HW133302   0.047   6.795   5.488  1.9001  0.1400  0.3510
10801SOL    HW233303  -0.041   6.876   5.599  0.6966  0.3361 -0.7213
10802SOL     OW33304   2.647   2.418   3.438 -0.8570 -0.3458  0.4217
10802SOL    HW133305   2.631   2.503   3.389  2.2059 -1.5645 -3.1440
10802SOL    HW233306   2.579   2.349   3.412 -1.9618  0.2706  1.5589
10803SOL     OW33307   4.646   0.995   1.465 -0.2970  0.2058  0.5416
10803SOL    HW133308   4.559   0.995   1.514 -1.2831 -2.7818 -0.9330
10803SOL    HW233309   4.629   0.989   1.366  1.5377 -1.1446  0.2547
10804SOL     OW33310   2.020   4.023   6.233 -0.3250 -0.5970  0.0273
10804SOL    HW133311   2.033   4.113   6.191  0.2066 -0.2358  0.9330
10804SOL    HW233312   1.973   3.963   6.168  0.1019  0.0572 -0.9194
10805SOL     OW33313   4.560   5.084   2.352 -0.2778 -0.0998 -0.0991
10805SOL    HW133314   4.489   5.038   2.406 -0.9505  0.3076 -0.6132
10805SOL    HW233315   4.624   5.130   2.414  0.0303 -1.1662  0.3945
10806SOL     OW33316   1.894   5.217   5.029  0.4765 -0.0476  0.5182
10806SOL    HW133317   1.922   5.135   5.079  1.6612  0.4153  0.6502
10806SOL    HW233318   1.887   5.196   4.931  5.1317  0.5846 -0.1930
10807SOL     OW33319   6.101   2.462   3.743  0.1421  0.2882 -0.5190
10807SOL    HW133320   6.142   2.498   3.827 -1.0282  0.1740  0.1277
10807SOL    HW233321   6.073   2.538   3.684  0.4622  0.3745 -0.5631
10808SOL     OW33322   5.782   1.889   5.026 -0.0309  0.4240  0.5617
10808SOL    HW133323   5.727   1.943   5.090 -1.8121 -0.8854  0.2256
10808SOL    HW233324   5.767   1.920   4.933 -0.8789 -0.4412  0.3896
10809SOL     OW33325   2.564   5.451   5.813 -0.6078  0.5543 -0.3531
10809SOL    HW133326   2.640   5.417   5.867  0.9897 -0.4993 -3.0588
10809SOL    HW233327   2.598   5.516   5.745 -2.3567  1.0960 -0.7702
10810SOL     OW33328   5.239   1.142   4.555  0.1379  0.4439  0.3523
10810SOL    HW133329   5.197   1.080   4.621  2.2872 -1.0837  0.3897
10810SOL    HW233330   5.186   1.226   4.550 -1.4314 -0.3592  2.2227
10811SOL     OW33331   0.726   6.813   3.876 -0.3522 -0.5048 -0.2765
10811SOL    HW133332   0.654   6.762   3.922  0.2818 -1.4393 -0.3109
10811SOL    HW233333   0.813   6.768   3.889  0.2836  0.7413 -0.0441
10812SOL     OW33334   0.082   4.745   2.221  0.4474 -0.1738 -0.4060
10812SOL    HW133335   0.008   4.680   2.206  1.2814 -1.0085 -1.0371
10812SOL    HW233336   0.045   4.837   2.228 -0.7826 -0.7235  0.7540
10813SOL     OW33337   1.337   6.060   3.308  0.4644  0.2964  0.6339
10813SOL    HW133338   1.304   5.978   3.355  0.8741  0.7972  1.8236
10813SOL    HW233339   1.259   6.108   3.266  0.0663 -0.0667  0.9529
10814SOL     OW33340   6.661   6.651   1.848  0.3091 -0.1192  0.5698
10814SOL    HW133341   6.577   6.675   1.799  0.3314  0.9524  1.0211
10814SOL    HW233342   6.733   6.715   1.823  0.4574  0.1455  1.6170
10815SOL     OW33343   1.199   2.780   3.593  0.6651 -0.2467  0.5346
10815SOL    HW133344   1.183   2.865   3.643 -0.2380  0.3261 -0.6625
10815SOL    HW233345   1.131   2.711   3.622  0.1395  0.0860  0.1221
10816SOL     OW33346   2.475   0.303   4.677  0.1678  0.4549 -0.4633
10816SOL    HW133347   2.439   0.210   4.675  1.1781 -0.0328  1.6248
10816SOL    HW233348   2.406   0.366   4.640 -0.6366 -1.0583 -1.6376
10817SOL     OW33349   2.462   1.568   3.009 -0.1830 -0.1684  0.1165
10817SOL    HW133350   2.438   1.559   2.912  1.3735  1.2984 -0.4539
10817SOL    HW233351   2.439   1.483   3.057 -0.3867 -1.1751 -1.6615
10818SOL     OW33352   0.438   1.947   1.357  0.1697 -0.2091  0.1597
10818SOL    HW133353   0.341   1.965   1.373  0.4050  1.5898 -0.2190
10818SOL    HW233354   0.475   1.896   1.435 -1.2032 -1.5755 -0.0196
10819SOL     OW33355   3.911   3.519   3.668  0.6891  0.0675 -0.4479
10819SOL    HW133356   3.930   3.617   3.663  0.1616  0.1668 -0.5716
10819SOL    HW233357   3.924   3.478   3.577 -1.7819  0.5408 -1.0862
10820SOL     OW33358   0.072   6.639   4.674 -0.2918 -0.2082  0.4390
10820SOL    HW133359   0.003   6.662   4.605 -0.6485  1.6913  1.3599
10820SOL    HW233360   0.144   6.707   4.674  0.2867 -0.7998  1.1906
10821SOL     OW33361   5.280   3.610   1.876 -0.5624 -0.1173 -0.1928
10821SOL    HW133362   5.273   3.519   1.916  2.2163 -0.4025 -0.1593
10821SOL    HW233363   5.267   3.679   1.947 -1.0280 -0.4934  0.0960
10822SOL     OW33364   1.146   2.918   2.562 -0.4379  0.9884 -0.2500
10822SOL    HW133365   1.193   2.881   2.482 -0.1835  1.3210 -0.2533
10822SOL    HW233366   1.212   2.954   2.627 -0.3828 -1.9884  1.5377
10823SOL     OW33367   6.496   1.660   2.806  0.4059 -0.7546 -0.3258
10823SOL    HW133368   6.514   1.572   2.762 -0.9907 -2.1511  1.6985
10823SOL    HW233369   6.562   1.674   2.880  1.4909  0.6239 -1.4891
10824SOL     OW33370   1.232   3.480   0.261  0.2180  0.4327  0.0293
10824SOL    HW133371   1.238   3.575   0.291  0.3096 -0.1448  1.9794
10824SOL    HW233372   1.310   3.459   0.202  1.4436  0.9772  1.4007
10825SOL     OW33373   1.440   4.477   1.486 -0.3113 -0.6535 -0.3324
10825SOL    HW133374   1.479   4.506   1.573  0.4159  0.2355 -0.9349
10825SOL    HW233375   1.472   4.385   1.463  1.5228  0.0776 -0.8427
10826SOL     OW33376   5.914   6.783   2.357  0.2819  0.5381 -0.3580
10826SOL    HW133377   5.928   6.769   2.259  0.3007 -0.3125 -0.2432
10826SOL    HW233378   5.906   6.694   2.402  2.0134  0.8696  0.6723
10827SOL     OW33379   5.937   3.490   5.472  0.0093 -0.1786  0.6899
10827SOL    HW133380   5.850   3.530   5.500 -0.0521  0.4891 -0.4225
10827SOL    HW233381   6.012   3.551   5.498  0.0749 -0.2909  0.7671
10828SOL     OW33382   4.220   0.789   6.644  0.4392 -0.3469  0.2980
10828SOL    HW133383   4.318   0.774   6.657  0.6337  0.6539  0.0562
10828SOL    HW233384   4.183   0.718   6.585  0.8454 -1.2174  1.0668
10829SOL     OW33385   1.690   4.279   4.668  0.2338  0.5113 -0.3568
10829SOL    HW133386   1.664   4.218   4.593 -1.9868  0.2273  0.5906
10829SOL    HW233387   1.790   4.281   4.675  0.5378  0.8004 -3.4840
10830SOL     OW33388   4.500   0.901   5.121  0.4061 -0.6114  0.3421
10830SOL    HW133389   4.419   0.955   5.103  1.5474  1.7535  1.8184
10830SOL    HW233390   4.559   0.899   5.040 -0.6172 -1.5114 -0.4069
10831SOL     OW33391   0.863   7.007   2.643 -0.1343 -0.1198  0.1477
10831SOL    HW133392   0.890   7.075   2.711  0.1547  0.3851 -0.4622
10831SOL    HW233393   0.813   6.933   2.688 -1.1977  0.9084  0.7025
10832SOL     OW33394   1.406   5.448   4.114  0.4956  0.5265 -0.4365
10832SOL    HW133395   1.420   5.427   4.211 -0.2808  0.2333 -0.3824
10832SOL    HW233396   1.449   5.377   4.058 -0.4367 -0.1788 -0.2779
10833SOL     OW33397   6.305   2.089   3.981  0.1272  0.0199 -0.0507
10833SOL    HW133398   6.401   2.068   4.000  0.3829  1.1904  0.0172
10833SOL    HW233399   6.298   2.142   3.896 -0.7449 -2.5615 -1.7202
10834SOL     OW33400   5.160   6.075   2.044 -0.0165 -0.1784  0.1877
10834SOL    HW133401   5.250   6.117   2.058 -0.0876  0.0092  0.0874
10834SOL    HW233402   5.102   6.138   1.993 -0.0200 -0.5242 -0.2404
10835SOL     OW33403   5.972   1.064   4.410 -0.0594  0.4225  0.1962
10835SOL    HW133404   5.954   1.103   4.501  0.8470  1.4121 -0.0356
10835SOL    HW233405   6.066   1.084   4.383  0.2562 -1.4255 -0.2051
10836SOL     OW33406   2.695   1.737   4.273 -0.0126  0.0824  0.0838
10836SOL    HW133407   2.687   1.668   4.200  0.0464 -1.6941  1.6914
10836SOL    HW233408   2.606   1.752   4.315  0.2420 -0.1307  0.7088
10837SOL     OW33409   4.281   0.052   5.924 -0.0369 -0.0304  0.1338
10837SOL    HW133410   4.184   0.061   5.902  0.0875 -0.1915 -0.5223
10837SOL    HW233411   4.312  -0.040   5.900  0.2825  0.0275  0.3176
10838SOL     OW33412   2.531   2.533   5.644  0.2355 -0.4854  0.8957
10838SOL    HW133413   2.491   2.621   5.669  0.3475 -0.2398  0.2312
10838SOL    HW233414   2.549   2.531   5.546  0.8164 -1.0152  1.0067
10839SOL     OW33415   1.450   2.560   1.359 -0.5457 -0.2829 -0.3249
10839SOL    HW133416   1.525   2.504   1.324 -0.6117 -0.7096  0.1992
10839SOL    HW233417   1.462   2.655   1.330 -0.4992 -0.5809 -1.3400
10840SOL     OW33418   5.121   0.335   5.029  0.1115 -0.4474 -0.0721
10840SOL    HW133419   5.059   0.261   5.054  0.7993 -0.8864  0.3788
10840SOL    HW233420   5.167   0.312   4.943 -0.2268 -0.1952 -0.3232
10841SOL     OW33421   5.543   2.135   0.223 -0.4650  0.5630 -0.2174
10841SOL    HW133422   5.551   2.043   0.262  0.0079 -0.4507 -2.5680
10841SOL    HW233423   5.459   2.142   0.170 -0.9050  1.7955  0.5825
10842SOL     OW33424   6.834   5.019   4.590 -0.3182 -0.0486  0.2738
10842SOL    HW133425   6.778   4.988   4.514 -0.0904 -0.8943  0.4418
10842SOL    HW233426   6.788   5.001   4.676 -0.6274  1.0136  0.3494
10843SOL     OW33427   6.678   4.529   2.466 -0.0409 -0.0101 -0.0627
10843SOL    HW133428   6.726   4.503   2.549  1.3177  1.5163 -0.3153
10843SOL    HW233429   6.721   4.483   2.388  0.4675  0.6557 -0.1888
10844SOL     OW33430   1.521   5.992   3.063  0.2179 -0.5674  0.6483
10844SOL    HW133431   1.428   5.997   3.027  0.0930 -0.9770  0.9128
10844SOL    HW233432   1.522   6.020   3.159  0.5146  0.2896  0.4135
10845SOL     OW33433   1.418   4.296   1.991  0.1800 -0.1471  0.0560
10845SOL    HW133434   1.385   4.217   1.938  0.0447 -0.5880  0.7763
10845SOL    HW233435   1.340   4.341   2.035  0.2823  0.2686 -0.1859
10846SOL     OW33436   4.344   6.415   4.125  0.0221  0.6306 -0.0753
10846SOL    HW133437   4.319   6.325   4.087  0.6456  0.5321 -0.2563
10846SOL    HW233438   4.420   6.404   4.189  1.6176  1.3090 -1.7787
10847SOL     OW33439   4.875   3.245   2.892 -0.3290 -0.0670 -0.2590
10847SOL    HW133440   4.868   3.218   2.796 -0.3471 -0.4922 -0.1433
10847SOL    HW233441   4.823   3.180   2.948 -1.6022  1.0628 -0.1017
10848SOL     OW33442   1.266   6.324   5.813  0.4220 -0.2485 -0.3091
10848SOL    HW133443   1.188   6.270   5.843  0.0779 -0.0394 -0.7954
10848SOL    HW233444   1.303   6.376   5.890 -1.2770  1.3176 -0.4793
10849SOL     OW33445   6.605   3.300   3.282 -0.2045  0.3322  0.4169
10849SOL    HW133446   6.578   3.366   3.353 -0.6514  0.3556  0.2286
10849SOL    HW233447   6.671   3.236   3.320  1.3861  1.7643  0.2163
10850SOL     OW33448   3.070   0.762   6.761 -0.7008 -0.4650 -0.7261
10850SOL    HW133449   3.047   0.795   6.669  1.1984  0.1399 -1.0303
10850SOL    HW233450   3.126   0.830   6.808 -0.9626 -1.1197  0.5753
10851SOL     OW33451   2.320   4.662   1.131 -0.2616  0.2516  0.3827
10851SOL    HW133452   2.311   4.621   1.041  0.6259 -0.5571  0.6459
10851SOL    HW233453   2.401   4.625   1.177 -1.3811 -0.2891  2.0000
10852SOL     OW33454   2.346   0.595   6.253 -0.1971 -0.1214  0.0088
10852SOL    HW133455   2.329   0.619   6.157 -3.3323  2.2410  0.9620
10852SOL    HW233456   2.316   0.501   6.269 -0.6708 -0.1846 -1.1233
10853SOL     OW33457   1.565   2.798   2.019  0.1874 -0.0188 -0.3349
10853SOL    HW133458   1.527   2.871   1.963 -1.0254 -0.9566 -0.7694
10853SOL    HW233459   1.659   2.822   2.046  0.3634  0.9888 -1.7507
10854SOL     OW33460   3.744   4.006   4.962 -0.5664 -0.3042 -0.4043
10854SOL    HW133461   3.726   3.918   5.006 -0.6892 -0.3058 -0.4586
10854SOL    HW233462   3.831   4.001   4.913  1.1514  0.6100  2.3079
10855SOL     OW33463   6.873   3.544   6.804  0.0449  0.9600  0.0354
10855SOL    HW133464   6.963   3.582   6.825  0.8527 -0.4733 -0.7236
10855SOL    HW233465   6.847   3.478   6.875 -1.1183  2.4647  1.0687
10856SOL     OW33466   4.453   1.608   6.979 -0.1117 -0.1289 -0.1359
10856SOL    HW133467   4.509   1.528   7.002  1.5525  0.8213 -0.7180
10856SOL    HW233468   4.511   1.680   6.941 -1.5383  1.4481  0.5280
10857SOL     OW33469   4.886   4.046   4.275 -0.2248 -0.2996  0.5852
10857SOL    HW133470   4.911   4.049   4.178 -1.3189  0.7595  0.3141
10857SOL    HW233471   4.859   3.953   4.300 -0.4258 -0.4741 -0.2625
10858SOL     OW33472   5.167   0.985   1.168  0.4542  0.0320  0.1398
10858SOL    HW133473   5.197   0.952   1.258 -1.9940  0.6477  1.2710
10858SOL    HW233474   5.205   0.925   1.097  1.4373 -1.2439  1.6412
10859SOL     OW33475   4.787   1.455   2.582 -0.2255 -0.0403  0.2444
10859SOL    HW133476   4.887   1.454   2.583 -0.2285 -0.7397  1.2239
10859SOL    HW233477   4.753   1.373   2.628 -1.2463  0.7289  0.8775
10860SOL     OW33478   1.750   5.499   4.448  0.0926  0.1224  0.0087
10860SOL    HW133479   1.787   5.589   4.426 -0.9744  0.2004 -1.6628
10860SOL    HW233480   1.734   5.447   4.364  0.6848 -1.6569  0.9257
10861SOL     OW33481   5.685   0.300   1.662  0.3745 -0.3552 -0.0339
10861SOL    HW133482   5.623   0.377   1.646  2.0496  1.3249  1.2250
10861SOL    HW233483   5.758   0.301   1.594  1.6810  0.5946  1.3232
10862SOL     OW33484   3.066   5.476   3.785  0.1519  0.3686  0.3684
10862SOL    HW133485   3.123   5.525   3.720  0.1908  0.7713  0.6996
10862SOL    HW233486   2.971   5.508   3.778  0.1654  0.4457  0.5451
10863SOL     OW33487   2.729   5.984   3.676 -0.3819 -0.1096  0.9279
10863SOL    HW133488   2.823   6.018   3.684 -0.8209  1.6061 -0.6698
10863SOL    HW233489   2.722   5.924   3.597 -0.8148  0.4653  0.5246
10864SOL     OW33490   0.529   4.424   6.832  0.0771 -0.3088  0.0652
10864SOL    HW133491   0.496   4.496   6.771  0.0122 -0.6773 -0.3421
10864SOL    HW233492   0.490   4.437   6.923  1.3695  1.1308  0.4636
10865SOL     OW33493   5.230   4.438   5.463  0.3056  0.5665  0.1087
10865SOL    HW133494   5.136   4.441   5.429  0.2723  2.3669  0.2869
10865SOL    HW233495   5.234   4.379   5.544 -1.2426  2.5067  1.7001
10866SOL     OW33496   4.030   3.991   0.090 -0.3021  0.0070  0.3902
10866SOL    HW133497   4.079   3.991   0.176 -0.0490 -3.5239  0.3769
10866SOL    HW233498   3.947   3.935   0.098 -0.3388 -0.3156 -1.6186
10867SOL     OW33499   5.200   3.148   3.660  0.1238 -0.2906 -0.3740
10867SOL    HW133500   5.216   3.246   3.671 -0.4550 -0.3887  1.9144
10867SOL    HW233501   5.132   3.133   3.589  0.4620  0.9289 -0.9857
10868SOL     OW33502   1.653   2.428   5.681 -0.7109  0.3276 -0.5715
10868SOL    HW133503   1.748   2.417   5.656 -0.6842  1.4776 -1.0180
10868SOL    HW233504   1.639   2.392   5.774  0.4101  1.1890 -0.0432
10869NA      NA33505   1.233   2.088   1.484 -0.0279  0.0898 -0.1249
10870NA      NA33506   4.394   2.297   5.908 -0.1652  0.1947  0.1234
10871NA      NA33507   1.698   3.598   3.378 -0.1283  0.5031  0.6575
10872NA      NA33508   2.088   3.766   1.729  0.4933 -0.1451 -0.5885
10873NA      NA33509   3.554   3.656   4.456  0.1253  0.2802 -0.1653
10874NA      NA33510   2.567   5.301   4.994  0.3450 -0.1308  0.3303
10875NA      NA33511   2.311   5.143   6.761 -0.2955  0.1466  0.5262
10876NA      NA33512   4.428   4.529   5.265 -0.1850  0.3304 -0.0236
10877NA      NA33513   4.472   4.510   1.899 -0.2063 -0.3238 -0.2071
10878NA      NA33514   3.654   3.333   2.091 -0.0472  0.7221 -0.2481
10879NA      NA33515   0.010   6.203   2.061  0.2325  0.0337  0.2830
10880NA      NA33516   4.078   1.539   4.154  0.0818 -0.0655  0.7952
10881NA      NA33517   1.222   1.792   0.001  0.7722  0.2741  0.4857
10882NA      NA33518   7.011   6.581   3.776 -0.1752  0.1366  0.6152
   7.02135   7.02135   7.02135
