CNT in water
33518
    1C        C    1   2.845   2.770   4.741  0.1568  0.0273  0.1350
    1C        C    2   2.899   2.719   4.861 -0.0042 -0.1259  0.1442
    1C        C    3   2.840   2.765   4.979 -0.2286  0.0584 -0.0401
    1C        C    4   2.850   2.774   4.255  0.0064  0.1474 -0.0369
    1C        C    5   2.905   2.730   4.377 -0.3152 -0.3159 -0.0588
    1C        C    6   2.852   2.777   4.500  0.0599  0.0298 -0.0264
    1C        C    7   3.015   2.640   4.620  0.2262  0.4660  0.0549
    1C        C    8   2.901   2.723   4.621 -0.1801 -0.0836  0.0197
    1C        C    9   3.076   2.599   4.741  0.3429  0.6710  0.0664
    1C        C   10   3.007   2.628   4.860  0.3752  0.3192  0.1705
    1C        C   11   3.180   2.494   4.975  0.4702  0.6173  0.4561
    1C        C   12   3.056   2.559   4.973 -0.0379 -0.3543 -0.0560
    1C        C   13   2.850   2.770   3.770  0.2812  0.1702  0.3554
    1C        C   14   2.900   2.722   3.892  0.3357 -0.0489  0.2449
    1C        C   15   2.843   2.765   4.014 -0.3887  0.0853 -0.1435
    1C        C   16   3.015   2.639   4.135 -0.0311  0.4761  0.1783
    1C        C   17   2.898   2.718   4.135 -0.1483  0.3007 -0.1690
    1C        C   18   3.077   2.602   4.257 -0.0827 -0.0834  0.0385
    1C        C   19   3.022   2.650   4.377 -0.0314  0.0965 -0.0085
    1C        C   20   3.210   2.555   4.500 -0.0283  0.0652 -0.1319
    1C        C   21   3.079   2.607   4.499  0.0450  0.2578  0.0130
    1C        C   22   3.277   2.530   4.622  0.0839 -0.0518 -0.2144
    1C        C   23   3.206   2.541   4.743  0.3909  0.7658 -0.1029
    1C        C   24   3.410   2.474   4.862 -0.2114 -0.3966  0.1161
    1C        C   25   3.269   2.497   4.863 -0.1180  0.2351 -0.0260
    1C        C   26   3.489   2.466   4.977  0.1899 -0.6316 -0.1690
    1C        C   27   2.857   2.776   3.280  0.3263  0.1955 -0.0052
    1C        C   28   2.913   2.732   3.403  0.1320 -0.2646 -0.0828
    1C        C   29   2.855   2.771   3.525  0.2459 -0.2269 -0.0447
    1C        C   30   3.017   2.638   3.648 -0.3389 -0.2359  0.0516
    1C        C   31   2.905   2.724   3.648 -0.0486  0.1434  0.2178
    1C        C   32   3.077   2.600   3.770 -0.0569 -0.6013 -0.2029
    1C        C   33   3.013   2.637   3.890  0.0653 -0.3977 -0.2024
    1C        C   34   3.202   2.541   4.012 -0.2826  0.3316  0.0030
    1C        C   35   3.073   2.600   4.013 -0.5401 -0.2252  0.1500
    1C        C   36   3.273   2.524   4.132 -0.0443 -0.1393 -0.2030
    1C        C   37   3.208   2.550   4.255 -0.3023 -0.6292 -0.2363
    1C        C   38   3.412   2.500   4.375  0.0846  0.4578  0.0692
    1C        C   39   3.273   2.524   4.377  0.0907  0.5255 -0.1898
    1C        C   40   3.482   2.486   4.497 -0.0775  0.1639  0.1291
    1C        C   41   3.413   2.492   4.621  0.2288  0.4324  0.2878
    1C        C   42   3.627   2.476   4.736  0.0534 -0.1613 -0.1441
    1C        C   43   3.485   2.473   4.741  0.0667 -0.2573  0.2830
    1C        C   44   3.701   2.483   4.856 -0.2591  0.2559  0.0282
    1C        C   45   3.627   2.474   4.975  0.1874 -0.4331  0.2575
    1C        C   46   2.842   2.755   2.794 -0.0071 -0.1838  0.2200
    1C        C   47   2.892   2.708   2.917  0.2299  0.2204  0.2765
    1C        C   48   2.846   2.763   3.039 -0.1210  0.1477  0.1733
    1C        C   49   3.019   2.637   3.158 -0.1151 -0.2875  0.0066
    1C        C   50   2.910   2.726   3.159  0.1406  0.0217 -0.0090
    1C        C   51   3.078   2.598   3.280 -0.1350  0.0302  0.1134
    1C        C   52   3.025   2.647   3.402  0.1578 -0.2306  0.3421
    1C        C   53   3.207   2.545   3.525  0.1103 -0.3273  0.2432
    1C        C   54   3.080   2.606   3.526  0.0226 -0.5126  0.3077
    1C        C   55   3.274   2.518   3.646  0.4638 -0.0935  0.0994
    1C        C   56   3.206   2.542   3.768  0.0430 -0.3788 -0.0781
    1C        C   57   3.411   2.498   3.889 -0.0968  0.8299  0.0844
    1C        C   58   3.271   2.518   3.891 -0.2465 -0.1609  0.1156
    1C        C   59   3.482   2.488   4.011 -0.2900  0.6099  0.1781
    1C        C   60   3.411   2.494   4.133 -0.0411 -0.1216  0.3649
    1C        C   61   3.624   2.488   4.253  0.3159  0.2342 -0.1636
    1C        C   62   3.483   2.487   4.254  0.3165  0.5360  0.1964
    1C        C   63   3.698   2.498   4.373  0.2904 -0.0672 -0.1232
    1C        C   64   3.623   2.487   4.492 -0.0946  0.2879 -0.3330
    1C        C   65   3.829   2.537   4.614 -0.2631  0.2100 -0.2457
    1C        C   66   3.694   2.495   4.613 -0.1866 -0.0314 -0.2587
    1C        C   67   3.899   2.560   4.734 -0.4849 -0.3585 -0.0082
    1C        C   68   3.835   2.525   4.856 -0.0304 -0.4595  0.2016
    1C        C   69   4.045   2.586   4.975  0.2312  0.2717  0.0334
    1C        C   70   3.920   2.524   4.968  0.4723 -0.1957 -0.1687
    1C        C   71   2.823   2.732   2.305 -0.0024 -0.2555  0.0214
    1C        C   72   2.883   2.695   2.427  0.0035  0.0385  0.1053
    1C        C   73   2.836   2.747   2.549 -0.0008  0.2794 -0.0030
    1C        C   74   3.006   2.621   2.672 -0.0632  0.3242  0.1636
    1C        C   75   2.893   2.706   2.671 -0.4434 -0.1885  0.0440
    1C        C   76   3.073   2.595   2.793  0.1589  0.2495  0.0218
    1C        C   77   3.012   2.635   2.915 -0.0781 -0.2818  0.0767
    1C        C   78   3.202   2.534   3.036 -0.1236 -0.4586 -0.2053
    1C        C   79   3.075   2.595   3.035 -0.0492 -0.3066  0.0478
    1C        C   80   3.267   2.508   3.159 -0.0262 -0.5866 -0.2872
    1C        C   81   3.202   2.532   3.282 -0.0594  0.1576 -0.4499
    1C        C   82   3.408   2.481   3.400 -0.6285 -0.7475 -0.3666
    1C        C   83   3.270   2.510   3.404 -0.4066  0.3349 -0.2250
    1C        C   84   3.480   2.471   3.521 -0.1979  0.4964 -0.5058
    1C        C   85   3.410   2.479   3.643  0.5155  0.1026 -0.0625
    1C        C   86   3.619   2.483   3.766  0.1451  0.5054 -0.3667
    1C        C   87   3.478   2.476   3.767  0.1237  0.9645  0.1806
    1C        C   88   3.692   2.500   3.886 -0.1388  0.7496 -0.2266
    1C        C   89   3.623   2.495   4.009 -0.2868  0.3839 -0.3248
    1C        C   90   3.830   2.535   4.130  0.0495 -0.2164 -0.0697
    1C        C   91   3.694   2.495   4.130 -0.1393  0.4171 -0.4129
    1C        C   92   3.899   2.567   4.248  0.1606 -0.3196 -0.1078
    1C        C   93   3.832   2.542   4.370  0.1147  0.4771  0.0303
    1C        C   94   4.025   2.626   4.495  0.4560 -0.3050  0.3958
    1C        C   95   3.895   2.570   4.493  0.2184  0.2451  0.0284
    1C        C   96   4.082   2.670   4.616  0.4541 -0.1325  0.3324
    1C        C   97   4.025   2.624   4.737 -0.6235 -0.0781 -0.1395
    1C        C   98   4.172   2.772   4.859 -0.4724  0.0493 -0.0313
    1C        C   99   4.094   2.653   4.858 -0.1717 -0.1479 -0.3761
    1C        C  100   4.193   2.849   4.974 -0.5715  0.0517 -0.0153
    1C        C  101   2.822   2.731   2.068 -0.0752  0.2395  0.1548
    1C        C  102   2.987   2.586   2.188 -0.2347 -0.3819 -0.4120
    1C        C  103   2.876   2.676   2.185 -0.1329 -0.2442 -0.0407
    1C        C  104   3.061   2.572   2.309 -0.4908  0.2946 -0.1731
    1C        C  105   3.006   2.626   2.428 -0.0330 -0.0215  0.1823
    1C        C  106   3.196   2.529   2.550 -0.1715 -0.2363 -0.1531
    1C        C  107   3.067   2.586   2.549  0.0589  0.2913  0.2376
    1C        C  108   3.266   2.506   2.670 -0.1120 -0.0084 -0.1478
    1C        C  109   3.196   2.527   2.791 -0.2131 -0.4168 -0.1401
    1C        C  110   3.405   2.486   2.913  0.0330 -0.2899 -0.0239
    1C        C  111   3.266   2.508   2.913  0.1252  0.2818 -0.2304
    1C        C  112   3.476   2.481   3.035  0.2222  0.6609 -0.0894
    1C        C  113   3.406   2.483   3.157  0.1799  0.5113 -0.1144
    1C        C  114   3.620   2.483   3.277 -0.0343  0.7851 -0.1344
    1C        C  115   3.479   2.477   3.278  0.0005 -0.0721 -0.0338
    1C        C  116   3.689   2.492   3.400  0.0151  0.5540 -0.1446
    1C        C  117   3.621   2.480   3.523 -0.1838  0.2486 -0.2841
    1C        C  118   3.823   2.544   3.644  0.2122  0.2756  0.5642
    1C        C  119   3.690   2.497   3.645 -0.0918  1.0694 -0.4423
    1C        C  120   3.891   2.571   3.764  0.5202  0.1406  0.4195
    1C        C  121   3.825   2.548   3.886 -0.1745  0.8423  0.1759
    1C        C  122   4.017   2.637   4.005  0.2015  0.1201 -0.0660
    1C        C  123   3.891   2.573   4.008  0.2774 -0.0164  0.1102
    1C        C  124   4.078   2.673   4.127 -0.2349  0.0980  0.1599
    1C        C  125   4.026   2.628   4.250  0.0407 -0.0815  0.2106
    1C        C  126   4.189   2.760   4.371 -0.4329  0.3839  0.1744
    1C        C  127   4.085   2.665   4.373 -0.0266 -0.0578  0.2341
    1C        C  128   4.234   2.815   4.493  0.0253 -0.2409  0.2865
    1C        C  129   4.181   2.771   4.616  0.0898  0.2289  0.4848
    1C        C  130   4.313   2.936   4.733  0.3062  0.2204 -0.0976
    1C        C  131   4.231   2.820   4.739  0.2381  0.2877  0.4003
    1C        C  132   4.338   3.005   4.854  0.0487 -0.3346  0.2811
    1C        C  133   4.267   2.967   4.968 -0.5035  0.0132  0.0635
    1C        C  134   3.167   2.463   2.081 -0.1612 -0.2465  0.2392
    1C        C  135   3.033   2.504   2.081  0.0103  0.3506 -0.8738
    1C        C  136   3.254   2.473   2.190  0.0011 -0.1591  0.1028
    1C        C  137   3.194   2.521   2.308 -0.6805 -0.2021 -0.2246
    1C        C  138   3.404   2.480   2.426 -0.3660  0.2715 -0.0180
    1C        C  139   3.265   2.505   2.429 -0.4084  0.0640 -0.3476
    1C        C  140   3.475   2.467   2.548 -0.1506 -0.4670 -0.2231
    1C        C  141   3.402   2.471   2.669  0.0775  0.7325 -0.1244
    1C        C  142   3.614   2.489   2.789 -0.0958  0.9395 -0.1635
    1C        C  143   3.474   2.475   2.790  0.0053 -0.0294 -0.0608
    1C        C  144   3.687   2.497   2.909 -0.1806  1.1020 -0.1245
    1C        C  145   3.617   2.486   3.031  0.2267  0.5753  0.0625
    1C        C  146   3.822   2.539   3.155  0.3261  0.3658  0.0195
    1C        C  147   3.687   2.499   3.153  0.4037  0.1076  0.0126
    1C        C  148   3.889   2.564   3.277  0.1200  0.6032  0.0834
    1C        C  149   3.823   2.536   3.398 -0.0045  0.6200  0.0202
    1C        C  150   4.010   2.636   3.518  0.0871 -0.5549 -0.0850
    1C        C  151   3.887   2.566   3.520 -0.1805 -0.0795  0.2923
    1C        C  152   4.078   2.667   3.638  0.4257 -0.6510 -0.2508
    1C        C  153   4.018   2.633   3.761  0.8007 -0.4428 -0.0094
    1C        C  154   4.184   2.766   3.882  0.8331 -0.5282  0.1840
    1C        C  155   4.078   2.673   3.883  0.6332 -0.3036  0.0271
    1C        C  156   4.233   2.816   4.005  0.9319 -0.6536  0.1948
    1C        C  157   4.180   2.771   4.127  0.3471 -0.4984 -0.0013
    1C        C  158   4.319   2.928   4.247  0.1229 -0.2805  0.1332
    1C        C  159   4.236   2.814   4.250 -0.1140 -0.1114  0.0774
    1C        C  160   4.361   2.987   4.368 -0.3486  0.1011  0.1154
    1C        C  161   4.317   2.929   4.489  0.0143 -0.2382  0.0872
    1C        C  162   4.417   3.118   4.610  0.8247 -0.1886 -0.1286
    1C        C  163   4.351   2.993   4.610  0.4237  0.0158 -0.1585
    1C        C  164   4.451   3.184   4.730 -0.2215  0.2375 -0.0478
    1C        C  165   4.419   3.120   4.852 -0.1148 -0.2221 -0.2548
    1C        C  166   4.500   3.319   4.967  0.4305  0.2997  0.1392
    1C        C  167   4.463   3.184   4.968 -0.4890  0.5323 -0.5189
    1C        C  168   3.471   2.449   2.068  0.1600 -0.6163  0.1626
    1C        C  169   3.395   2.458   2.185  0.0037 -0.1114  0.0256
    1C        C  170   3.613   2.463   2.305 -0.1589  0.3306  0.0685
    1C        C  171   3.471   2.461   2.304 -0.1555  0.1229  0.1216
    1C        C  172   3.686   2.483   2.425  0.0497 -0.0971  0.0140
    1C        C  173   3.615   2.480   2.547 -0.2297  0.4174 -0.1335
    1C        C  174   3.823   2.533   2.667 -0.0918  0.4915  0.1581
    1C        C  175   3.687   2.497   2.668 -0.1861  0.8366 -0.2197
    1C        C  176   3.888   2.563   2.788  0.4886  0.0926 -0.0546
    1C        C  177   3.821   2.541   2.910 -0.1005  0.8571 -0.2352
    1C        C  178   4.014   2.629   3.030  0.0469  0.1463 -0.0193
    1C        C  179   3.888   2.566   3.032  0.0754  0.0872 -0.1746
    1C        C  180   4.076   2.662   3.152  0.3089 -0.1949 -0.0609
    1C        C  181   4.013   2.631   3.275  0.2466  0.3652  0.0516
    1C        C  182   4.182   2.759   3.395  0.5292 -0.3737  0.1783
    1C        C  183   4.072   2.671   3.397  0.3989 -0.2103  0.1717
    1C        C  184   4.235   2.808   3.517  0.6509 -0.3919  0.1315
    1C        C  185   4.183   2.762   3.639  0.2912 -0.5042 -0.0638
    1C        C  186   4.333   2.915   3.759  0.2017 -0.4326 -0.0799
    1C        C  187   4.236   2.813   3.760  0.1835 -0.4147 -0.0543
    1C        C  188   4.369   2.979   3.880  0.6059 -0.8938  0.0444
    1C        C  189   4.324   2.924   4.002  1.0531 -0.7517  0.2774
    1C        C  190   4.435   3.103   4.125  0.1289 -0.0764 -0.2904
    1C        C  191   4.364   2.982   4.124  0.4595 -0.2783  0.2575
    1C        C  192   4.465   3.171   4.246 -0.2065 -0.0302 -0.2301
    1C        C  193   4.430   3.110   4.369 -0.5729  0.2325 -0.2023
    1C        C  194   4.498   3.314   4.488 -0.4866  0.2367  0.1446
    1C        C  195   4.455   3.180   4.489  0.2360 -0.0014 -0.2270
    1C        C  196   4.515   3.387   4.608 -0.0911  0.3072  0.0488
    1C        C  197   4.497   3.319   4.731 -0.0046  0.1681 -0.0121
    1C        C  198   4.545   3.534   4.846 -0.0872  0.1562  0.1842
    1C        C  199   4.517   3.393   4.850  0.9744 -0.0684 -0.0184
    1C        C  200   4.590   3.616   4.954  0.3766  0.1619 -0.0089
    1C        C  201   3.610   2.427   2.069  0.2553 -0.0432  0.0100
    1C        C  202   3.823   2.507   2.183 -0.0926  0.2109  0.1258
    1C        C  203   3.688   2.460   2.185  0.0150 -0.0921  0.1873
    1C        C  204   3.892   2.542   2.302 -0.1982  0.1455  0.2038
    1C        C  205   3.822   2.521   2.423 -0.0605  0.3152  0.3127
    1C        C  206   4.013   2.620   2.542  0.3565 -0.2098  0.0060
    1C        C  207   3.886   2.558   2.543  0.1908  0.1408  0.2319
    1C        C  208   4.069   2.668   2.662  0.1888  0.3626 -0.1472
    1C        C  209   4.014   2.627   2.786  0.6490 -0.2282 -0.1362
    1C        C  210   4.187   2.751   2.905  0.2042 -0.1094  0.0485
    1C        C  211   4.075   2.666   2.907  0.5806 -0.6089  0.0160
    1C        C  212   4.239   2.797   3.028  1.0179 -0.2541 -0.2352
    1C        C  213   4.187   2.749   3.150  0.4577 -0.3942 -0.5274
    1C        C  214   4.327   2.908   3.269 -0.0150 -0.6952 -0.0509
    1C        C  215   4.238   2.799   3.272 -0.1231 -0.6104 -0.1940
    1C        C  216   4.366   2.970   3.389  0.2710 -0.5719 -0.2064
    1C        C  217   4.325   2.917   3.514  0.5248 -0.2926 -0.0028
    1C        C  218   4.436   3.097   3.638 -0.0874  0.0848 -0.2601
    1C        C  219   4.371   2.971   3.635 -0.0336  0.0497  0.0623
    1C        C  220   4.471   3.164   3.757 -0.0825 -0.4662  0.0495
    1C        C  221   4.441   3.101   3.880 -0.0484 -0.5031  0.0388
    1C        C  222   4.499   3.303   4.001 -0.3909  0.0679 -0.0900
    1C        C  223   4.467   3.165   4.003  0.3455 -0.1091 -0.2514
    1C        C  224   4.511   3.375   4.122 -0.4907  0.0831 -0.0886
    1C        C  225   4.499   3.308   4.245 -0.0599 -0.0641 -0.1233
    1C        C  226   4.517   3.523   4.361 -0.5817 -0.1242 -0.1881
    1C        C  227   4.505   3.382   4.365 -0.1465 -0.1591 -0.0583
    1C        C  228   4.520   3.597   4.481  0.1283 -0.0596 -0.2412
    1C        C  229   4.528   3.527   4.604  0.0705  0.2932 -0.0336
    1C        C  230   4.494   3.740   4.724  0.4001  0.1335  0.0141
    1C        C  231   4.527   3.602   4.723  0.2283  0.0893  0.0976
    1C        C  232   4.489   3.815   4.844  0.6692  0.5880 -0.2560
    1C        C  233   4.546   3.749   4.953 -0.0131  0.0339 -0.2305
    1C        C  234   4.010   2.608   2.063 -0.0168 -0.0576 -0.1363
    1C        C  235   3.888   2.541   2.063 -0.3540  0.5558  0.0834
    1C        C  236   4.082   2.645   2.177  0.0833 -0.1276 -0.1763
    1C        C  237   4.016   2.611   2.297  0.2134 -0.6152 -0.2417
    1C        C  238   4.189   2.736   2.419  0.1928 -0.6013 -0.3343
    1C        C  239   4.078   2.647   2.419  0.0127 -0.3740 -0.2120
    1C        C  240   4.239   2.792   2.538  0.3691 -0.3441 -0.5299
    1C        C  241   4.186   2.747   2.661  0.8121 -0.5469 -0.4126
    1C        C  242   4.331   2.904   2.783  0.0945 -0.4324  0.5319
    1C        C  243   4.241   2.795   2.782  0.0586 -0.3994 -0.1195
    1C        C  244   4.373   2.963   2.904  0.6926  0.0174  0.1103
    1C        C  245   4.327   2.908   3.026  0.6442  0.0526  0.1088
    1C        C  246   4.430   3.093   3.150  0.8951 -0.5205  0.1903
    1C        C  247   4.371   2.965   3.147  0.6865 -0.4284  0.3223
    1C        C  248   4.460   3.160   3.271 -0.0390 -0.0951  0.1932
    1C        C  249   4.426   3.098   3.393 -0.0207 -0.4415  0.0241
    1C        C  250   4.489   3.300   3.511 -0.8412  0.3380 -0.0406
    1C        C  251   4.454   3.163   3.515 -0.4244  0.2260 -0.2355
    1C        C  252   4.508   3.370   3.631 -1.0647  0.0351  0.1726
    1C        C  253   4.500   3.302   3.755 -0.7187 -0.3284 -0.0052
    1C        C  254   4.515   3.512   3.872  0.6268 -0.1246 -0.2548
    1C        C  255   4.511   3.371   3.877 -0.2743 -0.0998 -0.1712
    1C        C  256   4.505   3.584   3.993 -0.2499  0.0705 -0.4434
    1C        C  257   4.515   3.516   4.116 -1.1636  0.0950 -0.3430
    1C        C  258   4.484   3.727   4.238  0.1789 -0.0869  0.1104
    1C        C  259   4.516   3.589   4.236 -0.0133 -0.1277 -0.1976
    1C        C  260   4.465   3.801   4.357  0.1157  0.1533 -0.0477
    1C        C  261   4.488   3.735   4.479  0.0264 -0.0811 -0.1575
    1C        C  262   4.418   3.936   4.600 -0.3415 -0.3362 -0.1936
    1C        C  263   4.472   3.805   4.601 -0.0050 -0.1993 -0.0913
    1C        C  264   4.394   4.006   4.721  0.3120 -0.0869 -0.2019
    1C        C  265   4.426   3.942   4.842  0.0586  0.2904  0.0676
    1C        C  266   4.316   4.128   4.957 -0.5376  0.0376  0.4603
    1C        C  267   4.392   4.011   4.959 -0.4519  0.0850  0.0463
    1C        C  268   4.261   2.773   2.061 -0.1105  0.0038 -0.0870
    1C        C  269   4.194   2.731   2.177  0.3336 -0.4516  0.0091
    1C        C  270   4.336   2.892   2.297 -0.0742  0.1724 -0.1339
    1C        C  271   4.242   2.786   2.298  0.2267 -0.0953 -0.1097
    1C        C  272   4.377   2.953   2.418  0.3533 -0.5846  0.1073
    1C        C  273   4.332   2.898   2.540  0.0885 -0.1069  0.2258
    1C        C  274   4.438   3.085   2.661 -0.2478 -0.3171  0.0512
    1C        C  275   4.371   2.961   2.661 -0.3708 -0.2550  0.4565
    1C        C  276   4.466   3.153   2.781 -0.4272  0.3079 -0.2541
    1C        C  277   4.439   3.088   2.904  0.2476  0.2526 -0.1279
    1C        C  278   4.489   3.292   3.022  0.1176 -0.2237  0.1295
    1C        C  279   4.458   3.155   3.026  0.1223 -0.2253  0.1562
    1C        C  280   4.504   3.365   3.142 -0.5884  0.2884 -0.0870
    1C        C  281   4.495   3.296   3.265 -0.8193  0.0917 -0.2134
    1C        C  282   4.518   3.507   3.384 -0.5385  0.0188 -0.4360
    1C        C  283   4.505   3.366   3.387 -0.7745  0.0440 -0.1904
    1C        C  284   4.513   3.578   3.506 -0.3408 -0.1848 -0.3080
    1C        C  285   4.520   3.511   3.630  0.0654 -0.0576 -0.2636
    1C        C  286   4.488   3.722   3.749  0.1992 -0.0400  0.0682
    1C        C  287   4.515   3.584   3.751 -0.1085 -0.1051 -0.2430
    1C        C  288   4.466   3.791   3.870  0.0547  0.2312 -0.1075
    1C        C  289   4.479   3.723   3.994  0.2699  0.1673 -0.1631
    1C        C  290   4.413   3.925   4.114  0.4338 -0.1212 -0.0340
    1C        C  291   4.463   3.793   4.115  0.2781 -0.1820  0.0422
    1C        C  292   4.386   3.994   4.234 -0.1915 -0.0561 -0.2063
    1C        C  293   4.408   3.930   4.358  0.2873  0.2316 -0.1404
    1C        C  294   4.326   4.127   4.476  0.2266  0.0821  0.2054
    1C        C  295   4.392   4.002   4.478  0.4054  0.1697 -0.0874
    1C        C  296   4.276   4.183   4.596  0.2201  0.1576  0.1681
    1C        C  297   4.317   4.126   4.718  0.0751 -0.2321  0.0379
    1C        C  298   4.196   4.309   4.835  0.3560 -0.1108 -0.0331
    1C        C  299   4.275   4.190   4.838  0.1818 -0.2238  0.0719
    1C        C  300   4.166   4.395   4.945 -0.0128 -0.1696 -0.0873
    1C        C  301   4.351   2.878   2.063  0.6341 -0.6261 -0.2257
    1C        C  302   4.458   3.072   2.176 -0.4191 -0.1134  0.1158
    1C        C  303   4.395   2.944   2.178  0.4444 -0.5502 -0.1971
    1C        C  304   4.482   3.142   2.297 -0.7490 -0.0424  0.1407
    1C        C  305   4.443   3.078   2.416 -0.8700  0.0765  0.1649
    1C        C  306   4.500   3.282   2.535  0.4447 -0.2775 -0.1461
    1C        C  307   4.474   3.143   2.537 -0.2550 -0.1441  0.1293
    1C        C  308   4.515   3.357   2.654 -0.2066  0.1717 -0.3442
    1C        C  309   4.497   3.291   2.777 -0.2258  0.2615 -0.2980
    1C        C  310   4.520   3.500   2.898 -0.8284 -0.1626 -0.1557
    1C        C  311   4.509   3.359   2.900 -0.8227 -0.1627  0.0008
    1C        C  312   4.517   3.575   3.018 -0.5926  0.1411 -0.3353
    1C        C  313   4.519   3.506   3.141 -0.3806  0.2666 -0.2675
    1C        C  314   4.489   3.717   3.260  0.1077  0.4229  0.2908
    1C        C  315   4.514   3.578   3.262 -0.6052  0.2793 -0.2830
    1C        C  316   4.470   3.784   3.383  0.5765  0.3866  0.3868
    1C        C  317   4.488   3.717   3.506 -0.1721 -0.1508  0.2137
    1C        C  318   4.419   3.920   3.624  0.1092 -0.0064 -0.0348
    1C        C  319   4.474   3.790   3.626  0.3903  0.1106  0.1274
    1C        C  320   4.384   3.985   3.745  0.6915  0.2652 -0.0045
    1C        C  321   4.415   3.922   3.867  0.1044  0.2583  0.1472
    1C        C  322   4.319   4.111   3.985  0.2855  0.2810 -0.0991
    1C        C  323   4.386   3.987   3.989  0.0954  0.1850  0.1859
    1C        C  324   4.272   4.166   4.106  0.0928 -0.0070 -0.0398
    1C        C  325   4.317   4.117   4.231  0.2553  0.2023 -0.0134
    1C        C  326   4.187   4.283   4.348  0.1211 -0.0884 -0.1298
    1C        C  327   4.282   4.179   4.353 -0.1911 -0.3643  0.1591
    1C        C  328   4.132   4.333   4.468  0.0172 -0.3885 -0.0506
    1C        C  329   4.184   4.290   4.592  0.0012 -0.0322  0.0817
    1C        C  330   4.024   4.433   4.708 -0.2211 -0.5753  0.2679
    1C        C  331   4.140   4.351   4.711  0.3682  0.2387  0.0796
    1C        C  332   3.967   4.486   4.826 -0.5043 -0.2803  0.0022
    1C        C  333   4.050   4.474   4.938  0.1826  0.0909 -0.4560
    1C        C  334   4.556   3.264   2.062  0.6329 -0.1767 -0.2454
    1C        C  335   4.532   3.127   2.066 -0.3979  0.0058  0.1900
    1C        C  336   4.537   3.348   2.173 -0.2281 -0.2687 -0.3238
    1C        C  337   4.520   3.279   2.295 -0.1852 -0.2032 -0.2807
    1C        C  338   4.521   3.494   2.410 -0.2126 -0.1877 -0.3417
    1C        C  339   4.523   3.353   2.415 -0.4944 -0.1907 -0.2803
    1C        C  340   4.520   3.566   2.532 -0.7917 -0.4037 -0.2156
    1C        C  341   4.530   3.497   2.655  0.0601  0.1415  0.0245
    1C        C  342   4.498   3.709   2.770  0.2340  0.2152 -0.0277
    1C        C  343   4.521   3.570   2.776 -0.2619  0.1300  0.0092
    1C        C  344   4.478   3.781   2.890 -0.5087  0.0261 -0.0270
    1C        C  345   4.493   3.714   3.014 -0.1392  0.2330  0.0442
    1C        C  346   4.422   3.912   3.135  0.6185  0.3719 -0.1203
    1C        C  347   4.481   3.784   3.136  0.1007  0.1305  0.1307
    1C        C  348   4.390   3.978   3.256  0.9380  0.6906 -0.2024
    1C        C  349   4.423   3.917   3.378  0.6958  0.4140 -0.2690
    1C        C  350   4.319   4.102   3.498  0.4430  0.0701 -0.0107
    1C        C  351   4.392   3.982   3.500  0.0086 -0.1983 -0.1109
    1C        C  352   4.274   4.162   3.618  0.2028 -0.1226 -0.0006
    1C        C  353   4.313   4.107   3.742  0.1289 -0.0551  0.0551
    1C        C  354   4.174   4.266   3.861 -0.3826 -0.3880 -0.1737
    1C        C  355   4.274   4.167   3.864  0.4540  0.4476 -0.0871
    1C        C  356   4.123   4.314   3.984 -0.4074 -0.5178 -0.1292
    1C        C  357   4.170   4.263   4.107  0.0862 -0.0097 -0.0966
    1C        C  358   4.010   4.402   4.227 -0.7057 -0.9817  0.2613
    1C        C  359   4.127   4.324   4.227 -0.3181 -0.4109 -0.0277
    1C        C  360   3.947   4.441   4.347 -0.8096 -0.6470  0.1048
    1C        C  361   4.014   4.410   4.468 -0.2755 -0.8242 -0.2311
    1C        C  362   3.824   4.509   4.589  0.2179 -0.5705 -0.2909
    1C        C  363   3.957   4.459   4.587  0.0605 -1.0126  0.0121
    1C        C  364   3.759   4.534   4.712 -0.1300 -0.6465 -0.4561
    1C        C  365   3.835   4.535   4.831 -0.3381  0.2184 -0.3229
    1C        C  366   3.623   4.580   4.950 -0.0789 -0.3958 -0.1401
    1C        C  367   3.760   4.555   4.948 -0.0512 -0.2553 -0.0539
    1C        C  368   4.506   3.557   2.050 -0.0163 -0.1894 -0.1054
    1C        C  369   4.521   3.489   2.171 -0.0384 -0.2442 -0.1340
    1C        C  370   4.502   3.707   2.285 -0.2758 -0.0698 -0.0217
    1C        C  371   4.513   3.566   2.289 -0.8451 -0.1216 -0.2635
    1C        C  372   4.488   3.777   2.407  0.0505 -0.2199  0.1063
    1C        C  373   4.508   3.706   2.528 -0.9705 -0.4047  0.1790
    1C        C  374   4.426   3.906   2.646  0.0704  0.3372 -0.0898
    1C        C  375   4.483   3.777   2.647 -0.4081  0.1233 -0.0050
    1C        C  376   4.393   3.970   2.767  0.5879  0.4344  0.0044
    1C        C  377   4.424   3.911   2.891 -0.0764  0.2105  0.0701
    1C        C  378   4.312   4.092   3.009 -0.2846  0.0710 -0.1238
    1C        C  379   4.393   3.976   3.013  0.4406  0.5664  0.0201
    1C        C  380   4.270   4.152   3.130 -0.0492  0.1800 -0.0893
    1C        C  381   4.317   4.099   3.252  0.3094  0.3206 -0.1602
    1C        C  382   4.176   4.255   3.374 -0.3193 -0.5844  0.3507
    1C        C  383   4.274   4.154   3.375  0.1229 -0.1671  0.0017
    1C        C  384   4.124   4.308   3.494 -0.5580 -0.4340  0.1867
    1C        C  385   4.173   4.260   3.618 -0.2726 -0.6030  0.0126
    1C        C  386   4.007   4.395   3.739 -0.2738 -0.1302  0.0928
    1C        C  387   4.121   4.312   3.738 -0.4876 -0.4312 -0.1485
    1C        C  388   3.945   4.429   3.861 -0.3471  0.0999 -0.0020
    1C        C  389   4.006   4.392   3.983 -0.4434 -0.5645 -0.1432
    1C        C  390   3.815   4.485   4.103 -0.2086 -0.6234 -0.0033
    1C        C  391   3.946   4.433   4.104 -0.3711 -1.0526  0.0653
    1C        C  392   3.746   4.507   4.224 -0.7927 -1.2976 -0.1994
    1C        C  393   3.815   4.491   4.347 -0.8580 -0.7640 -0.0856
    1C        C  394   3.612   4.548   4.472 -0.3372 -0.0257  0.1387
    1C        C  395   3.750   4.519   4.469 -0.4916 -0.7983  0.1213
    1C        C  396   3.542   4.556   4.594 -0.2595  0.1210  0.1774
    1C        C  397   3.619   4.551   4.712 -0.0898 -0.2805  0.0514
    1C        C  398   3.407   4.545   4.837 -0.2364 -0.4251  0.1859
    1C        C  399   3.547   4.566   4.833 -0.2516 -0.3514 -0.0339
    1C        C  400   3.337   4.517   4.955 -0.1309 -0.4900  0.2343
    1C        C  401   4.499   3.696   2.048 -0.7921 -0.2210 -0.0473
    1C        C  402   4.445   3.909   2.161 -0.4774 -0.1946 -0.5079
    1C        C  403   4.493   3.776   2.163 -0.4021 -0.1623 -0.0656
    1C        C  404   4.403   3.970   2.281 -0.0137 -0.3305 -0.2726
    1C        C  405   4.433   3.907   2.403 -0.4580 -0.4384 -0.2171
    1C        C  406   4.319   4.089   2.522 -0.1351 -0.1172 -0.5175
    1C        C  407   4.393   3.969   2.524 -0.0638 -0.0733 -0.2717
    1C        C  408   4.274   4.144   2.644 -0.3443 -0.1428 -0.5810
    1C        C  409   4.311   4.085   2.767  0.1957  0.1627 -0.5936
    1C        C  410   4.178   4.254   2.886  0.4991  0.0801  0.4359
    1C        C  411   4.269   4.147   2.887  0.3344 -0.0750 -0.4171
    1C        C  412   4.120   4.302   3.006  0.1947  0.7045  0.0535
    1C        C  413   4.172   4.254   3.129  0.5630  0.7737 -0.0713
    1C        C  414   4.002   4.377   3.253  0.0705 -0.5454 -0.1116
    1C        C  415   4.117   4.295   3.252  0.0197 -0.6272  0.1676
    1C        C  416   3.938   4.412   3.374 -0.1293  0.1460 -0.4078
    1C        C  417   4.004   4.382   3.495 -0.6566 -0.5729 -0.2915
    1C        C  418   3.818   4.486   3.616 -0.2558 -0.5073  0.0558
    1C        C  419   3.947   4.429   3.616 -0.4041 -0.8554 -0.0546
    1C        C  420   3.747   4.504   3.737 -0.2349 -0.0908  0.0130
    1C        C  421   3.814   4.480   3.859 -0.6095 -0.5417  0.1381
    1C        C  422   3.608   4.529   3.982 -0.4215  0.0564 -0.1976
    1C        C  423   3.746   4.502   3.981 -0.5032 -0.4263  0.1826
    1C        C  424   3.537   4.538   4.104 -0.3190  0.6053 -0.1700
    1C        C  425   3.608   4.533   4.226 -0.6112 -0.2769 -0.0254
    1C        C  426   3.400   4.545   4.352 -0.3588  1.2055 -0.0456
    1C        C  427   3.541   4.546   4.350 -0.3232 -0.2029  0.1279
    1C        C  428   3.328   4.542   4.474 -0.3986  0.4247 -0.0737
    1C        C  429   3.400   4.554   4.594 -0.2710  0.4821 -0.1501
    1C        C  430   3.194   4.510   4.718  0.1469 -0.1422  0.0944
    1C        C  431   3.332   4.543   4.718  0.0111  0.4419  0.0065
    1C        C  432   3.123   4.490   4.840 -0.1619  0.0778 -0.0453
    1C        C  433   3.201   4.493   4.956 -0.1972 -0.1434 -0.0149
    1C        C  434   4.372   4.115   2.046 -0.0749 -0.1678 -0.1544
    1C        C  435   4.444   3.994   2.050  0.7809  0.3383 -0.1259
    1C        C  436   4.300   4.163   2.159 -0.2851 -0.2577 -0.2493
    1C        C  437   4.332   4.093   2.279  0.1026 -0.2620 -0.3521
    1C        C  438   4.179   4.245   2.401  0.1798  0.2471  0.1344
    1C        C  439   4.281   4.148   2.399 -0.2572 -0.2083 -0.5251
    1C        C  440   4.129   4.299   2.521  0.3418  0.3753  0.1475
    1C        C  441   4.182   4.251   2.643  0.3563  0.4827  0.1861
    1C        C  442   4.003   4.369   2.764  0.3289 -0.0607  0.2048
    1C        C  443   4.125   4.298   2.763  0.1887 -0.3100  0.4250
    1C        C  444   3.942   4.408   2.885  0.1456  0.4111 -0.0328
    1C        C  445   4.000   4.376   3.009  0.0641  0.5032  0.0327
    1C        C  446   3.810   4.466   3.128 -0.1352  0.0380  0.0472
    1C        C  447   3.942   4.417   3.131 -0.2209 -0.1993  0.1404
    1C        C  448   3.739   4.481   3.250 -0.3381  0.1221 -0.0783
    1C        C  449   3.807   4.462   3.372 -0.2536 -0.1600 -0.1648
    1C        C  450   3.607   4.521   3.494 -0.0329  0.2132 -0.0199
    1C        C  451   3.746   4.497   3.495 -0.1528 -0.5110 -0.0104
    1C        C  452   3.537   4.531   3.617 -0.2938  0.2535 -0.1658
    1C        C  453   3.608   4.530   3.739 -0.2936 -0.3593 -0.1617
    1C        C  454   3.395   4.540   3.863 -0.4017  0.4957 -0.0390
    1C        C  455   3.537   4.540   3.860 -0.4005 -0.1484 -0.2348
    1C        C  456   3.324   4.536   3.985 -0.2077  0.6185  0.0851
    1C        C  457   3.396   4.540   4.107 -0.3151  1.0110  0.1428
    1C        C  458   3.194   4.492   4.234 -0.2647  0.0911  0.3439
    1C        C  459   3.329   4.532   4.231 -0.4650  0.7805  0.0544
    1C        C  460   3.124   4.472   4.355 -0.3137 -0.0607  0.2974
    1C        C  461   3.194   4.499   4.475 -0.3928  0.3969  0.2485
    1C        C  462   2.996   4.428   4.598 -0.2229  0.0083  0.0538
    1C        C  463   3.125   4.485   4.597 -0.3317  0.2726  0.2742
    1C        C  464   2.931   4.395   4.719 -0.3052 -0.3628 -0.0866
    1C        C  465   2.990   4.437   4.841  0.0123 -0.3790 -0.2298
    1C        C  466   2.801   4.337   4.953  0.4672 -0.2856 -0.0325
    1C        C  467   2.902   4.434   4.954  0.2235 -0.0235 -0.0524
    1C        C  468   4.119   4.279   2.040 -0.2198  0.1453  0.1914
    1C        C  469   4.187   4.251   2.159 -0.2422 -0.2016  0.1231
    1C        C  470   4.007   4.370   2.276  0.3468  0.6430 -0.0075
    1C        C  471   4.131   4.300   2.280  0.0579  0.1309  0.1301
    1C        C  472   3.939   4.397   2.398  0.3933  0.3723  0.0791
    1C        C  473   4.007   4.371   2.519  0.1589  0.0719  0.1503
    1C        C  474   3.812   4.454   2.642 -0.0130 -0.7207 -0.2025
    1C        C  475   3.944   4.404   2.640  0.2408 -0.0855  0.2375
    1C        C  476   3.743   4.478   2.762 -0.0073 -0.2271 -0.2937
    1C        C  477   3.811   4.462   2.885 -0.1716 -0.3402 -0.2128
    1C        C  478   3.603   4.509   3.006 -0.0713 -0.7874  0.0869
    1C        C  479   3.741   4.481   3.006  0.0113 -0.4026 -0.0929
    1C        C  480   3.530   4.517   3.127 -0.4594 -0.5944 -0.1537
    1C        C  481   3.600   4.506   3.249 -0.3806 -0.1086 -0.1507
    1C        C  482   3.394   4.521   3.374 -0.1162 -0.2687  0.0016
    1C        C  483   3.535   4.520   3.373 -0.1144 -0.3941  0.0269
    1C        C  484   3.325   4.513   3.497  0.1484 -0.4081  0.1423
    1C        C  485   3.396   4.524   3.619 -0.3119  0.5887  0.3343
    1C        C  486   3.188   4.496   3.742 -0.6327  0.6223  0.2248
    1C        C  487   3.326   4.526   3.741 -0.7615  1.2318  0.0703
    1C        C  488   3.123   4.471   3.865 -0.2921  0.1209  0.3093
    1C        C  489   3.188   4.498   3.987 -0.1394  0.3496  0.1815
    1C        C  490   3.001   4.407   4.109 -0.3020  0.7494  0.0703
    1C        C  491   3.130   4.467   4.111 -0.3346  0.8273  0.2196
    1C        C  492   2.937   4.380   4.232 -0.4326  0.4950 -0.0479
    1C        C  493   2.992   4.422   4.355 -0.4336  0.2390  0.0455
    1C        C  494   2.821   4.301   4.478  0.0102 -0.3038 -0.1230
    1C        C  495   2.932   4.389   4.478 -0.3772  0.1970  0.0688
    1C        C  496   2.769   4.256   4.601 -0.3493  0.5124  0.0424
    1C        C  497   2.818   4.308   4.722 -0.6115  0.0425  0.3620
    1C        C  498   2.664   4.159   4.843 -0.8863  0.0670  0.0693
    1C        C  499   2.757   4.265   4.841 -0.4281 -0.3203  0.3308
    1C        C  500   2.596   4.111   4.956  0.0999  0.1374  0.7059
    1C        C  501   3.998   4.347   2.041  0.0830  0.7042 -0.3486
    1C        C  502   3.809   4.454   2.153  0.2676  0.3150  0.0853
    1C        C  503   3.939   4.401   2.156  0.2482  0.2570 -0.0530
    1C        C  504   3.738   4.467   2.274  0.0995  0.0857  0.0117
    1C        C  505   3.805   4.440   2.395  0.1909 -0.2462 -0.1098
    1C        C  506   3.604   4.493   2.520 -0.0293 -0.3839 -0.0352
    1C        C  507   3.742   4.466   2.519 -0.0751 -0.6323 -0.1612
    1C        C  508   3.533   4.507   2.641  0.0323 -0.5561  0.0239
    1C        C  509   3.605   4.506   2.762  0.1838  0.8054 -0.0334
    1C        C  510   3.392   4.509   2.885  0.0241 -0.2465  0.3816
    1C        C  511   3.533   4.515   2.883  0.0446 -0.7165  0.0208
    1C        C  512   3.320   4.514   3.006 -0.4873  0.0406  0.0691
    1C        C  513   3.389   4.516   3.129 -0.4639 -0.1016  0.0585
    1C        C  514   3.183   4.485   3.250 -0.3798  0.1499 -0.1266
    1C        C  515   3.322   4.512   3.253 -0.3571  0.0130  0.1204
    1C        C  516   3.118   4.471   3.375  0.0221 -0.0876  0.0574
    1C        C  517   3.186   4.490   3.497 -0.0263  0.6335 -0.0267
    1C        C  518   2.994   4.411   3.623  0.1324  0.1278 -0.2081
    1C        C  519   3.118   4.480   3.621 -0.1142  0.5834 -0.0774
    1C        C  520   2.938   4.367   3.744  0.0070  0.6369 -0.0761
    1C        C  521   2.996   4.409   3.866 -0.4868  0.5078  0.2115
    1C        C  522   2.821   4.291   3.991  0.0912 -0.3718 -0.2077
    1C        C  523   2.939   4.369   3.988 -0.2156  0.1238  0.2180
    1C        C  524   2.773   4.242   4.114  0.1582 -0.2062 -0.1098
    1C        C  525   2.829   4.289   4.235  0.5446 -0.6918 -0.0900
    1C        C  526   2.692   4.129   4.361 -0.3856  0.0220  0.2986
    1C        C  527   2.778   4.241   4.358  0.0564 -0.3188 -0.1399
    1C        C  528   2.654   4.072   4.485  0.0758  0.1784  0.5215
    1C        C  529   2.686   4.141   4.604  0.1254  0.1671  0.5225
    1C        C  530   2.577   3.958   4.728  0.1343 -0.4854  0.2302
    1C        C  531   2.635   4.088   4.724 -0.4212 -0.2299  0.1277
    1C        C  532   2.536   3.899   4.851  0.9822 -0.0902  0.7211
    1C        C  533   2.528   3.989   4.962  0.3878 -0.0295  0.6381
    1C        C  534   3.616   4.563   2.045  0.2098  0.0827 -0.0591
    1C        C  535   3.746   4.512   2.042  0.0747 -0.2607 -0.1066
    1C        C  536   3.532   4.532   2.157  0.2326  0.5338  0.0855
    1C        C  537   3.599   4.497   2.277  0.1309  0.2312  0.0560
    1C        C  538   3.390   4.519   2.397 -0.0396 -0.2935 -0.0174
    1C        C  539   3.531   4.512   2.400 -0.0285 -0.0874  0.0090
    1C        C  540   3.321   4.505   2.519 -0.0840  0.3729  0.0385
    1C        C  541   3.391   4.508   2.641  0.0319  0.2108 -0.0205
    1C        C  542   3.181   4.481   2.764  0.2506  0.0372 -0.2595
    1C        C  543   3.321   4.505   2.763  0.3939 -0.7428  0.1755
    1C        C  544   3.111   4.461   2.885 -0.2430  0.5119 -0.4625
    1C        C  545   3.182   4.483   3.005 -0.5958  0.5184 -0.2531
    1C        C  546   2.993   4.395   3.131 -0.0107 -0.3228  0.0793
    1C        C  547   3.117   4.461   3.128 -0.3807  0.3653 -0.1681
    1C        C  548   2.930   4.371   3.255 -0.0427 -0.4375  0.0387
    1C        C  549   2.992   4.408   3.377  0.0019 -0.0501 -0.1042
    1C        C  550   2.827   4.281   3.501  0.1439 -0.0460  0.0551
    1C        C  551   2.934   4.374   3.501 -0.2852  0.4486 -0.1018
    1C        C  552   2.773   4.233   3.622  0.2846 -0.2983  0.0178
    1C        C  553   2.825   4.282   3.743  0.3473  0.1762 -0.1995
    1C        C  554   2.695   4.123   3.874  0.8425 -0.4842  0.1474
    1C        C  555   2.774   4.239   3.868  0.0055  0.0725 -0.3696
    1C        C  556   2.657   4.065   3.997  0.4138 -0.0762  0.2139
    1C        C  557   2.691   4.127   4.119 -0.1005 -0.0101  0.3331
    1C        C  558   2.589   3.942   4.243 -0.2117 -0.1788  0.2537
    1C        C  559   2.649   4.069   4.241  0.1950 -0.3626  0.2745
    1C        C  560   2.560   3.877   4.365 -0.0366 -0.2917  0.2427
    1C        C  561   2.587   3.948   4.484 -0.5767  0.5210 -0.1043
    1C        C  562   2.526   3.749   4.612 -0.1726  0.1715  0.0286
    1C        C  563   2.558   3.887   4.608  0.1986  0.0864 -0.1278
    1C        C  564   2.511   3.679   4.733 -0.2068  0.2307  0.0622
    1C        C  565   2.510   3.758   4.852  0.1296  0.0525  0.1856
    1C        C  566   2.522   3.544   4.973  0.3998 -0.1144 -0.0921
    1C        C  567   2.518   3.683   4.970  0.2219 -0.1158  0.0747
    1C        C  568   3.322   4.470   2.039 -0.1754 -0.0728  0.3747
    1C        C  569   3.393   4.505   2.155  0.4248 -0.4949  0.1399
    1C        C  570   3.180   4.470   2.280 -0.1541  0.5032  0.1812
    1C        C  571   3.318   4.505   2.276  0.0713 -0.3795 -0.0763
    1C        C  572   3.112   4.450   2.402 -0.2123  0.2354  0.1083
    1C        C  573   3.183   4.474   2.522 -0.0141  0.0455  0.0321
    1C        C  574   2.986   4.394   2.645  0.2026 -0.8226  0.0571
    1C        C  575   3.113   4.456   2.643 -0.0189 -0.3565 -0.0281
    1C        C  576   2.923   4.360   2.766 -0.2922  0.0486  0.0540
    1C        C  577   2.984   4.399   2.887 -0.0798  0.1852 -0.0987
    1C        C  578   2.812   4.280   3.012 -0.2647  0.6891  0.1381
    1C        C  579   2.926   4.363   3.011 -0.3293  0.7713 -0.0415
    1C        C  580   2.763   4.235   3.136  0.1755 -0.0759  0.0364
    1C        C  581   2.821   4.281   3.257  0.2812 -0.8307  0.2779
    1C        C  582   2.695   4.114   3.384 -0.0773 -0.4439  0.2540
    1C        C  583   2.776   4.229   3.380 -0.0232 -0.4820  0.3124
    1C        C  584   2.661   4.053   3.506  0.2019 -0.5023  0.3015
    1C        C  585   2.693   4.116   3.629  1.0104 -0.7863  0.2391
    1C        C  586   2.600   3.932   3.758 -0.2652 -0.2100  0.4097
    1C        C  587   2.658   4.061   3.753  0.9712 -0.7546  0.2440
    1C        C  588   2.572   3.865   3.879 -0.6833 -0.2730  0.2830
    1C        C  589   2.594   3.938   3.998  0.1560  0.0446 -0.0560
    1C        C  590   2.527   3.739   4.123  0.2168  0.1145  0.1449
    1C        C  591   2.567   3.874   4.121  0.3193  0.0851  0.0055
    1C        C  592   2.516   3.668   4.245  0.3326  0.0734  0.1366
    1C        C  593   2.526   3.740   4.367 -0.0201 -0.2994  0.3918
    1C        C  594   2.507   3.535   4.493 -0.4771 -0.3167  0.0185
    1C        C  595   2.511   3.676   4.492 -0.3973 -0.3135  0.3453
    1C        C  596   2.524   3.467   4.616  0.1205  0.0807  0.1600
    1C        C  597   2.516   3.537   4.738  0.0992  0.2395  0.0698
    1C        C  598   2.528   3.323   4.857 -0.4760 -0.0071 -0.1682
    1C        C  599   2.513   3.464   4.859 -0.5326 -0.0152 -0.0939
    1C        C  600   2.526   3.243   4.972 -0.2585  0.2128 -0.0114
    1C        C  601   3.187   4.441   2.042 -0.1459 -0.2235  0.2845
    1C        C  602   2.975   4.396   2.160 -0.1374  0.0166 -0.0304
    1C        C  603   3.111   4.438   2.160 -0.1446  0.0480  0.2919
    1C        C  604   2.914   4.359   2.283 -0.1315  0.0639 -0.0115
    1C        C  605   2.982   4.394   2.402 -0.1879  0.1739 -0.0083
    1C        C  606   2.814   4.266   2.523 -0.5883  0.5947 -0.2505
    1C        C  607   2.925   4.353   2.524 -0.5004  0.4814 -0.0489
    1C        C  608   2.768   4.215   2.646 -0.1954  0.5463 -0.1215
    1C        C  609   2.813   4.271   2.768 -0.5115  0.3213  0.0985
    1C        C  610   2.682   4.110   2.893  0.3890  0.0050  0.0192
    1C        C  611   2.761   4.227   2.891 -0.2562  0.4426  0.2462
    1C        C  612   2.651   4.053   3.019  0.3149 -0.1456 -0.0723
    1C        C  613   2.689   4.115   3.140  0.7262 -0.4207 -0.0641
    1C        C  614   2.595   3.925   3.265  0.1431 -0.0480  0.0958
    1C        C  615   2.659   4.051   3.262  0.2492 -0.1078 -0.0149
    1C        C  616   2.572   3.860   3.389  0.3726 -0.3260 -0.0097
    1C        C  617   2.606   3.923   3.510  0.2129 -0.5113  0.1302
    1C        C  618   2.541   3.728   3.635 -0.5725  0.0904 -0.2324
    1C        C  619   2.581   3.863   3.636 -0.1328 -0.0375  0.2898
    1C        C  620   2.526   3.659   3.757 -0.4989  0.0602 -0.2387
    1C        C  621   2.539   3.728   3.879 -0.3257 -0.3641 -0.0125
    1C        C  622   2.513   3.523   4.006  0.2456  0.0217  0.3549
    1C        C  623   2.522   3.664   4.004 -0.4599  0.0695  0.1952
    1C        C  624   2.511   3.454   4.129 -0.2630 -0.2270  0.2121
    1C        C  625   2.505   3.528   4.249 -0.3852  0.1176 -0.0014
    1C        C  626   2.537   3.322   4.372 -0.6463 -0.2079 -0.3624
    1C        C  627   2.507   3.460   4.373 -0.1882 -0.1033 -0.1198
    1C        C  628   2.557   3.255   4.495  0.1942  0.3367 -0.1866
    1C        C  629   2.546   3.328   4.615 -0.3162  0.0098 -0.0279
    1C        C  630   2.608   3.123   4.739 -0.3082 -0.1098 -0.1804
    1C        C  631   2.560   3.257   4.736  0.1795  0.0726 -0.0447
    1C        C  632   2.619   3.050   4.860  0.3631  0.5363  0.1564
    1C        C  633   2.560   3.108   4.977 -0.0428  0.2709  0.0831
    1C        C  634   2.785   4.293   2.047  0.3469 -0.1804 -0.3853
    1C        C  635   2.892   4.383   2.044 -0.1095  0.3759 -0.0943
    1C        C  636   2.744   4.227   2.163 -0.6039  0.6411 -0.2447
    1C        C  637   2.800   4.275   2.284  0.1497 -0.3246 -0.1973
    1C        C  638   2.669   4.106   2.406 -0.6291  0.2470  0.2026
    1C        C  639   2.752   4.221   2.405 -0.1817 -0.0737 -0.2141
    1C        C  640   2.641   4.043   2.529  0.7388 -0.3487  0.2197
    1C        C  641   2.688   4.099   2.649  0.8488 -0.1689  0.0907
    1C        C  642   2.584   3.918   2.773  0.4173 -0.0138 -0.2315
    1C        C  643   2.651   4.042   2.773  0.7016 -0.1704  0.0409
    1C        C  644   2.564   3.857   2.899 -0.0855  0.6526  0.0050
    1C        C  645   2.599   3.922   3.019  0.1179 -0.0623  0.3315
    1C        C  646   2.540   3.721   3.146  0.1755 -0.2291  0.2035
    1C        C  647   2.574   3.859   3.143 -0.3268 -0.1089  0.2139
    1C        C  648   2.530   3.652   3.269  0.1606 -0.3971  0.1041
    1C        C  649   2.533   3.725   3.390 -0.0689 -0.1996 -0.0095
    1C        C  650   2.508   3.517   3.515 -0.2758 -0.2320  0.3259
    1C        C  651   2.525   3.657   3.514 -1.5155 -0.0752 -0.0193
    1C        C  652   2.506   3.446   3.638 -0.1066 -0.4884  0.1850
    1C        C  653   2.513   3.518   3.759 -0.0675  0.0182 -0.1116
    1C        C  654   2.529   3.313   3.886  0.1502  0.5849  0.0033
    1C        C  655   2.506   3.452   3.884 -0.4746  0.4843  0.1184
    1C        C  656   2.551   3.245   4.008  0.3234  0.2347 -0.2174
    1C        C  657   2.538   3.315   4.130 -0.1340 -0.2058 -0.0055
    1C        C  658   2.605   3.116   4.256  0.0567 -0.3875  0.1169
    1C        C  659   2.556   3.249   4.253 -0.0497 -0.4307 -0.1371
    1C        C  660   2.638   3.055   4.379 -0.3399 -0.3733  0.2302
    1C        C  661   2.601   3.121   4.499  0.0569  0.2946 -0.0082
    1C        C  662   2.717   2.940   4.622  0.1780  0.0912  0.1866
    1C        C  663   2.636   3.055   4.619  0.0914  0.0233 -0.1654
    1C        C  664   2.751   2.877   4.743  0.1171 -0.0073  0.1532
    1C        C  665   2.702   2.933   4.864  0.3053  0.4898 -0.0008
    1C        C  666   2.746   2.868   4.980  0.2052  0.4565  0.0179
    1C        C  667   2.661   4.025   2.047  0.4023 -0.1822  0.4087
    1C        C  668   2.683   4.100   2.163 -0.2251  0.4579  0.1270
    1C        C  669   2.583   3.910   2.286  0.2796  0.0905 -0.2843
    1C        C  670   2.644   4.038   2.284 -0.6907  0.5648  0.0358
    1C        C  671   2.552   3.847   2.408  0.1877  0.2965 -0.2044
    1C        C  672   2.581   3.915   2.528  0.4047 -0.1889  0.0155
    1C        C  673   2.517   3.715   2.658 -0.4433 -0.0387 -0.1860
    1C        C  674   2.561   3.849   2.652  0.0338 -0.1925 -0.0525
    1C        C  675   2.517   3.648   2.782  0.2550  0.4844  0.0963
    1C        C  676   2.528   3.720   2.903 -0.2076  0.6907  0.0111
    1C        C  677   2.498   3.512   3.027 -0.3437  0.4814 -0.2614
    1C        C  678   2.514   3.652   3.026 -0.1585  0.4579 -0.1176
    1C        C  679   2.504   3.441   3.149 -0.5711  0.1399 -0.4509
    1C        C  680   2.516   3.512   3.271 -0.7987 -0.3072 -0.1706
    1C        C  681   2.527   3.304   3.395  0.6424  0.2440 -0.1726
    1C        C  682   2.506   3.444   3.394 -0.2216  0.1170  0.1133
    1C        C  683   2.544   3.238   3.519  0.7097  0.2024 -0.2056
    1C        C  684   2.527   3.307   3.640 -0.7585 -0.5920  0.0574
    1C        C  685   2.606   3.116   3.767  0.4112  0.3045 -0.1970
    1C        C  686   2.541   3.241   3.765 -0.2022 -0.0029  0.3113
    1C        C  687   2.645   3.056   3.888  0.2815  0.3773 -0.1213
    1C        C  688   2.610   3.118   4.011  0.6396  0.3855 -0.0245
    1C        C  689   2.710   2.933   4.134 -0.1649 -0.0935 -0.1227
    1C        C  690   2.635   3.053   4.134 -0.0855 -0.0448 -0.0993
    1C        C  691   2.753   2.876   4.255  0.0116  0.1517 -0.0698
    1C        C  692   2.714   2.937   4.377  0.1121 -0.0814  0.0782
    1C        C  693   2.763   2.886   4.499 -0.1758 -0.1607  0.1617
    1C        C  694   2.621   3.891   2.051  0.5175 -0.2228  0.2425
    1C        C  695   2.527   3.698   2.171 -0.2298 -0.2058 -0.2867
    1C        C  696   2.573   3.832   2.168 -0.2069 -0.2078 -0.0438
    1C        C  697   2.511   3.632   2.295  0.0469  0.1311 -0.0739
    1C        C  698   2.520   3.709   2.414  0.3392  0.2650 -0.1844
    1C        C  699   2.496   3.503   2.542  0.3337  0.1403  0.2388
    1C        C  700   2.501   3.644   2.537 -0.1407  0.1394 -0.3269
    1C        C  701   2.503   3.433   2.664 -0.1176  0.2875  0.3453
    1C        C  702   2.508   3.508   2.784  0.0096  0.5067  0.1981
    1C        C  703   2.518   3.298   2.909 -0.0564  0.1447  0.0174
    1C        C  704   2.507   3.438   2.907 -0.4809  0.1048 -0.0365
    1C        C  705   2.533   3.229   3.031  0.1122 -0.0225 -0.1025
    1C        C  706   2.521   3.301   3.152 -0.1615  0.1926 -0.2641
    1C        C  707   2.592   3.102   3.278 -0.2292  0.1801  0.1716
    1C        C  708   2.547   3.235   3.274  0.1670  0.2989 -0.2806
    1C        C  709   2.628   3.041   3.401  0.6232  0.1829 -0.0707
    1C        C  710   2.596   3.106   3.522  0.4837  0.1177 -0.0756
    1C        C  711   2.717   2.935   3.646 -0.0100 -0.3020 -0.3088
    1C        C  712   2.632   3.048   3.645  0.6582  0.2048 -0.0878
    1C        C  713   2.758   2.878   3.768 -0.0464 -0.1162 -0.2100
    1C        C  714   2.716   2.934   3.890  0.0263  0.2246 -0.3435
    1C        C  715   2.754   2.875   4.013 -0.5098 -0.0142 -0.2887
    1C        C  716   2.446   3.494   2.059 -0.1279 -0.0196  0.1448
    1C        C  717   2.476   3.630   2.060 -0.4689  0.0602 -0.3423
    1C        C  718   2.461   3.418   2.180  0.4030  0.1671  0.1989
    1C        C  719   2.484   3.493   2.298  0.6473  0.0185  0.2442
    1C        C  720   2.524   3.289   2.425  0.0068  0.0086 -0.0955
    1C        C  721   2.495   3.427   2.423  0.1946  0.0524  0.3011
    1C        C  722   2.541   3.221   2.547  0.2080  0.2769  0.0226
    1C        C  723   2.529   3.295   2.667  0.3490  0.3687 -0.0255
    1C        C  724   2.588   3.093   2.791  0.1671  0.2974 -0.1909
    1C        C  725   2.537   3.225   2.790  0.2904  0.3408 -0.0445
    1C        C  726   2.622   3.034   2.914  1.1227  0.9704 -0.1354
    1C        C  727   2.587   3.098   3.035 -0.0688 -0.0868  0.0863
    1C        C  728   2.709   2.925   3.157  0.3996  0.5248 -0.2050
    1C        C  729   2.622   3.036   3.157  0.0042  0.2158  0.2139
    1C        C  730   2.759   2.877   3.280  0.2602  0.1261 -0.3080
    1C        C  731   2.713   2.929   3.403  0.5242  0.1082 -0.2062
    1C        C  732   2.763   2.879   3.526  0.8084  0.2582 -0.2635
    1C        C  733   2.489   3.193   2.074  0.1674 -0.5548  0.2035
    1C        C  734   2.486   3.277   2.186  0.0925  0.0899 -0.2810
    1C        C  735   2.575   3.079   2.308 -0.4586  0.0268  0.0651
    1C        C  736   2.527   3.213   2.306 -0.0486  0.1672 -0.1940
    1C        C  737   2.605   3.012   2.428 -0.2476  0.1847  0.0978
    1C        C  738   2.590   3.088   2.546 -0.0671  0.1789  0.1190
    1C        C  739   2.704   2.915   2.669  0.2370  0.1744 -0.0333
    1C        C  740   2.617   3.026   2.670 -0.1413 -0.1275 -0.0249
    1C        C  741   2.751   2.862   2.792  0.3282  0.0912 -0.1102
    1C        C  742   2.708   2.922   2.913  0.2612  0.3153 -0.2491
    1C        C  743   2.752   2.868   3.036 -0.1870  0.0724 -0.1980
    1C        C  744   2.542   3.064   2.073 -0.0636 -0.6474 -0.1547
    1C        C  745   2.688   2.899   2.185 -0.0798 -0.0184  0.4062
    1C        C  746   2.607   3.015   2.187 -0.4692 -0.2904  0.2335
    1C        C  747   2.733   2.842   2.306  0.4265  0.0939  0.2720
    1C        C  748   2.686   2.897   2.427 -0.3616  0.1106 -0.0394
    1C        C  749   2.739   2.850   2.549 -0.1017  0.1800 -0.1314
    1C        C  750   2.738   2.841   2.067  0.0944  0.3705  0.2867
    1C        C  751   3.641   2.314   1.979  0.2033 -0.1159  0.0839
    1C        O  752   3.690   2.340   1.866 -0.0921 -0.2010 -0.0611
    1C        O  753   3.601   2.182   2.003 -0.0512 -0.1512 -0.5281
    1C        C  754   4.646   3.052   2.007 -0.6718 -0.8439  0.7267
    1C        O  755   4.628   2.972   1.911 -0.6330 -0.0442  0.0396
    1C        O  756   4.773   3.053   2.065 -0.1101  0.6666 -0.4831
    1C        C  757   4.423   4.212   1.946 -0.9600  0.7488  0.2675
    1C        O  758   4.520   4.287   1.976  0.1407 -0.2814 -0.5699
    1C        O  759   4.415   4.198   1.807  0.2960 -0.2079  0.2625
    1C        C  760   3.587   4.673   1.949  0.0511  0.3367  0.2770
    1C        O  761   3.591   4.794   1.981  0.2067  0.3579  0.1799
    1C        O  762   3.540   4.658   1.818  0.5164  0.2479  0.1171
    1C        C  763   2.861   4.482   1.938  0.4929  0.5595 -0.1005
    1C        O  764   2.875   4.449   1.817  0.7291  0.3839 -0.0264
    1C        O  765   2.812   4.610   1.966 -0.1929  0.1666  0.5156
    1C        C  766   2.360   3.459   1.944 -0.0850 -0.1887  0.1638
    1C        O  767   2.396   3.416   1.831 -0.2379 -0.1074  0.0838
    1C        O  768   2.224   3.488   1.954 -0.0836  0.1734 -0.7808
    1C        C  769   4.702   3.581   5.043  0.2954 -0.0584  0.0082
    1C        O  770   4.821   3.608   5.012  0.3514 -0.0883  0.1883
    1C        O  771   4.691   3.569   5.183  0.5260 -0.1930  0.0177
    1C        C  772   4.272   4.450   5.031 -0.0399 -0.0648 -0.1192
    1C        O  773   4.259   4.448   5.157 -0.2145  0.3413 -0.1296
    1C        O  774   4.356   4.550   4.980 -0.2197  0.4423  0.5546
    1C        C  775   4.145   2.538   5.073 -0.0679 -0.2139  0.1035
    1C        O  776   4.246   2.471   5.039 -0.0932 -0.0994 -0.1973
    1C        O  777   4.114   2.498   5.204 -0.9592  0.6217  0.1592
    1C        C  778   2.877   4.550   5.043 -0.2387 -0.0109 -0.2004
    1C        O  779   2.789   4.639   5.033 -0.2073  0.0881  0.4087
    1C        O  780   2.899   4.535   5.180  0.0471 -0.5634 -0.3039
    1C        C  781   2.486   3.029   5.079  0.1900 -0.2390 -0.1403
    1C        O  782   2.426   2.920   5.061  0.3195 -0.2777 -0.3419
    1C        O  783   2.517   3.048   5.213  0.4381  0.3140 -0.2704
    1C        C  784   2.416   3.994   5.058  0.0220 -0.0542  0.2216
    1C        O  785   2.299   4.036   5.034  0.0483  0.0853  0.3286
    1C        O  786   2.423   3.967   5.196  0.5169  0.4275  0.2915
    1C        C  787   2.953   2.426   1.983 -0.4772  0.0998 -0.2787
    1C        O  788   2.916   2.310   2.015  0.2247 -0.0122  0.1517
    1C        O  789   2.987   2.446   1.850 -0.3101  0.3780 -0.1949
    1C        C  790   3.193   2.385   5.074 -0.3873  0.1297  0.0416
    1C        O  791   3.146   2.269   5.056 -0.2214 -0.0822  0.9530
    1C        O  792   3.221   2.407   5.209 -0.0753  0.0039 -0.0025
    1C        H  793   4.211   3.046   5.012 -1.1068 -0.4790  0.2016
    1C        H  794   4.137   2.831   5.063  0.1954  0.8489  0.6566
    1C        H  795   4.475   3.125   5.057 -2.5073  0.3345 -0.3403
    1C        H  796   4.530   3.361   5.061 -1.2396  2.7500 -0.3136
    1C        H  797   4.557   3.807   5.043 -3.0653 -0.2911  0.4894
    1C        H  798   4.411   3.964   5.053 -1.2223  0.0885  0.2116
    1C        H  799   4.303   4.178   5.050  1.7807  1.7289 -0.0490
    1C        H  800   4.030   4.540   5.020 -2.5860 -1.9315  0.6553
    1C        H  801   3.805   4.533   5.042  0.0145 -0.6137 -0.1674
    1C        H  802   3.590   4.653   5.021 -0.6322 -0.7411 -0.0412
    1C        H  803   3.382   4.522   5.052 -0.2508  1.3170  0.2284
    1C        H  804   3.148   4.503   5.049  0.0264  2.2835 -0.0943
    1C        H  805   3.911   2.438   5.030  0.7361 -0.4035 -0.4181
    1C        H  806   3.675   2.443   5.066  0.0150  0.6574  0.7377
    1C        H  807   2.994   2.554   5.060  0.8703  1.5901  0.7554
    1C        H  808   3.442   2.452   5.072  2.0799 -1.0967  0.7342
    1C        H  809   2.886   2.739   5.072 -0.5185  0.0450  0.1001
    1C        H  810   2.753   2.931   5.066  1.3034 -0.6756  0.7951
    1C        H  811   2.495   3.288   5.064 -1.1306  0.8627 -0.6037
    1C        H  812   2.493   3.502   5.067  0.2476  0.0850 -0.0497
    1C        H  813   2.540   3.734   5.062  0.4657 -0.2489  0.0920
    1C        H  814   2.569   4.183   5.029 -1.4635  0.8515 -0.5156
    1C        H  815   2.730   4.349   5.033  1.1100 -0.6446  0.5957
    1C        H  816   2.698   2.858   1.969  0.2552 -0.1983  0.1181
    1C        H  817   2.841   2.679   1.977 -0.2654  1.0511 -0.3566
    1C        H  818   3.215   2.450   1.986 -0.1704 -2.2133  0.4562
    1C        H  819   3.431   2.486   1.976  0.5597 -0.0186  0.2203
    1C        H  820   3.848   2.504   1.971 -1.2027  1.1794  0.1865
    1C        H  821   4.025   2.666   1.974  0.3977 -0.8957 -0.6294
    1C        H  822   4.210   2.763   1.967 -0.6535 -0.7095  0.2704
    1C        H  823   4.405   2.891   1.971 -0.3348 -1.4787 -0.9414
    1C        H  824   4.620   3.299   1.984 -0.6156 -0.4980 -1.4365
    1C        H  825   4.498   3.504   1.957 -0.2361 -0.6539  0.1733
    1C        H  826   4.465   3.731   1.953  1.0180 -0.7844 -0.9552
    1C        H  827   3.811   4.549   1.965 -0.5573 -1.3105 -1.1880
    1C        H  828   3.956   4.375   1.947  1.6653  2.3588 -0.6210
    1C        H  829   4.130   4.205   1.963 -0.9883  0.2453 -0.0205
    1C        H  830   4.506   3.969   1.966  0.0702 -1.0409 -0.2483
    1C        H  831   2.677   3.827   1.987 -0.3186  0.3022 -1.0490
    1C        H  832   2.700   4.065   1.956  0.7229 -0.2126  0.5320
    1C        H  833   2.707   4.297   1.973 -0.6341  1.5896  0.6868
    1C        H  834   3.376   4.456   1.948 -0.3555 -1.3161  0.4383
    1C        H  835   3.138   4.456   1.948  0.1851  3.4610  0.5690
    1C        H  836   2.517   2.998   1.992  0.9111  0.2524 -1.2370
    1C        H  837   2.451   3.228   1.981  1.3614  1.3947  0.3969
    1C        H  838   2.424   3.692   1.989  0.0781  0.2806 -0.5646
    2V3OU   H29  839   2.794   3.541   0.667 -2.2177  0.7415 -0.0583
    2V3OU   C27  840   2.787   3.495   0.769  0.4273 -0.2422 -0.2247
    2V3OU   H27  841   2.740   3.569   0.838  3.8307  0.6379  1.3035
    2V3OU   H28  842   2.730   3.398   0.760 -1.3218  0.7325 -0.1302
    2V3OU   O11  843   2.911   3.459   0.829  0.4228 -0.0335 -0.0882
    2V3OU   C15  844   2.921   3.389   0.948  0.5525 -0.3109 -0.2593
    2V3OU   C13  845   3.052   3.364   0.995  0.4133 -0.4006  0.0843
    2V3OU   C14  846   3.077   3.261   1.086  0.1714 -0.0153  0.5898
    2V3OU   C16  847   2.972   3.190   1.143 -0.3266  0.0591 -0.2219
    2V3OU    H6  848   2.986   3.101   1.207  0.6811  0.5695  0.2880
    2V3OU   C12  849   3.213   3.231   1.138  0.4009  0.2311  0.1323
    2V3OU    O2  850   3.223   3.124   1.201  0.3578  0.0142 -0.2223
    2V3OU   C10  851   3.326   3.311   1.090  0.2653 -0.1201 -0.7999
    2V3OU    C8  852   3.457   3.266   1.099  0.0814 -0.5721 -0.3580
    2V3OU   O10  853   3.482   3.137   1.134  0.0036 -0.5493 -0.2174
    2V3OU   H26  854   3.402   3.099   1.174 -0.1415 -1.1418 -1.0329
    2V3OU    C6  855   3.563   3.344   1.043  0.2569 -0.5019  0.0636
    2V3OU    C5  856   3.536   3.464   0.978  0.3175 -0.6256 -0.1930
    2V3OU    C4  857   3.702   3.291   1.046  0.5090  0.1547  0.4402
    2V3OU    H4  858   3.712   3.223   1.136 -1.0831 -0.3793  0.2560
    2V3OU    H5  859   3.709   3.228   0.952 -0.0473  1.8424 -0.7918
    2V3OU    C2  860   3.813   3.395   1.035  0.1081  0.5084 -0.3515
    2V3OU    O6  861   3.805   3.470   1.156  0.4987  0.1299 -0.0868
    2V3OU   H21  862   3.755   3.550   1.130 -1.4685 -1.8097 -2.7941
    2V3OU    C3  863   3.780   3.493   0.922 -0.1714  0.0783 -0.6434
    2V3OU    H2  864   3.859   3.571   0.930  1.3534 -1.5373  1.3381
    2V3OU    H3  865   3.781   3.442   0.822 -1.3437  1.1711 -1.2333
    2V3OU   C25  866   3.949   3.324   1.024 -0.0655  0.0927  0.1642
    2V3OU    O7  867   3.991   3.290   0.913 -0.5415  0.6021 -0.1761
    2V3OU   C26  868   4.023   3.284   1.150  0.5587 -0.3360 -0.3328
    2V3OU   H22  869   4.047   3.380   1.201  1.1618 -0.8557  0.3855
    2V3OU   H23  870   4.112   3.221   1.125 -1.0791 -2.7355 -0.5545
    2V3OU    O8  871   3.946   3.197   1.231 -0.0720  0.2249 -0.3210
    2V3OU   H24  872   3.927   3.239   1.316  1.5520 -0.3155  0.3424
    2V3OU    C1  873   3.645   3.560   0.940 -0.0581  0.0448  0.3898
    2V3OU    H1  874   3.620   3.613   0.843 -2.1513 -1.0078  0.2886
    2V3OU    O3  875   3.658   3.649   1.051 -0.1157 -0.0255  0.4530
    2V3OU   C19  876   3.614   3.783   1.026 -0.4575 -0.2565 -0.2184
    2V3OU    H9  877   3.514   3.801   0.977  0.2128  1.0852 -1.1365
    2V3OU    O4  878   3.707   3.847   0.943 -0.3445 -0.1195  0.0138
    2V3OU   C20  879   3.840   3.866   0.994 -0.2561 -0.0191 -0.2535
    2V3OU   H10  880   3.885   3.766   1.020 -0.2611 -0.0787 -0.4746
    2V3OU   C24  881   3.611   3.855   1.161  0.2175 -0.4017 -0.1240
    2V3OU   H16  882   3.546   3.798   1.233  0.4436  1.1812  1.4157
    2V3OU   H17  883   3.569   3.958   1.151  0.5507  0.0326  2.2573
    2V3OU   C23  884   3.749   3.871   1.226  0.1131 -0.7375  0.1835
    2V3OU   H15  885   3.788   3.767   1.253  0.5427 -0.7826 -0.5848
    2V3OU    N1  886   3.730   3.948   1.347 -0.0310  0.2021 -0.4305
    2V3OU   H19  887   3.809   3.925   1.404  0.9578 -1.0289 -2.1843
    2V3OU   H20  888   3.639   3.927   1.384  0.5159 -3.9743 -0.9481
    2V3OU   C21  889   3.847   3.941   1.127 -0.8435  0.0200 -0.2424
    2V3OU   H11  890   3.952   3.921   1.163 -0.9330 -1.2018 -0.5972
    2V3OU    O5  891   3.825   4.081   1.124  0.4172  0.2163 -0.4133
    2V3OU   H18  892   3.779   4.109   1.204 -0.8544  2.1351 -1.7123
    2V3OU   C22  893   3.910   3.944   0.883  0.2901  0.0454  0.1346
    2V3OU   H12  894   3.860   4.042   0.864  0.4014 -0.0755 -0.7971
    2V3OU   H13  895   3.903   3.886   0.788  0.3937 -0.9160  0.6939
    2V3OU   H14  896   4.015   3.965   0.915  0.7449 -2.3956  0.4994
    2V3OU   C11  897   3.156   3.467   0.983 -0.0566  0.0003 -0.5958
    2V3OU    O1  898   3.129   3.578   0.932 -0.1183  0.2439 -0.0374
    2V3OU    C9  899   3.295   3.427   1.013 -0.0829  0.0767 -0.3664
    2V3OU    C7  900   3.399   3.502   0.960  0.4133  0.2827  0.8576
    2V3OU    O9  901   3.383   3.619   0.889 -0.4901 -0.2057  0.2275
    2V3OU   H25  902   3.287   3.631   0.896 -0.6749 -1.7123  0.4448
    2V3OU   C17  903   2.814   3.316   1.001  0.3665 -0.2176 -0.5037
    2V3OU    H7  904   2.709   3.338   0.978  0.4105  0.1414 -0.3711
    2V3OU   C18  905   2.845   3.219   1.096 -0.4012 -0.0988 -0.1212
    2V3OU    H8  906   2.763   3.166   1.147 -1.3586  1.0680 -0.3951
    3SOL     OW  907   0.197   1.227   4.528 -0.2206 -0.5810 -0.0127
    3SOL    HW1  908   0.180   1.294   4.601  1.0863 -0.0858 -0.1403
    3SOL    HW2  909   0.120   1.227   4.465  0.2844  1.7550 -0.7278
    4SOL     OW  910   2.059   1.654   0.765  0.4126  0.4219 -0.5618
    4SOL    HW1  911   2.131   1.702   0.713  0.4429 -1.7296 -2.6864
    4SOL    HW2  912   1.973   1.659   0.713 -0.1898  0.2593  0.4095
    5SOL     OW  913   1.662   0.340   1.859  0.0943  0.3059  0.7019
    5SOL    HW1  914   1.597   0.317   1.787 -1.4536 -0.9648  2.3838
    5SOL    HW2  915   1.672   0.262   1.921  2.2142  0.9542  1.2671
    6SOL     OW  916   6.027   5.924   3.750  0.6311 -0.3118  0.2949
    6SOL    HW1  917   5.954   5.872   3.706  1.6285 -0.2908 -1.4674
    6SOL    HW2  918   5.991   6.012   3.781 -0.2246 -0.5461 -0.0001
    7SOL     OW  919   1.482   6.048   5.669 -0.2390 -0.8018 -0.4305
    7SOL    HW1  920   1.467   5.984   5.593 -3.4125  0.7648 -1.3504
    7SOL    HW2  921   1.405   6.042   5.733 -1.8650  3.2806 -1.6377
    8SOL     OW  922   4.842   1.549   3.457 -0.2937  0.0030 -0.3748
    8SOL    HW1  923   4.773   1.489   3.416 -0.5248  0.2302 -0.3208
    8SOL    HW2  924   4.809   1.643   3.455  1.0231  0.4903 -2.5814
    9SOL     OW  925   5.152   0.984   3.787 -0.4916 -0.0906  0.1354
    9SOL    HW1  926   5.225   1.050   3.804 -0.7223 -0.4360  2.9225
    9SOL    HW2  927   5.186   0.892   3.803 -1.7150 -0.1947  2.6844
   10SOL     OW  928   5.637   0.428   4.180 -0.3051 -0.0872  0.2881
   10SOL    HW1  929   5.666   0.381   4.097 -1.5770 -0.1584 -0.1392
   10SOL    HW2  930   5.635   0.526   4.164 -0.6850 -0.1098  0.1771
   11SOL     OW  931   0.523   0.430   4.318 -0.1374 -0.1046 -0.0735
   11SOL    HW1  932   0.537   0.341   4.361  0.3554 -1.3531 -2.6225
   11SOL    HW2  933   0.612   0.474   4.303 -0.0551 -0.8612 -2.0411
   12SOL     OW  934   2.068   1.892   5.238 -0.0953 -0.1260  0.3421
   12SOL    HW1  935   2.140   1.960   5.228  1.7455 -2.2313 -2.2078
   12SOL    HW2  936   2.086   1.837   5.320  0.3098  0.3045  0.5493
   13SOL     OW  937   0.702   6.488   6.408 -0.3208  0.1697  0.8246
   13SOL    HW1  938   0.741   6.480   6.500 -0.2958  1.7885  0.9850
   13SOL    HW2  939   0.776   6.495   6.341 -0.2485 -3.4904  0.3125
   14SOL     OW  940   1.018   6.083   2.077  0.4145  0.0372 -0.1659
   14SOL    HW1  941   1.114   6.077   2.050  0.7415  0.4397  0.8512
   14SOL    HW2  942   0.996   6.006   2.137 -0.2710 -0.7854 -1.4225
   15SOL     OW  943   1.223   2.577   5.551 -0.1155  0.3079 -0.6891
   15SOL    HW1  944   1.125   2.590   5.541 -0.3911  0.7083  1.9028
   15SOL    HW2  945   1.246   2.481   5.533 -1.2267 -0.1282  0.1250
   16SOL     OW  946   0.411   1.600   2.798 -0.3120 -0.1672 -0.1135
   16SOL    HW1  947   0.450   1.669   2.737 -0.5693 -1.0579 -1.3233
   16SOL    HW2  948   0.322   1.571   2.763  0.3992 -2.1013 -0.4243
   17SOL     OW  949   1.144   1.516   5.921 -0.0697  0.1759  0.1581
   17SOL    HW1  950   1.231   1.549   5.883  0.4000 -0.0340  1.0154
   17SOL    HW2  951   1.163   1.449   5.993 -0.9607 -0.1703  0.0805
   18SOL     OW  952   4.442   0.278   0.160 -0.4030 -0.4694  0.3881
   18SOL    HW1  953   4.354   0.326   0.166 -1.3837 -2.2100  0.8111
   18SOL    HW2  954   4.426   0.179   0.161  1.5380 -0.8381 -0.2489
   19SOL     OW  955   6.732   3.567   3.110 -0.0174  0.2747 -0.4386
   19SOL    HW1  956   6.682   3.640   3.064  1.5430 -0.3586 -3.3505
   19SOL    HW2  957   6.810   3.606   3.159 -0.5504  0.7766  0.0212
   20SOL     OW  958   0.184   4.432   3.862  0.2042  0.5502  0.2553
   20SOL    HW1  959   0.202   4.522   3.901  0.7519  0.1239  1.0080
   20SOL    HW2  960   0.236   4.363   3.912 -0.2248 -0.1884 -0.3007
   21SOL     OW  961   6.541   3.830   1.388 -0.4053  0.1465  0.1995
   21SOL    HW1  962   6.618   3.772   1.363  0.5925  1.4657  0.1494
   21SOL    HW2  963   6.488   3.852   1.306  0.9143  1.6811 -0.2893
   22SOL     OW  964   1.171   4.271   0.120 -0.0181  0.3901 -0.3456
   22SOL    HW1  965   1.168   4.328   0.038  0.1282  1.0913  0.1262
   22SOL    HW2  966   1.255   4.291   0.171 -0.1765  0.0653  0.0474
   23SOL     OW  967   0.346   6.542   1.614 -0.2436 -0.2694  0.1447
   23SOL    HW1  968   0.250   6.537   1.585  0.6997 -2.5115 -3.3428
   23SOL    HW2  969   0.361   6.479   1.690 -1.3931 -0.4453  0.2472
   24SOL     OW  970   5.046   3.846   0.325 -0.2396 -0.0909  0.0414
   24SOL    HW1  971   5.073   3.758   0.365  1.1380  0.0474 -0.5156
   24SOL    HW2  972   4.950   3.863   0.345 -0.0803 -0.8801  1.7162
   25SOL     OW  973   3.297   3.844   4.936 -0.0496  0.1703  0.2281
   25SOL    HW1  974   3.269   3.754   4.902 -1.4333  1.5549 -2.5193
   25SOL    HW2  975   3.394   3.858   4.917  0.1817 -0.6994  0.6971
   26SOL     OW  976   3.488   1.705   6.077  0.6354 -0.4479 -0.2796
   26SOL    HW1  977   3.559   1.675   6.140 -1.2271 -0.6012  1.8474
   26SOL    HW2  978   3.478   1.805   6.084 -0.8759 -0.6724  1.1653
   27SOL     OW  979   6.761   2.413   2.517 -0.0606 -0.5765 -0.3542
   27SOL    HW1  980   6.768   2.466   2.433 -2.3952  0.4872  0.0269
   27SOL    HW2  981   6.852   2.388   2.549  0.9516  0.5467 -2.2077
   28SOL     OW  982   0.857   0.678   5.160 -0.0666 -0.0935 -0.7125
   28SOL    HW1  983   0.806   0.691   5.245  0.6509  0.9321 -0.4162
   28SOL    HW2  984   0.909   0.593   5.164  0.2809  0.1509  0.0434
   29SOL     OW  985   0.547   6.811   1.903 -0.1445  0.5812  0.4923
   29SOL    HW1  986   0.575   6.726   1.947 -0.1625  0.3394  0.0325
   29SOL    HW2  987   0.572   6.888   1.962  0.5326  0.3058  0.5720
   30SOL     OW  988   2.353   4.686   5.186 -0.2109  0.2831 -0.1645
   30SOL    HW1  989   2.266   4.697   5.137 -0.1883  0.7760 -0.0983
   30SOL    HW2  990   2.409   4.617   5.139 -1.4566 -1.5659  0.9422
   31SOL     OW  991   4.944   3.399   4.847 -0.4244  0.2374 -0.1658
   31SOL    HW1  992   4.924   3.369   4.754 -0.7089  1.3675 -0.4949
   31SOL    HW2  993   4.918   3.496   4.856  0.7677  0.4913  0.7227
   32SOL     OW  994   0.351   5.493   0.115 -0.6322  0.7463 -0.5275
   32SOL    HW1  995   0.437   5.537   0.088 -0.1337 -0.5659 -1.1482
   32SOL    HW2  996   0.335   5.508   0.212 -0.1038  1.6656 -0.5739
   33SOL     OW  997   2.974   0.378   3.567 -0.4433  0.4527  0.3800
   33SOL    HW1  998   2.909   0.372   3.491 -1.5746  0.3853  1.3269
   33SOL    HW2  999   3.047   0.311   3.554  0.4186  1.6897 -1.5849
   34SOL     OW 1000   6.622   3.917   3.666 -0.3399 -0.0175 -0.2329
   34SOL    HW1 1001   6.584   4.005   3.640 -0.8233 -0.3586 -0.6936
   34SOL    HW2 1002   6.578   3.844   3.613  1.5609 -0.3532 -1.4263
   35SOL     OW 1003   4.556   1.143   1.610 -0.5854  0.6508  0.9792
   35SOL    HW1 1004   4.528   1.194   1.528 -0.3815 -0.5849  0.1161
   35SOL    HW2 1005   4.505   1.057   1.614  3.3856 -2.0910 -1.0546
   36SOL     OW 1006   1.829   0.751   2.328  0.0270 -0.4698  0.5650
   36SOL    HW1 1007   1.819   0.662   2.372  0.6876  0.5365  2.9164
   36SOL    HW2 1008   1.747   0.806   2.346  0.1995 -0.1193  0.2913
   37SOL     OW 1009   6.890   4.091   2.004 -0.1147 -0.4622 -0.1669
   37SOL    HW1 1010   6.827   4.014   2.018  1.4063 -1.6881  0.2377
   37SOL    HW2 1011   6.926   4.088   1.911  0.0754 -0.3357 -0.0970
   38SOL     OW 1012   5.326   4.438   3.315 -0.2201  0.4723  0.6598
   38SOL    HW1 1013   5.294   4.485   3.232  0.1798  0.1086  0.2918
   38SOL    HW2 1014   5.426   4.429   3.311 -0.3179 -0.7139  0.5611
   39SOL     OW 1015   1.189   4.271   4.295  0.3242 -0.0730  0.2216
   39SOL    HW1 1016   1.260   4.341   4.303 -0.1120  0.6474 -1.7718
   39SOL    HW2 1017   1.099   4.313   4.302  0.0649 -0.5289 -0.2676
   40SOL     OW 1018   3.664   1.001   4.686  0.1754  0.1131 -0.1546
   40SOL    HW1 1019   3.729   0.928   4.663 -1.1175 -1.7239  1.6400
   40SOL    HW2 1020   3.696   1.049   4.767 -0.4119 -0.4357  0.4106
   41SOL     OW 1021   2.356   3.484   0.693 -0.2679  0.0661  0.0664
   41SOL    HW1 1022   2.333   3.393   0.660  1.0338 -0.2826  0.0579
   41SOL    HW2 1023   2.377   3.544   0.615  1.1956 -0.3078  0.1292
   42SOL     OW 1024   6.236   5.597   5.439 -0.5634  0.2291  0.4790
   42SOL    HW1 1025   6.206   5.592   5.534 -1.7901  1.4007  0.1929
   42SOL    HW2 1026   6.155   5.604   5.379  0.1839 -0.4047 -0.6528
   43SOL     OW 1027   5.896   6.204   3.796 -0.1038  0.0088  0.8318
   43SOL    HW1 1028   5.855   6.284   3.839  0.3399 -0.3476  1.9651
   43SOL    HW2 1029   5.938   6.230   3.709  0.4657  1.1062  1.4160
   44SOL     OW 1030   2.744   5.020   5.857  0.0942 -0.1801 -0.2132
   44SOL    HW1 1031   2.797   4.951   5.905 -0.0913  0.1385  0.4628
   44SOL    HW2 1032   2.685   4.976   5.790 -0.6166 -0.7665  0.7709
   45SOL     OW 1033   5.517   1.765   3.547  0.2900 -0.0011 -0.4999
   45SOL    HW1 1034   5.480   1.764   3.454  1.7006 -0.3949 -1.0917
   45SOL    HW2 1035   5.474   1.839   3.599  0.4044  1.0880 -1.8788
   46SOL     OW 1036   0.831   1.522   6.370  0.8382 -0.5937 -0.1297
   46SOL    HW1 1037   0.789   1.592   6.312 -0.4739 -3.0075 -2.3068
   46SOL    HW2 1038   0.760   1.477   6.424  1.6784 -0.2427  1.3150
   47SOL     OW 1039   4.133   2.042   6.089  0.7266 -0.5767  0.3269
   47SOL    HW1 1040   4.179   2.129   6.071  1.5093 -0.5474  2.2524
   47SOL    HW2 1041   4.042   2.043   6.046 -0.3269  2.2143  2.2964
   48SOL     OW 1042   6.857   1.098   5.653  0.5443 -0.6937 -0.6611
   48SOL    HW1 1043   6.829   1.193   5.640  1.0649 -0.5660 -0.8795
   48SOL    HW2 1044   6.810   1.040   5.586  0.8652 -0.4678 -1.0891
   49SOL     OW 1045   0.821   3.733   3.023  0.3855  0.4023  0.2864
   49SOL    HW1 1046   0.911   3.689   3.024  0.8893  1.2604 -2.2231
   49SOL    HW2 1047   0.751   3.664   3.003  0.5924 -0.0414  1.0159
   50SOL     OW 1048   6.069   3.901   5.476  0.3833 -0.5475 -0.1818
   50SOL    HW1 1049   6.119   3.972   5.426 -0.3045  0.6456  0.7834
   50SOL    HW2 1050   6.022   3.842   5.410  0.7427  0.0469 -0.9952
   51SOL     OW 1051   6.351   5.144   2.199  0.4073  0.3503 -0.3905
   51SOL    HW1 1052   6.291   5.091   2.258 -1.5867  2.1734 -0.6754
   51SOL    HW2 1053   6.375   5.089   2.118 -0.7826 -0.4535 -0.2247
   52SOL     OW 1054   5.691   5.841   0.133 -0.6144 -0.3688 -0.4467
   52SOL    HW1 1055   5.616   5.777   0.151 -1.4361  0.6059 -0.2965
   52SOL    HW2 1056   5.655   5.934   0.131  0.2108 -0.0363 -2.5614
   53SOL     OW 1057   5.686   4.249   3.586  0.3828 -0.1246 -0.3739
   53SOL    HW1 1058   5.661   4.274   3.679  1.1481  0.8887 -0.4249
   53SOL    HW2 1059   5.610   4.202   3.542 -0.4057  0.4460  0.3692
   54SOL     OW 1060   0.463   3.826   6.651 -0.1176 -0.2490  0.4327
   54SOL    HW1 1061   0.472   3.778   6.737 -1.2639  0.0795  0.7571
   54SOL    HW2 1062   0.370   3.813   6.615 -0.7539  2.3283  0.9474
   55SOL     OW 1063   5.067   1.767   2.839  0.4205  0.4210 -0.0633
   55SOL    HW1 1064   5.056   1.842   2.904  0.7219 -0.8290  1.5045
   55SOL    HW2 1065   5.161   1.764   2.807 -0.1138  2.1189 -2.0137
   56SOL     OW 1066   6.658   1.458   5.710 -0.6216 -0.2373 -0.0059
   56SOL    HW1 1067   6.754   1.474   5.685 -0.1417 -1.9518  0.5736
   56SOL    HW2 1068   6.609   1.420   5.632 -1.2509  1.9463 -0.7564
   57SOL     OW 1069   5.078   2.373   3.337 -0.5097 -0.0567  0.3264
   57SOL    HW1 1070   5.061   2.339   3.430 -1.5135 -0.4373  0.0178
   57SOL    HW2 1071   4.991   2.397   3.294  0.0047  0.7779 -0.2801
   58SOL     OW 1072   6.563   0.435   0.624 -0.2624  0.2321 -0.0625
   58SOL    HW1 1073   6.634   0.482   0.570 -0.0832  2.5513  2.0327
   58SOL    HW2 1074   6.495   0.397   0.562  0.5175  1.7669 -1.9979
   59SOL     OW 1075   1.223   0.207   6.919 -0.5730 -0.7109  0.1546
   59SOL    HW1 1076   1.247   0.285   6.977 -0.7395  1.3052 -2.2897
   59SOL    HW2 1077   1.133   0.173   6.945 -0.0965 -0.7280  1.8792
   60SOL     OW 1078   5.878   1.735   6.951 -0.5331 -0.3950  0.1471
   60SOL    HW1 1079   5.815   1.665   6.985  0.6458 -0.8292  1.5622
   60SOL    HW2 1080   5.971   1.715   6.985  0.0376  1.2066 -0.3930
   61SOL     OW 1081   4.799   4.861   5.800  0.1564 -0.0885 -0.1605
   61SOL    HW1 1082   4.759   4.939   5.752  2.3195  1.0430 -0.2266
   61SOL    HW2 1083   4.774   4.777   5.753 -0.2218  0.7545 -1.5166
   62SOL     OW 1084   3.491   3.854   1.491 -0.2902  0.5916  0.1406
   62SOL    HW1 1085   3.413   3.797   1.465 -0.3143  1.1223 -0.9794
   62SOL    HW2 1086   3.557   3.798   1.541 -0.1787 -0.5116 -1.1762
   63SOL     OW 1087   2.734   0.741   0.383 -0.3572 -0.1314  0.4989
   63SOL    HW1 1088   2.721   0.832   0.344  0.0465 -1.1652 -2.2804
   63SOL    HW2 1089   2.831   0.726   0.402  0.0591 -0.9151 -1.8472
   64SOL     OW 1090   0.246   3.693   6.009 -0.1208  0.4832  0.2830
   64SOL    HW1 1091   0.281   3.722   6.099  2.8327  0.1442 -0.6630
   64SOL    HW2 1092   0.214   3.598   6.015  1.3976 -0.0302  0.6844
   65SOL     OW 1093   6.660   2.565   4.561 -0.2200  0.1739  0.2430
   65SOL    HW1 1094   6.628   2.628   4.631 -2.4303 -1.7281  1.0501
   65SOL    HW2 1095   6.753   2.535   4.583  0.7485  2.7517  0.0309
   66SOL     OW 1096   3.800   1.254   2.617 -0.0406  0.7359  0.3526
   66SOL    HW1 1097   3.719   1.203   2.647 -0.5230  1.3032  0.0332
   66SOL    HW2 1098   3.825   1.224   2.525 -1.0706  1.9078 -0.3497
   67SOL     OW 1099   6.476   2.094   0.233 -0.0394 -0.4565  0.3510
   67SOL    HW1 1100   6.453   2.191   0.220  0.9786  0.0253  1.9388
   67SOL    HW2 1101   6.451   2.066   0.326  2.2244 -0.9392  0.8591
   68SOL     OW 1102   0.189   4.741   5.019  0.1092 -0.3628 -0.2191
   68SOL    HW1 1103   0.140   4.828   5.023 -0.1520 -0.4594 -1.0776
   68SOL    HW2 1104   0.123   4.666   5.007  0.2444 -0.7976  1.5060
   69SOL     OW 1105   0.049   6.482   0.810 -0.2593  0.0614  0.1903
   69SOL    HW1 1106   0.029   6.528   0.897 -0.7402 -0.1098  0.1691
   69SOL    HW2 1107   0.095   6.546   0.748 -1.2749  0.6289  0.0128
   70SOL     OW 1108   3.424   4.321   1.211 -0.0054  0.2166  0.0303
   70SOL    HW1 1109   3.512   4.280   1.231  0.2608  0.2726 -0.9735
   70SOL    HW2 1110   3.397   4.382   1.285  1.0600  0.6257  0.0908
   71SOL     OW 1111   2.843   4.245   1.335 -0.5595  0.1770  0.0546
   71SOL    HW1 1112   2.749   4.277   1.347 -0.8027  0.0195 -1.2522
   71SOL    HW2 1113   2.843   4.146   1.319 -0.5854  0.6527 -3.6194
   72SOL     OW 1114   6.994   1.631   0.220  0.7072 -0.2451 -0.3009
   72SOL    HW1 1115   6.969   1.561   0.154  2.5611 -0.2649 -1.0220
   72SOL    HW2 1116   6.919   1.697   0.228 -0.0129 -0.8783 -1.5261
   73SOL     OW 1117   6.544   3.880   0.526  0.2302  0.1756 -0.3768
   73SOL    HW1 1118   6.558   3.857   0.622 -1.4778  1.9012  0.3642
   73SOL    HW2 1119   6.620   3.937   0.494 -0.8542  2.6059  1.0980
   74SOL     OW 1120   1.100   3.120   0.361 -0.7614 -0.1786 -0.3964
   74SOL    HW1 1121   1.194   3.148   0.383 -0.5747 -0.3400 -0.9805
   74SOL    HW2 1122   1.076   3.039   0.415  0.2500 -1.5230 -1.8839
   75SOL     OW 1123   5.969   2.672   3.578  0.1472  0.0270 -0.3641
   75SOL    HW1 1124   6.050   2.691   3.523  0.1945  0.6197 -0.0957
   75SOL    HW2 1125   5.997   2.632   3.665 -0.0378 -3.8018 -1.8516
   76SOL     OW 1126   3.708   1.740   1.178 -0.6338  0.1841 -0.0658
   76SOL    HW1 1127   3.749   1.819   1.222 -0.5513  0.2118 -0.1914
   76SOL    HW2 1128   3.623   1.716   1.224 -0.1134 -0.3138  0.6543
   77SOL     OW 1129   4.491   6.579   3.861  0.2616  0.4820 -0.3082
   77SOL    HW1 1130   4.486   6.535   3.951 -0.1718  1.1520  0.0064
   77SOL    HW2 1131   4.439   6.524   3.795 -2.6840  1.8705  0.6694
   78SOL     OW 1132   5.594   1.174   6.410  0.4200  0.4446 -0.6649
   78SOL    HW1 1133   5.514   1.154   6.353  1.0845 -3.0987 -0.6144
   78SOL    HW2 1134   5.677   1.171   6.354  0.7054  2.2568 -0.3914
   79SOL     OW 1135   5.771   0.952   1.528  0.3790 -0.5529 -0.1791
   79SOL    HW1 1136   5.730   1.013   1.596  1.9663 -0.7491  1.0147
   79SOL    HW2 1137   5.703   0.885   1.497 -1.0854  1.1201 -0.7206
   80SOL     OW 1138   0.233   2.707   5.547  0.2773  0.1633  0.5745
   80SOL    HW1 1139   0.267   2.796   5.516  0.4625  0.4282  1.4990
   80SOL    HW2 1140   0.301   2.637   5.529  0.7219  0.4511  1.1136
   81SOL     OW 1141   6.959   5.897   2.889  0.0109  0.3277 -0.3687
   81SOL    HW1 1142   6.932   5.952   2.810  0.5610  0.7550 -0.2685
   81SOL    HW2 1143   7.054   5.918   2.913  0.3067 -0.8414 -0.4617
   82SOL     OW 1144   0.733   3.995   2.967 -0.6554  0.2203 -0.5348
   82SOL    HW1 1145   0.756   3.912   3.018  0.2240  0.3912 -0.6360
   82SOL    HW2 1146   0.639   4.023   2.989 -0.5862 -0.1929  0.3342
   83SOL     OW 1147   3.900   0.179   5.137 -0.0044 -0.5249 -0.4690
   83SOL    HW1 1148   3.857   0.127   5.211 -1.6555  1.5386  0.1245
   83SOL    HW2 1149   3.960   0.249   5.176  1.6998 -1.4705 -1.2383
   84SOL     OW 1150   4.519   6.538   2.683 -0.1534  0.0606 -0.4452
   84SOL    HW1 1151   4.542   6.462   2.744 -0.2397  2.3486  2.7032
   84SOL    HW2 1152   4.591   6.607   2.686 -1.0762  1.1168 -1.4177
   85SOL     OW 1153   1.490   5.868   0.563  0.3670  0.5784 -0.1720
   85SOL    HW1 1154   1.457   5.826   0.478  0.8275 -1.2690  0.5050
   85SOL    HW2 1155   1.500   5.967   0.551 -0.8913  0.5365 -1.8230
   86SOL     OW 1156   6.955   1.348   1.956  0.2507 -0.4674 -0.2773
   86SOL    HW1 1157   6.890   1.420   1.932  0.9424  0.5870  0.8564
   86SOL    HW2 1158   7.044   1.390   1.976  0.2087 -1.3844  2.2489
   87SOL     OW 1159   5.606   3.321   5.160  1.0899  0.3388  0.2049
   87SOL    HW1 1160   5.571   3.311   5.253 -0.4838  0.1957 -0.3797
   87SOL    HW2 1161   5.647   3.235   5.130 -0.2641 -0.2788  0.0436
   88SOL     OW 1162   3.607   1.012   2.470  0.1699 -0.1195 -0.0465
   88SOL    HW1 1163   3.515   1.049   2.483  0.4457  0.6344 -0.1915
   88SOL    HW2 1164   3.657   1.014   2.556  1.2458  2.8137 -0.6431
   89SOL     OW 1165   3.425   1.266   3.297  0.3414  0.0146  0.5819
   89SOL    HW1 1166   3.447   1.362   3.313  0.8051  0.1548 -0.7936
   89SOL    HW2 1167   3.502   1.209   3.325 -0.1676 -0.0222  1.9672
   90SOL     OW 1168   3.416   4.157   2.706  0.2906 -0.5144  0.7863
   90SOL    HW1 1169   3.433   4.244   2.659  0.7959 -1.2806 -0.4922
   90SOL    HW2 1170   3.460   4.159   2.796  0.8245  0.3322  0.5195
   91SOL     OW 1171   5.180   1.983   6.289  0.3546  0.2342  0.0985
   91SOL    HW1 1172   5.176   1.975   6.190 -2.7528  1.3364  0.0320
   91SOL    HW2 1173   5.142   2.071   6.317 -1.0127 -0.9768  2.3344
   92SOL     OW 1174   6.795   5.388   0.145 -0.1914 -0.2340  0.0226
   92SOL    HW1 1175   6.863   5.458   0.167 -0.6269  0.0123  0.5857
   92SOL    HW2 1176   6.833   5.298   0.166  0.7719 -0.2795 -1.6789
   93SOL     OW 1177   4.093   6.835   3.418  0.6633 -0.5804  0.6938
   93SOL    HW1 1178   4.016   6.879   3.465  1.6266  1.3620  0.5304
   93SOL    HW2 1179   4.072   6.827   3.321  0.7137  0.0607  0.6279
   94SOL     OW 1180   3.847   2.911   6.227 -0.3656  0.2908  0.6606
   94SOL    HW1 1181   3.794   2.836   6.188  1.3494 -0.4447 -0.3396
   94SOL    HW2 1182   3.835   2.913   6.326 -1.6255 -0.3290  0.5336
   95SOL     OW 1183   2.173   3.926   0.764 -0.1547  0.1273  0.4355
   95SOL    HW1 1184   2.162   3.913   0.862 -0.1126 -2.3565  0.1712
   95SOL    HW2 1185   2.096   3.883   0.716 -1.0067  2.6108 -0.6253
   96SOL     OW 1186   1.532   5.639   4.770  0.0191  0.1012  0.0251
   96SOL    HW1 1187   1.575   5.553   4.742  0.9919  0.1966  1.1402
   96SOL    HW2 1188   1.435   5.624   4.788  0.3346 -0.9380  0.9362
   97SOL     OW 1189   3.442   0.683   4.525 -0.5637  0.1757 -0.5061
   97SOL    HW1 1190   3.386   0.601   4.530  0.6459 -0.5742  1.8667
   97SOL    HW2 1191   3.425   0.741   4.605 -0.2954  1.5340 -1.3848
   98SOL     OW 1192   6.097   4.418   4.315 -0.2728  0.5879 -0.3698
   98SOL    HW1 1193   6.158   4.346   4.282 -1.3552 -0.6770  0.3398
   98SOL    HW2 1194   6.060   4.468   4.237  1.8914  1.6306 -0.8210
   99SOL     OW 1195   0.310   1.260   2.116  0.3997 -0.1809  0.1661
   99SOL    HW1 1196   0.397   1.220   2.145 -0.2546 -1.4434  0.4849
   99SOL    HW2 1197   0.251   1.187   2.080 -0.0345  0.8578 -1.2972
  100SOL     OW 1198   4.956   4.308   1.742  0.0766  0.6038 -0.8546
  100SOL    HW1 1199   4.904   4.226   1.717  0.2460  0.7370 -1.6833
  100SOL    HW2 1200   4.893   4.383   1.762 -0.0780  0.3029 -0.1766
  101SOL     OW 1201   4.823   6.103   5.887  0.5549  0.1380 -0.5199
  101SOL    HW1 1202   4.850   6.007   5.883  2.6701  0.5211  2.0726
  101SOL    HW2 1203   4.904   6.161   5.877 -0.1826  1.5473  1.2142
  102SOL     OW 1204   0.393   1.875   0.955  0.8920 -0.1838 -0.0774
  102SOL    HW1 1205   0.399   1.780   0.926  0.8791  0.3477 -1.9687
  102SOL    HW2 1206   0.410   1.881   1.054  0.3424 -2.1817  0.1809
  103SOL     OW 1207   1.939   6.482   5.688 -0.3639 -0.2006 -0.7736
  103SOL    HW1 1208   1.906   6.397   5.649 -0.5483 -0.4120 -0.1700
  103SOL    HW2 1209   2.030   6.502   5.653 -0.3804 -0.5680 -1.0310
  104SOL     OW 1210   4.171   1.398   3.630  0.3079 -0.6734 -0.0297
  104SOL    HW1 1211   4.229   1.320   3.653 -0.0722 -1.1016 -0.4880
  104SOL    HW2 1212   4.211   1.446   3.552 -1.0065 -2.2315 -1.7696
  105SOL     OW 1213   3.739   1.182   4.221  0.1810  0.5009 -0.0784
  105SOL    HW1 1214   3.782   1.258   4.172 -0.3898  0.0197 -1.3515
  105SOL    HW2 1215   3.794   1.100   4.211 -0.7541 -0.0020 -1.3188
  106SOL     OW 1216   0.938   2.926   0.492 -0.1492 -0.0227  0.2371
  106SOL    HW1 1217   0.882   3.009   0.484 -0.0968  0.0616  0.7154
  106SOL    HW2 1218   0.879   2.848   0.513 -0.1552 -0.0422  0.1488
  107SOL     OW 1219   0.722   3.804   4.025 -0.2122  0.0426  0.2090
  107SOL    HW1 1220   0.738   3.902   4.036 -1.4812  0.3931 -0.7815
  107SOL    HW2 1221   0.670   3.789   3.941  0.2113 -1.5130  0.2033
  108SOL     OW 1222   2.434   5.124   5.858  0.1621 -0.4034 -0.0213
  108SOL    HW1 1223   2.524   5.084   5.839  1.4574  1.2439  2.0767
  108SOL    HW2 1224   2.422   5.207   5.804 -0.0372 -0.5338 -0.1793
  109SOL     OW 1225   2.867   1.481   2.081 -0.5998 -0.3267  0.0791
  109SOL    HW1 1226   2.882   1.579   2.080 -0.1017 -0.2994  3.0045
  109SOL    HW2 1227   2.954   1.433   2.070 -0.3987 -0.3669  1.6715
  110SOL     OW 1228   4.792   6.734   5.187  0.3185  0.4845 -0.8029
  110SOL    HW1 1229   4.837   6.652   5.221  1.3887  1.8431  1.2662
  110SOL    HW2 1230   4.832   6.760   5.099  0.0160 -1.1146 -1.4437
  111SOL     OW 1231   1.010   4.338   3.936  0.1508  0.6767  0.0907
  111SOL    HW1 1232   0.952   4.335   3.855 -0.2767  0.5566  0.3983
  111SOL    HW2 1233   1.104   4.312   3.912 -0.3031 -0.8799 -0.0721
  112SOL     OW 1234   1.123   1.529   4.768  0.1647  0.0492  0.4267
  112SOL    HW1 1235   1.095   1.433   4.761  0.8991 -0.1608  0.2967
  112SOL    HW2 1236   1.128   1.569   4.677  0.9827 -0.1262  0.3848
  113SOL     OW 1237   5.116   6.323   6.065  0.6258  0.2302 -0.5235
  113SOL    HW1 1238   5.050   6.294   6.134  1.7682 -1.4363 -0.0837
  113SOL    HW2 1239   5.075   6.314   5.974  0.4647 -1.4651 -0.3012
  114SOL     OW 1240   1.567   0.035   1.865 -0.6683 -0.0702  0.5764
  114SOL    HW1 1241   1.650  -0.010   1.832 -1.2221  0.9816 -2.6123
  114SOL    HW2 1242   1.492   0.020   1.800 -2.5793  0.3456  2.5515
  115SOL     OW 1243   2.626   4.613   3.580 -0.0684  0.6901 -0.2651
  115SOL    HW1 1244   2.560   4.540   3.560  1.5498 -1.1829  0.8016
  115SOL    HW2 1245   2.680   4.587   3.660  3.6243  0.8776 -2.4535
  116SOL     OW 1246   6.069   1.543   6.268 -0.5805 -0.3157  0.5389
  116SOL    HW1 1247   5.976   1.536   6.230 -0.0562  0.7730 -1.0342
  116SOL    HW2 1248   6.070   1.504   6.360 -3.0097  1.1688  1.2944
  117SOL     OW 1249   3.963   6.507   2.078 -0.4445  0.0799 -0.7952
  117SOL    HW1 1250   4.002   6.423   2.040  0.8704  0.4361 -0.2934
  117SOL    HW2 1251   4.030   6.551   2.138 -1.6625  0.6920  0.1699
  118SOL     OW 1252   2.639   6.662   6.861  0.5353  0.1489 -0.4025
  118SOL    HW1 1253   2.552   6.668   6.910 -0.2908  0.6887 -1.8502
  118SOL    HW2 1254   2.639   6.730   6.787  1.1727 -1.4841 -1.9571
  119SOL     OW 1255   3.319   6.429   5.415  0.6281  0.1271  0.2571
  119SOL    HW1 1256   3.287   6.344   5.374  1.0249  0.2627 -0.3505
  119SOL    HW2 1257   3.242   6.478   5.455  0.2474 -0.0545 -0.2430
  120SOL     OW 1258   2.236   4.937   3.232  0.1014 -0.3512  0.1271
  120SOL    HW1 1259   2.296   4.859   3.245 -1.1101 -1.2855  0.2854
  120SOL    HW2 1260   2.180   4.924   3.150  0.3641  0.6816 -0.2382
  121SOL     OW 1261   2.349   0.567   0.653  0.3754 -0.2681 -0.7795
  121SOL    HW1 1262   2.338   0.468   0.646  0.8419 -0.3744 -0.1744
  121SOL    HW2 1263   2.324   0.597   0.745 -1.6766  0.4666 -1.5306
  122SOL     OW 1264   0.577   6.580   5.108  0.4764  0.0535 -0.4418
  122SOL    HW1 1265   0.532   6.519   5.044 -0.2148  0.8704 -0.7600
  122SOL    HW2 1266   0.531   6.577   5.197  1.6762 -1.3778  0.1759
  123SOL     OW 1267   2.530   0.893   3.582 -0.3082 -0.1867 -0.1327
  123SOL    HW1 1268   2.601   0.950   3.622 -0.1519 -0.0690 -0.5671
  123SOL    HW2 1269   2.571   0.813   3.538 -0.6688 -1.9887  2.5422
  124SOL     OW 1270   6.638   5.899   4.203  0.4830 -0.0559 -0.6694
  124SOL    HW1 1271   6.627   5.866   4.109  0.4682 -1.5301 -0.1723
  124SOL    HW2 1272   6.552   5.941   4.234  0.1144 -0.6058 -0.9271
  125SOL     OW 1273   3.251   6.433   6.131  0.1122  0.0642 -0.1391
  125SOL    HW1 1274   3.195   6.416   6.050  2.5536 -1.5342 -1.6454
  125SOL    HW2 1275   3.273   6.531   6.136 -1.1119  0.3783 -0.6706
  126SOL     OW 1276   0.504   0.748   6.601 -0.2882  0.5536  0.5636
  126SOL    HW1 1277   0.556   0.733   6.517  0.1659 -0.7879  1.0509
  126SOL    HW2 1278   0.468   0.841   6.602  0.7929  1.0140 -0.5171
  127SOL     OW 1279   5.265   2.876   2.973  0.9594 -0.5726 -0.4297
  127SOL    HW1 1280   5.185   2.846   3.024  1.0259 -1.0285 -0.5904
  127SOL    HW2 1281   5.249   2.968   2.936 -0.7569 -1.8530 -3.1553
  128SOL     OW 1282   3.865   5.505   1.423 -0.3062  0.3631 -0.1772
  128SOL    HW1 1283   3.779   5.492   1.375 -1.1682 -0.6544  1.5280
  128SOL    HW2 1284   3.854   5.578   1.491  0.4501  0.8046 -0.5125
  129SOL     OW 1285   3.602   4.966   4.255  0.5784  0.5285 -0.8314
  129SOL    HW1 1286   3.588   5.049   4.308  1.2513  0.7128 -0.9354
  129SOL    HW2 1287   3.663   4.904   4.304  0.1123  0.1037 -0.7723
  130SOL     OW 1288   0.854   3.752   2.466  0.3195  0.4808  0.3229
  130SOL    HW1 1289   0.837   3.673   2.525  1.9869  0.5885  1.0076
  130SOL    HW2 1290   0.802   3.831   2.500 -0.5350 -0.0462  0.2555
  131SOL     OW 1291   5.780   3.517   4.110 -0.3436  0.7492  0.1036
  131SOL    HW1 1292   5.815   3.435   4.066 -0.5121  0.3308  0.7341
  131SOL    HW2 1293   5.683   3.503   4.132 -0.1184  0.7264  1.1176
  132SOL     OW 1294   0.604   1.975   4.627 -0.2405 -0.5220 -0.1241
  132SOL    HW1 1295   0.520   2.027   4.610 -0.7975 -0.9490  1.1478
  132SOL    HW2 1296   0.645   1.948   4.540 -0.6128  0.9534 -0.7905
  133SOL     OW 1297   0.124   1.601   0.532  0.1986 -0.0575  0.1187
  133SOL    HW1 1298   0.166   1.682   0.491 -2.2532  0.5909 -1.3552
  133SOL    HW2 1299   0.119   1.528   0.463  2.0981 -1.4295  1.3409
  134SOL     OW 1300   1.028   4.417   5.232 -0.6168  0.2615 -0.2332
  134SOL    HW1 1301   0.969   4.483   5.187 -0.5008  1.8348  1.8023
  134SOL    HW2 1302   1.124   4.444   5.221 -0.6444  1.5028  2.0803
  135SOL     OW 1303   1.405   4.726   5.882  0.2245 -0.0585  0.8260
  135SOL    HW1 1304   1.470   4.661   5.842  0.3547  1.1397 -1.0224
  135SOL    HW2 1305   1.450   4.776   5.957  0.9179 -0.3620  0.6274
  136SOL     OW 1306   5.528   2.493   1.226 -0.1779 -0.4663 -0.1745
  136SOL    HW1 1307   5.465   2.524   1.155 -0.7697  0.2010  0.6242
  136SOL    HW2 1308   5.575   2.571   1.267  0.5826 -0.8915 -0.2104
  137SOL     OW 1309   5.128   6.128   3.412  0.1549 -0.9009  0.2930
  137SOL    HW1 1310   5.185   6.088   3.341 -0.8146 -0.5478 -0.7262
  137SOL    HW2 1311   5.173   6.119   3.500  2.2762  0.3323 -0.5877
  138SOL     OW 1312   3.118   1.386   1.980  0.0188  0.3256  0.3797
  138SOL    HW1 1313   3.118   1.288   1.966  0.1910  0.4746 -0.7025
  138SOL    HW2 1314   3.210   1.416   2.009 -0.4303 -0.0279  2.3125
  139SOL     OW 1315   1.997   3.643   5.544  0.0814 -0.4124  0.8409
  139SOL    HW1 1316   2.057   3.565   5.531  1.1262  0.3408  1.0330
  139SOL    HW2 1317   2.036   3.723   5.499 -0.6268  0.1555  1.2226
  140SOL     OW 1318   0.529   4.970   2.880 -0.2339  0.0056  0.0872
  140SOL    HW1 1319   0.591   5.044   2.852 -1.0530  0.5644 -0.3068
  140SOL    HW2 1320   0.547   4.889   2.825 -0.5381  0.4948 -0.7508
  141SOL     OW 1321   6.041   4.606   5.217 -0.2237 -0.4388  0.4540
  141SOL    HW1 1322   6.096   4.602   5.300  1.0287  2.1534 -0.1659
  141SOL    HW2 1323   5.944   4.608   5.242  0.1150 -0.0459  1.8524
  142SOL     OW 1324   4.917   5.563   2.392 -0.3162 -0.1800 -0.0209
  142SOL    HW1 1325   4.886   5.498   2.322  2.7861 -0.0892 -1.6823
  142SOL    HW2 1326   4.859   5.644   2.390 -1.7709 -1.1894 -0.7631
  143SOL     OW 1327   3.262   2.147   4.830 -0.2092 -0.1248 -0.0342
  143SOL    HW1 1328   3.276   2.055   4.866  0.6349  0.2976  0.7712
  143SOL    HW2 1329   3.230   2.207   4.903 -0.2932  0.3301 -0.4391
  144SOL     OW 1330   0.413   6.602   6.531  0.5679 -0.9769 -0.1212
  144SOL    HW1 1331   0.425   6.632   6.626 -2.8747 -0.3829  0.2496
  144SOL    HW2 1332   0.438   6.677   6.469 -1.1463  0.1808  0.5281
  145SOL     OW 1333   3.543   1.804   5.507 -0.1547  0.1233 -0.0523
  145SOL    HW1 1334   3.498   1.892   5.523  0.6126  0.2755  1.3549
  145SOL    HW2 1335   3.641   1.812   5.525 -0.2417 -1.3097  1.2773
  146SOL     OW 1336   3.686   4.109   4.619 -0.1611 -0.0648  0.0505
  146SOL    HW1 1337   3.667   4.128   4.523 -1.7400 -2.6509 -0.2544
  146SOL    HW2 1338   3.613   4.147   4.676 -0.7795 -1.0086 -0.0913
  147SOL     OW 1339   4.326   5.496   2.855  0.4285  0.4902 -0.1198
  147SOL    HW1 1340   4.270   5.429   2.806  1.2251  0.6579 -1.2675
  147SOL    HW2 1341   4.303   5.589   2.824  0.2493  0.6781  0.5380
  148SOL     OW 1342   3.982   2.205   6.975 -0.2888 -0.3783 -0.0175
  148SOL    HW1 1343   3.958   2.291   6.929 -1.1093 -0.6051 -0.0244
  148SOL    HW2 1344   4.043   2.224   7.052 -0.6825  0.2382  0.1463
  149SOL     OW 1345   3.243   6.761   5.869 -0.4079 -0.3215 -0.4475
  149SOL    HW1 1346   3.250   6.769   5.969  0.6181  0.9348 -0.5993
  149SOL    HW2 1347   3.331   6.785   5.828 -0.8121 -0.8750 -1.6667
  150SOL     OW 1348   1.087   0.276   6.045  0.6445 -0.1137 -0.1577
  150SOL    HW1 1349   1.041   0.333   5.976  1.1754  0.0579 -0.3792
  150SOL    HW2 1350   1.074   0.179   6.022 -1.2582 -0.1469  0.8642
  151SOL     OW 1351   0.462   4.202   0.187 -0.0094  0.2454  0.3575
  151SOL    HW1 1352   0.546   4.224   0.137 -1.9698  0.8781 -2.9910
  151SOL    HW2 1353   0.432   4.110   0.161 -1.0528  0.5643  0.3960
  152SOL     OW 1354   6.240   2.124   0.545 -0.4142 -1.1315  0.3461
  152SOL    HW1 1355   6.193   2.104   0.459 -0.3293  0.3886 -0.0852
  152SOL    HW2 1356   6.297   2.046   0.572 -1.6623 -2.2374 -0.1329
  153SOL     OW 1357   6.109   5.863   4.010  0.4848 -0.2416  0.3690
  153SOL    HW1 1358   6.205   5.890   4.014  0.6851 -0.9831  0.5518
  153SOL    HW2 1359   6.074   5.877   3.917  0.2878  1.6264  0.6829
  154SOL     OW 1360   4.006   6.605   5.916  0.0114 -0.1495  0.4276
  154SOL    HW1 1361   4.091   6.555   5.896  0.2865  0.2514  0.5800
  154SOL    HW2 1362   3.948   6.549   5.975  0.6503  0.0070  1.2303
  155SOL     OW 1363   4.763   4.702   0.886  0.0788  0.9661 -0.4167
  155SOL    HW1 1364   4.775   4.624   0.947 -1.3720  1.0269 -0.0075
  155SOL    HW2 1365   4.759   4.786   0.939 -0.5155  1.0878 -0.6370
  156SOL     OW 1366   1.088   2.205   1.905 -0.0251 -0.0653  0.1048
  156SOL    HW1 1367   1.078   2.305   1.900 -0.2732 -0.1308 -1.0804
  156SOL    HW2 1368   0.998   2.164   1.919  0.0016 -0.1526  0.0163
  157SOL     OW 1369   1.745   5.492   1.975 -0.1810  0.5072  1.0393
  157SOL    HW1 1370   1.812   5.423   2.002 -0.0164  0.2402  0.0046
  157SOL    HW2 1371   1.677   5.450   1.914 -0.5406  1.0817  1.0349
  158SOL     OW 1372   4.993   1.034   1.250  0.1264  0.6539  0.9224
  158SOL    HW1 1373   5.035   0.976   1.180 -1.7763  0.2449  0.0448
  158SOL    HW2 1374   5.064   1.076   1.306  1.6586 -0.0415 -0.4271
  159SOL     OW 1375   4.187   0.752   1.762 -0.0637 -0.5843  0.0906
  159SOL    HW1 1376   4.119   0.735   1.691 -0.8251  0.3992  0.5676
  159SOL    HW2 1377   4.210   0.666   1.807 -2.1289 -0.7555  0.9271
  160SOL     OW 1378   0.743   6.550   3.236 -0.4334  0.2258 -0.0185
  160SOL    HW1 1379   0.693   6.533   3.151  1.8912  0.5592 -1.5216
  160SOL    HW2 1380   0.789   6.466   3.266 -0.5907  0.3135  0.4939
  161SOL     OW 1381   5.640   5.419   6.403 -0.1713  0.0503  0.3179
  161SOL    HW1 1382   5.582   5.501   6.404 -1.0061 -0.5113 -0.3284
  161SOL    HW2 1383   5.608   5.355   6.473  1.6910  1.0495  2.1761
  162SOL     OW 1384   3.866   1.269   6.928 -0.1288 -0.7190  0.1605
  162SOL    HW1 1385   3.907   1.258   6.837 -0.0217  0.3295  0.0763
  162SOL    HW2 1386   3.938   1.266   6.997 -0.0005  0.2681  0.0754
  163SOL     OW 1387   1.326   2.913   3.409 -0.1574 -0.5742 -0.5490
  163SOL    HW1 1388   1.295   2.818   3.418 -1.1557 -0.3104 -1.0920
  163SOL    HW2 1389   1.321   2.959   3.497 -1.7028 -0.4322 -0.6878
  164SOL     OW 1390   2.931   3.714   0.067 -0.6058 -0.3224 -0.0494
  164SOL    HW1 1391   2.888   3.720  -0.023  0.9974 -0.8305 -0.8780
  164SOL    HW2 1392   2.945   3.806   0.104  1.6796  0.1255 -1.8097
  165SOL     OW 1393   4.209   1.996   2.697 -0.2768  0.2999  0.4553
  165SOL    HW1 1394   4.221   2.091   2.671  1.7106 -0.2127 -0.7182
  165SOL    HW2 1395   4.124   1.960   2.658 -0.6221  1.3566  0.2209
  166SOL     OW 1396   6.593   6.356   5.543 -0.0771 -0.0605 -0.4591
  166SOL    HW1 1397   6.572   6.428   5.610 -2.4132  0.4544 -1.6528
  166SOL    HW2 1398   6.529   6.281   5.554  1.7490 -1.6088  0.1360
  167SOL     OW 1399   2.134   5.941   2.085 -0.2630 -0.2107 -0.0621
  167SOL    HW1 1400   2.156   5.986   1.998  0.7284 -1.8128 -0.6905
  167SOL    HW2 1401   2.036   5.922   2.088 -0.0934 -1.5598 -1.5990
  168SOL     OW 1402   6.527   0.907   1.608  0.3517  0.1368  0.5213
  168SOL    HW1 1403   6.608   0.872   1.562  1.4392  2.6551  0.3162
  168SOL    HW2 1404   6.447   0.851   1.584  1.9674 -2.3816  0.6907
  169SOL     OW 1405   4.373   6.884   3.810  0.8990  0.2675 -0.1348
  169SOL    HW1 1406   4.303   6.926   3.752 -1.4385 -2.5874  0.3928
  169SOL    HW2 1407   4.442   6.841   3.753 -0.1517 -0.5763 -0.8028
  170SOL     OW 1408   3.419   5.783   6.078 -0.2033  0.5057  0.5603
  170SOL    HW1 1409   3.386   5.845   6.149  0.6793  2.7983 -0.9017
  170SOL    HW2 1410   3.474   5.710   6.120  0.9137  2.1960  2.2154
  171SOL     OW 1411   4.800   5.030   6.492  0.5464 -0.0941  0.3380
  171SOL    HW1 1412   4.744   4.985   6.562  0.5548  0.1255  0.4910
  171SOL    HW2 1413   4.880   5.071   6.536 -0.1376  1.2127  0.4247
  172SOL     OW 1414   2.953   5.561   5.957 -0.2152  0.1423  0.0609
  172SOL    HW1 1415   2.862   5.533   5.989  0.0494  0.6414  1.2925
  172SOL    HW2 1416   2.979   5.506   5.878 -1.7623  0.2644 -0.5618
  173SOL     OW 1417   2.395   4.643   1.984 -0.0731  0.2829  0.2695
  173SOL    HW1 1418   2.390   4.743   1.974  0.9349  0.3032 -0.1459
  173SOL    HW2 1419   2.488   4.617   2.012 -0.3190 -0.5463  0.3411
  174SOL     OW 1420   4.370   6.315   5.044 -0.4154 -0.0619  0.1118
  174SOL    HW1 1421   4.408   6.236   4.995  0.9971  0.4686  0.3039
  174SOL    HW2 1422   4.293   6.285   5.100  1.0635 -1.6494  1.4126
  175SOL     OW 1423   0.824   5.689   0.748  0.3060  0.2452 -0.3308
  175SOL    HW1 1424   0.827   5.713   0.845  2.8676 -0.6223 -0.1189
  175SOL    HW2 1425   0.767   5.607   0.736 -3.9651  2.9279 -0.3362
  176SOL     OW 1426   4.939   6.542   5.785  0.5285  0.4647 -1.0443
  176SOL    HW1 1427   5.014   6.545   5.851  1.6758  0.4634 -2.3070
  176SOL    HW2 1428   4.945   6.620   5.722 -2.4036  2.3133  0.7198
  177SOL     OW 1429   1.368   5.364   3.708 -0.6534 -0.4623 -0.1002
  177SOL    HW1 1430   1.416   5.429   3.766 -0.7777 -1.8430  1.6582
  177SOL    HW2 1431   1.402   5.271   3.727 -3.7574 -1.5126  1.1312
  178SOL     OW 1432   5.705   5.322   3.452  0.3026  0.1614  0.3727
  178SOL    HW1 1433   5.637   5.269   3.503  0.6710  0.8573  1.6311
  178SOL    HW2 1434   5.789   5.269   3.442  0.2903  0.0838  0.6595
  179SOL     OW 1435   0.518   6.860   4.832  0.0438  0.2757 -0.0792
  179SOL    HW1 1436   0.418   6.860   4.829 -0.0861 -2.6523  0.9036
  179SOL    HW2 1437   0.549   6.926   4.900 -1.3529 -0.1598  1.0351
  180SOL     OW 1438   2.490   5.804   2.753  0.0519 -0.2979 -0.1217
  180SOL    HW1 1439   2.449   5.719   2.720 -1.3148  1.0137 -2.0008
  180SOL    HW2 1440   2.427   5.850   2.815  0.3900 -0.1847  0.1440
  181SOL     OW 1441   5.084   4.869   1.454 -0.1928  0.2775  0.0847
  181SOL    HW1 1442   5.155   4.869   1.523 -0.0578  0.4079 -0.0523
  181SOL    HW2 1443   5.108   4.806   1.380  0.4090  1.2725 -0.5919
  182SOL     OW 1444   0.164   3.401   4.571 -0.4327 -0.3640  0.0832
  182SOL    HW1 1445   0.175   3.482   4.628  1.1099 -1.5715  1.6224
  182SOL    HW2 1446   0.235   3.400   4.501  1.6811 -1.8632  2.0746
  183SOL     OW 1447   5.166   5.806   4.446 -0.2118 -0.3192  0.7280
  183SOL    HW1 1448   5.121   5.798   4.357  0.5904  0.4290  0.2477
  183SOL    HW2 1449   5.189   5.714   4.479 -0.5733 -0.6045  0.2067
  184SOL     OW 1450   7.001   6.251   6.427  0.0755  0.1049 -0.4637
  184SOL    HW1 1451   7.017   6.333   6.372  1.2201  0.5923  0.5431
  184SOL    HW2 1452   7.001   6.276   6.524 -0.4025 -0.9661 -0.1750
  185SOL     OW 1453   5.755   4.641   4.600 -0.2703 -0.5397 -0.1116
  185SOL    HW1 1454   5.775   4.574   4.671  0.4493  0.1926  0.3950
  185SOL    HW2 1455   5.817   4.718   4.609 -1.3579  0.3991 -0.4162
  186SOL     OW 1456   5.972   2.770   1.352  0.6012  0.0153 -0.5497
  186SOL    HW1 1457   5.980   2.700   1.423  2.7168 -0.3961 -1.1142
  186SOL    HW2 1458   6.055   2.771   1.296  1.2947  3.8560  0.2517
  187SOL     OW 1459   3.348   1.956   2.391  0.4480 -0.5856 -0.0601
  187SOL    HW1 1460   3.361   1.862   2.358 -1.2272  0.0773 -3.0053
  187SOL    HW2 1461   3.367   2.020   2.316  3.3564  1.6415  2.3513
  188SOL     OW 1462   5.621   2.213   1.319  0.3406 -0.7355 -0.2866
  188SOL    HW1 1463   5.594   2.118   1.307  0.3582 -0.5358 -2.2281
  188SOL    HW2 1464   5.541   2.272   1.307  0.3734 -0.4739  0.6786
  189SOL     OW 1465   4.014   6.009   3.981  0.3601 -0.1831  0.5713
  189SOL    HW1 1466   3.944   6.066   4.024  0.7483  0.9327 -0.2357
  189SOL    HW2 1467   3.978   5.973   3.894  0.6111 -0.0175  0.3989
  190SOL     OW 1468   1.702   2.049   3.277 -0.4313 -0.0199  0.1749
  190SOL    HW1 1469   1.796   2.076   3.297 -1.0377  1.2533  1.5078
  190SOL    HW2 1470   1.672   2.089   3.191  0.2668 -0.5465 -0.3266
  191SOL     OW 1471   6.767   6.869   2.704  0.0738  0.3036  0.7530
  191SOL    HW1 1472   6.703   6.856   2.779  0.9529  0.5113  1.5549
  191SOL    HW2 1473   6.741   6.950   2.651 -1.7263 -0.9569 -0.4323
  192SOL     OW 1474   0.457   1.279   5.727  0.0502  0.2043 -0.4146
  192SOL    HW1 1475   0.532   1.337   5.695 -0.3409  0.4020 -0.9982
  192SOL    HW2 1476   0.454   1.196   5.670 -1.3509  1.0713 -1.6666
  193SOL     OW 1477   0.693   5.818   6.786  0.0525  0.2118  0.3392
  193SOL    HW1 1478   0.615   5.850   6.731  1.0601  0.4404 -1.0000
  193SOL    HW2 1479   0.710   5.721   6.765  0.6955  0.4110 -0.0761
  194SOL     OW 1480   3.492   6.592   5.553  0.2190 -0.3219  0.3753
  194SOL    HW1 1481   3.578   6.621   5.511  0.7634 -1.3334  0.7547
  194SOL    HW2 1482   3.433   6.550   5.483 -0.1740  0.7563  0.0256
  195SOL     OW 1483   4.122   3.751   4.878 -0.3395  0.1608  0.1959
  195SOL    HW1 1484   4.100   3.769   4.782  0.8455  1.7271  0.1726
  195SOL    HW2 1485   4.046   3.781   4.935 -0.2606  1.0669 -0.1539
  196SOL     OW 1486   3.556   1.466   4.191 -0.2782 -0.6710 -0.0726
  196SOL    HW1 1487   3.555   1.376   4.234  1.9822  0.2472  2.1087
  196SOL    HW2 1488   3.638   1.516   4.219 -1.5681  2.1898 -1.0121
  197SOL     OW 1489   1.102   3.650   1.726 -0.3347  0.2901  0.1214
  197SOL    HW1 1490   1.129   3.733   1.677  0.4566 -0.4027 -0.6271
  197SOL    HW2 1491   1.007   3.628   1.704  0.4634 -0.8916 -2.3825
  198SOL     OW 1492   3.232   3.967   1.974 -0.0647 -0.3045  0.1683
  198SOL    HW1 1493   3.212   4.000   1.881  1.5212  2.3641  0.6557
  198SOL    HW2 1494   3.296   4.030   2.018 -1.5943 -0.8662  3.4838
  199SOL     OW 1495   1.800   0.191   3.741 -0.4329  0.3664 -0.0459
  199SOL    HW1 1496   1.836   0.224   3.829 -2.3889  0.9878  0.5853
  199SOL    HW2 1497   1.814   0.092   3.735  2.3389  0.6920 -0.3888
  200SOL     OW 1498   6.301   2.565   5.084  0.0992 -0.0739 -0.0384
  200SOL    HW1 1499   6.249   2.605   5.008  2.2168 -0.9592 -2.0731
  200SOL    HW2 1500   6.354   2.637   5.129 -0.6684  0.3482  0.2162
  201SOL     OW 1501   1.921   3.797   2.319  0.3989  0.1873 -0.8575
  201SOL    HW1 1502   1.907   3.801   2.220  0.3575  0.1874 -0.8518
  201SOL    HW2 1503   2.008   3.841   2.343 -0.4233  1.8030 -0.7137
  202SOL     OW 1504   2.799   1.729   0.010 -0.3168 -0.0950 -0.0900
  202SOL    HW1 1505   2.835   1.791   0.080 -1.5499  0.2036  0.2944
  202SOL    HW2 1506   2.872   1.666  -0.018  0.5790  0.6628  0.4646
  203SOL     OW 1507   0.672   1.037   4.865 -0.5706  0.2665 -0.4371
  203SOL    HW1 1508   0.657   0.944   4.898  0.4440  0.3071  0.1641
  203SOL    HW2 1509   0.600   1.097   4.902 -0.6571 -0.0877 -0.0260
  204SOL     OW 1510   4.025   1.507   5.684 -0.1827 -0.4107 -0.2071
  204SOL    HW1 1511   4.028   1.422   5.632 -0.2405  0.3972 -1.5897
  204SOL    HW2 1512   4.099   1.567   5.653 -0.1165  0.0252  0.7764
  205SOL     OW 1513   4.407   6.587   4.384 -0.0376 -0.2312 -0.1266
  205SOL    HW1 1514   4.371   6.602   4.476 -0.4665  1.1424 -0.4887
  205SOL    HW2 1515   4.345   6.628   4.317  0.9498 -0.0142 -0.9310
  206SOL     OW 1516   0.343   2.424   0.156  0.1723 -0.0365 -0.2577
  206SOL    HW1 1517   0.418   2.480   0.192  0.2670 -0.4386  0.1730
  206SOL    HW2 1518   0.352   2.330   0.188 -1.4230  0.2462  1.1602
  207SOL     OW 1519   4.210   2.514   1.718  0.1011 -0.0286 -0.2476
  207SOL    HW1 1520   4.219   2.460   1.801 -1.8693 -2.5551 -1.5132
  207SOL    HW2 1521   4.138   2.582   1.730  1.1542  0.9537  0.6859
  208SOL     OW 1522   6.974   4.293   6.695  0.1896 -0.3772  0.0192
  208SOL    HW1 1523   6.964   4.261   6.789 -2.0082  1.4517  0.5242
  208SOL    HW2 1524   6.890   4.272   6.645 -0.3203  2.1704 -0.3190
  209SOL     OW 1525   3.279   6.054   4.190 -0.1395  0.2954  0.6136
  209SOL    HW1 1526   3.272   6.037   4.289  1.1521  3.0297  1.2648
  209SOL    HW2 1527   3.187   6.055   4.150 -0.6572 -1.2195  1.6868
  210SOL     OW 1528   5.341   4.356   4.017 -0.4971  0.5054  0.1570
  210SOL    HW1 1529   5.329   4.303   3.933 -0.6930  0.1683  0.3942
  210SOL    HW2 1530   5.437   4.354   4.044 -0.6860 -0.8455  0.8733
  211SOL     OW 1531   1.110   5.855   5.169 -0.0428  0.9629 -0.3315
  211SOL    HW1 1532   1.130   5.953   5.157 -1.6937  1.7673  2.5079
  211SOL    HW2 1533   1.022   5.833   5.128 -0.7856  1.2733  1.0413
  212SOL     OW 1534   6.104   4.704   6.128 -0.6170 -0.8145  0.5003
  212SOL    HW1 1535   6.086   4.605   6.134  0.4974 -1.1194 -0.6496
  212SOL    HW2 1536   6.202   4.720   6.137 -0.4083 -0.1347 -2.0897
  213SOL     OW 1537   1.218   3.351   3.207  0.2069  0.8597  0.1470
  213SOL    HW1 1538   1.295   3.386   3.261  1.3831  0.1039 -0.9752
  213SOL    HW2 1539   1.181   3.269   3.252  0.3314  0.9810  0.4767
  214SOL     OW 1540   4.575   0.015   5.436  0.4219  0.3663 -0.1936
  214SOL    HW1 1541   4.569   0.017   5.337  1.5581 -1.3632 -0.3464
  214SOL    HW2 1542   4.665  -0.020   5.463  0.3939  1.4511  1.4607
  215SOL     OW 1543   3.065   4.928   4.057 -0.2313  0.2128 -0.1058
  215SOL    HW1 1544   3.104   5.015   4.089 -0.5369  0.3997 -0.2304
  215SOL    HW2 1545   3.069   4.925   3.957 -0.3717  0.1550 -0.1094
  216SOL     OW 1546   2.792   4.565   0.195  0.4948 -0.1353  0.3699
  216SOL    HW1 1547   2.830   4.658   0.202  1.9954 -0.5573 -1.2735
  216SOL    HW2 1548   2.697   4.565   0.226  0.5625  1.8770  0.7261
  217SOL     OW 1549   2.578   0.700   4.239  0.2584 -0.2774  0.1814
  217SOL    HW1 1550   2.656   0.722   4.297 -1.7471  0.3413  2.8669
  217SOL    HW2 1551   2.549   0.782   4.189 -0.8042  0.5385  2.0238
  218SOL     OW 1552   3.660   5.205   4.066 -0.1768 -0.1829  0.1496
  218SOL    HW1 1553   3.760   5.197   4.068 -0.0792  0.2758 -1.3033
  218SOL    HW2 1554   3.624   5.198   4.159  1.1172 -1.3594  0.6076
  219SOL     OW 1555   5.723   5.557   1.980  0.2912 -0.0528 -0.0831
  219SOL    HW1 1556   5.714   5.603   2.068 -0.3463  0.2190 -0.2895
  219SOL    HW2 1557   5.708   5.458   1.992  1.6833 -0.2400  0.3620
  220SOL     OW 1558   2.274   1.077   2.450 -0.5310  0.2648  0.4022
  220SOL    HW1 1559   2.185   1.048   2.416 -0.0783  0.6910 -1.2017
  220SOL    HW2 1560   2.262   1.154   2.513 -1.2358  0.9515 -0.5508
  221SOL     OW 1561   5.985   5.227   3.825 -0.1982 -0.6252  0.0777
  221SOL    HW1 1562   6.025   5.281   3.751  0.0206 -0.1899  0.5040
  221SOL    HW2 1563   5.978   5.284   3.908 -0.3102 -1.1434  0.4318
  222SOL     OW 1564   6.571   2.035   6.521 -0.1066 -0.0965 -0.4343
  222SOL    HW1 1565   6.528   1.970   6.584  0.1894  1.1438  1.1052
  222SOL    HW2 1566   6.664   2.055   6.553  0.2265  0.1939 -1.5585
  223SOL     OW 1567   5.851   1.231   0.506 -0.1984  0.1137  0.8264
  223SOL    HW1 1568   5.856   1.181   0.593  1.1767  0.0448  0.7395
  223SOL    HW2 1569   5.902   1.316   0.514  0.6478 -0.2791 -0.1500
  224SOL     OW 1570   3.663   3.082   2.060  0.0465 -0.3998 -0.1121
  224SOL    HW1 1571   3.607   3.140   2.120  0.4826 -0.7236  0.6215
  224SOL    HW2 1572   3.628   2.989   2.060  1.5187 -1.0222  1.6916
  225SOL     OW 1573   6.688   6.274   0.195 -0.2873 -0.0768  0.4055
  225SOL    HW1 1574   6.618   6.203   0.191 -0.0706 -0.2451 -2.5407
  225SOL    HW2 1575   6.766   6.242   0.249 -1.0145 -1.2816  0.7573
  226SOL     OW 1576   2.596   2.029   2.293 -0.5422  0.0048  0.2636
  226SOL    HW1 1577   2.590   2.129   2.288  1.3355  0.1307 -0.0101
  226SOL    HW2 1578   2.669   2.003   2.355 -0.2768 -1.1898 -0.5254
  227SOL     OW 1579   3.853   4.785   6.845 -0.1623  0.6889 -0.3602
  227SOL    HW1 1580   3.757   4.809   6.859 -0.4165  1.3555 -2.8057
  227SOL    HW2 1581   3.904   4.801   6.930 -1.7787  2.4767  0.3431
  228SOL     OW 1582   4.842   0.588   1.298 -0.0386 -0.4370 -0.1824
  228SOL    HW1 1583   4.935   0.590   1.336  0.1776 -0.9915 -0.6639
  228SOL    HW2 1584   4.776   0.574   1.372  0.1325  1.3960  0.3462
  229SOL     OW 1585   2.889   2.069   5.796  0.2194  0.2911 -0.9104
  229SOL    HW1 1586   2.973   2.120   5.774  0.4094  1.1800  1.6121
  229SOL    HW2 1587   2.912   1.973   5.815  0.7932  0.6495  0.3054
  230SOL     OW 1588   2.387   1.359   1.639  0.3956  0.6390 -0.1014
  230SOL    HW1 1589   2.414   1.315   1.724  1.0021 -0.9950 -1.1003
  230SOL    HW2 1590   2.297   1.324   1.610 -0.4885  2.2391  0.5482
  231SOL     OW 1591   5.627   2.077   5.882  0.0392  0.1558  0.5762
  231SOL    HW1 1592   5.718   2.091   5.842  0.0979  0.9106  0.9507
  231SOL    HW2 1593   5.630   2.103   5.979 -0.1927 -1.2721  0.9890
  232SOL     OW 1594   5.517   0.760   2.343  0.3384  0.2047 -0.5461
  232SOL    HW1 1595   5.607   0.716   2.347  0.6934  0.8607 -1.1414
  232SOL    HW2 1596   5.523   0.845   2.292 -1.2133 -1.1955 -3.3192
  233SOL     OW 1597   0.669   6.566   2.548  0.1959 -0.1582  0.0501
  233SOL    HW1 1598   0.608   6.488   2.562  0.4317  0.0984  3.2825
  233SOL    HW2 1599   0.620   6.650   2.569  1.0023  0.2368  0.3910
  234SOL     OW 1600   0.336   3.370   4.321  0.5839  0.3807  0.4776
  234SOL    HW1 1601   0.348   3.332   4.229  0.3529 -0.2301  0.6935
  234SOL    HW2 1602   0.402   3.328   4.383 -1.3987 -1.7807  1.3160
  235SOL     OW 1603   3.614   4.871   5.783 -0.3941 -0.1595  0.4516
  235SOL    HW1 1604   3.712   4.884   5.772  0.2936 -0.9805  4.1591
  235SOL    HW2 1605   3.585   4.791   5.732  0.5259  0.8353 -1.7423
  236SOL     OW 1606   6.781   6.125   6.649  0.2154  0.1031 -0.3501
  236SOL    HW1 1607   6.715   6.144   6.575 -0.0344 -0.2971 -0.2320
  236SOL    HW2 1608   6.802   6.028   6.650  1.7042  0.3824 -1.1324
  237SOL     OW 1609   0.261   6.861   6.861  0.1538  0.0994 -0.0754
  237SOL    HW1 1610   0.240   6.855   6.958 -0.2790  2.4598  0.0456
  237SOL    HW2 1611   0.181   6.893   6.811  0.1517 -1.7471 -1.3546
  238SOL     OW 1612   3.259   1.841   6.596  0.0716  0.0929  0.1484
  238SOL    HW1 1613   3.294   1.849   6.503 -0.7602 -0.4887 -0.2288
  238SOL    HW2 1614   3.332   1.861   6.662  1.2077 -1.4739 -0.5790
  239SOL     OW 1615   3.068   2.325   6.677 -0.1924 -0.1258 -0.6489
  239SOL    HW1 1616   3.047   2.415   6.639  0.8059  0.7915  0.8819
  239SOL    HW2 1617   3.167   2.313   6.681 -0.2982 -0.8016  0.2722
  240SOL     OW 1618   6.453   5.232   3.180 -0.4249  0.5292 -0.0945
  240SOL    HW1 1619   6.446   5.163   3.107 -2.5585 -0.0563  0.5964
  240SOL    HW2 1620   6.549   5.241   3.207 -0.1201 -2.9671  0.5119
  241SOL     OW 1621   3.369   4.953   4.124  0.1782  0.0632  0.2975
  241SOL    HW1 1622   3.320   4.876   4.164 -0.7572  0.3143 -0.3235
  241SOL    HW2 1623   3.464   4.954   4.157  0.0262 -0.9769  0.7899
  242SOL     OW 1624   2.865   2.873   5.709 -0.9765  0.2079 -0.3745
  242SOL    HW1 1625   2.946   2.832   5.749 -0.4281  1.4379 -0.1648
  242SOL    HW2 1626   2.784   2.843   5.759 -0.9288 -2.5211 -1.7312
  243SOL     OW 1627   1.048   6.714   0.573 -0.0737 -0.1827 -0.0634
  243SOL    HW1 1628   1.099   6.668   0.501 -1.1833 -0.3133 -0.8034
  243SOL    HW2 1629   1.110   6.745   0.645  1.2774  1.2855 -1.7724
  244SOL     OW 1630   3.766   3.703   1.968 -0.0437 -0.0486  0.6005
  244SOL    HW1 1631   3.697   3.654   1.915  1.9186 -1.6018 -0.6627
  244SOL    HW2 1632   3.745   3.695   2.066 -1.0375 -1.4410  0.3009
  245SOL     OW 1633   0.626   5.676   1.869 -0.3770 -0.1503 -0.1955
  245SOL    HW1 1634   0.588   5.604   1.811  0.1278 -1.1816  0.7243
  245SOL    HW2 1635   0.597   5.663   1.964 -0.4301  0.9688 -0.0382
  246SOL     OW 1636   5.604   3.108   4.325 -0.2648  0.3628 -0.5757
  246SOL    HW1 1637   5.611   3.061   4.237 -0.3975 -1.7889  0.4898
  246SOL    HW2 1638   5.514   3.152   4.332 -1.0139 -1.0658 -0.7915
  247SOL     OW 1639   1.081   2.583   0.176 -0.3214 -0.1012  0.1543
  247SOL    HW1 1640   1.037   2.514   0.233  0.4705  1.2298  2.5307
  247SOL    HW2 1641   1.166   2.547   0.138  0.0665 -0.4716  1.3393
  248SOL     OW 1642   3.902   3.267   4.406  0.2044 -0.6558 -0.2349
  248SOL    HW1 1643   3.919   3.173   4.375 -0.2539 -0.7043 -0.3551
  248SOL    HW2 1644   3.805   3.288   4.394  0.0391 -0.6215  1.0187
  249SOL     OW 1645   1.847   1.385   2.696  0.2223 -0.1740 -0.2464
  249SOL    HW1 1646   1.896   1.298   2.687  0.5975  0.2024 -2.3747
  249SOL    HW2 1647   1.892   1.455   2.640  1.5320  2.2180  3.4081
  250SOL     OW 1648   5.056   6.979   5.892  0.4966 -0.1936  0.3779
  250SOL    HW1 1649   5.045   6.898   5.834  2.1556 -0.5300  0.4712
  250SOL    HW2 1650   4.990   7.049   5.866 -0.6098 -1.3772 -0.0637
  251SOL     OW 1651   3.407   6.781   0.895 -0.2363  0.0111  0.0207
  251SOL    HW1 1652   3.432   6.709   0.960 -0.1625 -0.0782 -0.1090
  251SOL    HW2 1653   3.484   6.802   0.836 -0.9757 -1.4850 -1.5409
  252SOL     OW 1654   0.372   0.367   5.714  0.3296  0.0217  0.0578
  252SOL    HW1 1655   0.274   0.351   5.727  0.1432  1.0048 -0.0176
  252SOL    HW2 1656   0.391   0.465   5.723  1.2493 -0.1112 -0.3067
  253SOL     OW 1657   0.480   0.650   1.503  0.0853 -0.0373  0.0700
  253SOL    HW1 1658   0.518   0.670   1.594  1.9138  1.2442 -0.8996
  253SOL    HW2 1659   0.498   0.555   1.479 -0.9078 -0.5455  1.2394
  254SOL     OW 1660   3.844   4.859   4.381  0.2624 -0.4044 -0.1139
  254SOL    HW1 1661   3.795   4.887   4.464  0.8871  0.2643  0.0358
  254SOL    HW2 1662   3.930   4.813   4.407 -1.3876 -3.9381 -0.2835
  255SOL     OW 1663   1.922   3.346   5.811  0.5235  0.3256 -0.3603
  255SOL    HW1 1664   1.857   3.304   5.747  0.9001  0.1480 -0.6286
  255SOL    HW2 1665   2.012   3.306   5.798  1.3854  2.5513 -2.0130
  256SOL     OW 1666   5.558   1.648   2.966 -0.4484 -0.5150  0.4842
  256SOL    HW1 1667   5.521   1.569   2.918 -3.0613  0.9490 -0.1607
  256SOL    HW2 1668   5.625   1.695   2.909  0.1423 -1.5200  0.3433
  257SOL     OW 1669   6.127   0.345   6.339 -0.0690 -0.0443 -0.5653
  257SOL    HW1 1670   6.202   0.412   6.339 -0.5445  0.5154 -1.6665
  257SOL    HW2 1671   6.053   0.377   6.399  1.3458 -1.5856  2.2376
  258SOL     OW 1672   2.191   1.278   0.211 -0.2628 -0.0621  0.4896
  258SOL    HW1 1673   2.169   1.375   0.224 -1.0835 -0.1924  0.1762
  258SOL    HW2 1674   2.186   1.231   0.299  1.9961  0.5046  0.9844
  259SOL     OW 1675   2.170   3.456   6.954 -0.0769  0.0703  0.2112
  259SOL    HW1 1676   2.201   3.530   6.895 -0.1286 -1.4246 -1.8149
  259SOL    HW2 1677   2.072   3.465   6.971 -0.5171 -0.5706 -1.7338
  260SOL     OW 1678   0.969   3.711   5.193  0.2756 -0.8133  0.6386
  260SOL    HW1 1679   0.949   3.793   5.246 -2.0869 -0.9999  0.1255
  260SOL    HW2 1680   0.885   3.658   5.180  1.4713 -2.5806 -0.2817
  261SOL     OW 1681   1.186   3.586   4.311  0.3436  0.4034 -0.3693
  261SOL    HW1 1682   1.105   3.644   4.307  0.8548  1.0886 -0.9178
  261SOL    HW2 1683   1.187   3.524   4.233 -0.3675 -0.5935  0.3825
  262SOL     OW 1684   3.126   1.138   0.769  0.2186 -0.0036 -0.4223
  262SOL    HW1 1685   3.158   1.151   0.675  0.0318 -0.2339 -0.5164
  262SOL    HW2 1686   3.161   1.213   0.826 -0.5622  0.7370 -0.8963
  263SOL     OW 1687   1.910   4.898   3.899 -0.7789  0.0926 -0.0278
  263SOL    HW1 1688   1.861   4.845   3.829 -0.3003 -0.4688  0.0516
  263SOL    HW2 1689   2.000   4.923   3.864 -0.8318  0.4706  0.1069
  264SOL     OW 1690   6.713   3.556   4.874 -0.1815  0.1795 -0.9454
  264SOL    HW1 1691   6.704   3.456   4.869  1.2227  0.0419 -1.3515
  264SOL    HW2 1692   6.690   3.587   4.966  1.5824 -0.8314 -0.0922
  265SOL     OW 1693   6.049   0.112   5.415  0.0617  0.1529  0.2334
  265SOL    HW1 1694   5.977   0.077   5.475 -1.0867  3.4892  1.0050
  265SOL    HW2 1695   6.109   0.173   5.467  3.5181 -2.3696 -0.4155
  266SOL     OW 1696   3.986   4.748   0.646  0.5056 -0.0632 -0.0735
  266SOL    HW1 1697   3.920   4.674   0.634  2.6888 -1.8611 -2.0359
  266SOL    HW2 1698   4.003   4.792   0.558  1.6287  0.5989  0.4558
  267SOL     OW 1699   5.667   4.797   0.979 -0.3787 -0.2292 -0.0400
  267SOL    HW1 1700   5.599   4.871   0.981  1.0724  1.1486  0.9232
  267SOL    HW2 1701   5.713   4.797   0.890 -1.8195 -1.4088 -0.8392
  268SOL     OW 1702   4.854   1.601   2.887  0.6696  0.0550  0.1767
  268SOL    HW1 1703   4.938   1.654   2.879  0.7539 -0.1233 -0.1176
  268SOL    HW2 1704   4.859   1.521   2.827  1.4414 -1.4679  2.1487
  269SOL     OW 1705   0.638   4.622   3.525  0.4934  0.0415 -0.0252
  269SOL    HW1 1706   0.703   4.694   3.549  0.0857  0.4740 -0.2006
  269SOL    HW2 1707   0.553   4.634   3.576  0.6877 -0.7588  0.5103
  270SOL     OW 1708   2.434   4.114   1.716 -0.4122  0.1566  0.1662
  270SOL    HW1 1709   2.367   4.143   1.784 -1.7030 -1.9408 -0.1057
  270SOL    HW2 1710   2.420   4.166   1.631 -1.4503  0.0357  0.2464
  271SOL     OW 1711   2.513   5.277   2.895 -0.2469 -0.1467 -0.6133
  271SOL    HW1 1712   2.497   5.193   2.946  2.2152 -0.2880  0.0753
  271SOL    HW2 1713   2.556   5.345   2.954  0.1931  0.6666 -1.8144
  272SOL     OW 1714   0.223   0.779   0.073 -0.0114 -0.4139  0.8115
  272SOL    HW1 1715   0.125   0.793   0.088 -0.3128 -2.3067  0.8795
  272SOL    HW2 1716   0.271   0.866   0.080 -1.4767  0.3114  2.4158
  273SOL     OW 1717   0.239   6.622   5.529  0.0278  0.0627 -0.6874
  273SOL    HW1 1718   0.237   6.546   5.593 -0.9486  0.5495 -0.1055
  273SOL    HW2 1719   0.146   6.644   5.500 -0.2245  3.2324  1.8928
  274SOL     OW 1720   1.235   1.732   0.552 -0.1441 -0.1900 -0.0094
  274SOL    HW1 1721   1.212   1.785   0.471 -0.7189 -0.2490  0.1114
  274SOL    HW2 1722   1.320   1.766   0.592 -0.4197  0.5239 -0.0264
  275SOL     OW 1723   3.060   5.932   6.718  0.3980  0.0100 -0.2350
  275SOL    HW1 1724   3.016   5.846   6.695  1.2036 -0.9930  1.7540
  275SOL    HW2 1725   3.155   5.915   6.745  0.9601  1.6879 -0.9764
  276SOL     OW 1726   1.074   0.302   1.168  0.1657 -0.4503 -0.0514
  276SOL    HW1 1727   1.143   0.257   1.111  1.0077  1.4901 -0.6424
  276SOL    HW2 1728   0.988   0.308   1.118  0.3912 -0.3430 -0.4281
  277SOL     OW 1729   0.406   4.061   2.814  0.0492  0.2037  0.2848
  277SOL    HW1 1730   0.438   4.090   2.724  0.1651  1.3878  0.6954
  277SOL    HW2 1731   0.371   3.967   2.808 -0.1801  0.3520 -1.0416
  278SOL     OW 1732   0.302   6.846   1.432 -0.8038  0.0007 -0.1816
  278SOL    HW1 1733   0.399   6.828   1.442 -0.4886  0.9038 -1.3251
  278SOL    HW2 1734   0.262   6.864   1.522 -0.5159 -3.0070  0.6347
  279SOL     OW 1735   2.609   6.046   2.285 -0.1251 -0.0769  0.5932
  279SOL    HW1 1736   2.546   6.001   2.349 -1.0803  2.4256  1.5404
  279SOL    HW2 1737   2.694   6.069   2.333  0.4055 -0.9291  0.0828
  280SOL     OW 1738   3.379   0.848   1.997  0.3242  0.7656  0.3813
  280SOL    HW1 1739   3.328   0.871   1.914  0.3326  1.6556  0.6184
  280SOL    HW2 1740   3.330   0.776   2.046 -0.6982  1.5762  0.5777
  281SOL     OW 1741   4.086   3.784   2.115 -0.3647  0.5061 -0.6855
  281SOL    HW1 1742   4.180   3.804   2.145 -0.4947  0.2999 -0.1341
  281SOL    HW2 1743   4.088   3.749   2.022  0.2594 -1.0486 -0.1120
  282SOL     OW 1744   3.964   0.917   2.523 -0.1894  0.5459  0.5909
  282SOL    HW1 1745   3.953   0.992   2.459 -0.5150 -0.2785 -0.3441
  282SOL    HW2 1746   4.059   0.886   2.522 -0.8842 -1.9195 -2.3933
  283SOL     OW 1747   5.240   3.989   1.833 -0.1012 -0.2238  0.0926
  283SOL    HW1 1748   5.224   3.920   1.903 -1.2177  0.9807  1.0701
  283SOL    HW2 1749   5.168   3.984   1.763 -1.7958  1.5957  1.5713
  284SOL     OW 1750   0.479   0.317   0.189 -0.0368 -0.3575 -0.0486
  284SOL    HW1 1751   0.516   0.389   0.131 -2.7892  0.5678 -0.8218
  284SOL    HW2 1752   0.504   0.228   0.152 -0.2081  0.2202 -1.6027
  285SOL     OW 1753   2.972   2.442   6.007  0.5750  0.8396  0.3620
  285SOL    HW1 1754   2.973   2.539   6.029 -0.1525  0.7781  0.7000
  285SOL    HW2 1755   2.986   2.430   5.909  0.9197  1.2706  0.3561
  286SOL     OW 1756   2.744   3.092   5.280 -0.7760  0.3221  0.0750
  286SOL    HW1 1757   2.757   3.027   5.355 -1.1610 -1.0898 -1.0435
  286SOL    HW2 1758   2.654   3.078   5.239 -0.5483  1.0400 -0.6799
  287SOL     OW 1759   5.957   4.998   0.227  1.2215 -0.1386  0.1230
  287SOL    HW1 1760   6.044   4.956   0.255  2.0249  0.4430 -1.3723
  287SOL    HW2 1761   5.960   5.096   0.246  0.8328 -0.1365  0.1795
  288SOL     OW 1762   4.798   2.912   5.215  0.7237 -0.2343 -0.2284
  288SOL    HW1 1763   4.794   3.012   5.214  0.9944 -0.2150  0.4398
  288SOL    HW2 1764   4.892   2.882   5.194  0.7611 -0.3356  0.0793
  289SOL     OW 1765   2.372   4.538   0.630 -0.0923 -0.2209 -0.1353
  289SOL    HW1 1766   2.318   4.607   0.580  0.3335  0.2222  0.0123
  289SOL    HW2 1767   2.339   4.532   0.724 -1.1134 -1.2903 -0.5340
  290SOL     OW 1768   1.191   4.414   5.883  0.5887  0.1482 -0.5567
  290SOL    HW1 1769   1.279   4.421   5.836  1.0035 -0.1280  0.1580
  290SOL    HW2 1770   1.171   4.500   5.930  0.4351  0.2413 -0.7930
  291SOL     OW 1771   0.367   0.627   0.506 -0.1043  0.1240 -0.2632
  291SOL    HW1 1772   0.330   0.625   0.414 -0.0698  0.2733 -0.2822
  291SOL    HW2 1773   0.369   0.535   0.544  0.0620  0.0345 -0.4839
  292SOL     OW 1774   0.651   6.296   3.575  0.1503  0.3228 -0.0991
  292SOL    HW1 1775   0.576   6.240   3.610  0.6138  0.6621  1.5519
  292SOL    HW2 1776   0.614   6.382   3.539 -0.3466  0.0303 -0.2970
  293SOL     OW 1777   2.441   2.601   5.564 -0.2987 -0.2227 -0.1294
  293SOL    HW1 1778   2.398   2.564   5.481  0.1617 -1.1695  0.0450
  293SOL    HW2 1779   2.410   2.549   5.643 -0.4219  0.4216  0.2561
  294SOL     OW 1780   2.961   5.400   0.728  0.3051 -0.1128 -0.3369
  294SOL    HW1 1781   3.022   5.342   0.782 -1.0084 -2.3307 -1.1281
  294SOL    HW2 1782   2.921   5.470   0.788  0.4237 -1.2476  1.1290
  295SOL     OW 1783   3.106   2.927   0.230  0.5609  0.6172  0.5308
  295SOL    HW1 1784   3.080   3.012   0.187  0.1971  1.5165  2.4252
  295SOL    HW2 1785   3.124   2.943   0.327  1.2296 -1.3202  0.7713
  296SOL     OW 1786   3.419   0.350   5.369 -0.4832  0.0078 -0.3616
  296SOL    HW1 1787   3.327   0.352   5.331 -0.2108 -0.8267 -1.0798
  296SOL    HW2 1788   3.485   0.327   5.297 -0.0617 -2.5591  0.7649
  297SOL     OW 1789   3.438   1.646   2.266 -0.3708 -0.4696 -0.2219
  297SOL    HW1 1790   3.518   1.661   2.208  0.0306 -1.3439  0.0875
  297SOL    HW2 1791   3.462   1.585   2.341 -1.2768 -0.5812 -0.0099
  298SOL     OW 1792   1.738   4.760   5.369 -0.0765  0.1612 -0.6068
  298SOL    HW1 1793   1.728   4.675   5.422  1.5150  0.1622 -0.2759
  298SOL    HW2 1794   1.676   4.756   5.290 -0.1343 -1.2524 -0.5291
  299SOL     OW 1795   5.991   5.938   1.954  0.5394  0.1610  0.0401
  299SOL    HW1 1796   5.991   5.862   2.020 -1.5334 -0.0973 -0.2089
  299SOL    HW2 1797   5.967   6.023   2.001  1.0916  0.3588 -0.0240
  300SOL     OW 1798   0.954   0.820   1.112 -0.0618  0.5963  0.4757
  300SOL    HW1 1799   0.891   0.864   1.176 -0.2154 -1.5586  1.8858
  300SOL    HW2 1800   1.012   0.755   1.160  1.7799  0.9377 -1.1610
  301SOL     OW 1801   0.128   1.450   4.694  0.4571  0.3426 -0.1853
  301SOL    HW1 1802   0.166   1.543   4.693  0.0020  0.5270 -0.2615
  301SOL    HW2 1803   0.029   1.454   4.684  0.4363 -0.1542 -0.1951
  302SOL     OW 1804   4.531   3.504   0.609  0.5121 -0.4804 -0.0254
  302SOL    HW1 1805   4.590   3.566   0.558 -2.3698  1.0821 -1.7091
  302SOL    HW2 1806   4.503   3.428   0.549  1.3680 -1.6582  1.0081
  303SOL     OW 1807   6.134   6.488   0.480  0.4204 -0.6375 -0.2076
  303SOL    HW1 1808   6.096   6.445   0.398  2.3680  1.3970 -2.3626
  303SOL    HW2 1809   6.234   6.485   0.476  0.6079  1.8165  0.7240
  304SOL     OW 1810   2.329   2.153   5.516 -0.0547  1.0046  0.7795
  304SOL    HW1 1811   2.283   2.065   5.501  0.6386  0.5015  1.5362
  304SOL    HW2 1812   2.395   2.169   5.443  0.5721  0.3852  1.2015
  305SOL     OW 1813   2.445   2.322   3.837  0.0182 -0.1448 -0.0050
  305SOL    HW1 1814   2.445   2.381   3.757  1.0892  2.0711  1.5180
  305SOL    HW2 1815   2.435   2.226   3.809 -2.0802  0.7096 -2.5635
  306SOL     OW 1816   6.787   0.758   5.641  0.2185  0.3927 -0.0176
  306SOL    HW1 1817   6.764   0.682   5.702  0.8508 -0.3175 -0.6360
  306SOL    HW2 1818   6.817   0.721   5.553  3.5416  1.1718  0.6339
  307SOL     OW 1819   4.927   0.417   2.157  0.2996 -0.7897 -0.2287
  307SOL    HW1 1820   4.870   0.486   2.114  1.1218  0.3803  0.5050
  307SOL    HW2 1821   4.953   0.349   2.088 -1.7865 -1.2637 -0.6084
  308SOL     OW 1822   5.314   2.283   5.063 -0.4997 -0.3369 -0.0178
  308SOL    HW1 1823   5.390   2.272   4.999 -0.1180  0.6084  0.2572
  308SOL    HW2 1824   5.337   2.352   5.131 -1.4556 -0.3138  0.3053
  309SOL     OW 1825   1.865   6.957   4.069  0.3206  0.3978  0.0035
  309SOL    HW1 1826   1.845   7.039   4.015  0.9064  0.6994  0.2472
  309SOL    HW2 1827   1.963   6.951   4.087  0.3437 -0.5901 -0.3853
  310SOL     OW 1828   0.082   1.203   3.812  0.4909  0.0679  0.9923
  310SOL    HW1 1829   0.103   1.217   3.909 -1.1859 -0.5729  1.4847
  310SOL    HW2 1830   0.023   1.277   3.780 -1.3184 -1.1725  1.2863
  311SOL     OW 1831   4.867   7.015   3.689  0.6992  0.2934 -0.2742
  311SOL    HW1 1832   4.883   6.925   3.729 -2.9044  0.0473  0.9378
  311SOL    HW2 1833   4.811   7.070   3.751  0.1439  2.2145 -2.3442
  312SOL     OW 1834   6.890   2.526   2.237 -0.5284  0.1035 -0.1034
  312SOL    HW1 1835   6.828   2.508   2.161 -0.5802 -0.5327  0.0837
  312SOL    HW2 1836   6.967   2.462   2.234 -0.2516  0.4213  0.0780
  313SOL     OW 1837   1.571   2.021   0.661 -0.1366  0.2432  0.1230
  313SOL    HW1 1838   1.589   2.097   0.723  1.3661 -0.5733  0.7595
  313SOL    HW2 1839   1.635   2.025   0.584 -0.7631  0.2144 -0.4099
  314SOL     OW 1840   0.803   3.250   5.337 -0.7018 -0.3907 -0.0772
  314SOL    HW1 1841   0.756   3.165   5.314 -1.1197 -0.2230  0.1559
  314SOL    HW2 1842   0.901   3.239   5.319 -1.0038 -0.2317 -2.0969
  315SOL     OW 1843   5.291   4.302   5.576 -0.1682 -0.1911  0.3011
  315SOL    HW1 1844   5.289   4.290   5.675  1.8517 -0.7007  0.3165
  315SOL    HW2 1845   5.274   4.398   5.553  2.0362  0.4952  1.3369
  316SOL     OW 1846   2.875   6.424   4.755  0.3216 -0.2672  0.0528
  316SOL    HW1 1847   2.849   6.397   4.848  0.5317 -0.2236  0.1255
  316SOL    HW2 1848   2.959   6.478   4.759  0.6538 -0.7634 -0.2150
  317SOL     OW 1849   4.990   6.901   0.539 -0.4043  0.8396  0.7256
  317SOL    HW1 1850   4.934   6.943   0.468 -1.4760  1.4379  1.8787
  317SOL    HW2 1851   4.939   6.824   0.579 -0.1914  1.0647  1.4369
  318SOL     OW 1852   5.892   4.298   2.845  0.4255 -0.4757  0.0790
  318SOL    HW1 1853   5.989   4.293   2.867  0.3841  0.2566  0.4904
  318SOL    HW2 1854   5.838   4.291   2.930  0.0994 -1.3381 -0.1954
  319SOL     OW 1855   0.460   1.978   1.233 -0.2028 -0.1042  0.7473
  319SOL    HW1 1856   0.502   1.911   1.294  0.7179  0.2432  0.5218
  319SOL    HW2 1857   0.525   2.053   1.217 -0.5424 -0.0399 -0.4095
  320SOL     OW 1858   1.529   6.539   5.630  0.0985 -0.1480  0.4356
  320SOL    HW1 1859   1.615   6.534   5.579 -1.1931  0.6188 -1.9777
  320SOL    HW2 1860   1.486   6.629   5.615 -1.1912 -0.5577  1.4532
  321SOL     OW 1861   3.781   6.052   0.742 -0.6885  0.4323 -0.3407
  321SOL    HW1 1862   3.728   6.054   0.657 -2.3628 -1.5908  0.5995
  321SOL    HW2 1863   3.855   5.986   0.733 -0.6969  0.4183 -0.3049
  322SOL     OW 1864   4.737   1.560   0.917 -0.0361  1.0213 -0.1411
  322SOL    HW1 1865   4.646   1.601   0.910 -0.5747 -0.1835 -0.3773
  322SOL    HW2 1866   4.736   1.468   0.877  0.6753  0.0473  1.9315
  323SOL     OW 1867   5.011   6.264   5.807 -0.0398  0.4695  0.2902
  323SOL    HW1 1868   4.987   6.353   5.767  0.0805 -0.2557 -1.5207
  323SOL    HW2 1869   5.058   6.209   5.738 -1.7126 -1.6658  0.7395
  324SOL     OW 1870   5.660   0.836   2.711 -0.1508  0.6214  0.5109
  324SOL    HW1 1871   5.655   0.919   2.655  0.4648 -0.2996 -0.9623
  324SOL    HW2 1872   5.602   0.765   2.672  0.4611 -0.1149  0.9017
  325SOL     OW 1873   3.149   2.242   6.093 -0.2845  0.2981  0.2481
  325SOL    HW1 1874   3.154   2.210   5.998 -0.8555 -0.7744  0.5589
  325SOL    HW2 1875   3.094   2.325   6.097 -0.8584 -0.0454 -0.2762
  326SOL     OW 1876   3.757   5.606   4.819 -0.3331 -0.0255 -0.6222
  326SOL    HW1 1877   3.763   5.568   4.727 -2.4037  0.6866 -1.1015
  326SOL    HW2 1878   3.833   5.670   4.833 -0.7116  0.8639 -2.3445
  327SOL     OW 1879   4.808   4.068   1.715 -0.6849  0.1516  0.3141
  327SOL    HW1 1880   4.716   4.086   1.681 -0.1495  0.1897 -1.1950
  327SOL    HW2 1881   4.806   4.063   1.814 -2.4819 -0.8371  0.2720
  328SOL     OW 1882   2.519   5.755   6.923  0.3010 -0.2141  0.0037
  328SOL    HW1 1883   2.619   5.758   6.919  0.3657  1.1438  1.7316
  328SOL    HW2 1884   2.481   5.801   6.843  1.0697  0.5327  0.0582
  329SOL     OW 1885   3.382   1.886   0.683 -0.0293  0.0120 -0.5756
  329SOL    HW1 1886   3.434   1.801   0.692 -1.0631 -0.9929 -3.1352
  329SOL    HW2 1887   3.333   1.886   0.596 -2.0823  2.1547  0.4727
  330SOL     OW 1888   3.370   0.997   4.896 -0.2544 -0.2711 -0.2564
  330SOL    HW1 1889   3.461   0.995   4.937 -0.1277  0.6140 -0.4684
  330SOL    HW2 1890   3.329   1.087   4.911 -1.8669 -1.2096  1.4605
  331SOL     OW 1891   7.002   2.268   1.275  0.1854  0.5218  0.0650
  331SOL    HW1 1892   6.963   2.360   1.267  0.4979  0.6256 -0.2633
  331SOL    HW2 1893   6.968   2.211   1.200 -1.4084 -0.1517  1.2263
  332SOL     OW 1894   6.250   0.877   2.273 -0.6349 -0.5517  0.1708
  332SOL    HW1 1895   6.292   0.938   2.340 -0.6471  0.5895 -0.8295
  332SOL    HW2 1896   6.321   0.820   2.231 -0.2326  0.5070 -0.6287
  333SOL     OW 1897   3.817   4.863   3.881 -0.5423 -0.0418  0.3495
  333SOL    HW1 1898   3.738   4.924   3.875 -0.5238 -0.0782 -0.3758
  333SOL    HW2 1899   3.847   4.856   3.976 -1.6843 -0.3699  0.7101
  334SOL     OW 1900   6.090   4.554   2.943  0.8300 -0.2643 -0.1128
  334SOL    HW1 1901   6.166   4.565   3.008  1.8456  2.2034 -1.5494
  334SOL    HW2 1902   6.009   4.523   2.991  1.7895  0.5373  2.1688
  335SOL     OW 1903   5.216   4.017   0.493  0.3256  0.2973  0.1401
  335SOL    HW1 1904   5.273   3.935   0.500 -0.6188 -0.3298  0.7060
  335SOL    HW2 1905   5.134   3.997   0.439  1.4477  1.6777 -2.1947
  336SOL     OW 1906   1.663   3.090   1.532  0.2683 -0.2630  0.1606
  336SOL    HW1 1907   1.628   3.179   1.503 -0.4436 -0.0949  1.4453
  336SOL    HW2 1908   1.596   3.047   1.592  1.3789 -0.8936  0.9700
  337SOL     OW 1909   1.824   3.048   2.597 -0.9293 -0.7622 -0.2648
  337SOL    HW1 1910   1.856   3.121   2.538 -0.3979 -0.2511  0.6239
  337SOL    HW2 1911   1.903   2.994   2.628 -1.3685 -2.0944 -1.3806
  338SOL     OW 1912   0.416   4.388   2.556  0.4522 -0.5385  0.4008
  338SOL    HW1 1913   0.453   4.305   2.597  2.0136  0.6296  1.4761
  338SOL    HW2 1914   0.435   4.390   2.458  1.3115 -0.9672  0.5587
  339SOL     OW 1915   5.140   2.976   4.448  0.4539  0.1391  0.1864
  339SOL    HW1 1916   5.211   3.038   4.416 -0.0511  0.7312  0.2049
  339SOL    HW2 1917   5.051   3.020   4.441 -0.1784 -1.3477 -1.8307
  340SOL     OW 1918   0.045   6.159   4.390 -0.1339 -0.2392  0.0128
  340SOL    HW1 1919  -0.050   6.132   4.378 -0.5614  0.8284  0.9206
  340SOL    HW2 1920   0.062   6.244   4.341 -0.1747  0.6099  1.4181
  341SOL     OW 1921   5.923   2.833   4.509 -0.4976  0.6929 -0.0597
  341SOL    HW1 1922   5.824   2.825   4.508 -0.4882  0.4413  0.5697
  341SOL    HW2 1923   5.954   2.877   4.424 -1.1398  0.7593 -0.2641
  342SOL     OW 1924   2.648   6.333   4.982 -0.1251  0.2022 -0.0347
  342SOL    HW1 1925   2.567   6.368   5.030  0.3500  1.4614 -0.1052
  342SOL    HW2 1926   2.621   6.288   4.897 -0.9122 -1.3225  0.9803
  343SOL     OW 1927   1.734   5.251   0.873 -0.9727  0.5973  0.3733
  343SOL    HW1 1928   1.642   5.259   0.836  0.3207 -0.4313 -3.6220
  343SOL    HW2 1929   1.754   5.155   0.892 -0.3299  0.6156 -0.1432
  344SOL     OW 1930   2.456   5.870   6.449 -0.0623  0.3516  0.1059
  344SOL    HW1 1931   2.493   5.955   6.486 -0.3787  0.5934 -0.1272
  344SOL    HW2 1932   2.505   5.846   6.365 -1.4007  1.4862 -1.0641
  345SOL     OW 1933   4.031   5.214   6.814  0.2731  0.1471 -0.1539
  345SOL    HW1 1934   4.114   5.190   6.763 -0.6514  1.9999 -2.7658
  345SOL    HW2 1935   3.968   5.137   6.814  0.9330 -0.4005 -0.5071
  346SOL     OW 1936   3.394   4.577   6.355 -0.2386  0.0061  0.0366
  346SOL    HW1 1937   3.332   4.502   6.374  0.2256 -0.1276  1.0558
  346SOL    HW2 1938   3.357   4.632   6.280 -1.8897  0.2796  1.0015
  347SOL     OW 1939   5.640   1.873   4.977  0.5278  0.3571  0.1576
  347SOL    HW1 1940   5.615   1.949   4.917 -2.2054 -0.6912 -0.1842
  347SOL    HW2 1941   5.591   1.791   4.948  1.1323 -0.8183  2.3004
  348SOL     OW 1942   0.668   4.857   5.286 -0.4490  0.3618  0.2382
  348SOL    HW1 1943   0.696   4.948   5.254  0.2954 -0.3975 -1.4454
  348SOL    HW2 1944   0.595   4.822   5.227  0.8252 -1.0156 -0.6069
  349SOL     OW 1945   4.000   3.126   2.641  0.4172 -0.4904 -0.4766
  349SOL    HW1 1946   4.007   3.028   2.622  4.7141 -0.3860 -0.3412
  349SOL    HW2 1947   4.027   3.179   2.561 -0.6794  0.6041 -0.1685
  350SOL     OW 1948   5.670   5.595   5.186 -0.0085  0.3040 -0.4840
  350SOL    HW1 1949   5.602   5.646   5.239 -1.6295  0.2875 -2.4491
  350SOL    HW2 1950   5.725   5.660   5.133  3.2520  0.5565  2.7946
  351SOL     OW 1951   2.599   0.293   2.344  0.5318  0.4015  0.1271
  351SOL    HW1 1952   2.521   0.305   2.283 -1.5891 -2.3101  2.0320
  351SOL    HW2 1953   2.622   0.381   2.387 -0.4052  1.5612 -1.6290
  352SOL     OW 1954   1.873   5.994   1.542  0.1704 -0.3765  0.5712
  352SOL    HW1 1955   1.971   5.987   1.561  0.3178 -0.0263 -0.0141
  352SOL    HW2 1956   1.822   5.932   1.601  0.6231  0.4484  1.8610
  353SOL     OW 1957   1.010   4.388   6.679 -0.5545 -0.4734 -0.6483
  353SOL    HW1 1958   1.006   4.411   6.582 -0.4935 -1.3720 -0.8737
  353SOL    HW2 1959   1.093   4.336   6.698  1.3356  2.7086  0.5840
  354SOL     OW 1960   2.819   0.292   3.346 -0.4159  0.0549  0.1104
  354SOL    HW1 1961   2.869   0.302   3.259  0.8943 -1.4403  0.6295
  354SOL    HW2 1962   2.724   0.317   3.333  0.1158  1.5026 -1.3343
  355SOL     OW 1963   6.317   6.321   6.606 -0.2473  0.6348  0.4219
  355SOL    HW1 1964   6.274   6.236   6.576 -2.3134  0.1000  4.2353
  355SOL    HW2 1965   6.271   6.398   6.563  0.4947 -0.0325 -1.7311
  356SOL     OW 1966   6.830   5.601   1.807 -0.0254 -0.2958 -0.2984
  356SOL    HW1 1967   6.846   5.505   1.831 -0.2775 -0.0367  0.9825
  356SOL    HW2 1968   6.747   5.607   1.751  0.0292 -0.8258 -0.4457
  357SOL     OW 1969   4.500   5.637   6.958 -0.5437  0.1146 -0.0479
  357SOL    HW1 1970   4.560   5.573   6.909  0.3128  0.3363  0.6737
  357SOL    HW2 1971   4.413   5.592   6.978 -0.1047 -0.7011  0.0913
  358SOL     OW 1972   1.017   2.490   1.888  0.0232 -0.4644  0.7823
  358SOL    HW1 1973   0.952   2.515   1.959 -0.1944  1.2656  0.0326
  358SOL    HW2 1974   0.969   2.476   1.802  0.5869  0.7650  0.2364
  359SOL     OW 1975   1.094   5.601   3.003 -0.0204  0.6433 -0.4408
  359SOL    HW1 1976   1.069   5.520   3.057  0.7930  0.0920 -0.8771
  359SOL    HW2 1977   1.193   5.608   2.998 -0.0723  2.0600  0.1538
  360SOL     OW 1978   0.421   5.935   5.770 -0.1294 -0.4341 -0.5457
  360SOL    HW1 1979   0.338   5.967   5.815  0.2905  0.4968 -0.4225
  360SOL    HW2 1980   0.461   5.860   5.824 -0.5255 -0.4420 -0.2601
  361SOL     OW 1981   0.686   6.043   5.716 -0.3807  0.4074  0.2195
  361SOL    HW1 1982   0.725   5.976   5.779 -1.9866  1.1208  2.0562
  361SOL    HW2 1983   0.590   6.059   5.738 -1.4239 -0.1862 -3.2131
  362SOL     OW 1984   0.218   0.676   1.559  0.3070  0.0063 -0.2809
  362SOL    HW1 1985   0.168   0.759   1.538  0.8658  0.9794  1.8735
  362SOL    HW2 1986   0.316   0.691   1.545  0.3287 -0.6853 -0.9651
  363SOL     OW 1987   1.472   1.495   2.298  0.3870 -0.5920  0.1103
  363SOL    HW1 1988   1.524   1.414   2.324  0.9061 -0.1383  0.5322
  363SOL    HW2 1989   1.532   1.558   2.248  0.0211 -0.4269 -0.1171
  364SOL     OW 1990   5.492   4.044   0.876 -0.4549  1.2170  0.2881
  364SOL    HW1 1991   5.591   4.041   0.863 -0.5166  1.7831 -0.3693
  364SOL    HW2 1992   5.461   4.139   0.874 -1.0067  1.0476  0.5422
  365SOL     OW 1993   0.747   4.037   2.490  0.1583 -0.1566 -0.0453
  365SOL    HW1 1994   0.821   4.083   2.539  1.1220 -1.8254  0.1343
  365SOL    HW2 1995   0.785   3.989   2.411 -0.2164 -3.3096  1.5542
  366SOL     OW 1996   1.531   0.764   5.598 -0.2251 -0.2281  0.1356
  366SOL    HW1 1997   1.469   0.702   5.550 -0.0461  0.4666 -1.0204
  366SOL    HW2 1998   1.626   0.741   5.574 -0.1446  0.2780 -0.0415
  367SOL     OW 1999   0.385   5.167   6.307  0.8221 -0.3263  0.3582
  367SOL    HW1 2000   0.321   5.138   6.378 -0.7978  0.8426 -0.5702
  367SOL    HW2 2001   0.394   5.095   6.238  0.2381 -0.3685  0.3227
  368SOL     OW 2002   5.452   5.561   2.728  0.0053 -0.6890  0.3296
  368SOL    HW1 2003   5.427   5.506   2.807 -0.4719  0.8821  1.3255
  368SOL    HW2 2004   5.435   5.509   2.644 -1.7544 -1.5653  1.1660
  369SOL     OW 2005   2.309   2.714   2.793  0.5238  0.0504  0.6706
  369SOL    HW1 2006   2.356   2.629   2.817 -1.3563 -1.2995 -0.1333
  369SOL    HW2 2007   2.297   2.770   2.875  1.0644 -0.8610  1.3886
  370SOL     OW 2008   4.488   0.509   4.692  0.2223  0.2355 -0.2830
  370SOL    HW1 2009   4.495   0.467   4.602  1.8607  0.8439 -0.4799
  370SOL    HW2 2010   4.519   0.604   4.686 -0.5587  0.5677  0.7399
  371SOL     OW 2011   5.085   0.709   2.403  0.9013 -0.3296  0.0330
  371SOL    HW1 2012   5.163   0.652   2.376 -0.0487 -0.7725 -1.9111
  371SOL    HW2 2013   5.055   0.764   2.325 -1.3903 -0.9539  0.4151
  372SOL     OW 2014   3.180   1.423   3.391  0.2915 -0.0984  0.8227
  372SOL    HW1 2015   3.083   1.420   3.370  0.2490 -1.0633  1.1091
  372SOL    HW2 2016   3.222   1.503   3.346 -0.5424  0.0862  0.3580
  373SOL     OW 2017   0.628   0.702   6.364  0.2953 -0.2070 -0.2023
  373SOL    HW1 2018   0.606   0.612   6.325  0.1607  0.0926 -0.8274
  373SOL    HW2 2019   0.727   0.712   6.371  0.3081 -0.4424 -0.0440
  374SOL     OW 2020   3.563   3.839   4.903  0.2201  0.3034 -0.4434
  374SOL    HW1 2021   3.611   3.856   4.989  0.7201 -0.5913 -0.5380
  374SOL    HW2 2022   3.624   3.856   4.826 -0.2343  1.1239 -0.6290
  375SOL     OW 2023   1.269   4.847   1.968 -0.1332 -0.6849  0.2326
  375SOL    HW1 2024   1.353   4.828   1.918  0.6530 -0.4261  1.4131
  375SOL    HW2 2025   1.224   4.761   1.993 -0.9136 -0.8185 -1.4742
  376SOL     OW 2026   0.813   5.855   4.264  0.2751  0.2979  0.5715
  376SOL    HW1 2027   0.844   5.843   4.170  1.2682 -1.0801  1.0471
  376SOL    HW2 2028   0.742   5.787   4.284 -1.6271  2.0614  0.1511
  377SOL     OW 2029   0.529   5.487   1.707  0.2772 -0.0477 -0.4260
  377SOL    HW1 2030   0.455   5.420   1.713 -1.0461  1.2277 -1.5368
  377SOL    HW2 2031   0.608   5.446   1.663 -0.5397 -0.8641 -1.1676
  378SOL     OW 2032   1.649   5.477   4.491  0.1727  0.4294 -0.8212
  378SOL    HW1 2033   1.567   5.422   4.479 -0.6143  1.4861 -0.4649
  378SOL    HW2 2034   1.719   5.448   4.426 -0.1650 -1.0582 -0.5499
  379SOL     OW 2035   4.826   6.100   5.083  0.2651  0.5022  0.1708
  379SOL    HW1 2036   4.912   6.108   5.133  0.5006  1.5283 -0.3740
  379SOL    HW2 2037   4.758   6.161   5.123 -0.0248  0.1579  0.2091
  380SOL     OW 2038   2.960   2.442   5.742  0.4156  0.6471 -0.0050
  380SOL    HW1 2039   3.026   2.422   5.670  0.0710  1.5384 -0.5916
  380SOL    HW2 2040   2.867   2.431   5.706  0.2356  0.4268  0.5114
  381SOL     OW 2041   4.399   1.152   0.605  0.0354  0.4823 -0.1499
  381SOL    HW1 2042   4.381   1.235   0.658 -0.7738  0.0602  0.2616
  381SOL    HW2 2043   4.408   1.175   0.508  0.7687  1.1657  0.0749
  382SOL     OW 2044   4.315   1.998   1.095 -0.3718  0.1128  0.0604
  382SOL    HW1 2045   4.338   2.070   1.030 -0.4409 -0.7057 -0.8860
  382SOL    HW2 2046   4.389   1.931   1.099 -1.0737 -0.7000 -0.4054
  383SOL     OW 2047   4.308   5.345   4.118 -0.5434  0.1412  0.6438
  383SOL    HW1 2048   4.367   5.378   4.045  1.2366 -0.6639  1.6691
  383SOL    HW2 2049   4.226   5.303   4.078  0.4323 -0.3643 -0.8864
  384SOL     OW 2050   0.570   4.392   3.841 -0.1930 -0.6051 -0.1521
  384SOL    HW1 2051   0.575   4.293   3.854 -0.4960 -0.8607 -1.7391
  384SOL    HW2 2052   0.585   4.414   3.744 -0.0746  0.9104  0.1818
  385SOL     OW 2053   5.529   6.226   1.178 -0.2256  0.2440 -0.0171
  385SOL    HW1 2054   5.490   6.135   1.170 -0.4765  0.2916  0.6045
  385SOL    HW2 2055   5.555   6.260   1.088  2.0843 -1.4099 -0.0670
  386SOL     OW 2056   2.042   6.098   1.840  0.4241 -0.4719  0.1150
  386SOL    HW1 2057   1.991   6.089   1.926  1.2387 -0.2361  0.6363
  386SOL    HW2 2058   1.996   6.163   1.780  0.5487  0.3754  0.9184
  387SOL     OW 2059   3.478   5.380   2.442 -1.3429 -0.2297 -0.0078
  387SOL    HW1 2060   3.464   5.423   2.532 -1.3338  1.3812 -0.7508
  387SOL    HW2 2061   3.404   5.407   2.380 -0.0633  0.7010 -1.1922
  388SOL     OW 2062   4.756   5.792   5.028  0.0170 -0.4485  0.4517
  388SOL    HW1 2063   4.780   5.890   5.030 -1.7650  0.1269 -1.8886
  388SOL    HW2 2064   4.697   5.771   5.105 -2.1788  1.1577 -0.6734
  389SOL     OW 2065   5.765   4.634   3.418 -0.0673  0.0269  0.1888
  389SOL    HW1 2066   5.854   4.616   3.461  0.0069 -1.1778 -0.4137
  389SOL    HW2 2067   5.762   4.728   3.386  1.2772 -0.0924 -0.3979
  390SOL     OW 2068   3.539   0.072   2.942 -0.0372  0.1323  0.3020
  390SOL    HW1 2069   3.629   0.092   2.902 -0.4811  1.0731 -0.2514
  390SOL    HW2 2070   3.538  -0.022   2.974  0.4540 -0.5710 -1.6134
  391SOL     OW 2071   6.154   2.287   5.379 -0.1531  0.0596  0.0469
  391SOL    HW1 2072   6.203   2.298   5.292  0.6541  0.2904  0.5234
  391SOL    HW2 2073   6.160   2.372   5.431  0.6456 -0.5495  0.9779
  392SOL     OW 2074   1.998   4.352   0.197  0.2600  0.1726  0.5492
  392SOL    HW1 2075   2.009   4.297   0.280  1.2769 -2.6049 -1.3066
  392SOL    HW2 2076   2.088   4.381   0.164  0.0650 -0.4894 -0.6369
  393SOL     OW 2077   0.320   4.318   0.535 -0.3223 -0.5121  0.0817
  393SOL    HW1 2078   0.301   4.416   0.535 -1.0007 -0.6151 -0.9879
  393SOL    HW2 2079   0.402   4.299   0.589  1.2057  0.9335 -1.5813
  394SOL     OW 2080   0.721   0.939   1.700 -0.0030 -0.0647  0.3477
  394SOL    HW1 2081   0.803   0.883   1.687 -1.2510 -2.2994  1.5944
  394SOL    HW2 2082   0.641   0.880   1.701 -1.4290  1.8147  1.4800
  395SOL     OW 2083   2.219   1.209   6.169  0.0391  0.0857  0.9976
  395SOL    HW1 2084   2.171   1.199   6.082  0.6042  3.3777  0.1866
  395SOL    HW2 2085   2.316   1.192   6.156 -0.0301 -0.5771  1.2858
  396SOL     OW 2086   2.802   6.698   5.644 -0.0679  0.8690 -0.1769
  396SOL    HW1 2087   2.730   6.661   5.702 -0.7140  1.8468 -0.3404
  396SOL    HW2 2088   2.791   6.663   5.551 -0.4692  1.2078 -0.2545
  397SOL     OW 2089   1.427   3.134   3.268 -0.4783  0.1142  0.5713
  397SOL    HW1 2090   1.400   3.061   3.330  0.4591 -0.3924  0.4105
  397SOL    HW2 2091   1.386   3.220   3.297  0.6485  0.0668  2.4270
  398SOL     OW 2092   3.605   3.497   6.946  0.2644 -0.7405 -0.1109
  398SOL    HW1 2093   3.557   3.584   6.934  2.5831  0.5746 -0.4784
  398SOL    HW2 2094   3.567   3.449   7.025 -0.4986  1.0052  0.6416
  399SOL     OW 2095   4.598   6.353   1.339  0.8914  0.4607  0.2078
  399SOL    HW1 2096   4.617   6.428   1.275 -1.1364  0.0360 -0.9838
  399SOL    HW2 2097   4.518   6.377   1.395  0.3527 -0.6995 -0.0470
  400SOL     OW 2098   3.588   4.908   3.379 -0.2309  0.1991  0.1980
  400SOL    HW1 2099   3.687   4.918   3.374 -0.0848 -0.2749  1.5472
  400SOL    HW2 2100   3.553   4.959   3.458 -1.1555  0.8972 -0.6374
  401SOL     OW 2101   2.132   3.922   1.025 -0.1153  0.3529  0.6997
  401SOL    HW1 2102   2.176   3.833   1.024  1.0546  0.8965 -0.8508
  401SOL    HW2 2103   2.196   3.991   1.059 -0.3671  0.8775  0.1347
  402SOL     OW 2104   0.374   0.795   1.979 -0.2035 -0.0813  0.6822
  402SOL    HW1 2105   0.338   0.888   1.990 -0.2309 -0.3046  3.1195
  402SOL    HW2 2106   0.299   0.730   1.972 -0.3214 -0.2382  2.7199
  403SOL     OW 2107   2.900   5.467   2.209  0.3985  0.0475  0.5487
  403SOL    HW1 2108   2.954   5.517   2.277 -0.1680  2.1047 -0.4476
  403SOL    HW2 2109   2.940   5.376   2.195  2.4165  0.7738  1.2828
  404SOL     OW 2110   2.641   3.329   5.343 -0.3263  1.2778  0.1407
  404SOL    HW1 2111   2.658   3.234   5.317  1.8731  1.7795 -0.4431
  404SOL    HW2 2112   2.544   3.350   5.332 -0.8144 -0.8276  0.0996
  405SOL     OW 2113   6.552   6.297   3.806  0.4612  0.0898 -0.2105
  405SOL    HW1 2114   6.570   6.361   3.880 -1.3110  2.0845 -1.3716
  405SOL    HW2 2115   6.592   6.333   3.721 -0.2307 -0.5488 -0.8181
  406SOL     OW 2116   0.034   3.965   2.761 -0.1595 -0.4371 -0.1979
  406SOL    HW1 2117   0.096   3.888   2.776  1.0724  0.5602  0.0161
  406SOL    HW2 2118   0.031   3.988   2.664  0.2728 -0.1290 -0.1432
  407SOL     OW 2119   2.168   0.168   6.760  0.0151  0.1003 -0.2348
  407SOL    HW1 2120   2.229   0.238   6.721 -0.9195  0.2156 -1.5772
  407SOL    HW2 2121   2.077   0.178   6.720 -0.1422 -1.9077 -0.4752
  408SOL     OW 2122   6.238   2.438   3.046 -0.2692  0.3421  0.2750
  408SOL    HW1 2123   6.169   2.511   3.052 -0.3977  0.3409 -0.9983
  408SOL    HW2 2124   6.329   2.478   3.047 -0.3243  0.4650  0.3453
  409SOL     OW 2125   3.590   4.311   5.574  0.4094 -0.4832 -0.0745
  409SOL    HW1 2126   3.652   4.233   5.564  1.3865  0.3024 -0.2896
  409SOL    HW2 2127   3.642   4.396   5.562 -0.3786  0.2413  1.4835
  410SOL     OW 2128   5.367   4.824   6.273 -0.0407 -0.0783 -0.1086
  410SOL    HW1 2129   5.354   4.793   6.179 -1.7767 -0.6730  0.2966
  410SOL    HW2 2130   5.306   4.901   6.291 -1.6144 -1.5740  1.2449
  411SOL     OW 2131   0.697   2.487   2.770 -0.2701 -0.0533  0.6784
  411SOL    HW1 2132   0.716   2.579   2.737  0.4416 -0.1188  0.8871
  411SOL    HW2 2133   0.602   2.464   2.753 -0.3816  0.6217  0.3840
  412SOL     OW 2134   0.738   5.568   6.724  1.0409  0.4573 -0.0446
  412SOL    HW1 2135   0.831   5.540   6.700  0.4825 -1.1492 -0.4877
  412SOL    HW2 2136   0.673   5.522   6.663 -0.1010  0.6353  1.0052
  413SOL     OW 2137   6.577   4.074   1.515  0.3355  0.2291 -0.1370
  413SOL    HW1 2138   6.662   4.076   1.568  2.3027  0.3345 -3.0223
  413SOL    HW2 2139   6.559   3.980   1.487 -0.6629  0.1788  0.6379
  414SOL     OW 2140   0.108   1.463   6.590  0.4986 -0.4407  0.2438
  414SOL    HW1 2141   0.094   1.391   6.521 -3.0526  0.3001 -0.0182
  414SOL    HW2 2142   0.158   1.539   6.549 -1.4897 -0.0398 -1.6097
  415SOL     OW 2143   1.918   2.308   1.120  0.3357 -0.2618 -0.2156
  415SOL    HW1 2144   2.005   2.312   1.169  0.4747 -1.2261 -0.3761
  415SOL    HW2 2145   1.862   2.233   1.157  0.3028 -0.7766 -1.2970
  416SOL     OW 2146   0.120   2.296   4.636  0.0206  0.0106  0.1913
  416SOL    HW1 2147   0.159   2.253   4.718  1.7004 -1.1591 -1.1390
  416SOL    HW2 2148   0.195   2.324   4.575 -1.1944  0.6611 -1.0524
  417SOL     OW 2149   1.881   4.518   6.007 -0.3914  0.1023 -0.3942
  417SOL    HW1 2150   1.804   4.500   5.946  0.5303  0.1922 -1.6232
  417SOL    HW2 2151   1.878   4.614   6.037 -1.6610 -0.2994  0.9370
  418SOL     OW 2152   5.022   5.754   4.222 -0.6357 -0.2691 -0.3117
  418SOL    HW1 2153   5.067   5.815   4.157  1.0806 -0.7708  0.3449
  418SOL    HW2 2154   4.965   5.688   4.172 -0.9391  0.6034 -1.1463
  419SOL     OW 2155   2.948   0.762   2.651  0.1719  0.1387 -0.1761
  419SOL    HW1 2156   2.877   0.791   2.586  0.5203  0.3556 -0.4617
  419SOL    HW2 2157   2.912   0.768   2.744 -1.2975 -2.8122 -0.4551
  420SOL     OW 2158   6.943   3.015   1.220 -0.8570  0.4455  0.1320
  420SOL    HW1 2159   6.931   3.035   1.123 -0.0535  1.0648  0.1488
  420SOL    HW2 2160   6.859   3.036   1.269 -1.5776 -0.7426 -0.5496
  421SOL     OW 2161   5.415   3.793   3.473 -0.1729  0.2769 -1.1399
  421SOL    HW1 2162   5.508   3.783   3.437  1.4262 -0.5963  2.7702
  421SOL    HW2 2163   5.362   3.711   3.450  0.6658 -0.1238 -1.7000
  422SOL     OW 2164   5.217   5.373   6.663 -0.0521 -0.0950 -0.4359
  422SOL    HW1 2165   5.225   5.306   6.736 -0.2567 -0.1385 -0.4528
  422SOL    HW2 2166   5.292   5.439   6.670 -0.8635  0.7694  0.7080
  423SOL     OW 2167   4.146   0.312   1.977  0.1411 -0.5736 -0.0510
  423SOL    HW1 2168   4.144   0.223   1.930  0.9882 -0.2131 -0.8014
  423SOL    HW2 2169   4.053   0.335   2.008 -0.1707 -1.5058 -0.2466
  424SOL     OW 2170   0.280   3.315   6.892  0.6930 -0.0004  0.1854
  424SOL    HW1 2171   0.195   3.293   6.940  0.3310  0.9357 -0.0007
  424SOL    HW2 2172   0.357   3.312   6.955  0.0017  3.0969  1.3747
  425SOL     OW 2173   5.713   4.957   2.038  0.7923  0.3048  0.0726
  425SOL    HW1 2174   5.716   5.016   1.957  1.5781 -1.8718 -1.5768
  425SOL    HW2 2175   5.806   4.938   2.068  0.6978 -1.7454 -0.7585
  426SOL     OW 2176   3.580   2.893   3.733 -0.2516 -0.5053  0.0437
  426SOL    HW1 2177   3.533   2.899   3.645  0.9693 -0.6776 -0.6450
  426SOL    HW2 2178   3.639   2.973   3.745 -1.5016  0.2727  1.3997
  427SOL     OW 2179   4.460   2.480   2.920 -0.1400  0.2378  0.1535
  427SOL    HW1 2180   4.559   2.495   2.909  0.0543 -1.0133  0.0593
  427SOL    HW2 2181   4.411   2.560   2.886  0.7786  0.0125 -1.8568
  428SOL     OW 2182   5.298   1.496   4.602  0.5813 -0.3606  0.5860
  428SOL    HW1 2183   5.230   1.569   4.597 -1.2451 -1.9654  0.7907
  428SOL    HW2 2184   5.319   1.464   4.510  3.3128  2.0055  0.2538
  429SOL     OW 2185   1.746   5.953   4.460  0.9457 -0.5616  0.3836
  429SOL    HW1 2186   1.760   5.923   4.555  0.6512 -3.3430 -0.3837
  429SOL    HW2 2187   1.664   6.010   4.456  1.0844 -0.2104  1.8329
  430SOL     OW 2188   0.493   1.022   6.682 -0.1297  0.2616 -0.0235
  430SOL    HW1 2189   0.558   1.081   6.729  2.0920  0.6927 -3.2832
  430SOL    HW2 2190   0.439   1.077   6.618 -1.3750 -0.6041  0.2504
  431SOL     OW 2191   6.400   3.720   6.265 -0.2291 -0.3787  0.5824
  431SOL    HW1 2192   6.420   3.717   6.363  0.1027  0.7893  0.5629
  431SOL    HW2 2193   6.348   3.803   6.244  1.4405  0.4299 -0.5283
  432SOL     OW 2194   0.101   3.472   6.037 -0.4164 -0.2787  0.6123
  432SOL    HW1 2195   0.127   3.483   6.133 -0.6776 -1.3589  0.8209
  432SOL    HW2 2196   0.015   3.420   6.032  0.5529 -1.8847 -0.2368
  433SOL     OW 2197   1.221   5.268   4.572  0.1589 -0.1213 -0.1527
  433SOL    HW1 2198   1.144   5.328   4.594  0.8637  0.8633 -0.2830
  433SOL    HW2 2199   1.298   5.288   4.634  0.9585  0.2496 -1.2312
  434SOL     OW 2200   6.977   2.717   0.289 -0.0723  0.6230  0.2381
  434SOL    HW1 2201   6.896   2.665   0.261  0.0738  0.3768  0.2757
  434SOL    HW2 2202   7.059   2.677   0.249  0.3484 -0.7723  2.3194
  435SOL     OW 2203   0.660   0.453   6.202 -0.5104  0.1397  0.5334
  435SOL    HW1 2204   0.675   0.501   6.116  0.9902 -2.3374 -0.6981
  435SOL    HW2 2205   0.593   0.380   6.188 -0.8941  0.2429  1.7151
  436SOL     OW 2206   4.504   0.355   1.682 -0.1671 -0.1289 -0.5325
  436SOL    HW1 2207   4.512   0.451   1.654  2.2916  0.2919  1.2631
  436SOL    HW2 2208   4.584   0.304   1.648  0.8458 -0.4796  2.1448
  437SOL     OW 2209   0.096   2.720   6.260 -0.4125 -0.2885 -0.2727
  437SOL    HW1 2210   0.013   2.759   6.219  0.4188 -0.9841 -2.8411
  437SOL    HW2 2211   0.078   2.627   6.290 -0.4580 -0.6542 -1.3761
  438SOL     OW 2212   5.475   2.538   4.755 -0.2660 -0.3641  0.2214
  438SOL    HW1 2213   5.449   2.617   4.811  0.5722  0.4825 -0.5598
  438SOL    HW2 2214   5.574   2.534   4.746 -0.3484 -0.9048 -0.5959
  439SOL     OW 2215   6.644   2.469   6.438 -0.2603 -0.5500 -0.2269
  439SOL    HW1 2216   6.702   2.444   6.516 -0.1017  0.3912 -0.0272
  439SOL    HW2 2217   6.677   2.424   6.356  0.6176 -0.2137 -0.0705
  440SOL     OW 2218   3.754   2.690   0.496 -0.4453 -0.1188 -0.2495
  440SOL    HW1 2219   3.696   2.609   0.494 -1.2257  0.4129  0.1914
  440SOL    HW2 2220   3.697   2.772   0.508  0.3253  0.4924 -0.6521
  441SOL     OW 2221   4.009   5.659   1.227  0.3481  0.0951  0.3801
  441SOL    HW1 2222   3.987   5.614   1.141  0.7152 -1.4569  1.0686
  441SOL    HW2 2223   3.955   5.619   1.301  1.7508 -0.2619  1.2505
  442SOL     OW 2224   6.627   2.814   2.893  0.1937 -0.3539 -0.1163
  442SOL    HW1 2225   6.677   2.796   2.808 -1.3742 -2.2340 -0.6802
  442SOL    HW2 2226   6.603   2.728   2.937 -1.0346  0.5438  1.0474
  443SOL     OW 2227   5.226   1.488   1.422  0.1758  0.0077 -0.0040
  443SOL    HW1 2228   5.310   1.434   1.428  0.3377  0.2008 -0.5026
  443SOL    HW2 2229   5.228   1.545   1.340 -0.0157  0.7364  0.4761
  444SOL     OW 2230   0.322   1.012   3.673 -0.6498 -0.0294 -0.0232
  444SOL    HW1 2231   0.237   1.034   3.721 -0.9937 -1.3873  0.0335
  444SOL    HW2 2232   0.303   1.004   3.575 -0.1526  1.7030 -0.3032
  445SOL     OW 2233   2.083   6.780   6.179 -0.3413 -0.2591 -0.0347
  445SOL    HW1 2234   2.152   6.730   6.232  0.6743 -0.2354 -1.2828
  445SOL    HW2 2235   2.011   6.717   6.151 -0.2539 -0.5297  0.3375
  446SOL     OW 2236   1.117   1.192   2.323  0.0991 -0.4122 -0.3192
  446SOL    HW1 2237   1.118   1.229   2.230 -0.7249  2.5970  0.7617
  446SOL    HW2 2238   1.039   1.130   2.333  0.0262 -0.5397 -1.5145
  447SOL     OW 2239   1.900   3.390   3.724 -0.3513 -0.5261 -0.2100
  447SOL    HW1 2240   1.980   3.443   3.752 -1.1693 -0.3115  1.8853
  447SOL    HW2 2241   1.884   3.317   3.789 -0.5226 -2.0504 -1.8887
  448SOL     OW 2242   5.634   6.247   3.340  0.2905 -0.7155  0.2852
  448SOL    HW1 2243   5.716   6.299   3.318  0.7391 -0.8415  1.5947
  448SOL    HW2 2244   5.651   6.188   3.419 -0.7107 -1.6135 -0.1406
  449SOL     OW 2245   5.406   0.585   3.564  0.3421 -0.0852 -0.3014
  449SOL    HW1 2246   5.449   0.591   3.473  1.9589 -2.7090  0.1537
  449SOL    HW2 2247   5.397   0.489   3.589 -3.7666  0.4160  0.7313
  450SOL     OW 2248   6.343   1.422   1.832  0.3358  0.0864  0.1105
  450SOL    HW1 2249   6.391   1.441   1.747 -0.3643  2.1007  0.1141
  450SOL    HW2 2250   6.257   1.374   1.812 -0.0649  0.9852 -0.3985
  451SOL     OW 2251   3.953   5.404   4.643 -0.1983  0.0416 -0.6399
  451SOL    HW1 2252   3.892   5.330   4.669 -0.3532  0.4454  0.1726
  451SOL    HW2 2253   4.038   5.397   4.695 -0.4191  0.7292 -0.1712
  452SOL     OW 2254   1.338   4.631   0.378  0.3499  0.5554 -0.0731
  452SOL    HW1 2255   1.271   4.705   0.377  1.2746  1.4229  0.3277
  452SOL    HW2 2256   1.384   4.628   0.467  2.5139  1.5481 -1.0947
  453SOL     OW 2257   6.671   4.397   1.757  0.2000 -0.0434  0.0170
  453SOL    HW1 2258   6.743   4.415   1.824 -2.3133  3.0724  2.2213
  453SOL    HW2 2259   6.608   4.328   1.793 -0.1408  0.2644  0.0171
  454SOL     OW 2260   5.410   5.091   0.741  0.2439 -0.6319 -0.6553
  454SOL    HW1 2261   5.392   5.021   0.671 -0.9794 -1.5461  0.5109
  454SOL    HW2 2262   5.447   5.047   0.822 -0.7667  0.0391  0.1860
  455SOL     OW 2263   1.539   6.619   4.911  0.2414  0.2763  0.0448
  455SOL    HW1 2264   1.491   6.570   4.983  1.2505 -0.7006  0.0812
  455SOL    HW2 2265   1.628   6.577   4.896  0.4948  1.1462 -1.0185
  456SOL     OW 2266   5.696   4.700   4.338  0.0588  0.3471 -0.0800
  456SOL    HW1 2267   5.731   4.793   4.352  0.9858 -0.0808  0.5616
  456SOL    HW2 2268   5.710   4.647   4.421 -1.8463  0.0428  0.0849
  457SOL     OW 2269   5.950   1.350   3.966  0.6168 -0.4020  0.1999
  457SOL    HW1 2270   5.910   1.333   3.876 -0.4450  1.1907  0.3371
  457SOL    HW2 2271   5.878   1.347   4.035  0.5561  2.8502  0.4231
  458SOL     OW 2272   3.397   5.447   5.586  0.1436 -0.3526  0.1036
  458SOL    HW1 2273   3.428   5.487   5.672 -0.7524 -0.6702  0.5828
  458SOL    HW2 2274   3.311   5.489   5.558  0.0004 -0.8376 -0.2030
  459SOL     OW 2275   1.381   6.183   2.615 -0.5348 -0.2353  0.0201
  459SOL    HW1 2276   1.386   6.166   2.714  0.3589 -1.0295 -0.1468
  459SOL    HW2 2277   1.341   6.274   2.599 -0.7681 -0.1299  1.1039
  460SOL     OW 2278   1.504   1.231   4.886  0.3901  0.1697 -0.2514
  460SOL    HW1 2279   1.449   1.205   4.966  0.6472  1.4723  0.3673
  460SOL    HW2 2280   1.450   1.218   4.803 -1.2567  2.2852  0.4026
  461SOL     OW 2281   0.774   5.976   0.354 -0.4544  0.0783 -0.4487
  461SOL    HW1 2282   0.765   6.035   0.433 -0.0748  0.6886 -0.8559
  461SOL    HW2 2283   0.809   6.028   0.276  2.0103 -1.1105 -0.2415
  462SOL     OW 2284   2.828   5.481   6.706 -0.4282 -0.7075 -0.1776
  462SOL    HW1 2285   2.840   5.402   6.646  2.1286 -3.0501  3.1058
  462SOL    HW2 2286   2.878   5.559   6.668 -0.5863 -1.4726 -2.0640
  463SOL     OW 2287   4.432   5.013   3.783 -0.5032 -0.1139  0.2175
  463SOL    HW1 2288   4.385   4.946   3.727 -1.9685  0.3442  0.8493
  463SOL    HW2 2289   4.409   4.999   3.879 -1.3187  1.6238  0.3173
  464SOL     OW 2290   3.765   5.806   1.016  0.8166  0.0969 -0.5536
  464SOL    HW1 2291   3.834   5.879   1.018  0.3799  0.5290 -0.9668
  464SOL    HW2 2292   3.795   5.734   0.954  1.6430 -0.4847  0.4959
  465SOL     OW 2293   4.917   1.218   4.163  0.6196  0.1265 -0.2612
  465SOL    HW1 2294   4.844   1.174   4.110  0.7270 -1.4228  0.7922
  465SOL    HW2 2295   4.936   1.308   4.126 -2.9839  1.3088  0.3965
  466SOL     OW 2296   3.223   5.172   4.069  0.7805  0.3086 -0.7102
  466SOL    HW1 2297   3.244   5.193   3.973  1.4211 -0.0795 -0.6596
  466SOL    HW2 2298   3.285   5.101   4.102 -0.8202 -1.1399 -0.6486
  467SOL     OW 2299   4.268   1.420   6.328 -0.0541  0.3721  0.0396
  467SOL    HW1 2300   4.261   1.505   6.276  0.1015 -0.1492 -0.8619
  467SOL    HW2 2301   4.268   1.440   6.426 -0.7106  1.3540 -0.1485
  468SOL     OW 2302   0.856   1.121   0.093 -0.2576  0.0479  1.2017
  468SOL    HW1 2303   0.805   1.117   0.007  0.6105  2.0117  0.5451
  468SOL    HW2 2304   0.887   1.030   0.118 -3.6579 -1.1836  1.4088
  469SOL     OW 2305   4.707   2.661   0.884  0.1272  0.6261  0.1984
  469SOL    HW1 2306   4.738   2.569   0.860  2.2171  1.2688  0.2104
  469SOL    HW2 2307   4.608   2.661   0.897  0.0086 -1.4770 -0.3874
  470SOL     OW 2308   0.375   0.436   4.856  0.6910  0.1481  0.3028
  470SOL    HW1 2309   0.284   0.467   4.829  0.5292 -1.3183 -0.9623
  470SOL    HW2 2310   0.367   0.354   4.913  1.2175  0.3211  0.6408
  471SOL     OW 2311   0.900   4.242   4.427 -0.3654  0.1548 -0.6816
  471SOL    HW1 2312   0.946   4.172   4.483 -1.7929 -1.9068 -1.9506
  471SOL    HW2 2313   0.833   4.291   4.483 -0.6113 -0.7415 -0.1770
  472SOL     OW 2314   2.864   1.194   6.297 -0.3606 -0.5879 -0.5427
  472SOL    HW1 2315   2.826   1.105   6.324  0.9838 -1.0156  0.0119
  472SOL    HW2 2316   2.963   1.194   6.313 -0.4197  1.1995 -0.0213
  473SOL     OW 2317   4.794   0.801   6.882 -0.0033  0.1018 -0.3919
  473SOL    HW1 2318   4.803   0.787   6.783  3.0621 -2.0983  0.0610
  473SOL    HW2 2319   4.744   0.724   6.921  1.1725 -0.4637  0.0414
  474SOL     OW 2320   0.056   2.284   3.767 -0.0252  0.0797  0.0682
  474SOL    HW1 2321   0.139   2.337   3.785 -0.0543  0.3704 -0.6223
  474SOL    HW2 2322   0.047   2.212   3.836 -0.9861  2.1294  2.2107
  475SOL     OW 2323   2.047   0.173   2.772 -0.1874  0.4092  0.0007
  475SOL    HW1 2324   2.140   0.205   2.752  0.3234 -0.5364  0.7955
  475SOL    HW2 2325   1.981   0.230   2.722  0.8189  0.9653 -0.7389
  476SOL     OW 2326   3.531   1.732   1.401 -0.2516 -0.6778  0.7203
  476SOL    HW1 2327   3.522   1.827   1.371  0.2261 -1.1118 -0.8934
  476SOL    HW2 2328   3.441   1.693   1.416 -0.7363 -1.1018 -2.4969
  477SOL     OW 2329   4.508   6.772   1.963  0.4247  0.0977 -0.1722
  477SOL    HW1 2330   4.539   6.678   1.980  1.4822  0.2067 -1.3442
  477SOL    HW2 2331   4.571   6.835   2.008 -1.0837  0.2616  1.8275
  478SOL     OW 2332   6.043   6.927   6.715 -0.0800 -0.2076 -0.0820
  478SOL    HW1 2333   5.976   6.950   6.785 -0.1726 -1.7804  0.3848
  478SOL    HW2 2334   6.130   6.973   6.735 -0.4016  0.1545  0.4978
  479SOL     OW 2335   3.633   4.123   1.971  0.2754  0.0270 -0.1006
  479SOL    HW1 2336   3.724   4.083   1.974 -0.8421 -2.7088  0.4853
  479SOL    HW2 2337   3.606   4.139   1.876  0.9869 -0.0100 -0.3125
  480SOL     OW 2338   4.914   5.784   1.803  0.0344 -0.0660 -0.2201
  480SOL    HW1 2339   5.012   5.804   1.807  0.2510 -0.6955 -1.7934
  480SOL    HW2 2340   4.866   5.859   1.757 -0.1070 -0.1640 -0.2322
  481SOL     OW 2341   4.564   0.496   3.900 -0.0848  0.1460  0.3308
  481SOL    HW1 2342   4.546   0.593   3.880  2.4397  0.7390  0.5580
  481SOL    HW2 2343   4.630   0.461   3.834  0.1671 -0.9860  1.1624
  482SOL     OW 2344   3.077   4.866   5.554 -0.1199  0.2637 -0.0878
  482SOL    HW1 2345   3.031   4.944   5.513 -2.2125  0.5511  2.5164
  482SOL    HW2 2346   3.159   4.897   5.602 -1.0389  0.9695  1.0922
  483SOL     OW 2347   4.629   3.835   0.627 -0.0070 -0.1946 -0.2083
  483SOL    HW1 2348   4.673   3.806   0.712  3.2186 -0.0688 -1.6870
  483SOL    HW2 2349   4.633   3.935   0.620  0.5476 -0.2593 -0.8904
  484SOL     OW 2350   1.155   0.004   6.022  0.3406 -0.2521  0.1438
  484SOL    HW1 2351   1.129  -0.062   5.952  0.5672  1.9261 -2.1165
  484SOL    HW2 2352   1.254   0.003   6.034  0.5719  0.9417 -1.3341
  485SOL     OW 2353   5.491   0.243   2.331 -0.6128 -0.1805  0.3501
  485SOL    HW1 2354   5.487   0.144   2.344 -1.8187 -0.3713 -1.1824
  485SOL    HW2 2355   5.553   0.265   2.256 -0.5742  0.2045  0.4904
  486SOL     OW 2356   2.099   5.720   6.502  0.0772  0.3944 -0.6843
  486SOL    HW1 2357   2.090   5.757   6.409  1.2978  1.6794 -0.3386
  486SOL    HW2 2358   2.086   5.793   6.568 -0.8949 -0.5375  0.1779
  487SOL     OW 2359   3.908   1.063   6.017  0.4163 -0.1828 -0.0413
  487SOL    HW1 2360   3.972   1.136   6.041 -0.0137  0.2540 -0.2054
  487SOL    HW2 2361   3.959   0.981   5.991  0.9118  0.1762 -0.2195
  488SOL     OW 2362   6.149   6.127   2.490  0.4167  0.4899  0.2756
  488SOL    HW1 2363   6.051   6.147   2.480  0.3892  0.4008  0.3629
  488SOL    HW2 2364   6.162   6.064   2.566  0.5822  0.8142  0.5156
  489SOL     OW 2365   3.756   0.769   5.034 -0.5538  0.2101 -0.7363
  489SOL    HW1 2366   3.694   0.847   5.027 -1.8515 -0.7951 -0.8932
  489SOL    HW2 2367   3.816   0.781   5.114 -0.9227  1.2136 -0.5930
  490SOL     OW 2368   0.894   1.325   5.384 -0.1373 -0.3529  0.4339
  490SOL    HW1 2369   0.886   1.421   5.360 -1.8464 -0.3421  0.9201
  490SOL    HW2 2370   0.991   1.300   5.389  0.3402  1.3758  0.4964
  491SOL     OW 2371   4.989   1.445   1.016  0.8281 -0.6464  0.0123
  491SOL    HW1 2372   4.914   1.511   1.011  1.2826 -0.0675  0.6347
  491SOL    HW2 2373   4.967   1.374   1.082 -0.0718 -1.6734 -1.3447
  492SOL     OW 2374   3.720   1.870   0.081 -0.3794 -0.2944  0.3489
  492SOL    HW1 2375   3.771   1.797   0.036  0.0281  0.0032  0.3176
  492SOL    HW2 2376   3.637   1.889   0.029 -0.8822 -1.2536  0.7810
  493SOL     OW 2377   0.361   3.969   1.120  0.7256  0.2724 -0.0767
  493SOL    HW1 2378   0.331   3.964   1.025 -0.4157 -0.0065  0.2758
  493SOL    HW2 2379   0.298   4.028   1.171 -0.5559 -1.9955  1.1512
  494SOL     OW 2380   2.671   6.973   5.562  0.4636  0.3482  0.2264
  494SOL    HW1 2381   2.626   7.054   5.599 -0.2427  0.6645 -1.2380
  494SOL    HW2 2382   2.769   6.989   5.555  0.0969  2.0997 -2.3333
  495SOL     OW 2383   6.162   3.399   1.363  0.4309 -0.3554  0.1556
  495SOL    HW1 2384   6.237   3.340   1.392  0.9509  0.8684  1.4223
  495SOL    HW2 2385   6.194   3.463   1.294 -0.2233 -1.7338 -1.4909
  496SOL     OW 2386   0.762   1.518   4.678 -0.3071 -0.2074 -0.3795
  496SOL    HW1 2387   0.816   1.523   4.594 -1.7369  0.7008 -1.3050
  496SOL    HW2 2388   0.738   1.611   4.708 -1.1097 -0.5775  0.1595
  497SOL     OW 2389   3.336   5.480   4.044 -0.2444  0.5539  0.5764
  497SOL    HW1 2390   3.298   5.463   4.135 -0.8139  0.1590  0.2751
  497SOL    HW2 2391   3.341   5.394   3.994  1.0979  0.5926  0.6093
  498SOL     OW 2392   5.160   4.764   0.963  0.2048 -0.1342  0.1991
  498SOL    HW1 2393   5.147   4.788   0.867  0.3654 -1.8511 -0.2825
  498SOL    HW2 2394   5.130   4.840   1.020 -0.8826  0.5258 -1.1794
  499SOL     OW 2395   3.198   0.032   5.186  0.5564  0.6556 -0.3315
  499SOL    HW1 2396   3.218   0.129   5.175 -0.4518  0.8180 -0.9294
  499SOL    HW2 2397   3.106   0.013   5.151  0.7248 -0.5088 -0.1913
  500SOL     OW 2398   5.750   0.045   1.160  0.2541 -0.2301  0.2784
  500SOL    HW1 2399   5.766   0.143   1.170 -1.7633  0.4118 -1.8188
  500SOL    HW2 2400   5.669   0.019   1.213  0.0705 -0.4949 -0.1245
  501SOL     OW 2401   6.487   1.331   4.291 -0.4712 -0.2201 -0.2222
  501SOL    HW1 2402   6.420   1.368   4.226  0.3720 -0.8205 -1.4848
  501SOL    HW2 2403   6.466   1.236   4.312 -0.5971 -0.1029  0.1903
  502SOL     OW 2404   6.024   2.314   3.560  0.6672  0.5853  0.4089
  502SOL    HW1 2405   5.983   2.234   3.605  1.2422  0.3114  0.4639
  502SOL    HW2 2406   5.958   2.354   3.497  0.7298 -0.5875 -0.4360
  503SOL     OW 2407   3.157   4.896   5.897 -0.3035  0.4025  0.0674
  503SOL    HW1 2408   3.217   4.841   5.955  0.8095  0.1415 -1.2624
  503SOL    HW2 2409   3.200   4.909   5.807 -0.8297  2.8866  0.1044
  504SOL     OW 2410   2.826   2.436   6.828 -0.3400  0.1370  1.0479
  504SOL    HW1 2411   2.895   2.370   6.797  0.9862  1.8477  0.1039
  504SOL    HW2 2412   2.752   2.440   6.761  0.3097  0.6344  0.3425
  505SOL     OW 2413   0.176   5.810   5.874 -0.0641  0.6559 -0.1578
  505SOL    HW1 2414   0.097   5.864   5.846  0.9572  0.9927 -2.6487
  505SOL    HW2 2415   0.147   5.719   5.902 -1.3429  0.8130 -0.9223
  506SOL     OW 2416   5.661   4.424   4.822  0.7381 -0.2325 -0.0557
  506SOL    HW1 2417   5.721   4.365   4.768 -0.8628 -0.7229 -1.3716
  506SOL    HW2 2418   5.566   4.395   4.811  0.0762  1.4920  0.6892
  507SOL     OW 2419   5.125   4.417   2.612 -0.7707  0.4650 -0.6043
  507SOL    HW1 2420   5.151   4.321   2.615  1.9593  1.1470  1.2832
  507SOL    HW2 2421   5.140   4.453   2.519  1.5249 -0.1764 -0.5548
  508SOL     OW 2422   5.952   5.811   2.864 -0.0317  0.4746  0.4261
  508SOL    HW1 2423   6.015   5.765   2.926  1.3345 -0.5432 -1.6068
  508SOL    HW2 2424   5.858   5.786   2.887  0.5732 -2.2768  0.3221
  509SOL     OW 2425   3.276   6.884   7.015  0.7583 -0.5373  0.3260
  509SOL    HW1 2426   3.327   6.811   6.969  0.7532  0.2383 -0.9665
  509SOL    HW2 2427   3.202   6.915   6.956  0.6198  0.3629  0.9487
  510SOL     OW 2428   6.534   5.745   1.060  0.0576  0.4449  0.4777
  510SOL    HW1 2429   6.532   5.677   1.134 -1.5500  0.7525  0.7601
  510SOL    HW2 2430   6.465   5.721   0.992 -1.5329  2.4984  1.2631
  511SOL     OW 2431   0.446   5.828   4.756 -0.3921  0.4403 -0.1187
  511SOL    HW1 2432   0.372   5.767   4.786  1.4270 -0.5785  2.6833
  511SOL    HW2 2433   0.411   5.921   4.750 -2.1099 -0.1336  0.3036
  512SOL     OW 2434   5.954   5.562   6.216  0.0606  0.1312  0.2562
  512SOL    HW1 2435   5.926   5.500   6.289  0.6883  0.8398  1.1278
  512SOL    HW2 2436   5.873   5.598   6.169 -0.3983  0.4761  1.2968
  513SOL     OW 2437   2.154   6.882   3.424  0.4594  0.1725  0.3980
  513SOL    HW1 2438   2.214   6.809   3.457  1.1584  1.2982  1.6551
  513SOL    HW2 2439   2.063   6.844   3.407  1.5518 -1.6691 -2.0083
  514SOL     OW 2440   5.648   5.860   3.140  1.1113 -0.3156 -0.0292
  514SOL    HW1 2441   5.631   5.957   3.122  1.5973  0.0157  1.1933
  514SOL    HW2 2442   5.571   5.821   3.192 -0.2319 -1.2346 -2.5335
  515SOL     OW 2443   3.373   6.256   5.754  0.7104 -0.0925 -0.4490
  515SOL    HW1 2444   3.337   6.346   5.727  1.0301  0.4785  0.9062
  515SOL    HW2 2445   3.361   6.245   5.853  1.3628 -1.2374 -0.4903
  516SOL     OW 2446   0.503   4.715   6.661  0.2704  0.3789 -0.5539
  516SOL    HW1 2447   0.576   4.734   6.595  1.2316 -2.8607 -0.6069
  516SOL    HW2 2448   0.543   4.675   6.744 -1.3267 -0.1602  0.0023
  517SOL     OW 2449   1.733   3.546   0.370 -0.0301 -0.0876 -0.6267
  517SOL    HW1 2450   1.728   3.638   0.331  1.5024  0.6697  0.8708
  517SOL    HW2 2451   1.674   3.541   0.450  1.2459  0.1848  0.3611
  518SOL     OW 2452   0.244   3.105   3.603 -0.5388  0.0825 -0.1252
  518SOL    HW1 2453   0.184   3.168   3.652  0.6266  1.3263 -0.2346
  518SOL    HW2 2454   0.192   3.057   3.533 -1.2821  1.6215 -0.6645
  519SOL     OW 2455   1.784   6.544   0.113  0.2754 -0.2265  0.8366
  519SOL    HW1 2456   1.724   6.470   0.085 -0.6969  0.2508  1.5924
  519SOL    HW2 2457   1.847   6.512   0.184  1.8616 -1.0847 -0.8759
  520SOL     OW 2458   4.099   3.258   2.440  0.0118  0.1089 -0.5368
  520SOL    HW1 2459   4.089   3.247   2.341 -1.2373  1.0320 -0.5373
  520SOL    HW2 2460   4.183   3.309   2.460 -0.1480  0.6385 -1.1794
  521SOL     OW 2461   6.235   3.086   6.042  0.7683 -0.1111 -0.8527
  521SOL    HW1 2462   6.219   3.006   5.983 -0.6210 -0.2716 -0.2890
  521SOL    HW2 2463   6.288   3.154   5.991 -1.0343  0.0823 -2.5773
  522SOL     OW 2464   2.959   5.574   4.219  0.0616  0.0431 -0.2749
  522SOL    HW1 2465   2.923   5.607   4.306  0.5802 -0.2835  0.0728
  522SOL    HW2 2466   2.994   5.481   4.230 -1.7850 -0.8372 -1.3403
  523SOL     OW 2467   5.160   5.331   2.073 -0.1454 -0.4456 -0.0333
  523SOL    HW1 2468   5.101   5.290   2.142 -0.9525  1.1041  0.2294
  523SOL    HW2 2469   5.117   5.322   1.983 -1.2296  1.4210  0.2650
  524SOL     OW 2470   4.954   3.723   5.539  0.2484 -0.6841  0.2977
  524SOL    HW1 2471   4.882   3.719   5.470 -0.3810 -0.1629  0.9171
  524SOL    HW2 2472   4.914   3.716   5.630  0.8423  0.7849  0.7026
  525SOL     OW 2473   3.569   5.836   5.650  0.1246  0.4733  0.2673
  525SOL    HW1 2474   3.484   5.859   5.602  1.2285  1.6317 -1.2108
  525SOL    HW2 2475   3.647   5.856   5.592  1.4147 -2.5248  0.7773
  526SOL     OW 2476   5.110   1.140   5.860  0.2851  0.5369  0.0655
  526SOL    HW1 2477   5.198   1.098   5.881 -0.3726 -0.3421  1.1491
  526SOL    HW2 2478   5.052   1.073   5.815 -0.2264  0.7669  0.3788
  527SOL     OW 2479   3.369   0.003   5.617 -0.2902  0.1082  0.2523
  527SOL    HW1 2480   3.404   0.097   5.606 -0.2315  0.1907  1.1064
  527SOL    HW2 2481   3.428  -0.047   5.679 -1.5724  0.1995  1.5869
  528SOL     OW 2482   5.607   4.186   4.593  0.5702  0.1017  0.1324
  528SOL    HW1 2483   5.679   4.116   4.597  0.6102  0.0160 -1.3075
  528SOL    HW2 2484   5.629   4.251   4.520 -0.5676  0.3578  0.0073
  529SOL     OW 2485   5.487   4.060   4.956 -0.2252  0.1879  0.2042
  529SOL    HW1 2486   5.438   4.032   4.873 -0.6986  2.7655 -0.4876
  529SOL    HW2 2487   5.584   4.037   4.946 -0.1572  0.9924 -1.3848
  530SOL     OW 2488   5.110   0.565   1.377  0.6470  0.1839  0.1771
  530SOL    HW1 2489   5.161   0.610   1.303  0.6478  0.0770  0.1136
  530SOL    HW2 2490   5.168   0.559   1.458  1.2462 -1.2622 -0.3390
  531SOL     OW 2491   1.193   5.591   6.467 -0.2423  0.5426 -0.0013
  531SOL    HW1 2492   1.271   5.592   6.405 -0.1305 -0.3267  0.1168
  531SOL    HW2 2493   1.207   5.660   6.539  0.0673  0.8932 -0.3943
  532SOL     OW 2494   0.105   4.124   6.432 -0.0850  0.2272  0.2040
  532SOL    HW1 2495   0.204   4.119   6.420 -0.0492 -2.4059  0.9918
  532SOL    HW2 2496   0.084   4.124   6.530 -0.8594  4.4865  0.2470
  533SOL     OW 2497   1.589   0.340   3.134  0.4590 -0.3849  0.2437
  533SOL    HW1 2498   1.608   0.415   3.071 -0.5850  1.2217  1.7433
  533SOL    HW2 2499   1.545   0.265   3.084  1.3957  0.0253 -1.2644
  534SOL     OW 2500   2.227   3.042   4.770 -0.1257  0.2013 -0.0314
  534SOL    HW1 2501   2.290   3.114   4.800  0.1731 -0.0643 -0.0164
  534SOL    HW2 2502   2.260   2.954   4.802 -0.8779  0.1283  0.5705
  535SOL     OW 2503   4.588   1.334   7.006  0.2869 -0.9379 -0.3377
  535SOL    HW1 2504   4.608   1.372   6.916 -1.0154 -0.7215 -0.5639
  535SOL    HW2 2505   4.657   1.365   7.072  0.3193  0.2844 -0.9143
  536SOL     OW 2506   1.299   0.344   2.302 -0.3900 -0.2824 -0.0443
  536SOL    HW1 2507   1.352   0.425   2.325 -0.0561  0.0909 -1.9533
  536SOL    HW2 2508   1.281   0.291   2.385  2.0405  0.1377  0.8348
  537SOL     OW 2509   6.736   1.725   4.482  0.0224 -0.4766 -0.3729
  537SOL    HW1 2510   6.672   1.659   4.444  2.4090 -1.2337 -3.5431
  537SOL    HW2 2511   6.716   1.817   4.447  0.8997 -0.8102 -1.8466
  538SOL     OW 2512   6.444   1.651   6.404  0.4433 -0.6729 -0.2445
  538SOL    HW1 2513   6.411   1.710   6.477  0.0497  2.2847 -2.6136
  538SOL    HW2 2514   6.380   1.576   6.390 -3.0372  2.2163 -1.5375
  539SOL     OW 2515   0.813   3.331   1.421  0.2763  0.1765 -0.1046
  539SOL    HW1 2516   0.713   3.340   1.417  0.2390  0.1994  0.6607
  539SOL    HW2 2517   0.837   3.236   1.442  0.3071  0.6412  2.2704
  540SOL     OW 2518   0.522   1.038   5.574  0.5220  0.1032 -0.1148
  540SOL    HW1 2519   0.614   1.067   5.599  1.1981 -1.8810 -0.1234
  540SOL    HW2 2520   0.516   1.027   5.475  0.5955 -0.7485 -0.0290
  541SOL     OW 2521   4.065   5.864   6.034 -0.6540 -0.3549  0.2203
  541SOL    HW1 2522   4.158   5.886   6.061 -0.5233  3.6893 -2.6402
  541SOL    HW2 2523   4.065   5.823   5.943 -1.6694  0.3344 -0.1100
  542SOL     OW 2524   4.978   4.575   2.345 -0.2402 -0.0665  0.1659
  542SOL    HW1 2525   5.076   4.561   2.330 -0.1462 -1.2804  1.6491
  542SOL    HW2 2526   4.964   4.614   2.437 -1.2291 -1.9200  0.8498
  543SOL     OW 2527   3.913   6.176   1.634  0.4216  0.1720  0.4125
  543SOL    HW1 2528   3.962   6.152   1.717 -2.5995 -1.4738  1.8853
  543SOL    HW2 2529   3.839   6.240   1.656  0.1192  0.4116 -1.1703
  544SOL     OW 2530   5.724   4.052   0.546  0.3520  0.3981 -0.5497
  544SOL    HW1 2531   5.766   4.124   0.491  1.7205  0.0773  0.0285
  544SOL    HW2 2532   5.770   4.047   0.635 -2.0991  1.2219  0.8571
  545SOL     OW 2533   2.265   5.800   0.069 -0.6384 -0.3077 -0.2886
  545SOL    HW1 2534   2.251   5.733   0.142 -1.4587 -0.7900 -0.8763
  545SOL    HW2 2535   2.356   5.789   0.030  0.1952  0.5829  1.2814
  546SOL     OW 2536   2.187   5.462   4.868 -0.2660 -0.1068  0.4005
  546SOL    HW1 2537   2.193   5.549   4.917  2.1818 -0.5700  1.0530
  546SOL    HW2 2538   2.143   5.477   4.779 -1.5287  1.4132  1.2177
  547SOL     OW 2539   4.527   0.015   4.506  0.5073  0.1747  0.2848
  547SOL    HW1 2540   4.595   0.063   4.451 -1.1013  1.4847 -0.6542
  547SOL    HW2 2541   4.440   0.010   4.456 -0.4462 -0.3592  1.9096
  548SOL     OW 2542   6.647   5.484   6.320  0.1488 -0.0249 -0.1234
  548SOL    HW1 2543   6.676   5.398   6.362 -2.1557 -1.5597 -1.4483
  548SOL    HW2 2544   6.586   5.532   6.383 -1.1924 -1.0306 -0.6052
  549SOL     OW 2545   2.166   1.266   1.536  0.1780  0.5395 -0.2819
  549SOL    HW1 2546   2.096   1.242   1.604  0.0751 -0.3645 -0.7028
  549SOL    HW2 2547   2.181   1.189   1.474  3.0159 -0.0879  1.0248
  550SOL     OW 2548   2.254   6.004   4.263  0.5245  0.0741  0.1244
  550SOL    HW1 2549   2.304   5.932   4.312 -0.1630 -2.0306 -2.0630
  550SOL    HW2 2550   2.279   6.001   4.166  0.0469  2.4793 -0.1178
  551SOL     OW 2551   6.405   0.411   2.338  0.5415  0.4010 -0.2630
  551SOL    HW1 2552   6.445   0.502   2.350 -0.0182  1.0012 -2.4678
  551SOL    HW2 2553   6.451   0.365   2.261 -0.2369 -0.5577 -0.1685
  552SOL     OW 2554   0.210   4.346   4.996 -0.0895 -0.4780  0.7761
  552SOL    HW1 2555   0.168   4.265   5.037  2.5974 -1.7432  1.2629
  552SOL    HW2 2556   0.304   4.355   5.030  0.2828  1.8401 -0.6655
  553SOL     OW 2557   2.661   6.877   2.675 -0.1048 -0.1203  0.4497
  553SOL    HW1 2558   2.608   6.815   2.734  0.0994 -0.2759  0.4705
  553SOL    HW2 2559   2.689   6.827   2.593  1.5351 -0.5653  1.2536
  554SOL     OW 2560   1.695   4.060   5.300  0.1673  0.0244  0.5611
  554SOL    HW1 2561   1.691   4.081   5.398 -0.0608  0.4293  0.4661
  554SOL    HW2 2562   1.788   4.029   5.276 -0.3435 -2.3051  1.3402
  555SOL     OW 2563   3.488   5.096   5.898  0.0921  0.1517  0.1955
  555SOL    HW1 2564   3.524   5.015   5.851 -2.1424 -0.1930 -1.0362
  555SOL    HW2 2565   3.538   5.177   5.867  2.7553 -0.7148  1.8684
  556SOL     OW 2566   4.742   6.664   6.285  0.3821  0.3096 -0.1915
  556SOL    HW1 2567   4.717   6.752   6.326  0.1526 -0.3244  1.0611
  556SOL    HW2 2568   4.825   6.676   6.231 -1.0258  1.8547 -2.1878
  557SOL     OW 2569   1.189   4.531   5.506  0.2497 -0.7122 -0.8242
  557SOL    HW1 2570   1.138   4.601   5.557  0.5096 -0.4449 -0.9255
  557SOL    HW2 2571   1.286   4.554   5.507  0.3632 -1.1850 -0.6867
  558SOL     OW 2572   6.233   2.644   5.650 -0.0778 -0.2736  0.7565
  558SOL    HW1 2573   6.225   2.552   5.688 -0.5309  0.2366  1.9656
  558SOL    HW2 2574   6.299   2.697   5.704 -1.6910  0.8688  1.6985
  559SOL     OW 2575   5.467   6.654   2.157  0.1662  0.3602  0.2449
  559SOL    HW1 2576   5.396   6.723   2.163  0.1268  0.3126  0.3390
  559SOL    HW2 2577   5.516   6.650   2.244 -1.4487 -1.4685  1.1418
  560SOL     OW 2578   2.670   5.179   4.029 -0.3694 -0.6059  0.2149
  560SOL    HW1 2579   2.661   5.162   3.930  1.4791 -0.6273  0.0116
  560SOL    HW2 2580   2.580   5.199   4.067 -1.1950 -1.0253 -1.3906
  561SOL     OW 2581   5.197   2.044   4.935  0.3079  0.8596  0.0460
  561SOL    HW1 2582   5.201   2.142   4.956 -0.4111  0.6377  1.3203
  561SOL    HW2 2583   5.165   1.994   5.015 -0.8321 -0.2575 -1.0599
  562SOL     OW 2584   6.040   2.779   5.192  0.5884 -0.1151  0.2626
  562SOL    HW1 2585   6.051   2.699   5.251 -1.2457 -1.9337 -1.6844
  562SOL    HW2 2586   6.125   2.795   5.141  0.8608 -1.0939  0.3878
  563SOL     OW 2587   5.277   6.101   0.360 -0.0580 -0.2115  0.1463
  563SOL    HW1 2588   5.237   6.151   0.283 -0.4125 -0.8670 -0.0998
  563SOL    HW2 2589   5.360   6.054   0.329 -0.5358 -0.9736  0.0052
  564SOL     OW 2590   6.521   1.584   4.351 -0.2009  0.6153 -0.5429
  564SOL    HW1 2591   6.524   1.485   4.347  1.0675  0.5033  1.6508
  564SOL    HW2 2592   6.433   1.616   4.316 -0.5359 -1.2206 -1.5121
  565SOL     OW 2593   6.604   3.099   5.109 -0.4030 -0.5800 -0.1881
  565SOL    HW1 2594   6.575   3.182   5.157 -1.8224 -1.2682  0.1918
  565SOL    HW2 2595   6.658   3.042   5.170 -1.7356 -1.1910  0.4553
  566SOL     OW 2596   2.438   4.898   0.151  0.2498 -0.4224 -0.0148
  566SOL    HW1 2597   2.386   4.936   0.075 -1.1553 -2.7037 -0.2866
  566SOL    HW2 2598   2.490   4.971   0.196 -0.8036  1.4025 -1.6228
  567SOL     OW 2599   5.828   0.925   6.996 -0.2897 -0.2615  0.3474
  567SOL    HW1 2600   5.801   0.853   6.932  1.8341  0.6257 -1.6844
  567SOL    HW2 2601   5.879   0.885   7.072  1.6959 -0.8798 -1.2375
  568SOL     OW 2602   3.227   2.523   1.722 -0.1419  0.0773  0.9335
  568SOL    HW1 2603   3.161   2.495   1.791 -0.2005 -0.1762  0.7746
  568SOL    HW2 2604   3.186   2.593   1.663 -0.3207 -0.1887  0.7411
  569SOL     OW 2605   1.207   4.353   4.652 -0.1529 -0.4607  0.4482
  569SOL    HW1 2606   1.157   4.375   4.735 -1.6038  0.2040 -0.5591
  569SOL    HW2 2607   1.298   4.319   4.675  0.8937  3.0996  2.2127
  570SOL     OW 2608   6.083   1.286   0.991 -0.1901  0.5156 -0.3660
  570SOL    HW1 2609   6.098   1.217   1.061  1.3656  1.4930  0.3100
  570SOL    HW2 2610   6.018   1.251   0.923  1.6296 -2.2001 -0.8714
  571SOL     OW 2611   6.104   1.387   5.913 -0.2236  0.2219 -0.8123
  571SOL    HW1 2612   6.140   1.452   5.846  3.3621  0.7808  1.3736
  571SOL    HW2 2613   6.073   1.437   5.994  0.9369 -0.6374  0.1988
  572SOL     OW 2614   3.477   6.362   0.348  0.8264  0.6321 -0.0031
  572SOL    HW1 2615   3.394   6.326   0.305  1.3626 -2.6476  1.3704
  572SOL    HW2 2616   3.453   6.407   0.434  0.4643 -1.0136  0.7955
  573SOL     OW 2617   4.142   6.300   1.284 -0.4368 -0.3486 -0.1069
  573SOL    HW1 2618   4.174   6.389   1.318  1.1241  0.0499 -2.3549
  573SOL    HW2 2619   4.044   6.292   1.298 -0.5951  1.6939  0.2522
  574SOL     OW 2620   4.027   0.630   0.705 -0.2747  0.4469  0.9013
  574SOL    HW1 2621   4.108   0.585   0.667  0.4444  1.2283  1.4782
  574SOL    HW2 2622   3.968   0.660   0.630 -0.4252 -0.8035  0.4911
  575SOL     OW 2623   5.312   4.719   4.581  0.2226  0.1837  0.0224
  575SOL    HW1 2624   5.249   4.744   4.508 -0.3094  0.5845  0.6097
  575SOL    HW2 2625   5.361   4.801   4.612  1.1576 -0.1498 -0.5412
  576SOL     OW 2626   4.085   6.778   3.149  0.5927 -0.1283  0.0948
  576SOL    HW1 2627   4.146   6.764   3.071  0.7292 -1.3947  0.4036
  576SOL    HW2 2628   4.015   6.706   3.150  1.3687 -0.9229  1.8440
  577SOL     OW 2629   0.568   5.555   6.967 -0.3363  0.0512  0.3200
  577SOL    HW1 2630   0.636   5.573   7.038 -0.0489  1.4904 -0.2891
  577SOL    HW2 2631   0.613   5.554   6.878 -0.8565 -0.7308  0.0573
  578SOL     OW 2632   1.396   5.533   1.422  0.4031 -0.0375  0.0792
  578SOL    HW1 2633   1.328   5.479   1.372  0.3167  0.7695 -0.7097
  578SOL    HW2 2634   1.451   5.585   1.357  0.9880  0.2328  0.7798
  579SOL     OW 2635   4.024   1.494   3.846 -0.4296  0.2562 -0.1932
  579SOL    HW1 2636   4.061   1.438   3.772  0.2403  0.2521  0.1384
  579SOL    HW2 2637   4.079   1.577   3.856 -0.3173  0.1047  0.5096
  580SOL     OW 2638   0.058   5.263   2.127  0.6358  0.2792 -0.2902
  580SOL    HW1 2639   0.047   5.331   2.056  2.9254  0.3936 -0.6289
  580SOL    HW2 2640   0.055   5.307   2.217 -0.3288  0.4281 -0.3896
  581SOL     OW 2641   6.059   5.718   5.242 -0.4497  0.1603  0.5241
  581SOL    HW1 2642   5.979   5.738   5.186 -0.9933  0.7651  1.4856
  581SOL    HW2 2643   6.055   5.772   5.326  1.7247  1.3535 -0.0611
  582SOL     OW 2644   6.931   5.327   2.404  0.0262 -0.1946 -0.0604
  582SOL    HW1 2645   6.890   5.418   2.395 -2.1700 -0.7873  2.6008
  582SOL    HW2 2646   6.862   5.258   2.382  1.6393 -1.2989 -1.9653
  583SOL     OW 2647   6.377   5.190   2.603 -0.1880  0.6191  0.5386
  583SOL    HW1 2648   6.445   5.119   2.584 -1.5007 -1.0629  1.7229
  583SOL    HW2 2649   6.287   5.147   2.615 -1.4646  2.7413 -0.8402
  584SOL     OW 2650   5.908   0.891   4.045  0.0673 -0.2620 -0.5547
  584SOL    HW1 2651   5.902   0.801   4.002 -3.0469 -1.0264  1.1946
  584SOL    HW2 2652   5.899   0.882   4.144  1.1307  1.8834 -0.2100
  585SOL     OW 2653   6.446   1.642   0.484  0.1872 -0.2355  0.1507
  585SOL    HW1 2654   6.486   1.685   0.403  0.6412 -0.5960  0.1807
  585SOL    HW2 2655   6.513   1.642   0.558 -0.0978 -0.2479  0.4111
  586SOL     OW 2656   2.312   4.552   0.898  0.6080 -0.3209 -0.7213
  586SOL    HW1 2657   2.396   4.604   0.913  0.7234 -0.5588 -0.5437
  586SOL    HW2 2658   2.266   4.537   0.986  1.1603 -1.5143 -0.6173
  587SOL     OW 2659   1.990   2.795   4.023  0.7108 -0.4366  0.3405
  587SOL    HW1 2660   2.036   2.711   4.051  2.1114  0.3015  0.3640
  587SOL    HW2 2661   2.059   2.864   3.999 -0.2944 -0.5547 -3.6469
  588SOL     OW 2662   6.130   6.299   3.251  0.2650 -0.7819  0.1793
  588SOL    HW1 2663   6.060   6.256   3.193 -0.8961 -0.4777  1.3213
  588SOL    HW2 2664   6.203   6.233   3.268  0.0932 -1.2311 -0.7270
  589SOL     OW 2665   1.712   4.794   1.514 -0.1835 -0.1806 -0.2156
  589SOL    HW1 2666   1.620   4.766   1.539 -0.3924  0.3137 -0.4140
  589SOL    HW2 2667   1.773   4.782   1.592 -0.3209 -0.9194 -0.2161
  590SOL     OW 2668   0.197   2.222   2.451  0.5964  0.3326  0.7385
  590SOL    HW1 2669   0.152   2.133   2.461 -0.0464  0.5291 -0.3025
  590SOL    HW2 2670   0.294   2.213   2.471  0.8154 -0.9230 -0.8015
  591SOL     OW 2671   3.103   3.883   0.897  0.0178  0.0128 -0.2147
  591SOL    HW1 2672   3.055   3.959   0.938 -2.7029 -1.7071  0.0467
  591SOL    HW2 2673   3.123   3.814   0.966  0.5312 -0.4545 -0.8078
  592SOL     OW 2674   6.181   6.641   2.092  0.3849 -0.0950 -0.4019
  592SOL    HW1 2675   6.201   6.708   2.163  2.1401 -0.1141 -0.8454
  592SOL    HW2 2676   6.153   6.688   2.008  3.5075  0.3032 -1.3429
  593SOL     OW 2677   2.188   1.250   3.939 -0.1258 -0.6979  0.4086
  593SOL    HW1 2678   2.156   1.262   3.845  2.5844  2.5754 -0.2762
  593SOL    HW2 2679   2.281   1.286   3.947 -0.5287 -0.1538  4.5361
  594SOL     OW 2680   3.068   4.861   3.181 -0.5888  0.4552  0.1642
  594SOL    HW1 2681   3.070   4.890   3.277  0.4098 -1.0906  0.6438
  594SOL    HW2 2682   2.980   4.819   3.161 -0.8049  0.7919  0.3806
  595SOL     OW 2683   3.098   4.725   0.075  0.0608 -0.7592 -0.4206
  595SOL    HW1 2684   3.009   4.728   0.120  0.1255 -2.1142 -0.1614
  595SOL    HW2 2685   3.098   4.787  -0.004 -0.3322  1.0090  0.9048
  596SOL     OW 2686   1.489   4.442   6.755  0.0406  0.2963  0.2085
  596SOL    HW1 2687   1.508   4.393   6.841  2.2567 -0.1954 -0.5007
  596SOL    HW2 2688   1.541   4.400   6.681  0.3097  2.3951 -0.8647
  597SOL     OW 2689   4.436   1.217   0.337  0.0919 -0.4207  0.4933
  597SOL    HW1 2690   4.429   1.315   0.357  1.2287 -0.5997  1.9073
  597SOL    HW2 2691   4.345   1.181   0.319 -0.2364  1.1042 -1.2282
  598SOL     OW 2692   0.888   4.771   0.133  0.1618 -0.1522  0.2209
  598SOL    HW1 2693   0.964   4.835   0.118  1.1746 -1.6404 -1.4595
  598SOL    HW2 2694   0.810   4.797   0.077  0.3024  0.0350  0.1125
  599SOL     OW 2695   6.111   0.303   1.582  0.0009  0.0637 -0.1323
  599SOL    HW1 2696   6.157   0.348   1.658 -2.7336  1.4983  0.8112
  599SOL    HW2 2697   6.179   0.266   1.519  2.3788 -1.1325  2.9015
  600SOL     OW 2698   0.700   4.988   0.277 -0.3560  0.1414  0.3048
  600SOL    HW1 2699   0.625   5.005   0.213 -0.0590  1.0494  0.1777
  600SOL    HW2 2700   0.718   4.890   0.283 -0.1427  0.0577 -1.2978
  601SOL     OW 2701   2.105   3.587   3.501  0.4036 -0.5688 -0.0784
  601SOL    HW1 2702   2.122   3.567   3.597 -0.3608 -1.0510 -0.0361
  601SOL    HW2 2703   2.143   3.677   3.478 -0.6682  0.1964  1.0455
  602SOL     OW 2704   1.666   1.194   5.155 -0.8299 -0.3153  0.3682
  602SOL    HW1 2705   1.632   1.114   5.203  1.9951 -1.1762  1.1385
  602SOL    HW2 2706   1.696   1.168   5.063 -0.7941  0.0746  0.2673
  603SOL     OW 2707   2.461   3.185   0.207 -0.4101 -0.1764 -0.1129
  603SOL    HW1 2708   2.443   3.200   0.110 -1.3219 -1.0183 -0.0852
  603SOL    HW2 2709   2.538   3.242   0.235 -0.6083  0.6496 -1.1498
  604SOL     OW 2710   1.864   3.435   0.022  0.1496 -0.3129  0.3815
  604SOL    HW1 2711   1.878   3.527   0.056  0.3714 -0.3386  0.3618
  604SOL    HW2 2712   1.802   3.437  -0.057  1.7254  0.0717 -0.9076
  605SOL     OW 2713   2.092   5.456   1.815  0.0533  0.2462  0.2002
  605SOL    HW1 2714   2.122   5.467   1.720 -1.4460 -0.0781 -0.3404
  605SOL    HW2 2715   2.122   5.367   1.849 -0.4157 -0.1533 -0.3939
  606SOL     OW 2716   6.958   5.040   2.488  0.1041  0.1211 -0.6693
  606SOL    HW1 2717   6.909   4.953   2.492  0.6394 -0.1454  0.7721
  606SOL    HW2 2718   7.046   5.028   2.442 -0.0106  0.0005 -0.8567
  607SOL     OW 2719   3.119   3.109   5.019  0.1853  0.2663  0.3834
  607SOL    HW1 2720   3.071   3.032   5.061 -1.3665  0.8485 -0.2520
  607SOL    HW2 2721   3.120   3.186   5.083  2.1665 -0.3961  1.2100
  608SOL     OW 2722   6.381   3.286   5.915  0.3133  0.1087  0.1843
  608SOL    HW1 2723   6.404   3.360   5.978 -1.6774  1.5746 -0.7236
  608SOL    HW2 2724   6.323   3.321   5.842 -1.9131 -2.6286  0.4913
  609SOL     OW 2725   0.680   2.148   1.687 -0.3209 -0.2348 -0.0890
  609SOL    HW1 2726   0.589   2.129   1.651 -0.2503 -1.2483  0.2197
  609SOL    HW2 2727   0.747   2.139   1.614 -0.1794 -2.2794  0.2145
  610SOL     OW 2728   2.268   6.467   4.589 -0.1601  0.3318 -0.7017
  610SOL    HW1 2729   2.204   6.527   4.636 -0.3015 -0.7128  0.4879
  610SOL    HW2 2730   2.238   6.452   4.495 -0.3293  1.7736 -0.9023
  611SOL     OW 2731   2.012   3.093   2.980  0.3733 -0.4957  0.4055
  611SOL    HW1 2732   1.915   3.088   2.956  0.2699 -1.1123  0.9270
  611SOL    HW2 2733   2.024   3.155   3.057  0.6513  1.1332 -0.8899
  612SOL     OW 2734   0.620   4.776   4.205 -0.8729  0.0191  0.4492
  612SOL    HW1 2735   0.653   4.747   4.294  0.5675 -0.6933 -0.2889
  612SOL    HW2 2736   0.602   4.875   4.207  0.2489  0.2237  1.2012
  613SOL     OW 2737   1.018   3.208   4.296  0.1521  0.0987  0.1866
  613SOL    HW1 2738   1.064   3.250   4.218  0.5008 -1.4536 -0.4787
  613SOL    HW2 2739   0.949   3.143   4.264  1.9795 -2.4244  1.0489
  614SOL     OW 2740   6.102   4.779   3.366 -0.1109  0.1474  0.5351
  614SOL    HW1 2741   6.078   4.708   3.433 -1.4520 -0.3397 -0.4207
  614SOL    HW2 2742   6.072   4.868   3.399  2.5258  0.5209  2.2442
  615SOL     OW 2743   4.515   7.000   3.181 -0.7965 -0.2296  0.3853
  615SOL    HW1 2744   4.491   6.947   3.262 -0.2076  0.1177  0.7915
  615SOL    HW2 2745   4.544   7.092   3.209 -2.2517  0.4904 -0.3226
  616SOL     OW 2746   1.401   6.933   1.416  0.1095  0.4810 -0.2481
  616SOL    HW1 2747   1.383   6.836   1.400  2.3019  0.2475 -1.7065
  616SOL    HW2 2748   1.332   6.988   1.368  0.6088 -0.3576 -2.0138
  617SOL     OW 2749   6.427   0.285   2.565 -0.8586 -0.3264 -0.2213
  617SOL    HW1 2750   6.420   0.333   2.478 -1.7494 -2.7861 -1.6067
  617SOL    HW2 2751   6.422   0.187   2.549  1.2278 -0.9730  2.4319
  618SOL     OW 2752   6.107   3.870   6.540  0.4504  0.1848  0.5494
  618SOL    HW1 2753   6.162   3.954   6.536 -1.5625  1.5279 -0.8467
  618SOL    HW2 2754   6.025   3.886   6.595  1.4187 -1.8520  2.7916
  619SOL     OW 2755   6.388   1.611   3.186  0.4182  0.2353  0.4965
  619SOL    HW1 2756   6.458   1.583   3.251  1.0463 -0.5616 -0.4952
  619SOL    HW2 2757   6.393   1.553   3.105 -1.5965 -0.0626  0.5222
  620SOL     OW 2758   4.661   0.108   0.924 -0.2452 -0.1434  0.2810
  620SOL    HW1 2759   4.703   0.035   0.979  1.2977 -0.3166 -1.0655
  620SOL    HW2 2760   4.670   0.195   0.973 -2.0318 -0.7725  1.8669
  621SOL     OW 2761   2.164   4.008   2.763 -0.0851 -0.1232 -0.3123
  621SOL    HW1 2762   2.206   4.077   2.705 -2.3739  1.1705 -0.5711
  621SOL    HW2 2763   2.131   3.932   2.706  0.4183 -0.3390 -0.3155
  622SOL     OW 2764   0.135   5.706   4.111  0.2691 -0.2252 -0.5625
  622SOL    HW1 2765   0.076   5.662   4.043 -1.0658 -0.3841  0.6725
  622SOL    HW2 2766   0.092   5.791   4.143  0.8334 -0.2013  0.1594
  623SOL     OW 2767   6.314   5.870   3.476  0.3313 -0.1709  0.1662
  623SOL    HW1 2768   6.334   5.938   3.547 -1.1102 -0.3998  0.8338
  623SOL    HW2 2769   6.217   5.846   3.479  0.3354 -0.5517 -1.5887
  624SOL     OW 2770   2.414   6.392   5.095  0.5127  0.6872  0.0914
  624SOL    HW1 2771   2.362   6.307   5.092 -0.4185  1.1226  2.1681
  624SOL    HW2 2772   2.410   6.431   5.187  1.3327  2.7393 -0.6669
  625SOL     OW 2773   2.157   3.254   3.886  0.4099 -0.1446  0.0244
  625SOL    HW1 2774   2.141   3.179   3.821  2.7570  0.1251 -0.9894
  625SOL    HW2 2775   2.198   3.331   3.837  3.5026 -0.4001  1.9628
  626SOL     OW 2776   5.526   4.113   2.668  0.2031  0.2224 -0.1481
  626SOL    HW1 2777   5.615   4.069   2.680 -0.9149 -2.2675 -0.3473
  626SOL    HW2 2778   5.538   4.211   2.657  3.0614 -0.2401 -1.9755
  627SOL     OW 2779   6.879   0.245   5.754  0.5462  0.3665  0.2654
  627SOL    HW1 2780   6.929   0.173   5.801 -0.2805 -0.0354  0.5548
  627SOL    HW2 2781   6.790   0.210   5.723  0.0518  1.3044  0.5631
  628SOL     OW 2782   5.864   6.615   6.966 -0.0916  0.3781 -0.4039
  628SOL    HW1 2783   5.846   6.646   7.059 -1.1941 -0.5239 -0.2904
  628SOL    HW2 2784   5.873   6.516   6.964 -1.3359  0.2540 -1.4140
  629SOL     OW 2785   3.511   6.674   0.035  0.0372  0.3274 -0.1112
  629SOL    HW1 2786   3.522   6.649   0.131  0.5344 -0.2779 -0.3166
  629SOL    HW2 2787   3.524   6.772   0.024 -2.1257  0.7720  0.7474
  630SOL     OW 2788   2.973   1.031   6.035 -0.0462 -0.3232 -0.1253
  630SOL    HW1 2789   2.985   0.983   5.949  3.3193 -0.2673  0.1704
  630SOL    HW2 2790   2.981   0.966   6.111 -0.7343 -0.0337  0.2064
  631SOL     OW 2791   1.281   0.967   6.953  0.3541  0.0450  0.0213
  631SOL    HW1 2792   1.313   1.012   6.869  1.8825 -2.4976 -0.8750
  631SOL    HW2 2793   1.196   1.010   6.984  0.6362  2.1371 -1.8636
  632SOL     OW 2794   2.483   5.365   1.591  0.5546 -0.0355 -0.3747
  632SOL    HW1 2795   2.510   5.293   1.527  1.5360  1.2924 -1.5218
  632SOL    HW2 2796   2.521   5.345   1.682 -0.5603 -1.7635 -0.2474
  633SOL     OW 2797   0.119   0.750   2.511  0.2140  0.1629  0.2387
  633SOL    HW1 2798   0.200   0.802   2.538  0.2473  0.5943 -0.6600
  633SOL    HW2 2799   0.100   0.766   2.414  0.7476 -2.1733 -0.3211
  634SOL     OW 2800   1.555   1.467   5.150  0.1362  0.6397 -0.5568
  634SOL    HW1 2801   1.606   1.383   5.168 -0.9167  0.5602  2.6867
  634SOL    HW2 2802   1.476   1.447   5.092  0.5883 -0.3501 -0.8476
  635SOL     OW 2803   3.615   1.895   6.241  0.4653  0.1800  0.0212
  635SOL    HW1 2804   3.713   1.876   6.242  0.7880  1.6726 -0.4341
  635SOL    HW2 2805   3.599   1.986   6.203 -1.1605 -0.3098 -0.5436
  636SOL     OW 2806   6.867   6.171   1.420 -0.4018  0.0991 -0.2430
  636SOL    HW1 2807   6.955   6.201   1.456  0.4022  0.2148 -2.1961
  636SOL    HW2 2808   6.872   6.162   1.321 -1.7516 -2.6991 -0.1683
  637SOL     OW 2809   3.813   4.337   1.621 -0.1763 -0.1236  0.7442
  637SOL    HW1 2810   3.724   4.382   1.610 -0.2616 -0.3754  0.3926
  637SOL    HW2 2811   3.884   4.407   1.627 -0.3119  0.0641  0.2539
  638SOL     OW 2812   5.438   6.643   4.949 -0.3056  0.4343  0.2783
  638SOL    HW1 2813   5.445   6.637   5.049  0.7261 -1.4994  0.1263
  638SOL    HW2 2814   5.492   6.721   4.917  0.1842  0.4740  1.1575
  639SOL     OW 2815   5.666   5.255   1.016  0.3123  0.2643  0.6537
  639SOL    HW1 2816   5.603   5.332   1.005 -0.6410 -0.6144 -0.4448
  639SOL    HW2 2817   5.717   5.242   0.931  1.7763  0.7614  1.4297
  640SOL     OW 2818   4.585   1.834   0.060 -0.1120 -0.1466  0.0932
  640SOL    HW1 2819   4.538   1.749   0.034 -0.7287 -0.2382  1.4282
  640SOL    HW2 2820   4.536   1.877   0.136  0.1798  1.4257 -0.5601
  641SOL     OW 2821   2.571   5.486   5.338 -0.2728  0.1751  1.2143
  641SOL    HW1 2822   2.515   5.407   5.364  1.5714 -1.7748 -0.3411
  641SOL    HW2 2823   2.576   5.492   5.238 -0.0501  2.0688  1.3040
  642SOL     OW 2824   1.096   1.773   0.941  0.1530  0.6092 -0.0350
  642SOL    HW1 2825   1.111   1.688   0.992  2.5565  0.3242 -1.0638
  642SOL    HW2 2826   1.079   1.751   0.845  0.1203  1.2760 -0.1845
  643SOL     OW 2827   2.011   3.840   3.844 -0.4668 -0.2428 -0.3280
  643SOL    HW1 2828   1.952   3.845   3.924 -0.6375 -0.0072 -0.4665
  643SOL    HW2 2829   1.956   3.852   3.761 -0.0409  1.4417 -0.4068
  644SOL     OW 2830   3.881   1.333   4.740 -0.4350 -0.2992 -0.1472
  644SOL    HW1 2831   3.865   1.429   4.715 -1.0075 -0.5550 -0.7871
  644SOL    HW2 2832   3.972   1.325   4.782 -0.7564  0.6667  0.7689
  645SOL     OW 2833   4.206   1.988   5.233 -0.3165 -0.6388 -0.0174
  645SOL    HW1 2834   4.115   1.990   5.274  0.6752  0.9060  2.3298
  645SOL    HW2 2835   4.274   2.019   5.300  1.4839  2.0911 -2.8093
  646SOL     OW 2836   3.339   2.686   6.831  0.0184 -0.0329 -0.4072
  646SOL    HW1 2837   3.379   2.631   6.905 -1.0119  0.2510  0.4021
  646SOL    HW2 2838   3.311   2.626   6.756 -0.5261 -0.5676  0.1998
  647SOL     OW 2839   2.181   0.793   6.069 -0.1418  0.0366  0.1644
  647SOL    HW1 2840   2.100   0.746   6.034  1.5709 -3.1105  0.0757
  647SOL    HW2 2841   2.253   0.791   6.000  1.7186 -2.0785  2.0143
  648SOL     OW 2842   1.253   2.452   1.582  0.8171  0.6128 -0.4758
  648SOL    HW1 2843   1.265   2.382   1.652 -1.3047  2.2644  1.6808
  648SOL    HW2 2844   1.327   2.519   1.587  0.5176  0.8844  0.4295
  649SOL     OW 2845   1.093   1.289   2.063  0.4170  0.0684  0.2056
  649SOL    HW1 2846   1.180   1.311   2.017  0.4302 -2.5565 -1.1671
  649SOL    HW2 2847   1.017   1.329   2.011  0.6686  0.7807  0.3666
  650SOL     OW 2848   5.970   3.455   0.604  0.3432 -0.6142  0.6900
  650SOL    HW1 2849   5.943   3.390   0.532 -1.2340 -0.0144  0.7012
  650SOL    HW2 2850   5.890   3.482   0.656  0.5008  2.9669 -0.6491
  651SOL     OW 2851   3.504   0.560   2.383  0.0141 -0.0199  0.2763
  651SOL    HW1 2852   3.468   0.500   2.454 -0.3668 -0.0913  0.0256
  651SOL    HW2 2853   3.438   0.632   2.364 -0.2750 -0.5054 -0.6191
  652SOL     OW 2854   4.634   2.066   2.978  0.5844  0.0655 -0.2933
  652SOL    HW1 2855   4.696   2.115   3.039  0.0661  0.5658 -0.1638
  652SOL    HW2 2856   4.664   1.970   2.971 -0.0806 -0.3483  1.7670
  653SOL     OW 2857   3.241   3.593   4.821 -0.3001 -0.2947 -0.2772
  653SOL    HW1 2858   3.230   3.631   4.729 -0.2505  1.6940  0.4870
  653SOL    HW2 2859   3.151   3.577   4.861 -0.4227  1.8022  0.4277
  654SOL     OW 2860   0.024   1.470   4.267 -0.2486  0.0450  0.6320
  654SOL    HW1 2861  -0.006   1.555   4.222 -1.1497  0.1605  1.4069
  654SOL    HW2 2862   0.123   1.461   4.259 -0.2792  0.5228 -0.5657
  655SOL     OW 2863   2.620   6.574   2.250 -0.5018 -0.0170 -0.4205
  655SOL    HW1 2864   2.542   6.601   2.194 -1.8221 -0.6460  1.0532
  655SOL    HW2 2865   2.589   6.516   2.326  1.6451 -1.9437 -0.9092
  656SOL     OW 2866   6.381   5.664   0.022 -0.8415  0.2538 -0.3488
  656SOL    HW1 2867   6.397   5.692   0.117  0.8795 -1.0519 -0.2136
  656SOL    HW2 2868   6.435   5.721  -0.039 -2.6102  1.6770 -0.6831
  657SOL     OW 2869   1.148   3.175   2.635  0.5688 -0.1331 -0.3243
  657SOL    HW1 2870   1.241   3.190   2.668  0.0239  0.0292  1.1843
  657SOL    HW2 2871   1.111   3.261   2.600  0.2455  0.2909  1.0333
  658SOL     OW 2872   5.793   1.173   6.160 -0.0384 -0.3850  0.2338
  658SOL    HW1 2873   5.860   1.110   6.122  0.8234  0.8009 -0.2769
  658SOL    HW2 2874   5.786   1.254   6.102 -0.8509  0.1648  1.0573
  659SOL     OW 2875   3.622   6.336   1.138 -0.3549  0.1993  0.4267
  659SOL    HW1 2876   3.626   6.288   1.050 -1.5519  0.5065  0.1838
  659SOL    HW2 2877   3.603   6.433   1.122 -0.5221  0.2663  1.0192
  660SOL     OW 2878   5.920   1.625   5.288  0.9420 -0.7136  0.0109
  660SOL    HW1 2879   5.895   1.721   5.280 -1.6104 -1.0705  2.4449
  660SOL    HW2 2880   5.869   1.571   5.220  2.3957 -0.4425 -1.3741
  661SOL     OW 2881   2.940   1.319   3.886 -0.2054  0.6947 -0.3761
  661SOL    HW1 2882   3.021   1.301   3.830 -0.2839  1.5564 -0.7827
  661SOL    HW2 2883   2.952   1.405   3.936 -0.3551  0.1966  0.5353
  662SOL     OW 2884   2.993   5.991   5.525 -0.0481  0.3708  0.0349
  662SOL    HW1 2885   3.054   6.066   5.550  0.7728 -0.4412  0.4765
  662SOL    HW2 2886   2.910   5.995   5.581  1.3186 -0.8286  2.2852
  663SOL     OW 2887   5.900   4.234   6.837 -1.1241 -0.7644 -0.2205
  663SOL    HW1 2888   5.993   4.229   6.872 -0.9219 -2.2439 -0.9132
  663SOL    HW2 2889   5.861   4.324   6.858  0.3238 -0.2576  0.3812
  664SOL     OW 2890   2.448   4.409   2.184 -0.2297  0.1370  0.9697
  664SOL    HW1 2891   2.544   4.434   2.187 -0.7453  2.3290  1.0849
  664SOL    HW2 2892   2.400   4.470   2.120 -1.2720 -1.9904 -0.3728
  665SOL     OW 2893   6.550   1.750   0.009  0.2112 -0.2882 -0.0766
  665SOL    HW1 2894   6.487   1.781  -0.062 -0.7929 -2.0619 -0.0163
  665SOL    HW2 2895   6.603   1.672  -0.024 -0.4467 -1.3049  1.1557
  666SOL     OW 2896   5.468   3.300   5.394 -0.0896  0.0977 -0.2924
  666SOL    HW1 2897   5.434   3.219   5.443 -1.6811  1.1774  0.4615
  666SOL    HW2 2898   5.393   3.364   5.380  1.5936  2.6720  1.4918
  667SOL     OW 2899   1.419   0.827   1.744 -0.1455  0.4920  0.0865
  667SOL    HW1 2900   1.337   0.795   1.696  0.8757  2.1643 -3.0941
  667SOL    HW2 2901   1.479   0.749   1.763 -1.7969 -0.5667  1.1925
  668SOL     OW 2902   5.576   0.554   3.878 -0.0738 -0.7250 -0.4995
  668SOL    HW1 2903   5.635   0.530   3.801  0.4888  0.0620 -0.3224
  668SOL    HW2 2904   5.625   0.615   3.941 -1.1597  0.1945 -0.5001
  669SOL     OW 2905   4.098   2.247   0.216 -0.5829  0.3418  0.2631
  669SOL    HW1 2906   4.041   2.175   0.256 -0.0798 -0.2554 -0.0662
  669SOL    HW2 2907   4.076   2.334   0.259 -0.6364 -0.1377  1.2527
  670SOL     OW 2908   3.732   6.876   2.414 -0.3694 -0.3728  0.2843
  670SOL    HW1 2909   3.748   6.778   2.399  0.7853 -0.0986 -0.4368
  670SOL    HW2 2910   3.766   6.927   2.335 -1.1616  0.6010  0.5569
  671SOL     OW 2911   0.303   3.505   1.025 -0.0532 -0.2055  0.6003
  671SOL    HW1 2912   0.349   3.419   1.003 -0.1957 -0.3677  0.9392
  671SOL    HW2 2913   0.204   3.493   1.019 -0.1176 -0.3813  1.7648
  672SOL     OW 2914   5.491   5.534   4.142  0.4046 -0.5264 -0.7100
  672SOL    HW1 2915   5.575   5.586   4.161  0.7876 -1.0505 -0.9417
  672SOL    HW2 2916   5.449   5.568   4.058  2.1924 -2.4025 -2.4965
  673SOL     OW 2917   5.673   6.364   4.533  0.1237 -0.5801  0.2358
  673SOL    HW1 2918   5.640   6.435   4.471  0.4083  0.4095  1.1929
  673SOL    HW2 2919   5.609   6.287   4.533  0.0897 -0.5847 -1.2318
  674SOL     OW 2920   5.568   4.207   3.858 -0.0076  0.2717  0.0625
  674SOL    HW1 2921   5.654   4.231   3.903  0.7338 -0.9169 -0.6563
  674SOL    HW2 2922   5.551   4.109   3.871 -0.1285  0.0469 -1.6053
  675SOL     OW 2923   5.109   4.160   3.023  0.1321 -0.1797  0.7004
  675SOL    HW1 2924   5.036   4.226   3.006  0.9979  1.2237  2.2071
  675SOL    HW2 2925   5.195   4.193   2.984  0.2666 -1.2015  0.0787
  676SOL     OW 2926   5.860   3.464   4.676 -0.4984 -0.3909  0.4201
  676SOL    HW1 2927   5.798   3.442   4.601 -0.4296  0.9314 -0.0521
  676SOL    HW2 2928   5.809   3.467   4.762 -0.8985 -0.3035  0.1818
  677SOL     OW 2929   5.484   5.369   4.579  0.1293  0.0271  0.2638
  677SOL    HW1 2930   5.542   5.290   4.597 -1.1135 -0.8742  0.3897
  677SOL    HW2 2931   5.458   5.412   4.666 -1.2135 -0.9371  0.3817
  678SOL     OW 2932   5.100   4.102   2.074  0.1182  0.1560  0.5300
  678SOL    HW1 2933   5.164   4.075   2.145 -0.0851  0.7830  0.9602
  678SOL    HW2 2934   5.148   4.154   2.003  0.0475  0.8434  0.9786
  679SOL     OW 2935   6.979   5.956   5.827  0.3749  0.2828 -0.4571
  679SOL    HW1 2936   6.992   6.022   5.754  0.4312 -0.1005 -0.8007
  679SOL    HW2 2937   6.902   5.984   5.884  1.8657  1.8949  0.8409
  680SOL     OW 2938   3.096   1.090   5.319 -0.8584 -0.5169 -0.4649
  680SOL    HW1 2939   3.087   1.103   5.418 -1.2967  1.0379 -0.6842
  680SOL    HW2 2940   3.047   1.163   5.271  2.7692  1.2660 -1.8424
  681SOL     OW 2941   4.154   1.675   5.353  0.0304 -0.1902 -0.1259
  681SOL    HW1 2942   4.126   1.580   5.360  3.1728 -1.2302 -0.0898
  681SOL    HW2 2943   4.097   1.722   5.285 -1.4146 -2.1083 -0.3242
  682SOL     OW 2944   6.742   1.357   2.232 -0.1434  0.7378  0.0838
  682SOL    HW1 2945   6.727   1.390   2.139  0.5006 -2.3819 -1.2611
  682SOL    HW2 2946   6.840   1.347   2.249 -0.0706  3.6172  2.1242
  683SOL     OW 2947   5.473   6.102   1.453  1.0797  0.1643 -0.6493
  683SOL    HW1 2948   5.439   6.008   1.448  0.3652  0.3124  0.8957
  683SOL    HW2 2949   5.466   6.144   1.362  0.2637 -0.8845 -1.0985
  684SOL     OW 2950   5.949   6.187   4.458 -0.1078  0.4854 -0.0050
  684SOL    HW1 2951   6.012   6.170   4.533 -0.4250  4.3554  1.3748
  684SOL    HW2 2952   5.865   6.135   4.472  0.9888 -1.2063  0.5941
  685SOL     OW 2953   3.082   3.454   1.365 -0.5866  0.2206 -0.1454
  685SOL    HW1 2954   3.006   3.518   1.371 -0.5747  0.3105 -0.8683
  685SOL    HW2 2955   3.047   3.363   1.343 -0.4028  0.5284 -1.8724
  686SOL     OW 2956   5.806   6.153   0.922  0.6888 -0.3706  0.1305
  686SOL    HW1 2957   5.789   6.069   0.869  0.4840 -0.5871  0.5355
  686SOL    HW2 2958   5.833   6.129   1.015  1.8296  0.0010 -0.0928
  687SOL     OW 2959   6.561   3.922   5.967  0.1705  0.7986  0.0186
  687SOL    HW1 2960   6.641   3.878   6.008 -1.6749  0.0396  3.1228
  687SOL    HW2 2961   6.560   4.019   5.993  0.8643  1.1953 -1.3653
  688SOL     OW 2962   3.398   6.560   3.849 -0.2963  0.3136 -0.1703
  688SOL    HW1 2963   3.350   6.481   3.885  1.6286 -1.4557 -1.2521
  688SOL    HW2 2964   3.367   6.580   3.756 -0.6499  0.7273  0.0332
  689SOL     OW 2965   4.308   5.062   2.862  0.7856  0.3422  0.2633
  689SOL    HW1 2966   4.234   5.075   2.796  0.5324  1.3860  0.7223
  689SOL    HW2 2967   4.370   5.141   2.859  0.6076  0.5526  1.4600
  690SOL     OW 2968   1.754   4.672   2.041  0.1185  0.3201  0.3024
  690SOL    HW1 2969   1.777   4.695   2.135  0.6100  2.3226 -0.2628
  690SOL    HW2 2970   1.836   4.643   1.992 -0.0081 -0.0473  0.3049
  691SOL     OW 2971   0.346   1.937   3.378 -0.0928  0.2519 -0.2813
  691SOL    HW1 2972   0.412   1.882   3.428 -1.0439 -0.7657 -0.1002
  691SOL    HW2 2973   0.374   2.033   3.379  1.8807 -0.2711 -1.0570
  692SOL     OW 2974   6.218   0.023   0.330  0.0631  0.4536 -0.3525
  692SOL    HW1 2975   6.146   0.071   0.381 -0.8972  0.3451 -1.5652
  692SOL    HW2 2976   6.193   0.017   0.234  1.7760  0.5197 -0.8371
  693SOL     OW 2977   1.329   1.179   2.668 -0.3735  0.1881  0.8847
  693SOL    HW1 2978   1.383   1.187   2.584 -1.4217 -1.4115  0.0130
  693SOL    HW2 2979   1.243   1.229   2.658 -0.4163  0.1547  1.0734
  694SOL     OW 2980   3.896   4.500   6.650  0.3274  0.3071 -0.1200
  694SOL    HW1 2981   3.971   4.544   6.700 -1.3148  3.7787 -0.4406
  694SOL    HW2 2982   3.822   4.477   6.713  1.0426 -1.9580 -0.0049
  695SOL     OW 2983   3.124   1.590   6.873 -0.2429  0.0133  0.7805
  695SOL    HW1 2984   3.113   1.525   6.798 -2.0155  0.1275  0.8824
  695SOL    HW2 2985   3.066   1.561   6.950 -1.4026  1.8753  0.6758
  696SOL     OW 2986   2.637   4.613   2.146  0.1306  0.5385  0.6606
  696SOL    HW1 2987   2.663   4.681   2.215  0.9577  1.0451 -0.1238
  696SOL    HW2 2988   2.705   4.613   2.072  0.4086 -1.4990  0.8603
  697SOL     OW 2989   6.852   3.623   0.096 -0.4430  0.1880 -0.0205
  697SOL    HW1 2990   6.928   3.609   0.159 -0.6369  1.7647  0.6029
  697SOL    HW2 2991   6.772   3.572   0.129  0.0520 -0.7178 -0.1755
  698SOL     OW 2992   0.469   4.768   1.393 -0.2492  0.6265  0.1213
  698SOL    HW1 2993   0.433   4.789   1.302 -1.6261  1.1318  0.7507
  698SOL    HW2 2994   0.439   4.838   1.458 -0.1996 -0.2908  1.1654
  699SOL     OW 2995   3.545   5.223   4.330 -0.0620 -0.5794 -0.6139
  699SOL    HW1 2996   3.460   5.197   4.377  0.2464 -1.5433 -0.5716
  699SOL    HW2 2997   3.612   5.253   4.397 -0.2076 -0.2601 -0.6069
  700SOL     OW 2998   1.285   1.644   1.926  0.1327 -0.8818 -0.6663
  700SOL    HW1 2999   1.336   1.559   1.910  0.7133 -0.5174 -0.7887
  700SOL    HW2 3000   1.277   1.660   2.024 -0.4993 -1.3848 -0.6330
  701SOL     OW 3001   6.224   2.832   4.972  0.7135  0.7062  0.1471
  701SOL    HW1 3002   6.270   2.827   4.884 -0.7109  0.0818 -0.5990
  701SOL    HW2 3003   6.163   2.911   4.973 -0.5376 -0.2259 -0.0963
  702SOL     OW 3004   0.281   4.053   6.679 -0.1966  0.0408  0.1732
  702SOL    HW1 3005   0.233   3.968   6.658  1.8373 -0.5816 -2.4452
  702SOL    HW2 3006   0.357   4.034   6.742  0.6396 -0.2345 -0.8985
  703SOL     OW 3007   3.322   4.924   5.677  0.4112  0.6096  0.2007
  703SOL    HW1 3008   3.380   4.842   5.680  0.7564  0.8778  1.4491
  703SOL    HW2 3009   3.377   5.002   5.648 -0.0261  0.3427 -1.4524
  704SOL     OW 3010   5.618   3.135   6.342 -0.6206 -0.1258  0.0447
  704SOL    HW1 3011   5.662   3.096   6.423 -0.0052  0.2478 -0.0972
  704SOL    HW2 3012   5.646   3.231   6.332  0.7018 -0.6142 -1.5489
  705SOL     OW 3013   0.096   4.000   4.167 -0.5320  0.4465  0.1531
  705SOL    HW1 3014   0.081   3.983   4.069  1.9533 -1.7603  0.0268
  705SOL    HW2 3015   0.145   4.086   4.179 -1.9982  1.3885 -0.3925
  706SOL     OW 3016   5.251   3.130   6.520  0.4686  0.2651  0.3199
  706SOL    HW1 3017   5.346   3.102   6.529  0.8963  1.6055  0.1413
  706SOL    HW2 3018   5.216   3.161   6.608 -0.2242 -1.4065  0.6775
  707SOL     OW 3019   6.461   3.405   1.314  0.1116  0.0237 -0.5301
  707SOL    HW1 3020   6.525   3.435   1.384  1.3479 -0.7210 -1.3121
  707SOL    HW2 3021   6.404   3.483   1.286  0.7901  0.7415  0.0381
  708SOL     OW 3022   1.101   0.331   6.711  0.4521  0.0175  0.4235
  708SOL    HW1 3023   1.011   0.297   6.686  1.3606 -1.5857 -0.8985
  708SOL    HW2 3024   1.140   0.273   6.783  0.6809  0.3051  0.5352
  709SOL     OW 3025   6.318   3.846   4.852  0.2015  0.0420  0.1526
  709SOL    HW1 3026   6.285   3.896   4.772 -0.0378 -0.9632 -0.3922
  709SOL    HW2 3027   6.404   3.800   4.830  0.6572  0.5574  0.7890
  710SOL     OW 3028   0.317   6.161   0.571  0.1457 -0.4472 -0.3119
  710SOL    HW1 3029   0.404   6.207   0.555  0.5194 -0.6883  0.9649
  710SOL    HW2 3030   0.262   6.215   0.636 -0.8288 -0.1035 -1.3780
  711SOL     OW 3031   4.239   5.862   0.973 -0.3284  0.1080 -0.4139
  711SOL    HW1 3032   4.269   5.771   1.000  1.9141  0.6707 -0.8139
  711SOL    HW2 3033   4.222   5.917   1.055 -0.2904 -0.2382 -0.1709
  712SOL     OW 3034   3.162   3.037   0.551  0.2692 -0.1039  0.0873
  712SOL    HW1 3035   3.230   3.051   0.624 -1.5209 -0.6194  1.9442
  712SOL    HW2 3036   3.105   3.119   0.543 -0.4938 -0.6098  0.3067
  713SOL     OW 3037   5.376   0.761   3.787 -0.4670  0.0751 -0.4418
  713SOL    HW1 3038   5.327   0.682   3.751  0.1927 -1.7231  2.2838
  713SOL    HW2 3039   5.472   0.737   3.802 -0.2615  1.3688  0.4744
  714SOL     OW 3040   4.581   6.508   1.997  0.4447  0.1580 -0.8216
  714SOL    HW1 3041   4.653   6.462   2.049 -0.6133 -1.2664 -0.5762
  714SOL    HW2 3042   4.492   6.483   2.034 -0.3162 -0.3759 -2.8912
  715SOL     OW 3043   1.805   5.068   1.132  0.3605 -0.1389 -0.1338
  715SOL    HW1 3044   1.782   5.061   1.229  0.4013 -0.8681 -0.1752
  715SOL    HW2 3045   1.842   4.982   1.100 -0.4523 -0.1834 -1.0102
  716SOL     OW 3046   3.544   2.022   5.228 -0.4727 -0.1676 -0.0953
  716SOL    HW1 3047   3.612   1.991   5.294  1.0772  1.8377 -0.6698
  716SOL    HW2 3048   3.508   2.111   5.257 -2.8872 -1.1502  0.1747
  717SOL     OW 3049   5.931   1.873   3.789  0.8015 -0.4669  0.2454
  717SOL    HW1 3050   6.019   1.836   3.757  1.0785 -1.3257  1.9042
  717SOL    HW2 3051   5.856   1.829   3.740  1.2582 -0.3501 -0.5743
  718SOL     OW 3052   0.599   2.757   6.117  0.5576 -0.5011 -0.6642
  718SOL    HW1 3053   0.611   2.766   6.018  0.2050 -0.9091 -0.7468
  718SOL    HW2 3054   0.507   2.724   6.137  1.0130 -1.6151 -0.2815
  719SOL     OW 3055   6.925   1.813   3.973 -0.1191 -0.1160 -0.2978
  719SOL    HW1 3056   6.849   1.779   3.917 -1.4014  0.4962  0.9953
  719SOL    HW2 3057   6.911   1.787   4.068  1.2288  0.1452 -0.0056
  720SOL     OW 3058   2.773   0.984   0.268 -0.1521  0.0095 -0.7729
  720SOL    HW1 3059   2.865   1.023   0.264  0.5013 -1.4773 -0.6886
  720SOL    HW2 3060   2.709   1.047   0.224  1.1710  0.3105 -2.3689
  721SOL     OW 3061   6.766   2.742   1.452 -0.0479 -0.7749 -0.0997
  721SOL    HW1 3062   6.745   2.647   1.473 -0.1246 -0.7276  0.0397
  721SOL    HW2 3063   6.864   2.759   1.468 -0.1444 -0.6887  0.4110
  722SOL     OW 3064   0.013   0.810   4.455 -0.2451 -0.5695  0.1020
  722SOL    HW1 3065   0.100   0.858   4.446 -0.5970 -0.1930 -1.6969
  722SOL    HW2 3066   0.029   0.717   4.487  0.6439  0.0096  1.4422
  723SOL     OW 3067   4.734   2.360   5.409 -0.1185  0.3851  0.2886
  723SOL    HW1 3068   4.731   2.453   5.372  1.2963 -0.1904 -1.4260
  723SOL    HW2 3069   4.665   2.350   5.480 -0.9949  2.4409 -0.2021
  724SOL     OW 3070   2.347   2.209   0.050  0.1598 -0.2090  0.2423
  724SOL    HW1 3071   2.422   2.147   0.028  1.9885  1.5284  1.1666
  724SOL    HW2 3072   2.268   2.188  -0.007  2.3438 -0.2060 -3.0963
  725SOL     OW 3073   6.786   4.366   6.397  0.5536 -0.6703  0.2299
  725SOL    HW1 3074   6.774   4.267   6.404  1.5613 -0.9332 -1.2537
  725SOL    HW2 3075   6.874   4.386   6.353  0.5677  0.8984  0.9147
  726SOL     OW 3076   5.891   5.343   4.665  0.2018 -0.1215 -0.2797
  726SOL    HW1 3077   5.868   5.350   4.762  0.3661  0.5274 -0.2858
  726SOL    HW2 3078   5.986   5.371   4.651 -0.1427  0.8451 -0.7748
  727SOL     OW 3079   0.966   5.866   2.262 -0.0354 -0.0200 -0.6299
  727SOL    HW1 3080   0.897   5.802   2.298 -1.4791  1.0146 -1.4673
  727SOL    HW2 3081   1.033   5.815   2.208 -0.1928 -1.0333  0.0881
  728SOL     OW 3082   5.903   2.894   5.407  0.3443  0.1101  0.1378
  728SOL    HW1 3083   5.971   2.853   5.346 -0.0838  0.4586 -0.5910
  728SOL    HW2 3084   5.865   2.976   5.364  0.2300  0.5223  0.9990
  729SOL     OW 3085   6.128   3.209   4.583  0.0209 -0.2922  0.2818
  729SOL    HW1 3086   6.078   3.173   4.662 -0.0974  0.4113  0.5361
  729SOL    HW2 3087   6.142   3.308   4.595  0.9006 -0.3607 -0.0957
  730SOL     OW 3088   6.344   0.517   6.370 -0.2779 -0.2522 -0.0883
  730SOL    HW1 3089   6.377   0.612   6.372 -0.1468 -0.3067  0.3423
  730SOL    HW2 3090   6.419   0.455   6.393 -0.6795 -0.3780  0.9150
  731SOL     OW 3091   5.380   4.867   5.107  0.4864 -0.4295 -0.7601
  731SOL    HW1 3092   5.328   4.782   5.112 -0.6240  0.0524 -2.8372
  731SOL    HW2 3093   5.453   4.858   5.040  1.3918 -0.2312  0.1766
  732SOL     OW 3094   6.646   1.251   5.430  0.3708  0.4818  0.0594
  732SOL    HW1 3095   6.565   1.306   5.448 -0.2275  1.0619 -3.6223
  732SOL    HW2 3096   6.644   1.168   5.486 -1.5560  1.5360  1.6604
  733SOL     OW 3097   5.176   4.507   0.642  0.2671  0.4532  0.0086
  733SOL    HW1 3098   5.191   4.421   0.593  1.6382  0.0700  1.0642
  733SOL    HW2 3099   5.196   4.495   0.739 -0.2503  1.7821  0.3077
  734SOL     OW 3100   0.760   4.413   2.777 -0.0855  0.1574  0.4324
  734SOL    HW1 3101   0.846   4.453   2.807  0.5988 -1.4403  0.7249
  734SOL    HW2 3102   0.693   4.416   2.851 -0.4395  1.7242  0.0918
  735SOL     OW 3103   3.858   1.016   1.258 -0.1280 -0.2014 -0.4929
  735SOL    HW1 3104   3.886   0.974   1.172  0.7094 -0.9009  0.1003
  735SOL    HW2 3105   3.933   1.011   1.324 -0.7399  0.3544  0.2714
  736SOL     OW 3106   6.376   3.466   4.642  0.1071  0.5362  0.0260
  736SOL    HW1 3107   6.286   3.486   4.603 -0.1875 -1.4472 -0.4550
  736SOL    HW2 3108   6.366   3.398   4.715  1.2622 -0.2171 -0.4840
  737SOL     OW 3109   4.591   2.851   0.139  0.8154 -0.5003  0.2454
  737SOL    HW1 3110   4.614   2.948   0.148  0.2727 -0.3795  0.3391
  737SOL    HW2 3111   4.543   2.821   0.221 -1.5505 -0.1297 -0.9254
  738SOL     OW 3112   0.289   2.264   2.803  0.0079  0.1329 -0.1660
  738SOL    HW1 3113   0.357   2.330   2.772  0.6597 -0.4335  0.0099
  738SOL    HW2 3114   0.243   2.298   2.886 -0.6430  0.9605 -0.8541
  739SOL     OW 3115   6.564   5.800   6.184 -0.4339  0.2706 -0.0254
  739SOL    HW1 3116   6.652   5.756   6.197 -0.1177  0.4483 -1.3377
  739SOL    HW2 3117   6.571   5.868   6.110 -1.9318 -0.5445 -0.9884
  740SOL     OW 3118   2.763   1.275   0.498 -0.6068 -0.3492 -0.2281
  740SOL    HW1 3119   2.671   1.252   0.465 -0.7819 -0.4896  0.3401
  740SOL    HW2 3120   2.765   1.267   0.597  0.2197 -1.0617 -0.2926
  741SOL     OW 3121   5.233   5.059   2.343  0.6971  0.2467 -0.4073
  741SOL    HW1 3122   5.225   5.143   2.396  0.8913  1.3844 -2.1041
  741SOL    HW2 3123   5.281   5.078   2.257 -1.8030 -0.9317 -2.2002
  742SOL     OW 3124   4.570   1.673   1.411 -0.1671 -0.6797  0.0971
  742SOL    HW1 3125   4.560   1.628   1.500 -0.2262 -1.3999 -0.2744
  742SOL    HW2 3126   4.584   1.605   1.340 -1.7040 -0.2175 -0.6835
  743SOL     OW 3127   2.738   0.450   4.449 -0.5725 -0.5106 -0.6258
  743SOL    HW1 3128   2.732   0.394   4.367 -0.2444  0.3355 -1.2332
  743SOL    HW2 3129   2.831   0.450   4.484 -0.9468 -1.9028  0.5127
  744SOL     OW 3130   3.711   2.761   0.230 -0.1590 -0.2214  0.0588
  744SOL    HW1 3131   3.626   2.813   0.223 -0.6126 -0.7031  1.5976
  744SOL    HW2 3132   3.701   2.690   0.299  1.1259 -1.0551 -0.5764
  745SOL     OW 3133   3.255   2.034   5.153  0.2945  0.0048 -0.6240
  745SOL    HW1 3134   3.353   2.045   5.141  0.1606 -0.0663 -1.9254
  745SOL    HW2 3135   3.206   2.108   5.107 -0.2983 -0.8935 -1.4929
  746SOL     OW 3136   4.037   4.794   3.112  0.0165 -0.0884 -0.0852
  746SOL    HW1 3137   3.939   4.817   3.113 -0.4792 -1.8477 -1.2369
  746SOL    HW2 3138   4.060   4.744   3.196 -0.0664  0.3412  0.1954
  747SOL     OW 3139   2.452   4.663   3.183 -0.2581  0.0905 -0.1934
  747SOL    HW1 3140   2.470   4.701   3.092 -0.2979  0.1909 -0.1597
  747SOL    HW2 3141   2.380   4.594   3.176 -2.9013  2.6218  0.2769
  748SOL     OW 3142   2.666   3.986   6.282 -0.4126 -0.3292 -0.0979
  748SOL    HW1 3143   2.585   3.946   6.324 -1.3482  1.1146 -0.4767
  748SOL    HW2 3144   2.650   4.082   6.261  2.5133  1.0268  2.8925
  749SOL     OW 3145   6.625   1.837   4.137  0.3709 -0.2427 -0.7062
  749SOL    HW1 3146   6.669   1.752   4.166  1.0893 -0.5167 -2.4366
  749SOL    HW2 3147   6.575   1.877   4.213  1.5460 -1.2485  0.6428
  750SOL     OW 3148   1.990   6.336   6.350 -0.3031 -0.3286 -0.2269
  750SOL    HW1 3149   1.971   6.395   6.271  1.6509  0.8753  0.1108
  750SOL    HW2 3150   2.040   6.389   6.419 -0.8075 -1.7161  1.2544
  751SOL     OW 3151   4.469   3.530   5.586  0.3045 -0.2448  0.4289
  751SOL    HW1 3152   4.490   3.610   5.642 -4.0699  1.0692  0.6022
  751SOL    HW2 3153   4.457   3.559   5.491 -2.7358 -0.2365  0.7249
  752SOL     OW 3154   6.099   5.531   0.838 -0.2316 -0.4340  0.2875
  752SOL    HW1 3155   6.169   5.463   0.861  1.4390  1.3324  0.6883
  752SOL    HW2 3156   6.031   5.489   0.779  1.4487 -2.1125 -0.5887
  753SOL     OW 3157   2.764   6.586   1.063  0.4119 -0.4766  0.2799
  753SOL    HW1 3158   2.810   6.506   1.025 -0.1089 -0.7594  0.2333
  753SOL    HW2 3159   2.707   6.559   1.140  0.8372 -0.0266  0.7540
  754SOL     OW 3160   3.916   5.405   2.165 -0.4265  0.2435 -0.8718
  754SOL    HW1 3161   3.928   5.324   2.108  1.3414 -0.5503  0.5174
  754SOL    HW2 3162   3.848   5.387   2.236  0.3021 -0.2172 -0.2774
  755SOL     OW 3163   5.964   0.184   0.469 -0.2630 -0.5673  0.5670
  755SOL    HW1 3164   5.953   0.204   0.567  1.2885 -0.6328  0.7832
  755SOL    HW2 3165   5.911   0.103   0.445 -1.6307  0.1492  1.0721
  756SOL     OW 3166   3.327   5.198   3.205  0.2786  0.6935  0.0198
  756SOL    HW1 3167   3.327   5.100   3.182 -0.8587  0.1986  1.9145
  756SOL    HW2 3168   3.250   5.242   3.160 -0.3897  0.2724  0.7137
  757SOL     OW 3169   3.535   6.082   1.634 -0.3899  0.2454 -0.4223
  757SOL    HW1 3170   3.531   6.182   1.623 -1.7247  0.1303 -1.1385
  757SOL    HW2 3171   3.461   6.052   1.694  0.7340 -0.2205  0.7803
  758SOL     OW 3172   3.926   0.518   4.627 -0.3783  0.5794 -0.1932
  758SOL    HW1 3173   3.986   0.442   4.602 -0.0218  0.7261  0.1982
  758SOL    HW2 3174   3.956   0.556   4.715 -1.8863 -0.2263  0.7120
  759SOL     OW 3175   3.643   4.940   4.594 -0.6837  0.0410  0.2737
  759SOL    HW1 3176   3.650   5.030   4.635 -2.5229 -0.6097  2.1764
  759SOL    HW2 3177   3.581   4.883   4.648  0.0367 -2.2226 -1.1398
  760SOL     OW 3178   0.078   0.301   1.605  0.1265  0.3847 -0.5155
  760SOL    HW1 3179   0.177   0.315   1.605  0.3202 -0.8891 -0.8961
  760SOL    HW2 3180   0.033   0.388   1.583  1.2245  0.6019 -2.1512
  761SOL     OW 3181   3.314   4.732   6.055  0.6971 -0.0961 -0.6315
  761SOL    HW1 3182   3.397   4.686   6.023  0.7848 -0.4452  0.0649
  761SOL    HW2 3183   3.337   4.823   6.090  0.9204 -0.4922  0.2818
  762SOL     OW 3184   0.986   2.514   4.018  0.2577  0.2773  0.0828
  762SOL    HW1 3185   0.951   2.452   4.088 -0.0235 -0.7997 -0.9676
  762SOL    HW2 3186   1.082   2.493   4.001  0.0746 -0.1127 -0.5070
  763SOL     OW 3187   0.833   3.833   0.870  0.4124  0.3082 -0.2964
  763SOL    HW1 3188   0.749   3.800   0.914  0.3841  0.1450 -0.4716
  763SOL    HW2 3189   0.867   3.764   0.806 -0.0262  0.8879 -1.1877
  764SOL     OW 3190   3.990   0.968   0.797  0.5321 -0.0248 -0.0215
  764SOL    HW1 3191   3.957   1.052   0.754 -2.2939 -0.6748  0.6913
  764SOL    HW2 3192   3.971   0.890   0.737 -0.6570 -0.5767  1.0133
  765SOL     OW 3193   6.142   1.849   3.010  0.1829  0.4101  0.2287
  765SOL    HW1 3194   6.107   1.771   2.958  0.2294  0.1703  0.5538
  765SOL    HW2 3195   6.241   1.840   3.021 -0.0864 -0.8128  2.3994
  766SOL     OW 3196   1.929   6.099   3.017 -0.1679 -0.4970 -0.4035
  766SOL    HW1 3197   1.980   6.176   3.055  2.4555 -0.7680 -3.0996
  766SOL    HW2 3198   1.870   6.061   3.088  0.7123  2.0610  1.8710
  767SOL     OW 3199   4.760   2.010   6.422  0.1824  0.0276  0.0713
  767SOL    HW1 3200   4.827   2.043   6.356  0.7650  0.1039  0.6976
  767SOL    HW2 3201   4.668   2.020   6.383  0.5753 -1.0356 -1.2076
  768SOL     OW 3202   0.905   2.555   1.088 -0.2308  0.2342  0.3399
  768SOL    HW1 3203   0.869   2.628   1.146 -1.5036 -0.3844  0.3577
  768SOL    HW2 3204   0.862   2.468   1.113  1.0337 -0.4851  0.1131
  769SOL     OW 3205   2.194   6.663   1.555 -0.7564  0.0014 -0.0769
  769SOL    HW1 3206   2.235   6.673   1.646 -0.8777 -0.5519  0.0389
  769SOL    HW2 3207   2.258   6.700   1.487 -0.2072 -0.5390  0.1337
  770SOL     OW 3208   5.694   4.111   1.778 -0.6115 -0.4369 -0.1718
  770SOL    HW1 3209   5.728   4.039   1.717  0.0904 -0.5495  0.3353
  770SOL    HW2 3210   5.611   4.079   1.824 -0.3529 -0.8948 -0.0147
  771SOL     OW 3211   3.852   6.547   6.523  0.1487 -0.2319  0.3232
  771SOL    HW1 3212   3.844   6.603   6.606  2.1182 -0.3638  0.6503
  771SOL    HW2 3213   3.872   6.453   6.549 -0.2241 -0.4917 -0.3080
  772SOL     OW 3214   5.105   1.728   6.243 -0.4640  0.2101 -0.7676
  772SOL    HW1 3215   5.105   1.828   6.251 -2.6734  0.1248  1.7172
  772SOL    HW2 3216   5.017   1.692   6.275  1.1858 -2.6891  0.9400
  773SOL     OW 3217   6.745   6.106   4.574 -0.1443 -0.1626 -0.4001
  773SOL    HW1 3218   6.776   6.095   4.479  0.6431  0.4343 -0.2249
  773SOL    HW2 3219   6.820   6.085   4.636 -0.0001  1.4754  0.0311
  774SOL     OW 3220   1.637   2.639   3.053  0.0838 -0.1022 -0.4907
  774SOL    HW1 3221   1.733   2.667   3.048 -0.1185  1.0137  1.0771
  774SOL    HW2 3222   1.583   2.692   2.987  0.6091 -1.2223 -1.8726
  775SOL     OW 3223   1.801   0.672   5.479 -0.6263  0.3619  0.4444
  775SOL    HW1 3224   1.886   0.619   5.484  0.0294  1.5158  2.2088
  775SOL    HW2 3225   1.724   0.609   5.472  0.1735 -0.8496  1.8451
  776SOL     OW 3226   4.689   6.708   0.480  0.1873 -0.3792  0.5788
  776SOL    HW1 3227   4.606   6.659   0.453  1.0713 -0.9262 -1.3715
  776SOL    HW2 3228   4.698   6.790   0.423 -0.0058  0.7700  2.1424
  777SOL     OW 3229   3.066   4.796   1.116 -0.0281 -0.0356 -0.1458
  777SOL    HW1 3230   3.063   4.766   1.211 -1.9970 -0.7681 -0.3936
  777SOL    HW2 3231   3.099   4.721   1.059  1.1120  0.3902 -0.0597
  778SOL     OW 3232   5.041   5.710   0.534 -0.0266  0.4044 -0.3549
  778SOL    HW1 3233   5.076   5.619   0.555  0.6730  0.2269 -2.0999
  778SOL    HW2 3234   4.975   5.738   0.604 -0.3405 -1.4819  0.1529
  779SOL     OW 3235   1.312   6.668   1.424  0.5038 -0.4953 -0.4938
  779SOL    HW1 3236   1.334   6.599   1.492  0.5701  1.9450  2.1193
  779SOL    HW2 3237   1.234   6.637   1.369  0.2652 -2.4231  0.8609
  780SOL     OW 3238   4.507   3.979   1.187 -0.0399 -0.6294 -0.4776
  780SOL    HW1 3239   4.553   4.064   1.163  2.3063 -2.0384 -1.3219
  780SOL    HW2 3240   4.540   3.946   1.275  1.2016 -2.0266 -1.4200
  781SOL     OW 3241   4.790   4.048   4.334 -0.2701 -0.1774 -0.5551
  781SOL    HW1 3242   4.707   4.048   4.389  0.9743  1.3473  1.4343
  781SOL    HW2 3243   4.839   3.961   4.347  0.1155  0.2500  0.9427
  782SOL     OW 3244   5.462   2.250   3.727 -0.4338 -0.3371 -0.3779
  782SOL    HW1 3245   5.475   2.340   3.687 -2.0734 -0.6880 -1.7755
  782SOL    HW2 3246   5.483   2.180   3.659  1.0438 -1.0615  0.7592
  783SOL     OW 3247   4.827   2.440   3.797 -0.1326 -0.2269  0.2442
  783SOL    HW1 3248   4.766   2.455   3.719 -0.6396 -0.6446  0.5511
  783SOL    HW2 3249   4.774   2.446   3.882 -0.1619 -2.4862  0.4586
  784SOL     OW 3250   0.680   6.947   5.658 -0.1417  0.3994  0.4441
  784SOL    HW1 3251   0.594   6.916   5.618  0.2051  1.0376 -0.8459
  784SOL    HW2 3252   0.752   6.880   5.639 -0.2601  0.0283  1.2358
  785SOL     OW 3253   6.103   3.097   5.366  0.3558  0.0531 -0.8103
  785SOL    HW1 3254   6.020   3.041   5.359  0.9336 -1.2052  1.5115
  785SOL    HW2 3255   6.097   3.156   5.446  1.6353  0.0498 -0.6853
  786SOL     OW 3256   2.796   1.254   5.502  0.2628 -0.1806 -0.3849
  786SOL    HW1 3257   2.845   1.323   5.556  2.1222  0.2018 -2.4310
  786SOL    HW2 3258   2.767   1.293   5.415  0.3076 -1.6533 -1.1025
  787SOL     OW 3259   5.987   0.415   4.498 -0.3558  0.0430  0.5592
  787SOL    HW1 3260   5.941   0.452   4.579 -1.1367 -1.3893  0.7887
  787SOL    HW2 3261   5.971   0.317   4.491 -1.0066  0.2414 -1.7895
  788SOL     OW 3262   4.596   2.855   1.099  0.0731 -0.0794  0.2422
  788SOL    HW1 3263   4.504   2.838   1.064  0.0857  0.0301  0.1560
  788SOL    HW2 3264   4.663   2.806   1.044  0.3429  2.0946 -1.5347
  789SOL     OW 3265   5.095   3.879   5.393  0.3599 -0.0165 -0.5024
  789SOL    HW1 3266   5.066   3.813   5.462  0.3625  1.6012  1.1225
  789SOL    HW2 3267   5.035   3.958   5.396  2.5910  1.7536  0.3187
  790SOL     OW 3268   3.807   5.960   6.132 -0.5472  0.3955  0.3539
  790SOL    HW1 3269   3.732   5.953   6.066 -0.0149 -0.7784 -0.1655
  790SOL    HW2 3270   3.895   5.955   6.083 -0.1348  0.7634  1.0419
  791SOL     OW 3271   6.425   5.273   4.507 -0.4233  0.0039 -0.1488
  791SOL    HW1 3272   6.483   5.319   4.574 -0.7314  0.4298 -0.1738
  791SOL    HW2 3273   6.472   5.191   4.473 -0.5482 -0.6124  1.1016
  792SOL     OW 3274   0.284   4.394   0.095 -0.1842 -0.1160 -0.0406
  792SOL    HW1 3275   0.283   4.358   0.002  0.0850 -0.4767  0.0964
  792SOL    HW2 3276   0.342   4.337   0.153  0.8239  0.9419  0.0195
  793SOL     OW 3277   6.094   3.157   2.456  0.3856 -0.5307 -0.2805
  793SOL    HW1 3278   6.024   3.109   2.403  0.9789 -2.2883  0.4587
  793SOL    HW2 3279   6.164   3.192   2.394  0.2937 -1.2263 -0.7873
  794SOL     OW 3280   4.183   0.388   0.140  0.7036 -0.2241  0.0381
  794SOL    HW1 3281   4.108   0.450   0.164 -0.9941 -1.8942 -0.6793
  794SOL    HW2 3282   4.226   0.420   0.055  1.1431  1.0000  0.6907
  795SOL     OW 3283   5.318   5.736   0.642 -0.5167 -0.4113 -0.1345
  795SOL    HW1 3284   5.245   5.804   0.646 -0.3052 -0.0348 -1.8601
  795SOL    HW2 3285   5.298   5.662   0.707 -1.9785  0.1234  0.0627
  796SOL     OW 3286   3.983   3.815   3.926 -0.2673 -0.1943 -0.1453
  796SOL    HW1 3287   3.943   3.762   3.853 -0.8585 -0.7493  0.5676
  796SOL    HW2 3288   3.985   3.912   3.900 -0.8393 -0.3334 -0.7187
  797SOL     OW 3289   2.237   1.310   1.199 -1.1194 -0.1780  0.0174
  797SOL    HW1 3290   2.152   1.362   1.199 -0.1180  1.7016 -2.7899
  797SOL    HW2 3291   2.220   1.217   1.166 -2.3102 -0.4622  1.3273
  798SOL     OW 3292   0.791   3.944   5.181  0.0465 -0.0309  0.6236
  798SOL    HW1 3293   0.793   3.906   5.088 -1.3723  0.5971  0.3058
  798SOL    HW2 3294   0.857   4.018   5.188 -1.4343  1.5166 -0.6643
  799SOL     OW 3295   6.249   5.505   4.924 -0.0184  0.4468  0.3563
  799SOL    HW1 3296   6.188   5.446   4.871 -1.1874  3.8617 -2.4390
  799SOL    HW2 3297   6.341   5.464   4.927 -0.6374 -1.3077 -1.8262
  800SOL     OW 3298   4.270   6.557   2.432  0.7444  0.2133  0.2757
  800SOL    HW1 3299   4.246   6.546   2.528  2.0178  0.4460  0.6368
  800SOL    HW2 3300   4.347   6.497   2.410 -0.4623 -0.9528 -0.9978
  801SOL     OW 3301   4.038   3.782   4.627  0.1568 -0.5412  0.3624
  801SOL    HW1 3302   4.043   3.856   4.560  4.4171 -2.9826 -2.5158
  801SOL    HW2 3303   4.038   3.694   4.579 -0.8880 -2.4928  3.6471
  802SOL     OW 3304   4.788   4.041   3.793 -0.5113  0.8757  0.2095
  802SOL    HW1 3305   4.765   4.052   3.890  0.0111 -0.1506  0.4675
  802SOL    HW2 3306   4.868   4.097   3.772  0.0872  0.2155  0.6727
  803SOL     OW 3307   3.931   5.164   4.031 -0.4105 -0.3652  0.4392
  803SOL    HW1 3308   3.910   5.075   4.072 -0.2718 -0.7028 -0.2074
  803SOL    HW2 3309   4.016   5.158   3.979  0.2979  0.4941  1.4691
  804SOL     OW 3310   5.253   5.293   2.486  0.1819 -0.3403  0.2254
  804SOL    HW1 3311   5.348   5.294   2.453 -0.6995 -0.0287 -2.6462
  804SOL    HW2 3312   5.217   5.386   2.482 -1.1903 -0.9043 -2.0028
  805SOL     OW 3313   2.512   7.001   4.483  0.0383 -0.6076  0.1362
  805SOL    HW1 3314   2.590   7.054   4.452  0.3384 -1.5022 -0.6869
  805SOL    HW2 3315   2.470   7.046   4.562 -1.9947  2.8738 -2.6653
  806SOL     OW 3316   0.850   6.502   5.495  0.0880  0.1095  0.2842
  806SOL    HW1 3317   0.886   6.472   5.406  1.3105  0.8161  0.5181
  806SOL    HW2 3318   0.919   6.486   5.565 -0.1463  1.2925  0.7990
  807SOL     OW 3319   5.868   5.587   3.209  0.3887 -0.4758  0.7583
  807SOL    HW1 3320   5.829   5.500   3.177  0.2081  0.1236 -0.7100
  807SOL    HW2 3321   5.822   5.615   3.293 -0.6952 -0.9799  0.3550
  808SOL     OW 3322   5.409   5.952   4.645  0.1246  0.4714 -0.1316
  808SOL    HW1 3323   5.411   5.915   4.552  2.5514 -1.2168  0.5027
  808SOL    HW2 3324   5.416   6.052   4.642  4.2915  0.3120 -1.7877
  809SOL     OW 3325   5.618   5.753   4.678  0.8262  0.4455  0.2056
  809SOL    HW1 3326   5.625   5.720   4.772 -1.2254 -1.1122 -0.1118
  809SOL    HW2 3327   5.544   5.819   4.670  0.4801 -0.0058 -0.4420
  810SOL     OW 3328   0.005   0.412   0.697  0.4911  0.0462  0.0508
  810SOL    HW1 3329   0.048   0.322   0.707  2.2615  0.8726  0.1506
  810SOL    HW2 3330   0.017   0.464   0.782 -0.2585  0.4909 -0.1099
  811SOL     OW 3331   4.909   5.771   1.159  0.3357 -1.0046 -0.4483
  811SOL    HW1 3332   4.889   5.780   1.061 -2.1471 -0.0495  0.0498
  811SOL    HW2 3333   4.855   5.696   1.196  0.8624 -1.0216  0.2881
  812SOL     OW 3334   5.698   6.794   1.633  0.4302 -0.0197  0.2670
  812SOL    HW1 3335   5.715   6.697   1.645  2.7042  0.3192  0.2816
  812SOL    HW2 3336   5.763   6.832   1.567  0.4208  1.7065  1.1690
  813SOL     OW 3337   3.631   6.776   2.669  0.2755  0.4328 -0.6816
  813SOL    HW1 3338   3.555   6.711   2.661 -1.3531  2.0348  0.8712
  813SOL    HW2 3339   3.651   6.815   2.579 -0.2321 -0.5383 -1.2323
  814SOL     OW 3340   2.453   2.156   0.920  0.1416  0.0441 -0.1479
  814SOL    HW1 3341   2.425   2.251   0.906 -1.0955 -0.1754  0.6533
  814SOL    HW2 3342   2.466   2.138   1.018 -1.1920 -0.9893 -0.1220
  815SOL     OW 3343   1.375   6.124   6.151 -0.1396 -0.1026  0.0079
  815SOL    HW1 3344   1.398   6.197   6.215  0.0587  1.5562 -1.8711
  815SOL    HW2 3345   1.289   6.081   6.179  1.6471 -1.9278  3.3750
  816SOL     OW 3346   6.298   0.578   5.624 -0.0623 -0.0799 -0.7160
  816SOL    HW1 3347   6.384   0.537   5.596 -0.2256 -0.8905 -0.0311
  816SOL    HW2 3348   6.281   0.660   5.568  0.7426 -0.3702 -1.4030
  817SOL     OW 3349   0.422   3.778   3.159  0.3199 -0.3466  0.4409
  817SOL    HW1 3350   0.403   3.786   3.257 -0.2902  0.0195  0.2988
  817SOL    HW2 3351   0.458   3.864   3.124 -1.2477  0.1614 -0.0219
  818SOL     OW 3352   3.705   1.229   3.160  0.4578 -0.1416  0.5673
  818SOL    HW1 3353   3.688   1.219   3.258 -0.9618  0.8336  0.4474
  818SOL    HW2 3354   3.653   1.159   3.110  1.5256 -0.9189  0.5168
  819SOL     OW 3355   0.946   6.693   6.008 -0.3365 -0.1523  0.0403
  819SOL    HW1 3356   0.889   6.642   5.944 -0.6968  0.0057  0.2274
  819SOL    HW2 3357   0.949   6.645   6.096 -1.5065  0.6296  0.5422
  820SOL     OW 3358   2.996   6.605   5.171 -0.4298  0.1403 -0.1018
  820SOL    HW1 3359   2.962   6.665   5.099  0.4620 -1.0162 -1.5550
  820SOL    HW2 3360   3.096   6.607   5.173 -0.3202 -1.8988 -0.8047
  821SOL     OW 3361   5.965   2.753   1.819 -0.2579 -0.2050  0.2904
  821SOL    HW1 3362   5.867   2.739   1.803 -0.1586 -0.7084  0.1126
  821SOL    HW2 3363   6.010   2.775   1.732  0.0947 -1.8282  0.0329
  822SOL     OW 3364   3.546   2.425   6.693  0.5833  0.0201  0.6872
  822SOL    HW1 3365   3.503   2.510   6.663  1.0324  0.1511  0.4025
  822SOL    HW2 3366   3.490   2.348   6.665  0.3674  0.2065  0.6065
  823SOL     OW 3367   1.047   1.600   0.715  0.0127 -0.1781  0.5269
  823SOL    HW1 3368   1.130   1.603   0.659  0.4167 -0.2012  1.1066
  823SOL    HW2 3369   0.969   1.630   0.661  0.1495 -1.4663 -0.4608
  824SOL     OW 3370   4.740   4.362   2.659 -0.3112  0.1474  0.1382
  824SOL    HW1 3371   4.689   4.415   2.592  0.3708 -0.3282 -0.7843
  824SOL    HW2 3372   4.759   4.271   2.623 -1.5938 -0.8209  1.7506
  825SOL     OW 3373   1.772   4.700   2.538  0.4661  0.4242  0.3537
  825SOL    HW1 3374   1.703   4.721   2.608 -1.6186 -0.5934 -1.2841
  825SOL    HW2 3375   1.824   4.619   2.566  0.0167  0.3306  0.9524
  826SOL     OW 3376   4.542   6.800   6.114  0.3362 -0.4061  0.1403
  826SOL    HW1 3377   4.485   6.772   6.191  0.2913 -1.6811 -0.3270
  826SOL    HW2 3378   4.616   6.734   6.102  0.7202  0.1321 -0.4974
  827SOL     OW 3379   2.632   5.980   5.417 -0.5985 -0.0266  1.0282
  827SOL    HW1 3380   2.661   5.968   5.512 -0.6707 -1.2676  0.9095
  827SOL    HW2 3381   2.701   5.940   5.356 -0.3625  1.1009  0.5269
  828SOL     OW 3382   6.322   6.352   5.051 -0.0336 -0.1650 -0.0762
  828SOL    HW1 3383   6.315   6.306   4.962  2.3077  0.8530 -0.8699
  828SOL    HW2 3384   6.418   6.353   5.080 -0.6411  0.2832  2.0829
  829SOL     OW 3385   6.255   3.936   6.192  0.0374 -0.1193 -0.0188
  829SOL    HW1 3386   6.205   3.957   6.108  2.8159 -0.0875 -1.7774
  829SOL    HW2 3387   6.299   4.018   6.227 -0.2526 -0.3479  0.9188
  830SOL     OW 3388   0.497   5.099   1.852 -0.0944  0.2955 -0.6953
  830SOL    HW1 3389   0.514   5.151   1.936 -1.1095  3.1475 -2.1328
  830SOL    HW2 3390   0.427   5.145   1.798  0.6286 -1.3636 -3.2078
  831SOL     OW 3391   5.339   7.012   3.128  0.0775  0.4513  0.1654
  831SOL    HW1 3392   5.256   7.055   3.094  0.7393  1.6174 -0.0083
  831SOL    HW2 3393   5.348   7.030   3.226 -2.6866 -4.2516  1.6077
  832SOL     OW 3394   0.977   0.593   3.760 -0.1813  0.5501  0.0744
  832SOL    HW1 3395   0.974   0.493   3.767 -1.0766  0.4783 -1.1403
  832SOL    HW2 3396   1.071   0.622   3.747  0.2514 -0.0256  1.6455
  833SOL     OW 3397   2.221   1.745   2.087  0.1545 -0.3847  0.3508
  833SOL    HW1 3398   2.255   1.654   2.112  0.8553  0.1368  1.3801
  833SOL    HW2 3399   2.242   1.809   2.161  0.8151  0.8906 -0.9000
  834SOL     OW 3400   1.522   2.090   0.144 -0.9266  0.2426 -0.1042
  834SOL    HW1 3401   1.595   2.060   0.083 -0.6566  1.8542 -0.6296
  834SOL    HW2 3402   1.468   2.011   0.174 -0.7231 -0.6601 -1.9766
  835SOL     OW 3403   5.481   5.529   6.631 -0.5001 -0.2404 -0.3451
  835SOL    HW1 3404   5.559   5.489   6.678 -1.4382 -1.2684  0.4000
  835SOL    HW2 3405   5.496   5.627   6.618  0.3266 -0.1683  0.9908
  836SOL     OW 3406   0.228   2.405   3.015  0.2855  0.6457 -0.9740
  836SOL    HW1 3407   0.297   2.475   2.998  1.6856 -0.2690  0.5706
  836SOL    HW2 3408   0.141   2.449   3.040  0.7340  1.8114 -1.3913
  837SOL     OW 3409   0.672   0.107   6.201 -0.2999 -0.1961 -0.4052
  837SOL    HW1 3410   0.706   0.014   6.186 -0.3533 -0.2059 -0.4643
  837SOL    HW2 3411   0.750   0.170   6.209 -0.2507 -0.3126  0.0696
  838SOL     OW 3412   4.484   2.452   4.196 -0.1219  0.0651  0.2211
  838SOL    HW1 3413   4.535   2.414   4.273  0.2711  1.0609  0.4671
  838SOL    HW2 3414   4.498   2.551   4.193 -1.7811  0.3155  0.0939
  839SOL     OW 3415   1.983   6.772   1.680  0.1891 -0.1988 -0.2455
  839SOL    HW1 3416   2.032   6.723   1.608  0.4030 -0.6398  0.1957
  839SOL    HW2 3417   2.021   6.747   1.769 -2.2822 -2.2930  0.3117
  840SOL     OW 3418   0.803   0.896   1.365  0.1441  0.1175 -0.5422
  840SOL    HW1 3419   0.798   0.981   1.314 -0.8026  0.1994 -0.3219
  840SOL    HW2 3420   0.748   0.903   1.448  2.3957  0.3338  1.0240
  841SOL     OW 3421   6.328   2.146   6.924  0.2632 -0.0407  0.3080
  841SOL    HW1 3422   6.277   2.227   6.894  0.3571 -0.1075 -0.0460
  841SOL    HW2 3423   6.426   2.163   6.912  0.3357  0.1569  1.1591
  842SOL     OW 3424   6.858   6.393   3.810 -0.1493  0.4100  0.5981
  842SOL    HW1 3425   6.933   6.413   3.747 -0.5115 -1.3076 -0.4400
  842SOL    HW2 3426   6.776   6.442   3.780  0.3342  1.6943  1.3029
  843SOL     OW 3427   1.316   3.767   3.656 -0.1627  0.2705 -0.1632
  843SOL    HW1 3428   1.300   3.689   3.595  0.9482  0.6069 -0.9411
  843SOL    HW2 3429   1.299   3.740   3.750 -1.2599 -0.4718 -0.5563
  844SOL     OW 3430   1.843   1.072   1.573  0.4727  0.2377 -0.3473
  844SOL    HW1 3431   1.829   1.161   1.529  1.3141  0.1018 -0.9383
  844SOL    HW2 3432   1.758   1.020   1.571  0.3095  0.5119 -1.2146
  845SOL     OW 3433   2.124   4.018   4.797 -0.0579  0.3453 -0.7219
  845SOL    HW1 3434   2.185   4.009   4.875 -1.0979 -1.6014 -0.0595
  845SOL    HW2 3435   2.158   3.961   4.722  0.3097  1.2976 -1.2971
  846SOL     OW 3436   2.595   1.075   5.783 -0.2515  0.2369  0.2312
  846SOL    HW1 3437   2.651   1.037   5.709  0.2809 -1.1882  1.3248
  846SOL    HW2 3438   2.526   1.135   5.744  1.3216  1.1865 -1.2593
  847SOL     OW 3439   1.993   3.341   1.486 -0.3083  0.4308  0.1116
  847SOL    HW1 3440   1.999   3.379   1.393 -2.3893  0.8480  0.0990
  847SOL    HW2 3441   2.068   3.378   1.542  0.1441  1.2870 -1.0131
  848SOL     OW 3442   4.859   3.590   3.800 -0.4289 -0.1044 -0.3987
  848SOL    HW1 3443   4.867   3.518   3.732 -1.8850 -0.2717 -0.4318
  848SOL    HW2 3444   4.950   3.618   3.831  0.1609 -1.6983 -0.6408
  849SOL     OW 3445   3.560   3.610   2.523 -0.5022 -0.1694  0.5106
  849SOL    HW1 3446   3.489   3.539   2.528 -1.2915  0.6202  0.6365
  849SOL    HW2 3447   3.641   3.573   2.477 -1.1966 -0.9043 -0.1362
  850SOL     OW 3448   4.651   6.203   5.262  0.0385 -0.0699 -0.0225
  850SOL    HW1 3449   4.592   6.123   5.247  1.5265 -1.0430 -0.9779
  850SOL    HW2 3450   4.594   6.281   5.288 -1.9050 -0.5071 -2.5148
  851SOL     OW 3451   6.322   2.195   3.020  0.5050  0.2721 -0.5139
  851SOL    HW1 3452   6.277   2.284   3.027  0.7338  0.5087 -1.7762
  851SOL    HW2 3453   6.299   2.140   3.100 -1.0856  0.8087 -0.5524
  852SOL     OW 3454   0.265   0.249   5.047  0.7217  0.0210  0.4282
  852SOL    HW1 3455   0.248   0.277   5.142 -1.4768  0.7606 -0.1340
  852SOL    HW2 3456   0.253   0.151   5.039  0.2459  0.0439  0.7955
  853SOL     OW 3457   2.130   0.273   4.853 -0.0077 -0.1034  0.6588
  853SOL    HW1 3458   2.115   0.250   4.757  0.7002 -1.9342  0.9440
  853SOL    HW2 3459   2.228   0.276   4.872 -0.0637  2.4259  0.8795
  854SOL     OW 3460   4.539   4.867   2.506  0.3487  0.1053 -0.1902
  854SOL    HW1 3461   4.544   4.954   2.555 -0.6068 -0.2303  0.5389
  854SOL    HW2 3462   4.455   4.819   2.532  1.3257 -1.4725  0.1661
  855SOL     OW 3463   6.383   6.999   0.851  0.3240  0.1584  0.4813
  855SOL    HW1 3464   6.391   6.967   0.945 -0.3848  0.3273  0.6116
  855SOL    HW2 3465   6.346   7.093   0.851 -1.6023 -0.5423  0.0003
  856SOL     OW 3466   5.328   3.413   5.760 -0.4122  0.1939  0.4065
  856SOL    HW1 3467   5.399   3.460   5.707  0.3836 -0.9823  0.3971
  856SOL    HW2 3468   5.244   3.407   5.705 -0.2872  0.9271  0.1252
  857SOL     OW 3469   1.073   3.631   5.894  0.2834  0.5477 -0.1990
  857SOL    HW1 3470   0.975   3.609   5.902 -0.7901  4.7311  0.5077
  857SOL    HW2 3471   1.122   3.590   5.971 -1.3214  0.2100  0.6996
  858SOL     OW 3472   4.991   3.324   3.237 -0.2235 -0.1308 -0.3396
  858SOL    HW1 3473   4.966   3.420   3.245  1.1431  0.0886  1.8414
  858SOL    HW2 3474   4.946   3.271   3.309  1.2456 -0.6187  0.2572
  859SOL     OW 3475   2.926   4.449   1.157  0.0127  0.0949 -0.5612
  859SOL    HW1 3476   2.880   4.377   1.210 -0.6100  0.6321 -0.3496
  859SOL    HW2 3477   2.902   4.538   1.196  0.9393  0.4103 -0.6948
  860SOL     OW 3478   4.681   2.484   4.011 -0.4473  0.0022  0.0733
  860SOL    HW1 3479   4.660   2.578   3.984 -1.0466  0.5014  2.1082
  860SOL    HW2 3480   4.615   2.453   4.079  0.2634 -1.5949  0.0741
  861SOL     OW 3481   1.413   2.010   5.048 -0.5827  0.1531 -0.2899
  861SOL    HW1 3482   1.400   2.108   5.064  0.2595 -0.0533  2.2756
  861SOL    HW2 3483   1.324   1.965   5.040 -0.9659  1.1858 -2.1917
  862SOL     OW 3484   3.365   2.547   5.799 -0.0366  0.0051  0.2489
  862SOL    HW1 3485   3.359   2.515   5.705  0.7768 -1.9048  0.7988
  862SOL    HW2 3486   3.445   2.607   5.810  0.5062 -0.6618 -0.0370
  863SOL     OW 3487   0.957   3.721   2.060 -0.1321  0.3443  0.3596
  863SOL    HW1 3488   0.993   3.640   2.016 -1.2008  0.3106 -0.5009
  863SOL    HW2 3489   0.872   3.749   2.015 -0.9617  0.6560  2.0317
  864SOL     OW 3490   2.135   0.400   3.481  0.0943  0.3299 -0.0323
  864SOL    HW1 3491   2.128   0.327   3.549  0.9129  1.0913  0.9028
  864SOL    HW2 3492   2.112   0.364   3.390 -0.7793 -0.7670  0.5930
  865SOL     OW 3493   3.848   2.535   6.059 -0.2000 -0.0470  0.6120
  865SOL    HW1 3494   3.942   2.550   6.029 -0.7992  0.3872 -1.1511
  865SOL    HW2 3495   3.838   2.441   6.092  1.0886  0.2284  1.8913
  866SOL     OW 3496   5.713   1.820   2.792  0.4712  0.3617  0.3377
  866SOL    HW1 3497   5.796   1.769   2.813  1.9533  1.7352 -1.7715
  866SOL    HW2 3498   5.676   1.789   2.704  0.1878  1.4047  0.0673
  867SOL     OW 3499   2.429   6.416   1.572 -0.4965 -0.2138 -0.0167
  867SOL    HW1 3500   2.412   6.399   1.475 -1.6108  0.8253 -0.0208
  867SOL    HW2 3501   2.357   6.373   1.627  0.6518 -1.6431  0.4548
  868SOL     OW 3502   1.276   0.377   1.942  0.2323  0.5785 -0.4811
  868SOL    HW1 3503   1.336   0.454   1.963  0.6812 -0.1175  0.8739
  868SOL    HW2 3504   1.269   0.316   2.021 -0.4374 -0.5685 -1.3754
  869SOL     OW 3505   5.317   3.787   3.792  0.2003  0.1911 -0.2206
  869SOL    HW1 3506   5.361   3.707   3.751  0.3188  0.2846 -0.2742
  869SOL    HW2 3507   5.255   3.828   3.725  1.4630  1.1911 -0.8030
  870SOL     OW 3508   2.441   0.331   2.119 -0.4344  0.4623 -0.6291
  870SOL    HW1 3509   2.482   0.307   2.032  0.8033  0.1202  0.0223
  870SOL    HW2 3510   2.348   0.366   2.104 -0.2017  0.5175 -2.0714
  871SOL     OW 3511   2.869   0.992   5.179  0.6920 -0.0231  0.0857
  871SOL    HW1 3512   2.856   0.895   5.160  1.5093  0.0569 -0.9183
  871SOL    HW2 3513   2.951   1.004   5.235 -0.7782 -0.1033  2.4405
  872SOL     OW 3514   1.160   6.127   5.171 -0.0101 -0.7837 -0.1031
  872SOL    HW1 3515   1.258   6.148   5.182 -0.1986 -0.7855  1.8052
  872SOL    HW2 3516   1.115   6.205   5.127  0.1891  0.9104  2.5047
  873SOL     OW 3517   2.257   4.294   1.145  0.1545  0.0798 -0.1483
  873SOL    HW1 3518   2.174   4.334   1.104  0.5458 -1.4868 -2.6575
  873SOL    HW2 3519   2.292   4.223   1.085  3.0356  0.3041  1.1444
  874SOL     OW 3520   4.207   5.202   5.106  0.9054  0.1912  0.4318
  874SOL    HW1 3521   4.109   5.202   5.128  0.6904  2.1475 -0.3645
  874SOL    HW2 3522   4.236   5.109   5.082 -0.7619 -0.4069  0.6307
  875SOL     OW 3523   4.895   3.557   3.041 -0.3733 -0.2215  0.3338
  875SOL    HW1 3524   4.856   3.473   3.004  0.7652 -0.3780 -0.6053
  875SOL    HW2 3525   4.963   3.592   2.976  0.9111  0.0964  1.7991
  876SOL     OW 3526   3.730   3.098   6.832  0.1048 -0.6613  0.1995
  876SOL    HW1 3527   3.680   3.150   6.901  0.3985 -0.4773  0.2737
  876SOL    HW2 3528   3.686   3.009   6.819  0.3274 -0.8885  0.9733
  877SOL     OW 3529   4.372   0.572   6.094 -0.4613  0.1793  0.6287
  877SOL    HW1 3530   4.457   0.552   6.143 -0.6469 -1.3113  0.4020
  877SOL    HW2 3531   4.388   0.564   5.995 -0.8981 -0.2957  0.5924
  878SOL     OW 3532   3.691   0.978   2.206  0.2327 -0.3487 -0.2639
  878SOL    HW1 3533   3.644   0.898   2.170  0.7832 -0.5566 -0.5292
  878SOL    HW2 3534   3.673   0.986   2.305 -2.4270  1.0018 -0.7630
  879SOL     OW 3535   0.549   0.292   2.151 -0.3180  0.2051 -0.3563
  879SOL    HW1 3536   0.621   0.261   2.213  0.1756 -1.9559 -1.8817
  879SOL    HW2 3537   0.462   0.295   2.199  0.4097  0.7439  0.9755
  880SOL     OW 3538   6.603   3.567   0.693  0.0539  0.0321 -0.3173
  880SOL    HW1 3539   6.650   3.653   0.673 -1.4572  1.6572  2.4667
  880SOL    HW2 3540   6.511   3.569   0.653 -1.1308  1.1621  2.2570
  881SOL     OW 3541   0.899   3.110   2.494 -0.2314 -0.0423 -0.0122
  881SOL    HW1 3542   0.960   3.162   2.555 -1.3096 -0.6748  1.6706
  881SOL    HW2 3543   0.880   3.165   2.412  1.9623  0.4713 -0.2321
  882SOL     OW 3544   4.091   3.701   3.546 -0.0847  0.2781  0.4805
  882SOL    HW1 3545   4.079   3.664   3.638  0.9632 -0.5952  0.3005
  882SOL    HW2 3546   4.013   3.676   3.489  0.9015 -2.4815  0.1519
  883SOL     OW 3547   2.613   0.712   4.931 -0.2197 -0.2492  0.4160
  883SOL    HW1 3548   2.554   0.779   4.976  0.0707 -0.2222  0.7621
  883SOL    HW2 3549   2.557   0.643   4.885 -0.5193 -0.2556  0.7859
  884SOL     OW 3550   1.878   0.964   2.119  0.0189 -0.5771 -0.1809
  884SOL    HW1 3551   1.832   0.900   2.180  0.0415 -0.5137 -0.0973
  884SOL    HW2 3552   1.876   0.928   2.026  0.0269 -0.6970 -0.1352
  885SOL     OW 3553   0.888   6.981   3.541  0.0370  0.2727  0.4877
  885SOL    HW1 3554   0.980   6.974   3.579  1.1339  1.4062 -1.7966
  885SOL    HW2 3555   0.869   6.901   3.484  0.4908  1.0387 -0.7749
  886SOL     OW 3556   2.679   6.928   3.968  0.3547 -0.2220  0.2631
  886SOL    HW1 3557   2.658   6.970   3.880 -1.6418  0.0865  0.8156
  886SOL    HW2 3558   2.767   6.882   3.964  0.8168  0.7352 -1.5381
  887SOL     OW 3559   5.407   6.007   1.090 -0.1222 -0.0833  0.0510
  887SOL    HW1 3560   5.373   6.063   1.015 -0.4341  0.9777  0.9541
  887SOL    HW2 3561   5.332   5.985   1.152  0.3842  0.2772  0.8082
  888SOL     OW 3562   4.522   5.762   4.855  0.0640 -0.1623  0.1832
  888SOL    HW1 3563   4.598   5.792   4.913 -0.0547  0.2276  0.1396
  888SOL    HW2 3564   4.557   5.702   4.783  0.3191 -0.0554  0.2170
  889SOL     OW 3565   4.851   4.041   1.968 -0.7784 -0.3799 -0.2756
  889SOL    HW1 3566   4.777   4.025   2.034  0.4854  1.0201  1.5934
  889SOL    HW2 3567   4.937   4.053   2.017 -0.0462  2.4877 -2.0241
  890SOL     OW 3568   5.491   2.309   0.049 -0.3940 -0.2436  0.3492
  890SOL    HW1 3569   5.501   2.366   0.130 -1.8460 -1.2110  1.2485
  890SOL    HW2 3570   5.580   2.270   0.025  0.2511  0.8879  0.8332
  891SOL     OW 3571   2.084   1.836   4.983 -0.1714 -0.3066 -0.6457
  891SOL    HW1 3572   2.059   1.740   4.976 -0.2376 -0.3720  0.3267
  891SOL    HW2 3573   2.102   1.859   5.079 -0.5999  0.7553 -0.8010
  892SOL     OW 3574   4.769   5.287   6.915 -0.0731  0.1691 -0.1467
  892SOL    HW1 3575   4.786   5.368   6.971 -2.1654  1.3481 -1.1177
  892SOL    HW2 3576   4.856   5.241   6.896  1.0330  1.5108  1.3772
  893SOL     OW 3577   6.507   4.529   2.637 -0.3825 -0.4723 -0.6172
  893SOL    HW1 3578   6.576   4.572   2.695 -0.2764 -2.1124  0.5655
  893SOL    HW2 3579   6.417   4.568   2.659 -0.0701  0.4798 -0.9627
  894SOL     OW 3580   5.207   6.474   3.149  0.1315  0.0689 -0.7312
  894SOL    HW1 3581   5.230   6.431   3.236 -0.0740  2.6569  0.7338
  894SOL    HW2 3582   5.109   6.465   3.132  0.0349  0.2345 -0.2738
  895SOL     OW 3583   0.540   6.379   2.188 -0.0355  0.2172  0.5704
  895SOL    HW1 3584   0.606   6.304   2.185 -1.1607 -0.7823  0.2690
  895SOL    HW2 3585   0.453   6.349   2.149 -0.3719  1.8305  0.0045
  896SOL     OW 3586   5.230   6.526   2.020 -0.3328 -0.0362 -0.1154
  896SOL    HW1 3587   5.319   6.511   2.064  0.4314 -0.1012 -1.6211
  896SOL    HW2 3588   5.165   6.562   2.087  0.6900 -0.4230  1.1215
  897SOL     OW 3589   4.891   5.162   5.436  0.4485 -0.3802 -0.5246
  897SOL    HW1 3590   4.841   5.157   5.522  0.3505 -1.4744 -0.6311
  897SOL    HW2 3591   4.848   5.229   5.376 -0.1740 -0.4555 -0.1688
  898SOL     OW 3592   1.397   4.138   2.104  0.3884 -0.3204 -0.5755
  898SOL    HW1 3593   1.466   4.093   2.159 -0.2086  0.2124  0.6593
  898SOL    HW2 3594   1.331   4.070   2.071 -1.9314 -0.2674  3.3135
  899SOL     OW 3595   6.723   5.052   0.433  0.0963  0.0147 -0.6852
  899SOL    HW1 3596   6.637   5.033   0.385 -0.9547  0.3736  0.9934
  899SOL    HW2 3597   6.705   5.112   0.511  1.8671  0.0124 -0.2384
  900SOL     OW 3598   2.143   5.165   2.617 -0.6185  0.2888 -0.0464
  900SOL    HW1 3599   2.151   5.264   2.603 -2.4869  0.5456  0.4556
  900SOL    HW2 3600   2.063   5.146   2.674  0.0370 -1.4928  0.3344
  901SOL     OW 3601   6.668   5.758   3.655  0.3711  0.3717 -0.5298
  901SOL    HW1 3602   6.763   5.746   3.626 -0.1514 -0.4927 -1.9995
  901SOL    HW2 3603   6.607   5.726   3.583 -1.0439  0.4427  0.5881
  902SOL     OW 3604   2.502   6.585   4.287  0.4340  0.2421  0.0467
  902SOL    HW1 3605   2.492   6.493   4.248 -1.1303  0.9824 -1.3923
  902SOL    HW2 3606   2.586   6.626   4.255  0.2344  0.0064 -0.7911
  903SOL     OW 3607   1.597   2.848   3.809 -0.7782  0.2250  0.0080
  903SOL    HW1 3608   1.641   2.859   3.898  1.7404 -2.4889 -0.7559
  903SOL    HW2 3609   1.533   2.772   3.813  1.6993 -2.0633 -1.1455
  904SOL     OW 3610   4.142   0.151   2.277  0.0193 -0.7203  0.3017
  904SOL    HW1 3611   4.215   0.151   2.208 -0.5848 -1.8298 -0.3890
  904SOL    HW2 3612   4.172   0.100   2.357  0.1937 -0.7365  0.2271
  905SOL     OW 3613   2.495   2.546   6.230  0.3399 -0.7697  0.1203
  905SOL    HW1 3614   2.537   2.509   6.313  0.6773  0.4054  0.4949
  905SOL    HW2 3615   2.567   2.564   6.163  0.1900 -0.6978 -0.0207
  906SOL     OW 3616   3.583   5.612   6.226 -0.2006  0.4286 -0.1756
  906SOL    HW1 3617   3.555   5.556   6.304 -0.1583 -1.4186 -1.4324
  906SOL    HW2 3618   3.635   5.691   6.259 -0.0772 -0.3637  1.6494
  907SOL     OW 3619   2.130   5.775   0.512 -0.2892 -0.2630  0.0755
  907SOL    HW1 3620   2.126   5.805   0.607  0.4953  3.3108 -0.8697
  907SOL    HW2 3621   2.055   5.816   0.460  1.2856  0.7832 -1.4907
  908SOL     OW 3622   5.334   1.354   5.847 -0.0862  0.1806 -0.0549
  908SOL    HW1 3623   5.258   1.302   5.886  0.2050 -0.8409 -0.8158
  908SOL    HW2 3624   5.314   1.377   5.752  1.1033 -1.2881 -0.6977
  909SOL     OW 3625   4.445   0.938   1.379 -0.2578 -0.9145 -0.3812
  909SOL    HW1 3626   4.439   0.840   1.401 -4.4623 -1.3646 -2.5441
  909SOL    HW2 3627   4.370   0.986   1.424  1.8028  1.4598  0.7312
  910SOL     OW 3628   0.167   5.764   6.449 -0.3974  0.4985 -0.1679
  910SOL    HW1 3629   0.210   5.854   6.448  0.2492  0.2306  0.8314
  910SOL    HW2 3630   0.113   5.754   6.533 -0.1276 -0.1744 -0.0634
  911SOL     OW 3631   2.202   2.699   3.215  0.3099  0.5875  0.4218
  911SOL    HW1 3632   2.134   2.692   3.142 -2.1411 -0.9263  2.6556
  911SOL    HW2 3633   2.158   2.734   3.298  2.3049 -0.3215  1.9523
  912SOL     OW 3634   2.738   1.180   5.027  0.1652 -0.3115  0.8417
  912SOL    HW1 3635   2.641   1.157   5.025  0.5008 -2.1178 -2.6876
  912SOL    HW2 3636   2.789   1.103   5.066  0.3782 -0.7095 -0.1904
  913SOL     OW 3637   0.481   1.308   6.998 -0.3006 -0.0365 -0.4092
  913SOL    HW1 3638   0.486   1.328   7.096 -0.5995  1.3532 -0.6558
  913SOL    HW2 3639   0.559   1.253   6.972 -0.3343 -0.6169  0.6564
  914SOL     OW 3640   2.311   5.742   2.183  0.0699  0.7464 -0.2203
  914SOL    HW1 3641   2.299   5.710   2.277  0.2009  0.3194 -0.3462
  914SOL    HW2 3642   2.261   5.828   2.170  0.5969  1.1554  0.4239
  915SOL     OW 3643   3.908   6.578   1.591 -0.2765 -0.6731 -0.0221
  915SOL    HW1 3644   3.882   6.525   1.672  0.1796 -0.7532  0.0762
  915SOL    HW2 3645   3.828   6.628   1.556 -0.2083  0.3741  1.2336
  916SOL     OW 3646   2.022   5.222   1.133 -0.1520 -0.6140  0.2349
  916SOL    HW1 3647   2.029   5.266   1.043 -2.1788 -1.5878 -0.4777
  916SOL    HW2 3648   1.931   5.180   1.142  0.3268 -1.3106  2.4030
  917SOL     OW 3649   5.358   5.110   2.095  0.0294  0.3211 -0.2820
  917SOL    HW1 3650   5.397   5.077   2.009 -1.0165 -0.4368 -0.4909
  917SOL    HW2 3651   5.324   5.203   2.083  2.4025  1.3039  0.1226
  918SOL     OW 3652   6.862   1.625   1.910  0.1561 -0.3686  0.4573
  918SOL    HW1 3653   6.928   1.685   1.864 -0.6721  1.7624  1.8961
  918SOL    HW2 3654   6.770   1.663   1.901 -0.6149 -2.2073  0.2380
  919SOL     OW 3655   2.597   5.088   3.462  0.1341  0.3749 -0.6261
  919SOL    HW1 3656   2.665   5.143   3.511 -0.9930 -0.4307  2.0575
  919SOL    HW2 3657   2.627   4.993   3.458  0.4348  0.5045 -2.0501
  920SOL     OW 3658   1.985   3.061   0.289 -0.6774 -0.3273 -0.1538
  920SOL    HW1 3659   1.979   3.160   0.302 -0.7853 -0.4104  0.4445
  920SOL    HW2 3660   1.967   3.015   0.375 -0.9151 -0.8828 -0.4940
  921SOL     OW 3661   1.271   6.809   4.834  0.3389 -0.0296 -0.4438
  921SOL    HW1 3662   1.220   6.820   4.749  1.0041 -1.9105 -1.1426
  921SOL    HW2 3663   1.364   6.844   4.823  1.3597 -2.8276 -1.5289
  922SOL     OW 3664   1.742   6.694   6.335 -0.1128 -0.6638  0.1494
  922SOL    HW1 3665   1.673   6.664   6.269 -2.0025 -0.9141  2.1286
  922SOL    HW2 3666   1.712   6.779   6.378  0.7687 -0.8478  1.1620
  923SOL     OW 3667   6.268   3.346   4.290  0.3778  0.6435  0.3998
  923SOL    HW1 3668   6.206   3.287   4.340 -0.9703  2.3818  0.8962
  923SOL    HW2 3669   6.362   3.332   4.323 -0.1361 -0.0149  1.6516
  924SOL     OW 3670   5.518   2.844   1.521 -0.0085  0.2461  0.1373
  924SOL    HW1 3671   5.555   2.851   1.614 -2.4946  2.0271  1.1068
  924SOL    HW2 3672   5.500   2.936   1.485 -0.4047 -0.4495 -1.5543
  925SOL     OW 3673   5.186   6.022   1.228  0.5027 -0.5279  0.2849
  925SOL    HW1 3674   5.158   5.966   1.306  0.0066 -0.0394  0.4614
  925SOL    HW2 3675   5.165   6.118   1.246  0.4123 -0.4067 -0.4349
  926SOL     OW 3676   3.850   3.744   6.788 -0.1223  0.1545  0.6778
  926SOL    HW1 3677   3.946   3.716   6.799  0.2892  1.4348  0.4224
  926SOL    HW2 3678   3.842   3.805   6.710 -1.0849  0.3826  0.9479
  927SOL     OW 3679   0.443   5.779   0.280 -0.2552 -0.7102  0.1014
  927SOL    HW1 3680   0.362   5.768   0.338 -1.2284  0.8529 -0.8747
  927SOL    HW2 3681   0.522   5.736   0.324 -0.9752  0.2268  2.4870
  928SOL     OW 3682   4.154   4.787   4.082  0.2787 -0.6696  0.2702
  928SOL    HW1 3683   4.181   4.698   4.048  0.5888 -0.4196 -0.1429
  928SOL    HW2 3684   4.232   4.850   4.078  0.6830 -0.9217  2.4871
  929SOL     OW 3685   4.302   6.291   3.160  0.3861 -0.6293  0.0930
  929SOL    HW1 3686   4.350   6.379   3.169  0.4150 -0.6925  0.5715
  929SOL    HW2 3687   4.352   6.220   3.209 -1.5034 -0.1979  2.8563
  930SOL     OW 3688   5.139   0.986   3.218 -0.3446 -0.3829 -0.0060
  930SOL    HW1 3689   5.162   1.083   3.225 -0.3755 -0.2493 -1.4037
  930SOL    HW2 3690   5.153   0.941   3.306  2.6100  0.2456 -0.0666
  931SOL     OW 3691   4.714   4.105   5.840 -0.0363  0.2030  0.0364
  931SOL    HW1 3692   4.649   4.030   5.855 -0.3588  0.1498 -1.4375
  931SOL    HW2 3693   4.757   4.130   5.927  0.3472 -1.9272  0.5170
  932SOL     OW 3694   6.714   3.001   4.071  0.6970  0.2465 -0.0249
  932SOL    HW1 3695   6.777   2.999   3.993  1.0017  1.8250  0.1337
  932SOL    HW2 3696   6.691   3.096   4.092  0.2656 -0.1746  1.5417
  933SOL     OW 3697   4.688   6.512   4.613 -0.0701 -0.2628  0.2502
  933SOL    HW1 3698   4.745   6.447   4.664 -0.0498  0.4090  1.1112
  933SOL    HW2 3699   4.592   6.498   4.637 -0.3194 -1.4800 -1.2971
  934SOL     OW 3700   1.083   2.694   4.666 -0.2013 -0.4868  1.1373
  934SOL    HW1 3701   1.071   2.781   4.715 -0.3812 -0.2943  0.7586
  934SOL    HW2 3702   1.041   2.620   4.718 -0.7938 -0.2144  1.0565
  935SOL     OW 3703   2.877   2.118   0.092  0.1053 -0.0152 -0.4339
  935SOL    HW1 3704   2.882   2.021   0.117  1.3521  0.0228 -0.4649
  935SOL    HW2 3705   2.915   2.130  -0.000 -0.7856  0.3962 -0.7551
  936SOL     OW 3706   5.027   1.290   3.278 -0.5810 -0.2205 -0.6685
  936SOL    HW1 3707   5.040   1.280   3.377  0.0303  0.4409 -0.6711
  936SOL    HW2 3708   5.059   1.381   3.250  0.4716 -0.8823 -1.6694
  937SOL     OW 3709   3.057   0.059   1.450  0.1430 -0.8721 -0.0868
  937SOL    HW1 3710   3.121   0.102   1.514 -1.5047 -0.2087  1.1871
  937SOL    HW2 3711   3.071   0.096   1.359  1.7560 -0.9631  0.0973
  938SOL     OW 3712   4.088   5.368   0.877 -0.0142 -0.4247 -0.0799
  938SOL    HW1 3713   4.005   5.323   0.910 -1.2985  1.8870  0.0384
  938SOL    HW2 3714   4.137   5.307   0.814 -0.9218 -2.4403  1.0887
  939SOL     OW 3715   1.471   5.430   4.105 -0.1636  0.1544 -0.4231
  939SOL    HW1 3716   1.554   5.397   4.061 -0.3976 -0.3845 -0.4727
  939SOL    HW2 3717   1.391   5.405   4.049 -0.4373 -0.2672  0.1384
  940SOL     OW 3718   6.020   6.319   6.355 -0.0477  0.2063 -0.6556
  940SOL    HW1 3719   6.074   6.385   6.407 -0.5313  0.0629  0.0442
  940SOL    HW2 3720   5.968   6.367   6.284 -2.1707  0.9889  1.2657
  941SOL     OW 3721   0.390   0.484   5.306  0.5639 -0.2695  0.2590
  941SOL    HW1 3722   0.295   0.512   5.320  0.7177  0.4233 -0.0331
  941SOL    HW2 3723   0.438   0.554   5.254  0.6416 -1.6514 -1.6071
  942SOL     OW 3724   3.862   6.101   1.382  1.0680 -0.2691 -0.1208
  942SOL    HW1 3725   3.860   6.112   1.481 -1.2156 -2.2251  0.1332
  942SOL    HW2 3726   3.826   6.184   1.338  2.0109  0.5725  0.6308
  943SOL     OW 3727   4.039   2.205   3.536 -0.3944 -0.1658 -0.7150
  943SOL    HW1 3728   4.126   2.170   3.570 -0.2358  1.6816  0.9115
  943SOL    HW2 3729   4.054   2.260   3.454 -0.1290 -0.4077 -0.8297
  944SOL     OW 3730   6.267   3.063   4.410  0.3214 -0.0352 -0.1701
  944SOL    HW1 3731   6.203   3.093   4.481  0.2324 -0.2750 -0.1477
  944SOL    HW2 3732   6.355   3.039   4.451  1.3953  2.9496 -0.4771
  945SOL     OW 3733   1.412   6.174   5.266 -0.6007 -0.2461  0.3496
  945SOL    HW1 3734   1.406   6.197   5.363  1.1962  1.3670  0.1556
  945SOL    HW2 3735   1.507   6.149   5.244 -1.0296 -0.8198 -0.9374
  946SOL     OW 3736   4.550   2.034   1.439  0.2771 -0.0690  0.2158
  946SOL    HW1 3737   4.629   1.974   1.426  0.0139 -0.0764 -1.5479
  946SOL    HW2 3738   4.581   2.122   1.475  0.8796 -0.6123  1.0686
  947SOL     OW 3739   5.988   4.327   6.583 -0.8889  0.3221  0.3835
  947SOL    HW1 3740   6.039   4.411   6.564 -0.3655 -0.0737 -0.0323
  947SOL    HW2 3741   6.007   4.297   6.676  1.7541 -1.1923 -0.5225
  948SOL     OW 3742   4.465   5.637   2.484  0.2399  0.1492 -0.5459
  948SOL    HW1 3743   4.459   5.724   2.436  1.5492  1.0289  0.7842
  948SOL    HW2 3744   4.523   5.647   2.565 -0.6909 -1.6317  0.4128
  949SOL     OW 3745   3.468   6.169   3.586  0.0262 -0.4449 -0.0290
  949SOL    HW1 3746   3.557   6.124   3.573  0.2745  0.3466 -1.2544
  949SOL    HW2 3747   3.395   6.110   3.554 -0.1343 -1.8995  2.6772
  950SOL     OW 3748   6.140   6.431   2.266  0.0096  0.7089 -0.0501
  950SOL    HW1 3749   6.158   6.509   2.206  0.8882 -0.9351 -2.0439
  950SOL    HW2 3750   6.183   6.349   2.228  0.2883 -0.5138  2.6790
  951SOL     OW 3751   6.954   3.919   1.511  0.4088  0.4936  0.1332
  951SOL    HW1 3752   6.972   3.892   1.417 -0.8878  0.6473 -0.1845
  951SOL    HW2 3753   7.027   3.886   1.571  0.8424 -0.2887 -0.8100
  952SOL     OW 3754   1.467   6.837   2.225 -0.3851  0.4134  0.1007
  952SOL    HW1 3755   1.488   6.916   2.167  1.8094 -0.1086  0.1110
  952SOL    HW2 3756   1.437   6.869   2.315 -0.0486  1.2300 -0.0660
  953SOL     OW 3757   0.795   4.978   2.115 -0.6459  0.2103  0.3401
  953SOL    HW1 3758   0.839   4.890   2.138 -1.4951 -0.4399 -0.4526
  953SOL    HW2 3759   0.705   4.961   2.076 -0.9013  1.4638  0.3440
  954SOL     OW 3760   2.038   6.646   1.960 -0.0589 -0.9620  0.4004
  954SOL    HW1 3761   1.954   6.634   2.013  0.6680 -1.2104  1.5439
  954SOL    HW2 3762   2.076   6.556   1.937 -0.4702 -0.8615 -0.7511
  955SOL     OW 3763   4.894   4.398   4.792  0.3894 -0.0975 -0.4538
  955SOL    HW1 3764   4.821   4.330   4.788  0.2563  0.0741 -1.3612
  955SOL    HW2 3765   4.978   4.356   4.826 -0.1284 -0.2892  0.6290
  956SOL     OW 3766   3.330   2.904   3.823  0.0897  0.5021  0.0046
  956SOL    HW1 3767   3.273   2.839   3.772  0.2539  1.8426 -1.9739
  956SOL    HW2 3768   3.426   2.885   3.805  0.3941 -1.3678  2.8662
  957SOL     OW 3769   4.826   4.121   1.036  0.3512 -1.0860  0.0134
  957SOL    HW1 3770   4.806   4.102   0.940  0.4456 -0.0609 -0.2156
  957SOL    HW2 3771   4.759   4.187   1.071  0.0021 -1.8426  0.8002
  958SOL     OW 3772   5.025   5.815   5.389  0.0725  0.0497 -0.3675
  958SOL    HW1 3773   5.014   5.747   5.317 -0.4262 -0.4527  0.1789
  958SOL    HW2 3774   4.946   5.812   5.451  1.3019 -0.7495  1.2234
  959SOL     OW 3775   6.116   3.493   4.569  0.4735  0.5704 -0.0373
  959SOL    HW1 3776   6.023   3.478   4.604 -0.1422  1.1805 -1.3445
  959SOL    HW2 3777   6.119   3.579   4.519  1.1518 -0.4780 -1.9143
  960SOL     OW 3778   4.327   4.724   2.585 -0.3025 -0.2030 -0.4157
  960SOL    HW1 3779   4.364   4.674   2.663 -1.2402 -0.4935 -0.1377
  960SOL    HW2 3780   4.227   4.720   2.588 -0.3732  0.8487 -0.9423
  961SOL     OW 3781   3.154   6.475   2.683 -0.1494 -0.4103 -0.1239
  961SOL    HW1 3782   3.196   6.412   2.619  0.2269 -1.8308  1.4592
  961SOL    HW2 3783   3.129   6.427   2.767 -0.2056  1.4581  1.0023
  962SOL     OW 3784   2.688   3.652   0.409 -0.0821  0.9595  0.3472
  962SOL    HW1 3785   2.665   3.694   0.321  1.6143  0.8675 -0.1875
  962SOL    HW2 3786   2.718   3.557   0.393  0.3005  0.9619  1.0118
  963SOL     OW 3787   1.343   4.524   4.226 -0.2248 -0.3882 -0.0790
  963SOL    HW1 3788   1.343   4.538   4.127 -0.4751  4.0110  0.3269
  963SOL    HW2 3789   1.261   4.567   4.265  0.9992  0.0157  2.1939
  964SOL     OW 3790   1.480   5.771   5.022 -0.2725 -0.4314 -0.2113
  964SOL    HW1 3791   1.409   5.832   4.988  0.2243 -0.4024 -1.2556
  964SOL    HW2 3792   1.529   5.731   4.944 -0.6368 -2.2393  0.4419
  965SOL     OW 3793   4.993   0.342   0.629 -1.1823  0.7190 -0.0803
  965SOL    HW1 3794   4.916   0.278   0.628 -2.0231  1.6642  1.1907
  965SOL    HW2 3795   5.073   0.297   0.670 -1.5290  0.2411  0.0858
  966SOL     OW 3796   5.883   6.742   2.932 -0.5197 -0.1935  0.3467
  966SOL    HW1 3797   5.841   6.828   2.902  1.5479  0.0327 -2.2455
  966SOL    HW2 3798   5.822   6.666   2.909 -0.8019  0.3273 -0.7059
  967SOL     OW 3799   3.410   0.252   1.093 -0.0384  0.0825 -0.2186
  967SOL    HW1 3800   3.437   0.329   1.035 -1.6427  1.0646  0.2564
  967SOL    HW2 3801   3.485   0.187   1.099  1.8298  2.1445  0.2415
  968SOL     OW 3802   0.453   6.250   3.953  0.2043  0.4196 -0.7756
  968SOL    HW1 3803   0.511   6.251   4.034  0.5433 -2.0471 -0.9200
  968SOL    HW2 3804   0.375   6.190   3.969 -0.4587  0.9638 -1.8286
  969SOL     OW 3805   6.510   4.509   5.725 -0.2866  0.0391  0.0470
  969SOL    HW1 3806   6.503   4.440   5.653  1.1802 -0.2575  0.1463
  969SOL    HW2 3807   6.495   4.600   5.686  2.0294  0.0368 -1.0222
  970SOL     OW 3808   5.873   6.415   1.989 -0.3579 -0.3535  0.1914
  970SOL    HW1 3809   5.820   6.426   1.905 -0.9952 -0.9057  0.5163
  970SOL    HW2 3810   5.815   6.431   2.068  0.5921  1.6759  0.5398
  971SOL     OW 3811   2.016   4.878   2.701  0.4480  0.0653 -0.4453
  971SOL    HW1 3812   2.078   4.809   2.739  0.3799  0.2818  0.0541
  971SOL    HW2 3813   1.961   4.836   2.628 -0.4806 -0.7416  0.6826
  972SOL     OW 3814   5.384   3.787   0.477  0.2170 -1.3120 -0.2470
  972SOL    HW1 3815   5.460   3.827   0.427  0.4256 -1.8343 -0.3522
  972SOL    HW2 3816   5.376   3.690   0.454 -0.1310 -1.3901  0.1874
  973SOL     OW 3817   4.456   4.664   0.848 -0.4139 -0.3944  0.8429
  973SOL    HW1 3818   4.462   4.613   0.762 -2.1726 -0.9839  1.0218
  973SOL    HW2 3819   4.547   4.680   0.884  0.2771 -1.5219 -0.3302
  974SOL     OW 3820   2.413   2.649   0.257 -0.3620  0.3066 -0.6607
  974SOL    HW1 3821   2.443   2.663   0.163 -0.5311  1.2614 -0.5856
  974SOL    HW2 3822   2.493   2.641   0.316 -0.2056 -2.4347 -1.1347
  975SOL     OW 3823   0.308   4.105   2.042 -0.3476 -1.1028  0.5243
  975SOL    HW1 3824   0.309   4.197   2.004  0.8479 -1.2091  0.2820
  975SOL    HW2 3825   0.319   4.110   2.141 -0.2550 -0.9873  0.5081
  976SOL     OW 3826   6.387   3.157   6.479  0.0007  0.4545 -0.3132
  976SOL    HW1 3827   6.404   3.108   6.394 -1.0764  0.8073 -0.7425
  976SOL    HW2 3828   6.292   3.188   6.482 -0.4429 -0.8738  1.6799
  977SOL     OW 3829   4.931   4.392   5.490  0.5667  0.7151  0.9543
  977SOL    HW1 3830   4.956   4.300   5.461  1.6040  0.3483  2.8612
  977SOL    HW2 3831   4.831   4.401   5.491  0.4578 -0.3563  0.6619
  978SOL     OW 3832   3.356   0.879   6.374 -0.5081 -0.5317 -0.0937
  978SOL    HW1 3833   3.433   0.943   6.374  0.2108 -1.3492 -0.8634
  978SOL    HW2 3834   3.289   0.907   6.441  1.3492 -0.8279  2.0031
  979SOL     OW 3835   6.462   6.998   2.144  0.5004  0.3054 -0.1752
  979SOL    HW1 3836   6.530   6.944   2.194  0.3316 -0.4452 -0.7523
  979SOL    HW2 3837   6.459   6.968   2.049 -2.0736 -1.0703  0.2716
  980SOL     OW 3838   0.230   4.430   1.035  0.1796  0.2987 -0.2589
  980SOL    HW1 3839   0.196   4.348   0.988  1.2191 -0.7418  0.7278
  980SOL    HW2 3840   0.160   4.465   1.097 -0.2661  0.1584 -0.6738
  981SOL     OW 3841   3.597   3.908   0.487  1.0706  0.6135 -0.8278
  981SOL    HW1 3842   3.577   3.887   0.583  2.0356  1.1782 -0.4944
  981SOL    HW2 3843   3.638   3.828   0.443 -0.5809 -0.1011 -1.1555
  982SOL     OW 3844   1.593   0.333   4.110 -0.4529  0.4076  0.3776
  982SOL    HW1 3845   1.510   0.376   4.074 -0.3830  1.0678  0.9869
  982SOL    HW2 3846   1.597   0.344   4.209 -0.9805 -1.9709  0.7317
  983SOL     OW 3847   6.773   2.560   0.992 -0.0041  0.2005 -0.1555
  983SOL    HW1 3848   6.753   2.588   1.086 -0.9102  0.0695 -0.3076
  983SOL    HW2 3849   6.810   2.467   0.991 -1.9247 -0.6114 -0.0774
  984SOL     OW 3850   4.008   0.754   6.640  0.7449 -0.0157 -0.3471
  984SOL    HW1 3851   3.948   0.783   6.715  0.0486 -0.4419 -0.7279
  984SOL    HW2 3852   4.074   0.687   6.674 -0.0778 -0.8123 -0.2660
  985SOL     OW 3853   3.413   2.915   3.515  0.7777  0.1208  0.2625
  985SOL    HW1 3854   3.323   2.948   3.543  0.7098  0.0709  0.1031
  985SOL    HW2 3855   3.414   2.902   3.416  0.4161 -1.5291  0.4444
  986SOL     OW 3856   1.566   1.137   6.768  0.1366  0.0502 -0.1516
  986SOL    HW1 3857   1.578   1.168   6.862 -0.9584 -0.0353  0.0335
  986SOL    HW2 3858   1.653   1.105   6.732  0.7396  0.8553  0.5482
  987SOL     OW 3859   6.161   6.864   5.531 -0.5512  0.4405  0.4482
  987SOL    HW1 3860   6.116   6.941   5.485  1.4936  1.3925 -0.0996
  987SOL    HW2 3861   6.153   6.782   5.474  0.4272  1.1811 -0.7980
  988SOL     OW 3862   5.003   3.479   0.024  0.9321 -0.2324  0.3739
  988SOL    HW1 3863   4.913   3.448  -0.006  0.9352  0.9825 -0.9843
  988SOL    HW2 3864   5.000   3.499   0.122  0.0301 -1.2074  0.5698
  989SOL     OW 3865   5.854   6.758   2.375 -0.2158  0.0026 -0.3932
  989SOL    HW1 3866   5.796   6.794   2.302  0.0210  0.4918 -0.3436
  989SOL    HW2 3867   5.912   6.831   2.410 -1.9560  0.4126  1.8792
  990SOL     OW 3868   3.704   6.716   4.389  0.1162  0.2712  0.5115
  990SOL    HW1 3869   3.630   6.660   4.426  0.8614 -0.3397  1.1362
  990SOL    HW2 3870   3.711   6.702   4.290  0.4758 -1.0026  0.6928
  991SOL     OW 3871   0.946   2.044   0.225 -0.2701  0.0333 -0.3728
  991SOL    HW1 3872   1.009   1.997   0.287  0.3163 -0.8322 -1.5855
  991SOL    HW2 3873   0.986   2.131   0.197 -0.2497  0.1285 -0.0567
  992SOL     OW 3874   6.193   5.721   1.877 -0.3986 -0.2377  0.5285
  992SOL    HW1 3875   6.112   5.701   1.822 -0.3956  0.2381  0.3487
  992SOL    HW2 3876   6.223   5.815   1.860 -0.7969  0.1601  1.8535
  993SOL     OW 3877   1.075   4.785   2.836 -0.5179 -0.4343  0.3664
  993SOL    HW1 3878   1.026   4.780   2.923  0.1219  0.7753  0.8213
  993SOL    HW2 3879   1.025   4.844   2.773  1.1182  2.2699  1.4305
  994SOL     OW 3880   2.492   5.366   2.628  0.0955  0.4861  0.1503
  994SOL    HW1 3881   2.506   5.282   2.577  0.5546  0.8677 -0.3713
  994SOL    HW2 3882   2.518   5.352   2.724 -1.7478 -0.5311  0.5373
  995SOL     OW 3883   2.656   5.112   6.701  0.1695  0.1669  0.1961
  995SOL    HW1 3884   2.632   5.121   6.604 -0.4951 -1.5908  0.1641
  995SOL    HW2 3885   2.591   5.050   6.745  0.3783  1.0481  1.8194
  996SOL     OW 3886   6.327   2.374   6.107  0.2923  0.3929 -0.0587
  996SOL    HW1 3887   6.341   2.276   6.120 -0.5738  0.3201  0.3304
  996SOL    HW2 3888   6.343   2.422   6.193  2.3493  0.8066 -0.6035
  997SOL     OW 3889   0.702   5.501   1.378  1.0481  0.1616  0.0258
  997SOL    HW1 3890   0.725   5.598   1.377  0.0772  0.3997 -0.4700
  997SOL    HW2 3891   0.622   5.485   1.320  0.7785 -0.8202  0.6394
  998SOL     OW 3892   1.922   0.283   6.663  0.2370 -1.0181  0.3256
  998SOL    HW1 3893   1.880   0.193   6.650  2.0533 -1.7887 -0.5758
  998SOL    HW2 3894   1.851   0.353   6.665 -1.2415 -2.4792  1.3244
  999SOL     OW 3895   0.146   1.332   0.354  0.0825 -0.4818  0.1545
  999SOL    HW1 3896   0.096   1.319   0.268  1.3077 -1.4018 -0.4427
  999SOL    HW2 3897   0.085   1.312   0.431 -1.3036  1.2046 -0.4295
 1000SOL     OW 3898   5.006   4.021   6.634  0.1283  0.3606  0.0354
 1000SOL    HW1 3899   5.074   4.089   6.663 -0.9718  1.4345  0.1912
 1000SOL    HW2 3900   4.971   3.973   6.714 -1.9240  2.3816  0.4447
 1001SOL     OW 3901   1.709   2.474   1.030 -0.4073  0.4158  0.1812
 1001SOL    HW1 3902   1.763   2.399   1.069  0.7276  0.2433 -1.6021
 1001SOL    HW2 3903   1.713   2.553   1.090 -1.1659 -0.7528  1.8272
 1002SOL     OW 3904   3.897   5.440   2.627 -0.5096  0.3474 -0.1232
 1002SOL    HW1 3905   3.836   5.492   2.687 -0.9160  0.9870 -1.0623
 1002SOL    HW2 3906   3.992   5.469   2.642 -0.4766 -0.3116  1.0076
 1003SOL     OW 3907   4.247   5.150   2.260 -0.2634  0.4108 -0.5576
 1003SOL    HW1 3908   4.310   5.198   2.321 -0.2836  0.5480 -0.6445
 1003SOL    HW2 3909   4.154   5.157   2.296 -0.2882  0.5705 -0.6518
 1004SOL     OW 3910   4.911   3.998   0.644 -0.1016 -0.6169 -0.6381
 1004SOL    HW1 3911   4.968   4.049   0.708 -0.2351  0.1739 -1.1395
 1004SOL    HW2 3912   4.879   3.913   0.688  2.9737 -2.0739 -0.9649
 1005SOL     OW 3913   6.638   6.066   3.414  0.4225  0.1429 -0.0153
 1005SOL    HW1 3914   6.598   6.131   3.349 -0.4833 -0.8387 -0.4560
 1005SOL    HW2 3915   6.736   6.085   3.424  0.5928  0.3019 -1.6756
 1006SOL     OW 3916   2.457   3.461   6.888  0.2470 -0.0713  0.1486
 1006SOL    HW1 3917   2.402   3.382   6.914  2.4868 -1.2303  1.7124
 1006SOL    HW2 3918   2.427   3.541   6.939 -0.7496 -0.3615  0.0402
 1007SOL     OW 3919   2.170   6.219   3.115 -0.2611 -0.0587  0.1499
 1007SOL    HW1 3920   2.171   6.308   3.069 -0.2731  0.0076  0.2773
 1007SOL    HW2 3921   2.134   6.230   3.208 -2.7722 -0.6229 -0.6781
 1008SOL     OW 3922   1.748   2.503   6.047 -0.7002  0.4539 -0.0549
 1008SOL    HW1 3923   1.652   2.484   6.028 -1.3402  1.5101  1.8091
 1008SOL    HW2 3924   1.787   2.556   5.972 -1.5245 -0.1104 -0.8980
 1009SOL     OW 3925   0.926   0.070   5.184  0.6885  0.6684 -0.0437
 1009SOL    HW1 3926   0.878   0.000   5.236  0.4532  0.7807 -0.1080
 1009SOL    HW2 3927   0.994   0.027   5.125  1.2463  0.5670  0.6540
 1010SOL     OW 3928   1.763   5.518   2.989 -0.1066 -0.4733  0.1764
 1010SOL    HW1 3929   1.739   5.494   2.895 -0.5744 -1.2430  0.4842
 1010SOL    HW2 3930   1.784   5.435   3.040  0.2972 -0.0480  0.7180
 1011SOL     OW 3931   2.025   6.467   3.176  0.3835  0.2308  0.1444
 1011SOL    HW1 3932   2.119   6.490   3.198  0.8707 -0.6538 -0.8978
 1011SOL    HW2 3933   1.987   6.406   3.246  0.5862  0.5974  0.5690
 1012SOL     OW 3934   6.957   1.261   6.200  0.9531  0.1984 -0.2632
 1012SOL    HW1 3935   6.984   1.187   6.138  3.0641  0.5031  0.2144
 1012SOL    HW2 3936   6.925   1.339   6.147  1.8132  0.1036 -0.9332
 1013SOL     OW 3937   3.642   3.852   4.250  0.0116  0.5764 -0.2898
 1013SOL    HW1 3938   3.638   3.782   4.322 -0.6799  2.3494  1.5046
 1013SOL    HW2 3939   3.568   3.836   4.184  0.5076 -0.9428 -0.5285
 1014SOL     OW 3940   4.331   6.437   3.651  0.1951 -0.5484  0.4724
 1014SOL    HW1 3941   4.320   6.509   3.583 -0.8494 -0.2313  0.9668
 1014SOL    HW2 3942   4.298   6.351   3.614 -0.7297 -0.2992  0.7115
 1015SOL     OW 3943   5.823   1.135   5.758  0.2160 -0.2789  0.2148
 1015SOL    HW1 3944   5.823   1.210   5.825  0.4558  0.2635 -0.3768
 1015SOL    HW2 3945   5.809   1.173   5.666  0.4679 -0.9530 -0.1072
 1016SOL     OW 3946   2.791   5.812   0.757  0.3993 -0.3579  0.4969
 1016SOL    HW1 3947   2.727   5.766   0.696  0.2409  0.4241  0.0644
 1016SOL    HW2 3948   2.870   5.843   0.705 -0.7068  2.2227  0.2141
 1017SOL     OW 3949   3.645   2.695   6.148 -0.2996  0.0410 -0.2260
 1017SOL    HW1 3950   3.647   2.669   6.245  3.1641  1.1718  0.1552
 1017SOL    HW2 3951   3.713   2.641   6.098  0.1742  1.6411 -1.3610
 1018SOL     OW 3952   1.384   0.884   3.719  0.0474  0.6424 -0.1139
 1018SOL    HW1 3953   1.338   0.806   3.761 -0.5775  1.6752  1.1744
 1018SOL    HW2 3954   1.329   0.920   3.644 -0.4392  0.8305  0.3315
 1019SOL     OW 3955   1.979   6.985   2.035 -0.3673 -0.4740  0.2355
 1019SOL    HW1 3956   2.001   7.074   2.075 -1.3743 -1.1238  2.3457
 1019SOL    HW2 3957   2.035   6.914   2.078 -2.0593 -1.2955  1.1838
 1020SOL     OW 3958   2.074   4.655   3.931 -0.6089 -0.0556 -0.1127
 1020SOL    HW1 3959   1.994   4.712   3.908 -1.2044 -0.5226  0.7397
 1020SOL    HW2 3960   2.157   4.699   3.898 -1.1524  0.8257 -0.3364
 1021SOL     OW 3961   1.698   6.166   6.306  0.1365 -0.2344 -0.1232
 1021SOL    HW1 3962   1.627   6.224   6.264  1.5200  1.0116 -0.8333
 1021SOL    HW2 3963   1.787   6.210   6.297  1.0954 -1.9692  0.3625
 1022SOL     OW 3964   1.616   1.837   4.429  0.0499  0.5948 -0.0356
 1022SOL    HW1 3965   1.602   1.791   4.341  1.3966  0.9015 -0.4483
 1022SOL    HW2 3966   1.700   1.892   4.424  1.1739 -0.7939  1.9888
 1023SOL     OW 3967   5.368   6.006   6.948 -0.0309  0.3287  0.2996
 1023SOL    HW1 3968   5.278   6.045   6.966  0.1509  0.4475  0.9734
 1023SOL    HW2 3969   5.360   5.931   6.883 -0.4810  1.0275 -0.4780
 1024SOL     OW 3970   3.969   1.167   3.486  0.4026 -0.0683  0.1478
 1024SOL    HW1 3971   4.029   1.205   3.558 -0.7220 -0.0266  1.0884
 1024SOL    HW2 3972   3.995   1.207   3.398  3.0110 -1.4525  0.1727
 1025SOL     OW 3973   1.741   2.777   5.331 -0.0090  0.1986  0.3092
 1025SOL    HW1 3974   1.690   2.700   5.293 -0.2725  1.0819 -1.1929
 1025SOL    HW2 3975   1.783   2.749   5.417 -2.2088 -0.8510  1.1169
 1026SOL     OW 3976   0.449   3.925   0.854  0.4818 -0.1567  0.3333
 1026SOL    HW1 3977   0.535   3.976   0.845 -0.6312  2.2172  1.9064
 1026SOL    HW2 3978   0.408   3.913   0.763  1.1653  1.1602 -0.1859
 1027SOL     OW 3979   3.594   6.939   6.993  0.6562 -0.2356 -0.8581
 1027SOL    HW1 3980   3.534   6.974   6.921 -0.9800  0.9912  1.0182
 1027SOL    HW2 3981   3.665   7.008   7.013 -1.3095  1.2725  1.3876
 1028SOL     OW 3982   5.465   6.792   3.096 -0.8793  0.3288 -0.5809
 1028SOL    HW1 3983   5.397   6.864   3.102 -2.8584 -1.4663  0.0254
 1028SOL    HW2 3984   5.476   6.749   3.186  0.0676 -0.2723 -0.9690
 1029SOL     OW 3985   5.279   1.493   3.572  0.0487 -0.9042  0.2464
 1029SOL    HW1 3986   5.365   1.544   3.568 -0.3800 -0.2279 -2.4504
 1029SOL    HW2 3987   5.211   1.545   3.623  0.3353  0.0802 -0.3587
 1030SOL     OW 3988   0.252   4.170   2.311  0.1032 -0.0853  0.4732
 1030SOL    HW1 3989   0.154   4.158   2.296  0.4467 -0.6956 -1.6212
 1030SOL    HW2 3990   0.286   4.100   2.374 -0.8132  0.1897  1.2817
 1031SOL     OW 3991   3.238   6.825   4.762  0.3943  0.2498  0.3973
 1031SOL    HW1 3992   3.279   6.857   4.848  0.6915 -2.2279  1.2726
 1031SOL    HW2 3993   3.305   6.836   4.688  0.8290  0.7315  0.8503
 1032SOL     OW 3994   5.088   2.194   4.017  0.1299  0.1821  0.4062
 1032SOL    HW1 3995   5.007   2.181   3.959  0.0331  0.6402  0.4374
 1032SOL    HW2 3996   5.096   2.116   4.079 -0.1719  0.0353  0.2680
 1033SOL     OW 3997   0.037   1.166   2.381 -0.5245 -0.0306 -0.0777
 1033SOL    HW1 3998   0.036   1.261   2.349 -0.3479 -0.4729 -1.4434
 1033SOL    HW2 3999  -0.033   1.113   2.332  2.4089 -1.6646 -2.8754
 1034SOL     OW 4000   2.120   5.224   4.616 -0.0456  0.4638  0.4281
 1034SOL    HW1 4001   2.129   5.281   4.535 -0.7882  0.9035  0.6461
 1034SOL    HW2 4002   2.106   5.129   4.589 -0.6323  0.6592  0.0378
 1035SOL     OW 4003   4.333   5.721   6.282  0.6101  0.4755 -0.1619
 1035SOL    HW1 4004   4.360   5.652   6.215 -0.2330  0.4499 -0.4845
 1035SOL    HW2 4005   4.358   5.812   6.249  0.2645  0.4569 -0.4829
 1036SOL     OW 4006   5.001   5.098   3.634 -0.1587  0.3160 -0.2010
 1036SOL    HW1 4007   4.980   5.007   3.598 -0.9967 -0.0979  1.2448
 1036SOL    HW2 4008   5.088   5.130   3.596 -0.6468 -0.3514 -2.0266
 1037SOL     OW 4009   6.349   1.503   4.710 -0.2550 -0.1511 -0.1614
 1037SOL    HW1 4010   6.274   1.525   4.648 -0.3888  0.1929  0.1215
 1037SOL    HW2 4011   6.354   1.572   4.782  0.2604 -0.2365 -0.1145
 1038SOL     OW 4012   0.999   6.979   6.757  0.3878  0.3549  0.2276
 1038SOL    HW1 4013   0.934   6.938   6.693  0.7086 -0.2789  0.3027
 1038SOL    HW2 4014   1.092   6.958   6.727  0.6881  3.2019 -1.2319
 1039SOL     OW 4015   6.303   5.845   2.102  0.1823 -0.0207 -0.1321
 1039SOL    HW1 4016   6.257   5.808   2.183 -1.5900  2.8435  0.3073
 1039SOL    HW2 4017   6.251   5.820   2.020  0.9169 -1.3044 -0.2351
 1040SOL     OW 4018   6.256   3.962   2.116  0.1301 -0.0922  0.3255
 1040SOL    HW1 4019   6.354   3.966   2.136  0.1728  0.4526  0.0254
 1040SOL    HW2 4020   6.212   3.900   2.181  0.1244  2.3037  2.8054
 1041SOL     OW 4021   0.681   4.183   0.020  0.3692 -0.1650 -0.0569
 1041SOL    HW1 4022   0.743   4.235  -0.039  2.2641 -2.2013  0.0029
 1041SOL    HW2 4023   0.613   4.136  -0.036  1.0888 -0.7164 -0.4790
 1042SOL     OW 4024   0.892   6.330   2.904 -0.3067 -0.1706 -0.0249
 1042SOL    HW1 4025   0.855   6.240   2.883 -0.8840  0.0801 -0.1098
 1042SOL    HW2 4026   0.977   6.321   2.956  0.3010 -0.7865 -1.0889
 1043SOL     OW 4027   4.082   5.616   0.770  0.2816  0.3704 -0.1723
 1043SOL    HW1 4028   4.168   5.596   0.723 -0.3437  0.0822 -1.2193
 1043SOL    HW2 4029   4.059   5.541   0.832 -0.0477 -0.3400 -1.1338
 1044SOL     OW 4030   3.469   3.375   0.150  0.3547  0.0608  0.0244
 1044SOL    HW1 4031   3.502   3.281   0.143 -0.5521 -0.2496 -0.2720
 1044SOL    HW2 4032   3.374   3.374   0.183  0.0379  0.8135 -0.8208
 1045SOL     OW 4033   1.076   5.394   1.572  0.7605  0.6538  0.5268
 1045SOL    HW1 4034   1.164   5.382   1.618  1.4934  1.9932 -0.4435
 1045SOL    HW2 4035   1.091   5.430   1.480 -0.6879 -1.5953 -0.6780
 1046SOL     OW 4036   1.082   6.497   2.283  0.4029 -0.5931 -0.1754
 1046SOL    HW1 4037   1.071   6.587   2.326  2.2828 -0.3545 -0.0844
 1046SOL    HW2 4038   1.000   6.442   2.297 -0.5337  0.8871  0.3063
 1047SOL     OW 4039   4.312   4.920   3.390  0.6410 -0.1280  0.4253
 1047SOL    HW1 4040   4.329   4.996   3.327  0.5806  0.2624  0.8702
 1047SOL    HW2 4041   4.329   4.951   3.484 -0.9690 -0.1645  0.7648
 1048SOL     OW 4042   6.744   1.954   3.601  0.5704  0.0776  0.6456
 1048SOL    HW1 4043   6.662   1.901   3.624 -0.9747  0.8927 -2.4596
 1048SOL    HW2 4044   6.742   2.041   3.650 -1.2368  0.7100 -0.4637
 1049SOL     OW 4045   4.505   2.805   0.439 -0.0283  0.2326  0.3020
 1049SOL    HW1 4046   4.512   2.904   0.453 -0.4031  0.5781 -1.6818
 1049SOL    HW2 4047   4.593   2.762   0.463  0.1324  1.0175  1.2013
 1050SOL     OW 4048   5.065   6.089   6.458  0.2589 -0.1607  0.4106
 1050SOL    HW1 4049   5.038   6.065   6.551  1.9832 -1.1511  0.7046
 1050SOL    HW2 4050   5.160   6.122   6.458  0.4312 -0.5879 -1.0529
 1051SOL     OW 4051   1.112   4.728   6.424 -0.5355  0.1358  0.0673
 1051SOL    HW1 4052   1.045   4.793   6.389  0.4186  0.5341 -1.0955
 1051SOL    HW2 4053   1.095   4.711   6.521 -2.3975  0.1010 -0.2206
 1052SOL     OW 4054   0.816   6.446   4.814 -0.3968 -0.9481 -0.5484
 1052SOL    HW1 4055   0.746   6.505   4.774  0.9002 -0.3354 -2.0294
 1052SOL    HW2 4056   0.780   6.353   4.824 -1.7715 -0.3976 -0.1882
 1053SOL     OW 4057   2.455   3.599   5.719  0.4971 -0.0800  0.0966
 1053SOL    HW1 4058   2.491   3.691   5.710 -0.0326  0.2228  0.9587
 1053SOL    HW2 4059   2.489   3.542   5.644  0.4787  0.9196 -0.6837
 1054SOL     OW 4060   4.047   6.274   1.936 -0.9215 -0.2812  0.1506
 1054SOL    HW1 4061   3.978   6.263   1.864  0.3750  1.0709 -1.3656
 1054SOL    HW2 4062   4.134   6.302   1.895  0.8920 -2.9087  1.8723
 1055SOL     OW 4063   4.435   2.633   5.129  0.5021  0.2081 -0.1896
 1055SOL    HW1 4064   4.362   2.572   5.097  1.5653 -2.3974  1.9910
 1055SOL    HW2 4065   4.404   2.681   5.211  1.1128 -0.7822  0.6477
 1056SOL     OW 4066   0.643   3.387   5.928  0.0703  0.1749 -0.1988
 1056SOL    HW1 4067   0.695   3.471   5.941 -0.4305  0.4439  0.1264
 1056SOL    HW2 4068   0.692   3.310   5.968  0.9880  0.1395 -1.3292
 1057SOL     OW 4069   3.811   2.444   6.835 -0.2129 -0.1350 -0.3809
 1057SOL    HW1 4070   3.800   2.517   6.902  0.9299 -0.9891  0.7822
 1057SOL    HW2 4071   3.723   2.402   6.817 -0.4445 -0.3846  1.1828
 1058SOL     OW 4072   3.083   4.994   0.858 -0.3688  0.2390 -0.6107
 1058SOL    HW1 4073   3.158   4.983   0.922 -0.4081  0.6260 -0.4937
 1058SOL    HW2 4074   3.042   4.905   0.838 -0.2982  0.1049 -0.1677
 1059SOL     OW 4075   2.181   2.543   1.708  0.2353  0.3903  0.0172
 1059SOL    HW1 4076   2.219   2.613   1.768 -2.8524  1.2233  1.1403
 1059SOL    HW2 4077   2.142   2.470   1.762  0.4238 -0.5675 -1.0993
 1060SOL     OW 4078   6.855   0.273   3.290  0.1727 -0.2757 -0.0953
 1060SOL    HW1 4079   6.925   0.253   3.221 -1.3544 -0.9846 -1.5176
 1060SOL    HW2 4080   6.801   0.352   3.261  0.4920  0.3937  1.0868
 1061SOL     OW 4081   1.799   6.219   6.750 -0.2698 -0.4995 -0.3460
 1061SOL    HW1 4082   1.882   6.194   6.700 -0.6095 -0.9018 -0.7278
 1061SOL    HW2 4083   1.760   6.137   6.793 -0.6145 -0.3694 -0.4046
 1062SOL     OW 4084   1.716   0.476   6.271  0.6067  0.6977 -0.7503
 1062SOL    HW1 4085   1.709   0.423   6.186 -1.8171  0.9567 -0.8024
 1062SOL    HW2 4086   1.654   0.437   6.339  1.0515  1.6652  0.2303
 1063SOL     OW 4087   2.296   2.717   1.924  0.1631  0.0953  0.3841
 1063SOL    HW1 4088   2.388   2.696   1.958  0.5773  0.1313 -0.6786
 1063SOL    HW2 4089   2.293   2.812   1.892 -0.5443  0.4177  1.3376
 1064SOL     OW 4090   3.959   5.389   6.274 -0.3595  0.0989 -0.5128
 1064SOL    HW1 4091   3.983   5.485   6.290 -1.0503  0.1227  0.4174
 1064SOL    HW2 4092   3.878   5.385   6.215 -0.4343  0.0932 -0.4102
 1065SOL     OW 4093   2.407   5.703   1.411 -0.1360 -0.6507 -0.1267
 1065SOL    HW1 4094   2.320   5.722   1.365  0.0036 -0.5913 -0.3691
 1065SOL    HW2 4095   2.483   5.725   1.349  0.1758  2.6321  1.1813
 1066SOL     OW 4096   0.698   0.936   4.048  0.2682 -0.5432 -0.5309
 1066SOL    HW1 4097   0.722   0.932   3.951 -0.2398 -0.8715 -0.6459
 1066SOL    HW2 4098   0.622   0.999   4.061 -0.0079 -0.9011 -0.4167
 1067SOL     OW 4099   6.366   0.306   4.077  0.3139  0.5186  0.1646
 1067SOL    HW1 4100   6.325   0.278   3.990  0.0100  0.7315  0.2374
 1067SOL    HW2 4101   6.314   0.268   4.153 -0.0972  1.2595  0.2630
 1068SOL     OW 4102   1.811   5.309   1.717  0.1347  0.3377 -0.6583
 1068SOL    HW1 4103   1.830   5.215   1.745  0.6235  0.1295 -1.6588
 1068SOL    HW2 4104   1.897   5.358   1.704 -0.1080  0.7747 -0.6399
 1069SOL     OW 4105   6.653   0.005   2.472  0.0065  0.1367  0.0693
 1069SOL    HW1 4106   6.659  -0.045   2.386  0.1494 -0.9655  0.6974
 1069SOL    HW2 4107   6.561  -0.007   2.512  0.2209 -0.1158  0.5000
 1070SOL     OW 4108   4.306   3.904   6.879 -0.4480 -0.4102  0.3335
 1070SOL    HW1 4109   4.237   3.833   6.893  0.6608 -1.8517 -1.0720
 1070SOL    HW2 4110   4.391   3.862   6.848  0.2398  1.5397 -0.6176
 1071SOL     OW 4111   2.900   5.893   1.680 -0.3083 -0.1925 -0.0319
 1071SOL    HW1 4112   2.928   5.866   1.772  0.8534  1.7588  0.2462
 1071SOL    HW2 4113   2.803   5.915   1.680 -1.3843 -4.1622 -0.3109
 1072SOL     OW 4114   4.952   0.275   0.131  0.0822  0.0854  0.0783
 1072SOL    HW1 4115   4.857   0.263   0.161  0.5560 -1.8559  0.9218
 1072SOL    HW2 4116   5.011   0.286   0.211  0.6725  0.5396 -0.4145
 1073SOL     OW 4117   5.141   2.312   2.428 -0.1059 -0.4549  0.0106
 1073SOL    HW1 4118   5.116   2.229   2.378  1.3509 -1.3320  0.6489
 1073SOL    HW2 4119   5.133   2.296   2.527  0.2624  0.1277  0.1450
 1074SOL     OW 4120   2.910   1.436   3.334 -0.2362 -0.3948 -0.2712
 1074SOL    HW1 4121   2.847   1.360   3.345  0.8871 -1.6905 -2.2984
 1074SOL    HW2 4122   2.900   1.476   3.243  0.9166  0.2416 -0.1448
 1075SOL     OW 4123   5.506   5.141   3.494 -0.2117  0.5093  0.3671
 1075SOL    HW1 4124   5.513   5.088   3.578 -1.4318 -1.0064 -0.4241
 1075SOL    HW2 4125   5.458   5.087   3.425 -2.2917  2.9371 -0.2540
 1076SOL     OW 4126   5.680   3.990   3.037 -0.0770  0.1565 -0.1647
 1076SOL    HW1 4127   5.580   3.980   3.041 -0.0643  0.3388  0.7699
 1076SOL    HW2 4128   5.719   3.911   2.989 -0.8039  0.9895 -2.2243
 1077SOL     OW 4129   3.764   3.672   2.242 -0.5179 -0.6012  0.1882
 1077SOL    HW1 4130   3.827   3.745   2.269 -1.2039  0.4126 -0.8398
 1077SOL    HW2 4131   3.811   3.584   2.248  1.1350  0.1422 -0.8584
 1078SOL     OW 4132   2.423   3.507   0.209 -0.6239 -0.5749  0.2529
 1078SOL    HW1 4133   2.346   3.454   0.171 -0.9788 -0.1325  0.3397
 1078SOL    HW2 4134   2.395   3.549   0.295 -0.2215 -0.5545  0.3757
 1079SOL     OW 4135   2.564   6.933   1.152  0.0831 -0.1097 -0.0050
 1079SOL    HW1 4136   2.569   6.916   1.250  1.6198 -0.3461 -0.0991
 1079SOL    HW2 4137   2.595   7.026   1.132 -1.7970  0.5367 -0.1433
 1080SOL     OW 4138   2.817   3.307   0.117  0.1947 -0.0595  0.3223
 1080SOL    HW1 4139   2.861   3.366   0.050 -1.8347  0.5906 -0.4938
 1080SOL    HW2 4140   2.809   3.215   0.080 -0.2654  0.1239 -0.0356
 1081SOL     OW 4141   4.005   1.839   2.521  0.0276 -0.2594 -0.2943
 1081SOL    HW1 4142   4.025   1.790   2.436  2.0966  2.1690 -1.3380
 1081SOL    HW2 4143   3.958   1.924   2.500  0.7227  0.4656  0.9481
 1082SOL     OW 4144   6.083   5.354   2.531  0.1840  0.1787 -0.7183
 1082SOL    HW1 4145   6.148   5.389   2.598  0.4309 -0.6633 -0.5071
 1082SOL    HW2 4146   5.990   5.369   2.564  0.3118 -0.6857  0.0508
 1083SOL     OW 4147   5.132   4.937   5.415  0.0632 -0.2534 -0.3912
 1083SOL    HW1 4148   5.172   4.970   5.330 -0.8064 -1.4178 -1.2901
 1083SOL    HW2 4149   5.037   4.910   5.399 -0.0202 -0.8093  0.8730
 1084SOL     OW 4150   2.395   5.879   0.546 -0.4020 -0.5746  0.2149
 1084SOL    HW1 4151   2.480   5.831   0.568 -0.1375  0.6536  2.1453
 1084SOL    HW2 4152   2.322   5.812   0.531  0.6446 -1.6223 -0.4613
 1085SOL     OW 4153   2.892   1.025   1.078 -0.7068  0.4830  0.0639
 1085SOL    HW1 4154   2.805   1.028   1.029 -0.2545 -1.2451 -0.9379
 1085SOL    HW2 4155   2.926   1.118   1.090 -2.7917  1.2080  0.7215
 1086SOL     OW 4156   0.525   1.189   1.642 -0.3804  0.3113  0.2114
 1086SOL    HW1 4157   0.438   1.169   1.687  0.5556 -0.6611  1.6760
 1086SOL    HW2 4158   0.575   1.104   1.628 -0.1160  0.7412 -1.6208
 1087SOL     OW 4159   6.184   3.866   6.884  0.1918 -0.7206  0.6635
 1087SOL    HW1 4160   6.218   3.841   6.793  0.4658 -2.0762  1.1165
 1087SOL    HW2 4161   6.256   3.853   6.952  0.8111  2.6223  0.8278
 1088SOL     OW 4162   1.980   0.439   4.996  0.0366 -0.1762 -0.2103
 1088SOL    HW1 4163   1.886   0.411   4.978 -0.6509  2.9000 -2.1964
 1088SOL    HW2 4164   2.043   0.390   4.936 -0.8120  0.5873 -1.7734
 1089SOL     OW 4165   4.138   5.483   2.020  0.2379 -0.0793 -0.1541
 1089SOL    HW1 4166   4.223   5.466   2.069  0.9210 -1.1815 -1.6253
 1089SOL    HW2 4167   4.064   5.430   2.060  0.6106 -0.3750  0.1452
 1090SOL     OW 4168   5.833   0.899   0.848 -0.5155 -0.3353 -0.4186
 1090SOL    HW1 4169   5.754   0.842   0.868 -0.5723 -0.5283 -1.1598
 1090SOL    HW2 4170   5.917   0.847   0.866 -0.5663 -0.9033 -1.7222
 1091SOL     OW 4171   5.404   6.594   1.116  0.0696 -0.4689 -0.5094
 1091SOL    HW1 4172   5.386   6.604   1.214  0.1621  0.0303 -0.5416
 1091SOL    HW2 4173   5.499   6.617   1.096  0.1474 -0.9182 -0.6681
 1092SOL     OW 4174   3.181   4.185   6.241 -0.0395  0.1283  0.7678
 1092SOL    HW1 4175   3.099   4.161   6.294 -1.3252 -1.5290 -1.7748
 1092SOL    HW2 4176   3.157   4.253   6.172  0.9007  0.1941  0.4941
 1093SOL     OW 4177   1.862   6.294   4.972 -0.6017 -0.2127 -0.3043
 1093SOL    HW1 4178   1.832   6.379   4.930 -0.5733 -0.6499 -1.2398
 1093SOL    HW2 4179   1.812   6.217   4.932 -1.7539 -0.5160  1.6459
 1094SOL     OW 4180   4.101   2.238   5.087  0.4804 -0.0521 -0.4450
 1094SOL    HW1 4181   4.119   2.190   5.174  0.7935 -0.1694 -0.5703
 1094SOL    HW2 4182   4.128   2.334   5.096  0.7990 -0.1326 -0.5013
 1095SOL     OW 4183   5.568   0.057   1.994 -0.1763  0.5247  0.4016
 1095SOL    HW1 4184   5.553   0.032   1.898  2.4192 -0.2318  0.1172
 1095SOL    HW2 4185   5.586   0.156   2.000 -0.5641  0.6121  0.1429
 1096SOL     OW 4186   0.891   6.277   3.683  0.3751  0.1117  0.0570
 1096SOL    HW1 4187   0.961   6.291   3.614  0.2166 -0.7503 -0.2983
 1096SOL    HW2 4188   0.800   6.283   3.641  0.2940 -1.5193 -0.0695
 1097SOL     OW 4189   5.516   3.825   4.536  0.5684  0.3078  0.1909
 1097SOL    HW1 4190   5.598   3.882   4.546 -0.0114  1.0834  0.6233
 1097SOL    HW2 4191   5.511   3.761   4.612  0.2584  0.9430  0.7218
 1098SOL     OW 4192   5.118   5.334   3.218  0.3337  0.0536  0.4354
 1098SOL    HW1 4193   5.120   5.260   3.150  1.2366  0.6538 -0.2142
 1098SOL    HW2 4194   5.104   5.421   3.171 -1.5522  0.2395  1.2679
 1099SOL     OW 4195   5.373   5.205   6.483  0.1997 -0.2572  0.4887
 1099SOL    HW1 4196   5.339   5.119   6.444  1.6590 -1.2945  1.4193
 1099SOL    HW2 4197   5.296   5.256   6.521 -0.9241 -0.3589 -1.4673
 1100SOL     OW 4198   4.742   0.086   1.544 -0.2984  0.2630 -0.3819
 1100SOL    HW1 4199   4.772   0.044   1.630  0.9458  1.4296 -0.2116
 1100SOL    HW2 4200   4.748   0.186   1.552  0.5827  0.3749 -2.0493
 1101SOL     OW 4201   2.233   6.191   4.678  0.4165  0.0883 -0.3651
 1101SOL    HW1 4202   2.186   6.200   4.765  1.2567 -0.0573  0.1148
 1101SOL    HW2 4203   2.280   6.276   4.656  1.0621 -0.2070 -0.1603
 1102SOL     OW 4204   2.577   1.042   4.435  0.3118 -0.0836  0.4170
 1102SOL    HW1 4205   2.559   1.067   4.530  0.4133  0.7632  0.2224
 1102SOL    HW2 4206   2.495   1.059   4.379  0.8297  1.2093  0.0223
 1103SOL     OW 4207   6.620   6.932   4.261 -0.3154  0.3235  0.1911
 1103SOL    HW1 4208   6.653   6.982   4.340 -1.9387  1.4653  0.1948
 1103SOL    HW2 4209   6.598   6.838   4.288  0.2557  0.3637  0.8085
 1104SOL     OW 4210   2.226   6.210   5.934  0.8074  0.7814 -0.0089
 1104SOL    HW1 4211   2.250   6.166   5.848  0.4768 -1.0637  0.8136
 1104SOL    HW2 4212   2.210   6.308   5.918  0.4109  0.4149 -2.0919
 1105SOL     OW 4213   3.586   6.363   5.295 -0.0006 -0.1932 -0.2429
 1105SOL    HW1 4214   3.555   6.356   5.390 -0.0314 -0.4421 -0.2703
 1105SOL    HW2 4215   3.539   6.294   5.239 -0.3962  0.3223 -0.5512
 1106SOL     OW 4216   3.966   3.193   5.609 -0.1148  0.0273 -0.5242
 1106SOL    HW1 4217   4.054   3.146   5.619  0.3856  0.6808 -1.6066
 1106SOL    HW2 4218   3.979   3.277   5.556 -1.5059 -0.2275 -1.3165
 1107SOL     OW 4219   2.107   6.203   4.921  0.2617 -0.0870  0.3700
 1107SOL    HW1 4220   2.149   6.208   5.012 -1.1289  1.4097  0.9989
 1107SOL    HW2 4221   2.009   6.222   4.930 -0.4163 -2.5239 -1.1414
 1108SOL     OW 4222   5.788   0.237   6.316 -0.2625  0.2362  0.2688
 1108SOL    HW1 4223   5.713   0.285   6.361  0.8140  2.5212 -0.2446
 1108SOL    HW2 4224   5.872   0.291   6.322  1.1938 -1.8423  0.0963
 1109SOL     OW 4225   1.651   4.300   5.673 -0.2219 -0.4106  0.4924
 1109SOL    HW1 4226   1.646   4.200   5.664 -1.3305 -0.4654  1.4325
 1109SOL    HW2 4227   1.567   4.333   5.716  0.0486  0.9627  0.0010
 1110SOL     OW 4228   2.021   5.762   6.910 -0.5860 -0.1798 -0.7832
 1110SOL    HW1 4229   1.936   5.767   6.962  0.0268  0.1501  0.2178
 1110SOL    HW2 4230   2.097   5.792   6.968  0.2365 -0.6384 -1.6045
 1111SOL     OW 4231   0.074   6.569   0.412 -0.1114 -0.4506 -0.0005
 1111SOL    HW1 4232   0.171   6.569   0.392 -0.5142 -0.5093 -2.2034
 1111SOL    HW2 4233   0.053   6.645   0.474  1.2544 -0.1287  0.0930
 1112SOL     OW 4234   6.557   2.803   0.108 -0.0097 -0.7590  0.0326
 1112SOL    HW1 4235   6.622   2.754   0.051  0.5193 -0.2248  0.1669
 1112SOL    HW2 4236   6.590   2.896   0.124 -0.8705 -0.4407  0.0001
 1113SOL     OW 4237   2.790   0.212   0.735  0.5620  0.3977  0.3366
 1113SOL    HW1 4238   2.748   0.284   0.790  1.4833  0.6899  0.6740
 1113SOL    HW2 4239   2.722   0.175   0.671 -0.0711  1.1781  0.5438
 1114SOL     OW 4240   3.954   3.468   6.778  0.0423 -0.1699 -0.1938
 1114SOL    HW1 4241   3.967   3.519   6.693  0.1410 -1.7840 -1.1911
 1114SOL    HW2 4242   3.924   3.530   6.850  0.3509  1.3075 -1.2975
 1115SOL     OW 4243   4.275   1.532   1.897  0.2026 -0.2203 -0.2784
 1115SOL    HW1 4244   4.295   1.480   1.980  0.0631 -0.8271 -0.6182
 1115SOL    HW2 4245   4.214   1.608   1.919 -0.6694 -0.9879  0.0094
 1116SOL     OW 4246   0.530   3.083   5.184 -0.2378 -0.0027 -0.6173
 1116SOL    HW1 4247   0.505   3.043   5.096  0.5600 -2.1231  0.0318
 1116SOL    HW2 4248   0.548   3.009   5.249  0.8093  1.4900  0.8623
 1117SOL     OW 4249   1.866   3.332   0.290 -0.3226  0.3244 -0.0391
 1117SOL    HW1 4250   1.861   3.312   0.192  0.9323 -1.2203  0.1751
 1117SOL    HW2 4251   1.800   3.404   0.313 -1.1002  0.2447 -1.8849
 1118SOL     OW 4252   4.497   3.883   5.861  0.5577  0.0728 -0.0353
 1118SOL    HW1 4253   4.513   3.812   5.930  0.4956  0.1943  0.1041
 1118SOL    HW2 4254   4.419   3.939   5.889 -0.9099 -1.2549 -1.2804
 1119SOL     OW 4255   1.304   0.273   3.785  0.1286 -0.2316  0.2950
 1119SOL    HW1 4256   1.374   0.201   3.785  0.5126  0.1392  0.4852
 1119SOL    HW2 4257   1.215   0.232   3.804 -0.0045 -0.9845 -1.7391
 1120SOL     OW 4258   4.826   5.609   2.956 -0.3900  0.0998  0.1380
 1120SOL    HW1 4259   4.768   5.688   2.979  0.3508  0.8842 -0.6346
 1120SOL    HW2 4260   4.860   5.619   2.863  0.2978 -0.7881  0.2857
 1121SOL     OW 4261   0.094   0.464   5.300  0.2408  0.3672 -0.0404
 1121SOL    HW1 4262   0.115   0.534   5.368 -1.6001  1.4569 -0.5135
 1121SOL    HW2 4263   0.063   0.381   5.347  0.5788  0.5341  0.4883
 1122SOL     OW 4264   0.445   3.177   5.537  0.4582  0.9463 -0.0561
 1122SOL    HW1 4265   0.385   3.222   5.471 -1.6084  0.5003  1.4284
 1122SOL    HW2 4266   0.488   3.247   5.595  0.8026  1.2343 -0.6523
 1123SOL     OW 4267   6.643   5.576   3.165 -0.6562 -0.3651 -0.3415
 1123SOL    HW1 4268   6.686   5.659   3.201 -1.4464 -0.4804  0.9223
 1123SOL    HW2 4269   6.607   5.595   3.074  1.5773 -0.1358 -1.2502
 1124SOL     OW 4270   1.270   4.560   3.745 -0.0800  0.5090 -0.3899
 1124SOL    HW1 4271   1.315   4.511   3.671 -0.6726 -1.0957  0.2575
 1124SOL    HW2 4272   1.330   4.562   3.825  0.7652  2.6761 -0.9995
 1125SOL     OW 4273   0.279   2.598   4.184 -0.4434  0.2504  0.1585
 1125SOL    HW1 4274   0.218   2.663   4.229 -1.3338 -1.1978  1.1075
 1125SOL    HW2 4275   0.272   2.509   4.228  1.6262 -0.2239 -0.3599
 1126SOL     OW 4276   2.754   1.573   5.178 -0.2680  0.5122  0.3744
 1126SOL    HW1 4277   2.709   1.491   5.212 -1.3214  0.9905  0.1636
 1126SOL    HW2 4278   2.798   1.622   5.254 -0.3682  0.2022  0.6314
 1127SOL     OW 4279   5.071   6.140   0.005 -0.1924  0.7400 -0.3928
 1127SOL    HW1 4280   5.044   6.189  -0.078  0.5158  1.2492 -0.3319
 1127SOL    HW2 4281   5.047   6.194   0.085 -0.8443  0.2643 -0.2603
 1128SOL     OW 4282   4.791   1.989   3.551  0.0529 -0.0706 -0.3799
 1128SOL    HW1 4283   4.724   2.052   3.512 -1.2229 -1.7575 -1.0290
 1128SOL    HW2 4284   4.821   2.023   3.640 -1.3652  0.9245 -0.2547
 1129SOL     OW 4285   4.667   0.585   6.187 -0.0440 -0.2804  0.2101
 1129SOL    HW1 4286   4.690   0.501   6.236  1.8846 -0.5396 -1.0544
 1129SOL    HW2 4287   4.693   0.664   6.243  0.0022 -0.5306  0.5491
 1130SOL     OW 4288   1.876   4.348   1.818  0.4923 -0.1360  0.2536
 1130SOL    HW1 4289   1.948   4.359   1.750  2.2145 -0.9665  1.8673
 1130SOL    HW2 4290   1.895   4.406   1.898 -1.4218  0.7306  0.1496
 1131SOL     OW 4291   5.632   2.229   3.141 -0.1357  0.0567  0.0734
 1131SOL    HW1 4292   5.714   2.275   3.107  0.7275 -0.0160  1.9330
 1131SOL    HW2 4293   5.602   2.272   3.226 -2.1111  0.1329 -0.6056
 1132SOL     OW 4294   5.042   2.726   1.092 -0.3255  0.2463  0.1312
 1132SOL    HW1 4295   5.129   2.743   1.139 -0.9163 -0.5294  1.5601
 1132SOL    HW2 4296   4.971   2.785   1.131 -0.3555  1.2421 -1.3720
 1133SOL     OW 4297   4.809   1.284   5.715  0.3688  0.0047 -0.1826
 1133SOL    HW1 4298   4.816   1.293   5.814  0.7358 -0.5957 -0.1491
 1133SOL    HW2 4299   4.819   1.375   5.673  0.0755  0.2792  0.3311
 1134SOL     OW 4300   6.953   3.350   4.402 -0.0126  0.2986 -0.1705
 1134SOL    HW1 4301   6.934   3.252   4.404 -0.4727  0.3577 -1.1455
 1134SOL    HW2 4302   7.035   3.369   4.455 -0.9003 -0.3799  1.5401
 1135SOL     OW 4303   1.612   6.942   2.731 -0.5625  0.2875  0.1570
 1135SOL    HW1 4304   1.607   7.030   2.683 -0.0835  0.5247  0.5270
 1135SOL    HW2 4305   1.703   6.903   2.719 -0.9679 -0.4739 -0.5377
 1136SOL     OW 4306   3.395   3.719   3.848  0.1039  0.4517 -0.2163
 1136SOL    HW1 4307   3.481   3.721   3.797 -0.3257  1.0466 -0.9439
 1136SOL    HW2 4308   3.373   3.624   3.871  2.3114  0.4842  2.4100
 1137SOL     OW 4309   2.767   0.590   3.823 -0.0946 -0.0835  0.3527
 1137SOL    HW1 4310   2.707   0.526   3.775 -0.0834 -0.4167  0.7794
 1137SOL    HW2 4311   2.756   0.579   3.922  1.6578 -1.1449  0.4899
 1138SOL     OW 4312   0.174   5.583   0.650  0.0088 -0.6594  0.5209
 1138SOL    HW1 4313   0.267   5.590   0.687  0.5960 -1.0885 -0.8181
 1138SOL    HW2 4314   0.108   5.591   0.725  1.0057  2.4939  1.2235
 1139SOL     OW 4315   3.970   2.833   0.237 -0.1844 -0.3563 -0.2082
 1139SOL    HW1 4316   3.876   2.866   0.235  0.1710  0.8259  0.9902
 1139SOL    HW2 4317   4.007   2.832   0.144 -1.1194 -0.0344 -0.5969
 1140SOL     OW 4318   0.041   5.832   1.404  0.4145  0.2462 -0.0347
 1140SOL    HW1 4319  -0.054   5.843   1.375  0.8158  1.7685 -0.8384
 1140SOL    HW2 4320   0.090   5.918   1.393  1.9708 -0.5863  0.1106
 1141SOL     OW 4321   0.967   0.395   3.210 -0.3121  0.1918 -0.7293
 1141SOL    HW1 4322   0.970   0.361   3.304 -1.9799  0.0806 -0.6994
 1141SOL    HW2 4323   0.953   0.494   3.211 -0.7811  0.1260 -0.8672
 1142SOL     OW 4324   5.664   6.024   3.790  0.0812  0.5429 -0.2965
 1142SOL    HW1 4325   5.711   5.952   3.739 -2.2021  0.9107 -3.2013
 1142SOL    HW2 4326   5.658   5.998   3.887 -0.2742 -2.9603 -1.1214
 1143SOL     OW 4327   2.481   6.720   6.036  0.2165 -0.1324 -0.4804
 1143SOL    HW1 4328   2.472   6.746   6.132 -4.3187 -0.2490 -0.6789
 1143SOL    HW2 4329   2.454   6.797   5.978 -0.3403 -1.0816 -1.5150
 1144SOL     OW 4330   0.353   6.775   1.714 -0.0236 -0.2928 -0.1872
 1144SOL    HW1 4331   0.424   6.773   1.783 -1.0995 -1.5770  0.9435
 1144SOL    HW2 4332   0.354   6.689   1.662 -1.2280 -0.6895  0.3990
 1145SOL     OW 4333   6.486   3.240   1.039  0.0858  0.4132  0.2416
 1145SOL    HW1 4334   6.489   3.303   1.117  1.1857  0.0026  0.5498
 1145SOL    HW2 4335   6.395   3.244   0.996 -0.0902  1.6619  0.6921
 1146SOL     OW 4336   1.843   1.830   3.536  0.3068 -0.2249 -0.2350
 1146SOL    HW1 4337   1.778   1.780   3.479  0.2273  0.3334 -0.6423
 1146SOL    HW2 4338   1.902   1.765   3.584  0.0784 -0.7098 -0.5998
 1147SOL     OW 4339   3.797   0.353   1.375  0.5222  0.6752 -0.5765
 1147SOL    HW1 4340   3.882   0.301   1.379  0.6867  0.9914  1.4261
 1147SOL    HW2 4341   3.783   0.387   1.283  1.6474 -0.8582 -1.3698
 1148SOL     OW 4342   3.998   4.464   6.392 -0.3937  0.1254 -0.5304
 1148SOL    HW1 4343   3.966   4.542   6.339  0.6133  1.8391  1.2262
 1148SOL    HW2 4344   3.954   4.465   6.482  1.9661  0.6016  0.6981
 1149SOL     OW 4345   5.009   6.259   6.780  0.5908 -0.0075  0.7762
 1149SOL    HW1 4346   4.914   6.279   6.806  0.3217 -0.9045  0.5330
 1149SOL    HW2 4347   5.030   6.301   6.692  0.9303  1.5207  1.5575
 1150SOL     OW 4348   6.721   2.552   0.271  0.3808  0.3195 -0.0671
 1150SOL    HW1 4349   6.672   2.579   0.354 -1.4644 -2.0088 -0.2959
 1150SOL    HW2 4350   6.670   2.585   0.191  0.4800 -0.0804 -0.2938
 1151SOL     OW 4351   1.445   0.561   2.061 -0.4163 -0.2118 -0.1336
 1151SOL    HW1 4352   1.519   0.501   2.091 -0.7861 -1.0662 -0.8986
 1151SOL    HW2 4353   1.445   0.644   2.117  1.9053  0.4011 -0.9369
 1152SOL     OW 4354   6.714   5.466   2.080  0.5387 -0.1118  0.0287
 1152SOL    HW1 4355   6.733   5.414   1.997 -0.5257 -1.3523  0.5114
 1152SOL    HW2 4356   6.718   5.405   2.159 -1.3728  0.3625  0.5576
 1153SOL     OW 4357   2.727   1.774   5.009 -0.4967 -0.0867 -0.0615
 1153SOL    HW1 4358   2.722   1.706   5.082  0.4624 -0.8361 -0.6807
 1153SOL    HW2 4359   2.789   1.848   5.036 -0.8001  0.0672  0.2206
 1154SOL     OW 4360   0.153   1.745   4.740  0.1738 -0.5486  0.0062
 1154SOL    HW1 4361   0.107   1.799   4.669 -0.6122  0.0287  0.9326
 1154SOL    HW2 4362   0.250   1.735   4.716 -0.2918 -1.3520 -1.7248
 1155SOL     OW 4363   1.636   1.834   5.023 -0.0046 -0.5073  0.0374
 1155SOL    HW1 4364   1.610   1.790   4.937  0.1405  0.8210 -0.7099
 1155SOL    HW2 4365   1.567   1.902   5.048 -0.8186 -1.9032  1.7876
 1156SOL     OW 4366   6.459   1.446   5.517  0.0219  0.1390 -0.0936
 1156SOL    HW1 4367   6.403   1.441   5.600 -0.6025 -2.3903 -0.5750
 1156SOL    HW2 4368   6.430   1.524   5.461 -1.8880 -0.1258  0.4622
 1157SOL     OW 4369   4.026   5.623   6.662  0.1398  0.6934 -0.4148
 1157SOL    HW1 4370   4.038   5.559   6.738 -1.7379  0.9327  0.1488
 1157SOL    HW2 4371   3.990   5.710   6.698  1.9861  1.8600 -1.2440
 1158SOL     OW 4372   0.670   2.274   5.220  0.6516  0.0163 -0.3000
 1158SOL    HW1 4373   0.586   2.279   5.168  0.2908  0.3336  0.2992
 1158SOL    HW2 4374   0.682   2.181   5.255  0.7134 -0.1075 -0.6537
 1159SOL     OW 4375   1.153   6.070   6.540 -0.2779  0.5528 -0.4653
 1159SOL    HW1 4376   1.083   6.124   6.494  0.6868  1.4109 -0.9654
 1159SOL    HW2 4377   1.176   5.990   6.485 -2.1798 -0.7934  0.5828
 1160SOL     OW 4378   4.372   2.106   0.825  0.2368  0.1910  0.2158
 1160SOL    HW1 4379   4.352   2.122   0.729 -0.5354 -2.4247 -0.1210
 1160SOL    HW2 4380   4.470   2.091   0.837  0.2197 -0.3598 -0.3158
 1161SOL     OW 4381   1.686   2.839   4.764  0.4546 -0.4107 -0.1679
 1161SOL    HW1 4382   1.761   2.867   4.705  0.8831  1.4840  1.1671
 1161SOL    HW2 4383   1.723   2.798   4.847  0.0239  0.0333  0.2553
 1162SOL     OW 4384   3.265   0.887   5.915 -0.2714 -0.1114 -0.4577
 1162SOL    HW1 4385   3.184   0.834   5.940 -1.2774  0.5453 -2.0906
 1162SOL    HW2 4386   3.302   0.852   5.829 -0.8654  1.6495 -1.4927
 1163SOL     OW 4387   1.741   4.396   5.284  0.1225 -0.6311  0.3049
 1163SOL    HW1 4388   1.764   4.426   5.192  0.0442 -1.9534 -0.1597
 1163SOL    HW2 4389   1.691   4.309   5.281 -0.6442 -0.2718  1.5517
 1164SOL     OW 4390   4.292   0.435   6.879  0.1013  0.0679 -0.5252
 1164SOL    HW1 4391   4.375   0.488   6.894 -0.3217  0.4804  0.4349
 1164SOL    HW2 4392   4.251   0.460   6.792  1.3356 -0.6349 -1.3460
 1165SOL     OW 4393   5.514   1.771   0.314  0.2441 -0.3941  0.8456
 1165SOL    HW1 4394   5.541   1.865   0.335 -0.7748  0.0651  0.1685
 1165SOL    HW2 4395   5.559   1.741   0.230 -0.5664  0.0467  0.2275
 1166SOL     OW 4396   1.489   1.224   3.057  0.1012 -0.0646 -0.3493
 1166SOL    HW1 4397   1.517   1.176   3.140 -0.6841 -1.0122 -0.6095
 1166SOL    HW2 4398   1.488   1.322   3.074  0.1822 -0.2330  0.6844
 1167SOL     OW 4399   5.565   4.804   4.914  0.2467  0.3513 -0.3956
 1167SOL    HW1 4400   5.654   4.848   4.900  0.9859 -0.9657 -0.1105
 1167SOL    HW2 4401   5.513   4.805   4.829  0.9931  0.2109 -0.8700
 1168SOL     OW 4402   4.479   5.015   5.461  0.1248 -0.0545  0.1257
 1168SOL    HW1 4403   4.533   5.088   5.418  0.9405 -1.3530 -1.1509
 1168SOL    HW2 4404   4.470   5.033   5.559  0.2294  1.7863 -0.1692
 1169SOL     OW 4405   1.182   3.613   3.460 -0.2050 -0.0825 -0.6485
 1169SOL    HW1 4406   1.088   3.595   3.433 -0.3986 -1.4262  0.7414
 1169SOL    HW2 4407   1.243   3.548   3.415  0.1296  1.0021 -1.8114
 1170SOL     OW 4408   3.369   4.475   6.745 -0.0992 -0.1059  0.0729
 1170SOL    HW1 4409   3.352   4.464   6.843 -1.0322 -0.7752 -0.1452
 1170SOL    HW2 4410   3.295   4.530   6.705  0.9690  1.2976 -0.0399
 1171SOL     OW 4411   0.830   4.607   5.168 -0.3015 -0.0956 -0.0800
 1171SOL    HW1 4412   0.770   4.531   5.144 -0.3770 -0.0963  0.1033
 1171SOL    HW2 4413   0.775   4.687   5.193 -0.2204  0.0802 -0.4647
 1172SOL     OW 4414   0.015   0.095   1.422  0.4272 -0.0543  0.4250
 1172SOL    HW1 4415  -0.082   0.118   1.413  0.3507 -0.3567  0.4795
 1172SOL    HW2 4416   0.055   0.152   1.494 -0.1424 -1.2085  1.7086
 1173SOL     OW 4417   0.084   1.779   1.825  0.2635  0.5171  0.2773
 1173SOL    HW1 4418   0.120   1.713   1.760  0.8841  1.5471 -0.4692
 1173SOL    HW2 4419   0.138   1.863   1.820 -0.3622  1.0108  1.3512
 1174SOL     OW 4420   0.888   6.741   5.689 -0.4827  0.2526 -0.0629
 1174SOL    HW1 4421   0.828   6.673   5.730 -0.3827 -0.2576 -0.7460
 1174SOL    HW2 4422   0.928   6.704   5.605  2.7921 -0.4215  1.6383
 1175SOL     OW 4423   3.008   3.855   1.341  0.3307  0.1486 -0.6729
 1175SOL    HW1 4424   3.106   3.852   1.320  0.7728 -1.2137  1.3058
 1175SOL    HW2 4425   2.965   3.770   1.310 -0.0703  0.3950 -0.7988
 1176SOL     OW 4426   0.100   2.912   4.563  0.4148 -0.1016 -0.2468
 1176SOL    HW1 4427   0.170   2.925   4.634  0.0423 -0.5583  0.2114
 1176SOL    HW2 4428   0.014   2.887   4.606  0.4808 -1.5943 -0.9448
 1177SOL     OW 4429   1.470   3.708   0.329  0.4337  0.1665 -0.6827
 1177SOL    HW1 4430   1.440   3.619   0.294  1.0552  0.2124 -1.3411
 1177SOL    HW2 4431   1.549   3.740   0.277  0.5803  0.8368 -0.0682
 1178SOL     OW 4432   5.723   4.887   6.502  0.3834 -0.0395 -0.4922
 1178SOL    HW1 4433   5.764   4.822   6.566 -0.5198 -0.1366 -0.0061
 1178SOL    HW2 4434   5.741   4.980   6.533  0.6813 -0.0682 -0.5698
 1179SOL     OW 4435   4.056   1.830   1.060  0.0934  0.1158 -0.1386
 1179SOL    HW1 4436   4.112   1.912   1.050  0.4317 -0.1036 -0.0689
 1179SOL    HW2 4437   3.993   1.823   0.983  0.1912  0.3427 -0.2410
 1180SOL     OW 4438   5.279   3.657   2.332  0.4184  0.2648  0.4636
 1180SOL    HW1 4439   5.280   3.621   2.239 -1.4673 -2.8912  1.5066
 1180SOL    HW2 4440   5.192   3.704   2.349 -0.1000 -0.8741  1.1219
 1181SOL     OW 4441   3.554   1.835   3.458  0.3898  0.0082  0.0837
 1181SOL    HW1 4442   3.567   1.932   3.441  0.2550 -0.3740 -2.6180
 1181SOL    HW2 4443   3.457   1.816   3.473  0.5564  0.4093  1.8746
 1182SOL     OW 4444   3.874   3.003   4.035  0.2792 -0.0157 -0.4465
 1182SOL    HW1 4445   3.820   2.920   4.017  0.4653  0.1895 -2.1477
 1182SOL    HW2 4446   3.902   3.005   4.131 -2.0653 -0.5190  0.3067
 1183SOL     OW 4447   1.214   0.968   0.563 -0.2981 -0.1119  0.3861
 1183SOL    HW1 4448   1.132   0.932   0.608  0.2380  1.2824  2.6720
 1183SOL    HW2 4449   1.293   0.915   0.593 -0.0827  0.0404  0.0850
 1184SOL     OW 4450   2.745   4.862   6.580 -0.1331 -0.7516 -0.2554
 1184SOL    HW1 4451   2.680   4.786   6.580  2.4360 -3.2013  1.9550
 1184SOL    HW2 4452   2.711   4.935   6.639 -2.0382 -0.7262 -1.3129
 1185SOL     OW 4453   0.925   0.065   2.639 -0.8579  0.2908  1.1189
 1185SOL    HW1 4454   0.934   0.104   2.547 -1.7943 -1.4405  0.2510
 1185SOL    HW2 4455   0.900   0.138   2.703 -2.8742  1.1374 -0.4928
 1186SOL     OW 4456   0.793   0.701   4.678  0.8661  0.2430 -0.1832
 1186SOL    HW1 4457   0.711   0.652   4.705  2.1641 -0.8460  2.0059
 1186SOL    HW2 4458   0.776   0.800   4.684 -0.3892  0.0497 -0.2287
 1187SOL     OW 4459   6.150   1.845   2.233 -0.2903  0.0808  0.1168
 1187SOL    HW1 4460   6.243   1.881   2.240  0.5895 -2.1466  0.9867
 1187SOL    HW2 4461   6.103   1.857   2.321 -0.1501 -0.4315  0.2675
 1188SOL     OW 4462   4.201   2.448   1.010 -0.4181  0.2220  0.2381
 1188SOL    HW1 4463   4.145   2.481   1.086  2.2356  3.1817  1.1144
 1188SOL    HW2 4464   4.287   2.410   1.046 -0.4316 -1.2877 -1.1907
 1189SOL     OW 4465   6.046   1.859   5.478 -0.7536  0.7693 -0.1824
 1189SOL    HW1 4466   6.097   1.874   5.563 -0.3124 -0.1811 -0.2699
 1189SOL    HW2 4467   6.030   1.761   5.465  1.9016  0.5289 -2.7414
 1190SOL     OW 4468   2.539   1.950   0.667  0.5612  0.1065 -0.0197
 1190SOL    HW1 4469   2.541   2.050   0.674  0.2355  0.0058  1.7453
 1190SOL    HW2 4470   2.598   1.910   0.737  0.9646 -0.9550 -0.9261
 1191SOL     OW 4471   0.328   1.616   0.025  0.2428  0.3418 -0.0849
 1191SOL    HW1 4472   0.394   1.563   0.079 -1.3099 -0.5264  1.0696
 1191SOL    HW2 4473   0.257   1.554  -0.009  0.7934  1.0026 -2.5884
 1192SOL     OW 4474   2.063   5.763   4.338  0.6384 -0.2702  0.7006
 1192SOL    HW1 4475   1.969   5.737   4.362  0.0739  1.1784  0.1643
 1192SOL    HW2 4476   2.120   5.762   4.419  0.1166 -0.9743  1.0705
 1193SOL     OW 4477   2.599   5.111   5.398  0.1751 -0.0060  0.0185
 1193SOL    HW1 4478   2.683   5.165   5.398  0.6952 -0.6615 -2.7753
 1193SOL    HW2 4479   2.617   5.021   5.359 -1.5055 -0.7846  0.9197
 1194SOL     OW 4480   1.623   1.504   3.039 -0.2500  0.3494  0.2498
 1194SOL    HW1 4481   1.706   1.451   3.058  0.7168  1.6688 -0.2041
 1194SOL    HW2 4482   1.595   1.489   2.944  0.1585  0.8192  0.0520
 1195SOL     OW 4483   0.360   3.497   0.423  0.5306 -0.2193  0.1163
 1195SOL    HW1 4484   0.380   3.594   0.409 -1.1121  0.0436 -0.6233
 1195SOL    HW2 4485   0.344   3.480   0.520  0.7778  0.2534  0.2456
 1196SOL     OW 4486   6.892   1.674   0.606  0.5583 -0.2029 -0.6645
 1196SOL    HW1 4487   6.987   1.650   0.589  1.0861  0.1715  1.4396
 1196SOL    HW2 4488   6.860   1.627   0.689 -1.5539 -1.3944 -2.0417
 1197SOL     OW 4489   4.211   5.785   3.172  0.4532  0.3126 -0.3717
 1197SOL    HW1 4490   4.159   5.703   3.196  2.1781 -0.3297  1.4518
 1197SOL    HW2 4491   4.148   5.855   3.138 -1.7813 -0.1222  2.3965
 1198SOL     OW 4492   0.427   1.843   4.134  0.1367 -0.2216  0.4238
 1198SOL    HW1 4493   0.514   1.827   4.180  0.4673 -1.6663 -0.6212
 1198SOL    HW2 4494   0.423   1.937   4.101  1.6090 -0.2975 -0.0706
 1199SOL     OW 4495   3.508   1.184   5.253  0.3638  0.5550  0.4088
 1199SOL    HW1 4496   3.433   1.135   5.296  0.2601  0.1264 -0.2533
 1199SOL    HW2 4497   3.473   1.264   5.205  0.4458  0.8700  0.8629
 1200SOL     OW 4498   0.304   4.921   6.953 -0.2676  0.6780 -0.4189
 1200SOL    HW1 4499   0.211   4.930   6.989  0.1611 -0.4244  1.0705
 1200SOL    HW2 4500   0.306   4.846   6.886  0.0482 -1.2351  1.6193
 1201SOL     OW 4501   6.623   0.024   1.078 -0.4865  0.0965  0.3173
 1201SOL    HW1 4502   6.566  -0.023   1.145  0.1645  0.0915  0.8679
 1201SOL    HW2 4503   6.576   0.108   1.048 -0.4021  0.5598  1.4326
 1202SOL     OW 4504   3.107   2.523   6.971  0.1240 -0.3492 -0.4422
 1202SOL    HW1 4505   3.027   2.498   6.917 -0.6815  2.3344 -0.6737
 1202SOL    HW2 4506   3.133   2.618   6.950  2.0300 -0.4196  1.2312
 1203SOL     OW 4507   0.125   0.623   4.171 -0.4275 -0.9199 -0.8096
 1203SOL    HW1 4508   0.174   0.579   4.246  0.3475 -0.2574 -0.9141
 1203SOL    HW2 4509   0.028   0.601   4.178 -0.4103 -0.6795  0.5317
 1204SOL     OW 4510   5.062   4.721   4.399  0.1337 -0.2549 -0.0303
 1204SOL    HW1 4511   5.091   4.788   4.331 -1.1372  0.9841  0.5917
 1204SOL    HW2 4512   5.066   4.629   4.360  0.6464  0.3061 -1.3400
 1205SOL     OW 4513   3.746   5.815   6.343  0.3647 -0.1143  0.1559
 1205SOL    HW1 4514   3.780   5.837   6.434 -0.5893  1.2572  0.2168
 1205SOL    HW2 4515   3.787   5.877   6.276 -1.2062  0.9268  0.1051
 1206SOL     OW 4516   0.064   3.278   5.352 -0.2050 -0.0487 -0.4052
 1206SOL    HW1 4517   0.150   3.326   5.372 -1.1546  1.4343  0.2625
 1206SOL    HW2 4518   0.053   3.201   5.415  0.6795 -0.3497 -0.5967
 1207SOL     OW 4519   5.623   6.946   6.647 -0.0149 -0.2855 -0.0229
 1207SOL    HW1 4520   5.583   7.028   6.689 -2.0145 -1.4734  0.5413
 1207SOL    HW2 4521   5.641   6.877   6.718  0.5651 -0.7661 -0.6246
 1208SOL     OW 4522   3.522   4.125   3.795  0.4751 -0.3368 -0.4887
 1208SOL    HW1 4523   3.616   4.096   3.810  0.3579 -0.9874 -0.9578
 1208SOL    HW2 4524   3.472   4.123   3.882  1.2012  1.2219  0.0022
 1209SOL     OW 4525   3.419   3.127   5.397  0.1263  0.4458 -0.1956
 1209SOL    HW1 4526   3.449   3.032   5.390 -0.1519  0.3236  0.2278
 1209SOL    HW2 4527   3.448   3.178   5.316  0.4430  0.0460 -0.3333
 1210SOL     OW 4528   0.200   3.372   5.746 -0.0788  0.2068 -0.1107
 1210SOL    HW1 4529   0.174   3.397   5.839 -1.1767 -2.3604  0.3354
 1210SOL    HW2 4530   0.300   3.362   5.741  0.1600  2.0031  0.3031
 1211SOL     OW 4531   2.225   0.189   6.390  0.6700  0.7108 -0.6943
 1211SOL    HW1 4532   2.262   0.231   6.473  1.0135  1.3718 -1.1713
 1211SOL    HW2 4533   2.136   0.229   6.369  0.7793  0.8521 -0.8862
 1212SOL     OW 4534   3.752   5.600   0.206  0.7312 -0.3567  0.1619
 1212SOL    HW1 4535   3.688   5.525   0.220  0.6242 -0.5664 -1.3574
 1212SOL    HW2 4536   3.746   5.633   0.112 -0.2150  2.4799  1.0943
 1213SOL     OW 4537   5.340   1.454   3.138  0.6113 -0.9460 -0.2834
 1213SOL    HW1 4538   5.432   1.492   3.136  0.5381 -0.7789 -0.6430
 1213SOL    HW2 4539   5.342   1.362   3.177  0.9081 -0.8870 -0.1612
 1214SOL     OW 4540   0.159   6.499   6.546  0.5441  0.0205  0.0294
 1214SOL    HW1 4541   0.148   6.407   6.583 -1.6654  0.0541 -0.4180
 1214SOL    HW2 4542   0.256   6.522   6.541  1.2336 -2.7549 -0.9792
 1215SOL     OW 4543   5.338   2.944   3.875  0.0183 -0.2928 -0.2877
 1215SOL    HW1 4544   5.315   2.935   3.972 -0.3642  1.2457 -0.2113
 1215SOL    HW2 4545   5.315   2.860   3.827 -0.7027 -0.7211  0.7774
 1216SOL     OW 4546   2.575   4.228   6.244 -0.2522  0.5997 -0.3713
 1216SOL    HW1 4547   2.479   4.223   6.217 -0.2379  2.2266 -0.8452
 1216SOL    HW2 4548   2.581   4.272   6.334  0.0601  0.8918 -0.5320
 1217SOL     OW 4549   3.849   0.403   6.550  0.9487  0.0106  0.5454
 1217SOL    HW1 4550   3.938   0.364   6.572  2.1276  2.0517 -0.2694
 1217SOL    HW2 4551   3.805   0.349   6.479  2.1003 -0.3681  0.0961
 1218SOL     OW 4552   0.161   1.946   3.003 -0.3920  0.5256 -0.2225
 1218SOL    HW1 4553   0.070   1.971   3.036 -0.4274 -0.4159  0.4282
 1218SOL    HW2 4554   0.228   1.960   3.076 -0.1767  0.2311 -0.3617
 1219SOL     OW 4555   5.229   6.807   2.161 -0.3344 -0.0696 -0.2642
 1219SOL    HW1 4556   5.171   6.885   2.183 -2.7739 -1.9880  0.6777
 1219SOL    HW2 4557   5.178   6.722   2.179  2.5858 -1.9147 -0.0549
 1220SOL     OW 4558   1.503   5.054   4.126  0.0377  0.4618  0.7916
 1220SOL    HW1 4559   1.423   5.106   4.156  0.4862  0.8800  1.2826
 1220SOL    HW2 4560   1.473   4.969   4.082 -0.6790  0.7478  0.7122
 1221SOL     OW 4561   2.234   2.346   4.947 -0.2949  1.0748 -0.3287
 1221SOL    HW1 4562   2.266   2.413   4.880  2.1875  1.9211  1.5023
 1221SOL    HW2 4563   2.192   2.394   5.024  1.2110  0.5692  0.8552
 1222SOL     OW 4564   5.129   0.304   0.341  0.4930  0.8567  0.4680
 1222SOL    HW1 4565   5.139   0.385   0.398  0.9564 -0.1544  1.8663
 1222SOL    HW2 4566   5.217   0.280   0.300  1.0249 -0.4804  2.2651
 1223SOL     OW 4567   2.162   5.227   5.228 -0.2979  0.5536  0.0284
 1223SOL    HW1 4568   2.066   5.253   5.242 -0.5544  0.2789 -1.0690
 1223SOL    HW2 4569   2.181   5.224   5.130  0.8335  0.5688  0.2355
 1224SOL     OW 4570   0.642   2.788   1.507 -0.2483  0.3533  0.2260
 1224SOL    HW1 4571   0.589   2.871   1.490  1.3882  1.1616 -1.2720
 1224SOL    HW2 4572   0.601   2.737   1.583 -1.7486  2.1162  0.6753
 1225SOL     OW 4573   5.843   2.919   3.649  0.2248  0.0108  0.0790
 1225SOL    HW1 4574   5.745   2.929   3.629  0.1661 -1.9868 -0.8543
 1225SOL    HW2 4575   5.872   2.826   3.627  2.1919  0.3454  1.0566
 1226SOL     OW 4576   1.948   0.546   3.728  0.0130 -0.0549  0.0807
 1226SOL    HW1 4577   2.040   0.508   3.713  1.5015  2.5030  1.9129
 1226SOL    HW2 4578   1.906   0.566   3.640  2.1555  0.7246 -0.8476
 1227SOL     OW 4579   1.015   0.712   4.002 -0.1991  0.2027 -0.1064
 1227SOL    HW1 4580   1.089   0.775   3.978  0.2318  0.1066  0.9232
 1227SOL    HW2 4581   1.002   0.647   3.928  0.7270  0.2470 -0.3260
 1228SOL     OW 4582   3.517   1.660   0.722  0.2076 -0.0147 -0.1678
 1228SOL    HW1 4583   3.530   1.582   0.784  0.5772 -1.0830 -1.5353
 1228SOL    HW2 4584   3.587   1.658   0.650 -0.1013  1.2853 -0.5385
 1229SOL     OW 4585   0.690   0.935   4.589 -0.2544  0.2360  0.2141
 1229SOL    HW1 4586   0.779   0.979   4.582 -0.2779  0.3184  0.4407
 1229SOL    HW2 4587   0.618   0.999   4.561 -0.1091 -0.3981 -1.8107
 1230SOL     OW 4588   4.935   4.470   2.817 -0.1869  0.6829 -0.0649
 1230SOL    HW1 4589   5.023   4.444   2.779 -0.6182 -0.0912 -0.5566
 1230SOL    HW2 4590   4.861   4.423   2.769 -0.7898  0.1781  1.2853
 1231SOL     OW 4591   1.940   1.090   0.150 -0.0137 -0.6357 -0.3339
 1231SOL    HW1 4592   1.961   0.993   0.142  2.9023  0.0038 -1.5553
 1231SOL    HW2 4593   1.990   1.129   0.228  0.7551  0.3014 -1.2633
 1232SOL     OW 4594   1.794   2.835   6.191  0.3784  0.1469 -0.3339
 1232SOL    HW1 4595   1.864   2.777   6.232 -0.1825 -0.6306 -0.4591
 1232SOL    HW2 4596   1.703   2.803   6.218  0.0594  1.0840 -0.2524
 1233SOL     OW 4597   1.830   6.585   4.916 -0.1776  0.3707 -0.2584
 1233SOL    HW1 4598   1.851   6.643   4.995 -0.5634  0.8169 -0.4782
 1233SOL    HW2 4599   1.895   6.603   4.843  1.4103 -1.4462  0.6258
 1234SOL     OW 4600   6.997   5.294   6.258  0.6564  0.5222 -0.4366
 1234SOL    HW1 4601   6.991   5.370   6.322  1.1970 -1.6177  2.3469
 1234SOL    HW2 4602   6.905   5.266   6.230  0.3494  0.7857  0.2918
 1235SOL     OW 4603   5.952   4.733   6.400  0.4575 -0.3639  0.0937
 1235SOL    HW1 4604   5.918   4.649   6.356  1.2781 -0.2843 -0.7289
 1235SOL    HW2 4605   5.881   4.804   6.396  0.6421 -0.2419 -1.4608
 1236SOL     OW 4606   5.447   1.637   4.931 -0.9378 -0.0932 -0.2335
 1236SOL    HW1 4607   5.403   1.721   4.900  1.6519  1.2224 -0.6463
 1236SOL    HW2 4608   5.500   1.598   4.855 -0.0798 -0.6599  0.6415
 1237SOL     OW 4609   5.900   4.262   0.408 -0.1933  0.2437 -0.1237
 1237SOL    HW1 4610   5.842   4.334   0.370  0.0630 -0.1737 -1.3592
 1237SOL    HW2 4611   5.915   4.192   0.338  2.6598  0.8454 -0.2328
 1238SOL     OW 4612   1.775   4.769   6.460  0.0684 -0.2511 -0.6148
 1238SOL    HW1 4613   1.788   4.846   6.522  1.0106 -0.8228 -0.0752
 1238SOL    HW2 4614   1.681   4.735   6.467 -0.4181  0.9716 -1.0256
 1239SOL     OW 4615   0.814   0.788   2.896  0.6146 -0.7675  0.0221
 1239SOL    HW1 4616   0.911   0.812   2.911  0.6820 -0.2858 -1.1031
 1239SOL    HW2 4617   0.761   0.872   2.886  0.4566 -1.0397 -1.5999
 1240SOL     OW 4618   6.774   1.571   0.837  0.2458  0.1021  0.2758
 1240SOL    HW1 4619   6.705   1.547   0.768  1.3545 -0.1653 -0.7658
 1240SOL    HW2 4620   6.729   1.619   0.913 -0.7464  2.1875 -1.5174
 1241SOL     OW 4621   3.737   1.618   4.432  0.0794 -0.3699 -0.0889
 1241SOL    HW1 4622   3.706   1.584   4.521  0.3511  0.3429  0.2896
 1241SOL    HW2 4623   3.695   1.708   4.414 -0.8514 -1.0037 -1.2000
 1242SOL     OW 4624   6.196   4.635   2.051  0.6730 -0.2629  0.5584
 1242SOL    HW1 4625   6.147   4.669   1.971  1.1215  0.9485  0.7759
 1242SOL    HW2 4626   6.146   4.557   2.090  0.8690 -1.4238 -1.3534
 1243SOL     OW 4627   5.930   2.256   3.262  0.5803 -0.4810 -0.1313
 1243SOL    HW1 4628   5.973   2.215   3.181 -1.5282 -2.3238 -0.4179
 1243SOL    HW2 4629   5.867   2.328   3.234  1.1247  0.0725  0.0399
 1244SOL     OW 4630   3.693   3.308   3.123 -0.0014 -0.0080 -0.4816
 1244SOL    HW1 4631   3.622   3.309   3.052  1.1301 -0.3158 -1.6476
 1244SOL    HW2 4632   3.770   3.363   3.093  0.8907 -0.9102  0.1074
 1245SOL     OW 4633   1.349   2.971   3.695 -0.0972  0.5430 -0.3010
 1245SOL    HW1 4634   1.421   3.039   3.682 -0.8536  1.5668  0.6606
 1245SOL    HW2 4635   1.361   2.928   3.785 -1.5099  1.8002  0.5350
 1246SOL     OW 4636   0.120   6.750   2.957  0.0521  0.1409 -0.6030
 1246SOL    HW1 4637   0.090   6.828   2.902  2.2350  1.1268 -0.4725
 1246SOL    HW2 4638   0.039   6.699   2.988 -1.3697  1.4773 -1.8870
 1247SOL     OW 4639   2.081   1.885   6.363  0.3204 -0.4847  0.4905
 1247SOL    HW1 4640   2.087   1.922   6.270 -0.4860  0.6981  0.8917
 1247SOL    HW2 4641   2.077   1.785   6.358 -2.6726 -0.4095 -0.9779
 1248SOL     OW 4642   2.842   1.701   6.008 -0.1621  0.5045 -0.1915
 1248SOL    HW1 4643   2.829   1.614   6.055 -0.6376  0.8749  0.3806
 1248SOL    HW2 4644   2.922   1.748   6.045 -0.3030  0.6159 -0.0272
 1249SOL     OW 4645   1.050   6.317   4.984  0.5164 -0.1816 -0.0897
 1249SOL    HW1 4646   0.964   6.362   5.008  1.5698  1.3602  1.0050
 1249SOL    HW2 4647   1.113   6.385   4.944  1.1731 -1.3236 -1.0695
 1250SOL     OW 4648   4.455   5.236   5.944  0.3367  0.1339  0.5619
 1250SOL    HW1 4649   4.545   5.258   5.981  1.4187 -1.1364 -1.1507
 1250SOL    HW2 4650   4.445   5.275   5.853 -0.3561 -0.7084  0.2561
 1251SOL     OW 4651   4.454   1.661   5.369  0.0633 -0.7677 -0.0963
 1251SOL    HW1 4652   4.359   1.675   5.341 -0.4077 -0.3254  1.5731
 1251SOL    HW2 4653   4.516   1.685   5.295 -1.1462 -2.2533 -1.6614
 1252SOL     OW 4654   3.132   3.611   0.210  0.5170  0.5462  0.4566
 1252SOL    HW1 4655   3.190   3.693   0.208  0.6492  0.4508  0.4300
 1252SOL    HW2 4656   3.047   3.630   0.160 -0.2898  1.3024  2.0273
 1253SOL     OW 4657   6.836   6.573   4.317  0.2698 -0.1437 -0.6398
 1253SOL    HW1 4658   6.867   6.536   4.229  1.6878 -3.9658  1.2215
 1253SOL    HW2 4659   6.826   6.498   4.383  1.6575  2.6985  3.2052
 1254SOL     OW 4660   5.907   5.385   5.776  0.0091  0.3825 -0.4974
 1254SOL    HW1 4661   5.863   5.335   5.851 -0.9605 -0.0871 -1.3486
 1254SOL    HW2 4662   5.854   5.466   5.753  1.0880  1.3329  0.2664
 1255SOL     OW 4663   2.653   5.649   1.781  0.4013 -0.0799 -0.0543
 1255SOL    HW1 4664   2.632   5.746   1.777 -0.3165 -0.0567  2.4677
 1255SOL    HW2 4665   2.572   5.598   1.810  0.7695 -1.4538 -1.3015
 1256SOL     OW 4666   2.588   2.099   6.307 -0.0269 -0.3000 -0.1222
 1256SOL    HW1 4667   2.545   2.137   6.224 -0.4077 -1.9793 -0.7244
 1256SOL    HW2 4668   2.675   2.056   6.283  0.4649  0.2887  0.5753
 1257SOL     OW 4669   6.942   3.886   0.065  0.1374  0.0433 -0.2786
 1257SOL    HW1 4670   6.948   3.788   0.051  0.7005  0.0618 -0.1921
 1257SOL    HW2 4671   6.890   3.905   0.148 -0.3811 -0.1633 -0.5532
 1258SOL     OW 4672   5.164   5.273   4.815 -0.6062 -0.0308 -0.0925
 1258SOL    HW1 4673   5.213   5.218   4.882  0.5226  0.2409 -0.6696
 1258SOL    HW2 4674   5.227   5.340   4.775 -1.5060  0.4601 -0.7118
 1259SOL     OW 4675   0.674   4.832   4.895  0.0136  0.0989 -0.3424
 1259SOL    HW1 4676   0.690   4.774   4.815 -1.1909 -0.2302 -0.3625
 1259SOL    HW2 4677   0.713   4.922   4.880  1.2590 -0.4710 -0.6192
 1260SOL     OW 4678   2.890   5.300   6.515  0.2463  0.1937 -0.6061
 1260SOL    HW1 4679   2.889   5.366   6.439  0.7416  0.9763  0.0445
 1260SOL    HW2 4680   2.880   5.207   6.479 -1.1503  0.6613 -1.4892
 1261SOL     OW 4681   4.002   5.149   0.589 -0.3778  0.3330  0.0928
 1261SOL    HW1 4682   4.027   5.116   0.680  2.3651 -1.6538 -1.2705
 1261SOL    HW2 4683   3.938   5.085   0.547 -2.3293  1.6879  0.8375
 1262SOL     OW 4684   4.350   5.615   5.075  0.0947  0.2084 -0.0313
 1262SOL    HW1 4685   4.348   5.625   4.976  0.4162  1.3867  0.0626
 1262SOL    HW2 4686   4.439   5.644   5.110 -0.0006 -0.2338  0.6059
 1263SOL     OW 4687   2.863   2.796   6.698  0.2503  0.4463 -0.0306
 1263SOL    HW1 4688   2.785   2.855   6.718  1.6918  2.0326  1.1601
 1263SOL    HW2 4689   2.948   2.845   6.717  1.5451 -2.2653  1.8217
 1264SOL     OW 4690   2.427   6.592   5.327 -0.3313  0.2508  0.0280
 1264SOL    HW1 4691   2.412   6.674   5.382  0.2933  0.8447 -0.6614
 1264SOL    HW2 4692   2.495   6.611   5.256 -1.2903 -0.4185 -1.1139
 1265SOL     OW 4693   6.581   5.544   1.241 -0.4549 -0.0925 -0.1715
 1265SOL    HW1 4694   6.570   5.445   1.250 -2.1944  0.2369  2.5437
 1265SOL    HW2 4695   6.597   5.584   1.332 -0.5831  2.1966 -1.0923
 1266SOL     OW 4696   1.948   0.631   6.059  0.2429  0.4748  0.0081
 1266SOL    HW1 4697   1.864   0.606   6.108 -0.3384  2.1267 -0.0802
 1266SOL    HW2 4698   1.927   0.645   5.962  0.6781  0.6344 -0.0668
 1267SOL     OW 4699   2.952   3.425   3.203 -0.2851 -0.1268 -0.3296
 1267SOL    HW1 4700   3.004   3.509   3.220  0.9429 -0.8062 -0.6436
 1267SOL    HW2 4701   2.935   3.378   3.289  0.1431 -0.1914 -0.2759
 1268SOL     OW 4702   5.733   2.307   1.962  0.7732  0.0670 -0.4949
 1268SOL    HW1 4703   5.804   2.240   1.983 -0.6000 -1.7832 -1.4583
 1268SOL    HW2 4704   5.680   2.276   1.883 -0.4679  1.9019 -0.4535
 1269SOL     OW 4705   7.008   2.869   4.056  0.3060 -0.0898 -0.3509
 1269SOL    HW1 4706   7.069   2.827   4.123  0.6551  0.2753 -0.4410
 1269SOL    HW2 4707   7.054   2.873   3.967 -0.4160 -1.2439 -0.8023
 1270SOL     OW 4708   3.530   3.190   2.433 -0.5764  0.0359 -0.5121
 1270SOL    HW1 4709   3.470   3.202   2.353  1.4321  0.6888 -2.0017
 1270SOL    HW2 4710   3.540   3.093   2.453 -2.5257 -0.0860  0.1429
 1271SOL     OW 4711   4.918   1.622   3.921 -0.0676 -0.1982 -0.3122
 1271SOL    HW1 4712   4.833   1.569   3.921 -0.8296  0.9976 -0.7173
 1271SOL    HW2 4713   4.904   1.708   3.971  1.1080 -0.2782  0.2020
 1272SOL     OW 4714   0.568   5.593   1.064 -0.0580 -0.7759  0.7375
 1272SOL    HW1 4715   0.503   5.622   0.994  1.0076  0.0734  0.0717
 1272SOL    HW2 4716   0.570   5.493   1.068 -0.7144 -0.8239  0.1075
 1273SOL     OW 4717   3.846   2.990   4.315 -0.0706 -0.0467 -0.7522
 1273SOL    HW1 4718   3.854   2.899   4.356 -1.7087  0.1251  0.0274
 1273SOL    HW2 4719   3.750   3.009   4.296  0.1261  1.8950 -0.0250
 1274SOL     OW 4720   3.711   5.961   3.315  0.2403 -0.3959 -0.8355
 1274SOL    HW1 4721   3.758   6.043   3.347 -0.3553 -0.4268  0.1446
 1274SOL    HW2 4722   3.657   5.922   3.389  0.6749 -1.8026 -1.2375
 1275SOL     OW 4723   4.909   5.287   2.184  0.6146  0.6464  0.1150
 1275SOL    HW1 4724   4.903   5.227   2.264  0.5332  0.2335 -0.1981
 1275SOL    HW2 4725   4.824   5.338   2.174  0.2393 -0.0502 -0.2895
 1276SOL     OW 4726   4.762   6.766   3.328 -0.5933  0.1904  0.2900
 1276SOL    HW1 4727   4.805   6.693   3.382 -0.8379 -0.2145 -0.0610
 1276SOL    HW2 4728   4.777   6.854   3.374  0.2417  0.0033  0.3936
 1277SOL     OW 4729   0.481   4.557   4.114  0.0876 -0.3158  0.2886
 1277SOL    HW1 4730   0.546   4.515   4.049  1.5339 -0.3697  1.7175
 1277SOL    HW2 4731   0.515   4.646   4.142 -0.3087 -0.4777  1.3071
 1278SOL     OW 4732   1.947   4.138   3.555  0.0811 -0.4484  0.5491
 1278SOL    HW1 4733   2.042   4.161   3.539 -0.5774  1.0363 -1.6244
 1278SOL    HW2 4734   1.909   4.197   3.627  0.4630 -0.2164  0.5594
 1279SOL     OW 4735   3.677   2.832   1.173 -0.5698 -0.1847 -0.4860
 1279SOL    HW1 4736   3.626   2.844   1.088 -0.5877 -2.0850 -0.7849
 1279SOL    HW2 4737   3.769   2.799   1.152 -0.1864  0.4327  0.1929
 1280SOL     OW 4738   5.438   1.503   5.175  0.2348 -0.4709  0.2317
 1280SOL    HW1 4739   5.338   1.498   5.185  0.3302  0.9256  2.9963
 1280SOL    HW2 4740   5.461   1.537   5.084 -1.7050 -2.4292 -1.0830
 1281SOL     OW 4741   6.735   2.009   4.668 -0.4185 -0.2799  0.4186
 1281SOL    HW1 4742   6.683   1.932   4.704  1.9649 -1.9348  0.5475
 1281SOL    HW2 4743   6.800   2.041   4.736  0.0301  0.4811 -0.3432
 1282SOL     OW 4744   1.748   1.980   5.704  0.4150  0.2411 -0.2448
 1282SOL    HW1 4745   1.758   1.895   5.652  2.6814  0.6775 -0.5933
 1282SOL    HW2 4746   1.747   1.960   5.802 -1.7502 -0.3736 -0.3203
 1283SOL     OW 4747   5.138   1.530   6.872 -0.2854 -0.2958 -0.7163
 1283SOL    HW1 4748   5.195   1.564   6.798 -1.0816  1.8260 -0.4248
 1283SOL    HW2 4749   5.184   1.545   6.960 -0.2457 -0.8564 -0.6374
 1284SOL     OW 4750   1.902   4.948   0.549 -0.3172 -0.0213  0.3386
 1284SOL    HW1 4751   2.002   4.945   0.543 -0.2458  1.0412  0.7121
 1284SOL    HW2 4752   1.876   4.971   0.643 -0.9493 -1.2785  0.4835
 1285SOL     OW 4753   5.295   4.356   6.311  0.8450 -0.1539  0.1467
 1285SOL    HW1 4754   5.292   4.418   6.389 -0.3736 -1.9934  1.6618
 1285SOL    HW2 4755   5.381   4.304   6.312  0.7003 -0.3876  0.4426
 1286SOL     OW 4756   4.190   5.247   4.460  0.1771  0.1771 -0.1795
 1286SOL    HW1 4757   4.284   5.257   4.426 -0.0727  2.9178 -0.2723
 1286SOL    HW2 4758   4.126   5.280   4.391 -0.7747 -0.4397  0.3918
 1287SOL     OW 4759   1.241   1.706   5.029 -0.9753 -0.0483 -0.0279
 1287SOL    HW1 4760   1.181   1.653   5.088 -0.1591 -1.4837 -0.4454
 1287SOL    HW2 4761   1.287   1.645   4.964  0.6182  1.0392  0.0062
 1288SOL     OW 4762   4.671   2.844   6.882  0.2909  0.3844  0.1286
 1288SOL    HW1 4763   4.627   2.844   6.972  0.9791 -0.2527  0.4749
 1288SOL    HW2 4764   4.601   2.844   6.811 -0.2878 -0.9614  0.6704
 1289SOL     OW 4765   6.685   1.287   2.687 -0.6403 -0.1957 -0.2102
 1289SOL    HW1 4766   6.747   1.360   2.660 -0.7473  0.2979  0.8408
 1289SOL    HW2 4767   6.606   1.325   2.735  0.4846 -1.1067  2.5921
 1290SOL     OW 4768   2.524   3.069   1.066 -0.3889 -0.3749  0.1588
 1290SOL    HW1 4769   2.462   3.017   1.007  1.8525 -1.3795 -1.4233
 1290SOL    HW2 4770   2.565   3.009   1.135 -1.2571  0.3282  1.3369
 1291SOL     OW 4771   0.472   2.210   2.491  0.5492 -0.5237 -0.4413
 1291SOL    HW1 4772   0.560   2.168   2.515  0.2689 -0.2480  1.1670
 1291SOL    HW2 4773   0.464   2.299   2.535 -0.0773 -0.0318 -1.4990
 1292SOL     OW 4774   3.366   3.319   5.613  1.3064  0.5059  0.2380
 1292SOL    HW1 4775   3.392   3.269   5.531  0.6228  0.2684  0.1613
 1292SOL    HW2 4776   3.344   3.255   5.686  0.6810  0.6900  0.2182
 1293SOL     OW 4777   4.014   3.489   4.855 -0.4178  0.2844  0.3576
 1293SOL    HW1 4778   3.916   3.500   4.871 -0.7022  0.2177 -1.1929
 1293SOL    HW2 4779   4.056   3.579   4.841 -0.6112  0.1972 -0.8333
 1294SOL     OW 4780   2.538   3.863   1.191  0.4609 -0.1255 -0.5164
 1294SOL    HW1 4781   2.593   3.796   1.141  1.3375 -0.2048  0.5367
 1294SOL    HW2 4782   2.471   3.815   1.248 -0.6934 -0.0310 -1.7336
 1295SOL     OW 4783   0.241   4.433   5.579 -0.3580 -0.0054 -0.2618
 1295SOL    HW1 4784   0.340   4.444   5.566 -0.3091  0.9452  0.7246
 1295SOL    HW2 4785   0.218   4.457   5.673 -1.7697  1.5020 -0.9449
 1296SOL     OW 4786   1.623   2.961   5.104 -0.0510 -0.5645 -0.0384
 1296SOL    HW1 4787   1.620   3.039   5.041  0.5920  1.1280  1.9190
 1296SOL    HW2 4788   1.716   2.926   5.108  0.2168  0.2088  0.9307
 1297SOL     OW 4789   6.498   0.538   2.647  0.3042  0.4601  0.0403
 1297SOL    HW1 4790   6.420   0.597   2.628 -1.7862 -1.5425  1.7910
 1297SOL    HW2 4791   6.493   0.457   2.588  0.6999  0.0412  0.5737
 1298SOL     OW 4792   7.010   0.794   6.005  0.1361  0.3057 -0.2310
 1298SOL    HW1 4793   7.026   0.729   6.079  0.7922  0.9099  0.1744
 1298SOL    HW2 4794   7.073   0.871   6.015  0.9698 -0.0999 -2.0164
 1299SOL     OW 4795   2.686   4.226   0.814 -0.0254 -0.4322  0.0732
 1299SOL    HW1 4796   2.614   4.163   0.787  1.1890 -1.7275 -0.3093
 1299SOL    HW2 4797   2.653   4.288   0.886 -2.2056  0.6105 -1.7018
 1300SOL     OW 4798   2.177   0.748   2.356  0.1139  0.0954 -0.4650
 1300SOL    HW1 4799   2.129   0.833   2.377 -0.5176  0.1433 -1.9358
 1300SOL    HW2 4800   2.117   0.689   2.302  1.3807 -0.2121 -1.6139
 1301SOL     OW 4801   0.055   4.638   4.509 -0.2481  0.2355 -0.2474
 1301SOL    HW1 4802  -0.039   4.658   4.484 -0.0395  0.3323 -0.9776
 1301SOL    HW2 4803   0.071   4.666   4.604 -1.5216 -1.7078  0.6015
 1302SOL     OW 4804   0.170   2.066   0.991  0.0454  0.1504 -0.4662
 1302SOL    HW1 4805   0.157   1.972   0.957  0.1297  0.4396 -1.3208
 1302SOL    HW2 4806   0.249   2.068   1.053  2.4371  0.3108 -3.3027
 1303SOL     OW 4807   4.861   6.546   3.440  0.3508  0.5914  0.4754
 1303SOL    HW1 4808   4.880   6.517   3.346 -0.8537  2.4330 -0.4047
 1303SOL    HW2 4809   4.780   6.499   3.474  2.0910 -1.8279  1.5310
 1304SOL     OW 4810   5.706   0.454   0.078 -0.0760  0.2522 -0.4583
 1304SOL    HW1 4811   5.647   0.404   0.142  0.3471  0.7794  0.3586
 1304SOL    HW2 4812   5.656   0.472  -0.007 -0.4669 -0.9368 -0.5067
 1305SOL     OW 4813   1.259   0.140   2.110  0.0436  0.5501 -0.0458
 1305SOL    HW1 4814   1.163   0.127   2.136  0.4636  1.1037  1.9337
 1305SOL    HW2 4815   1.308   0.188   2.183  1.7033  0.8501 -1.2821
 1306SOL     OW 4816   1.118   5.212   6.369 -0.6090  0.1037  0.5960
 1306SOL    HW1 4817   1.194   5.232   6.306 -0.0874 -1.7510  0.5695
 1306SOL    HW2 4818   1.144   5.235   6.462 -0.1178 -0.2103  0.5410
 1307SOL     OW 4819   4.614   5.785   2.709 -0.3708 -0.0306 -0.6861
 1307SOL    HW1 4820   4.709   5.759   2.693 -0.2190  0.4483 -0.5908
 1307SOL    HW2 4821   4.610   5.851   2.783 -0.6307  0.9959 -1.5840
 1308SOL     OW 4822   2.434   4.217   6.863  0.4759  0.1310 -0.0504
 1308SOL    HW1 4823   2.448   4.311   6.895 -0.2287  0.1372  0.2616
 1308SOL    HW2 4824   2.521   4.178   6.835  0.9849  0.4130  1.0882
 1309SOL     OW 4825   0.738   6.247   5.242 -0.5144 -0.5287  0.4376
 1309SOL    HW1 4826   0.762   6.168   5.299  0.5035 -1.0739 -0.6982
 1309SOL    HW2 4827   0.644   6.239   5.212 -0.5662 -1.0662  0.7271
 1310SOL     OW 4828   5.698   5.243   5.514  0.2880 -0.4176 -0.2627
 1310SOL    HW1 4829   5.784   5.256   5.465 -0.2080 -0.0177 -1.0570
 1310SOL    HW2 4830   5.685   5.317   5.580  0.5306 -0.4509 -0.1802
 1311SOL     OW 4831   3.467   6.303   2.620 -0.2233  0.2945 -0.2430
 1311SOL    HW1 4832   3.528   6.299   2.540  1.6822  0.7324  1.0989
 1311SOL    HW2 4833   3.374   6.279   2.593  0.5679 -0.6294 -2.3762
 1312SOL     OW 4834   4.002   5.203   2.417 -0.7657  0.0109  0.4877
 1312SOL    HW1 4835   4.004   5.302   2.403 -0.5996  0.0136  0.5278
 1312SOL    HW2 4836   3.928   5.180   2.480 -0.0489  0.2364  1.4472
 1313SOL     OW 4837   6.526   2.160   5.963  0.4652  0.0473 -0.9633
 1313SOL    HW1 4838   6.597   2.219   5.925  0.4424  0.0356 -1.0236
 1313SOL    HW2 4839   6.564   2.068   5.978  1.4432  0.8323  2.0664
 1314SOL     OW 4840   5.848   4.020   3.995 -0.2292 -0.3749 -0.4417
 1314SOL    HW1 4841   5.853   4.088   3.922  0.8917 -0.3633 -0.3628
 1314SOL    HW2 4842   5.884   3.933   3.962 -0.2967 -0.5387 -0.0905
 1315SOL     OW 4843   3.746   3.081   2.745  0.1109 -0.5982  0.3517
 1315SOL    HW1 4844   3.758   3.058   2.841 -1.2786  1.3971  1.0514
 1315SOL    HW2 4845   3.831   3.122   2.710 -0.0325  0.6043  1.3431
 1316SOL     OW 4846   0.733   1.964   3.826  0.4474 -0.2659  0.8636
 1316SOL    HW1 4847   0.716   1.963   3.924  1.7546 -0.2467  1.1147
 1316SOL    HW2 4848   0.674   2.032   3.782 -3.0773 -2.9353  0.9986
 1317SOL     OW 4849   3.623   5.299   5.742 -0.1218 -0.2779 -0.1009
 1317SOL    HW1 4850   3.625   5.393   5.777 -0.0967 -0.1802 -0.3567
 1317SOL    HW2 4851   3.562   5.295   5.662 -1.8222 -0.9379  1.1880
 1318SOL     OW 4852   5.343   6.678   4.224  0.2235 -0.8910 -0.9612
 1318SOL    HW1 4853   5.422   6.624   4.252 -0.3410 -1.3290 -0.1526
 1318SOL    HW2 4854   5.275   6.618   4.182 -0.4845 -0.8714  0.1052
 1319SOL     OW 4855   5.587   2.746   3.311 -0.0837  0.1389  0.0121
 1319SOL    HW1 4856   5.521   2.690   3.262  0.6803 -0.1750 -0.6802
 1319SOL    HW2 4857   5.648   2.687   3.364 -1.0570  0.4858  1.5714
 1320SOL     OW 4858   2.606   4.028   1.403  0.1212 -0.5566  0.3173
 1320SOL    HW1 4859   2.584   3.956   1.337 -0.8174 -0.2383  0.2661
 1320SOL    HW2 4860   2.689   4.004   1.453  0.9037 -0.7730 -1.0275
 1321SOL     OW 4861   2.193   3.228   1.840  0.2281 -0.3401  0.4094
 1321SOL    HW1 4862   2.109   3.204   1.790  0.8371 -1.7572  0.0234
 1321SOL    HW2 4863   2.185   3.322   1.874 -1.2774 -0.2454 -0.1046
 1322SOL     OW 4864   6.059   1.618   3.922  0.1816 -0.0085 -0.3038
 1322SOL    HW1 4865   6.036   1.523   3.943 -1.1059  0.6476  1.4427
 1322SOL    HW2 4866   6.090   1.624   3.827  2.2260 -2.4811  0.0960
 1323SOL     OW 4867   6.058   6.723   2.673 -0.1828 -0.3007  0.2407
 1323SOL    HW1 4868   5.981   6.679   2.625 -0.3418  1.4294 -1.1673
 1323SOL    HW2 4869   6.027   6.755   2.762 -0.4205 -1.7843  0.7197
 1324SOL     OW 4870   0.026   6.462   6.265 -0.0240  0.0887  0.0696
 1324SOL    HW1 4871   0.118   6.426   6.283 -0.2582 -0.0433  1.0299
 1324SOL    HW2 4872  -0.001   6.523   6.338 -0.7907 -0.0349 -0.1044
 1325SOL     OW 4873   0.938   0.996   4.541  0.2143  0.0449  0.7234
 1325SOL    HW1 4874   0.953   1.095   4.539 -0.7321  0.1954  0.1984
 1325SOL    HW2 4875   1.016   0.951   4.583 -0.4724  1.2413  3.4806
 1326SOL     OW 4876   3.927   1.932   6.573  0.7888  0.4208  0.6648
 1326SOL    HW1 4877   3.830   1.939   6.547  0.0481 -2.7229  2.1123
 1326SOL    HW2 4878   3.983   1.928   6.490 -0.3452  1.5185 -0.2058
 1327SOL     OW 4879   1.485   5.572   5.663  0.2940  0.0244 -0.4473
 1327SOL    HW1 4880   1.581   5.590   5.682  0.3191  1.4751 -1.7199
 1327SOL    HW2 4881   1.477   5.516   5.580  0.0311  1.6298 -1.5422
 1328SOL     OW 4882   2.136   5.511   5.301 -0.1820 -0.2653 -0.7507
 1328SOL    HW1 4883   2.070   5.501   5.227 -2.9721 -2.6804  1.7787
 1328SOL    HW2 4884   2.180   5.423   5.319  1.1237  0.4872 -0.0890
 1329SOL     OW 4885   3.732   6.698   4.107 -0.1341  0.2695 -0.3380
 1329SOL    HW1 4886   3.691   6.704   4.016  1.5561 -0.2326 -1.1676
 1329SOL    HW2 4887   3.829   6.720   4.102 -0.0752  0.5917  1.4294
 1330SOL     OW 4888   0.370   3.847   4.888 -0.5472  0.1179 -0.5506
 1330SOL    HW1 4889   0.405   3.939   4.871 -0.6656  0.4126  0.6588
 1330SOL    HW2 4890   0.440   3.779   4.863 -0.2719  0.5539 -0.9788
 1331SOL     OW 4891   6.989   5.582   4.782  0.8597  0.3529  0.0653
 1331SOL    HW1 4892   6.902   5.572   4.732  1.1737  2.8959 -1.1483
 1331SOL    HW2 4893   7.065   5.553   4.723  0.9889 -0.1348  0.4626
 1332SOL     OW 4894   2.065   0.504   1.249  0.1887  0.1860  0.4678
 1332SOL    HW1 4895   2.068   0.405   1.233 -2.3353 -0.4710  3.2100
 1332SOL    HW2 4896   2.137   0.529   1.314  0.1548 -0.0588  0.6027
 1333SOL     OW 4897   0.772   3.502   5.165  0.5411  0.5913 -0.2907
 1333SOL    HW1 4898   0.673   3.494   5.176  0.5161  1.9847  0.8309
 1333SOL    HW2 4899   0.817   3.426   5.210  0.0001  0.3762 -0.1099
 1334SOL     OW 4900   3.731   4.958   2.803 -0.2334 -0.0799  0.2975
 1334SOL    HW1 4901   3.725   4.868   2.761 -0.0391 -0.0556  0.2164
 1334SOL    HW2 4902   3.661   4.967   2.874 -0.7958  0.0068 -0.2570
 1335SOL     OW 4903   3.664   5.693   5.252 -0.0216  0.3525 -0.5465
 1335SOL    HW1 4904   3.660   5.793   5.256 -4.1301  0.3380 -0.0833
 1335SOL    HW2 4905   3.707   5.658   5.335  1.3050  1.6763 -0.6292
 1336SOL     OW 4906   2.399   4.354   2.454 -0.1623 -0.1766 -0.0022
 1336SOL    HW1 4907   2.464   4.426   2.481 -0.7778  0.0249  1.0114
 1336SOL    HW2 4908   2.396   4.347   2.355  0.3682  0.7703 -0.0987
 1337SOL     OW 4909   4.501   1.711   0.948  0.0149 -0.1334  0.2504
 1337SOL    HW1 4910   4.470   1.738   1.039 -2.7306 -2.4235  0.1324
 1337SOL    HW2 4911   4.435   1.742   0.879  1.1055 -0.0179 -0.7754
 1338SOL     OW 4912   0.472   6.974   5.859  0.2821  0.0246  0.2451
 1338SOL    HW1 4913   0.477   7.047   5.926 -0.7606 -0.3630  0.7595
 1338SOL    HW2 4914   0.563   6.957   5.821  0.3460  2.3938 -0.7927
 1339SOL     OW 4915   4.101   0.645   5.054  0.0732 -0.4184 -0.6336
 1339SOL    HW1 4916   4.173   0.624   4.987  1.7884  2.2392  0.1884
 1339SOL    HW2 4917   4.134   0.717   5.116 -2.7304 -0.3100  0.8863
 1340SOL     OW 4918   5.916   3.570   1.673  0.1336  0.0993  0.1994
 1340SOL    HW1 4919   5.893   3.473   1.676 -0.0575  0.1639  1.7883
 1340SOL    HW2 4920   5.835   3.625   1.692  0.2622  0.5676 -0.5861
 1341SOL     OW 4921   4.565   0.491   0.276  0.2492 -0.2346  0.3108
 1341SOL    HW1 4922   4.553   0.564   0.209  0.4139  1.0670  1.6635
 1341SOL    HW2 4923   4.530   0.405   0.238  1.9050  0.0466 -2.1373
 1342SOL     OW 4924   1.581   2.865   1.368 -0.0207  0.8465 -0.1920
 1342SOL    HW1 4925   1.577   2.943   1.306  1.2891  1.1376  0.0576
 1342SOL    HW2 4926   1.600   2.897   1.461  1.2912  0.1974 -0.2158
 1343SOL     OW 4927   1.359   6.865   1.104  0.4205 -0.1049  0.0827
 1343SOL    HW1 4928   1.307   6.882   1.188  2.2312 -0.6682  1.3592
 1343SOL    HW2 4929   1.313   6.793   1.051 -0.4391 -0.1518  0.8623
 1344SOL     OW 4930   3.511   0.185   0.674 -0.3295 -0.1073  0.2824
 1344SOL    HW1 4931   3.423   0.143   0.650 -0.0874 -1.0392  0.9826
 1344SOL    HW2 4932   3.504   0.227   0.764  0.3211 -1.3558  0.9288
 1345SOL     OW 4933   5.261   4.250   3.475  0.0684  0.0614  0.1084
 1345SOL    HW1 4934   5.178   4.214   3.431  0.2785 -0.1550 -0.1148
 1345SOL    HW2 4935   5.289   4.333   3.428 -0.3109  0.4181  0.5064
 1346SOL     OW 4936   6.812   2.150   6.572 -0.5539  0.6623  0.2487
 1346SOL    HW1 4937   6.801   2.105   6.661 -0.7410  0.2967  0.0430
 1346SOL    HW2 4938   6.805   2.250   6.584 -0.7534  0.6062  0.6184
 1347SOL     OW 4939   4.747   2.597   5.767  0.5992 -0.7985  0.0257
 1347SOL    HW1 4940   4.717   2.685   5.804 -1.5318 -1.3781 -0.2013
 1347SOL    HW2 4941   4.763   2.606   5.668  0.1737 -0.7013 -0.0371
 1348SOL     OW 4942   5.176   0.407   3.437 -1.0347  0.1712 -0.2739
 1348SOL    HW1 4943   5.224   0.421   3.350  1.1878  0.7349  0.9627
 1348SOL    HW2 4944   5.240   0.369   3.504 -3.5131 -3.6503  0.2451
 1349SOL     OW 4945   3.201   6.193   5.362  0.0408  0.1789  0.5135
 1349SOL    HW1 4946   3.151   6.222   5.444  0.2280  4.9853 -0.7627
 1349SOL    HW2 4947   3.140   6.139   5.303 -2.2590  2.0819  1.0047
 1350SOL     OW 4948   2.794   0.621   3.166 -0.6023  0.2259  0.1556
 1350SOL    HW1 4949   2.868   0.604   3.101 -0.4611 -4.5048  1.1679
 1350SOL    HW2 4950   2.829   0.675   3.243  0.5890  1.5392 -1.2334
 1351SOL     OW 4951   2.956   6.767   4.962 -0.3534  0.0569 -0.1755
 1351SOL    HW1 4952   2.861   6.745   4.942  0.2120 -2.3095 -0.4681
 1351SOL    HW2 4953   3.015   6.733   4.889  0.7036  2.0842 -0.3448
 1352SOL     OW 4954   4.288   3.363   0.738 -0.2473 -0.6768 -0.4432
 1352SOL    HW1 4955   4.376   3.404   0.715 -0.8220  1.4486  0.8252
 1352SOL    HW2 4956   4.220   3.435   0.752 -1.3069 -2.0179  2.1041
 1353SOL     OW 4957   5.926   0.780   0.177 -0.0002 -0.1543 -0.6083
 1353SOL    HW1 4958   5.978   0.703   0.213  1.9639  0.6821 -1.4758
 1353SOL    HW2 4959   5.862   0.813   0.246  0.3300 -1.4965  0.3723
 1354SOL     OW 4960   4.722   3.447   5.899 -0.0064 -0.1326  0.5397
 1354SOL    HW1 4961   4.668   3.398   5.968 -0.0820  0.4957  0.9362
 1354SOL    HW2 4962   4.702   3.544   5.905  0.5281  0.0057  0.1039
 1355SOL     OW 4963   5.603   3.606   2.742  0.3462  0.1952  0.2768
 1355SOL    HW1 4964   5.592   3.608   2.642  2.0732  0.7513  0.0678
 1355SOL    HW2 4965   5.551   3.682   2.782 -0.6608 -0.2518 -0.1412
 1356SOL     OW 4966   3.815   1.713   2.685 -0.3958  0.3349 -0.0858
 1356SOL    HW1 4967   3.901   1.740   2.643 -1.0997  1.0437 -1.1250
 1356SOL    HW2 4968   3.823   1.621   2.722  0.3927 -0.1597 -1.4133
 1357SOL     OW 4969   6.156   0.528   4.209  0.3363  0.7706  0.0976
 1357SOL    HW1 4970   6.158   0.445   4.264 -0.9506  0.7138  0.0759
 1357SOL    HW2 4971   6.104   0.599   4.257  1.3642  1.5684  0.0912
 1358SOL     OW 4972   0.132   0.696   5.509  0.6584  0.6561 -0.8139
 1358SOL    HW1 4973   0.163   0.789   5.491 -1.1110  1.5994  0.6720
 1358SOL    HW2 4974   0.119   0.683   5.608 -0.6944 -0.6168 -1.1052
 1359SOL     OW 4975   4.254   4.751   0.309 -0.1909  0.4849 -0.2693
 1359SOL    HW1 4976   4.296   4.762   0.399 -1.7958  1.5927  0.3796
 1359SOL    HW2 4977   4.234   4.841   0.271 -1.5115 -0.0100 -0.7663
 1360SOL     OW 4978   4.459   6.893   2.794 -0.1324  0.4809 -0.4419
 1360SOL    HW1 4979   4.477   6.992   2.789 -1.1676  0.7187  0.2287
 1360SOL    HW2 4980   4.543   6.845   2.820  0.5009  1.1232 -1.2221
 1361SOL     OW 4981   6.960   5.700   3.887  0.6091 -0.0454 -0.6176
 1361SOL    HW1 4982   6.967   5.697   3.787 -0.3759 -0.7507 -0.6834
 1361SOL    HW2 4983   6.885   5.641   3.916 -0.5617  1.8520  0.3900
 1362SOL     OW 4984   4.032   0.707   2.247 -0.2536 -0.0034 -0.0013
 1362SOL    HW1 4985   4.123   0.746   2.257 -0.2857  0.3302 -0.8736
 1362SOL    HW2 4986   3.967   0.761   2.300 -0.1584  0.6286 -0.5056
 1363SOL     OW 4987   2.076   2.085   4.897  0.3088  0.4528 -0.3295
 1363SOL    HW1 4988   2.112   2.155   4.958 -0.0483  0.0840  0.3153
 1363SOL    HW2 4989   2.056   2.002   4.950  0.2702  0.0305 -0.9977
 1364SOL     OW 4990   2.291   6.109   5.709 -0.5375  0.6685  0.4812
 1364SOL    HW1 4991   2.335   6.021   5.727 -1.9132 -0.5278 -1.6284
 1364SOL    HW2 4992   2.324   6.145   5.622  0.9831  2.9741  1.8950
 1365SOL     OW 4993   2.073   2.552   5.978 -0.2390 -0.8087  0.1458
 1365SOL    HW1 4994   2.052   2.511   6.066 -0.0840 -1.6608 -0.2023
 1365SOL    HW2 4995   2.158   2.605   5.985 -2.2878  2.5611  1.5309
 1366SOL     OW 4996   3.601   0.079   3.990 -0.3186  0.1027  0.3085
 1366SOL    HW1 4997   3.605   0.042   3.897 -0.6244  1.5375 -0.3084
 1366SOL    HW2 4998   3.646   0.168   3.992 -1.5675  0.7430  1.1782
 1367SOL     OW 4999   0.664   0.907   0.041 -0.6169 -0.3029  0.7633
 1367SOL    HW1 5000   0.686   0.961   0.123 -0.4914  0.7408  0.0584
 1367SOL    HW2 5001   0.566   0.912   0.024 -0.7663 -1.2032  1.3092
 1368SOL     OW 5002   1.911   1.658   4.275 -0.8422 -0.4500  0.0731
 1368SOL    HW1 5003   1.867   1.612   4.352 -0.3013 -0.6799  0.2492
 1368SOL    HW2 5004   1.967   1.592   4.225  1.5213  0.3687  1.4706
 1369SOL     OW 5005   2.268   4.372   4.005  0.4880 -0.4204  0.1423
 1369SOL    HW1 5006   2.248   4.309   4.081  1.1452 -1.0516 -0.1931
 1369SOL    HW2 5007   2.184   4.388   3.953  0.1018 -0.2497  0.7915
 1370SOL     OW 5008   5.609   0.308   3.474 -0.3491  1.0048  0.3291
 1370SOL    HW1 5009   5.557   0.329   3.391  1.1968  0.2023 -0.8872
 1370SOL    HW2 5010   5.703   0.287   3.450  0.0045  0.1982  2.2550
 1371SOL     OW 5011   3.008   0.391   0.898 -0.4579 -0.2601  0.7760
 1371SOL    HW1 5012   2.998   0.315   0.833 -2.0252  0.6862 -0.1611
 1371SOL    HW2 5013   2.994   0.357   0.991  2.4365 -1.7691  0.7905
 1372SOL     OW 5014   0.605   6.371   0.751  0.2026 -0.9086  0.7458
 1372SOL    HW1 5015   0.552   6.385   0.667  1.4008  1.5238  0.3238
 1372SOL    HW2 5016   0.574   6.286   0.796 -3.3547 -0.1413  0.0522
 1373SOL     OW 5017   0.904   4.493   3.473  0.5900 -0.7440  0.7464
 1373SOL    HW1 5018   0.806   4.517   3.474  0.1966 -1.7807 -2.2129
 1373SOL    HW2 5019   0.958   4.575   3.452  0.3535 -0.2812  1.8485
 1374SOL     OW 5020   0.366   4.292   4.056  0.2639  0.4827 -0.1343
 1374SOL    HW1 5021   0.409   4.378   4.084 -4.1303  2.1611  2.4479
 1374SOL    HW2 5022   0.330   4.245   4.136  0.1376 -2.4263 -1.7797
 1375SOL     OW 5023   4.085   2.993   6.604 -0.6691  0.3655  0.0066
 1375SOL    HW1 5024   4.158   2.966   6.540 -2.0096 -0.2421 -1.3100
 1375SOL    HW2 5025   4.024   2.916   6.620 -1.9190  1.3039 -0.1413
 1376SOL     OW 5026   0.931   1.938   2.445  0.0398  0.3839 -0.3025
 1376SOL    HW1 5027   0.932   2.037   2.433 -1.2490  0.2169 -2.2314
 1376SOL    HW2 5028   1.021   1.907   2.476  1.3200  1.8853 -2.2728
 1377SOL     OW 5029   5.423   4.632   0.695 -0.0834 -0.4431  0.0139
 1377SOL    HW1 5030   5.432   4.633   0.794  0.5220 -0.1805 -0.0333
 1377SOL    HW2 5031   5.332   4.601   0.669 -0.5388  0.3027  0.6715
 1378SOL     OW 5032   6.133   6.728   3.071  0.0338  0.3362  0.5203
 1378SOL    HW1 5033   6.119   6.799   3.140 -0.3495  1.7379 -0.9633
 1378SOL    HW2 5034   6.056   6.726   3.007  1.4819  0.7859 -1.3321
 1379SOL     OW 5035   4.522   5.523   0.893  0.0118  0.4035 -0.0308
 1379SOL    HW1 5036   4.556   5.432   0.871  0.1479  0.0246  1.6185
 1379SOL    HW2 5037   4.598   5.584   0.913 -0.1333  0.4794  0.3044
 1380SOL     OW 5038   1.307   5.155   5.431 -0.6801  0.2800  0.2509
 1380SOL    HW1 5039   1.235   5.125   5.494 -2.2313  0.1439 -1.4968
 1380SOL    HW2 5040   1.282   5.130   5.337  1.1767  1.1726 -0.5373
 1381SOL     OW 5041   1.807   3.970   4.328  0.1155  0.8105  0.1296
 1381SOL    HW1 5042   1.758   3.992   4.413  1.4816 -1.1863  1.5397
 1381SOL    HW2 5043   1.756   3.902   4.277  0.0323  0.8666  0.1379
 1382SOL     OW 5044   2.131   1.459   5.525 -0.2226 -0.4824 -0.6503
 1382SOL    HW1 5045   2.112   1.487   5.619  0.1270 -1.5532 -0.2531
 1382SOL    HW2 5046   2.109   1.362   5.513  2.5400 -1.1747 -0.8107
 1383SOL     OW 5047   5.954   5.999   6.576  0.4398  0.4918 -0.5274
 1383SOL    HW1 5048   6.044   5.960   6.597  1.4705  3.0847  0.2026
 1383SOL    HW2 5049   5.940   5.998   6.477  0.7352 -0.9729 -0.5832
 1384SOL     OW 5050   2.654   1.359   2.651 -0.0393 -0.2897 -0.4155
 1384SOL    HW1 5051   2.591   1.412   2.594 -1.9309 -0.4739  1.3814
 1384SOL    HW2 5052   2.658   1.399   2.742  1.1100 -1.3215  0.0063
 1385SOL     OW 5053   5.483   5.862   4.387  0.4535  0.0261  0.4765
 1385SOL    HW1 5054   5.469   5.763   4.393  0.8925 -0.1305 -0.8556
 1385SOL    HW2 5055   5.500   5.888   4.292 -0.2900  1.4787  0.7165
 1386SOL     OW 5056   3.022   5.968   3.257 -0.0975 -0.5335  0.0726
 1386SOL    HW1 5057   2.985   5.949   3.348  0.0797 -1.5476 -0.0633
 1386SOL    HW2 5058   3.081   5.893   3.228 -0.7794 -0.5966 -1.2134
 1387SOL     OW 5059   5.154   6.279   1.328  0.2252 -0.1826  0.6223
 1387SOL    HW1 5060   5.130   6.373   1.304  2.9158 -0.0151 -1.9878
 1387SOL    HW2 5061   5.205   6.279   1.415  1.3778  1.0228 -0.0073
 1388SOL     OW 5062   3.608   0.673   6.103 -0.0544 -0.2924 -0.1499
 1388SOL    HW1 5063   3.552   0.598   6.068 -0.3666  0.6373 -1.7298
 1388SOL    HW2 5064   3.583   0.692   6.198 -1.2705 -0.9737 -0.3185
 1389SOL     OW 5065   4.952   6.927   0.840 -0.2283  0.6061  0.5723
 1389SOL    HW1 5066   4.893   6.945   0.919 -0.1872  2.5310  0.2137
 1389SOL    HW2 5067   4.918   6.847   0.790 -1.1378  0.2746  1.6824
 1390SOL     OW 5068   1.624   2.308   0.458  0.0937  0.4176 -0.5812
 1390SOL    HW1 5069   1.605   2.378   0.389  0.8275  1.4536  0.2346
 1390SOL    HW2 5070   1.716   2.323   0.495 -0.2871 -0.1226  0.6210
 1391SOL     OW 5071   2.213   4.996   3.502 -0.2194  0.5462  0.3205
 1391SOL    HW1 5072   2.195   4.951   3.415  0.1921 -1.0845  1.0545
 1391SOL    HW2 5073   2.253   5.086   3.485 -1.2624  0.7659 -1.1800
 1392SOL     OW 5074   1.312   5.187   3.384 -0.0623 -0.3508 -0.1828
 1392SOL    HW1 5075   1.401   5.157   3.417 -0.5228 -3.0442 -1.1084
 1392SOL    HW2 5076   1.268   5.244   3.454  0.8143 -2.1726  1.9717
 1393SOL     OW 5077   6.991   1.621   4.893 -0.0774 -0.2073  0.7186
 1393SOL    HW1 5078   7.061   1.686   4.864  0.2354 -0.5410  0.7251
 1393SOL    HW2 5079   6.922   1.613   4.821 -0.5107  0.6899  1.0296
 1394SOL     OW 5080   1.994   0.357   6.390 -0.5431  0.0103 -0.3352
 1394SOL    HW1 5081   1.961   0.335   6.482  0.1368 -1.0568 -0.3270
 1394SOL    HW2 5082   1.948   0.439   6.357 -1.2237  0.0779  0.7257
 1395SOL     OW 5083   3.045   4.942   3.777 -0.1140 -0.2418  0.0127
 1395SOL    HW1 5084   2.973   4.895   3.726 -2.1129  1.0237  1.5065
 1395SOL    HW2 5085   3.037   5.041   3.763  1.2250 -0.0641  0.3749
 1396SOL     OW 5086   4.853   4.697   1.442 -0.0923  0.4191  0.0384
 1396SOL    HW1 5087   4.918   4.772   1.428 -0.4555  0.6597 -0.4123
 1396SOL    HW2 5088   4.817   4.700   1.535 -0.2722  0.9488 -0.0432
 1397SOL     OW 5089   5.971   0.898   5.170  0.0795 -0.0624  0.1505
 1397SOL    HW1 5090   5.998   0.922   5.077 -0.2656  0.9319  0.3004
 1397SOL    HW2 5091   6.052   0.897   5.229  0.4319 -1.4829 -0.2941
 1398SOL     OW 5092   1.306   1.404   0.517 -0.4427  0.1395  0.2081
 1398SOL    HW1 5093   1.376   1.455   0.567 -1.1000  0.1174  1.1654
 1398SOL    HW2 5094   1.339   1.385   0.424  0.3124  1.2059  0.2395
 1399SOL     OW 5095   0.812   1.456   0.040  0.7049 -0.2013  0.7971
 1399SOL    HW1 5096   0.816   1.554   0.055 -0.5221 -0.1572  0.9970
 1399SOL    HW2 5097   0.789   1.410   0.126  0.4526 -0.5784  0.5333
 1400SOL     OW 5098   6.744   5.645   2.763  0.3009  0.4638  0.4566
 1400SOL    HW1 5099   6.798   5.709   2.709 -0.4321  1.4715  0.9036
 1400SOL    HW2 5100   6.804   5.573   2.798  1.2067  1.1021  0.2570
 1401SOL     OW 5101   4.310   3.784   6.545 -0.0999  0.0493 -0.0279
 1401SOL    HW1 5102   4.270   3.719   6.480  0.5660  0.9981 -1.4229
 1401SOL    HW2 5103   4.246   3.860   6.559 -0.6921 -0.6565  1.2689
 1402SOL     OW 5104   5.956   2.897   5.664  0.0205 -0.2143 -0.1414
 1402SOL    HW1 5105   6.037   2.843   5.687  0.9174  1.6102  1.2377
 1402SOL    HW2 5106   5.933   2.885   5.568  2.1070 -0.5460 -0.6327
 1403SOL     OW 5107   5.519   4.076   6.113 -0.3526  0.1191 -0.1935
 1403SOL    HW1 5108   5.513   4.121   6.024 -0.9350 -0.5526 -0.4980
 1403SOL    HW2 5109   5.614   4.077   6.144 -0.1936  0.6140 -0.6842
 1404SOL     OW 5110   1.839   6.369   5.920  0.2954  0.0517 -0.3370
 1404SOL    HW1 5111   1.865   6.424   5.841 -0.1697 -0.1641 -0.6406
 1404SOL    HW2 5112   1.745   6.338   5.910  1.0801 -2.3224 -1.0621
 1405SOL     OW 5113   7.005   4.533   2.936 -0.2271  0.1759 -0.2009
 1405SOL    HW1 5114   7.051   4.445   2.924 -1.1402 -0.5644  1.3121
 1405SOL    HW2 5115   7.073   4.607   2.933  0.5703 -0.5744 -1.3511
 1406SOL     OW 5116   6.413   6.674   2.469 -0.0057  0.4001 -0.1867
 1406SOL    HW1 5117   6.472   6.615   2.415  1.5581  1.1262  0.6446
 1406SOL    HW2 5118   6.352   6.726   2.408 -1.6447 -2.2089 -0.9050
 1407SOL     OW 5119   1.426   3.607   6.234 -0.2561  0.1428  0.2018
 1407SOL    HW1 5120   1.519   3.631   6.207 -0.8757  1.3750 -1.0009
 1407SOL    HW2 5121   1.396   3.666   6.309  0.2923 -1.0239  1.3863
 1408SOL     OW 5122   0.390   4.602   2.739  0.2965  0.2648 -0.2470
 1408SOL    HW1 5123   0.376   4.557   2.827  2.7962  0.1340  0.1543
 1408SOL    HW2 5124   0.423   4.535   2.672 -1.2543  0.4329 -1.2377
 1409SOL     OW 5125   2.818   4.613   6.150  0.4686  0.3343 -0.1357
 1409SOL    HW1 5126   2.784   4.523   6.123 -1.7283  0.8232  0.7843
 1409SOL    HW2 5127   2.900   4.602   6.206  0.6928 -1.0380 -0.6877
 1410SOL     OW 5128   5.960   0.588   2.101 -0.1220  0.2982  1.0710
 1410SOL    HW1 5129   5.996   0.680   2.119 -0.3872  0.7502 -0.6162
 1410SOL    HW2 5130   6.037   0.526   2.085  0.0086  0.9720 -1.1587
 1411SOL     OW 5131   5.694   3.262   6.044 -0.2331 -0.7816 -0.6394
 1411SOL    HW1 5132   5.779   3.309   6.020 -0.0298 -0.5980  0.4008
 1411SOL    HW2 5133   5.712   3.165   6.059 -0.1661 -0.7091 -0.2374
 1412SOL     OW 5134   1.439   1.916   2.268  0.3910 -0.5514 -0.2498
 1412SOL    HW1 5135   1.405   1.835   2.316 -0.0883  1.0892  2.3999
 1412SOL    HW2 5136   1.389   1.928   2.183  0.1302 -2.7428 -0.4371
 1413SOL     OW 5137   5.666   6.714   1.945  0.1432  0.2721 -0.1493
 1413SOL    HW1 5138   5.690   6.674   1.857 -0.9043  0.0504 -0.3367
 1413SOL    HW2 5139   5.574   6.686   1.972  1.1253 -1.2226  1.9305
 1414SOL     OW 5140   6.397   3.001   6.249 -0.5545 -0.0105  0.5186
 1414SOL    HW1 5141   6.337   3.029   6.174  1.0393 -0.2713 -0.9223
 1414SOL    HW2 5142   6.487   2.979   6.213 -0.7854 -4.0747  1.9165
 1415SOL     OW 5143   5.744   0.588   2.304 -0.6107  0.4318  0.0091
 1415SOL    HW1 5144   5.812   0.543   2.247 -1.4561 -0.6031 -0.2002
 1415SOL    HW2 5145   5.692   0.520   2.355  0.3264  1.3272  2.3023
 1416SOL     OW 5146   5.469   6.577   5.598  0.2060  0.0964  0.4207
 1416SOL    HW1 5147   5.493   6.601   5.504  0.4100 -0.4744  0.3220
 1416SOL    HW2 5148   5.553   6.572   5.653  0.2253 -0.7948  0.3362
 1417SOL     OW 5149   2.274   4.304   5.004 -0.2412  0.1654  0.2668
 1417SOL    HW1 5150   2.341   4.332   4.935 -0.5595  1.8726  0.5906
 1417SOL    HW2 5151   2.282   4.206   5.021  1.3505  0.1148 -0.5793
 1418SOL     OW 5152   0.657   3.487   5.488  0.1027 -0.1402 -0.2043
 1418SOL    HW1 5153   0.728   3.537   5.537  0.5692 -0.8263 -0.1532
 1418SOL    HW2 5154   0.697   3.403   5.450 -0.2191  0.3928 -1.8030
 1419SOL     OW 5155   1.951   5.407   0.911 -0.1407  0.3685 -0.0658
 1419SOL    HW1 5156   1.874   5.347   0.889  0.6277 -0.4470 -0.6121
 1419SOL    HW2 5157   1.968   5.470   0.835 -1.6002  2.0263  0.9256
 1420SOL     OW 5158   1.437   2.150   6.300 -0.0839  0.2254 -0.0482
 1420SOL    HW1 5159   1.480   2.089   6.233 -1.5830  0.3177 -1.1454
 1420SOL    HW2 5160   1.508   2.199   6.350  1.1524 -1.6756  0.1912
 1421SOL     OW 5161   1.029   6.684   6.674  0.2933 -0.4525 -0.0785
 1421SOL    HW1 5162   0.933   6.663   6.695 -0.2555  0.8932 -1.0670
 1421SOL    HW2 5163   1.089   6.624   6.728 -1.0942 -1.9909 -0.1447
 1422SOL     OW 5164   4.677   6.426   6.610  0.3722 -0.0622  0.0596
 1422SOL    HW1 5165   4.763   6.451   6.565 -0.8878  1.3921 -1.6675
 1422SOL    HW2 5166   4.606   6.411   6.542 -0.9932 -0.3684  1.4803
 1423SOL     OW 5167   3.352   4.786   5.256  0.3159 -0.5052  0.0372
 1423SOL    HW1 5168   3.318   4.867   5.209  1.9736  0.5789  0.6435
 1423SOL    HW2 5169   3.274   4.733   5.291 -0.8249  0.2655 -1.2333
 1424SOL     OW 5170   3.787   0.068   4.214  0.6456 -0.3758 -0.0381
 1424SOL    HW1 5171   3.774   0.012   4.295  0.8100  0.4473  0.5802
 1424SOL    HW2 5172   3.720   0.043   4.144  2.2700 -3.0548 -0.7831
 1425SOL     OW 5173   0.267   4.563   6.548  0.2837 -0.1134 -1.0713
 1425SOL    HW1 5174   0.259   4.494   6.620  1.4789 -0.3940 -1.1768
 1425SOL    HW2 5175   0.312   4.644   6.585 -2.0802  1.0854 -0.6614
 1426SOL     OW 5176   1.939   3.150   6.568 -0.0366  0.2511  0.6762
 1426SOL    HW1 5177   1.958   3.054   6.548 -0.3319 -0.0092  1.6069
 1426SOL    HW2 5178   1.953   3.168   6.665 -0.3061  1.0742  0.5754
 1427SOL     OW 5179   0.188   1.994   1.287  0.0094  0.1188 -0.5006
 1427SOL    HW1 5180   0.286   1.987   1.269 -0.3333  0.0502 -2.4851
 1427SOL    HW2 5181   0.166   2.087   1.314  1.0245 -0.5015  3.0522
 1428SOL     OW 5182   3.813   2.103   4.736 -0.3192 -0.1295  0.2322
 1428SOL    HW1 5183   3.714   2.096   4.724 -0.7028 -1.3720  3.2782
 1428SOL    HW2 5184   3.848   2.018   4.775  1.5275  1.1965  1.6619
 1429SOL     OW 5185   5.615   3.408   1.603 -0.3081  0.5943 -0.4237
 1429SOL    HW1 5186   5.668   3.388   1.686  1.8858  0.7627 -1.6914
 1429SOL    HW2 5187   5.673   3.393   1.523 -2.1253  1.1728 -1.9077
 1430SOL     OW 5188   4.767   2.707   0.493  0.9145 -0.3079 -0.3049
 1430SOL    HW1 5189   4.840   2.718   0.560 -0.5943  0.1941  1.3512
 1430SOL    HW2 5190   4.730   2.614   0.499  1.6146 -0.6686 -1.3759
 1431SOL     OW 5191   3.765   3.585   4.944 -0.3926 -0.2187 -0.4580
 1431SOL    HW1 5192   3.810   3.672   4.927  0.1699 -0.0735  1.5815
 1431SOL    HW2 5193   3.688   3.574   4.880 -0.2162  1.5511 -1.0220
 1432SOL     OW 5194   0.414   5.777   3.008 -1.0820  0.1064  0.3935
 1432SOL    HW1 5195   0.393   5.683   2.982 -2.8176  1.1732 -2.4434
 1432SOL    HW2 5196   0.459   5.824   2.932 -1.8779  2.0678  1.0519
 1433SOL     OW 5197   1.662   6.021   0.252 -0.2089  0.0776  0.0179
 1433SOL    HW1 5198   1.692   6.097   0.311  0.2333 -0.8155  0.9720
 1433SOL    HW2 5199   1.580   6.049   0.202 -0.6433  0.8541  1.1046
 1434SOL     OW 5200   0.628   3.731   1.410 -0.0677  0.5416 -0.0380
 1434SOL    HW1 5201   0.703   3.760   1.349 -1.0619  0.0929 -1.5364
 1434SOL    HW2 5202   0.546   3.713   1.355 -1.9452  2.9947  1.7314
 1435SOL     OW 5203   2.612   5.483   3.050  0.0581  0.3730  0.0266
 1435SOL    HW1 5204   2.666   5.529   2.979 -0.4717  0.9083 -0.0368
 1435SOL    HW2 5205   2.673   5.428   3.107  0.9243  2.0745  0.8321
 1436SOL     OW 5206   4.513   6.121   1.686  0.5700 -0.2013  0.3585
 1436SOL    HW1 5207   4.441   6.092   1.622 -0.3857  2.5229  0.0949
 1436SOL    HW2 5208   4.556   6.040   1.726 -1.1700 -1.9451 -1.1063
 1437SOL     OW 5209   1.802   4.102   2.127 -0.6347  0.2371  0.0890
 1437SOL    HW1 5210   1.792   4.152   2.041 -1.1048 -1.5105 -0.9321
 1437SOL    HW2 5211   1.843   4.012   2.109  1.2233  0.6394  2.0022
 1438SOL     OW 5212   0.477   1.993   2.977  0.1239  0.1398  0.4517
 1438SOL    HW1 5213   0.466   1.928   2.902  1.6045  0.0220  0.3037
 1438SOL    HW2 5214   0.537   1.953   3.047  0.7625  1.2013  0.5315
 1439SOL     OW 5215   0.673   4.857   7.002 -0.1348  0.5113  0.7924
 1439SOL    HW1 5216   0.621   4.925   6.951  0.7256  0.5123 -0.1275
 1439SOL    HW2 5217   0.623   4.771   7.003  0.3863  0.1379 -1.2059
 1440SOL     OW 5218   5.297   6.852   6.629 -0.0169  0.0758 -0.2637
 1440SOL    HW1 5219   5.373   6.845   6.565  0.6338  0.7284  0.4192
 1440SOL    HW2 5220   5.332   6.853   6.723 -0.8943 -0.0185  0.0778
 1441SOL     OW 5221   2.577   2.464   1.787 -0.1256  0.1361 -0.8297
 1441SOL    HW1 5222   2.621   2.382   1.822 -1.0841  0.1943  0.6095
 1441SOL    HW2 5223   2.509   2.496   1.853 -0.5402  1.4682 -1.8531
 1442SOL     OW 5224   5.415   2.564   3.170 -1.2370  0.7984  1.2431
 1442SOL    HW1 5225   5.387   2.472   3.196 -0.4913  0.3683  0.5508
 1442SOL    HW2 5226   5.406   2.576   3.071  0.0777  0.9510  1.1173
 1443SOL     OW 5227   5.956   3.069   3.111  0.2067  0.0198 -0.0343
 1443SOL    HW1 5228   5.943   3.120   3.197 -0.9466  1.7182 -1.1643
 1443SOL    HW2 5229   6.049   3.083   3.078  0.9279 -1.2991  1.2938
 1444SOL     OW 5230   0.206   5.097   6.513 -0.0810  0.1216 -0.1963
 1444SOL    HW1 5231   0.235   5.078   6.607  0.8152  1.7770 -0.1001
 1444SOL    HW2 5232   0.108   5.079   6.504 -0.5577  1.5714  1.5397
 1445SOL     OW 5233   2.223   0.617   6.968 -0.2739 -0.0988 -0.2364
 1445SOL    HW1 5234   2.149   0.564   6.926  1.6912 -1.3375 -2.3251
 1445SOL    HW2 5235   2.216   0.610   7.068 -3.7763  1.0770 -0.2413
 1446SOL     OW 5236   1.204   5.128   5.164 -0.2961  0.1163  0.0631
 1446SOL    HW1 5237   1.271   5.202   5.159 -0.8398  0.6174  0.1273
 1446SOL    HW2 5238   1.205   5.077   5.078  0.6269 -0.2928  0.3031
 1447SOL     OW 5239   1.751   3.718   3.998 -0.0282  0.4685  0.1828
 1447SOL    HW1 5240   1.711   3.736   4.088  0.9429  0.5590  0.6214
 1447SOL    HW2 5241   1.724   3.790   3.934  0.3056  1.1233  0.7600
 1448SOL     OW 5242   5.501   4.771   5.918  0.0663 -0.3202 -0.0443
 1448SOL    HW1 5243   5.413   4.785   5.964  0.0948  0.5412 -0.2273
 1448SOL    HW2 5244   5.575   4.802   5.979  0.2805 -1.4127  0.2691
 1449SOL     OW 5245   2.542   4.681   6.560 -0.0861 -0.2304  0.0431
 1449SOL    HW1 5246   2.463   4.634   6.522 -0.2574  0.9992 -1.1956
 1449SOL    HW2 5247   2.526   4.700   6.657 -0.4614 -1.7115  0.2922
 1450SOL     OW 5248   3.173   3.831   6.185  0.1416  0.1020 -0.0729
 1450SOL    HW1 5249   3.188   3.855   6.281  0.2712  1.9040 -0.5165
 1450SOL    HW2 5250   3.235   3.883   6.127 -2.1087  1.5171 -1.3679
 1451SOL     OW 5251   2.431   1.982   4.603 -0.0482  0.2396 -0.4019
 1451SOL    HW1 5252   2.403   1.901   4.655  0.8743  0.6100  0.7088
 1451SOL    HW2 5253   2.499   2.034   4.655  1.7188  0.0799 -2.4130
 1452SOL     OW 5254   6.165   3.835   5.732 -0.2889  0.6145  0.1334
 1452SOL    HW1 5255   6.245   3.894   5.719 -1.8966  3.0647  0.6970
 1452SOL    HW2 5256   6.112   3.833   5.647 -0.9013  1.0376  0.5009
 1453SOL     OW 5257   3.300   5.286   3.827 -0.4460 -0.2401 -0.2068
 1453SOL    HW1 5258   3.261   5.353   3.764 -0.5319 -0.3772 -0.3006
 1453SOL    HW2 5259   3.363   5.226   3.777 -0.3252 -0.1931 -0.1122
 1454SOL     OW 5260   4.896   2.278   0.067 -0.0963 -0.5048  0.0880
 1454SOL    HW1 5261   4.948   2.241  -0.011 -0.0632  1.3219 -0.8087
 1454SOL    HW2 5262   4.804   2.302   0.037  0.3407  1.4703  0.2402
 1455SOL     OW 5263   1.044   6.885   2.945 -0.2893 -0.0240 -0.0589
 1455SOL    HW1 5264   1.062   6.980   2.917  0.9851 -0.2054  0.1029
 1455SOL    HW2 5265   0.948   6.863   2.926 -0.3405  0.9565 -1.0790
 1456SOL     OW 5266   6.455   4.144   3.679  0.1418  0.1800 -0.0030
 1456SOL    HW1 5267   6.436   4.233   3.639 -1.2602 -0.5972 -1.1697
 1456SOL    HW2 5268   6.371   4.089   3.680  0.9658 -1.1258  0.7163
 1457SOL     OW 5269   0.876   5.720   5.043 -0.2584 -0.0536  0.0345
 1457SOL    HW1 5270   0.782   5.753   5.043 -0.7622 -1.3923 -1.3917
 1457SOL    HW2 5271   0.877   5.621   5.034  1.2940 -0.1167  0.5626
 1458SOL     OW 5272   6.029   4.318   0.141  0.0934 -0.2247  0.0355
 1458SOL    HW1 5273   6.069   4.391   0.196  0.7880 -0.2253 -0.4647
 1458SOL    HW2 5274   6.100   4.253   0.114 -0.3552 -0.5841 -0.3073
 1459SOL     OW 5275   3.458   3.147   4.485 -0.1151 -0.4046  0.4452
 1459SOL    HW1 5276   3.423   3.072   4.541 -1.5009  0.7205  1.1692
 1459SOL    HW2 5277   3.458   3.231   4.539 -2.5885  0.9717 -1.4996
 1460SOL     OW 5278   0.971   6.674   0.948  0.6863 -0.5052  0.0602
 1460SOL    HW1 5279   0.904   6.726   0.895  0.7128 -0.9628 -0.4340
 1460SOL    HW2 5280   1.062   6.713   0.936  0.3239  0.9938  1.8656
 1461SOL     OW 5281   6.630   1.299   3.727 -0.1277  0.4182 -0.3204
 1461SOL    HW1 5282   6.722   1.260   3.730  0.4337  1.6799 -0.4436
 1461SOL    HW2 5283   6.588   1.292   3.818  0.3677  0.4850 -0.0839
 1462SOL     OW 5284   1.481   2.226   6.894 -0.0457  0.5535  0.3368
 1462SOL    HW1 5285   1.445   2.145   6.850  1.6667  0.6211 -1.3078
 1462SOL    HW2 5286   1.492   2.209   6.992 -3.0968  0.1073  0.6996
 1463SOL     OW 5287   0.884   2.659   0.833  0.1931  0.2204 -0.4403
 1463SOL    HW1 5288   0.961   2.648   0.769  2.8305  2.2911  2.1119
 1463SOL    HW2 5289   0.905   2.611   0.918 -1.3214  0.9328  0.3724
 1464SOL     OW 5290   6.666   5.594   3.989  0.1259 -1.4674 -0.0052
 1464SOL    HW1 5291   6.679   5.683   3.945 -1.9811 -0.8069  0.5649
 1464SOL    HW2 5292   6.575   5.559   3.966  0.6241 -3.1213  0.4109
 1465SOL     OW 5293   5.034   4.308   1.144 -0.0892 -0.1852 -0.2270
 1465SOL    HW1 5294   4.998   4.223   1.105  0.4646  0.0828 -1.3889
 1465SOL    HW2 5295   4.960   4.362   1.182 -0.5266 -0.9061 -0.0303
 1466SOL     OW 5296   4.411   0.259   3.886 -0.3157  0.2105 -0.3742
 1466SOL    HW1 5297   4.316   0.258   3.920 -0.3026 -1.4316 -0.3040
 1466SOL    HW2 5298   4.447   0.352   3.891 -1.7804  0.7878  0.0077
 1467SOL     OW 5299   3.337   6.507   1.378 -0.0060  0.2563  0.3948
 1467SOL    HW1 5300   3.436   6.520   1.389  0.5045  0.5664 -3.2029
 1467SOL    HW2 5301   3.290   6.592   1.402  0.6600  0.3533  1.4128
 1468SOL     OW 5302   5.544   3.697   4.773  0.0054 -0.5896  0.6760
 1468SOL    HW1 5303   5.597   3.703   4.858  0.4567 -0.8657  0.4193
 1468SOL    HW2 5304   5.446   3.696   4.795  0.1242 -1.4166  1.2445
 1469SOL     OW 5305   4.789   5.988   1.296 -0.5707  0.5081  0.4888
 1469SOL    HW1 5306   4.850   5.922   1.252 -0.3359  1.4335 -0.6220
 1469SOL    HW2 5307   4.726   6.024   1.229 -0.9058  1.1850  1.1573
 1470SOL     OW 5308   5.685   1.327   4.451 -0.4751 -0.7338  0.1855
 1470SOL    HW1 5309   5.779   1.359   4.461 -0.9059  0.0431  2.1672
 1470SOL    HW2 5310   5.647   1.303   4.540 -2.7964  0.8980 -0.2479
 1471SOL     OW 5311   5.238   3.570   2.026 -0.2405  0.3170 -0.1421
 1471SOL    HW1 5312   5.184   3.568   1.942  0.1925  2.0392 -0.5002
 1471SOL    HW2 5313   5.224   3.485   2.076  0.6556 -1.4083 -2.6530
 1472SOL     OW 5314   3.077   6.608   3.870  0.3793  0.2670 -0.3725
 1472SOL    HW1 5315   3.049   6.545   3.943  2.1170  0.0524  0.1614
 1472SOL    HW2 5316   3.101   6.555   3.789  2.3741  0.1117  0.2515
 1473SOL     OW 5317   6.823   2.224   3.591  0.2071  0.2788 -0.4396
 1473SOL    HW1 5318   6.856   2.189   3.503  0.3051 -1.2592  0.1629
 1473SOL    HW2 5319   6.901   2.257   3.644  0.3392 -0.1574 -0.3595
 1474SOL     OW 5320   1.758   2.812   3.582  0.2839 -0.0940 -0.0899
 1474SOL    HW1 5321   1.714   2.810   3.493  1.4403 -1.0917 -0.6652
 1474SOL    HW2 5322   1.689   2.805   3.654 -0.5042 -1.7854 -0.9613
 1475SOL     OW 5323   5.420   0.989   6.831  0.1670  0.0777 -0.0384
 1475SOL    HW1 5324   5.460   0.922   6.767  1.1348  0.3227  0.2965
 1475SOL    HW2 5325   5.425   1.080   6.790  1.2063  0.3007  0.5572
 1476SOL     OW 5326   5.977   1.444   6.512  0.4820 -0.2227  0.0905
 1476SOL    HW1 5327   6.021   1.485   6.592  0.7826  0.9061 -0.6206
 1476SOL    HW2 5328   5.896   1.498   6.488  0.7351 -0.1914 -0.7160
 1477SOL     OW 5329   6.077   5.384   6.043 -0.0560  0.5601  0.2037
 1477SOL    HW1 5330   6.023   5.344   5.969 -0.3820 -0.0978  0.7751
 1477SOL    HW2 5331   6.043   5.476   6.064  0.1889  0.8385 -0.6032
 1478SOL     OW 5332   0.635   4.867   6.192 -0.2159 -0.6337 -0.2122
 1478SOL    HW1 5333   0.542   4.904   6.193 -1.0708 -2.5075 -2.1228
 1478SOL    HW2 5334   0.700   4.939   6.169 -1.6051  0.1230 -2.0197
 1479SOL     OW 5335   6.215   1.170   3.145  0.1957  0.5903 -0.3092
 1479SOL    HW1 5336   6.172   1.086   3.178 -0.5102  1.2965  0.6113
 1479SOL    HW2 5337   6.266   1.213   3.219  2.1004  0.0504 -1.2434
 1480SOL     OW 5338   6.493   1.277   4.797  0.2597 -0.4905  0.7309
 1480SOL    HW1 5339   6.448   1.352   4.748 -0.9390 -1.4005  0.3703
 1480SOL    HW2 5340   6.562   1.235   4.738  0.7239  0.1355  0.8258
 1481SOL     OW 5341   5.210   2.154   4.564 -0.1118  0.0223 -0.3433
 1481SOL    HW1 5342   5.152   2.078   4.593 -0.5839  0.2420 -0.6933
 1481SOL    HW2 5343   5.236   2.141   4.468  1.5801 -0.7929  0.1729
 1482SOL     OW 5344   0.861   0.067   0.182 -0.3169  0.5705  0.6244
 1482SOL    HW1 5345   0.882   0.077   0.085 -0.3112  1.1411  0.6848
 1482SOL    HW2 5346   0.920   0.127   0.235 -0.6012  0.5606  0.9532
 1483SOL     OW 5347   1.506   2.300   2.117 -0.4661 -0.0844 -0.2689
 1483SOL    HW1 5348   1.579   2.295   2.185  0.3264  1.3974 -0.9720
 1483SOL    HW2 5349   1.514   2.222   2.054 -1.6172 -1.8523  1.6644
 1484SOL     OW 5350   1.034   3.347   0.636  0.4405 -0.1440  0.1732
 1484SOL    HW1 5351   1.028   3.256   0.677 -1.8352 -0.7655 -1.3306
 1484SOL    HW2 5352   0.941   3.381   0.619  1.2635  2.1271 -0.0573
 1485SOL     OW 5353   4.817   6.213   1.467  0.5005 -0.4125  0.3772
 1485SOL    HW1 5354   4.839   6.135   1.408  2.4564  1.9508 -2.2804
 1485SOL    HW2 5355   4.734   6.258   1.432 -0.9454 -1.5127  2.2313
 1486SOL     OW 5356   4.026   1.543   4.424  0.2858  0.1368 -0.4380
 1486SOL    HW1 5357   4.050   1.563   4.329  2.0933 -0.8640 -0.2384
 1486SOL    HW2 5358   3.930   1.567   4.440  0.1481  1.0010 -2.3012
 1487SOL     OW 5359   0.203   4.944   2.376 -0.0512 -0.5761  0.4592
 1487SOL    HW1 5360   0.295   4.975   2.399  0.6018 -0.5755 -1.9121
 1487SOL    HW2 5361   0.199   4.844   2.381  0.2501 -0.6119  0.0127
 1488SOL     OW 5362   1.932   2.476   1.541 -0.5038 -0.1045 -0.1531
 1488SOL    HW1 5363   1.939   2.376   1.538 -3.5442 -0.5411  2.2946
 1488SOL    HW2 5364   2.001   2.512   1.604  1.6178 -0.3620 -2.1614
 1489SOL     OW 5365   5.712   5.915   1.924 -0.2643  0.1687  0.5141
 1489SOL    HW1 5366   5.698   5.879   1.832 -1.2687  0.4793  0.5373
 1489SOL    HW2 5367   5.808   5.904   1.949 -0.4175 -1.9853  0.3121
 1490SOL     OW 5368   3.425   4.983   0.010  0.1520 -0.3067 -0.0330
 1490SOL    HW1 5369   3.486   5.030  -0.054  1.0805  0.4709  1.3817
 1490SOL    HW2 5370   3.339   5.033   0.016  0.5733  0.4027  0.3237
 1491SOL     OW 5371   6.655   5.986   0.934 -0.1874 -0.0615  0.5385
 1491SOL    HW1 5372   6.635   6.048   1.009 -2.7319 -0.1841  0.0734
 1491SOL    HW2 5373   6.618   5.895   0.955 -1.3144 -0.0006 -0.9516
 1492SOL     OW 5374   4.196   6.607   4.216 -0.1481 -1.0288  0.5387
 1492SOL    HW1 5375   4.121   6.633   4.277 -1.0309  0.3280 -1.0430
 1492SOL    HW2 5376   4.172   6.522   4.169 -0.7778 -0.5240 -0.0694
 1493SOL     OW 5377   3.102   0.173   4.078 -0.1511 -0.3636 -0.4630
 1493SOL    HW1 5378   3.103   0.236   4.000  0.4842 -1.5977 -1.4855
 1493SOL    HW2 5379   3.192   0.131   4.087  0.2349  0.8013  1.8507
 1494SOL     OW 5380   6.474   4.949   0.606 -0.1584 -0.0050  0.8371
 1494SOL    HW1 5381   6.454   4.980   0.513  2.6271  0.2086  0.2162
 1494SOL    HW2 5382   6.498   4.852   0.604  2.0665  0.4863  0.8871
 1495SOL     OW 5383   5.848   0.957   0.463 -0.9224 -0.2287  0.2498
 1495SOL    HW1 5384   5.776   0.925   0.401 -0.9975  1.2356 -0.4678
 1495SOL    HW2 5385   5.861   1.056   0.451  0.9487 -0.3816  0.6244
 1496SOL     OW 5386   3.783   3.072   0.574 -0.2094 -0.0016  0.0098
 1496SOL    HW1 5387   3.849   3.137   0.612  1.9587 -1.2980 -1.3830
 1496SOL    HW2 5388   3.722   3.120   0.510  0.5807  0.8739 -0.1088
 1497SOL     OW 5389   2.312   5.567   0.927 -0.0645  0.0991 -0.1188
 1497SOL    HW1 5390   2.393   5.510   0.911 -0.6605 -0.6036 -0.6484
 1497SOL    HW2 5391   2.242   5.547   0.859 -2.0188 -1.7578  2.2292
 1498SOL     OW 5392   1.406   3.478   5.010  0.4304 -0.5696 -0.0033
 1498SOL    HW1 5393   1.451   3.492   4.921 -0.5533 -0.8354 -0.5618
 1498SOL    HW2 5394   1.451   3.534   5.079  0.6857  0.3076 -0.8474
 1499SOL     OW 5395   3.785   3.241   2.371 -0.0143  0.0206 -0.0091
 1499SOL    HW1 5396   3.831   3.159   2.406  1.3572  0.5144 -0.6245
 1499SOL    HW2 5397   3.686   3.229   2.380  0.1967 -1.1876  1.0544
 1500SOL     OW 5398   2.883   6.909   5.814 -0.7100  0.1427  0.3607
 1500SOL    HW1 5399   2.860   6.841   5.745  2.5759 -1.4228  0.6199
 1500SOL    HW2 5400   2.887   6.866   5.904  0.8765  0.7454  0.6095
 1501SOL     OW 5401   0.922   3.481   3.145  0.0519  0.2698  0.1050
 1501SOL    HW1 5402   0.927   3.551   3.217  1.1056 -0.2248  0.5311
 1501SOL    HW2 5403   1.008   3.432   3.140 -0.9706 -1.6337  0.4295
 1502SOL     OW 5404   2.979   1.168   0.335 -0.0757  0.1930  0.4643
 1502SOL    HW1 5405   2.906   1.231   0.362 -0.8894 -1.0565  1.3054
 1502SOL    HW2 5406   3.056   1.179   0.397 -0.4159  0.0241  0.9259
 1503SOL     OW 5407   5.693   6.180   5.432 -0.6249  0.0435  0.8068
 1503SOL    HW1 5408   5.617   6.241   5.408 -0.9012 -1.1799 -1.6908
 1503SOL    HW2 5409   5.780   6.223   5.407 -0.6896  0.2309  0.9039
 1504SOL     OW 5410   4.531   1.010   3.112  0.4687 -0.6311 -0.0073
 1504SOL    HW1 5411   4.554   0.928   3.165 -2.5043 -1.2863  0.4853
 1504SOL    HW2 5412   4.576   1.007   3.023  1.8796 -1.8503  0.7072
 1505SOL     OW 5413   1.415   5.902   1.753 -0.1361 -1.0144 -0.3676
 1505SOL    HW1 5414   1.395   5.877   1.848  0.0397  0.1840  0.0003
 1505SOL    HW2 5415   1.344   5.963   1.719  1.6086  1.5182  0.2346
 1506SOL     OW 5416   2.235   6.585   5.023 -0.4733  0.5399 -0.5776
 1506SOL    HW1 5417   2.272   6.665   4.976  0.4426  0.1023 -0.6245
 1506SOL    HW2 5418   2.311   6.528   5.057 -1.0984  0.7794  1.3227
 1507SOL     OW 5419   5.761   5.650   1.234  0.8498 -0.2021 -0.0285
 1507SOL    HW1 5420   5.845   5.603   1.208 -0.3414 -0.5564 -3.7569
 1507SOL    HW2 5421   5.694   5.583   1.266  0.9167 -0.3371 -0.1721
 1508SOL     OW 5422   0.971   6.187   0.603  0.0009 -0.2000  0.1712
 1508SOL    HW1 5423   1.034   6.114   0.576 -1.3538 -1.2168 -0.3251
 1508SOL    HW2 5424   1.020   6.274   0.600  1.7116 -1.0692  0.9763
 1509SOL     OW 5425   3.088   3.971   3.055 -0.3063  0.2455 -0.2636
 1509SOL    HW1 5426   3.132   4.020   2.980  0.7162  0.0199  0.1637
 1509SOL    HW2 5427   3.125   4.005   3.142 -1.7605  0.7890  0.1713
 1510SOL     OW 5428   5.883   0.483   0.506  0.4380  0.4782  0.1875
 1510SOL    HW1 5429   5.849   0.520   0.419  1.3625  0.2043 -0.2981
 1510SOL    HW2 5430   5.924   0.393   0.491 -0.9160 -0.3584  1.1996
 1511SOL     OW 5431   3.280   5.924   5.200  0.2182 -0.1706 -0.3279
 1511SOL    HW1 5432   3.312   5.927   5.295  1.1303  2.5321 -0.6213
 1511SOL    HW2 5433   3.189   5.964   5.194  0.2408 -0.1548 -0.5998
 1512SOL     OW 5434   0.771   2.827   4.829  0.4297  0.5675 -0.1528
 1512SOL    HW1 5435   0.736   2.736   4.809  0.6757  0.3540  0.3776
 1512SOL    HW2 5436   0.871   2.823   4.839  0.3692  0.7726  0.5534
 1513SOL     OW 5437   1.941   5.072   1.768 -0.3717 -0.3296 -0.2630
 1513SOL    HW1 5438   1.890   4.988   1.787 -0.3644 -0.7950 -2.0999
 1513SOL    HW2 5439   1.994   5.061   1.684 -1.5214  1.9725 -1.4065
 1514SOL     OW 5440   4.211   0.338   2.624  0.1301 -0.6508  0.2305
 1514SOL    HW1 5441   4.276   0.351   2.699  1.5245  0.0839 -1.0796
 1514SOL    HW2 5442   4.161   0.424   2.609 -0.4901 -0.9369  0.6038
 1515SOL     OW 5443   6.016   4.979   5.405 -0.1159  0.4993  0.6711
 1515SOL    HW1 5444   5.936   4.922   5.424 -0.5398  1.4333  1.7855
 1515SOL    HW2 5445   6.078   4.930   5.344 -0.4605 -1.1555  1.6030
 1516SOL     OW 5446   2.416   4.882   2.982  0.7579 -0.2648 -0.1236
 1516SOL    HW1 5447   2.492   4.849   2.927 -0.6179 -0.3104 -2.0906
 1516SOL    HW2 5448   2.392   4.975   2.954  0.1448 -0.2106  0.5452
 1517SOL     OW 5449   4.898   5.149   4.994 -0.3180 -0.0850 -0.3507
 1517SOL    HW1 5450   4.842   5.229   5.018  0.5218  0.6116 -0.6509
 1517SOL    HW2 5451   4.918   5.151   4.896  2.1585  0.9944  0.0966
 1518SOL     OW 5452   5.611   6.071   6.827 -0.9616  0.4602 -0.3494
 1518SOL    HW1 5453   5.657   5.995   6.875 -0.1510  0.3194 -1.3121
 1518SOL    HW2 5454   5.515   6.074   6.854 -0.6518  0.0448  0.8589
 1519SOL     OW 5455   3.631   6.162   6.844  0.2420 -0.3950 -0.2799
 1519SOL    HW1 5456   3.540   6.204   6.844  0.4393  0.0356 -0.8949
 1519SOL    HW2 5457   3.700   6.233   6.859  0.4596 -0.7702  0.5455
 1520SOL     OW 5458   6.430   4.480   0.114 -0.4104  0.3471 -0.2898
 1520SOL    HW1 5459   6.357   4.483   0.182 -0.6890 -0.8529 -0.5124
 1520SOL    HW2 5460   6.401   4.528   0.031 -0.7633  0.2747 -0.2093
 1521SOL     OW 5461   2.619   0.741   6.062 -0.1018 -0.4058  0.0173
 1521SOL    HW1 5462   2.710   0.705   6.084 -0.1600 -0.3604  0.3229
 1521SOL    HW2 5463   2.625   0.840   6.047 -0.3158 -0.2043  1.2217
 1522SOL     OW 5464   0.118   6.746   5.919  0.0476  0.4557  0.3981
 1522SOL    HW1 5465   0.029   6.753   5.964 -0.9424  2.6580 -1.7136
 1522SOL    HW2 5466   0.158   6.657   5.940 -1.9459 -0.0285  2.6033
 1523SOL     OW 5467   6.025   4.761   3.931  0.0589 -0.5284 -0.1314
 1523SOL    HW1 5468   6.117   4.747   3.897 -0.1571 -0.2412 -0.8431
 1523SOL    HW2 5469   6.016   4.854   3.967  0.4082 -0.9635  1.1227
 1524SOL     OW 5470   2.544   6.099   3.639 -0.8106 -0.6955 -0.8227
 1524SOL    HW1 5471   2.576   6.160   3.711 -1.6801 -0.5156 -0.5695
 1524SOL    HW2 5472   2.567   6.005   3.662 -0.9936 -0.6302 -0.3559
 1525SOL     OW 5473   2.408   2.402   0.818  0.0035 -0.3394 -0.0950
 1525SOL    HW1 5474   2.467   2.446   0.751  1.3063  1.1800  1.9388
 1525SOL    HW2 5475   2.318   2.445   0.816 -0.3853 -1.1227 -1.6129
 1526SOL     OW 5476   0.225   4.427   4.426 -0.0949 -0.2095  0.3297
 1526SOL    HW1 5477   0.154   4.488   4.461 -1.3047 -2.2836  1.7066
 1526SOL    HW2 5478   0.315   4.470   4.435 -0.6910  0.6066  3.0960
 1527SOL     OW 5479   4.338   1.974   3.850 -0.0054  0.0715 -0.1185
 1527SOL    HW1 5480   4.428   1.974   3.806  0.6604 -2.7073  1.0008
 1527SOL    HW2 5481   4.348   2.007   3.944  0.0958 -1.2326  0.3471
 1528SOL     OW 5482   6.885   1.474   6.010 -0.3027  0.4721 -0.2009
 1528SOL    HW1 5483   6.876   1.432   5.919  0.0517 -1.5355  0.6461
 1528SOL    HW2 5484   6.799   1.517   6.035 -0.4649  0.8924 -1.3900
 1529SOL     OW 5485   3.412   0.611   3.764 -0.1015 -0.2415  0.0024
 1529SOL    HW1 5486   3.334   0.654   3.809  0.7271  0.2232  1.0538
 1529SOL    HW2 5487   3.400   0.512   3.764 -0.2963 -0.2269  0.9504
 1530SOL     OW 5488   4.432   1.446   6.597 -0.1607  0.6800 -0.1796
 1530SOL    HW1 5489   4.468   1.538   6.613 -0.7288  0.8715  0.0112
 1530SOL    HW2 5490   4.497   1.394   6.541  0.7447  0.7824  0.7548
 1531SOL     OW 5491   0.254   5.659   4.860  0.2260  0.1843  0.1071
 1531SOL    HW1 5492   0.246   5.561   4.875  1.9324 -0.0213 -0.1485
 1531SOL    HW2 5493   0.203   5.708   4.931 -1.3701 -0.8562 -0.2605
 1532SOL     OW 5494   6.008   2.090   3.018  0.1666  0.0032 -0.1698
 1532SOL    HW1 5495   6.045   1.997   3.019  0.9012  0.2748 -1.2982
 1532SOL    HW2 5496   6.080   2.154   2.991 -0.6912  0.7357 -0.7503
 1533SOL     OW 5497   3.575   3.447   1.411  0.6934  0.3960 -0.3041
 1533SOL    HW1 5498   3.625   3.522   1.367  0.4175  0.5503 -0.3512
 1533SOL    HW2 5499   3.627   3.416   1.491 -0.0738  1.8527  0.7953
 1534SOL     OW 5500   5.818   2.596   1.032 -0.1039 -0.0598 -0.7502
 1534SOL    HW1 5501   5.792   2.500   1.018 -0.6358 -0.1763  0.8313
 1534SOL    HW2 5502   5.854   2.608   1.124 -0.4045  1.3329 -0.7838
 1535SOL     OW 5503   3.525   0.673   3.519  0.6697  0.2580 -0.6357
 1535SOL    HW1 5504   3.479   0.659   3.607  0.2783  2.7280 -0.3842
 1535SOL    HW2 5505   3.615   0.630   3.522 -0.0244 -1.2283  0.3055
 1536SOL     OW 5506   1.042   4.194   3.406 -0.3066  0.1233  0.4933
 1536SOL    HW1 5507   1.032   4.291   3.426 -0.3717  0.4070 -0.8061
 1536SOL    HW2 5508   1.133   4.177   3.368 -0.2275 -0.3601  0.8837
 1537SOL     OW 5509   1.184   5.755   2.117 -0.4502  0.2270 -0.1062
 1537SOL    HW1 5510   1.198   5.702   2.033  0.2097 -0.2282  0.2835
 1537SOL    HW2 5511   1.270   5.799   2.142 -0.7222  0.6021  0.1753
 1538SOL     OW 5512   6.403   2.842   3.569 -0.5745  0.4163 -0.5918
 1538SOL    HW1 5513   6.410   2.920   3.507  1.0043 -0.6295 -1.8227
 1538SOL    HW2 5514   6.362   2.765   3.520  0.4356 -0.3488 -0.2629
 1539SOL     OW 5515   5.041   2.604   0.793 -0.5348  0.4794  0.0043
 1539SOL    HW1 5516   5.068   2.531   0.856 -1.4518 -0.0836 -0.2490
 1539SOL    HW2 5517   5.002   2.680   0.845 -0.5282  0.3651  0.1767
 1540SOL     OW 5518   3.617   5.032   5.462 -0.6653 -0.3724 -0.1796
 1540SOL    HW1 5519   3.703   5.072   5.431 -1.2922  2.0817  1.0130
 1540SOL    HW2 5520   3.632   4.988   5.551 -0.8552  1.2325  0.6856
 1541SOL     OW 5521   2.473   2.622   4.372  0.1934  0.0142  0.0352
 1541SOL    HW1 5522   2.422   2.584   4.449  0.8966  0.7494  0.8852
 1541SOL    HW2 5523   2.548   2.561   4.347 -0.2635 -0.4070 -0.3257
 1542SOL     OW 5524   4.451   2.696   5.902 -0.1415  0.2830  0.0315
 1542SOL    HW1 5525   4.476   2.752   5.823 -0.1983  1.3974  0.7699
 1542SOL    HW2 5526   4.383   2.628   5.875 -0.6786  1.0983 -0.7252
 1543SOL     OW 5527   3.206   5.052   6.384  0.2776 -0.3110 -0.0227
 1543SOL    HW1 5528   3.158   4.965   6.371 -0.3121 -0.1690  1.0427
 1543SOL    HW2 5529   3.302   5.041   6.358  0.1763 -1.2349 -0.0559
 1544SOL     OW 5530   6.868   6.300   1.132  0.4288  0.0900 -0.6784
 1544SOL    HW1 5531   6.826   6.295   1.042 -0.9578  1.2023 -0.1282
 1544SOL    HW2 5532   6.908   6.390   1.146 -0.7928  0.4998  0.3891
 1545SOL     OW 5533   3.668   4.113   5.814  0.3570 -0.2204 -0.1206
 1545SOL    HW1 5534   3.757   4.069   5.830  0.2774 -0.2013  0.4060
 1545SOL    HW2 5535   3.637   4.156   5.899 -0.6658 -1.1368 -0.0168
 1546SOL     OW 5536   0.449   2.292   2.235  0.3635  0.3692  0.2084
 1546SOL    HW1 5537   0.403   2.228   2.173 -0.0617  0.8293  0.0368
 1546SOL    HW2 5538   0.438   2.260   2.329  1.1205 -0.4015  0.0550
 1547SOL     OW 5539   4.736   2.325   6.445  0.3869  0.0655 -0.2020
 1547SOL    HW1 5540   4.821   2.274   6.431  0.0972 -0.3684 -0.3826
 1547SOL    HW2 5541   4.679   2.277   6.511  0.3979  0.5023  0.1297
 1548SOL     OW 5542   0.969   5.628   5.345 -0.4959  0.1157  0.3859
 1548SOL    HW1 5543   0.989   5.700   5.278  0.3468  0.0480  0.5616
 1548SOL    HW2 5544   0.875   5.639   5.377 -1.9082 -1.4556 -2.7822
 1549SOL     OW 5545   2.380   5.802   6.684 -0.0890  0.3845 -0.6312
 1549SOL    HW1 5546   2.409   5.805   6.588 -0.1078  2.5510 -0.6020
 1549SOL    HW2 5547   2.283   5.828   6.690  0.4542  2.3792  0.1406
 1550SOL     OW 5548   5.595   1.439   2.529  0.0616  0.2661 -0.3603
 1550SOL    HW1 5549   5.571   1.371   2.459  1.0853  0.0088 -0.4797
 1550SOL    HW2 5550   5.513   1.463   2.582 -0.1200 -1.8586  0.3992
 1551SOL     OW 5551   5.411   1.154   6.215 -0.0255 -0.6628  0.4162
 1551SOL    HW1 5552   5.436   1.121   6.124 -0.5226 -1.2550  0.4870
 1551SOL    HW2 5553   5.346   1.091   6.257  2.5809 -2.1577  2.5106
 1552SOL     OW 5554   0.014   1.034   1.192 -0.1072  0.5615  0.2027
 1552SOL    HW1 5555  -0.065   1.047   1.251 -3.1230  0.3089 -3.4173
 1552SOL    HW2 5556   0.012   1.100   1.117  2.3034 -0.4606 -0.8828
 1553SOL     OW 5557   1.693   1.832   2.598 -0.0984 -0.2981  0.0432
 1553SOL    HW1 5558   1.687   1.915   2.654  1.8481 -0.7543  1.0339
 1553SOL    HW2 5559   1.644   1.758   2.642  0.0088 -0.2256  0.2836
 1554SOL     OW 5560   2.264   2.399   0.254 -0.0321  0.0168  0.2882
 1554SOL    HW1 5561   2.309   2.324   0.205  1.0681  0.6837  0.2465
 1554SOL    HW2 5562   2.331   2.470   0.275 -0.8962  0.6337  1.0353
 1555SOL     OW 5563   1.564   3.009   0.712 -1.0314 -0.5446  0.0048
 1555SOL    HW1 5564   1.467   3.030   0.715 -0.5875  1.8096 -0.2930
 1555SOL    HW2 5565   1.617   3.094   0.704  1.0566 -1.7519  0.1370
 1556SOL     OW 5566   5.822   2.398   3.051 -0.4144 -0.0136 -0.3637
 1556SOL    HW1 5567   5.901   2.417   2.993 -0.0006 -0.3626  0.0794
 1556SOL    HW2 5568   5.759   2.476   3.048  1.1027  1.3612  1.1983
 1557SOL     OW 5569   6.123   0.014   5.926 -0.4394  0.5096 -0.4314
 1557SOL    HW1 5570   6.190  -0.052   5.892 -1.4282 -0.5933 -0.3197
 1557SOL    HW2 5571   6.103  -0.004   6.022  0.0672  1.6788 -0.0844
 1558SOL     OW 5572   0.942   6.915   3.888 -0.3119  0.9201 -0.0115
 1558SOL    HW1 5573   0.928   6.828   3.934  1.3932 -0.1913 -1.4451
 1558SOL    HW2 5574   0.855   6.949   3.852 -0.9371 -0.4158  0.2052
 1559SOL     OW 5575   1.280   3.410   5.764  0.1333 -0.0223 -0.0041
 1559SOL    HW1 5576   1.329   3.331   5.802  0.6128  1.2113  2.0704
 1559SOL    HW2 5577   1.343   3.486   5.752 -0.9112  1.0885  1.2075
 1560SOL     OW 5578   1.268   0.324   3.509  0.3417  0.2029 -0.3102
 1560SOL    HW1 5579   1.220   0.410   3.492 -0.5977 -0.1590  0.4539
 1560SOL    HW2 5580   1.270   0.305   3.607 -1.2462 -1.6174 -0.5541
 1561SOL     OW 5581   3.593   1.787   4.943 -0.3851 -0.1400 -0.0979
 1561SOL    HW1 5582   3.682   1.801   4.900 -0.6864  1.5189 -0.2594
 1561SOL    HW2 5583   3.582   1.852   5.018 -1.6509  0.0303 -0.4084
 1562SOL     OW 5584   2.788   1.506   6.695 -0.4957 -0.4461 -0.6490
 1562SOL    HW1 5585   2.762   1.479   6.602 -0.0703  0.0696 -0.9195
 1562SOL    HW2 5586   2.759   1.600   6.712 -1.9474 -1.0142  0.2829
 1563SOL     OW 5587   3.042   4.077   0.557  0.0199  0.2976  0.3668
 1563SOL    HW1 5588   3.101   3.998   0.573 -0.3726 -0.3958 -1.4819
 1563SOL    HW2 5589   3.084   4.137   0.489 -1.3240 -0.1392 -0.8837
 1564SOL     OW 5590   0.267   5.869   2.141  0.3001 -0.3399 -0.0716
 1564SOL    HW1 5591   0.243   5.868   2.044 -0.8336 -0.1854  0.1914
 1564SOL    HW2 5592   0.199   5.923   2.192  1.8922  1.1739  0.5662
 1565SOL     OW 5593   2.971   0.629   6.647  0.0100 -0.5275 -0.6014
 1565SOL    HW1 5594   2.893   0.664   6.699 -1.0941 -2.0149 -1.1826
 1565SOL    HW2 5595   3.048   0.692   6.655 -0.2428 -0.4556  2.4635
 1566SOL     OW 5596   1.084   6.835   0.261 -0.2548 -0.6444 -0.1230
 1566SOL    HW1 5597   0.994   6.859   0.296  0.5749  1.4184  0.7612
 1566SOL    HW2 5598   1.128   6.769   0.321 -0.3397  0.0053  0.6659
 1567SOL     OW 5599   5.646   0.872   0.273  1.2787 -0.3035 -0.4521
 1567SOL    HW1 5600   5.623   0.950   0.214  3.8955  1.5420  0.8091
 1567SOL    HW2 5601   5.582   0.868   0.350  1.6981  1.2689  0.0082
 1568SOL     OW 5602   6.229   5.340   0.973 -0.1239  0.3092  0.1930
 1568SOL    HW1 5603   6.190   5.352   1.064 -1.3955  0.3058 -0.3317
 1568SOL    HW2 5604   6.168   5.283   0.918 -0.2850  1.7727 -1.2133
 1569SOL     OW 5605   3.174   5.412   0.346 -0.1637 -0.2623 -0.1707
 1569SOL    HW1 5606   3.094   5.353   0.358  0.8057 -1.4331  0.7514
 1569SOL    HW2 5607   3.210   5.437   0.436  1.1465 -0.6491 -0.5775
 1570SOL     OW 5608   1.421   1.158   0.173  0.2283  0.1982  0.6090
 1570SOL    HW1 5609   1.500   1.127   0.225  1.4063 -0.1404 -1.2845
 1570SOL    HW2 5610   1.432   1.133   0.077 -1.8762  0.7523  0.1629
 1571SOL     OW 5611   4.832   3.823   0.008  0.0199  1.0232  0.3881
 1571SOL    HW1 5612   4.899   3.789  -0.058  0.6295 -1.0533  1.9718
 1571SOL    HW2 5613   4.864   3.805   0.101 -2.7282 -0.0616  1.2171
 1572SOL     OW 5614   3.096   4.761   1.785 -0.8668  0.4904 -0.3282
 1572SOL    HW1 5615   3.176   4.812   1.814 -1.4479  2.0505 -1.3482
 1572SOL    HW2 5616   3.082   4.683   1.846  0.4132  1.1828  0.8971
 1573SOL     OW 5617   3.320   4.029   0.793  0.0838  0.3304  0.0476
 1573SOL    HW1 5618   3.236   3.979   0.813  1.8625 -2.3213  1.7443
 1573SOL    HW2 5619   3.343   4.087   0.871  0.4696  0.0118  0.1762
 1574SOL     OW 5620   2.369   2.807   4.598  0.0934  0.1175  0.3209
 1574SOL    HW1 5621   2.446   2.789   4.536 -0.1765  0.0384  0.0040
 1574SOL    HW2 5622   2.383   2.757   4.684 -0.2130 -0.9354 -0.2160
 1575SOL     OW 5623   5.309   6.188   6.459 -0.3493  0.0473 -0.3031
 1575SOL    HW1 5624   5.297   6.259   6.529 -1.6211 -0.0898 -0.3552
 1575SOL    HW2 5625   5.359   6.227   6.381  1.6920  0.0167  0.9111
 1576SOL     OW 5626   6.717   0.178   6.936 -0.4244 -0.3887  0.1928
 1576SOL    HW1 5627   6.746   0.220   6.850 -0.8047 -0.4708  0.0210
 1576SOL    HW2 5628   6.643   0.232   6.976 -0.5318 -0.5811  0.2560
 1577SOL     OW 5629   2.172   2.247   6.143  0.1289  0.0954 -0.1447
 1577SOL    HW1 5630   2.219   2.237   6.055  0.2180  1.2246 -0.2409
 1577SOL    HW2 5631   2.074   2.259   6.127  0.4791  3.5171 -0.3598
 1578SOL     OW 5632   1.337   0.984   2.419  0.1184 -0.1735  0.4858
 1578SOL    HW1 5633   1.330   0.944   2.511  0.0180 -3.4185 -0.8313
 1578SOL    HW2 5634   1.251   0.972   2.370  1.1614 -1.5577 -1.1256
 1579SOL     OW 5635   4.103   5.525   5.372 -0.0690 -0.1270 -0.4394
 1579SOL    HW1 5636   4.187   5.497   5.325 -0.1037 -4.0386  1.4230
 1579SOL    HW2 5637   4.126   5.559   5.464 -0.4343  1.2727 -0.8346
 1580SOL     OW 5638   5.599   1.981   1.809 -0.3890 -0.5367  0.0688
 1580SOL    HW1 5639   5.594   2.077   1.784  1.1126 -0.3956  0.2261
 1580SOL    HW2 5640   5.609   1.973   1.908 -0.0075 -0.8316  0.0095
 1581SOL     OW 5641   1.734   5.774   0.573 -0.1893  0.4606 -0.6879
 1581SOL    HW1 5642   1.639   5.806   0.568 -0.9106 -1.3548  0.0544
 1581SOL    HW2 5643   1.775   5.776   0.482 -1.3498  0.1924 -1.2396
 1582SOL     OW 5644   5.990   3.195   1.252  0.0109  0.1177 -0.1608
 1582SOL    HW1 5645   6.043   3.276   1.276 -0.5378  0.4031  0.0777
 1582SOL    HW2 5646   6.002   3.125   1.323 -0.4523  0.4232  0.2168
 1583SOL     OW 5647   0.596   1.748   6.910  0.3626 -0.2180  0.5986
 1583SOL    HW1 5648   0.668   1.707   6.966  0.3256  0.0797  0.8648
 1583SOL    HW2 5649   0.510   1.700   6.927  0.2588  0.1456  1.1212
 1584SOL     OW 5650   6.016   3.743   3.372  0.3159 -0.2077 -0.3648
 1584SOL    HW1 5651   5.946   3.790   3.318  0.4127 -0.6295 -0.8718
 1584SOL    HW2 5652   6.018   3.646   3.347 -0.0554 -0.5449  0.8519
 1585SOL     OW 5653   1.555   0.364   3.419  0.1168  0.4821  0.0580
 1585SOL    HW1 5654   1.646   0.326   3.434 -0.0934  0.4097  1.2332
 1585SOL    HW2 5655   1.531   0.356   3.322  0.3179 -1.8819  0.1318
 1586SOL     OW 5656   4.732   6.068   4.832  0.0056 -0.1321 -0.4348
 1586SOL    HW1 5657   4.782   6.079   4.919  0.3584  0.7687 -0.7327
 1586SOL    HW2 5658   4.785   6.011   4.770 -1.2780 -2.7319  0.7041
 1587SOL     OW 5659   2.552   1.177   6.460  0.0059 -0.2333 -0.4920
 1587SOL    HW1 5660   2.606   1.142   6.536 -1.0371 -1.3091 -0.2199
 1587SOL    HW2 5661   2.602   1.166   6.374  0.7521  0.0204 -0.0914
 1588SOL     OW 5662   5.570   0.014   1.694 -0.0241 -0.3191 -0.3441
 1588SOL    HW1 5663   5.595  -0.081   1.673  0.8740 -0.1059 -0.3081
 1588SOL    HW2 5664   5.478   0.033   1.660 -0.4069 -1.3403  0.0834
 1589SOL     OW 5665   4.767   0.142   6.959 -0.4604  0.0276  0.0647
 1589SOL    HW1 5666   4.746   0.203   6.882 -0.4075  0.9459  0.7642
 1589SOL    HW2 5667   4.847   0.176   7.008 -1.6574  0.6037  1.7129
 1590SOL     OW 5668   3.186   3.717   5.829 -0.1373 -0.0886  0.0670
 1590SOL    HW1 5669   3.209   3.814   5.829  0.0175 -0.1264  0.0037
 1590SOL    HW2 5670   3.224   3.674   5.747 -0.0388 -0.2435  0.1959
 1591SOL     OW 5671   2.487   2.898   5.422 -0.1727  0.6129  0.1536
 1591SOL    HW1 5672   2.512   2.963   5.350  1.5419  0.4497  0.5488
 1591SOL    HW2 5673   2.535   2.811   5.405 -2.5504 -0.6657 -0.4678
 1592SOL     OW 5674   1.157   5.607   3.817 -0.0781  0.1244  0.3369
 1592SOL    HW1 5675   1.187   5.681   3.878 -1.9731  1.3190 -0.1032
 1592SOL    HW2 5676   1.223   5.597   3.743  0.7598  0.6359  0.9877
 1593SOL     OW 5677   4.211   4.797   5.079  0.1656  0.0348 -0.2333
 1593SOL    HW1 5678   4.233   4.701   5.065  1.5070  0.3335 -0.2937
 1593SOL    HW2 5679   4.275   4.854   5.027 -1.2379  0.9567 -1.0224
 1594SOL     OW 5680   6.134   4.732   0.067  0.4222  0.1705 -0.0030
 1594SOL    HW1 5681   6.088   4.651   0.031 -0.5221  0.6003  0.1923
 1594SOL    HW2 5682   6.086   4.815   0.035  0.9825  0.6289  0.3213
 1595SOL     OW 5683   6.088   0.227   1.161 -0.4022  0.3120 -0.0499
 1595SOL    HW1 5684   6.012   0.287   1.186 -0.1364  0.3745  0.6201
 1595SOL    HW2 5685   6.065   0.132   1.182  0.7008  0.5688  2.7378
 1596SOL     OW 5686   0.688   5.771   3.913  0.5106 -0.2059 -0.1204
 1596SOL    HW1 5687   0.605   5.717   3.897  1.5135 -1.7110 -0.4220
 1596SOL    HW2 5688   0.667   5.868   3.904 -1.4526 -0.4968  0.8740
 1597SOL     OW 5689   4.243   2.615   5.553  0.0518 -0.4887  0.1034
 1597SOL    HW1 5690   4.157   2.658   5.527 -0.5356 -0.5511  1.7953
 1597SOL    HW2 5691   4.247   2.522   5.516 -0.6934 -0.5344  0.1306
 1598SOL     OW 5692   6.609   5.984   2.401  0.2307 -0.0623  0.2597
 1598SOL    HW1 5693   6.551   5.977   2.320  2.0193 -2.0727 -0.9791
 1598SOL    HW2 5694   6.554   6.008   2.480 -1.8545  0.3629 -1.2462
 1599SOL     OW 5695   6.577   2.272   2.925 -0.2144  0.8303  0.1936
 1599SOL    HW1 5696   6.490   2.254   2.972 -0.5559 -4.2579 -1.7731
 1599SOL    HW2 5697   6.560   2.305   2.833 -0.3818 -2.4625 -1.0623
 1600SOL     OW 5698   6.188   3.360   3.440 -0.2699  0.5927  0.2955
 1600SOL    HW1 5699   6.199   3.266   3.474  0.6013  1.0603  1.3553
 1600SOL    HW2 5700   6.121   3.408   3.497 -0.1603  0.8380  0.2171
 1601SOL     OW 5701   4.444   0.331   4.900  0.7381  0.2192 -0.1556
 1601SOL    HW1 5702   4.497   0.258   4.858  2.2484  1.6105 -0.7779
 1601SOL    HW2 5703   4.426   0.402   4.832  0.2655  0.9451  0.7037
 1602SOL     OW 5704   3.490   6.006   1.137 -0.1077 -0.1306  0.1245
 1602SOL    HW1 5705   3.560   5.981   1.204 -0.3992 -0.0007  0.4762
 1602SOL    HW2 5706   3.530   6.066   1.068  0.1615 -0.1728  0.2413
 1603SOL     OW 5707   1.902   3.235   2.394 -0.1579 -0.2913  0.2490
 1603SOL    HW1 5708   1.936   3.213   2.303 -0.1420 -1.6983  0.5760
 1603SOL    HW2 5709   1.872   3.330   2.396 -0.1876 -0.2475 -1.2289
 1604SOL     OW 5710   6.073   6.134   0.012 -0.8889  0.1195  0.3373
 1604SOL    HW1 5711   6.061   6.035  -0.000 -0.5491  0.3765 -2.8730
 1604SOL    HW2 5712   6.170   6.156   0.004 -0.8757  0.6696  1.8148
 1605SOL     OW 5713   0.780   2.008   5.375 -0.1537  0.0175  0.2240
 1605SOL    HW1 5714   0.818   1.937   5.434 -0.6217  0.3666  0.9551
 1605SOL    HW2 5715   0.853   2.073   5.352 -0.0088 -0.0119  0.5823
 1606SOL     OW 5716   4.922   3.811   4.365 -0.0536  0.2520  0.1306
 1606SOL    HW1 5717   4.998   3.876   4.370  0.0375  0.1410  0.1971
 1606SOL    HW2 5718   4.909   3.781   4.271  0.9122 -0.8230  0.3174
 1607SOL     OW 5719   5.137   3.375   5.585 -0.6727 -0.3469  0.3120
 1607SOL    HW1 5720   5.154   3.392   5.488  0.0147 -1.9105  0.1360
 1607SOL    HW2 5721   5.039   3.364   5.600 -0.7073 -1.1519 -0.4121
 1608SOL     OW 5722   4.859   5.471   3.702 -0.0327  0.1743 -0.1778
 1608SOL    HW1 5723   4.884   5.462   3.606 -0.7863 -0.6944 -0.3042
 1608SOL    HW2 5724   4.830   5.565   3.720  0.1689  0.3590 -0.7788
 1609SOL     OW 5725   0.250   2.771   1.973 -0.4289  0.2162  0.0006
 1609SOL    HW1 5726   0.337   2.765   2.022 -0.2861 -0.1468 -0.2884
 1609SOL    HW2 5727   0.235   2.865   1.943 -0.3242  0.3580  0.3893
 1610SOL     OW 5728   6.370   2.412   0.488  0.2135 -0.0715 -0.0865
 1610SOL    HW1 5729   6.368   2.420   0.389  0.0354 -2.6133 -0.3458
 1610SOL    HW2 5730   6.317   2.333   0.517  0.6745  0.3112  2.0206
 1611SOL     OW 5731   1.053   5.058   1.516  0.1750  0.4824  1.0579
 1611SOL    HW1 5732   1.063   5.035   1.613 -2.6041  2.2494  1.8877
 1611SOL    HW2 5733   0.982   5.127   1.506  0.5925  0.5701 -2.2664
 1612SOL     OW 5734   5.472   2.504   0.590  0.2629  0.3769 -0.1175
 1612SOL    HW1 5735   5.398   2.497   0.524  1.0141 -0.1576 -0.9142
 1612SOL    HW2 5736   5.529   2.584   0.569  1.0483 -0.3189 -0.7019
 1613SOL     OW 5737   6.084   1.597   5.057 -0.0030 -0.4476  0.2750
 1613SOL    HW1 5738   6.044   1.617   5.146  0.4467 -1.3004  0.6839
 1613SOL    HW2 5739   6.013   1.563   4.995 -0.2665 -0.1095  0.3886
 1614SOL     OW 5740   1.706   4.427   2.502 -0.1184  0.4969  0.1606
 1614SOL    HW1 5741   1.708   4.465   2.594  0.7403  0.5780  0.1140
 1614SOL    HW2 5742   1.750   4.337   2.502 -1.6536 -0.2915  0.1630
 1615SOL     OW 5743   5.650   6.075   6.009 -0.1166 -0.0340 -0.6082
 1615SOL    HW1 5744   5.602   6.027   5.936  3.2426 -2.5140 -1.4309
 1615SOL    HW2 5745   5.615   6.045   6.098 -1.2496 -0.4039 -1.1682
 1616SOL     OW 5746   5.850   5.772   5.075  0.1168 -0.3166 -0.2431
 1616SOL    HW1 5747   5.882   5.802   4.985 -0.1355  1.2924  0.1773
 1616SOL    HW2 5748   5.841   5.851   5.136  0.4346 -1.3849  1.2609
 1617SOL     OW 5749   3.714   0.420   4.331  0.2126 -0.0543 -0.7136
 1617SOL    HW1 5750   3.682   0.386   4.420  4.0997 -1.0330  0.4959
 1617SOL    HW2 5751   3.685   0.515   4.320  1.2853  0.8233  2.6541
 1618SOL     OW 5752   6.536   1.242   3.966 -0.2653  0.0106  0.1736
 1618SOL    HW1 5753   6.583   1.169   4.017 -0.6946 -0.4468 -0.0764
 1618SOL    HW2 5754   6.542   1.327   4.017  0.8479 -0.0366  0.1443
 1619SOL     OW 5755   5.374   4.971   6.854  0.8963 -0.5211  0.0375
 1619SOL    HW1 5756   5.400   4.894   6.796  2.4469 -0.3525  0.4540
 1619SOL    HW2 5757   5.369   4.941   6.949 -0.2932 -0.4956 -0.0075
 1620SOL     OW 5758   0.698   3.529   3.777 -0.8757  0.1921 -0.1408
 1620SOL    HW1 5759   0.770   3.533   3.845 -0.9403 -0.2985 -0.0339
 1620SOL    HW2 5760   0.610   3.551   3.820 -0.9673 -0.4536  0.0255
 1621SOL     OW 5761   6.256   4.675   0.508  0.7226  0.2599  0.0472
 1621SOL    HW1 5762   6.351   4.678   0.537  1.1803 -1.2657 -1.1689
 1621SOL    HW2 5763   6.198   4.650   0.586  1.7085 -2.0247  0.1210
 1622SOL     OW 5764   6.026   4.332   5.141 -0.3049  0.1947 -0.0359
 1622SOL    HW1 5765   5.968   4.289   5.210 -1.0604  1.5761  0.2218
 1622SOL    HW2 5766   6.014   4.431   5.144 -0.3620  0.3021 -2.1613
 1623SOL     OW 5767   1.600   1.227   2.031  0.0163  0.2870 -0.5891
 1623SOL    HW1 5768   1.642   1.294   1.970 -1.6697  1.1744 -0.8654
 1623SOL    HW2 5769   1.620   1.251   2.126 -0.9574  1.5077 -0.6662
 1624SOL     OW 5770   2.245   0.824   3.455 -0.2683 -0.7943  0.1533
 1624SOL    HW1 5771   2.245   0.744   3.514  1.4309 -2.7957 -2.3172
 1624SOL    HW2 5772   2.337   0.864   3.453 -0.9740  0.9812  0.9625
 1625SOL     OW 5773   5.183   1.441   5.080 -0.0080  0.3081 -0.6533
 1625SOL    HW1 5774   5.087   1.457   5.102  0.1812  1.4797 -0.6057
 1625SOL    HW2 5775   5.205   1.482   4.991  0.9583  2.0841  0.3381
 1626SOL     OW 5776   5.008   6.497   1.238  0.3507 -0.2637  0.2174
 1626SOL    HW1 5777   4.974   6.546   1.319 -1.0899  1.6913 -1.4587
 1626SOL    HW2 5778   4.953   6.415   1.224 -1.9956  1.3658 -0.8186
 1627SOL     OW 5779   0.627   6.867   1.052 -0.3699  0.1226 -0.3761
 1627SOL    HW1 5780   0.613   6.962   1.026 -1.5435  0.4229  1.2049
 1627SOL    HW2 5781   0.594   6.807   0.980 -2.4699  0.9205 -0.1418
 1628SOL     OW 5782   1.057   2.392   6.373  0.0127  0.1075 -0.2189
 1628SOL    HW1 5783   0.967   2.430   6.394  0.7661  1.2877  1.0938
 1628SOL    HW2 5784   1.085   2.330   6.446  1.2141  1.5577  0.6091
 1629SOL     OW 5785   5.391   6.796   4.486 -0.7332  0.4840  0.5193
 1629SOL    HW1 5786   5.373   6.754   4.397 -1.2514  0.0302  0.8302
 1629SOL    HW2 5787   5.357   6.890   4.486 -0.5470  0.5552  0.1745
 1630SOL     OW 5788   7.002   5.052   4.483  0.1321 -0.1546  0.0672
 1630SOL    HW1 5789   7.096   5.046   4.518  0.0504 -2.8536  0.0536
 1630SOL    HW2 5790   6.963   5.141   4.507  2.1219  0.3923  1.5298
 1631SOL     OW 5791   0.725   3.796   6.925  0.3198 -0.4047 -0.0005
 1631SOL    HW1 5792   0.800   3.730   6.924  0.4947 -0.2000 -0.9703
 1631SOL    HW2 5793   0.729   3.849   7.010  1.7292  0.1010 -0.3498
 1632SOL     OW 5794   4.283   4.889   0.763 -0.7491 -0.1430  0.0505
 1632SOL    HW1 5795   4.329   4.801   0.777 -0.2700  0.0700 -0.1801
 1632SOL    HW2 5796   4.294   4.917   0.667  0.5873  1.0021  0.5051
 1633SOL     OW 5797   2.618   0.437   3.636 -0.0135 -0.5985 -0.1228
 1633SOL    HW1 5798   2.713   0.412   3.616  0.1181 -0.2033 -0.0009
 1633SOL    HW2 5799   2.571   0.360   3.679  0.2792 -0.7621 -0.0963
 1634SOL     OW 5800   1.158   4.995   4.589 -0.0171 -0.3521 -0.3627
 1634SOL    HW1 5801   1.157   5.092   4.566 -0.4801 -0.1118  0.6112
 1634SOL    HW2 5802   1.234   4.950   4.541  1.9938  1.0459  1.3302
 1635SOL     OW 5803   3.334   6.211   6.783 -0.5933  0.0451 -0.2086
 1635SOL    HW1 5804   3.249   6.262   6.777 -1.2266 -0.8833  0.6444
 1635SOL    HW2 5805   3.315   6.113   6.774 -0.5144 -0.8359  5.5166
 1636SOL     OW 5806   2.677   1.919   6.054 -0.3610  0.1818 -0.3564
 1636SOL    HW1 5807   2.724   1.982   6.116 -0.8787  1.2233 -0.9905
 1636SOL    HW2 5808   2.728   1.833   6.048  0.2111  0.4375  0.7403
 1637SOL     OW 5809   2.630   5.164   6.419  0.1147 -0.2957  0.2990
 1637SOL    HW1 5810   2.704   5.111   6.379  2.7669  2.2778  1.3625
 1637SOL    HW2 5811   2.578   5.209   6.347  0.6098 -0.8975 -0.4456
 1638SOL     OW 5812   0.101   6.008   6.144 -0.3555  0.1614 -0.5070
 1638SOL    HW1 5813   0.049   5.984   6.226 -0.4106 -1.2866 -0.9340
 1638SOL    HW2 5814   0.070   5.953   6.067  0.6242  0.5217 -1.1869
 1639SOL     OW 5815   0.250   5.168   5.466  0.5069  0.6285 -0.3040
 1639SOL    HW1 5816   0.285   5.136   5.378  2.1114  3.1170 -0.6622
 1639SOL    HW2 5817   0.199   5.253   5.453 -1.6737 -0.3949  0.8847
 1640SOL     OW 5818   4.542   6.099   1.181 -0.9793 -0.5393  0.8457
 1640SOL    HW1 5819   4.454   6.114   1.135  1.2378  1.7150 -3.2712
 1640SOL    HW2 5820   4.549   6.159   1.260 -2.6415  0.0978  0.5557
 1641SOL     OW 5821   1.919   0.324   2.584 -0.1160  0.6248 -0.0921
 1641SOL    HW1 5822   2.001   0.351   2.533 -0.7084  0.9027 -0.9265
 1641SOL    HW2 5823   1.884   0.238   2.547  0.2609  0.0719  0.8112
 1642SOL     OW 5824   6.508   6.022   2.157 -0.1296 -0.1010  0.1041
 1642SOL    HW1 5825   6.441   5.970   2.105 -2.1038  0.6653  1.7302
 1642SOL    HW2 5826   6.598   6.014   2.114 -1.4293 -0.3116 -2.7773
 1643SOL     OW 5827   6.243   6.037   1.215  0.2196  0.2693  0.8850
 1643SOL    HW1 5828   6.181   6.034   1.137  1.6829  0.1651 -0.3222
 1643SOL    HW2 5829   6.318   5.972   1.201  1.6733  1.7597  1.3285
 1644SOL     OW 5830   6.981   2.769   6.687  0.7423 -0.8026  0.6724
 1644SOL    HW1 5831   6.994   2.831   6.610 -1.4396 -1.4675 -0.3099
 1644SOL    HW2 5832   7.043   2.690   6.678  1.2798 -0.3375  0.2280
 1645SOL     OW 5833   4.926   1.977   1.657 -0.3838 -0.5393  0.0201
 1645SOL    HW1 5834   4.928   1.921   1.575 -1.2167  1.6133 -1.5687
 1645SOL    HW2 5835   5.010   2.031   1.662 -0.9572  0.4069 -0.2576
 1646SOL     OW 5836   5.127   5.584   3.062 -0.3329 -0.2376  0.6987
 1646SOL    HW1 5837   5.137   5.525   2.982  1.0260  0.8057  0.0629
 1646SOL    HW2 5838   5.037   5.626   3.061  0.5740  1.8676 -1.8314
 1647SOL     OW 5839   5.018   5.202   2.602 -0.2537  0.8716  0.4610
 1647SOL    HW1 5840   4.936   5.210   2.545 -0.0622  1.2061  0.2277
 1647SOL    HW2 5841   5.096   5.242   2.553  0.3837 -0.8347  0.0025
 1648SOL     OW 5842   3.929   5.542   0.398  0.2684 -0.3735 -0.4025
 1648SOL    HW1 5843   3.854   5.579   0.345  0.6752 -1.0620 -1.4870
 1648SOL    HW2 5844   4.013   5.592   0.377 -0.1291  1.4727  2.0014
 1649SOL     OW 5845   1.750   6.668   2.101  0.4402 -0.7251  0.4151
 1649SOL    HW1 5846   1.753   6.760   2.140 -0.1348 -0.8568  0.7883
 1649SOL    HW2 5847   1.685   6.666   2.025  0.6592 -0.7569  0.2284
 1650SOL     OW 5848   5.747   3.998   4.864 -0.1943 -0.3067  0.6357
 1650SOL    HW1 5849   5.787   3.942   4.792 -0.1375  0.0165  0.4162
 1650SOL    HW2 5850   5.807   4.075   4.884 -0.2044 -0.3990  1.0352
 1651SOL     OW 5851   2.953   0.838   5.816  0.3103 -0.0610 -0.1016
 1651SOL    HW1 5852   2.982   0.744   5.835  1.7605  0.2737 -0.4806
 1651SOL    HW2 5853   2.875   0.836   5.753  0.1608 -1.0123  0.0892
 1652SOL     OW 5854   3.859   2.838   5.877  0.4324 -0.3410 -0.0975
 1652SOL    HW1 5855   3.830   2.925   5.918  0.9766 -0.5613  0.7719
 1652SOL    HW2 5856   3.779   2.779   5.866  0.3101 -0.4066  0.9835
 1653SOL     OW 5857   0.844   6.498   0.481  0.0524 -1.0267  0.3783
 1653SOL    HW1 5858   0.777   6.563   0.517  1.0268  0.3950 -0.2720
 1653SOL    HW2 5859   0.890   6.453   0.557 -0.7628 -1.0867  0.8454
 1654SOL     OW 5860   2.031   2.414   0.106  0.4937  0.1578  0.4185
 1654SOL    HW1 5861   2.011   2.507   0.136  0.5838  0.6475 -0.9573
 1654SOL    HW2 5862   2.099   2.373   0.167  0.2327  0.8789  1.2141
 1655SOL     OW 5863   2.536   0.138   1.783  0.7696  0.1738  0.2420
 1655SOL    HW1 5864   2.540   0.059   1.844  0.4365  0.2384  0.3502
 1655SOL    HW2 5865   2.472   0.120   1.709  1.0295  0.1706  0.0177
 1656SOL     OW 5866   0.582   3.683   4.907 -0.1453 -1.0994 -0.5687
 1656SOL    HW1 5867   0.676   3.705   4.883 -0.8308 -0.1752 -2.6755
 1656SOL    HW2 5868   0.557   3.595   4.868  0.2239 -2.0474  1.2129
 1657SOL     OW 5869   3.301   1.124   6.941  0.0336 -0.0777  0.6773
 1657SOL    HW1 5870   3.379   1.186   6.952  0.4384 -0.8603  2.6171
 1657SOL    HW2 5871   3.236   1.137   7.016 -0.2904 -1.4068  0.6675
 1658SOL     OW 5872   3.073   2.024   1.357  0.4259  0.5536 -0.4917
 1658SOL    HW1 5873   3.096   2.110   1.403  2.7863  0.6488 -1.6516
 1658SOL    HW2 5874   3.032   2.043   1.268 -3.3031  0.3720  1.0342
 1659SOL     OW 5875   2.141   4.692   1.752  0.1867  0.6692  0.2035
 1659SOL    HW1 5876   2.178   4.775   1.793 -1.0104  1.8804 -1.0658
 1659SOL    HW2 5877   2.209   4.619   1.757  1.4564  1.8560  0.8888
 1660SOL     OW 5878   5.044   2.907   3.312  0.3384  0.5438  0.5654
 1660SOL    HW1 5879   4.966   2.959   3.346 -0.4918  0.3808 -0.9741
 1660SOL    HW2 5880   5.129   2.956   3.331 -0.3635  2.1132 -0.1649
 1661SOL     OW 5881   1.497   5.571   0.231 -0.1461  0.5341  0.8279
 1661SOL    HW1 5882   1.584   5.597   0.189  0.2250  0.2201  1.3913
 1661SOL    HW2 5883   1.489   5.472   0.233 -0.2005  0.5459  1.4080
 1662SOL     OW 5884   6.171   2.585   0.138  0.1861  0.8009  0.2276
 1662SOL    HW1 5885   6.180   2.547   0.046 -1.1718  1.8910 -0.3899
 1662SOL    HW2 5886   6.074   2.584   0.165  0.6827 -0.6837  2.1888
 1663SOL     OW 5887   1.081   6.625   4.932  0.1403  0.3541  0.2996
 1663SOL    HW1 5888   1.000   6.651   4.880 -0.6366 -1.5888  0.4210
 1663SOL    HW2 5889   1.162   6.671   4.895 -0.4247 -0.6763 -2.4362
 1664SOL     OW 5890   3.556   4.855   0.235 -0.1832  0.0493 -0.1067
 1664SOL    HW1 5891   3.578   4.928   0.300  1.5592  0.3419 -0.9727
 1664SOL    HW2 5892   3.541   4.895   0.144 -2.1257 -0.4016 -0.0272
 1665SOL     OW 5893   2.161   1.960   5.549 -0.4230  0.2486  1.0871
 1665SOL    HW1 5894   2.074   2.009   5.543 -0.2079  0.6968  1.6204
 1665SOL    HW2 5895   2.153   1.873   5.499 -1.1019  0.3868  0.9420
 1666SOL     OW 5896   5.930   1.316   1.228 -0.3538  0.0089  0.5447
 1666SOL    HW1 5897   5.926   1.250   1.154 -0.2808  0.2481  0.3259
 1666SOL    HW2 5898   5.839   1.327   1.268 -0.8033  1.2749 -0.7441
 1667SOL     OW 5899   3.998   5.490   3.895 -0.5221 -0.3482  0.1928
 1667SOL    HW1 5900   4.093   5.503   3.864  0.6232 -3.6584  1.8006
 1667SOL    HW2 5901   3.944   5.450   3.821 -0.5801  1.0961 -0.5774
 1668SOL     OW 5902   0.867   0.828   5.769 -0.3005  0.2462  0.2446
 1668SOL    HW1 5903   0.955   0.877   5.770 -0.5307  0.7173  1.9394
 1668SOL    HW2 5904   0.805   0.873   5.833 -0.7724 -1.8334  1.3119
 1669SOL     OW 5905   4.078   5.261   5.509  0.4730 -0.0438 -0.6124
 1669SOL    HW1 5906   4.017   5.188   5.481  1.0648 -0.3826 -1.0434
 1669SOL    HW2 5907   4.109   5.312   5.428 -1.7235  2.1784 -0.1884
 1670SOL     OW 5908   2.152   1.060   4.138 -0.3927 -0.1035 -0.2091
 1670SOL    HW1 5909   2.197   0.983   4.092 -0.0143  0.3223 -0.5640
 1670SOL    HW2 5910   2.120   1.125   4.070 -1.1447 -0.1784  0.0698
 1671SOL     OW 5911   5.775   6.966   2.829 -0.6046 -0.5654 -0.7221
 1671SOL    HW1 5912   5.801   7.038   2.764  0.6294  1.3369  1.7306
 1671SOL    HW2 5913   5.680   6.981   2.858 -0.5714 -0.3364 -0.7294
 1672SOL     OW 5914   3.100   0.455   6.350 -0.6465  0.3032 -0.0155
 1672SOL    HW1 5915   3.168   0.457   6.423 -1.2003 -1.4436  0.5797
 1672SOL    HW2 5916   3.032   0.526   6.366 -0.8750 -0.1917  1.2816
 1673SOL     OW 5917   4.043   6.260   4.931 -0.4606  0.0145  0.0464
 1673SOL    HW1 5918   4.060   6.167   4.966  0.8355  0.5535  0.9617
 1673SOL    HW2 5919   3.995   6.313   5.001 -0.1953  0.3458 -0.0212
 1674SOL     OW 5920   1.563   3.478   4.789  0.4643 -0.9706  0.9462
 1674SOL    HW1 5921   1.538   3.458   4.694  2.1110  0.5820  0.1062
 1674SOL    HW2 5922   1.663   3.476   4.798  0.3231 -1.5469  2.7812
 1675SOL     OW 5923   3.335   5.216   0.296  0.4570  0.3007 -0.1169
 1675SOL    HW1 5924   3.282   5.300   0.311 -0.6151 -0.5136  0.8701
 1675SOL    HW2 5925   3.354   5.205   0.198  2.9522  3.0414 -0.0663
 1676SOL     OW 5926   3.087   0.040   1.874 -0.1452 -0.5883  0.0440
 1676SOL    HW1 5927   3.033   0.108   1.824 -0.2845 -1.0967 -0.5027
 1676SOL    HW2 5928   3.119  -0.031   1.811  0.4187 -0.7673  0.5205
 1677SOL     OW 5929   6.564   5.969   6.425 -0.1505  0.1744  0.1627
 1677SOL    HW1 5930   6.576   5.909   6.346 -1.1333  0.9241 -0.5655
 1677SOL    HW2 5931   6.548   6.063   6.395 -0.1554  0.5485  1.2632
 1678SOL     OW 5932   3.034   2.290   5.365  0.5146  0.1097 -0.2253
 1678SOL    HW1 5933   3.102   2.326   5.301  0.2269  0.7763 -0.1553
 1678SOL    HW2 5934   2.943   2.319   5.337  0.1878 -1.2432 -0.6364
 1679SOL     OW 5935   6.670   1.515   4.831  0.6910  0.5587 -0.0355
 1679SOL    HW1 5936   6.632   1.424   4.846 -0.1361  0.8118 -0.5170
 1679SOL    HW2 5937   6.616   1.582   4.882 -0.2048  1.0541 -1.5675
 1680SOL     OW 5938   2.976   0.546   4.103  0.2888  0.0101  0.1976
 1680SOL    HW1 5939   2.979   0.641   4.072  0.5621  0.6707  2.0981
 1680SOL    HW2 5940   2.882   0.513   4.098  0.6569 -0.8475 -3.7247
 1681SOL     OW 5941   6.746   6.429   2.055 -0.8474 -0.4317 -0.0329
 1681SOL    HW1 5942   6.682   6.505   2.064 -0.5552 -0.3373  1.4238
 1681SOL    HW2 5943   6.696   6.342   2.062 -1.0294 -0.3687 -0.5447
 1682SOL     OW 5944   2.782   3.401   0.364 -0.7466 -0.1766  0.4127
 1682SOL    HW1 5945   2.756   3.315   0.409 -2.0687  0.1056  0.2480
 1682SOL    HW2 5946   2.800   3.383   0.267 -1.4427 -0.2199  0.2827
 1683SOL     OW 5947   2.399   5.322   6.204  0.0441 -0.6013  0.1636
 1683SOL    HW1 5948   2.440   5.381   6.274 -1.4567 -0.2631  0.7942
 1683SOL    HW2 5949   2.417   5.360   6.114  0.9469 -0.3718  0.4283
 1684SOL     OW 5950   3.589   5.341   0.588  0.0037 -0.4123  0.1150
 1684SOL    HW1 5951   3.683   5.317   0.610  0.2575 -1.3985 -1.8437
 1684SOL    HW2 5952   3.559   5.417   0.647  2.2226  0.3607  0.3374
 1685SOL     OW 5953   5.551   3.848   0.140 -0.2601  0.5243  0.0144
 1685SOL    HW1 5954   5.566   3.752   0.114  1.9326  1.1809 -1.4598
 1685SOL    HW2 5955   5.597   3.866   0.227 -0.8034  0.2209  0.3695
 1686SOL     OW 5956   3.862   0.122   6.459 -0.5366 -0.5283 -0.0246
 1686SOL    HW1 5957   3.949   0.124   6.508 -0.4472 -0.6449 -0.1772
 1686SOL    HW2 5958   3.875   0.161   6.367 -1.2267  1.9835  0.8653
 1687SOL     OW 5959   5.356   6.265   4.060  0.1217  0.2677  0.7510
 1687SOL    HW1 5960   5.389   6.328   4.131  0.0599  0.6078  0.4823
 1687SOL    HW2 5961   5.256   6.259   4.065 -0.0708  1.7135 -0.4475
 1688SOL     OW 5962   3.547   6.487   2.257  0.3282 -0.5520  0.0595
 1688SOL    HW1 5963   3.564   6.417   2.326 -0.8179 -0.8954  0.0226
 1688SOL    HW2 5964   3.457   6.527   2.272  0.8062  0.6458 -0.1622
 1689SOL     OW 5965   5.123   1.652   4.900 -0.0755  0.3340  0.2362
 1689SOL    HW1 5966   5.201   1.715   4.895 -0.3192  0.7301  1.3236
 1689SOL    HW2 5967   5.107   1.613   4.809 -0.9279  3.0454 -0.8685
 1690SOL     OW 5968   2.947   3.250   3.714  0.0174 -0.0002  0.2665
 1690SOL    HW1 5969   2.986   3.326   3.766  0.7907 -1.1684  1.4788
 1690SOL    HW2 5970   2.946   3.168   3.771 -0.9923 -0.8655 -0.9296
 1691SOL     OW 5971   3.086   6.828   2.045  0.2342  0.0697  0.2456
 1691SOL    HW1 5972   3.080   6.897   1.972  3.3865  1.1771  0.8529
 1691SOL    HW2 5973   3.091   6.874   2.133 -0.3020 -1.1141  0.9151
 1692SOL     OW 5974   4.873   1.053   0.510 -0.7202 -0.3768  0.3420
 1692SOL    HW1 5975   4.817   1.101   0.442  0.4382  1.9722  0.9516
 1692SOL    HW2 5976   4.921   0.978   0.465 -0.3085  0.8438 -1.3902
 1693SOL     OW 5977   6.104   0.917   4.910  0.0878  0.0098  0.0268
 1693SOL    HW1 5978   6.145   1.002   4.876  0.4381 -0.1732 -0.0072
 1693SOL    HW2 5979   6.102   0.849   4.837  3.3660 -1.3239  1.0413
 1694SOL     OW 5980   4.269   2.931   5.897 -0.5918 -0.2755  0.9318
 1694SOL    HW1 5981   4.340   2.883   5.949  0.5575  0.1416 -0.1870
 1694SOL    HW2 5982   4.265   2.893   5.804  1.2462  2.5266 -0.4157
 1695SOL     OW 5983   2.272   2.082   0.462  0.1460 -0.7070  0.6082
 1695SOL    HW1 5984   2.316   2.063   0.374 -0.7866  0.9008 -0.2577
 1695SOL    HW2 5985   2.248   2.179   0.466 -1.4673 -1.1217  1.8925
 1696SOL     OW 5986   2.131   1.193   3.425 -0.6057 -0.6115 -0.0141
 1696SOL    HW1 5987   2.212   1.154   3.468  0.2353 -0.8626 -1.7333
 1696SOL    HW2 5988   2.075   1.119   3.387 -0.0148 -0.2926 -1.5582
 1697SOL     OW 5989   3.387   1.445   5.408  0.2488  0.5297  0.6428
 1697SOL    HW1 5990   3.327   1.402   5.476  0.3468  1.5298  1.3804
 1697SOL    HW2 5991   3.482   1.438   5.439  0.5069 -0.6934 -0.3317
 1698SOL     OW 5992   5.409   4.581   1.649  0.3530  0.1898  0.2437
 1698SOL    HW1 5993   5.459   4.622   1.572  1.3342 -0.0932  0.7067
 1698SOL    HW2 5994   5.393   4.484   1.631 -0.1522  0.3090  0.0398
 1699SOL     OW 5995   0.973   4.143   1.953 -0.6966  0.0094  0.0009
 1699SOL    HW1 5996   0.917   4.212   1.998 -0.8735  0.4152 -0.8404
 1699SOL    HW2 5997   0.957   4.145   1.855  0.2379 -0.3681 -0.1702
 1700SOL     OW 5998   4.084   2.204   2.922 -0.3317 -0.0593 -0.1611
 1700SOL    HW1 5999   4.174   2.160   2.917  0.6052  1.3947  2.1879
 1700SOL    HW2 6000   4.013   2.135   2.907  1.0908 -2.3000  2.3893
 1701SOL     OW 6001   2.923   3.645   5.930 -0.0766  0.2042  0.1308
 1701SOL    HW1 6002   2.865   3.657   5.849  1.3766 -0.4812 -1.0723
 1701SOL    HW2 6003   3.018   3.664   5.905  0.2659  1.1425  2.0074
 1702SOL     OW 6004   5.202   5.683   6.090  0.0285  0.1647  0.8874
 1702SOL    HW1 6005   5.285   5.731   6.062 -1.9095  2.1012 -2.0177
 1702SOL    HW2 6006   5.127   5.748   6.097 -2.2097 -2.0730 -0.7954
 1703SOL     OW 6007   5.956   5.994   0.500  1.0056 -0.0577 -0.7387
 1703SOL    HW1 6008   5.959   5.952   0.409 -0.2725  1.7131 -1.6670
 1703SOL    HW2 6009   5.999   6.084   0.496 -0.0667  0.5138  0.1178
 1704SOL     OW 6010   1.461   4.334   1.858 -0.3336 -0.6800  0.2050
 1704SOL    HW1 6011   1.362   4.333   1.843 -0.4268 -0.6840  0.7891
 1704SOL    HW2 6012   1.481   4.382   1.944  0.0828 -1.6362  0.6584
 1705SOL     OW 6013   5.177   3.250   4.867 -0.6792 -0.2652  0.3944
 1705SOL    HW1 6014   5.123   3.169   4.890 -0.4372 -0.3997  0.4875
 1705SOL    HW2 6015   5.116   3.322   4.835 -1.1293  0.2371  2.3051
 1706SOL     OW 6016   3.021   3.916   5.000 -0.5282  0.4446 -0.3260
 1706SOL    HW1 6017   2.978   3.832   5.033  1.4296  0.0862  1.5351
 1706SOL    HW2 6018   3.119   3.900   4.985  0.1370  2.6557  1.2123
 1707SOL     OW 6019   0.491   6.761   3.310 -0.5962  0.1110  0.0753
 1707SOL    HW1 6020   0.514   6.857   3.326  0.0744 -0.4726  3.4225
 1707SOL    HW2 6021   0.560   6.719   3.251  0.3179  1.2056  0.3342
 1708SOL     OW 6022   3.712   2.888   2.550  0.3165  0.0258 -0.2625
 1708SOL    HW1 6023   3.724   2.966   2.611  1.6637 -1.8761  2.0826
 1708SOL    HW2 6024   3.793   2.879   2.492  0.9540 -0.5806  0.6904
 1709SOL     OW 6025   1.196   6.620   5.200  0.0172 -0.0271 -0.7246
 1709SOL    HW1 6026   1.150   6.639   5.287  1.0925 -2.1787  0.4065
 1709SOL    HW2 6027   1.132   6.633   5.125 -0.9912  1.7310  0.3626
 1710SOL     OW 6028   3.858   1.778   6.243 -0.2357 -0.0232 -0.3403
 1710SOL    HW1 6029   3.865   1.764   6.144 -2.1131  0.0842 -0.5132
 1710SOL    HW2 6030   3.826   1.694   6.287  0.0178  0.1094  0.1046
 1711SOL     OW 6031   7.008   3.456   0.986 -0.2679  0.1429  0.2950
 1711SOL    HW1 6032   6.918   3.495   0.967 -0.4749 -0.1147  0.7282
 1711SOL    HW2 6033   7.022   3.374   0.931  0.0901  0.7076 -0.4745
 1712SOL     OW 6034   5.090   3.675   1.523  0.3695 -0.0614 -0.5997
 1712SOL    HW1 6035   5.073   3.718   1.434 -2.5806 -2.1129 -1.1983
 1712SOL    HW2 6036   5.017   3.609   1.542  0.6299  0.5830  3.6030
 1713SOL     OW 6037   4.404   2.522   6.687  0.0975 -0.0482  0.2795
 1713SOL    HW1 6038   4.416   2.616   6.653  0.9826 -0.2731 -0.0663
 1713SOL    HW2 6039   4.493   2.479   6.695 -0.2698 -0.6926  0.9451
 1714SOL     OW 6040   0.360   6.853   1.157 -0.0779 -0.0803  0.2206
 1714SOL    HW1 6041   0.331   6.848   1.253 -0.5355  1.3035  0.1801
 1714SOL    HW2 6042   0.455   6.821   1.150  0.3093  0.7158  1.3309
 1715SOL     OW 6043   1.823   6.949   4.360 -0.3049 -0.0798  0.3988
 1715SOL    HW1 6044   1.726   6.971   4.358 -0.3014 -0.0355  0.7081
 1715SOL    HW2 6045   1.861   6.956   4.268 -1.1734 -2.6233 -0.2575
 1716SOL     OW 6046   4.964   0.742   0.282  0.1702  0.1493  0.5746
 1716SOL    HW1 6047   4.875   0.787   0.278  0.5029  0.8520  0.8187
 1716SOL    HW2 6048   4.956   0.656   0.332 -0.1079  0.8946  1.8667
 1717SOL     OW 6049   1.625   4.785   3.304  0.0680 -0.2061  0.0915
 1717SOL    HW1 6050   1.708   4.730   3.292 -0.8131 -1.9530  1.5180
 1717SOL    HW2 6051   1.548   4.739   3.260 -0.2452  1.2466 -0.9476
 1718SOL     OW 6052   4.294   5.463   3.461  0.2652 -0.1172 -0.5663
 1718SOL    HW1 6053   4.362   5.510   3.405  1.2855 -1.8282 -0.8311
 1718SOL    HW2 6054   4.208   5.514   3.459  1.4022  1.9011 -0.5266
 1719SOL     OW 6055   1.099   2.860   2.167 -0.2771  0.0615 -0.1999
 1719SOL    HW1 6056   1.108   2.785   2.101  0.2541 -0.5287  0.5290
 1719SOL    HW2 6057   1.002   2.876   2.185 -0.4504 -2.8685  2.2849
 1720SOL     OW 6058   0.392   2.714   1.721  0.0315  0.1501  0.1266
 1720SOL    HW1 6059   0.448   2.640   1.758  0.5940  0.3052 -0.3959
 1720SOL    HW2 6060   0.343   2.759   1.796 -1.7702 -1.9046  0.2742
 1721SOL     OW 6061   1.775   6.576   1.614 -0.4610  0.6396  0.0782
 1721SOL    HW1 6062   1.820   6.665   1.626  0.6324  0.1210 -0.0444
 1721SOL    HW2 6063   1.792   6.542   1.522 -1.2794  0.5198 -0.0297
 1722SOL     OW 6064   1.559   2.722   1.849  0.5995  0.2577 -0.0390
 1722SOL    HW1 6065   1.521   2.650   1.907  0.8653 -0.2681 -0.4974
 1722SOL    HW2 6066   1.625   2.681   1.786 -0.3221  0.6555 -1.3125
 1723SOL     OW 6067   4.730   3.367   5.355 -0.2872 -0.0493  0.0244
 1723SOL    HW1 6068   4.717   3.441   5.290  1.0838  1.6154  1.5392
 1723SOL    HW2 6069   4.824   3.334   5.350  0.2750  1.0859  2.0436
 1724SOL     OW 6070   4.690   4.910   0.081 -0.0088  0.3663 -0.2867
 1724SOL    HW1 6071   4.780   4.926   0.122 -0.2772  1.6599 -0.1606
 1724SOL    HW2 6072   4.626   4.878   0.151  0.2713 -0.3088 -0.3267
 1725SOL     OW 6073   0.516   3.016   2.126  0.1861 -0.4419 -0.0172
 1725SOL    HW1 6074   0.567   3.031   2.211  0.0725 -0.7704  0.1143
 1725SOL    HW2 6075   0.420   3.038   2.141  0.0833 -0.9432  0.0756
 1726SOL     OW 6076   2.542   6.693   1.603 -0.0548  0.3909  0.4967
 1726SOL    HW1 6077   2.522   6.610   1.553 -2.2747  1.0868  0.0907
 1726SOL    HW2 6078   2.502   6.687   1.695  2.7521 -0.3060  1.7892
 1727SOL     OW 6079   0.448   0.008   6.609  0.1796 -0.3467 -0.7189
 1727SOL    HW1 6080   0.469  -0.076   6.558 -0.6521  0.0559 -1.7683
 1727SOL    HW2 6081   0.513   0.080   6.582 -0.1222 -0.1962 -1.0469
 1728SOL     OW 6082   0.406   1.279   0.386 -0.4830  0.1299  0.2308
 1728SOL    HW1 6083   0.308   1.292   0.367 -0.5402 -0.7340 -0.1413
 1728SOL    HW2 6084   0.417   1.249   0.481 -0.5722  0.2695  0.2865
 1729SOL     OW 6085   1.337   4.585   3.419  0.1656 -0.0355 -0.0160
 1729SOL    HW1 6086   1.404   4.511   3.410  0.0266 -0.1034 -0.5197
 1729SOL    HW2 6087   1.283   4.591   3.335 -1.3214 -0.8258  0.8244
 1730SOL     OW 6088   6.757   3.105   5.584  0.2591 -0.1439  0.3783
 1730SOL    HW1 6089   6.752   3.023   5.526 -0.2832 -1.0324  1.6231
 1730SOL    HW2 6090   6.841   3.101   5.639  0.0351 -0.0607  0.7273
 1731SOL     OW 6091   5.115   6.955   3.939 -0.6472 -0.5414  0.3125
 1731SOL    HW1 6092   5.190   6.954   4.005  0.3153 -0.9973 -0.7559
 1731SOL    HW2 6093   5.038   7.007   3.977  0.5655  0.8104  1.0458
 1732SOL     OW 6094   2.326   1.613   2.360 -0.5195  0.5152  0.0148
 1732SOL    HW1 6095   2.313   1.706   2.325  1.7604  1.7838  2.1992
 1732SOL    HW2 6096   2.397   1.613   2.430 -1.6964 -2.5968  1.4223
 1733SOL     OW 6097   5.059   3.020   1.666 -0.2327  0.0413 -0.9221
 1733SOL    HW1 6098   5.005   2.940   1.692  0.5049 -0.5082 -1.0466
 1733SOL    HW2 6099   5.151   3.011   1.702 -0.2556  1.0550 -0.5638
 1734SOL     OW 6100   6.323   6.910   6.909 -0.0901  0.0289  0.2302
 1734SOL    HW1 6101   6.268   6.834   6.943 -0.1272 -0.3430 -0.6133
 1734SOL    HW2 6102   6.418   6.897   6.938  0.0390 -0.7195 -0.4718
 1735SOL     OW 6103   4.292   2.672   0.411 -0.4639  0.3027  0.1180
 1735SOL    HW1 6104   4.380   2.715   0.433  0.3062 -2.2964  2.8279
 1735SOL    HW2 6105   4.218   2.725   0.454  0.3422 -0.3074  2.4160
 1736SOL     OW 6106   6.392   2.298   5.778 -0.1609  0.0165 -0.6866
 1736SOL    HW1 6107   6.311   2.339   5.822  1.3733  1.0475  1.3613
 1736SOL    HW2 6108   6.437   2.237   5.843  1.2321  0.2098 -1.4447
 1737SOL     OW 6109   1.293   3.886   1.697  0.4324 -0.2399 -0.1758
 1737SOL    HW1 6110   1.237   3.895   1.780  2.8111 -1.1045  1.6552
 1737SOL    HW2 6111   1.387   3.913   1.717  1.2536 -1.1698 -2.4079
 1738SOL     OW 6112   5.116   4.921   1.763  0.2217 -0.1977 -0.2946
 1738SOL    HW1 6113   5.063   4.840   1.788  0.8733 -0.7003 -0.4975
 1738SOL    HW2 6114   5.214   4.899   1.765  0.3980  0.5192 -0.5746
 1739SOL     OW 6115   2.017   4.251   3.915  0.4062 -0.4768  0.2799
 1739SOL    HW1 6116   1.994   4.284   4.006  2.0439  0.9945  0.2320
 1739SOL    HW2 6117   2.052   4.158   3.920  0.9255 -0.2400  1.2280
 1740SOL     OW 6118   5.358   5.336   5.909 -0.2032  0.5279  0.4096
 1740SOL    HW1 6119   5.345   5.298   6.000  0.8100  0.1644  0.4081
 1740SOL    HW2 6120   5.353   5.263   5.841  1.0892  0.4720  0.3533
 1741SOL     OW 6121   6.791   1.021   3.309 -0.3985  0.1109  0.3782
 1741SOL    HW1 6122   6.718   0.958   3.333 -1.0678  0.0718 -1.5421
 1741SOL    HW2 6123   6.796   1.029   3.209 -0.2712  3.0267  0.5513
 1742SOL     OW 6124   2.224   1.336   2.959 -0.3989 -0.3165 -0.0650
 1742SOL    HW1 6125   2.248   1.407   2.893  0.6621 -1.7887 -1.3562
 1742SOL    HW2 6126   2.275   1.253   2.938 -3.3161 -2.2477 -0.0903
 1743SOL     OW 6127   5.765   6.670   0.214 -0.3664  0.6244 -0.0311
 1743SOL    HW1 6128   5.705   6.729   0.267 -1.7880  0.3604 -1.3004
 1743SOL    HW2 6129   5.747   6.574   0.236  0.6726  0.5838  0.6985
 1744SOL     OW 6130   0.390   6.933   0.093 -0.2760  0.8223  0.6262
 1744SOL    HW1 6131   0.481   6.961   0.123 -0.0648  0.1708  0.6103
 1744SOL    HW2 6132   0.332   7.014   0.081  1.1166  1.5552 -2.0636
 1745SOL     OW 6133   2.540   2.942   6.294 -0.5504  0.0997  0.1246
 1745SOL    HW1 6134   2.538   3.041   6.304  0.0942  0.0169  1.2267
 1745SOL    HW2 6135   2.548   2.918   6.197  1.0830  1.1737 -0.0443
 1746SOL     OW 6136   0.607   4.029   6.553 -0.1197 -0.0192 -0.4465
 1746SOL    HW1 6137   0.695   4.000   6.513 -0.5416  0.4084 -1.7241
 1746SOL    HW2 6138   0.556   3.949   6.583  0.3040 -0.3371 -0.5695
 1747SOL     OW 6139   3.872   1.917   1.841  0.4788  0.5552 -0.2856
 1747SOL    HW1 6140   3.849   1.950   1.750 -0.7353 -1.4604 -0.7618
 1747SOL    HW2 6141   3.800   1.857   1.875  1.0174  1.0554  1.9268
 1748SOL     OW 6142   4.171   5.072   2.578 -0.2146 -0.1417  0.2711
 1748SOL    HW1 6143   4.114   5.120   2.511  0.6578  0.2208 -0.2196
 1748SOL    HW2 6144   4.171   4.974   2.558  0.1187 -0.0247 -0.3277
 1749SOL     OW 6145   3.288   3.451   6.351 -0.8587  0.1863 -0.0544
 1749SOL    HW1 6146   3.304   3.372   6.410  0.6637  1.0694  0.7749
 1749SOL    HW2 6147   3.347   3.527   6.380  1.0863  0.2416 -3.6198
 1750SOL     OW 6148   0.334   5.206   2.773  0.1480 -0.0839 -0.1225
 1750SOL    HW1 6149   0.366   5.237   2.863  0.9772 -0.4809 -0.2738
 1750SOL    HW2 6150   0.262   5.139   2.785 -0.5580  0.7181  0.2272
 1751SOL     OW 6151   5.407   5.219   6.180 -0.2431 -0.0646  0.2580
 1751SOL    HW1 6152   5.330   5.187   6.237 -0.6501  2.1436  1.0249
 1751SOL    HW2 6153   5.493   5.191   6.222 -0.5781 -0.0206  0.9866
 1752SOL     OW 6154   2.905   3.129   5.654  0.2678 -0.6013 -0.5019
 1752SOL    HW1 6155   2.956   3.135   5.568 -0.3956  1.1110 -0.8253
 1752SOL    HW2 6156   2.884   3.033   5.674  3.1683 -1.3394 -0.5688
 1753SOL     OW 6157   4.175   6.080   1.163  0.5044 -0.2321  0.5990
 1753SOL    HW1 6158   4.159   6.052   1.258  1.0840  0.3871  0.8886
 1753SOL    HW2 6159   4.192   6.179   1.160  1.0594 -0.3400 -0.0768
 1754SOL     OW 6160   6.893   0.690   5.407  0.1672 -0.1355  0.1321
 1754SOL    HW1 6161   6.889   0.699   5.308  0.9868 -1.1282 -0.0107
 1754SOL    HW2 6162   6.981   0.725   5.440 -0.4518  1.0045  0.6238
 1755SOL     OW 6163   6.417   3.266   4.818 -0.2742 -0.0171 -0.0928
 1755SOL    HW1 6164   6.515   3.280   4.826 -0.3910  0.6024  0.3190
 1755SOL    HW2 6165   6.398   3.168   4.808  0.2008 -0.5555  3.0647
 1756SOL     OW 6166   0.723   1.139   1.231  0.0197  0.0047 -0.1560
 1756SOL    HW1 6167   0.701   1.127   1.134  1.1969  0.1139 -0.4501
 1756SOL    HW2 6168   0.722   1.236   1.253  3.8476  0.4253 -1.1390
 1757SOL     OW 6169   0.943   4.647   4.894 -0.1473 -0.1880 -0.9224
 1757SOL    HW1 6170   0.885   4.641   4.975  1.7594  0.9173  0.6030
 1757SOL    HW2 6171   1.008   4.571   4.894  1.2947  0.9897 -0.1698
 1758SOL     OW 6172   5.107   0.177   5.228 -0.5880 -1.0349 -0.2186
 1758SOL    HW1 6173   5.060   0.114   5.166  0.3841  1.6386 -4.0601
 1758SOL    HW2 6174   5.202   0.148   5.240 -0.7753 -1.5501  0.0506
 1759SOL     OW 6175   6.210   5.309   6.272 -0.0196 -0.1599 -0.6045
 1759SOL    HW1 6176   6.210   5.209   6.285  0.9016 -0.2030 -0.8432
 1759SOL    HW2 6177   6.149   5.333   6.197 -2.3834 -0.2737  1.1761
 1760SOL     OW 6178   4.315   5.939   6.102 -0.5249 -0.0380 -0.0302
 1760SOL    HW1 6179   4.294   6.036   6.093  0.3762  0.2410  0.7812
 1760SOL    HW2 6180   4.414   5.926   6.107 -0.6233 -1.0304 -0.4674
 1761SOL     OW 6181   5.680   3.702   6.349 -0.4126 -0.3405  0.3523
 1761SOL    HW1 6182   5.629   3.713   6.263 -2.1501 -1.3062  1.1978
 1761SOL    HW2 6183   5.680   3.788   6.399  1.8744  0.6617 -1.2046
 1762SOL     OW 6184   5.350   5.671   5.012  0.5008  0.4770 -0.8010
 1762SOL    HW1 6185   5.382   5.673   5.107 -0.0899 -0.1406 -0.5761
 1762SOL    HW2 6186   5.293   5.752   4.994  1.3548  1.0661 -0.9118
 1763SOL     OW 6187   4.005   1.412   6.533 -0.6264  0.1752 -0.1043
 1763SOL    HW1 6188   4.079   1.472   6.564 -0.3133  0.1919 -0.8480
 1763SOL    HW2 6189   3.947   1.462   6.469  0.9153 -0.8847 -2.4991
 1764SOL     OW 6190   5.916   2.114   2.293 -0.5142 -0.6144 -0.1220
 1764SOL    HW1 6191   5.941   2.037   2.351 -1.4516 -0.6921  0.1962
 1764SOL    HW2 6192   5.817   2.126   2.295 -0.3660  0.7467  0.0396
 1765SOL     OW 6193   1.454   6.412   4.212 -0.0462  0.4946 -0.4868
 1765SOL    HW1 6194   1.536   6.446   4.259  0.3136 -1.7449  0.6228
 1765SOL    HW2 6195   1.377   6.471   4.233  0.7878  1.3245  0.3593
 1766SOL     OW 6196   6.568   3.514   4.002  0.0949  0.0527  0.3987
 1766SOL    HW1 6197   6.536   3.533   3.910  0.2485 -1.5056  0.0029
 1766SOL    HW2 6198   6.554   3.595   4.059 -0.3830  0.8980 -0.8723
 1767SOL     OW 6199   6.804   3.624   0.404  0.0156 -0.0160  0.1553
 1767SOL    HW1 6200   6.897   3.592   0.384 -0.3299 -1.7803  1.1604
 1767SOL    HW2 6201   6.738   3.553   0.377 -0.8771  0.2574  1.5192
 1768SOL     OW 6202   4.661   5.390   6.487 -0.7243  0.5232 -0.1413
 1768SOL    HW1 6203   4.754   5.352   6.493 -1.1705 -0.6600 -0.5257
 1768SOL    HW2 6204   4.598   5.319   6.456 -2.0445  0.8708  1.6308
 1769SOL     OW 6205   3.005   5.672   4.483 -0.1968 -0.0847 -0.2696
 1769SOL    HW1 6206   3.090   5.720   4.505  0.0783 -0.3637 -0.7140
 1769SOL    HW2 6207   2.992   5.597   4.549 -0.3132  0.2176  0.0523
 1770SOL     OW 6208   3.577   3.931   6.713 -0.0598  0.2246  0.1642
 1770SOL    HW1 6209   3.674   3.954   6.705 -0.3060  1.2679 -0.0235
 1770SOL    HW2 6210   3.523   3.996   6.659 -1.0245  1.0779  2.0286
 1771SOL     OW 6211   3.679   0.379   6.814 -0.1228  0.3232 -0.4191
 1771SOL    HW1 6212   3.688   0.470   6.855  3.4486 -0.7899  1.7970
 1771SOL    HW2 6213   3.744   0.371   6.739 -0.5035 -0.3442 -0.6781
 1772SOL     OW 6214   5.913   1.608   1.721 -0.7262  0.2590  0.0244
 1772SOL    HW1 6215   5.986   1.646   1.664  0.0287 -1.4056 -0.1744
 1772SOL    HW2 6216   5.953   1.557   1.797 -1.7217  1.1123  1.1405
 1773SOL     OW 6217   1.265   5.310   6.604  0.3343  0.2623  0.4756
 1773SOL    HW1 6218   1.314   5.397   6.595  1.0432 -0.0467  1.1812
 1773SOL    HW2 6219   1.201   5.315   6.680  1.8730 -0.4707  1.8888
 1774SOL     OW 6220   4.252   0.846   5.176  0.1632  0.5897  0.4665
 1774SOL    HW1 6221   4.239   0.943   5.195 -1.4392  0.6090 -0.5699
 1774SOL    HW2 6222   4.243   0.794   5.261  2.9362  1.4484  1.3934
 1775SOL     OW 6223   6.122   1.737   6.070  0.3838  0.2436  0.2808
 1775SOL    HW1 6224   6.025   1.762   6.067  0.4878  0.6155 -0.0587
 1775SOL    HW2 6225   6.136   1.668   6.141  0.2870  2.0032  2.0938
 1776SOL     OW 6226   5.926   2.925   0.975 -0.1645 -0.0478  0.2595
 1776SOL    HW1 6227   5.892   2.868   0.900  0.6758  2.0732 -1.8537
 1776SOL    HW2 6228   5.857   2.929   1.048 -1.4993 -1.2911 -0.8820
 1777SOL     OW 6229   2.871   6.983   1.660  0.1351 -0.4122  0.6792
 1777SOL    HW1 6230   2.928   7.024   1.589  0.4855  0.3567  1.3837
 1777SOL    HW2 6231   2.829   7.056   1.715  1.8623 -0.9347  2.8310
 1778SOL     OW 6232   0.278   3.676   5.543 -0.6337 -0.0047  0.4889
 1778SOL    HW1 6233   0.191   3.627   5.544 -0.1508 -0.8746  0.6558
 1778SOL    HW2 6234   0.302   3.705   5.635 -0.0323 -1.0704  0.6794
 1779SOL     OW 6235   4.017   0.139   3.238  0.1434 -0.1981  0.6791
 1779SOL    HW1 6236   3.958   0.060   3.223  0.1740 -0.2416  0.7863
 1779SOL    HW2 6237   4.086   0.144   3.166 -1.1848  0.9549 -0.5514
 1780SOL     OW 6238   1.031   0.947   3.392 -0.3857 -0.3103 -0.8276
 1780SOL    HW1 6239   0.933   0.956   3.371 -0.7604 -0.6640  0.6250
 1780SOL    HW2 6240   1.056   0.850   3.391 -0.4247 -0.3462  0.2744
 1781SOL     OW 6241   3.583   5.178   6.879 -0.4916  0.0315 -0.0747
 1781SOL    HW1 6242   3.658   5.122   6.842  0.5605 -0.1277  2.1160
 1781SOL    HW2 6243   3.517   5.197   6.806  1.4339 -0.1832 -2.0084
 1782SOL     OW 6244   2.017   5.801   2.812 -0.2295 -0.1487 -0.2971
 1782SOL    HW1 6245   1.982   5.793   2.905 -1.5527  0.0405 -0.7690
 1782SOL    HW2 6246   2.059   5.891   2.800 -2.2246  0.7922 -0.5721
 1783SOL     OW 6247   3.223   0.497   4.756  0.0548 -0.3733 -0.0629
 1783SOL    HW1 6248   3.123   0.506   4.761  0.1370  0.0117  2.3552
 1783SOL    HW2 6249   3.265   0.562   4.820  1.7852 -1.6180  0.1319
 1784SOL     OW 6250   3.979   5.866   3.731  0.3173 -0.0985 -0.4995
 1784SOL    HW1 6251   4.051   5.797   3.728  0.4726  0.0520 -0.2039
 1784SOL    HW2 6252   3.891   5.823   3.711  0.2744 -0.5725  0.6778
 1785SOL     OW 6253   6.991   4.102   2.277  0.4704 -0.3046 -0.2598
 1785SOL    HW1 6254   6.968   4.105   2.180 -1.7169 -2.2453  0.0974
 1785SOL    HW2 6255   6.911   4.131   2.331  1.2440 -0.4144  0.9801
 1786SOL     OW 6256   4.198   3.134   6.250  0.3103  0.3939 -0.3089
 1786SOL    HW1 6257   4.240   3.215   6.290 -0.8124  2.3474 -2.8232
 1786SOL    HW2 6258   4.099   3.138   6.263  0.1242  0.0967 -1.5065
 1787SOL     OW 6259   4.633   5.574   4.100  0.0242  0.4591  1.1222
 1787SOL    HW1 6260   4.568   5.622   4.040 -0.4912 -0.7610  0.6832
 1787SOL    HW2 6261   4.601   5.578   4.194 -1.8435 -1.9202  0.6577
 1788SOL     OW 6262   0.790   4.364   2.032 -0.0589 -0.0292  0.1862
 1788SOL    HW1 6263   0.752   4.457   2.030  0.4236  0.1642 -0.6972
 1788SOL    HW2 6264   0.762   4.318   2.117 -1.3149  0.4841  0.0712
 1789SOL     OW 6265   3.583   0.214   3.344 -0.2926  0.0792 -0.2720
 1789SOL    HW1 6266   3.570   0.116   3.330 -0.0333  0.1338 -0.9224
 1789SOL    HW2 6267   3.647   0.249   3.276 -0.0071  0.6085  0.2569
 1790SOL     OW 6268   1.270   4.223   6.660  0.1178  0.6642 -0.0417
 1790SOL    HW1 6269   1.337   4.164   6.706 -0.2246  0.7567  0.5919
 1790SOL    HW2 6270   1.314   4.271   6.585  0.5012 -0.0966 -0.3135
 1791SOL     OW 6271   6.513   4.776   5.623 -0.9635 -0.6137  0.4187
 1791SOL    HW1 6272   6.584   4.846   5.630 -0.4544 -1.0739 -0.0411
 1791SOL    HW2 6273   6.429   4.809   5.666 -0.7295  0.2776  0.2082
 1792SOL     OW 6274   6.818   4.857   6.512 -0.2912  0.5240  0.3590
 1792SOL    HW1 6275   6.884   4.923   6.476  0.5891  0.1538  1.2239
 1792SOL    HW2 6276   6.803   4.876   6.609 -2.8695  1.7245 -0.2080
 1793SOL     OW 6277   6.660   1.430   1.981  0.3448 -0.0763 -1.1081
 1793SOL    HW1 6278   6.609   1.504   1.938  2.9650  1.3448 -1.9710
 1793SOL    HW2 6279   6.611   1.344   1.967 -1.6573  1.1363 -2.0647
 1794SOL     OW 6280   3.259   0.078   2.764 -1.1341  0.5740 -0.1670
 1794SOL    HW1 6281   3.223   0.001   2.816 -1.0004  1.8336  1.8995
 1794SOL    HW2 6282   3.354   0.094   2.790 -0.3374 -0.0876 -2.4517
 1795SOL     OW 6283   3.512   6.538   2.988  0.1476  0.3151 -0.4058
 1795SOL    HW1 6284   3.442   6.515   3.056 -0.5168  0.9585 -0.8545
 1795SOL    HW2 6285   3.583   6.467   2.988  0.8830  0.9813  1.8858
 1796SOL     OW 6286   3.748   3.235   5.143 -0.1453  0.2813  0.2492
 1796SOL    HW1 6287   3.682   3.249   5.070  0.1972  0.0568 -0.1070
 1796SOL    HW2 6288   3.839   3.261   5.111  0.0274  0.0466  0.5472
 1797SOL     OW 6289   4.301   2.278   1.267  0.1400 -0.4525 -0.6005
 1797SOL    HW1 6290   4.362   2.348   1.228 -0.4032 -0.6138 -1.7889
 1797SOL    HW2 6291   4.234   2.321   1.327  1.4554 -0.2796  0.8226
 1798SOL     OW 6292   5.266   1.207   4.158  0.3677  0.4114  0.1698
 1798SOL    HW1 6293   5.212   1.125   4.175  1.6086 -0.9165 -1.8555
 1798SOL    HW2 6294   5.213   1.272   4.105  0.1917 -0.1453 -0.3383
 1799SOL     OW 6295   2.232   4.111   3.530 -0.4083 -0.3737  0.2015
 1799SOL    HW1 6296   2.219   4.040   3.460  0.7429 -1.1412  0.7521
 1799SOL    HW2 6297   2.268   4.070   3.613  1.6159  1.0419  0.0823
 1800SOL     OW 6298   2.022   0.808   3.050  0.3159 -0.3386 -0.0381
 1800SOL    HW1 6299   1.962   0.729   3.037 -0.2610 -0.0595  0.8220
 1800SOL    HW2 6300   2.116   0.783   3.027 -0.3141 -0.3871 -2.8514
 1801SOL     OW 6301   6.044   5.646   0.423  0.3609 -0.7589 -0.2484
 1801SOL    HW1 6302   5.982   5.597   0.484  0.4399 -0.5981 -0.0375
 1801SOL    HW2 6303   5.993   5.715   0.372 -0.5599 -3.4475 -3.3266
 1802SOL     OW 6304   1.562   7.012   1.070  0.4374 -0.2098 -0.4362
 1802SOL    HW1 6305   1.555   7.074   1.148  2.7527 -2.9763  2.2584
 1802SOL    HW2 6306   1.481   6.952   1.069  0.4517 -0.2423 -0.0249
 1803SOL     OW 6307   6.415   3.266   3.826  0.1393 -0.5045 -0.1655
 1803SOL    HW1 6308   6.381   3.174   3.805 -1.4297  0.2133 -0.9642
 1803SOL    HW2 6309   6.467   3.264   3.911 -1.2365 -1.8457  0.6921
 1804SOL     OW 6310   1.459   1.777   1.596 -0.0097 -0.4848  0.2225
 1804SOL    HW1 6311   1.395   1.844   1.635 -0.2677 -1.2547  1.1782
 1804SOL    HW2 6312   1.443   1.769   1.498 -3.5481 -2.7838  0.7663
 1805SOL     OW 6313   3.987   0.913   1.546 -0.6556 -0.0228  0.0851
 1805SOL    HW1 6314   4.014   0.821   1.519  1.0031  0.4446  0.0476
 1805SOL    HW2 6315   3.892   0.912   1.578 -0.4768 -1.8528  0.6676
 1806SOL     OW 6316   6.239   6.693   4.083 -0.1112  0.0695  0.1737
 1806SOL    HW1 6317   6.239   6.709   4.182 -0.3771  1.1242  0.0120
 1806SOL    HW2 6318   6.152   6.652   4.056  0.0219 -0.3675  0.3931
 1807SOL     OW 6319   2.245   0.707   5.417  0.0747  0.0021  0.1501
 1807SOL    HW1 6320   2.177   0.673   5.352  0.0565 -0.8673  0.6211
 1807SOL    HW2 6321   2.236   0.658   5.504  1.1309  0.0684  0.3049
 1808SOL     OW 6322   5.818   5.559   3.507 -0.2608 -0.4036  0.2420
 1808SOL    HW1 6323   5.916   5.559   3.486 -0.6744 -0.5325 -1.8997
 1808SOL    HW2 6324   5.780   5.468   3.489 -1.2366  0.3076 -1.4978
 1809SOL     OW 6325   0.748   4.982   6.580 -0.4069 -0.1638  0.1551
 1809SOL    HW1 6326   0.724   4.898   6.532 -0.4306  0.2048 -0.4822
 1809SOL    HW2 6327   0.670   5.045   6.578  0.5901  1.1055 -2.0623
 1810SOL     OW 6328   6.695   0.087   4.059 -0.1748  0.2605 -0.1440
 1810SOL    HW1 6329   6.673   0.030   4.138  0.2763  1.9527  1.2501
 1810SOL    HW2 6330   6.794   0.088   4.045 -0.2184  0.3579 -0.4557
 1811SOL     OW 6331   1.805   3.558   1.846 -0.6119 -0.5110 -0.2792
 1811SOL    HW1 6332   1.857   3.492   1.900 -3.0109 -1.3466  1.1578
 1811SOL    HW2 6333   1.711   3.564   1.881 -1.1050  2.0593 -1.7657
 1812SOL     OW 6334   4.796   3.395   5.642 -0.3086 -0.2847  0.0933
 1812SOL    HW1 6335   4.719   3.422   5.585  1.1468  0.8228 -1.4517
 1812SOL    HW2 6336   4.768   3.394   5.738 -1.6793  2.2529 -0.2073
 1813SOL     OW 6337   0.446   1.476   1.335  0.3413 -0.1661  0.1913
 1813SOL    HW1 6338   0.414   1.548   1.396 -0.2638 -0.0793 -0.2134
 1813SOL    HW2 6339   0.419   1.497   1.241  1.9145  0.0942 -0.2417
 1814SOL     OW 6340   6.883   4.380   1.965 -0.0157  0.0015 -0.2304
 1814SOL    HW1 6341   6.965   4.437   1.969  0.7359 -1.1246  1.4072
 1814SOL    HW2 6342   6.910   4.285   1.947 -1.0040 -0.2934 -0.1995
 1815SOL     OW 6343   1.317   4.052   3.703  0.5946  0.0500  0.1872
 1815SOL    HW1 6344   1.346   3.958   3.689 -1.3379 -0.7007  0.9758
 1815SOL    HW2 6345   1.223   4.063   3.672  0.2258  1.2858  1.6369
 1816SOL     OW 6346   1.807   1.043   6.633  0.2606  0.1349 -0.4008
 1816SOL    HW1 6347   1.867   0.970   6.601 -0.8483 -0.4276 -1.2572
 1816SOL    HW2 6348   1.860   1.128   6.639  1.3179 -0.4968 -0.3899
 1817SOL     OW 6349   6.083   6.988   3.230  0.4082  0.5752  0.5123
 1817SOL    HW1 6350   6.063   6.904   3.281 -0.5232  0.6979  0.3837
 1817SOL    HW2 6351   6.144   7.046   3.284  0.6618  0.0296  0.8188
 1818SOL     OW 6352   2.241   4.210   4.231 -0.3198 -0.2615  0.1185
 1818SOL    HW1 6353   2.180   4.131   4.230  1.7224 -1.8863 -0.0035
 1818SOL    HW2 6354   2.266   4.232   4.325  0.7485 -1.0834  0.0360
 1819SOL     OW 6355   1.680   3.791   3.409  0.3024 -0.1198  0.0448
 1819SOL    HW1 6356   1.591   3.835   3.400  1.4929  2.2808 -0.7536
 1819SOL    HW2 6357   1.672   3.711   3.468 -2.0493  0.9564  1.2979
 1820SOL     OW 6358   6.402   2.739   4.348 -0.1799  0.5354 -0.2284
 1820SOL    HW1 6359   6.441   2.662   4.297 -0.2706  0.3654 -0.0440
 1820SOL    HW2 6360   6.349   2.797   4.286  0.2125  0.6676 -0.4463
 1821SOL     OW 6361   5.524   2.861   3.024 -0.6025  0.0806  0.4750
 1821SOL    HW1 6362   5.556   2.819   3.109 -0.3407 -0.9640 -0.1214
 1821SOL    HW2 6363   5.424   2.857   3.021 -0.5549 -1.1346  0.1294
 1822SOL     OW 6364   6.224   2.812   6.915 -0.2078  0.3643  0.3464
 1822SOL    HW1 6365   6.256   2.857   6.998 -0.1446  1.3996 -0.2180
 1822SOL    HW2 6366   6.228   2.877   6.838  1.2606 -1.0026 -0.8133
 1823SOL     OW 6367   6.181   1.462   3.577 -0.4796 -0.0176 -0.4402
 1823SOL    HW1 6368   6.168   1.363   3.585 -1.4483  0.2048  1.4048
 1823SOL    HW2 6369   6.277   1.485   3.596 -0.4468 -0.5435  0.0551
 1824SOL     OW 6370   2.065   1.438   4.168 -0.0674 -0.3277  0.5293
 1824SOL    HW1 6371   2.106   1.409   4.082  1.0966  1.4278  0.4573
 1824SOL    HW2 6372   2.123   1.411   4.244  0.3892  0.6526  0.5446
 1825SOL     OW 6373   2.122   6.699   6.848  0.1841  0.2795 -0.4323
 1825SOL    HW1 6374   2.073   6.721   6.932 -0.4008 -0.7862 -0.4822
 1825SOL    HW2 6375   2.136   6.600   6.841  2.4025  0.5334 -0.4060
 1826SOL     OW 6376   2.641   2.690   5.363 -0.3826 -0.3407  0.1654
 1826SOL    HW1 6377   2.599   2.683   5.273 -0.0406  0.2412 -0.0417
 1826SOL    HW2 6378   2.600   2.622   5.424 -0.1223 -1.2124 -0.6131
 1827SOL     OW 6379   3.390   4.431   0.224  0.3211  0.5098 -0.6600
 1827SOL    HW1 6380   3.430   4.342   0.203 -0.5511  0.3914 -2.0128
 1827SOL    HW2 6381   3.355   4.431   0.317  1.5943 -0.0658 -0.1607
 1828SOL     OW 6382   5.211   6.260   2.730  0.0291 -0.3355  0.3198
 1828SOL    HW1 6383   5.265   6.305   2.659 -0.8614 -0.1942 -0.2803
 1828SOL    HW2 6384   5.268   6.247   2.812  2.0898 -3.4164 -1.4081
 1829SOL     OW 6385   1.548   2.724   2.267  0.5919 -0.7208 -0.0474
 1829SOL    HW1 6386   1.462   2.775   2.274  0.1444 -1.4667 -0.1118
 1829SOL    HW2 6387   1.622   2.780   2.305  0.2195  0.2477 -0.6906
 1830SOL     OW 6388   4.697   2.415   6.949 -0.1064  0.3999  0.2122
 1830SOL    HW1 6389   4.636   2.359   7.005  2.2708 -1.2738  1.3263
 1830SOL    HW2 6390   4.678   2.398   6.852 -0.2707 -1.4510  0.5303
 1831SOL     OW 6391   2.880   4.849   5.218  0.3608 -0.1589 -0.0310
 1831SOL    HW1 6392   2.846   4.765   5.175  2.9878 -1.4440  0.1870
 1831SOL    HW2 6393   2.968   4.874   5.176 -0.1173  2.2374  0.2675
 1832SOL     OW 6394   5.229   5.003   6.606 -0.3672 -0.1065 -0.6000
 1832SOL    HW1 6395   5.268   5.026   6.695 -0.2318 -0.2542 -0.6207
 1832SOL    HW2 6396   5.262   4.913   6.578 -0.4370 -0.0743 -0.7836
 1833SOL     OW 6397   2.045   2.321   3.921 -0.2215 -0.1374  0.0575
 1833SOL    HW1 6398   2.100   2.249   3.963 -0.5516  0.3819  1.4246
 1833SOL    HW2 6399   1.955   2.285   3.898 -0.1547 -0.3330  0.1005
 1834SOL     OW 6400   6.525   6.441   3.044  0.2921 -0.3866  0.2807
 1834SOL    HW1 6401   6.509   6.397   2.956  0.0818 -0.2283  0.2402
 1834SOL    HW2 6402   6.439   6.478   3.080  0.4461 -0.1025  0.3636
 1835SOL     OW 6403   3.261   1.716   4.068  0.2059 -0.0239 -0.6029
 1835SOL    HW1 6404   3.274   1.712   3.969  0.4598 -0.4340 -0.5528
 1835SOL    HW2 6405   3.163   1.717   4.089  0.1043 -2.0577 -0.7814
 1836SOL     OW 6406   0.597   1.112   2.334  0.4834 -0.7499 -0.5075
 1836SOL    HW1 6407   0.554   1.120   2.424 -1.0050  1.1569 -1.3326
 1836SOL    HW2 6408   0.634   1.020   2.323 -0.4576 -1.4261  1.5368
 1837SOL     OW 6409   6.397   2.339   6.439 -0.5824 -0.5675  0.1778
 1837SOL    HW1 6410   6.429   2.244   6.430  0.1593 -0.5575  2.2507
 1837SOL    HW2 6411   6.476   2.400   6.439 -0.9589 -0.0805  0.3030
 1838SOL     OW 6412   3.779   2.144   0.876 -0.3340 -0.0697  0.2331
 1838SOL    HW1 6413   3.788   2.235   0.916  1.2902 -0.2439  0.3375
 1838SOL    HW2 6414   3.686   2.111   0.890 -0.0572  0.1188  3.4582
 1839SOL     OW 6415   4.038   0.204   2.807  0.7065 -0.4075 -0.3730
 1839SOL    HW1 6416   4.094   0.155   2.874  0.0958  1.3079  1.4880
 1839SOL    HW2 6417   4.097   0.255   2.745  1.2932 -2.3176 -1.4826
 1840SOL     OW 6418   0.719   0.694   3.742  0.0965 -1.1110 -0.3888
 1840SOL    HW1 6419   0.807   0.652   3.760  0.1057 -0.5264  1.1574
 1840SOL    HW2 6420   0.650   0.653   3.802 -0.1427  0.1430  0.2343
 1841SOL     OW 6421   2.574   2.032   4.819 -0.7196  0.1083 -0.0323
 1841SOL    HW1 6422   2.538   2.100   4.883  0.6148 -0.8995  1.8873
 1841SOL    HW2 6423   2.573   1.942   4.862 -0.2551 -0.7119 -1.6550
 1842SOL     OW 6424   4.824   3.691   5.765 -0.2314 -0.4365 -0.9710
 1842SOL    HW1 6425   4.828   3.592   5.782 -0.7330 -0.4794 -1.0852
 1842SOL    HW2 6426   4.826   3.740   5.852  0.4707 -0.5271 -0.9320
 1843SOL     OW 6427   0.942   6.205   6.364  0.1121  0.4950 -0.1484
 1843SOL    HW1 6428   0.978   6.217   6.271 -0.7017 -1.0009 -0.7011
 1843SOL    HW2 6429   0.848   6.170   6.359  0.6720 -1.3821  1.1870
 1844SOL     OW 6430   4.847   2.650   4.467 -0.1422 -0.0114 -0.4352
 1844SOL    HW1 6431   4.882   2.738   4.501 -2.0181  0.7667 -0.3882
 1844SOL    HW2 6432   4.780   2.614   4.532  0.2496 -1.2342 -0.7001
 1845SOL     OW 6433   5.489   6.386   5.358 -0.6670 -0.0997  0.1497
 1845SOL    HW1 6434   5.550   6.459   5.328  0.1099  0.0045  1.8785
 1845SOL    HW2 6435   5.400   6.397   5.314 -0.2278  1.2360 -0.4550
 1846SOL     OW 6436   4.821   4.059   2.979  0.3240  0.0295 -0.7512
 1846SOL    HW1 6437   4.813   3.983   3.042 -0.6639  0.6977 -0.0386
 1846SOL    HW2 6438   4.834   4.144   3.030 -2.0210  0.7945 -1.3066
 1847SOL     OW 6439   3.132   2.739   1.571  0.5997  0.4559 -0.1410
 1847SOL    HW1 6440   3.136   2.830   1.531  0.8437  1.1862  1.4954
 1847SOL    HW2 6441   3.039   2.720   1.602  0.7501  0.5336  0.3658
 1848SOL     OW 6442   6.352   5.750   4.137 -0.1191 -0.2515 -0.2749
 1848SOL    HW1 6443   6.317   5.694   4.212 -1.0245  0.5026 -0.1230
 1848SOL    HW2 6444   6.367   5.692   4.057  0.3922 -0.9745  0.3219
 1849SOL     OW 6445   0.368   4.079   6.355 -0.8313  0.0804  0.1414
 1849SOL    HW1 6446   0.387   4.133   6.273 -1.2102  1.0610  0.6843
 1849SOL    HW2 6447   0.446   4.085   6.417 -0.3647 -1.0062 -0.2980
 1850SOL     OW 6448   1.182   3.522   6.114  0.2595  0.2633 -0.4365
 1850SOL    HW1 6449   1.268   3.552   6.156  0.8446 -0.3933 -1.1167
 1850SOL    HW2 6450   1.111   3.514   6.184  0.5040  1.6732 -0.0082
 1851SOL     OW 6451   3.532   0.796   3.275  0.0320 -0.1733 -0.0133
 1851SOL    HW1 6452   3.526   0.794   3.375  1.9421  0.1074  0.1411
 1851SOL    HW2 6453   3.539   0.702   3.240 -0.9543 -0.2879  0.0823
 1852SOL     OW 6454   0.546   6.456   1.472  0.0046 -0.6762 -0.5882
 1852SOL    HW1 6455   0.542   6.505   1.385  2.1368  0.6988  0.0268
 1852SOL    HW2 6456   0.477   6.494   1.535  1.2444  1.2233 -0.3142
 1853SOL     OW 6457   0.681   0.071   4.948 -0.0077 -0.8470 -0.6544
 1853SOL    HW1 6458   0.705   0.137   4.877 -0.5646 -0.0218 -0.0880
 1853SOL    HW2 6459   0.756   0.005   4.958  0.7436 -0.0573 -0.9337
 1854SOL     OW 6460   4.308   5.783   1.751 -0.3705 -0.0582  0.8352
 1854SOL    HW1 6461   4.220   5.830   1.745 -1.5942 -1.9692  2.4721
 1854SOL    HW2 6462   4.292   5.684   1.748  1.7567 -0.4389  1.1123
 1855SOL     OW 6463   5.664   6.940   5.363  0.7414  0.1853 -0.3891
 1855SOL    HW1 6464   5.707   7.029   5.346  1.3842 -0.2492 -1.1196
 1855SOL    HW2 6465   5.726   6.867   5.332 -0.7128 -0.4639 -1.9316
 1856SOL     OW 6466   4.923   4.431   4.230 -0.0008 -0.4075 -0.0521
 1856SOL    HW1 6467   4.846   4.367   4.224 -0.8313  0.5565  0.2031
 1856SOL    HW2 6468   5.007   4.379   4.247 -0.6472 -1.4357  0.1210
 1857SOL     OW 6469   6.988   1.311   3.484  0.2772 -0.2742 -0.3755
 1857SOL    HW1 6470   7.079   1.350   3.468  0.8282 -1.4179 -0.1551
 1857SOL    HW2 6471   6.995   1.212   3.488 -0.9743 -0.3712 -0.2075
 1858SOL     OW 6472   2.007   3.662   5.002 -0.0660 -0.1080 -0.3689
 1858SOL    HW1 6473   2.079   3.716   5.045  0.8519  0.1592 -2.1360
 1858SOL    HW2 6474   1.918   3.686   5.042  0.6793  0.4647  0.9854
 1859SOL     OW 6475   3.965   3.794   2.572 -0.7153 -0.3234  0.3196
 1859SOL    HW1 6476   3.973   3.820   2.476 -0.5554 -0.4112  0.3088
 1859SOL    HW2 6477   3.987   3.697   2.583 -2.4198 -0.7575  0.1899
 1860SOL     OW 6478   3.598   5.273   3.205 -0.1945  0.2689  0.4487
 1860SOL    HW1 6479   3.499   5.265   3.190  0.0587 -3.0319 -0.0702
 1860SOL    HW2 6480   3.620   5.242   3.297  0.4926 -0.5293  0.0263
 1861SOL     OW 6481   3.112   2.745   5.790 -0.0957 -0.4186 -0.1432
 1861SOL    HW1 6482   3.097   2.649   5.765 -0.3097 -0.4414  0.0641
 1861SOL    HW2 6483   3.196   2.778   5.746 -0.2798 -0.5558 -0.6116
 1862SOL     OW 6484   6.990   5.814   0.573  0.0151  0.5791  0.1060
 1862SOL    HW1 6485   7.028   5.806   0.665  0.2435  2.7007  0.2553
 1862SOL    HW2 6486   7.062   5.836   0.508 -0.4079  1.0297 -0.2281
 1863SOL     OW 6487   0.798   1.373   0.306 -0.6424  0.2145 -0.4506
 1863SOL    HW1 6488   0.889   1.338   0.326 -0.7448  0.9757  1.5960
 1863SOL    HW2 6489   0.778   1.450   0.366 -3.1503 -0.8203  0.1857
 1864SOL     OW 6490   4.397   0.212   4.195  0.0667  0.1574 -0.4739
 1864SOL    HW1 6491   4.322   0.235   4.132 -0.4145  1.9630  0.6833
 1864SOL    HW2 6492   4.383   0.121   4.232 -1.2795  0.2593 -0.6973
 1865SOL     OW 6493   5.494   3.004   6.629 -0.3765 -0.9398  0.6355
 1865SOL    HW1 6494   5.581   2.974   6.589  0.4680  0.1581  1.5653
 1865SOL    HW2 6495   5.446   2.924   6.666  1.3192 -1.3324  2.1347
 1866SOL     OW 6496   3.448   0.817   0.324 -0.0438  0.0041  0.0978
 1866SOL    HW1 6497   3.425   0.903   0.279  0.4492 -1.2333 -2.7394
 1866SOL    HW2 6498   3.411   0.817   0.417 -1.9438  2.3688 -0.5521
 1867SOL     OW 6499   6.676   1.934   5.152 -0.7114  0.1952 -0.6877
 1867SOL    HW1 6500   6.718   2.005   5.209  1.1469 -1.1664 -0.2506
 1867SOL    HW2 6501   6.618   1.876   5.209  0.6884 -0.8156 -0.2437
 1868SOL     OW 6502   5.242   5.116   4.549 -0.0418  0.0198 -0.1907
 1868SOL    HW1 6503   5.171   5.104   4.481 -1.7549  1.6194  1.2083
 1868SOL    HW2 6504   5.225   5.200   4.601  3.2888  0.8865 -0.2522
 1869SOL     OW 6505   4.485   5.968   5.188  0.1920 -0.7423  0.4300
 1869SOL    HW1 6506   4.480   6.021   5.104 -0.0966 -1.5296 -0.0647
 1869SOL    HW2 6507   4.406   5.988   5.246 -0.2596 -1.1106 -0.0497
 1870SOL     OW 6508   4.724   0.119   4.340 -0.6689 -0.4021 -0.5864
 1870SOL    HW1 6509   4.701   0.034   4.292 -1.4152 -1.5159  1.6274
 1870SOL    HW2 6510   4.680   0.196   4.294 -2.7638 -1.6237 -0.7464
 1871SOL     OW 6511   6.367   1.830   4.527  0.4866 -0.2427 -0.1734
 1871SOL    HW1 6512   6.447   1.826   4.588  0.0134 -1.2406  0.3980
 1871SOL    HW2 6513   6.298   1.764   4.558 -1.5076  2.0860  0.6869
 1872SOL     OW 6514   6.509   2.287   5.329 -0.2462  0.5634  0.0042
 1872SOL    HW1 6515   6.434   2.307   5.265 -0.4084  3.2790  0.9085
 1872SOL    HW2 6516   6.509   2.356   5.402  3.3041  0.8522 -0.0971
 1873SOL     OW 6517   0.816   6.055   6.600  0.1819  0.2612  0.3908
 1873SOL    HW1 6518   0.853   5.963   6.611 -0.2673  0.1914  1.5389
 1873SOL    HW2 6519   0.814   6.100   6.690  1.2567  1.7350 -0.2922
 1874SOL     OW 6520   3.587   5.015   3.896  0.3454  0.0927  0.1884
 1874SOL    HW1 6521   3.525   4.954   3.945  0.2332  0.6712  0.7808
 1874SOL    HW2 6522   3.621   5.085   3.959  1.0947  0.1657 -0.2865
 1875SOL     OW 6523   6.180   1.720   3.692 -0.7106  0.1196  0.4276
 1875SOL    HW1 6524   6.201   1.784   3.619  0.7282  0.4938  1.1250
 1875SOL    HW2 6525   6.173   1.627   3.655  0.0664  0.2961 -0.1941
 1876SOL     OW 6526   5.357   0.361   1.065  0.0195 -0.1772  0.5121
 1876SOL    HW1 6527   5.292   0.431   1.037  0.4681 -0.0704 -0.2885
 1876SOL    HW2 6528   5.331   0.273   1.025 -0.7652 -0.5828  1.8271
 1877SOL     OW 6529   3.759   5.225   3.416 -0.3194 -0.3155  0.3567
 1877SOL    HW1 6530   3.783   5.169   3.494 -1.1172 -2.1144 -0.6301
 1877SOL    HW2 6531   3.821   5.206   3.340 -0.8976 -0.2309 -0.1514
 1878SOL     OW 6532   6.075   1.518   0.797 -0.2578  0.1192  0.0959
 1878SOL    HW1 6533   6.010   1.555   0.864 -1.7256  2.4341 -2.4268
 1878SOL    HW2 6534   6.072   1.418   0.800 -2.6313  0.1456  1.3259
 1879SOL     OW 6535   3.551   3.110   0.068  0.0557  0.4477 -0.0254
 1879SOL    HW1 6536   3.463   3.063   0.068  0.7270 -0.8676 -0.6145
 1879SOL    HW2 6537   3.608   3.074   0.141  0.3522  0.8103 -0.0756
 1880SOL     OW 6538   4.061   0.589   0.255  0.2550 -0.1775 -0.5274
 1880SOL    HW1 6539   4.108   0.520   0.310  2.3152  1.1590 -0.4943
 1880SOL    HW2 6540   4.009   0.649   0.315 -0.9982 -1.2393 -0.4970
 1881SOL     OW 6541   2.778   5.255   3.601 -0.0154  0.7622  0.4635
 1881SOL    HW1 6542   2.761   5.352   3.618  1.3007  1.3610 -1.2862
 1881SOL    HW2 6543   2.874   5.235   3.619 -0.4723 -0.4698  1.7030
 1882SOL     OW 6544   1.093   1.005   3.795  0.0904  0.5822  0.6861
 1882SOL    HW1 6545   1.133   1.094   3.819  4.3503 -1.1930  1.1030
 1882SOL    HW2 6546   1.134   0.973   3.710 -1.5929 -0.8952  0.3854
 1883SOL     OW 6547   4.512   6.728   3.615 -0.5824  0.0278  0.7036
 1883SOL    HW1 6548   4.571   6.676   3.553 -1.0613  0.7072 -0.3625
 1883SOL    HW2 6549   4.530   6.701   3.710  1.6657  0.4527  0.4443
 1884SOL     OW 6550   6.197   2.772   0.547  0.0844  0.0660 -0.6311
 1884SOL    HW1 6551   6.219   2.868   0.563  1.4530 -0.4003  0.5348
 1884SOL    HW2 6552   6.245   2.740   0.466 -0.5880  0.4209 -1.1775
 1885SOL     OW 6553   4.768   2.561   2.514  0.4643 -0.0792  0.1276
 1885SOL    HW1 6554   4.681   2.535   2.473 -0.0235  1.3922  0.1800
 1885SOL    HW2 6555   4.823   2.611   2.447  2.0085 -2.3991 -0.4516
 1886SOL     OW 6556   6.973   3.245   0.830 -0.4895  0.6236  0.2057
 1886SOL    HW1 6557   6.922   3.173   0.878 -1.7517  1.8297  0.7192
 1886SOL    HW2 6558   6.911   3.294   0.768  0.4638  0.9728 -0.4885
 1887SOL     OW 6559   2.682   3.530   6.780  0.0115 -0.1692 -0.1322
 1887SOL    HW1 6560   2.599   3.492   6.822 -0.1628  0.1577 -0.1740
 1887SOL    HW2 6561   2.656   3.595   6.709  0.2726  1.2922  1.0417
 1888SOL     OW 6562   5.743   5.603   4.501 -0.1284  0.3488  1.1389
 1888SOL    HW1 6563   5.810   5.551   4.553 -0.7340 -1.3207  0.3171
 1888SOL    HW2 6564   5.701   5.672   4.560  3.0154  2.2442  1.4399
 1889SOL     OW 6565   1.904   3.097   6.160 -0.1749 -0.3241  0.4753
 1889SOL    HW1 6566   1.855   3.012   6.181 -1.7069  0.5260  0.4689
 1889SOL    HW2 6567   1.963   3.083   6.080 -1.2442 -1.1019 -0.2040
 1890SOL     OW 6568   6.482   5.954   5.960 -0.4751 -0.0983  0.6076
 1890SOL    HW1 6569   6.507   5.887   5.891 -1.1458  2.4855 -2.3687
 1890SOL    HW2 6570   6.382   5.956   5.971 -0.4820  0.5852  0.4658
 1891SOL     OW 6571   6.732   2.057   2.398  0.0162 -0.6159 -0.0941
 1891SOL    HW1 6572   6.676   2.114   2.338  0.8295 -0.0147 -0.3022
 1891SOL    HW2 6573   6.811   2.023   2.346  0.0200 -1.1819  0.2802
 1892SOL     OW 6574   0.346   3.236   2.375  0.4509  0.0485 -0.5988
 1892SOL    HW1 6575   0.305   3.174   2.308 -0.4547  0.7388 -0.6925
 1892SOL    HW2 6576   0.313   3.329   2.360  2.3291  0.7256 -0.9254
 1893SOL     OW 6577   2.797   6.789   1.832  0.1744  0.0055  0.3361
 1893SOL    HW1 6578   2.740   6.727   1.777  0.4959  0.5066 -0.5770
 1893SOL    HW2 6579   2.840   6.856   1.773 -0.5434  1.4261  1.3532
 1894SOL     OW 6580   6.241   6.588   3.563 -0.1205 -0.3975  1.2345
 1894SOL    HW1 6581   6.288   6.624   3.482 -1.2678  0.0148  0.7206
 1894SOL    HW2 6582   6.245   6.488   3.562 -1.0813 -0.4461  0.0406
 1895SOL     OW 6583   0.067   3.420   4.153  0.5931 -0.1707  0.7420
 1895SOL    HW1 6584   0.065   3.518   4.134  2.0628 -0.1589  0.6056
 1895SOL    HW2 6585   0.008   3.401   4.232  0.1464  0.7804  0.6571
 1896SOL     OW 6586   6.189   4.495   0.717 -0.0157 -0.3822  0.6460
 1896SOL    HW1 6587   6.161   4.423   0.654  0.6075 -1.1809  1.2685
 1896SOL    HW2 6588   6.220   4.454   0.803 -0.9265  0.6842  1.5149
 1897SOL     OW 6589   2.683   0.272   5.808  0.3064  0.1802 -0.2564
 1897SOL    HW1 6590   2.717   0.226   5.889  0.5448  1.7983  0.6138
 1897SOL    HW2 6591   2.587   0.299   5.823  0.5142  0.9547 -0.2798
 1898SOL     OW 6592   2.018   1.606   3.613  0.1674 -0.1845 -0.0603
 1898SOL    HW1 6593   2.024   1.509   3.637 -3.2914 -0.3742  0.5379
 1898SOL    HW2 6594   2.016   1.615   3.514 -0.7039 -0.8746 -0.1235
 1899SOL     OW 6595   2.332   1.975   5.223 -0.4150 -0.1052 -0.2968
 1899SOL    HW1 6596   2.365   2.068   5.242  1.2761 -0.4544 -1.2950
 1899SOL    HW2 6597   2.405   1.910   5.241  0.2698 -0.7717 -4.4268
 1900SOL     OW 6598   0.022   3.249   6.981 -0.0190  0.1869 -0.2794
 1900SOL    HW1 6599   0.022   3.234   7.080 -1.1634  0.2479 -0.2576
 1900SOL    HW2 6600  -0.063   3.294   6.954  1.0070  1.7431 -1.0687
 1901SOL     OW 6601   1.831   5.133   6.107  0.0889  0.2425  0.4806
 1901SOL    HW1 6602   1.763   5.133   6.033  1.4917  0.6694 -0.8499
 1901SOL    HW2 6603   1.788   5.100   6.191 -1.7783  0.5614 -0.2954
 1902SOL     OW 6604   1.010   5.042   2.678  0.1857  0.3161  0.0516
 1902SOL    HW1 6605   1.027   5.131   2.720 -1.2204 -0.3401  2.1671
 1902SOL    HW2 6606   0.941   5.051   2.606 -0.1307  0.9266  0.4250
 1903SOL     OW 6607   5.670   2.597   5.193  0.1702  0.5809 -0.7444
 1903SOL    HW1 6608   5.714   2.507   5.197 -0.9566 -0.0614 -1.8840
 1903SOL    HW2 6609   5.740   2.667   5.177  1.3525  0.2463  2.3496
 1904SOL     OW 6610   3.302   6.741   2.578  0.1072 -0.6041  0.1951
 1904SOL    HW1 6611   3.294   6.685   2.496 -2.0817 -1.2670  0.7947
 1904SOL    HW2 6612   3.315   6.682   2.658  2.6135  0.0485  0.3556
 1905SOL     OW 6613   2.650   0.405   5.572 -0.2596  0.1462  0.1092
 1905SOL    HW1 6614   2.681   0.355   5.653  0.9618  0.2079 -0.3038
 1905SOL    HW2 6615   2.699   0.492   5.566 -1.4390  0.8274  0.1161
 1906SOL     OW 6616   0.008   5.575   0.157  0.1763  0.3594  0.2059
 1906SOL    HW1 6617   0.074   5.617   0.220  0.5721 -0.9946  0.7169
 1906SOL    HW2 6618   0.055   5.547   0.074 -0.1559  1.2059 -0.2834
 1907SOL     OW 6619   2.796   4.527   6.544 -0.2209  0.0860  0.3798
 1907SOL    HW1 6620   2.744   4.590   6.486 -0.2320 -0.1323  0.1508
 1907SOL    HW2 6621   2.744   4.508   6.627  0.1557  1.0479  0.8498
 1908SOL     OW 6622   6.714   2.111   1.715 -0.1589  0.2153  0.0852
 1908SOL    HW1 6623   6.666   2.135   1.800  1.6817 -0.6555  1.4328
 1908SOL    HW2 6624   6.700   2.184   1.648 -0.5697  1.5929  1.5878
 1909SOL     OW 6625   1.590   5.079   4.518  0.3580 -0.0712  0.1604
 1909SOL    HW1 6626   1.667   5.016   4.512  1.1597  0.9052 -0.1306
 1909SOL    HW2 6627   1.562   5.108   4.427 -0.6939 -0.7840  0.2311
 1910SOL     OW 6628   6.801   6.381   0.783 -0.0513  0.5213  0.5113
 1910SOL    HW1 6629   6.880   6.440   0.767 -0.1591  0.4588 -0.3003
 1910SOL    HW2 6630   6.828   6.285   0.769 -0.9943  0.6311 -3.2954
 1911SOL     OW 6631   1.354   0.486   2.720  0.5108  0.1386  0.3217
 1911SOL    HW1 6632   1.293   0.427   2.668  2.5542 -0.8302 -1.1465
 1911SOL    HW2 6633   1.321   0.495   2.814  0.1987 -3.5724  0.6931
 1912SOL     OW 6634   2.491   2.493   2.863  0.5488  0.1611 -0.1618
 1912SOL    HW1 6635   2.512   2.541   2.948 -0.4935  1.7893 -0.7740
 1912SOL    HW2 6636   2.431   2.415   2.882 -0.6187  1.1822  0.5106
 1913SOL     OW 6637   2.988   0.355   5.307 -0.2034  0.7731  0.2253
 1913SOL    HW1 6638   2.909   0.360   5.245  0.8762  0.3515 -1.2556
 1913SOL    HW2 6639   2.982   0.430   5.373 -1.1053  1.6331 -0.7702
 1914SOL     OW 6640   4.067   0.799   0.066  0.2825  0.2527 -0.1979
 1914SOL    HW1 6641   4.143   0.865   0.073 -1.0270  1.6934  1.6071
 1914SOL    HW2 6642   4.087   0.720   0.124  0.0698  1.0177  0.9489
 1915SOL     OW 6643   1.115   3.680   1.270  0.0631  0.0089 -0.4095
 1915SOL    HW1 6644   1.100   3.738   1.190  0.9239 -0.0288 -0.6174
 1915SOL    HW2 6645   1.160   3.733   1.342  1.1864 -0.4720 -0.7347
 1916SOL     OW 6646   0.786   2.496   6.377  0.0049 -0.1612 -0.0116
 1916SOL    HW1 6647   0.706   2.445   6.346 -1.4168  0.5331  2.2826
 1916SOL    HW2 6648   0.787   2.500   6.477  2.6950  0.2411  0.0260
 1917SOL     OW 6649   3.067   3.783   2.726  0.1785  0.7189  0.0329
 1917SOL    HW1 6650   3.105   3.866   2.685  1.8094  0.5795  1.1376
 1917SOL    HW2 6651   3.039   3.803   2.820  0.6770  0.0035  0.3362
 1918SOL     OW 6652   5.068   3.686   3.947 -0.3232 -0.1008 -0.1298
 1918SOL    HW1 6653   5.150   3.704   3.893  0.3389 -0.9700  0.5570
 1918SOL    HW2 6654   5.050   3.765   4.006  0.9012 -0.4856  0.7979
 1919SOL     OW 6655   1.597   0.963   1.526 -0.0106 -0.0448  0.2620
 1919SOL    HW1 6656   1.560   1.022   1.454 -0.6542 -0.3428  0.3380
 1919SOL    HW2 6657   1.535   0.963   1.604  0.0700 -0.6784  0.3345
 1920SOL     OW 6658   4.120   0.656   0.951 -0.2363 -0.0706 -0.2261
 1920SOL    HW1 6659   4.089   0.639   0.858  0.2226  0.3627 -0.4700
 1920SOL    HW2 6660   4.200   0.717   0.948 -0.9553  0.9332  0.5133
 1921SOL     OW 6661   2.103   7.014   1.578 -0.0738 -0.0866 -0.0201
 1921SOL    HW1 6662   2.022   6.965   1.612 -0.7786  2.3166  2.1171
 1921SOL    HW2 6663   2.184   6.958   1.593 -0.9454 -1.0579  1.3686
 1922SOL     OW 6664   2.661   0.447   0.861 -0.0540  0.2869  0.3330
 1922SOL    HW1 6665   2.570   0.487   0.845 -0.9853 -1.4412  1.0773
 1922SOL    HW2 6666   2.691   0.471   0.953 -0.1829  0.0726  0.4313
 1923SOL     OW 6667   5.280   5.419   0.075 -0.2295  0.2891  0.5479
 1923SOL    HW1 6668   5.270   5.460   0.165  1.6841  0.2037  0.8321
 1923SOL    HW2 6669   5.256   5.485   0.004 -1.2356  0.5168  1.0838
 1924SOL     OW 6670   5.226   0.796   2.096 -0.3088 -0.2950 -0.3815
 1924SOL    HW1 6671   5.287   0.787   2.174 -0.7048 -0.8660 -0.1293
 1924SOL    HW2 6672   5.243   0.723   2.031  0.1285  0.2712 -0.9129
 1925SOL     OW 6673   5.101   4.791   4.138 -1.0349  0.7638 -0.0260
 1925SOL    HW1 6674   5.178   4.728   4.132 -1.7641 -0.2261  0.6552
 1925SOL    HW2 6675   5.045   4.783   4.056  0.6649  3.0231 -1.5354
 1926SOL     OW 6676   2.142   3.547   4.063 -0.0424 -0.9403  0.1692
 1926SOL    HW1 6677   2.052   3.511   4.037 -0.5051 -0.9137  1.6293
 1926SOL    HW2 6678   2.188   3.482   4.123 -1.2079  1.0558  3.4903
 1927SOL     OW 6679   5.934   0.963   1.322  0.3153 -0.0271 -0.1713
 1927SOL    HW1 6680   5.954   0.869   1.295 -0.7930  0.1984 -1.8894
 1927SOL    HW2 6681   5.878   0.962   1.405 -1.1253 -0.9764 -1.1117
 1928SOL     OW 6682   4.761   0.444   3.415 -0.2133 -0.5142  0.3300
 1928SOL    HW1 6683   4.761   0.474   3.320  1.2906  0.3194  0.5652
 1928SOL    HW2 6684   4.845   0.393   3.435 -0.9003 -1.4207  1.0036
 1929SOL     OW 6685   0.442   0.301   2.503  0.3277 -0.0382  0.1288
 1929SOL    HW1 6686   0.375   0.312   2.577 -0.2706 -0.6660 -0.3082
 1929SOL    HW2 6687   0.419   0.220   2.449  0.2256  0.8941 -1.2938
 1930SOL     OW 6688   1.688   2.221   0.815 -0.1399 -0.4833 -0.2943
 1930SOL    HW1 6689   1.651   2.314   0.818 -0.1883 -0.4956 -0.5431
 1930SOL    HW2 6690   1.779   2.220   0.858  1.1865  0.2859 -2.8367
 1931SOL     OW 6691   1.738   1.996   2.301  0.5196 -0.0174  0.1451
 1931SOL    HW1 6692   1.652   1.954   2.330  0.6135  0.5037  1.2603
 1931SOL    HW2 6693   1.741   2.090   2.335  1.5770 -0.0687  0.2091
 1932SOL     OW 6694   6.791   2.572   5.354 -0.1381  0.0794  0.6185
 1932SOL    HW1 6695   6.777   2.474   5.344  0.2643  0.2440 -2.4366
 1932SOL    HW2 6696   6.842   2.607   5.276  1.3632  2.4720  2.5068
 1933SOL     OW 6697   1.518   5.310   2.529 -0.0573 -0.2889  0.1117
 1933SOL    HW1 6698   1.527   5.399   2.485 -0.4485 -0.7658 -0.9693
 1933SOL    HW2 6699   1.453   5.253   2.477  0.5915 -1.3925  0.4606
 1934SOL     OW 6700   0.720   6.646   0.130 -0.2391  0.0058 -0.5241
 1934SOL    HW1 6701   0.770   6.606   0.206  0.9122  1.7225 -0.3181
 1934SOL    HW2 6702   0.785   6.688   0.066 -1.3214  0.5791 -1.2793
 1935SOL     OW 6703   1.004   2.202   5.457 -0.7143  0.0022 -0.2027
 1935SOL    HW1 6704   1.024   2.241   5.546 -0.8982  0.0446 -0.1799
 1935SOL    HW2 6705   1.084   2.152   5.424 -0.9107 -0.6857  0.3410
 1936SOL     OW 6706   4.602   4.328   6.472  0.3813  0.3635  0.7719
 1936SOL    HW1 6707   4.544   4.303   6.394  1.7579 -1.4570  0.2566
 1936SOL    HW2 6708   4.638   4.421   6.458  0.1795  0.2760 -0.5054
 1937SOL     OW 6709   1.763   1.152   4.818 -0.3534  0.2353  0.7018
 1937SOL    HW1 6710   1.665   1.151   4.839 -0.3999  0.3055  0.4823
 1937SOL    HW2 6711   1.785   1.077   4.756  0.2489 -1.7266  3.0976
 1938SOL     OW 6712   0.167   1.819   3.852 -0.4677  0.6900 -0.4591
 1938SOL    HW1 6713   0.073   1.852   3.857 -0.7476 -0.1304 -0.1823
 1938SOL    HW2 6714   0.204   1.838   3.761 -0.7463  1.4017 -0.4341
 1939SOL     OW 6715   2.103   3.362   3.298 -0.1182  0.4489  0.1796
 1939SOL    HW1 6716   2.044   3.284   3.321  0.2180 -0.0374 -0.5872
 1939SOL    HW2 6717   2.125   3.412   3.382 -0.2834 -0.3200  0.6946
 1940SOL     OW 6718   2.225   4.703   2.824 -0.2269 -0.0579 -0.7366
 1940SOL    HW1 6719   2.267   4.622   2.784 -0.4682 -0.7162  0.2972
 1940SOL    HW2 6720   2.296   4.773   2.839  0.3218 -0.7488 -0.0143
 1941SOL     OW 6721   4.200   3.689   5.943  0.3811  0.4303  0.2245
 1941SOL    HW1 6722   4.297   3.667   5.943  0.0640 -1.2639 -1.6316
 1941SOL    HW2 6723   4.152   3.628   6.007  0.2955 -0.2275 -0.4461
 1942SOL     OW 6724   3.382   1.012   2.187 -0.8816  0.9352  0.1115
 1942SOL    HW1 6725   3.382   0.944   2.113  0.8163  1.6415 -0.5769
 1942SOL    HW2 6726   3.404   1.102   2.149 -1.0508  1.4979  1.3282
 1943SOL     OW 6727   6.592   6.665   0.043 -0.0418  0.2953 -0.0475
 1943SOL    HW1 6728   6.650   6.585   0.030 -1.6891 -0.6393 -2.2715
 1943SOL    HW2 6729   6.592   6.720  -0.041 -3.1321 -0.3324 -0.5702
 1944SOL     OW 6730   3.906   0.348   0.421  0.1575 -0.7685 -0.4015
 1944SOL    HW1 6731   3.940   0.429   0.373 -0.2442 -0.3461  0.0198
 1944SOL    HW2 6732   3.832   0.374   0.483  0.4796 -1.3559  0.2463
 1945SOL     OW 6733   3.534   0.441   4.035 -0.1323 -0.2420  0.1598
 1945SOL    HW1 6734   3.496   0.420   4.125 -0.0819 -1.5382 -0.0925
 1945SOL    HW2 6735   3.609   0.506   4.045 -0.5461  0.1260  0.9811
 1946SOL     OW 6736   0.384   0.650   4.403  0.3798  0.1919  0.3595
 1946SOL    HW1 6737   0.409   0.712   4.329 -0.4999 -0.8713 -0.8719
 1946SOL    HW2 6738   0.428   0.561   4.389  0.9265  0.2360  1.6211
 1947SOL     OW 6739   3.667   0.060   6.696 -0.1983  0.5850 -0.2214
 1947SOL    HW1 6740   3.700   0.012   6.777  0.1485  0.4044 -0.4664
 1947SOL    HW2 6741   3.723   0.034   6.617 -1.3293 -0.2463 -0.7881
 1948SOL     OW 6742   1.518   3.490   0.854  0.1163  0.4997 -0.2863
 1948SOL    HW1 6743   1.500   3.398   0.888 -0.9501 -0.4366 -3.0724
 1948SOL    HW2 6744   1.442   3.550   0.878 -0.3515  0.0017 -0.5050
 1949SOL     OW 6745   5.767   1.885   6.752  0.2070 -0.3287  0.1570
 1949SOL    HW1 6746   5.802   1.845   6.837  0.4540 -0.0398  0.1942
 1949SOL    HW2 6747   5.840   1.937   6.708 -0.7584  2.3208  1.4565
 1950SOL     OW 6748   6.522   1.036   2.061 -0.0953 -0.7576 -0.2912
 1950SOL    HW1 6749   6.621   1.050   2.060  0.1604 -2.2413  0.7839
 1950SOL    HW2 6750   6.476   1.124   2.071  1.1124 -0.0737 -0.5454
 1951SOL     OW 6751   5.183   4.676   6.870 -0.0989 -0.5681  0.0030
 1951SOL    HW1 6752   5.269   4.682   6.820  0.0216 -1.0667  0.1514
 1951SOL    HW2 6753   5.202   4.667   6.968 -0.2491 -2.9134 -0.1300
 1952SOL     OW 6754   1.119   6.868   5.730  0.2263  0.3946  0.2410
 1952SOL    HW1 6755   1.182   6.802   5.772  0.2458  1.4564  2.0171
 1952SOL    HW2 6756   1.032   6.823   5.711  0.3318 -0.2405  1.1443
 1953SOL     OW 6757   1.164   3.969   5.007  0.0896  0.1174  0.1199
 1953SOL    HW1 6758   1.101   3.998   4.935 -0.2282  1.0838  0.7702
 1953SOL    HW2 6759   1.169   3.869   5.008  1.6898  0.0757 -2.5858
 1954SOL     OW 6760   0.963   5.417   5.754  0.0918 -0.1552  0.3572
 1954SOL    HW1 6761   1.038   5.383   5.697 -0.7333  0.6153 -1.2589
 1954SOL    HW2 6762   0.945   5.353   5.828  0.5045 -1.7362 -0.8720
 1955SOL     OW 6763   2.373   0.277   0.423 -0.5898  0.3411 -0.0013
 1955SOL    HW1 6764   2.321   0.327   0.353 -0.8575  1.7476  1.1501
 1955SOL    HW2 6765   2.460   0.247   0.384 -0.7483  1.0441 -0.9529
 1956SOL     OW 6766   3.976   3.905   2.807  0.1064  0.4942  0.6823
 1956SOL    HW1 6767   3.954   3.887   2.711  1.2721  0.4909  0.3959
 1956SOL    HW2 6768   4.017   3.823   2.847  0.3776  0.7552  0.9406
 1957SOL     OW 6769   4.208   6.965   4.957  0.1673  0.1460  0.9698
 1957SOL    HW1 6770   4.148   6.946   5.035  1.1288 -0.5608  1.5453
 1957SOL    HW2 6771   4.276   6.893   4.949  0.0042  0.1410 -0.6184
 1958SOL     OW 6772   2.918   2.408   6.386  0.2851 -0.0749  0.2145
 1958SOL    HW1 6773   3.006   2.448   6.358  0.1311 -1.3137 -2.2921
 1958SOL    HW2 6774   2.903   2.322   6.336 -1.7420 -0.5978  1.6145
 1959SOL     OW 6775   0.820   1.751   0.061  0.2946  0.0224 -0.1809
 1959SOL    HW1 6776   0.771   1.764   0.147  1.3354  1.3817  0.2377
 1959SOL    HW2 6777   0.883   1.827   0.046  0.1075 -0.1501 -2.1883
 1960SOL     OW 6778   6.956   2.247   3.344  0.3136 -0.0377 -0.3759
 1960SOL    HW1 6779   7.045   2.293   3.340 -0.1843  0.8683 -1.4908
 1960SOL    HW2 6780   6.885   2.312   3.369 -0.3909 -0.2015 -1.8699
 1961SOL     OW 6781   3.822   6.431   6.065 -0.0517  0.0859 -0.1293
 1961SOL    HW1 6782   3.794   6.492   6.139  0.7430  0.7969 -0.3945
 1961SOL    HW2 6783   3.742   6.385   6.028 -0.5655  0.3561  0.6134
 1962SOL     OW 6784   1.187   2.177   6.245  0.3419  0.2187 -0.0224
 1962SOL    HW1 6785   1.144   2.264   6.269 -0.3309  0.2376 -1.1893
 1962SOL    HW2 6786   1.280   2.174   6.281  0.2105  1.2189  0.4327
 1963SOL     OW 6787   6.594   2.985   1.088  0.4957  0.2372  0.2004
 1963SOL    HW1 6788   6.542   3.053   1.036 -0.6384 -1.5310 -1.0733
 1963SOL    HW2 6789   6.564   2.986   1.183 -0.7670  0.3311 -0.1871
 1964SOL     OW 6790   4.125   4.339   0.899  0.0005  0.3365 -0.0996
 1964SOL    HW1 6791   4.082   4.318   0.987  1.7393 -1.8837  0.3354
 1964SOL    HW2 6792   4.064   4.311   0.825 -1.3165  1.8623  0.3640
 1965SOL     OW 6793   0.703   1.024   2.724  0.0047 -0.1571 -0.4776
 1965SOL    HW1 6794   0.796   1.034   2.687 -0.1541  2.1952 -0.3903
 1965SOL    HW2 6795   0.637   1.048   2.653 -0.3071  4.9521  1.1470
 1966SOL     OW 6796   5.453   3.856   2.422 -0.1922 -0.3503  0.3780
 1966SOL    HW1 6797   5.396   3.879   2.501 -3.5786  0.4408 -2.0975
 1966SOL    HW2 6798   5.403   3.793   2.362  0.8445  1.5522 -2.6936
 1967SOL     OW 6799   6.499   0.169   5.444  0.2579 -0.3087  0.2743
 1967SOL    HW1 6800   6.557   0.120   5.509 -0.6217 -0.7523  0.7415
 1967SOL    HW2 6801   6.518   0.267   5.448 -0.1341 -0.2663  1.5751
 1968SOL     OW 6802   2.372   3.746   1.384 -0.2032  0.4024  0.0901
 1968SOL    HW1 6803   2.423   3.759   1.469  1.0120 -0.4267 -0.4902
 1968SOL    HW2 6804   2.339   3.652   1.379 -1.0300  0.6897  0.0447
 1969SOL     OW 6805   0.224   6.376   1.285 -0.7795  0.0206 -0.0251
 1969SOL    HW1 6806   0.259   6.308   1.222 -0.0862  0.1976  0.1546
 1969SOL    HW2 6807   0.136   6.410   1.253 -0.6241 -0.1840 -0.6817
 1970SOL     OW 6808   6.634   4.425   6.094  0.5737 -0.2400 -0.2165
 1970SOL    HW1 6809   6.680   4.422   6.183  2.2852  2.7845 -0.8440
 1970SOL    HW2 6810   6.558   4.491   6.098  0.0126 -0.8368 -0.7498
 1971SOL     OW 6811   0.310   3.311   1.530 -0.3555 -0.0575  0.2104
 1971SOL    HW1 6812   0.239   3.325   1.461 -0.7628 -0.0914  0.6165
 1971SOL    HW2 6813   0.321   3.395   1.584  1.6061  0.7927 -1.3767
 1972SOL     OW 6814   0.903   2.599   1.628 -0.4178  0.0216  0.7758
 1972SOL    HW1 6815   0.999   2.591   1.599 -0.5579 -1.1344  0.5771
 1972SOL    HW2 6816   0.883   2.694   1.652  0.1487  0.7290 -1.3468
 1973SOL     OW 6817   4.743   0.861   1.639 -0.3441 -0.6932 -0.1671
 1973SOL    HW1 6818   4.683   0.921   1.692 -0.6364 -1.1832  0.0600
 1973SOL    HW2 6819   4.791   0.916   1.570 -2.3395 -0.5101 -1.5296
 1974SOL     OW 6820   4.572   0.837   6.006 -0.3066  0.0657  0.4557
 1974SOL    HW1 6821   4.652   0.895   6.020 -1.2887  1.6032 -0.0760
 1974SOL    HW2 6822   4.595   0.743   6.032  1.0765  0.8126  2.2119
 1975SOL     OW 6823   1.387   1.766   3.887 -0.4353 -0.1093  0.9284
 1975SOL    HW1 6824   1.441   1.692   3.928 -1.5055 -0.3932  1.9055
 1975SOL    HW2 6825   1.379   1.751   3.789  0.1594 -0.7714  0.9737
 1976SOL     OW 6826   1.757   4.550   3.327  0.1843  0.3508  0.1801
 1976SOL    HW1 6827   1.801   4.521   3.242  3.0516  1.6872  1.0694
 1976SOL    HW2 6828   1.819   4.530   3.404 -1.0173  1.8757  1.6131
 1977SOL     OW 6829   4.391   3.673   1.690 -0.2169  0.5016  0.2229
 1977SOL    HW1 6830   4.370   3.768   1.711 -1.8886  0.3216 -0.4740
 1977SOL    HW2 6831   4.424   3.666   1.596  2.6532  0.7028  1.1272
 1978SOL     OW 6832   1.729   3.502   1.571  0.7760  0.0047  0.0937
 1978SOL    HW1 6833   1.735   3.531   1.667  1.6608  2.2975 -0.5867
 1978SOL    HW2 6834   1.804   3.439   1.550  1.7020  0.9525  0.4759
 1979SOL     OW 6835   2.154   5.357   4.390 -0.1510  0.4929 -0.8376
 1979SOL    HW1 6836   2.155   5.367   4.291  0.4433 -1.4592 -1.0817
 1979SOL    HW2 6837   2.223   5.417   4.431  1.9067 -0.9626 -1.9377
 1980SOL     OW 6838   3.123   0.148   1.200  0.2320  0.2246  0.5396
 1980SOL    HW1 6839   3.182   0.227   1.219  2.9197 -1.7897  1.1415
 1980SOL    HW2 6840   3.166   0.090   1.130  1.1279 -3.3629  3.7468
 1981SOL     OW 6841   4.664   0.157   3.874 -0.3646 -0.0685  0.6911
 1981SOL    HW1 6842   4.564   0.165   3.869 -0.3185  1.2603  1.2950
 1981SOL    HW2 6843   4.706   0.239   3.834  0.5174 -0.9407 -0.2222
 1982SOL     OW 6844   2.867   3.623   1.285 -0.5278 -0.6243 -0.1202
 1982SOL    HW1 6845   2.818   3.645   1.201  0.4075 -0.5346 -0.6583
 1982SOL    HW2 6846   2.813   3.559   1.340 -1.3058 -0.3996 -0.6204
 1983SOL     OW 6847   3.207   5.728   2.093  0.1505  0.0444  0.1342
 1983SOL    HW1 6848   3.267   5.690   2.023  2.5584  0.6166  1.7558
 1983SOL    HW2 6849   3.207   5.668   2.173 -1.8264 -0.1381  0.0484
 1984SOL     OW 6850   1.514   0.034   2.951  0.0224 -0.0275  0.1531
 1984SOL    HW1 6851   1.573  -0.012   2.885 -1.1595 -0.5676 -0.5602
 1984SOL    HW2 6852   1.465  -0.035   3.005 -1.7033  0.3422 -0.8597
 1985SOL     OW 6853   3.967   0.140   0.724  0.2057  0.4581 -0.0620
 1985SOL    HW1 6854   4.045   0.095   0.768 -0.6634  0.3149  1.3590
 1985SOL    HW2 6855   3.993   0.167   0.631  0.9862 -2.3406 -0.7532
 1986SOL     OW 6856   4.704   4.205   4.787 -0.6218  0.7488  0.2161
 1986SOL    HW1 6857   4.694   4.111   4.821 -0.7944  0.2991 -1.0296
 1986SOL    HW2 6858   4.628   4.260   4.820 -0.8937  0.2741  0.4019
 1987SOL     OW 6859   3.572   1.020   1.277 -0.2155  0.4736 -0.0422
 1987SOL    HW1 6860   3.665   0.996   1.304 -0.1864  0.8389  0.1894
 1987SOL    HW2 6861   3.507   0.966   1.331 -0.1459  0.6608  0.2296
 1988SOL     OW 6862   6.213   6.437   6.874 -0.3230 -0.8590  0.5691
 1988SOL    HW1 6863   6.273   6.407   6.800 -0.3032  1.5612 -0.4995
 1988SOL    HW2 6864   6.118   6.411   6.853 -0.1916 -1.0421  0.1936
 1989SOL     OW 6865   2.521   6.250   2.869 -0.1798 -0.1061  0.0112
 1989SOL    HW1 6866   2.498   6.228   2.774 -0.4139 -0.0158  0.0468
 1989SOL    HW2 6867   2.494   6.344   2.889  2.9987  1.1429 -0.8765
 1990SOL     OW 6868   3.453   3.342   3.569 -0.0803  0.8310 -0.4064
 1990SOL    HW1 6869   3.465   3.350   3.470  0.3476 -0.7462 -0.5179
 1990SOL    HW2 6870   3.534   3.299   3.609  0.2933  2.6039  0.8316
 1991SOL     OW 6871   6.326   5.246   0.061  0.1288 -0.1947 -0.1772
 1991SOL    HW1 6872   6.341   5.274   0.156  0.0118 -0.7166  0.0010
 1991SOL    HW2 6873   6.385   5.168   0.040 -1.7518 -1.8605  0.3371
 1992SOL     OW 6874   1.682   1.173   4.065  0.1900 -0.0400 -0.0716
 1992SOL    HW1 6875   1.657   1.104   3.997 -0.9929  0.7372 -0.4631
 1992SOL    HW2 6876   1.733   1.130   4.139 -0.4872 -1.3352 -0.3254
 1993SOL     OW 6877   3.444   2.863   0.599 -0.5420 -0.4934  0.5591
 1993SOL    HW1 6878   3.432   2.923   0.679 -1.5444  0.5750 -0.3567
 1993SOL    HW2 6879   3.412   2.771   0.621  0.5837 -0.6209  1.8418
 1994SOL     OW 6880   4.940   3.469   1.203  0.0060 -0.2867  0.5545
 1994SOL    HW1 6881   5.031   3.460   1.163 -0.4498 -1.4346 -0.2953
 1994SOL    HW2 6882   4.940   3.431   1.296  0.3033 -0.6640  0.4031
 1995SOL     OW 6883   5.239   0.989   6.337  0.3276 -0.2457 -0.2346
 1995SOL    HW1 6884   5.227   1.021   6.431 -3.0885 -1.4702 -0.0830
 1995SOL    HW2 6885   5.284   0.900   6.338  1.1619  0.1719  0.1383
 1996SOL     OW 6886   1.231   2.213   5.969  0.3893 -0.2003  0.6542
 1996SOL    HW1 6887   1.181   2.189   6.052  1.1787  0.7131  1.4258
 1996SOL    HW2 6888   1.282   2.298   5.984 -0.6268  0.8355 -1.2517
 1997SOL     OW 6889   2.028   3.026   5.393 -0.4196  0.1595  0.0122
 1997SOL    HW1 6890   1.929   3.013   5.389 -0.4370  0.5550 -1.0851
 1997SOL    HW2 6891   2.074   2.949   5.348 -0.2963  0.7977 -0.9685
 1998SOL     OW 6892   0.691   1.686   0.861 -0.2676  0.2873 -0.1194
 1998SOL    HW1 6893   0.667   1.699   0.958  1.0335 -0.1184  0.2815
 1998SOL    HW2 6894   0.675   1.591   0.836 -1.3129  0.5544 -0.5374
 1999SOL     OW 6895   5.872   3.920   2.486  0.1892  0.6305 -0.3565
 1999SOL    HW1 6896   5.957   3.971   2.482  0.2316  0.8642  2.2056
 1999SOL    HW2 6897   5.808   3.965   2.548 -0.4173 -1.4793  0.6562
 2000SOL     OW 6898   5.051   3.008   0.899 -0.3140 -0.3925 -0.1489
 2000SOL    HW1 6899   5.005   3.096   0.910  0.1381  0.2659 -2.8205
 2000SOL    HW2 6900   5.090   2.979   0.987  0.7271  2.7605  0.5509
 2001SOL     OW 6901   1.335   3.263   0.420  0.4623  0.3241  0.3152
 2001SOL    HW1 6902   1.333   3.329   0.344 -1.2095 -0.6527 -0.5474
 2001SOL    HW2 6903   1.305   3.308   0.504 -0.3301  0.7661 -0.1878
 2002SOL     OW 6904   1.059   2.915   4.198  0.0606  0.4037 -0.3306
 2002SOL    HW1 6905   1.015   2.854   4.133  2.2135  0.4525 -1.9556
 2002SOL    HW2 6906   1.092   2.863   4.276 -1.7654  0.1983  0.3280
 2003SOL     OW 6907   6.396   6.491   4.310  0.4459  0.0730 -0.2633
 2003SOL    HW1 6908   6.442   6.431   4.245  1.3339  1.9335 -1.4340
 2003SOL    HW2 6909   6.325   6.440   4.358 -1.7823 -0.9500 -4.2268
 2004SOL     OW 6910   0.331   2.619   6.153  0.2956  0.8899 -0.6815
 2004SOL    HW1 6911   0.258   2.687   6.160  0.6468  1.2705 -0.6741
 2004SOL    HW2 6912   0.354   2.585   6.245  0.9577  1.6646 -0.5522
 2005SOL     OW 6913   6.241   0.975   0.027  0.0415  0.4425 -0.2933
 2005SOL    HW1 6914   6.300   1.000  -0.049  0.0677  0.5377 -0.2427
 2005SOL    HW2 6915   6.172   0.909  -0.003  0.6814 -0.3023 -0.1636
 2006SOL     OW 6916   5.957   6.652   6.659 -0.0474 -0.2073  0.1766
 2006SOL    HW1 6917   5.979   6.744   6.693 -2.2378 -0.3202  2.2332
 2006SOL    HW2 6918   5.929   6.595   6.736  0.0320 -2.2280 -1.2374
 2007SOL     OW 6919   0.779   4.897   3.263  0.2583  0.1707 -0.5423
 2007SOL    HW1 6920   0.783   4.892   3.363  0.6486  0.2787 -0.5489
 2007SOL    HW2 6921   0.842   4.969   3.231 -0.3079  0.5422 -0.8278
 2008SOL     OW 6922   6.144   4.210   5.592  0.9227 -0.1201 -0.6880
 2008SOL    HW1 6923   6.188   4.300   5.601  0.8061 -0.2940  2.5557
 2008SOL    HW2 6924   6.213   4.139   5.598  0.6839 -0.2968  0.0410
 2009SOL     OW 6925   0.873   1.506   3.224  0.1026 -0.4298 -0.4039
 2009SOL    HW1 6926   0.936   1.498   3.147  2.0942  1.6251  0.8868
 2009SOL    HW2 6927   0.882   1.426   3.283  2.1250  0.1353  0.1251
 2010SOL     OW 6928   5.255   1.266   1.745  0.1910 -0.8173  0.1766
 2010SOL    HW1 6929   5.295   1.215   1.821 -0.9153 -0.7242  0.8432
 2010SOL    HW2 6930   5.180   1.323   1.779 -1.0722 -1.6156 -1.1331
 2011SOL     OW 6931   3.139   6.613   5.526 -0.2028 -0.4627 -0.3377
 2011SOL    HW1 6932   3.111   6.581   5.616  0.1758  1.5302  0.5352
 2011SOL    HW2 6933   3.131   6.713   5.521  0.7918 -0.4178 -2.1550
 2012SOL     OW 6934   0.025   3.670   4.060 -0.3452 -0.3090 -0.0852
 2012SOL    HW1 6935   0.104   3.711   4.014 -0.5038  0.6812  0.4994
 2012SOL    HW2 6936  -0.044   3.646   3.992  0.1617 -0.5222 -0.5345
 2013SOL     OW 6937   5.653   4.986   4.442 -0.4385  0.1545  0.0273
 2013SOL    HW1 6938   5.681   4.995   4.347 -0.0122  0.3473  0.1714
 2013SOL    HW2 6939   5.733   4.988   4.501 -0.7884  1.4817  0.4933
 2014SOL     OW 6940   4.801   0.594   2.633 -0.9649 -0.2013  0.0341
 2014SOL    HW1 6941   4.704   0.584   2.655 -1.7420  3.3614 -1.0549
 2014SOL    HW2 6942   4.835   0.680   2.672  0.7323  0.4117 -2.5699
 2015SOL     OW 6943   6.587   0.978   6.529 -1.0005 -0.3570  0.2525
 2015SOL    HW1 6944   6.599   0.917   6.450 -0.9042  0.8716 -0.7235
 2015SOL    HW2 6945   6.665   0.969   6.591 -0.4722 -0.4732 -0.4181
 2016SOL     OW 6946   3.489   1.824   3.127  0.0649  0.0936  0.5049
 2016SOL    HW1 6947   3.567   1.762   3.120  0.5572  0.6120  1.2836
 2016SOL    HW2 6948   3.480   1.855   3.222 -0.7989  0.4161  0.3251
 2017SOL     OW 6949   4.272   5.559   6.512  0.2290 -0.1648  0.5913
 2017SOL    HW1 6950   4.176   5.574   6.535 -1.1125 -1.2082 -3.4773
 2017SOL    HW2 6951   4.304   5.633   6.453  1.0571 -1.1609 -0.2580
 2018SOL     OW 6952   2.197   2.855   6.248 -0.3217 -0.1779 -0.4889
 2018SOL    HW1 6953   2.181   2.944   6.289 -0.3551 -0.9596  1.2855
 2018SOL    HW2 6954   2.129   2.790   6.281  0.8853 -1.3291 -0.1591
 2019SOL     OW 6955   3.563   6.822   0.651  0.0029  0.4647 -0.2195
 2019SOL    HW1 6956   3.615   6.907   0.637  0.5335  0.0654 -0.7442
 2019SOL    HW2 6957   3.491   6.816   0.582 -0.0697  0.5097 -0.1485
 2020SOL     OW 6958   4.917   6.578   1.868  0.4129  0.3035 -0.2322
 2020SOL    HW1 6959   4.853   6.604   1.795 -0.2260 -1.2896 -0.2877
 2020SOL    HW2 6960   4.894   6.628   1.951  0.7350  1.6554 -0.9238
 2021SOL     OW 6961   5.637   3.198   5.713 -0.6680 -0.2115  0.4261
 2021SOL    HW1 6962   5.575   3.236   5.781  0.7295 -1.0792  2.2819
 2021SOL    HW2 6963   5.713   3.261   5.697 -0.0313 -0.7872  1.0936
 2022SOL     OW 6964   3.932   4.880   5.029  0.3775 -0.1189  0.1508
 2022SOL    HW1 6965   4.031   4.871   5.036  0.5307  1.3097  0.1853
 2022SOL    HW2 6966   3.890   4.850   5.115  0.8223 -0.1959  0.3445
 2023SOL     OW 6967   0.509   2.086   5.595  0.1895 -0.1166  0.7127
 2023SOL    HW1 6968   0.594   2.137   5.608  0.4979 -0.4108 -0.1157
 2023SOL    HW2 6969   0.520   1.993   5.629  0.4091 -0.3453  0.0229
 2024SOL     OW 6970   1.081   4.548   1.301 -0.8931  0.5726 -0.1901
 2024SOL    HW1 6971   0.994   4.532   1.256 -1.4943  1.0193  0.7887
 2024SOL    HW2 6972   1.127   4.626   1.259 -0.9088  0.2723 -0.7735
 2025SOL     OW 6973   0.728   0.163   1.860  0.3034 -0.2577 -0.2433
 2025SOL    HW1 6974   0.817   0.117   1.860  0.3485 -0.2003 -1.4022
 2025SOL    HW2 6975   0.725   0.230   1.785 -1.0875 -1.0065 -0.8881
 2026SOL     OW 6976   0.136   6.933   0.959 -0.6162  0.4899  0.1657
 2026SOL    HW1 6977   0.196   6.920   1.038  0.6939  1.3459 -0.6459
 2026SOL    HW2 6978   0.052   6.980   0.988  0.3927  1.9276  0.8691
 2027SOL     OW 6979   3.479   2.921   0.322 -0.0960  0.0378  0.1598
 2027SOL    HW1 6980   3.416   2.847   0.299 -2.0821  0.9528  2.2828
 2027SOL    HW2 6981   3.491   2.925   0.421  0.0820  2.3941  0.0952
 2028SOL     OW 6982   4.251   2.250   4.179 -0.0938 -0.2533 -0.1626
 2028SOL    HW1 6983   4.182   2.225   4.247 -0.7094 -2.1089 -1.3565
 2028SOL    HW2 6984   4.287   2.341   4.198 -1.0936 -0.2477  1.9157
 2029SOL     OW 6985   4.573   0.789   3.263  0.0214  0.3101  0.2837
 2029SOL    HW1 6986   4.477   0.815   3.270  0.5407  1.9196  2.1056
 2029SOL    HW2 6987   4.610   0.770   3.354  2.2446  2.9706  0.0778
 2030SOL     OW 6988   6.357   2.035   4.364 -0.1901 -0.5457  0.4117
 2030SOL    HW1 6989   6.362   1.944   4.404 -2.4474 -0.6080  0.6902
 2030SOL    HW2 6990   6.274   2.043   4.309 -0.6313  1.6635  1.2913
 2031SOL     OW 6991   5.460   2.861   2.565 -0.2165  0.6782  0.2678
 2031SOL    HW1 6992   5.535   2.833   2.624 -0.1104 -0.8369 -0.5388
 2031SOL    HW2 6993   5.379   2.880   2.620 -0.6278 -2.3356  0.8748
 2032SOL     OW 6994   5.898   1.158   0.802  0.0967  0.2665  0.0874
 2032SOL    HW1 6995   5.861   1.067   0.821 -0.7924  0.6444  0.2398
 2032SOL    HW2 6996   5.992   1.150   0.770  0.7438 -0.5803  2.0547
 2033SOL     OW 6997   4.240   1.908   6.828 -0.2519  0.0074  0.4904
 2033SOL    HW1 6998   4.197   1.962   6.756 -0.1069 -0.2548  0.2032
 2033SOL    HW2 6999   4.247   1.962   6.911  1.4390  1.0511 -0.2682
 2034SOL     OW 7000   6.107   0.688   1.683  0.6792 -0.0973 -0.0817
 2034SOL    HW1 7001   6.133   0.671   1.778 -0.0992  0.0473  0.1662
 2034SOL    HW2 7002   6.008   0.676   1.674  0.2314  2.9804 -0.1625
 2035SOL     OW 7003   1.953   3.150   3.321 -0.3511  0.2044 -0.0628
 2035SOL    HW1 7004   1.882   3.113   3.262 -1.0744  0.0729  0.8653
 2035SOL    HW2 7005   1.947   3.107   3.411 -0.0046  1.2260  0.4618
 2036SOL     OW 7006   5.200   3.774   5.738 -0.6415  0.0496  0.3267
 2036SOL    HW1 7007   5.144   3.713   5.683  0.8699  0.5864 -1.9711
 2036SOL    HW2 7008   5.188   3.869   5.707  1.4707  0.1739 -0.2647
 2037SOL     OW 7009   5.245   6.389   5.251  0.3226  0.6426 -0.3763
 2037SOL    HW1 7010   5.160   6.407   5.301 -0.4659  1.8041 -2.0715
 2037SOL    HW2 7011   5.224   6.358   5.159  1.7398  1.2478 -0.9252
 2038SOL     OW 7012   6.949   3.014   2.416 -0.3585 -0.5795 -0.2490
 2038SOL    HW1 7013   7.037   2.970   2.435  0.1134  0.9105  1.1355
 2038SOL    HW2 7014   6.911   3.052   2.500 -1.7366 -0.1022 -1.0528
 2039SOL     OW 7015   4.354   2.441   3.163  0.1451  0.5037  0.9647
 2039SOL    HW1 7016   4.256   2.421   3.162  0.5331 -1.6832  1.6537
 2039SOL    HW2 7017   4.387   2.450   3.069 -0.7089  1.3443  0.7292
 2040SOL     OW 7018   4.658   5.768   4.324  0.3702  0.2641  0.0504
 2040SOL    HW1 7019   4.617   5.818   4.400  0.7741  1.0483 -0.2423
 2040SOL    HW2 7020   4.725   5.703   4.359 -1.0377 -0.9841  0.5329
 2041SOL     OW 7021   2.740   0.557   0.133 -0.0209 -0.5442 -0.1902
 2041SOL    HW1 7022   2.670   0.565   0.204 -0.2411 -0.3083 -0.4262
 2041SOL    HW2 7023   2.759   0.648   0.096 -0.8649 -0.8033 -1.3360
 2042SOL     OW 7024   2.958   6.197   0.472 -0.6787 -0.6389 -0.3747
 2042SOL    HW1 7025   3.025   6.142   0.423 -0.5813  0.6147 -1.6922
 2042SOL    HW2 7026   2.881   6.217   0.412 -0.8182  0.4591  0.1547
 2043SOL     OW 7027   1.942   1.362   1.752 -0.6165 -0.5310 -0.0789
 2043SOL    HW1 7028   1.847   1.380   1.779 -0.0880  0.0296  1.5618
 2043SOL    HW2 7029   2.003   1.417   1.809  0.6973 -0.7487 -1.2304
 2044SOL     OW 7030   4.577   0.148   2.829 -0.2574  0.0847 -0.5494
 2044SOL    HW1 7031   4.667   0.182   2.854  0.1839 -1.6299  0.3496
 2044SOL    HW2 7032   4.551   0.185   2.740  1.8802 -0.3454 -1.4084
 2045SOL     OW 7033   1.251   0.550   4.457  0.0801 -0.6502 -0.2125
 2045SOL    HW1 7034   1.224   0.596   4.373  0.1828  0.6360  0.4260
 2045SOL    HW2 7035   1.177   0.557   4.524  0.4296 -0.6630  0.1786
 2046SOL     OW 7036   0.021   4.272   5.500  0.5787  0.0134  0.5813
 2046SOL    HW1 7037   0.032   4.173   5.489  0.8698  0.0768  0.2967
 2046SOL    HW2 7038   0.108   4.313   5.528  0.7176  0.3211 -0.2804
 2047SOL     OW 7039   6.376   3.959   5.248  0.6136 -0.5637 -0.3773
 2047SOL    HW1 7040   6.435   3.969   5.329  0.8774 -1.0065 -0.5109
 2047SOL    HW2 7041   6.354   3.862   5.235  2.5925 -0.8441 -2.2277
 2048SOL     OW 7042   6.663   2.740   1.178  0.8612 -0.3866 -0.4317
 2048SOL    HW1 7043   6.721   2.766   1.254  0.5107 -0.2996 -0.1913
 2048SOL    HW2 7044   6.619   2.821   1.140 -1.9423 -0.7641  1.7001
 2049SOL     OW 7045   4.899   0.206   5.028  0.1907 -0.9513  0.0399
 2049SOL    HW1 7046   4.831   0.259   5.079  0.7827 -0.5658  0.4282
 2049SOL    HW2 7047   4.885   0.221   4.930  0.1533 -0.3268  0.1348
 2050SOL     OW 7048   1.284   1.859   0.133 -0.4703  0.2210  0.3515
 2050SOL    HW1 7049   1.195   1.867   0.088 -0.5070  2.1766  0.6721
 2050SOL    HW2 7050   1.271   1.859   0.232 -0.2117 -1.3499  0.4025
 2051SOL     OW 7051   3.415   3.379   2.585  0.6353 -0.4077  0.3185
 2051SOL    HW1 7052   3.342   3.350   2.647 -0.0794 -0.1374 -0.3774
 2051SOL    HW2 7053   3.458   3.299   2.544  0.6000 -0.5610  0.5778
 2052SOL     OW 7054   3.856   6.632   3.475  0.2029 -0.5215 -0.2047
 2052SOL    HW1 7055   3.888   6.641   3.569 -1.0737  0.0595  0.1972
 2052SOL    HW2 7056   3.929   6.660   3.412  0.6568  0.2922  0.6563
 2053SOL     OW 7057   3.674   3.885   6.201  0.4788 -1.0947 -0.1544
 2053SOL    HW1 7058   3.656   3.901   6.104 -0.3070  1.3946  0.3178
 2053SOL    HW2 7059   3.677   3.787   6.219  0.3910 -1.6207 -2.6224
 2054SOL     OW 7060   6.687   1.070   3.052 -0.6258 -0.0231 -0.4108
 2054SOL    HW1 7061   6.657   1.165   3.063  0.3871  0.4083 -1.2335
 2054SOL    HW2 7062   6.761   1.066   2.985 -1.1766 -1.5053 -0.9597
 2055SOL     OW 7063   1.815   5.843   5.498 -0.6950  0.4436  0.0823
 2055SOL    HW1 7064   1.807   5.903   5.578 -0.4896 -1.0924  1.3031
 2055SOL    HW2 7065   1.731   5.846   5.445 -1.3554  0.4538  1.1106
 2056SOL     OW 7066   6.711   6.085   5.728  0.0364  0.2673 -0.0624
 2056SOL    HW1 7067   6.698   6.015   5.658 -1.7653  0.7346 -0.2415
 2056SOL    HW2 7068   6.622   6.115   5.763  0.8754  0.3647  2.1345
 2057SOL     OW 7069   3.764   0.124   6.996  0.4256 -0.0095 -0.2521
 2057SOL    HW1 7070   3.763   0.150   7.092 -1.5847  0.1832 -0.2776
 2057SOL    HW2 7071   3.748   0.205   6.939 -1.2871 -0.5298 -0.5681
 2058SOL     OW 7072   1.835   4.533   4.043  0.1919  0.6328  0.4170
 2058SOL    HW1 7073   1.852   4.454   4.102  1.4569  0.5934  0.0365
 2058SOL    HW2 7074   1.922   4.566   4.006 -0.3421  2.0214  0.3303
 2059SOL     OW 7075   5.729   2.597   3.487  0.0657 -0.1801  0.0840
 2059SOL    HW1 7076   5.669   2.610   3.566 -0.2261  0.8470 -0.2955
 2059SOL    HW2 7077   5.821   2.629   3.510  0.2640 -0.9204  0.3647
 2060SOL     OW 7078   6.799   0.497   6.459  0.2890  0.2973  0.3762
 2060SOL    HW1 7079   6.722   0.519   6.520 -0.9547 -2.4223 -0.0499
 2060SOL    HW2 7080   6.884   0.530   6.499 -0.8090  1.0925  2.1835
 2061SOL     OW 7081   4.532   0.599   6.857  0.4136  0.3461 -0.3716
 2061SOL    HW1 7082   4.601   0.527   6.849 -2.3078 -2.6678  1.0496
 2061SOL    HW2 7083   4.519   0.643   6.767  3.4321  0.4756 -0.8566
 2062SOL     OW 7084   6.003   3.487   3.600  0.2576  0.1004  0.3685
 2062SOL    HW1 7085   5.970   3.582   3.605  0.8228  0.3515 -0.5651
 2062SOL    HW2 7086   6.066   3.470   3.675 -0.3003  0.2802  0.8873
 2063SOL     OW 7087   0.978   3.902   5.421 -0.0243 -0.4879  0.4256
 2063SOL    HW1 7088   1.033   3.894   5.504 -1.8341 -2.4371  1.5311
 2063SOL    HW2 7089   0.883   3.878   5.441 -0.7717  0.2000 -1.9718
 2064SOL     OW 7090   4.363   6.719   4.662  0.1425 -0.4509 -0.4247
 2064SOL    HW1 7091   4.441   6.687   4.716 -0.8904  0.3186  1.6388
 2064SOL    HW2 7092   4.348   6.817   4.679 -1.5514 -0.6816 -0.3740
 2065SOL     OW 7093   1.889   2.356   2.048  0.4710  0.3301 -1.0716
 2065SOL    HW1 7094   1.813   2.336   1.986  1.1959  1.6202 -2.4441
 2065SOL    HW2 7095   1.963   2.401   1.996  1.2969  1.0408  0.6561
 2066SOL     OW 7096   4.228   5.225   1.603  0.3028  0.2855 -0.1537
 2066SOL    HW1 7097   4.175   5.176   1.672  2.1012 -0.6485  0.6401
 2066SOL    HW2 7098   4.202   5.322   1.602 -0.4398  0.1086  1.1531
 2067SOL     OW 7099   6.802   6.828   3.689 -0.6164 -0.6312 -0.2641
 2067SOL    HW1 7100   6.744   6.793   3.763  2.0911 -2.1448  1.3086
 2067SOL    HW2 7101   6.825   6.923   3.707 -0.2103 -0.9019  0.7571
 2068SOL     OW 7102   6.928   1.413   5.623 -0.1023  0.1374  0.2480
 2068SOL    HW1 7103   6.933   1.446   5.529 -0.7916 -0.4261  0.0028
 2068SOL    HW2 7104   7.011   1.363   5.646 -0.4252 -0.7361 -0.4546
 2069SOL     OW 7105   5.948   0.722   3.734 -0.3017  0.4467  0.3676
 2069SOL    HW1 7106   5.973   0.816   3.759  1.3887  0.1435 -0.0451
 2069SOL    HW2 7107   6.005   0.658   3.786 -1.9593 -0.3994  1.2018
 2070SOL     OW 7108   3.271   1.167   5.797  0.1644 -0.5677  0.3859
 2070SOL    HW1 7109   3.362   1.200   5.770  0.3972 -0.3495  1.3876
 2070SOL    HW2 7110   3.280   1.083   5.851 -0.1279  0.0427  1.4286
 2071SOL     OW 7111   6.900   5.907   3.160 -0.0152  0.1185 -0.0142
 2071SOL    HW1 7112   6.838   5.943   3.091  0.1958  3.6374  1.4246
 2071SOL    HW2 7113   6.983   5.874   3.116 -0.8377  0.0161 -1.5782
 2072SOL     OW 7114   3.830   1.625   6.939  0.2118  0.3542 -0.0587
 2072SOL    HW1 7115   3.857   1.532   6.967  1.2270 -0.1547 -2.4214
 2072SOL    HW2 7116   3.859   1.640   6.844 -3.2169  1.7880 -1.0074
 2073SOL     OW 7117   6.184   6.532   0.781 -0.0126  0.4338 -0.0311
 2073SOL    HW1 7118   6.203   6.631   0.779  0.1590  0.5440  2.9527
 2073SOL    HW2 7119   6.201   6.494   0.691  0.6130  3.0020 -1.1071
 2074SOL     OW 7120   2.256   4.252   4.513  0.0206 -0.8278 -0.5714
 2074SOL    HW1 7121   2.290   4.168   4.555  0.9336 -1.7114 -2.9598
 2074SOL    HW2 7122   2.317   4.328   4.538 -1.4510 -0.5032  2.5543
 2075SOL     OW 7123   2.343   0.053   2.749  0.1169  0.1839 -0.2390
 2075SOL    HW1 7124   2.315   0.039   2.844 -0.1381  0.4752 -0.2677
 2075SOL    HW2 7125   2.441   0.039   2.740  0.2313  0.6880  0.1754
 2076SOL     OW 7126   4.144   3.084   0.064 -0.3889 -0.5397 -0.0190
 2076SOL    HW1 7127   4.109   3.092   0.157  0.1486  0.5072  0.1096
 2076SOL    HW2 7128   4.073   3.112  -0.001 -0.4004 -0.1918  0.1415
 2077SOL     OW 7129   2.590   4.892   5.056  0.2131 -0.1088 -0.1724
 2077SOL    HW1 7130   2.650   4.813   5.068 -0.3764 -0.4229  0.8535
 2077SOL    HW2 7131   2.502   4.874   5.099 -0.3219  0.6889 -0.8853
 2078SOL     OW 7132   6.511   0.544   5.326  0.7766  0.0226  0.1492
 2078SOL    HW1 7133   6.516   0.619   5.260  1.2658  0.2133  0.3950
 2078SOL    HW2 7134   6.573   0.471   5.299 -0.2955 -0.6589 -0.5281
 2079SOL     OW 7135   0.604   5.449   4.055 -0.0115 -0.5150  0.1899
 2079SOL    HW1 7136   0.617   5.409   3.964 -1.1301  1.2299 -0.7875
 2079SOL    HW2 7137   0.507   5.446   4.080 -0.0549  0.9910  0.3269
 2080SOL     OW 7138   1.308   0.936   1.149 -0.2323  0.5521  1.2035
 2080SOL    HW1 7139   1.220   0.887   1.149  0.4966 -0.8260  1.9373
 2080SOL    HW2 7140   1.327   0.969   1.057 -2.2105  2.2191  1.3244
 2081SOL     OW 7141   3.629   2.852   6.793  0.7206  0.3862  0.2458
 2081SOL    HW1 7142   3.659   2.777   6.853 -0.2451  0.2285  0.5412
 2081SOL    HW2 7143   3.569   2.815   6.722  0.4871  0.8320  0.2092
 2082SOL     OW 7144   3.200   6.630   0.794  0.0378  0.0352  0.3716
 2082SOL    HW1 7145   3.141   6.582   0.859  1.3520 -0.2495  1.3959
 2082SOL    HW2 7146   3.264   6.688   0.843  1.2516 -0.4000 -0.6357
 2083SOL     OW 7147   4.875   3.103   5.563  0.4365 -0.5986 -0.3278
 2083SOL    HW1 7148   4.887   3.080   5.466 -0.2524 -0.9979 -0.3309
 2083SOL    HW2 7149   4.898   3.199   5.577 -0.7700 -0.1548 -1.1753
 2084SOL     OW 7150   6.168   5.894   5.703 -0.3233  0.0923 -0.2697
 2084SOL    HW1 7151   6.091   5.845   5.662  1.4129 -1.6802 -1.6265
 2084SOL    HW2 7152   6.167   5.882   5.802 -0.2149 -2.4741 -0.5073
 2085SOL     OW 7153   1.196   3.323   4.973 -0.4099 -0.1526  0.3673
 2085SOL    HW1 7154   1.206   3.223   4.978  1.5434 -0.2805 -3.2501
 2085SOL    HW2 7155   1.283   3.366   4.995 -1.1737  0.8053  1.6397
 2086SOL     OW 7156   6.473   3.038   0.392  0.0392  0.2139  0.0353
 2086SOL    HW1 7157   6.509   2.967   0.453  0.7335 -0.2131 -0.8344
 2086SOL    HW2 7158   6.537   3.114   0.387 -0.9670  1.1988  1.4074
 2087SOL     OW 7159   2.619   2.534   3.351  0.6570 -0.1005 -0.5917
 2087SOL    HW1 7160   2.666   2.492   3.428 -0.8666 -1.3979 -0.3204
 2087SOL    HW2 7161   2.609   2.467   3.277  1.3707  0.8819 -1.5986
 2088SOL     OW 7162   2.328   6.106   6.749 -0.4676 -0.3309 -0.0276
 2088SOL    HW1 7163   2.369   6.083   6.661 -1.1972 -2.0147  0.0289
 2088SOL    HW2 7164   2.395   6.095   6.822 -0.2150 -0.1879 -0.2380
 2089SOL     OW 7165   0.431   3.079   6.120 -0.2184  0.2644  0.3524
 2089SOL    HW1 7166   0.467   3.065   6.028  0.3158 -0.3493  0.6477
 2089SOL    HW2 7167   0.506   3.087   6.186 -0.5672 -1.9134  1.1003
 2090SOL     OW 7168   4.114   1.701   1.614 -0.5236  0.3367 -0.1602
 2090SOL    HW1 7169   4.118   1.752   1.529  0.4011  0.3370 -0.1319
 2090SOL    HW2 7170   4.202   1.709   1.661 -1.1279  0.6330  0.9669
 2091SOL     OW 7171   1.892   6.926   3.759 -0.0051  0.0302 -0.2153
 2091SOL    HW1 7172   1.904   6.880   3.846  1.5162 -0.1453 -0.5042
 2091SOL    HW2 7173   1.970   6.907   3.699  0.0365  1.9150 -0.8190
 2092SOL     OW 7174   5.406   4.769   3.838  0.2571  0.6723  0.1232
 2092SOL    HW1 7175   5.357   4.774   3.751 -0.2387  0.3887  0.3823
 2092SOL    HW2 7176   5.354   4.712   3.902  0.0688  1.7498  0.9620
 2093SOL     OW 7177   3.926   5.881   1.971  0.0664  0.1127  0.5365
 2093SOL    HW1 7178   3.889   5.799   2.014  1.7632 -1.3076 -0.5216
 2093SOL    HW2 7179   3.859   5.954   1.974 -0.9391 -0.8079  2.9166
 2094SOL     OW 7180   6.279   1.235   5.749 -0.3252 -0.1219 -0.1571
 2094SOL    HW1 7181   6.224   1.312   5.782  0.8185  0.2664  0.9660
 2094SOL    HW2 7182   6.356   1.221   5.811  0.6760 -0.8309 -1.5065
 2095SOL     OW 7183   3.151   5.540   5.576 -0.2358  0.4901  0.1527
 2095SOL    HW1 7184   3.117   5.464   5.632 -0.5958 -1.5790 -2.6615
 2095SOL    HW2 7185   3.074   5.584   5.530  0.2989 -0.1287 -1.3772
 2096SOL     OW 7186   0.115   5.094   3.151  0.1179 -0.3605  0.2388
 2096SOL    HW1 7187   0.069   5.138   3.074  0.8086 -0.4420 -0.2394
 2096SOL    HW2 7188   0.211   5.076   3.126  0.9412  1.4868  1.8404
 2097SOL     OW 7189   0.796   5.854   5.895  0.0829 -0.0234 -0.0258
 2097SOL    HW1 7190   0.866   5.824   5.829 -0.2311 -0.4740 -0.1568
 2097SOL    HW2 7191   0.751   5.775   5.934 -0.2785  0.2650  0.1467
 2098SOL     OW 7192   4.874   1.099   1.612 -0.4444 -0.0266  0.6877
 2098SOL    HW1 7193   4.956   1.071   1.563 -1.7446 -3.0830  0.0121
 2098SOL    HW2 7194   4.825   1.167   1.558  0.7964  0.6290  0.3429
 2099SOL     OW 7195   6.308   2.053   4.825 -0.0941  0.1650 -0.1558
 2099SOL    HW1 7196   6.406   2.046   4.847 -0.0667  1.6859  0.3063
 2099SOL    HW2 7197   6.268   1.961   4.822  1.0463 -0.4088  1.0384
 2100SOL     OW 7198   1.689   3.786   5.923 -0.1815 -0.5758 -0.0265
 2100SOL    HW1 7199   1.783   3.767   5.892  1.0104  1.8241  1.7722
 2100SOL    HW2 7200   1.643   3.843   5.855  0.9939  1.2602  0.6369
 2101SOL     OW 7201   1.660   5.611   3.391 -0.6543 -0.7682  0.3005
 2101SOL    HW1 7202   1.676   5.522   3.348  0.7890 -0.8475  0.9660
 2101SOL    HW2 7203   1.641   5.679   3.320  3.1557 -0.5745 -0.7317
 2102SOL     OW 7204   3.350   1.875   4.868  0.1841 -0.6351 -0.1157
 2102SOL    HW1 7205   3.424   1.809   4.880  0.2012 -0.8131 -1.1294
 2102SOL    HW2 7206   3.289   1.871   4.947  0.2382 -1.7975 -0.1098
 2103SOL     OW 7207   1.265   5.115   1.231  0.5950  0.1441  0.1876
 2103SOL    HW1 7208   1.342   5.113   1.167  0.0002 -0.7948 -0.5193
 2103SOL    HW2 7209   1.297   5.086   1.321  1.2087  0.4280  0.0711
 2104SOL     OW 7210   2.841   6.163   3.726  0.0797 -0.4375  0.1199
 2104SOL    HW1 7211   2.903   6.138   3.652 -0.8995  0.0015 -0.8685
 2104SOL    HW2 7212   2.790   6.245   3.702 -1.7237 -1.4068  0.3877
 2105SOL     OW 7213   5.828   2.739   4.805 -0.4010 -0.1436 -0.0019
 2105SOL    HW1 7214   5.888   2.706   4.732  2.6915  1.4908  1.5762
 2105SOL    HW2 7215   5.779   2.820   4.774 -0.3801 -0.4281 -0.7859
 2106SOL     OW 7216   0.991   3.100   0.736  0.1713 -0.3069  0.5994
 2106SOL    HW1 7217   0.950   3.020   0.691  0.9056 -1.0014  1.1475
 2106SOL    HW2 7218   1.028   3.073   0.825  0.9140  0.5314  0.5516
 2107SOL     OW 7219   0.475   6.589   0.580  0.0538  0.9493 -0.8062
 2107SOL    HW1 7220   0.502   6.650   0.506  0.4973  0.9667 -0.6291
 2107SOL    HW2 7221   0.409   6.635   0.640  1.9867  2.0633  0.5721
 2108SOL     OW 7222   2.783   5.059   0.803  0.0369 -0.7998 -0.2236
 2108SOL    HW1 7223   2.881   5.078   0.790 -0.0123 -0.5588 -0.2417
 2108SOL    HW2 7224   2.749   5.008   0.724 -0.5450  1.7066 -1.6990
 2109SOL     OW 7225   4.737   6.741   3.907  0.4644 -0.0242  0.3736
 2109SOL    HW1 7226   4.804   6.686   3.856  0.1389  0.3215 -0.4343
 2109SOL    HW2 7227   4.647   6.698   3.901  0.1739  0.6915 -0.4098
 2110SOL     OW 7228   3.048   6.466   3.332  0.0454  0.0899 -0.5160
 2110SOL    HW1 7229   3.033   6.448   3.235 -0.2883  2.1493 -0.8929
 2110SOL    HW2 7230   3.070   6.381   3.379  0.1488 -0.9531 -2.3775
 2111SOL     OW 7231   5.281   3.200   2.603  0.2540  0.1045 -0.4437
 2111SOL    HW1 7232   5.276   3.299   2.596 -0.6016  0.1321  0.3927
 2111SOL    HW2 7233   5.350   3.165   2.539  0.2747  1.1928 -1.0294
 2112SOL     OW 7234   0.611   1.898   1.499 -0.0915 -0.2855 -0.1443
 2112SOL    HW1 7235   0.706   1.866   1.507  0.3253  1.1091  1.1005
 2112SOL    HW2 7236   0.564   1.883   1.586 -0.8980 -0.5883 -0.6275
 2113SOL     OW 7237   1.345   0.300   5.395 -0.0418 -0.2676 -0.1099
 2113SOL    HW1 7238   1.245   0.293   5.387 -0.4174  1.5514  1.8989
 2113SOL    HW2 7239   1.384   0.209   5.406 -1.5571 -0.9746 -0.3720
 2114SOL     OW 7240   6.137   1.293   5.493 -0.0733 -0.2052  0.3825
 2114SOL    HW1 7241   6.182   1.210   5.459  0.8658  0.8683 -1.0980
 2114SOL    HW2 7242   6.183   1.325   5.576  1.4263  0.4220 -0.6617
 2115SOL     OW 7243   3.955   4.145   1.754 -0.0222 -0.1650  0.1170
 2115SOL    HW1 7244   3.918   4.080   1.821  0.4641  0.9911  1.5395
 2115SOL    HW2 7245   3.882   4.206   1.723 -0.3594 -1.0050 -0.8272
 2116SOL     OW 7246   4.943   6.628   3.755  0.2585  0.4430  0.1520
 2116SOL    HW1 7247   5.032   6.635   3.801 -0.2694 -1.1359  1.5145
 2116SOL    HW2 7248   4.957   6.614   3.657  1.4895  0.5842  0.2876
 2117SOL     OW 7249   4.961   1.573   5.907  0.4388  0.5044 -0.0029
 2117SOL    HW1 7250   5.054   1.546   5.931 -0.0758  0.2049  1.8197
 2117SOL    HW2 7251   4.896   1.509   5.948 -0.5824  0.6727 -1.3040
 2118SOL     OW 7252   5.976   0.447   3.623 -0.5876 -0.0039  0.1630
 2118SOL    HW1 7253   5.963   0.546   3.613 -1.0875 -0.1177 -0.4360
 2118SOL    HW2 7254   6.051   0.429   3.686 -2.0819  0.7427  2.2631
 2119SOL     OW 7255   0.053   3.257   1.776  0.0385  1.0443  0.5536
 2119SOL    HW1 7256   0.104   3.181   1.734 -1.7012  0.8703 -1.4348
 2119SOL    HW2 7257   0.051   3.245   1.875  0.1149 -1.3446  0.3353
 2120SOL     OW 7258   1.214   5.397   5.044  0.4812  0.1914  0.0671
 2120SOL    HW1 7259   1.124   5.371   5.078  0.2646  1.9682  0.9551
 2120SOL    HW2 7260   1.265   5.443   5.117  2.4802 -1.5873 -0.1355
 2121SOL     OW 7261   0.449   4.814   0.596 -0.1293 -0.6954 -0.0954
 2121SOL    HW1 7262   0.435   4.882   0.524 -0.5064  0.3412  0.9097
 2121SOL    HW2 7263   0.398   4.842   0.678  0.2223 -1.8762  0.5493
 2122SOL     OW 7264   2.868   2.220   2.430 -0.2478  0.0877 -0.2940
 2122SOL    HW1 7265   2.856   2.224   2.529 -0.3797  0.6130 -0.3282
 2122SOL    HW2 7266   2.950   2.167   2.408 -0.4530 -0.3859  0.0797
 2123SOL     OW 7267   2.921   1.894   6.610  0.6310 -0.0004 -0.5603
 2123SOL    HW1 7268   2.975   1.859   6.687  1.0123  0.4691 -0.6072
 2123SOL    HW2 7269   2.971   1.969   6.566  0.6543 -0.6087 -1.5911
 2124SOL     OW 7270   2.210   1.058   4.723  0.6642 -0.3375  0.1340
 2124SOL    HW1 7271   2.133   1.003   4.692 -0.8274  0.6881  1.7873
 2124SOL    HW2 7272   2.208   1.147   4.677 -0.1657  0.3012  1.3332
 2125SOL     OW 7273   6.559   3.288   2.792  0.1025  0.5368  0.2264
 2125SOL    HW1 7274   6.469   3.245   2.807 -0.2710  1.5929  1.1243
 2125SOL    HW2 7275   6.631   3.223   2.817 -0.4552  0.3957  1.5626
 2126SOL     OW 7276   2.272   3.462   1.390 -0.3993 -0.3508  0.6319
 2126SOL    HW1 7277   2.362   3.428   1.362 -0.3981  0.3939 -0.2832
 2126SOL    HW2 7278   2.271   3.474   1.490  1.5439  2.4977  0.4166
 2127SOL     OW 7279   1.993   0.323   3.238  0.1825  0.5242 -0.1550
 2127SOL    HW1 7280   1.988   0.399   3.174  1.7940  0.1407 -0.7756
 2127SOL    HW2 7281   1.901   0.303   3.273 -1.1943 -0.5529 -3.8504
 2128SOL     OW 7282   0.860   6.743   6.930  0.1443 -0.2202  0.4142
 2128SOL    HW1 7283   0.936   6.807   6.925  1.0983 -1.2996  0.6151
 2128SOL    HW2 7284   0.784   6.777   6.876  1.0805  0.4822 -0.4954
 2129SOL     OW 7285   1.339   3.367   6.705  0.8516  0.1139  0.4822
 2129SOL    HW1 7286   1.341   3.412   6.795 -1.8886  0.8346  0.2791
 2129SOL    HW2 7287   1.343   3.437   6.633  0.3736 -0.2511  0.0993
 2130SOL     OW 7288   4.471   3.190   5.934 -0.1567 -0.4583  0.0429
 2130SOL    HW1 7289   4.373   3.211   5.936 -0.3557 -1.3831  0.2271
 2130SOL    HW2 7290   4.498   3.160   5.843 -0.0472 -0.2321 -0.0006
 2131SOL     OW 7291   3.244   1.034   3.346 -1.1460 -0.3135  0.2640
 2131SOL    HW1 7292   3.263   0.964   3.278  3.4274 -1.8814  2.7392
 2131SOL    HW2 7293   3.248   1.124   3.303  1.2198 -1.2331 -1.6433
 2132SOL     OW 7294   1.414   3.910   4.612 -0.8177  0.6565  0.4883
 2132SOL    HW1 7295   1.406   3.815   4.580 -0.4461  0.6169  0.5104
 2132SOL    HW2 7296   1.323   3.949   4.622 -1.1860 -0.6663  3.4021
 2133SOL     OW 7297   1.589   0.155   2.580 -0.1119  0.4222 -0.1472
 2133SOL    HW1 7298   1.608   0.123   2.487 -1.5162  2.6258 -1.2673
 2133SOL    HW2 7299   1.601   0.254   2.584 -1.2210  0.5245  1.7210
 2134SOL     OW 7300   1.893   3.859   1.460  0.4785 -0.0869  0.0602
 2134SOL    HW1 7301   1.966   3.913   1.418  0.1285  1.9217  1.8534
 2134SOL    HW2 7302   1.812   3.917   1.473 -0.3786 -1.4210  0.9008
 2135SOL     OW 7303   2.949   1.684   1.577 -0.2793  0.2114  0.0199
 2135SOL    HW1 7304   2.971   1.597   1.533  1.3715 -0.2466  1.6371
 2135SOL    HW2 7305   2.952   1.672   1.677 -4.1150  1.1301  0.4296
 2136SOL     OW 7306   6.381   4.156   6.277 -0.0397 -0.0128  0.3415
 2136SOL    HW1 7307   6.373   4.255   6.266  0.3818 -0.1439 -1.3399
 2136SOL    HW2 7308   6.478   4.131   6.272 -0.2351 -0.6297 -0.3575
 2137SOL     OW 7309   0.305   6.347   4.739  0.2116 -0.3005 -0.2115
 2137SOL    HW1 7310   0.272   6.441   4.733  0.7961  0.0172  1.0990
 2137SOL    HW2 7311   0.302   6.304   4.649 -1.1080  0.6081 -0.6258
 2138SOL     OW 7312   2.242   5.068   2.868  0.5567  0.2500 -0.2961
 2138SOL    HW1 7313   2.279   5.031   2.783  1.6129  0.7302 -0.0641
 2138SOL    HW2 7314   2.224   5.166   2.856  1.5322  0.5097  0.2846
 2139SOL     OW 7315   6.784   0.759   2.526 -0.0150 -0.0052  0.1061
 2139SOL    HW1 7316   6.803   0.665   2.555  0.7627  0.1979  0.2749
 2139SOL    HW2 7317   6.731   0.757   2.441  2.1916 -0.6394 -1.3334
 2140SOL     OW 7318   2.597   3.793   6.686  0.0353  0.4043 -0.2675
 2140SOL    HW1 7319   2.506   3.755   6.702  0.1452  0.2669  0.0452
 2140SOL    HW2 7320   2.589   3.876   6.631 -0.4641  1.5281  1.4258
 2141SOL     OW 7321   3.978   3.498   4.534 -0.0308 -0.4965 -0.0430
 2141SOL    HW1 7322   3.974   3.400   4.516 -1.5118 -0.7250  1.3560
 2141SOL    HW2 7323   3.978   3.514   4.633 -0.2244  0.9267 -0.2493
 2142SOL     OW 7324   4.842   3.437   0.805  0.8767 -0.2072 -0.3386
 2142SOL    HW1 7325   4.827   3.346   0.766  0.1846 -0.4317  0.4101
 2142SOL    HW2 7326   4.940   3.451   0.820  0.9173 -1.2678  0.5424
 2143SOL     OW 7327   0.874   4.149   2.790  0.5345  0.4638 -0.0252
 2143SOL    HW1 7328   0.812   4.082   2.831  0.8105 -0.1372 -0.5887
 2143SOL    HW2 7329   0.821   4.219   2.743  0.2636  0.3798  0.1518
 2144SOL     OW 7330   1.926   1.847   3.188  0.2437  0.5714 -0.4566
 2144SOL    HW1 7331   1.827   1.848   3.197  0.3396 -0.1875  0.9814
 2144SOL    HW2 7332   1.953   1.776   3.123 -0.0931 -0.3150  0.3579
 2145SOL     OW 7333   1.500   0.050   5.360 -0.3253 -0.2501 -0.3860
 2145SOL    HW1 7334   1.429  -0.000   5.311 -0.0643 -0.1282 -0.8939
 2145SOL    HW2 7335   1.583  -0.006   5.366 -0.2003 -0.0825 -0.5120
 2146SOL     OW 7336   0.506   6.796   2.688 -0.3916  1.0619  0.5464
 2146SOL    HW1 7337   0.521   6.895   2.682 -1.8474  1.4587  2.4931
 2146SOL    HW2 7338   0.410   6.776   2.668  0.4516 -0.3822 -2.8361
 2147SOL     OW 7339   5.960   3.007   0.019  0.0176 -0.1084 -0.7033
 2147SOL    HW1 7340   5.972   2.988   0.116 -0.5816 -0.2369 -0.6507
 2147SOL    HW2 7341   5.924   2.925  -0.027  1.4857 -0.4707 -1.2738
 2148SOL     OW 7342   5.602   3.340   1.124 -0.0079  0.4000  0.5220
 2148SOL    HW1 7343   5.638   3.340   1.217  1.5270 -0.3374 -0.0310
 2148SOL    HW2 7344   5.660   3.282   1.066 -1.1030  0.5991 -0.8271
 2149SOL     OW 7345   3.145   3.814   0.623 -0.0623  0.0803  0.1411
 2149SOL    HW1 7346   3.148   3.722   0.585 -0.7875  0.1876 -0.1956
 2149SOL    HW2 7347   3.131   3.810   0.722 -1.5756 -0.1651 -0.0611
 2150SOL     OW 7348   5.669   6.320   2.681 -0.0379 -0.0786  0.2526
 2150SOL    HW1 7349   5.768   6.333   2.672 -0.6045  5.2902 -1.9067
 2150SOL    HW2 7350   5.629   6.305   2.591 -1.4353  0.8598  0.6879
 2151SOL     OW 7351   2.558   6.465   3.146 -0.2550  0.5082  0.2897
 2151SOL    HW1 7352   2.608   6.379   3.135  2.4779  2.1361 -1.4316
 2151SOL    HW2 7353   2.502   6.481   3.064  2.0941  1.9211 -1.1731
 2152SOL     OW 7354   2.755   6.726   2.449  0.1754  0.3533 -0.1823
 2152SOL    HW1 7355   2.715   6.652   2.395  0.4172  0.6019 -0.7074
 2152SOL    HW2 7356   2.848   6.745   2.417  0.1125  0.8877 -0.0611
 2153SOL     OW 7357   4.305   4.525   1.495  0.2712 -0.3466 -0.4409
 2153SOL    HW1 7358   4.265   4.535   1.404 -1.0768  0.4258  0.2182
 2153SOL    HW2 7359   4.254   4.457   1.546 -0.9966  1.4730  0.8110
 2154SOL     OW 7360   0.811   0.405   4.180 -0.7436  0.3455 -0.3516
 2154SOL    HW1 7361   0.791   0.341   4.106 -2.1615  0.4793 -0.1179
 2154SOL    HW2 7362   0.794   0.499   4.148  1.0561  0.6265 -0.6088
 2155SOL     OW 7363   0.191   0.736   2.909 -0.1518 -0.3415  0.8514
 2155SOL    HW1 7364   0.224   0.790   2.831 -1.6180  0.2314  0.5973
 2155SOL    HW2 7365   0.245   0.652   2.916 -0.3565 -0.7095 -1.1642
 2156SOL     OW 7366   4.786   0.371   1.132  0.8937  0.1587  0.1153
 2156SOL    HW1 7367   4.812   0.461   1.166  0.7432 -0.6949  2.7769
 2156SOL    HW2 7368   4.707   0.338   1.183 -1.7888  0.1769 -3.6857
 2157SOL     OW 7369   4.747   5.343   5.874  0.1066  0.2724  0.0498
 2157SOL    HW1 7370   4.719   5.435   5.846 -2.3244 -0.7829 -1.2283
 2157SOL    HW2 7371   4.763   5.343   5.973  1.0729  2.2484 -0.0523
 2158SOL     OW 7372   0.606   1.731   3.768 -0.4089  0.2239  1.0903
 2158SOL    HW1 7373   0.656   1.810   3.805 -1.1943  0.9178  0.7032
 2158SOL    HW2 7374   0.547   1.693   3.839 -0.9032  0.7152  0.9466
 2159SOL     OW 7375   2.565   5.794   6.201  0.0542 -0.6399 -0.2803
 2159SOL    HW1 7376   2.598   5.839   6.119 -0.6071 -0.4646 -0.4594
 2159SOL    HW2 7377   2.476   5.752   6.182 -0.9330  0.8552  0.7900
 2160SOL     OW 7378   2.699   0.821   0.708  0.6205 -0.0156  0.6970
 2160SOL    HW1 7379   2.720   0.905   0.757  1.1608  1.2798 -1.6122
 2160SOL    HW2 7380   2.609   0.828   0.666  0.3295 -0.9412  1.1246
 2161SOL     OW 7381   5.240   0.223   4.097 -0.0809 -0.1111 -0.3901
 2161SOL    HW1 7382   5.150   0.196   4.132 -0.6372  0.4692 -1.3129
 2161SOL    HW2 7383   5.299   0.143   4.091 -0.8883 -0.6955 -0.7640
 2162SOL     OW 7384   5.691   1.053   1.127  0.7413  0.0678 -0.0430
 2162SOL    HW1 7385   5.688   0.993   1.047 -0.1416 -0.0844  0.0932
 2162SOL    HW2 7386   5.749   1.011   1.197  0.1048 -0.6533  0.0653
 2163SOL     OW 7387   5.028   6.740   3.129 -0.2679 -0.3666  0.0536
 2163SOL    HW1 7388   5.068   6.709   3.043 -1.2224  2.4823 -1.5340
 2163SOL    HW2 7389   4.959   6.674   3.159  0.2912 -1.5591 -1.1652
 2164SOL     OW 7390   0.611   6.131   6.032 -0.0246 -0.6286 -0.2743
 2164SOL    HW1 7391   0.691   6.159   5.981 -0.6273  2.5390  0.3452
 2164SOL    HW2 7392   0.624   6.151   6.129 -1.5205 -0.1382 -0.1515
 2165SOL     OW 7393   0.877   1.852   5.586 -0.0404  0.1034  0.2781
 2165SOL    HW1 7394   0.833   1.904   5.659 -1.8331  0.3830 -0.9509
 2165SOL    HW2 7395   0.941   1.787   5.627 -0.6291  0.5737  2.0734
 2166SOL     OW 7396   3.157   3.755   1.660 -0.0908 -0.1543 -0.2681
 2166SOL    HW1 7397   3.059   3.742   1.653 -0.3257  0.8107  0.8507
 2166SOL    HW2 7398   3.176   3.846   1.699  1.1592 -1.2075  1.7717
 2167SOL     OW 7399   3.065   4.957   5.033 -0.1015 -0.7341  0.8442
 2167SOL    HW1 7400   3.128   5.007   5.094 -0.0437 -0.9935  0.9977
 2167SOL    HW2 7401   3.021   5.022   4.971 -0.0810 -0.4804  1.0922
 2168SOL     OW 7402   0.019   3.511   0.284  0.2653 -0.6016 -0.6558
 2168SOL    HW1 7403  -0.011   3.420   0.313  0.0764 -0.2789  0.1907
 2168SOL    HW2 7404   0.116   3.508   0.262  0.2242 -1.0421 -0.8054
 2169SOL     OW 7405   3.774   0.389   5.720 -0.9425  0.1660  0.3172
 2169SOL    HW1 7406   3.786   0.397   5.819  1.1082 -0.3265  0.1503
 2169SOL    HW2 7407   3.859   0.358   5.679 -1.1565  2.1154 -1.8097
 2170SOL     OW 7408   6.960   2.018   3.143  0.2457  0.0349 -0.0076
 2170SOL    HW1 7409   6.929   1.948   3.207  0.4450  0.0420  0.0975
 2170SOL    HW2 7410   6.976   2.103   3.192  1.5125 -0.2701  0.1423
 2171SOL     OW 7411   2.510   6.789   2.883  0.1511 -0.1620 -0.6827
 2171SOL    HW1 7412   2.414   6.820   2.887 -0.0393 -0.8617  0.4761
 2171SOL    HW2 7413   2.555   6.812   2.969  1.0041  0.0502 -1.1807
 2172SOL     OW 7414   4.938   3.014   2.273  1.2150  0.4019 -0.1113
 2172SOL    HW1 7415   4.940   3.100   2.324 -2.3642 -0.4856  1.8403
 2172SOL    HW2 7416   4.868   3.020   2.201  1.3398 -0.7017 -0.3375
 2173SOL     OW 7417   5.060   5.184   6.520  0.4788 -0.0178 -0.3766
 2173SOL    HW1 7418   5.066   5.274   6.564 -2.1989 -0.0506  0.2504
 2173SOL    HW2 7419   5.132   5.124   6.556  1.5239  1.4692  0.1277
 2174SOL     OW 7420   3.144   4.150   5.110  0.2236  0.4768  0.2085
 2174SOL    HW1 7421   3.242   4.142   5.095  0.1324  0.5160 -0.4551
 2174SOL    HW2 7422   3.096   4.084   5.052 -0.1021 -0.1469  1.1716
 2175SOL     OW 7423   4.980   0.747   6.222 -0.0162 -0.2651 -0.0987
 2175SOL    HW1 7424   5.000   0.665   6.169  1.2018  0.2005 -0.3815
 2175SOL    HW2 7425   4.988   0.827   6.164 -1.0244  0.0821  0.2200
 2176SOL     OW 7426   6.234   5.784   0.613  0.3952 -0.9822 -0.8276
 2176SOL    HW1 7427   6.169   5.804   0.686 -0.1246 -0.4052 -1.4322
 2176SOL    HW2 7428   6.190   5.724   0.546  0.0238  0.3944 -1.8761
 2177SOL     OW 7429   3.034   6.055   5.179 -0.1319 -0.1689  0.7882
 2177SOL    HW1 7430   2.991   5.968   5.155  1.6109 -0.7758 -0.2952
 2177SOL    HW2 7431   2.970   6.130   5.161 -0.4856 -0.9668 -1.5525
 2178SOL     OW 7432   1.605   4.197   3.849 -0.1630 -0.2454  0.1769
 2178SOL    HW1 7433   1.539   4.225   3.779 -0.3109 -2.2974 -0.5652
 2178SOL    HW2 7434   1.572   4.226   3.939 -1.5921 -0.3647 -0.2757
 2179SOL     OW 7435   4.053   6.166   6.461  1.1679  0.0470 -0.5054
 2179SOL    HW1 7436   3.988   6.205   6.396  1.8416  0.7693 -0.7569
 2179SOL    HW2 7437   4.045   6.066   6.461 -0.8165  0.1628  0.3930
 2180SOL     OW 7438   0.195   2.226   5.562  0.4823 -0.3045  0.2659
 2180SOL    HW1 7439   0.236   2.169   5.491  1.0124  0.1563  0.2055
 2180SOL    HW2 7440   0.266   2.276   5.612  0.1017 -0.4678  0.9920
 2181SOL     OW 7441   3.188   2.167   4.479  0.3076  0.8934  0.0363
 2181SOL    HW1 7442   3.098   2.204   4.458 -0.1499 -0.0969  0.1915
 2181SOL    HW2 7443   3.205   2.175   4.577 -0.0861  0.0747  0.1768
 2182SOL     OW 7444   6.048   5.817   0.811 -0.5381 -0.3649  0.0470
 2182SOL    HW1 7445   5.958   5.835   0.849 -0.4268 -0.2209  0.2441
 2182SOL    HW2 7446   6.071   5.720   0.823  0.8961  0.2474  3.4395
 2183SOL     OW 7447   4.748   2.656   1.585  0.0437 -0.5431  0.0001
 2183SOL    HW1 7448   4.727   2.701   1.498 -0.2688  0.5605  0.6251
 2183SOL    HW2 7449   4.674   2.673   1.649  0.3837 -1.1483  0.5568
 2184SOL     OW 7450   5.406   1.162   2.377 -0.4188  0.1099  0.0010
 2184SOL    HW1 7451   5.345   1.202   2.445  0.4229  0.8847  0.3166
 2184SOL    HW2 7452   5.360   1.157   2.289 -0.6723  1.4521  0.0393
 2185SOL     OW 7453   3.723   0.478   3.666  0.4295  0.4749  0.0941
 2185SOL    HW1 7454   3.796   0.543   3.687  1.8434 -1.3577  1.1140
 2185SOL    HW2 7455   3.703   0.423   3.747  0.3139 -1.3737 -1.1411
 2186SOL     OW 7456   2.802   5.090   2.192 -0.1381  0.1342 -0.7355
 2186SOL    HW1 7457   2.792   5.159   2.121  1.5449 -0.5169 -1.6724
 2186SOL    HW2 7458   2.802   4.999   2.150  0.0667 -0.3044  0.1805
 2187SOL     OW 7459   2.933   3.368   5.888 -0.6468 -0.6792  0.0817
 2187SOL    HW1 7460   2.969   3.300   5.824  2.5845 -0.3959  1.3913
 2187SOL    HW2 7461   2.933   3.458   5.844  1.2659 -0.5364  0.2850
 2188SOL     OW 7462   4.942   4.227   3.626 -0.2503  0.3245 -0.0300
 2188SOL    HW1 7463   5.018   4.291   3.639 -1.1210  1.5709 -0.8614
 2188SOL    HW2 7464   4.960   4.169   3.547  0.4768 -0.4052  0.6440
 2189SOL     OW 7465   6.864   2.347   4.967  0.0475  0.2834  0.1960
 2189SOL    HW1 7466   6.781   2.386   5.009 -0.1722  1.2291 -1.0472
 2189SOL    HW2 7467   6.940   2.410   4.981 -0.2147  1.0240 -1.4793
 2190SOL     OW 7468   4.224   3.348   0.033  0.8424 -0.0068 -0.6735
 2190SOL    HW1 7469   4.234   3.255  -0.003 -0.6487 -1.0738  1.3932
 2190SOL    HW2 7470   4.304   3.372   0.088 -0.0585 -1.4155  1.3838
 2191SOL     OW 7471   3.146   2.094   1.822 -0.1772 -0.0855 -0.3393
 2191SOL    HW1 7472   3.239   2.130   1.818  0.2284 -1.0123  0.3434
 2191SOL    HW2 7473   3.104   2.118   1.910 -0.1701 -0.6235 -0.1841
 2192SOL     OW 7474   1.726   0.363   1.245  0.1325  0.7740 -0.1314
 2192SOL    HW1 7475   1.640   0.319   1.271  2.3149 -1.6311  4.1727
 2192SOL    HW2 7476   1.718   0.462   1.258 -2.2092  0.7378 -0.8487
 2193SOL     OW 7477   2.790   6.573   3.462  0.1970  0.0727 -0.4734
 2193SOL    HW1 7478   2.878   6.543   3.428  0.9140  0.0226  1.3118
 2193SOL    HW2 7479   2.803   6.638   3.537 -1.3025  1.2268 -1.1489
 2194SOL     OW 7480   0.107   1.212   2.895  0.1695  0.5883 -0.4359
 2194SOL    HW1 7481   0.126   1.247   2.804  0.1644  2.4563  0.2329
 2194SOL    HW2 7482   0.008   1.198   2.905  0.1727  0.3628 -0.7130
 2195SOL     OW 7483   1.464   4.068   4.843 -0.0361  0.0066 -0.6177
 2195SOL    HW1 7484   1.396   4.072   4.916  1.2297  0.2828  0.5847
 2195SOL    HW2 7485   1.452   3.983   4.791 -1.1395 -0.0538 -0.2843
 2196SOL     OW 7486   1.522   6.000   3.819  0.7417  0.3933 -0.4898
 2196SOL    HW1 7487   1.462   6.077   3.841  1.0339  0.5929 -0.3960
 2196SOL    HW2 7488   1.487   5.917   3.863  0.4870  0.4935 -0.5050
 2197SOL     OW 7489   3.677   3.611   6.576 -0.4878  0.5903 -0.0553
 2197SOL    HW1 7490   3.703   3.665   6.656 -0.9059 -0.0587  0.5235
 2197SOL    HW2 7491   3.657   3.518   6.603  2.5952 -0.5976 -1.3406
 2198SOL     OW 7492   6.648   1.273   5.990  0.1504 -0.1774 -0.3858
 2198SOL    HW1 7493   6.703   1.194   5.964 -0.5429 -0.9529  0.4177
 2198SOL    HW2 7494   6.657   1.289   6.088  0.3350  0.7944 -0.5522
 2199SOL     OW 7495   1.386   2.687   1.321 -0.0703  0.4134 -0.1498
 2199SOL    HW1 7496   1.466   2.747   1.325  0.4551 -0.2987  0.1025
 2199SOL    HW2 7497   1.366   2.653   1.413 -0.3565  0.1805 -0.2991
 2200SOL     OW 7498   0.567   0.427   1.457 -0.2026  0.3764 -0.3611
 2200SOL    HW1 7499   0.568   0.348   1.395 -1.4570 -0.0821  0.1675
 2200SOL    HW2 7500   0.621   0.406   1.539 -0.5970  0.0257 -0.1866
 2201SOL     OW 7501   3.922   0.295   4.192 -0.3212 -0.1157 -0.0926
 2201SOL    HW1 7502   3.878   0.358   4.256  1.5468 -0.2824  1.4542
 2201SOL    HW2 7503   3.891   0.202   4.209 -0.0580 -0.1200  0.3750
 2202SOL     OW 7504   5.006   4.132   3.369  0.6034 -0.1410  0.1338
 2202SOL    HW1 7505   5.051   4.047   3.342 -0.2359 -0.6915  0.4136
 2202SOL    HW2 7506   4.987   4.187   3.288  1.5027 -0.0380 -0.0123
 2203SOL     OW 7507   6.743   1.540   0.380  0.1816  0.3796  0.4207
 2203SOL    HW1 7508   6.722   1.624   0.329 -0.5533  2.1091  3.3131
 2203SOL    HW2 7509   6.824   1.555   0.436 -0.2815 -0.6535  1.3946
 2204SOL     OW 7510   4.383   6.434   5.402  0.0762  0.0983 -0.4894
 2204SOL    HW1 7511   4.447   6.461   5.329  0.8881 -0.7657 -0.1093
 2204SOL    HW2 7512   4.426   6.448   5.491 -0.8423  0.9610 -0.1621
 2205SOL     OW 7513   6.266   4.903   1.359  0.0793 -0.3472 -0.1067
 2205SOL    HW1 7514   6.217   4.873   1.277 -0.0789 -0.5417  0.0578
 2205SOL    HW2 7515   6.334   4.972   1.334 -0.3276 -0.0170 -0.3272
 2206SOL     OW 7516   2.093   3.409   6.207 -0.0291  0.4588  0.3479
 2206SOL    HW1 7517   2.009   3.393   6.155  0.4883  0.1414 -0.4277
 2206SOL    HW2 7518   2.170   3.414   6.143  0.5418  0.7352  1.0475
 2207SOL     OW 7519   2.795   0.723   5.154  0.9664  0.9062 -0.4770
 2207SOL    HW1 7520   2.732   0.716   5.077 -0.1006  0.1750  0.4412
 2207SOL    HW2 7521   2.856   0.644   5.155  1.2282  1.1005 -0.7701
 2208SOL     OW 7522   6.824   2.644   3.755  0.1121  0.0952  0.0450
 2208SOL    HW1 7523   6.809   2.636   3.854 -0.8415  1.0920 -0.0026
 2208SOL    HW2 7524   6.735   2.649   3.709  0.5118  2.6582 -0.5899
 2209SOL     OW 7525   1.674   3.401   6.842 -0.2673  0.3321 -0.4777
 2209SOL    HW1 7526   1.624   3.341   6.905 -1.3698 -0.1785 -1.7860
 2209SOL    HW2 7527   1.699   3.349   6.760 -0.0563  1.3352 -1.0536
 2210SOL     OW 7528   5.648   5.244   2.767  0.4308  0.1982 -0.0138
 2210SOL    HW1 7529   5.624   5.160   2.816  2.5323 -0.6795 -0.3701
 2210SOL    HW2 7530   5.590   5.319   2.799 -1.3298 -1.3078  0.5003
 2211SOL     OW 7531   6.417   4.665   5.136  0.3373  0.2016 -0.1567
 2211SOL    HW1 7532   6.435   4.605   5.214  0.0027  0.1578 -0.1137
 2211SOL    HW2 7533   6.457   4.755   5.154  2.7369 -0.5867 -1.1137
 2212SOL     OW 7534   2.095   1.401   3.220  0.4423  0.1448 -0.7347
 2212SOL    HW1 7535   2.070   1.315   3.263  1.3329  0.3478  0.2162
 2212SOL    HW2 7536   2.115   1.385   3.123  2.4550 -1.1013 -0.1742
 2213SOL     OW 7537   0.171   1.020   0.290 -0.0179 -0.3469 -0.2347
 2213SOL    HW1 7538   0.232   0.988   0.362  0.6239  0.9805 -0.1681
 2213SOL    HW2 7539   0.222   1.031   0.205 -0.1640  0.7169 -0.1948
 2214SOL     OW 7540   3.169   0.878   1.726 -0.1601 -0.0448 -0.1746
 2214SOL    HW1 7541   3.141   0.803   1.786  2.7713 -0.7075  0.5344
 2214SOL    HW2 7542   3.226   0.842   1.652  0.1860  1.3290 -0.6008
 2215SOL     OW 7543   6.579   1.141   1.743 -0.1883 -0.1395 -0.0890
 2215SOL    HW1 7544   6.558   1.054   1.698 -0.0312 -0.2933  0.1316
 2215SOL    HW2 7545   6.533   1.215   1.695  0.6590 -0.1960 -1.0393
 2216SOL     OW 7546   0.461   0.934   6.332 -0.4728  0.3651 -0.4546
 2216SOL    HW1 7547   0.496   1.027   6.338  0.1717  0.1523 -0.8430
 2216SOL    HW2 7548   0.537   0.869   6.337 -0.9947 -0.1950  0.8925
 2217SOL     OW 7549   5.031   5.983   6.762 -0.7347 -0.5232  0.0725
 2217SOL    HW1 7550   5.022   6.080   6.782  1.7871 -0.0409 -0.7722
 2217SOL    HW2 7551   4.948   5.935   6.790 -1.5638  1.6691  1.6056
 2218SOL     OW 7552   6.313   1.431   4.130  1.0988 -0.2188 -0.1392
 2218SOL    HW1 7553   6.345   1.457   4.039 -1.5144  1.6848 -0.6393
 2218SOL    HW2 7554   6.244   1.359   4.123  2.5206 -1.7498  0.6220
 2219SOL     OW 7555   2.397   5.931   5.256 -0.3059  0.5509 -0.3290
 2219SOL    HW1 7556   2.330   5.866   5.291  0.3346 -0.5146 -1.0272
 2219SOL    HW2 7557   2.480   5.928   5.313 -0.5247  1.2540  0.0361
 2220SOL     OW 7558   4.243   0.528   0.552 -0.6635  0.3063  0.5311
 2220SOL    HW1 7559   4.309   0.580   0.607  0.0656 -0.9480  0.8997
 2220SOL    HW2 7560   4.251   0.431   0.575  1.1917 -0.6093 -3.2430
 2221SOL     OW 7561   4.050   6.140   2.206  0.0707  0.0790  0.3520
 2221SOL    HW1 7562   4.015   6.163   2.115  3.6329 -0.0191 -1.2076
 2221SOL    HW2 7563   4.054   6.224   2.262 -1.3127  0.2994  0.1552
 2222SOL     OW 7564   1.370   0.757   0.753 -0.1951  0.7414 -0.0319
 2222SOL    HW1 7565   1.294   0.717   0.805 -0.9715  0.4106 -1.3695
 2222SOL    HW2 7566   1.403   0.839   0.800 -0.9796  0.5549  0.8874
 2223SOL     OW 7567   5.321   1.314   2.575  0.2335  0.6020 -0.0557
 2223SOL    HW1 7568   5.256   1.385   2.549 -0.2234  0.3031  0.2641
 2223SOL    HW2 7569   5.293   1.273   2.661  1.8247  1.7144  1.0560
 2224SOL     OW 7570   2.669   7.000   6.415 -0.0022  0.3247  0.0242
 2224SOL    HW1 7571   2.635   7.089   6.384 -1.2686  0.0306  0.5359
 2224SOL    HW2 7572   2.619   6.971   6.496  0.3570 -0.8961 -0.1748
 2225SOL     OW 7573   0.895   6.171   0.186 -0.0240 -0.0165  0.4224
 2225SOL    HW1 7574   0.939   6.096   0.137 -1.7838  0.7631 -2.5782
 2225SOL    HW2 7575   0.963   6.241   0.207  0.6750  0.1099 -1.9833
 2226SOL     OW 7576   1.781   3.532   5.420  0.0755  0.0648  0.7721
 2226SOL    HW1 7577   1.823   3.455   5.371 -1.5598 -0.6792  0.4606
 2226SOL    HW2 7578   1.851   3.580   5.473  1.2391 -1.3102  0.5562
 2227SOL     OW 7579   1.811   4.765   2.273  0.5886  0.1676  0.0136
 2227SOL    HW1 7580   1.880   4.835   2.255  0.1637  0.6103  0.1066
 2227SOL    HW2 7581   1.808   4.746   2.371  0.3434  0.3869  0.0475
 2228SOL     OW 7582   5.603   0.800   6.694 -0.2678  0.3361 -0.2230
 2228SOL    HW1 7583   5.675   0.766   6.754  0.4649 -0.1536 -1.3531
 2228SOL    HW2 7584   5.643   0.840   6.613 -1.2596  0.6054 -0.5976
 2229SOL     OW 7585   5.986   3.696   6.360  0.4922 -0.2700 -0.1057
 2229SOL    HW1 7586   6.063   3.757   6.380 -0.0597  0.8891 -1.3209
 2229SOL    HW2 7587   5.912   3.715   6.424  1.2255 -1.4835  1.1545
 2230SOL     OW 7588   6.317   2.300   5.135 -0.5481 -0.5234  0.7113
 2230SOL    HW1 7589   6.294   2.247   5.053  1.4244 -0.8528  0.3074
 2230SOL    HW2 7590   6.327   2.396   5.110  0.8827 -0.7361  0.3160
 2231SOL     OW 7591   5.115   0.155   2.487 -0.6408  0.3865 -0.0332
 2231SOL    HW1 7592   5.067   0.239   2.464 -0.8134 -0.2039 -2.0767
 2231SOL    HW2 7593   5.143   0.157   2.582 -3.4437  1.3797  0.8789
 2232SOL     OW 7594   3.304   4.090   1.077  0.3364 -0.5277  0.5374
 2232SOL    HW1 7595   3.205   4.076   1.066  0.4547 -0.8375 -0.2385
 2232SOL    HW2 7596   3.322   4.186   1.101 -0.1124 -0.3092  0.0229
 2233SOL     OW 7597   3.620   5.472   1.321  0.1445 -0.2841  0.1947
 2233SOL    HW1 7598   3.566   5.553   1.299 -0.6014 -1.2843 -1.9467
 2233SOL    HW2 7599   3.561   5.400   1.355  0.4821 -0.5864  0.1515
 2234SOL     OW 7600   5.193   1.993   6.008  0.2482  0.1272 -0.0863
 2234SOL    HW1 7601   5.212   1.933   5.931  2.1816 -1.4933  1.5206
 2234SOL    HW2 7602   5.259   2.069   6.008  1.5732 -0.9644  0.9730
 2235SOL     OW 7603   0.856   3.269   3.706 -0.3518  0.3384 -0.4635
 2235SOL    HW1 7604   0.757   3.254   3.715 -1.2139  3.9528 -1.9993
 2235SOL    HW2 7605   0.889   3.322   3.784  0.0023  0.4809 -0.7059
 2236SOL     OW 7606   1.059   1.528   5.148 -0.3312 -0.0024 -0.3115
 2236SOL    HW1 7607   1.017   1.557   5.234 -0.0270 -1.6458  0.4303
 2236SOL    HW2 7608   1.003   1.560   5.071 -1.1965  0.5716  0.5312
 2237SOL     OW 7609   0.482   4.498   4.420 -0.2446  0.5610 -0.2177
 2237SOL    HW1 7610   0.540   4.578   4.427 -0.3725  0.6115  0.3035
 2237SOL    HW2 7611   0.490   4.458   4.329 -1.2407  1.9739 -0.9512
 2238SOL     OW 7612   6.487   2.410   4.409  0.1862  0.0364 -0.2813
 2238SOL    HW1 7613   6.419   2.360   4.463  1.1629 -1.5074 -0.4328
 2238SOL    HW2 7614   6.522   2.486   4.464 -1.3264  0.5976 -0.0452
 2239SOL     OW 7615   6.720   1.050   3.968  0.5137  0.1155  0.0923
 2239SOL    HW1 7616   6.773   1.081   3.889  0.7426  1.3348  0.7065
 2239SOL    HW2 7617   6.700   0.953   3.958  1.6627 -0.0522 -0.8359
 2240SOL     OW 7618   1.549   4.867   2.382  0.2204 -0.4088 -0.0067
 2240SOL    HW1 7619   1.614   4.817   2.325  0.9384  1.6773 -1.1127
 2240SOL    HW2 7620   1.598   4.916   2.454 -0.5821 -2.1065  1.7942
 2241SOL     OW 7621   5.036   3.718   4.610 -0.1007 -0.4625  0.1196
 2241SOL    HW1 7622   5.002   3.751   4.522 -0.7250 -1.2728  0.0479
 2241SOL    HW2 7623   4.998   3.628   4.629 -0.8943  0.1669  1.7450
 2242SOL     OW 7624   1.268   3.531   2.351 -0.0120 -0.5089  0.3851
 2242SOL    HW1 7625   1.199   3.600   2.328  0.6637  0.3528  0.9030
 2242SOL    HW2 7626   1.225   3.441   2.352 -1.1646  0.0198  0.7820
 2243SOL     OW 7627   6.599   2.618   0.548 -0.5928 -0.5988  0.1840
 2243SOL    HW1 7628   6.513   2.570   0.530  0.2022 -1.5190 -1.3620
 2243SOL    HW2 7629   6.604   2.643   0.645 -2.3085 -1.0884  0.4235
 2244SOL     OW 7630   1.192   1.285   0.935 -0.7305  0.6746 -0.7659
 2244SOL    HW1 7631   1.166   1.218   1.006 -0.8199  2.0114  0.5033
 2244SOL    HW2 7632   1.148   1.260   0.849  0.4116 -1.7368 -0.7362
 2245SOL     OW 7633   0.273   6.428   5.695  0.0981 -0.4769 -0.2928
 2245SOL    HW1 7634   0.294   6.484   5.775 -0.5732 -0.1687 -0.3256
 2245SOL    HW2 7635   0.339   6.353   5.689  0.4074 -0.2621  0.3093
 2246SOL     OW 7636   1.005   1.155   6.713  0.1936 -0.4928 -0.1684
 2246SOL    HW1 7637   1.025   1.223   6.643 -0.2498 -1.9910 -1.8385
 2246SOL    HW2 7638   1.042   1.185   6.801  0.3873  1.6554 -0.9291
 2247SOL     OW 7639   0.962   3.122   6.396  0.4510  0.1907  0.2192
 2247SOL    HW1 7640   1.004   3.146   6.484  3.0261 -0.2979 -0.7810
 2247SOL    HW2 7641   1.020   3.156   6.322 -1.0599 -0.4203 -1.2921
 2248SOL     OW 7642   6.126   3.127   6.754  0.5682  0.2135  0.3045
 2248SOL    HW1 7643   6.161   3.162   6.667  0.4128 -0.4334 -0.0256
 2248SOL    HW2 7644   6.177   3.168   6.829  2.1919 -0.8197 -0.1705
 2249SOL     OW 7645   3.484   4.795   1.469 -0.2339 -0.0840  0.0408
 2249SOL    HW1 7646   3.410   4.747   1.517 -0.4277  1.2954  1.1836
 2249SOL    HW2 7647   3.566   4.793   1.525 -0.2827  1.0103  0.1742
 2250SOL     OW 7648   5.900   5.332   2.854  0.0222  0.1076 -0.2810
 2250SOL    HW1 7649   5.817   5.318   2.801 -0.1665  0.6793 -0.1402
 2250SOL    HW2 7650   5.881   5.316   2.951 -0.4377  2.1264  0.0159
 2251SOL     OW 7651   1.085   5.138   1.039 -0.0109  0.2228 -0.5801
 2251SOL    HW1 7652   1.143   5.124   1.119  1.3229  1.3853 -1.3044
 2251SOL    HW2 7653   1.002   5.186   1.066 -0.1329 -0.4288  0.2757
 2252SOL     OW 7654   5.982   4.551   3.545 -0.4952  0.4158  0.1985
 2252SOL    HW1 7655   5.928   4.535   3.628  0.9213 -0.9839  0.8800
 2252SOL    HW2 7656   6.037   4.471   3.524  0.3621  1.3274 -1.2275
 2253SOL     OW 7657   6.732   2.698   2.658  0.2948  0.1469  0.0506
 2253SOL    HW1 7658   6.739   2.603   2.688 -2.6653 -0.2382 -0.1898
 2253SOL    HW2 7659   6.795   2.714   2.582 -1.2438 -2.5379 -1.9406
 2254SOL     OW 7660   3.088   3.214   1.605  0.2613  0.5569  0.1768
 2254SOL    HW1 7661   3.116   3.154   1.679  0.5665  0.1346 -0.2707
 2254SOL    HW2 7662   3.133   3.303   1.614 -1.3111  1.2598  1.6651
 2255SOL     OW 7663   3.866   6.474   5.023 -0.5076 -0.4793  0.5534
 2255SOL    HW1 7664   3.769   6.485   5.044 -0.9498  0.7825 -1.7248
 2255SOL    HW2 7665   3.876   6.446   4.927  1.3815 -1.1683  0.8988
 2256SOL     OW 7666   5.924   4.480   3.138 -0.2827  0.3850  0.4572
 2256SOL    HW1 7667   5.879   4.394   3.161  2.8059 -1.8456 -1.0835
 2256SOL    HW2 7668   5.957   4.524   3.221  0.3793 -1.3452  1.1590
 2257SOL     OW 7669   6.536   4.668   4.571 -0.3505  0.0975 -0.4739
 2257SOL    HW1 7670   6.544   4.721   4.656  0.4787 -1.2260  0.3143
 2257SOL    HW2 7671   6.447   4.621   4.570  0.7743 -2.2858  1.1935
 2258SOL     OW 7672   4.245   3.082   0.576 -0.1718 -0.0451 -0.0974
 2258SOL    HW1 7673   4.291   3.153   0.629  2.2776 -1.0154 -0.8223
 2258SOL    HW2 7674   4.199   3.019   0.639 -0.2902  0.7816  0.6715
 2259SOL     OW 7675   6.073   2.244   6.272 -0.0631  0.3193 -0.4609
 2259SOL    HW1 7676   5.996   2.284   6.322 -0.2399  1.5640 -1.6736
 2259SOL    HW2 7677   6.141   2.315   6.253  1.7672 -0.8790  1.1810
 2260SOL     OW 7678   0.467   0.180   4.645 -0.3964  0.0410  0.1514
 2260SOL    HW1 7679   0.493   0.182   4.549  0.4031  1.3841  0.3862
 2260SOL    HW2 7680   0.525   0.242   4.698 -1.5692  0.1926  1.3180
 2261SOL     OW 7681   1.102   6.067   5.449  0.4643 -0.1585  0.2365
 2261SOL    HW1 7682   1.086   6.047   5.352  0.1298 -3.3973  0.8244
 2261SOL    HW2 7683   1.089   6.165   5.466 -4.3027 -0.0993 -2.1417
 2262SOL     OW 7684   3.220   2.671   1.239  0.1452  0.3977  0.4210
 2262SOL    HW1 7685   3.170   2.699   1.321 -1.7682 -3.5191  0.8679
 2262SOL    HW2 7686   3.307   2.629   1.265 -0.0797 -0.0790  0.4293
 2263SOL     OW 7687   2.233   3.338   0.485  0.1542 -0.0751 -0.1693
 2263SOL    HW1 7688   2.139   3.341   0.519  0.4508  1.9136  0.6400
 2263SOL    HW2 7689   2.244   3.261   0.423 -2.3024  0.2807 -1.1584
 2264SOL     OW 7690   2.195   1.113   7.007 -0.2742  0.3466 -0.4741
 2264SOL    HW1 7691   2.222   1.171   7.083 -0.6021  0.4203 -0.4148
 2264SOL    HW2 7692   2.096   1.119   6.993 -0.5552 -1.3552  0.5023
 2265SOL     OW 7693   1.437   5.007   2.143  0.2880 -0.5133 -0.7601
 2265SOL    HW1 7694   1.355   4.963   2.107  0.4468 -0.0156 -1.7558
 2265SOL    HW2 7695   1.457   4.970   2.234  0.0037 -1.9559 -1.2633
 2266SOL     OW 7696   2.064   5.172   3.227  0.3674  0.0654  1.3444
 2266SOL    HW1 7697   2.090   5.245   3.164 -1.6162 -0.7304 -0.5241
 2266SOL    HW2 7698   2.141   5.110   3.239  0.6829 -0.0397 -0.7458
 2267SOL     OW 7699   0.475   3.536   5.155 -0.0336  0.4670  0.0210
 2267SOL    HW1 7700   0.456   3.588   5.238  0.2495 -1.2127  1.1863
 2267SOL    HW2 7701   0.503   3.599   5.082  1.8426  1.8474  1.8079
 2268SOL     OW 7702   2.384   5.307   4.641 -0.6614 -0.5995  0.3860
 2268SOL    HW1 7703   2.376   5.391   4.588  0.1458 -0.5220  0.3702
 2268SOL    HW2 7704   2.294   5.263   4.649 -0.7102 -0.9277 -1.5609
 2269SOL     OW 7705   0.009   4.619   3.575  0.4190 -0.1827  0.3679
 2269SOL    HW1 7706  -0.064   4.596   3.640 -1.1906  0.7737 -1.0084
 2269SOL    HW2 7707  -0.003   4.567   3.491 -0.6098  2.2137 -1.0680
 2270SOL     OW 7708   1.827   4.331   3.723 -0.1342 -0.8221  0.6521
 2270SOL    HW1 7709   1.729   4.321   3.742 -0.4084 -3.7414 -1.5675
 2270SOL    HW2 7710   1.880   4.310   3.805 -1.3264 -0.4772  1.5421
 2271SOL     OW 7711   5.384   1.694   4.214 -0.2722  0.0800  0.6328
 2271SOL    HW1 7712   5.420   1.769   4.160  1.7261 -1.1262  0.1791
 2271SOL    HW2 7713   5.437   1.685   4.299 -0.4818 -0.8029  0.6816
 2272SOL     OW 7714   1.881   0.826   4.938 -1.0425 -0.2983  0.1168
 2272SOL    HW1 7715   1.855   0.748   4.995 -0.7771  0.0890  0.7846
 2272SOL    HW2 7716   1.968   0.807   4.893 -0.5518 -0.0726  0.9370
 2273SOL     OW 7717   5.788   4.615   1.523 -0.2697  0.1617  0.5606
 2273SOL    HW1 7718   5.775   4.671   1.605  0.1307  0.5500  0.3626
 2273SOL    HW2 7719   5.808   4.520   1.550  0.2824  0.3748  0.9253
 2274SOL     OW 7720   4.262   5.075   6.700 -0.1305 -0.3785 -0.1148
 2274SOL    HW1 7721   4.303   5.152   6.651  0.6817 -0.6509  0.1070
 2274SOL    HW2 7722   4.296   4.989   6.661  0.2904 -0.5990  0.7094
 2275SOL     OW 7723   1.772   1.839   0.290  0.0574  0.5410  0.7224
 2275SOL    HW1 7724   1.717   1.821   0.208  0.7520 -2.2844  0.7534
 2275SOL    HW2 7725   1.728   1.910   0.345 -3.0506 -0.7957  0.2191
 2276SOL     OW 7726   1.296   4.650   2.577  0.0176 -0.0911 -0.0567
 2276SOL    HW1 7727   1.312   4.749   2.583  3.0092 -0.4697 -0.3757
 2276SOL    HW2 7728   1.297   4.622   2.482 -0.9485 -0.4703  0.0258
 2277SOL     OW 7729   5.428   4.025   5.653 -0.1755 -0.9026  0.4514
 2277SOL    HW1 7730   5.344   4.044   5.704 -0.1967 -3.4105  1.4974
 2277SOL    HW2 7731   5.467   3.938   5.684  2.7173  0.0716 -0.1669
 2278SOL     OW 7732   6.411   3.628   0.508  0.2620  0.0039 -0.0367
 2278SOL    HW1 7733   6.438   3.724   0.497  3.0577 -0.5113  1.3774
 2278SOL    HW2 7734   6.316   3.617   0.481 -0.2755  3.2477  0.1507
 2279SOL     OW 7735   1.590   6.166   3.060  0.1150  0.7308  0.0905
 2279SOL    HW1 7736   1.651   6.116   3.122  1.6063  1.6636 -0.5570
 2279SOL    HW2 7737   1.566   6.254   3.102 -0.3154  0.6108  0.0949
 2280SOL     OW 7738   5.966   1.876   2.451  0.0306  0.3294  0.4172
 2280SOL    HW1 7739   5.872   1.844   2.467  0.7684 -1.9447  0.4430
 2280SOL    HW2 7740   6.016   1.875   2.538 -0.0273  2.0502  0.5036
 2281SOL     OW 7741   3.385   2.798   1.514  0.3945 -0.0258 -0.1145
 2281SOL    HW1 7742   3.393   2.897   1.503  0.7727 -0.1789 -1.3805
 2281SOL    HW2 7743   3.306   2.777   1.571  0.4335  1.0116  0.3380
 2282SOL     OW 7744   1.963   2.642   0.247 -0.0202 -0.4964  0.1504
 2282SOL    HW1 7745   1.879   2.692   0.266  0.8812 -0.2154  4.6043
 2282SOL    HW2 7746   2.042   2.699   0.268  1.1249 -2.3430  1.2111
 2283SOL     OW 7747   0.611   3.298   4.382  0.5631 -0.2482 -0.3543
 2283SOL    HW1 7748   0.659   3.283   4.468  1.4909 -2.0648 -1.1252
 2283SOL    HW2 7749   0.630   3.390   4.349  0.1258  0.5120  1.3886
 2284SOL     OW 7750   6.907   2.512   1.279 -0.3276 -0.0665 -0.5225
 2284SOL    HW1 7751   6.828   2.494   1.336 -0.4120  2.1428  0.1448
 2284SOL    HW2 7752   6.955   2.593   1.312  2.8757 -1.8637 -0.2544
 2285SOL     OW 7753   3.577   0.515   4.983 -0.6419 -0.0093 -0.7848
 2285SOL    HW1 7754   3.643   0.590   4.993  0.3893 -1.0591  0.8660
 2285SOL    HW2 7755   3.495   0.536   5.037 -1.0182  0.5931 -1.5707
 2286SOL     OW 7756   5.845   2.757   6.971  0.5173 -0.5879  0.2965
 2286SOL    HW1 7757   5.770   2.752   7.037  0.2742  0.0139  0.0712
 2286SOL    HW2 7758   5.885   2.666   6.959 -0.4491 -0.9977  0.1022
 2287SOL     OW 7759   2.700   1.037   6.701  0.7029  0.0175  0.3702
 2287SOL    HW1 7760   2.618   1.044   6.759  0.3278 -0.4083 -0.0965
 2287SOL    HW2 7761   2.739   0.946   6.710  0.8249  0.0514  0.1893
 2288SOL     OW 7762   1.831   3.472   4.836  0.4132 -0.4757  0.7762
 2288SOL    HW1 7763   1.867   3.379   4.823  0.0170 -0.4306 -0.8316
 2288SOL    HW2 7764   1.893   3.523   4.896  0.8148 -1.6586  1.4105
 2289SOL     OW 7765   2.926   6.396   6.416 -0.2244  0.3002  0.3624
 2289SOL    HW1 7766   2.976   6.443   6.489  2.4535  0.9441 -1.7370
 2289SOL    HW2 7767   2.843   6.448   6.394  1.3944  2.8185 -0.2463
 2290SOL     OW 7768   3.175   1.506   0.457 -0.2962 -0.2639  0.2854
 2290SOL    HW1 7769   3.255   1.467   0.503 -0.2646 -0.5799 -0.0391
 2290SOL    HW2 7770   3.205   1.555   0.374 -0.2922  0.7492  0.8623
 2291SOL     OW 7771   6.749   5.012   5.872 -0.8594  0.2157  0.2121
 2291SOL    HW1 7772   6.750   4.939   5.940  3.8502 -0.5859 -0.3780
 2291SOL    HW2 7773   6.813   5.083   5.898 -0.1814  0.7235 -2.5208
 2292SOL     OW 7774   6.463   5.418   5.660 -0.4751 -0.3931 -0.0575
 2292SOL    HW1 7775   6.497   5.332   5.698 -0.6938  0.0682  1.2248
 2292SOL    HW2 7776   6.540   5.473   5.627  0.1417  0.5813  2.6836
 2293SOL     OW 7777   3.031   3.076   2.615  0.3886  0.5587 -0.0183
 2293SOL    HW1 7778   3.123   3.073   2.653 -0.3564 -0.7619  1.8265
 2293SOL    HW2 7779   3.017   2.997   2.556  1.0665  1.8610 -2.0440
 2294SOL     OW 7780   4.540   2.482   2.356 -0.0125  0.4806  0.0277
 2294SOL    HW1 7781   4.448   2.444   2.350  1.0215 -2.1488 -0.5593
 2294SOL    HW2 7782   4.571   2.508   2.264 -0.0735  1.1730  0.1963
 2295SOL     OW 7783   3.829   5.604   4.509 -0.2125  0.6321  0.3389
 2295SOL    HW1 7784   3.901   5.542   4.539 -1.1053 -0.6613 -0.0713
 2295SOL    HW2 7785   3.859   5.656   4.430  0.9975  1.6721  1.4381
 2296SOL     OW 7786   1.355   1.982   5.855  1.0293 -0.9838  0.2291
 2296SOL    HW1 7787   1.405   2.007   5.772  0.9627 -1.5023  0.0245
 2296SOL    HW2 7788   1.323   2.064   5.902  3.6665 -0.5236  1.3752
 2297SOL     OW 7789   3.009   4.866   6.869  0.3377 -0.0175  0.1834
 2297SOL    HW1 7790   3.034   4.809   6.791  0.8146  1.3366 -0.6802
 2297SOL    HW2 7791   2.948   4.939   6.839  0.6999  0.6529  1.0393
 2298SOL     OW 7792   5.960   2.117   6.700 -0.0101 -0.3820  0.0709
 2298SOL    HW1 7793   5.874   2.164   6.678 -0.5629 -1.4212 -0.0447
 2298SOL    HW2 7794   6.018   2.114   6.618  0.5776  1.1774  0.3944
 2299SOL     OW 7795   2.449   6.674   3.793  0.0426  0.5110  0.0774
 2299SOL    HW1 7796   2.406   6.747   3.848 -2.7220  0.7912 -2.2108
 2299SOL    HW2 7797   2.382   6.601   3.778  1.2275 -0.2779 -1.5904
 2300SOL     OW 7798   0.871   1.016   4.277  0.0341 -0.3534  0.1016
 2300SOL    HW1 7799   0.904   0.974   4.362 -0.7198 -0.1131  0.5181
 2300SOL    HW2 7800   0.857   0.945   4.208 -0.6156 -0.7147  0.5985
 2301SOL     OW 7801   3.035   0.247   5.611 -0.1870 -0.2932 -0.0734
 2301SOL    HW1 7802   2.996   0.162   5.574  1.7213 -1.4085  0.3761
 2301SOL    HW2 7803   3.014   0.322   5.548  0.5606 -1.6170 -2.0139
 2302SOL     OW 7804   1.991   0.138   6.106  0.6603 -0.0332 -0.6025
 2302SOL    HW1 7805   1.898   0.132   6.142  0.8137  0.5782 -0.0878
 2302SOL    HW2 7806   2.040   0.053   6.125  0.5086  0.0074 -0.0116
 2303SOL     OW 7807   6.660   1.698   3.063  0.9855  0.2377  0.0769
 2303SOL    HW1 7808   6.650   1.797   3.078 -0.3010 -0.3069  4.4624
 2303SOL    HW2 7809   6.749   1.668   3.098  1.4415 -0.1861 -1.3877
 2304SOL     OW 7810   5.924   4.354   0.988  0.0059  0.7973  0.0851
 2304SOL    HW1 7811   5.956   4.428   1.047 -0.4067  1.3098 -0.3100
 2304SOL    HW2 7812   5.826   4.365   0.973 -0.2951 -0.5289  0.9824
 2305SOL     OW 7813   5.911   5.053   3.115  0.1906  0.6208  0.5997
 2305SOL    HW1 7814   5.862   4.984   3.062  1.0869  1.6433 -1.6529
 2305SOL    HW2 7815   6.009   5.030   3.119  0.3279  1.2039  0.7645
 2306SOL     OW 7816   6.133   6.082   3.515 -0.9128 -0.5979  0.1913
 2306SOL    HW1 7817   6.107   6.037   3.600  2.4915 -3.6240 -0.1073
 2306SOL    HW2 7818   6.092   6.035   3.438 -0.1132 -1.0435  0.0207
 2307SOL     OW 7819   1.398   5.120   6.811  0.6515  0.2824  0.2290
 2307SOL    HW1 7820   1.353   5.197   6.766 -0.3414 -0.2042  0.3651
 2307SOL    HW2 7821   1.341   5.087   6.887  0.7737 -0.9355 -0.1773
 2308SOL     OW 7822   5.287   2.063   1.964  0.4574  0.5306 -0.4916
 2308SOL    HW1 7823   5.295   1.990   1.897  3.1587  1.0707 -0.8566
 2308SOL    HW2 7824   5.217   2.128   1.933  0.0756 -0.3793 -1.6350
 2309SOL     OW 7825   5.453   4.739   5.440 -0.4916 -0.0167 -0.0127
 2309SOL    HW1 7826   5.436   4.825   5.390 -1.1827 -0.1217  0.0292
 2309SOL    HW2 7827   5.382   4.673   5.416 -0.4174 -0.3104  0.5711
 2310SOL     OW 7828   3.863   4.046   0.501 -0.0982  0.1610 -0.2161
 2310SOL    HW1 7829   3.892   4.134   0.463 -0.6165  0.8493  0.9316
 2310SOL    HW2 7830   3.764   4.039   0.498 -0.0063 -1.0659 -1.7018
 2311SOL     OW 7831   4.444   1.601   7.011  0.1397 -0.3062 -0.7104
 2311SOL    HW1 7832   4.481   1.509   7.009 -1.5832 -1.0243 -2.0522
 2311SOL    HW2 7833   4.433   1.636   6.918 -0.7720  0.5952 -0.2907
 2312SOL     OW 7834   4.782   2.786   2.117 -0.0795  0.0884 -0.6471
 2312SOL    HW1 7835   4.745   2.879   2.121 -0.0011  0.1388 -1.0513
 2312SOL    HW2 7836   4.807   2.764   2.022 -1.5822 -0.9266 -0.8437
 2313SOL     OW 7837   0.174   3.880   6.926 -0.0286 -0.2755 -0.0673
 2313SOL    HW1 7838   0.171   3.848   6.831  0.6629  0.8948 -0.5040
 2313SOL    HW2 7839   0.087   3.926   6.948  0.0112 -0.0786 -0.3113
 2314SOL     OW 7840   2.336   3.182   1.613 -0.3840  0.4234 -0.4839
 2314SOL    HW1 7841   2.292   3.217   1.696 -1.0180 -0.8154 -0.2649
 2314SOL    HW2 7842   2.432   3.209   1.612 -0.1795 -0.1335  1.0300
 2315SOL     OW 7843   1.048   4.345   2.457  0.5629 -0.2676 -0.0162
 2315SOL    HW1 7844   0.949   4.355   2.454  0.6000  1.8737  2.4393
 2315SOL    HW2 7845   1.075   4.262   2.407 -2.3066 -0.3607 -1.6299
 2316SOL     OW 7846   6.845   1.827   1.077  0.5974  0.2088  0.2043
 2316SOL    HW1 7847   6.751   1.798   1.062 -0.6924  3.8152  0.4237
 2316SOL    HW2 7848   6.887   1.769   1.148 -0.6966 -2.6872 -1.2313
 2317SOL     OW 7849   3.411   3.913   3.393  0.0016  0.0620 -0.4046
 2317SOL    HW1 7850   3.386   3.854   3.470  0.3861 -1.6296 -1.5394
 2317SOL    HW2 7851   3.486   3.973   3.420  0.0173 -0.3877  0.5847
 2318SOL     OW 7852   3.314   0.845   0.571  0.1690  0.5697  0.5612
 2318SOL    HW1 7853   3.304   0.936   0.611 -1.4238  1.0351 -0.7887
 2318SOL    HW2 7854   3.225   0.800   0.567  0.7613 -0.6042  0.1715
 2319SOL     OW 7855   4.380   4.981   4.068 -0.0026 -0.0098 -0.6672
 2319SOL    HW1 7856   4.470   5.009   4.101 -0.6312  1.6015 -0.1906
 2319SOL    HW2 7857   4.310   5.018   4.129 -0.9547 -2.9147  0.1397
 2320SOL     OW 7858   6.545   2.317   2.651 -0.1628 -0.4962  0.4237
 2320SOL    HW1 7859   6.496   2.249   2.596  0.6116 -1.3346  0.7245
 2320SOL    HW2 7860   6.625   2.349   2.600  0.0286 -0.5633  0.6780
 2321SOL     OW 7861   1.138   3.404   4.111  0.4809 -0.1778  0.6370
 2321SOL    HW1 7862   1.212   3.385   4.047  1.3273 -0.0250  1.5369
 2321SOL    HW2 7863   1.051   3.403   4.063  0.7842 -2.8541 -0.0291
 2322SOL     OW 7864   6.991   2.754   2.124 -0.7681  0.0168 -0.0836
 2322SOL    HW1 7865   7.004   2.741   2.025 -1.3049  1.7112 -0.4051
 2322SOL    HW2 7866   6.964   2.667   2.165 -1.7690 -0.4713 -1.6537
 2323SOL     OW 7867   6.073   4.688   1.801 -1.0176 -0.1134  0.7009
 2323SOL    HW1 7868   6.117   4.670   1.713  0.3930  1.7043  0.9632
 2323SOL    HW2 7869   5.980   4.723   1.786 -1.1867 -0.8374  0.0073
 2324SOL     OW 7870   4.290   4.182   6.020  1.1430  0.1110  0.7337
 2324SOL    HW1 7871   4.304   4.237   5.938 -0.4715 -0.2559  0.1591
 2324SOL    HW2 7872   4.193   4.155   6.026  1.3667 -0.4663  2.3854
 2325SOL     OW 7873   2.166   6.166   2.378  0.0882 -0.0842 -0.4582
 2325SOL    HW1 7874   2.121   6.115   2.304  0.6529  0.0005 -0.8644
 2325SOL    HW2 7875   2.101   6.180   2.453 -0.9036  0.9323 -1.4635
 2326SOL     OW 7876   1.014   6.306   2.613 -0.2425  0.4561 -0.0146
 2326SOL    HW1 7877   0.955   6.360   2.553  0.7715 -0.1194 -1.5881
 2326SOL    HW2 7878   1.020   6.351   2.702 -1.5431  1.5059 -0.4211
 2327SOL     OW 7879   4.507   2.478   1.396  0.4840  0.0630  0.3267
 2327SOL    HW1 7880   4.428   2.532   1.425 -0.0254 -0.8994  0.7661
 2327SOL    HW2 7881   4.535   2.417   1.470  1.3129  0.0028 -0.0184
 2328SOL     OW 7882   3.872   2.875   1.464  0.4997  0.4995  0.2890
 2328SOL    HW1 7883   3.809   2.823   1.522 -0.9955  1.5510 -0.3349
 2328SOL    HW2 7884   3.820   2.936   1.404  2.0695  0.6162 -1.0394
 2329SOL     OW 7885   0.685   2.153   2.907 -0.2219  0.0609 -0.2737
 2329SOL    HW1 7886   0.710   2.234   2.961  0.3943 -0.7814  0.7252
 2329SOL    HW2 7887   0.591   2.126   2.929  0.6159 -1.3779  1.8478
 2330SOL     OW 7888   2.229   1.062   1.373 -0.8886  0.4887 -0.1564
 2330SOL    HW1 7889   2.152   1.048   1.311 -0.9138 -0.5880  0.1000
 2330SOL    HW2 7890   2.314   1.037   1.326 -0.5438  2.5933 -0.7771
 2331SOL     OW 7891   1.385   5.363   5.779 -0.2542 -0.3268 -1.0065
 2331SOL    HW1 7892   1.443   5.287   5.752  0.3885  0.3561 -1.5600
 2331SOL    HW2 7893   1.420   5.448   5.741 -1.2494  0.1895 -0.8123
 2332SOL     OW 7894   1.352   3.491   3.857  0.6279  0.1541  0.2078
 2332SOL    HW1 7895   1.450   3.492   3.840  1.0285 -3.8511  1.2140
 2332SOL    HW2 7896   1.308   3.424   3.798 -1.1721  0.3866  1.1901
 2333SOL     OW 7897   1.411   4.439   3.962  0.2898 -0.5907  0.5002
 2333SOL    HW1 7898   1.468   4.391   4.028  1.2233 -1.9524 -1.2284
 2333SOL    HW2 7899   1.341   4.377   3.926  0.4194 -0.1694 -0.5095
 2334SOL     OW 7900   3.151   3.227   1.999 -0.4209  0.3570 -0.0961
 2334SOL    HW1 7901   3.152   3.214   2.098  0.7959 -0.0796 -0.1425
 2334SOL    HW2 7902   3.142   3.325   1.979 -0.2596  0.4921  0.4597
 2335SOL     OW 7903   6.483   6.071   3.636 -0.1480  0.4137 -0.2859
 2335SOL    HW1 7904   6.513   6.145   3.697  0.8767  0.3863 -0.7375
 2335SOL    HW2 7905   6.524   6.083   3.546  0.6434 -1.1105 -0.1610
 2336SOL     OW 7906   2.242   0.342   2.688  0.1281  0.1456  0.5161
 2336SOL    HW1 7907   2.237   0.313   2.593 -0.6495  0.2107  0.5362
 2336SOL    HW2 7908   2.338   0.352   2.714  0.3611 -0.4604 -0.0783
 2337SOL     OW 7909   2.947   5.961   1.168 -0.2719 -0.2934  0.5622
 2337SOL    HW1 7910   2.975   5.968   1.264 -0.7002  0.9145  0.6150
 2337SOL    HW2 7911   2.997   6.029   1.114 -0.6624 -0.3863  0.0812
 2338SOL     OW 7912   0.110   6.159   3.147  0.2298  0.9181  0.1114
 2338SOL    HW1 7913   0.103   6.078   3.089 -1.7795  0.9188  0.2603
 2338SOL    HW2 7914   0.185   6.148   3.213 -1.6624 -2.1317  2.0049
 2339SOL     OW 7915   3.942   3.830   6.380 -0.5247  0.4067 -0.1223
 2339SOL    HW1 7916   3.963   3.766   6.306 -2.7477 -2.1047  1.2006
 2339SOL    HW2 7917   3.936   3.923   6.344  0.8204 -0.3680 -2.5726
 2340SOL     OW 7918   4.268   0.835   6.095 -0.3281  0.0936 -0.6063
 2340SOL    HW1 7919   4.295   0.739   6.100 -0.9696 -0.1530 -1.5419
 2340SOL    HW2 7920   4.344   0.889   6.058 -0.2995 -0.2196 -1.0148
 2341SOL     OW 7921   1.003   5.280   6.706 -0.0810 -0.0457 -0.0117
 2341SOL    HW1 7922   0.982   5.324   6.794  1.8903 -0.1310  0.5570
 2341SOL    HW2 7923   1.007   5.181   6.719  0.4254 -0.0460 -0.1253
 2342SOL     OW 7924   0.693   0.806   4.343  0.1777 -0.2166  0.6064
 2342SOL    HW1 7925   0.669   0.817   4.440  1.7850 -1.3977  1.1850
 2342SOL    HW2 7926   0.769   0.741   4.335  0.2450  0.0600 -1.4434
 2343SOL     OW 7927   3.560   3.052   5.789 -0.5474 -0.2305  0.2561
 2343SOL    HW1 7928   3.622   3.065   5.866 -0.7525  2.2781  0.0586
 2343SOL    HW2 7929   3.608   3.076   5.704 -0.2767 -3.0809 -0.5092
 2344SOL     OW 7930   0.164   1.283   5.437 -0.1465 -0.1663 -0.3559
 2344SOL    HW1 7931   0.254   1.277   5.393 -0.9274 -1.9321 -1.9050
 2344SOL    HW2 7932   0.175   1.289   5.536  1.6670  0.5408 -0.5606
 2345SOL     OW 7933   6.856   0.584   4.139  0.2970  0.0805  0.0854
 2345SOL    HW1 7934   6.806   0.642   4.205  0.0647  1.0978 -0.9491
 2345SOL    HW2 7935   6.791   0.523   4.093  0.3756 -0.2394  0.3940
 2346SOL     OW 7936   5.472   1.285   5.010 -0.4047  0.0985  0.0391
 2346SOL    HW1 7937   5.387   1.305   4.962  0.3310  1.2796 -0.8439
 2346SOL    HW2 7938   5.473   1.335   5.097 -1.2055 -1.0566  0.7344
 2347SOL     OW 7939   2.325   6.028   3.485  0.1661 -0.5100  0.2461
 2347SOL    HW1 7940   2.377   5.992   3.407 -0.3125 -0.0037 -0.3111
 2347SOL    HW2 7941   2.386   6.079   3.546  0.2084  0.6822 -0.7711
 2348SOL     OW 7942   2.520   4.942   2.367 -0.1826  0.3476 -0.5452
 2348SOL    HW1 7943   2.589   4.874   2.341  0.3663  0.6070  0.1742
 2348SOL    HW2 7944   2.456   4.956   2.292 -0.9297 -1.7243 -0.3619
 2349SOL     OW 7945   5.751   0.310   3.957  0.2409 -0.0628 -0.0552
 2349SOL    HW1 7946   5.762   0.342   3.862  0.9808 -0.4238 -0.0987
 2349SOL    HW2 7947   5.841   0.303   4.000  0.2441 -2.8944 -0.3131
 2350SOL     OW 7948   4.919   5.200   4.735  0.0272  0.2439  0.5018
 2350SOL    HW1 7949   5.011   5.238   4.744  0.4090 -0.8528  1.3163
 2350SOL    HW2 7950   4.879   5.232   4.649  2.0141 -1.0251 -0.9790
 2351SOL     OW 7951   1.243   6.911   6.539  0.1070 -1.3169 -0.2902
 2351SOL    HW1 7952   1.170   6.945   6.480 -0.0803 -3.0777 -1.1073
 2351SOL    HW2 7953   1.322   6.974   6.534 -1.9372  1.7628  2.1558
 2352SOL     OW 7954   5.033   0.082   6.634  0.1172 -0.5534 -0.3229
 2352SOL    HW1 7955   5.078   0.109   6.549  0.5876 -0.4942 -0.0601
 2352SOL    HW2 7956   4.934   0.081   6.621  0.2222 -2.2101 -1.3819
 2353SOL     OW 7957   6.185   5.722   6.192  0.2801  0.0982  0.0828
 2353SOL    HW1 7958   6.256   5.658   6.164 -1.0853 -2.1216  1.4493
 2353SOL    HW2 7959   6.095   5.681   6.180 -0.6880  1.9326  0.5882
 2354SOL     OW 7960   5.423   0.512   4.565  0.0839 -0.2833 -0.1927
 2354SOL    HW1 7961   5.489   0.481   4.634  0.0781  0.3673  0.1132
 2354SOL    HW2 7962   5.457   0.595   4.521  0.5548 -1.2207 -1.6813
 2355SOL     OW 7963   4.500   4.463   2.502  0.4917  0.2064  0.1454
 2355SOL    HW1 7964   4.469   4.496   2.591  0.6987 -0.9884  0.6798
 2355SOL    HW2 7965   4.446   4.506   2.429 -0.2709  0.5342  0.8945
 2356SOL     OW 7966   2.236   6.822   2.033 -0.2423  0.9901  0.4640
 2356SOL    HW1 7967   2.234   6.911   1.987  1.6861 -0.2911 -2.4260
 2356SOL    HW2 7968   2.169   6.762   1.990  3.7057 -1.2183 -3.3635
 2357SOL     OW 7969   1.669   6.597   4.320 -0.1147  0.2395  0.2039
 2357SOL    HW1 7970   1.719   6.641   4.394 -0.6300 -0.5708  1.0455
 2357SOL    HW2 7971   1.692   6.642   4.233  1.3849  0.4408  0.6786
 2358SOL     OW 7972   4.808   2.945   2.926 -0.2371 -0.5705  0.5593
 2358SOL    HW1 7973   4.743   2.897   2.867  2.5864 -4.1062 -0.0255
 2358SOL    HW2 7974   4.833   3.032   2.884 -2.0314 -0.6702 -0.8530
 2359SOL     OW 7975   1.921   1.751   0.524  0.3602 -0.0257 -0.2826
 2359SOL    HW1 7976   2.001   1.798   0.487 -0.8782  0.6776 -2.2216
 2359SOL    HW2 7977   1.855   1.736   0.451 -2.7230  2.3400  1.7452
 2360SOL     OW 7978   6.372   3.536   3.484 -1.2781 -0.0554  0.2256
 2360SOL    HW1 7979   6.441   3.540   3.413  0.9822  0.0279  2.3067
 2360SOL    HW2 7980   6.310   3.459   3.466 -0.5134 -0.2956 -1.5471
 2361SOL     OW 7981   7.007   6.459   0.181 -0.2288 -0.5046  0.4459
 2361SOL    HW1 7982   7.049   6.499   0.263  2.8267 -0.3054 -1.0567
 2361SOL    HW2 7983   7.079   6.439   0.114 -2.5218 -1.3660 -1.9122
 2362SOL     OW 7984   4.323   3.328   1.726 -0.2204  0.1765  0.0183
 2362SOL    HW1 7985   4.387   3.252   1.712 -1.6161 -0.9967 -0.2401
 2362SOL    HW2 7986   4.326   3.390   1.648 -1.2492 -1.2873 -1.2328
 2363SOL     OW 7987   3.122   6.353   1.745 -0.0339 -1.0061  0.5851
 2363SOL    HW1 7988   3.138   6.345   1.646 -1.5309 -0.1145  0.2344
 2363SOL    HW2 7989   3.037   6.403   1.760  0.3153 -0.9075  2.3493
 2364SOL     OW 7990   6.101   1.167   3.567 -0.2044 -0.5833  0.2742
 2364SOL    HW1 7991   6.085   1.143   3.472 -1.9226 -0.8090  0.5995
 2364SOL    HW2 7992   6.103   1.084   3.623  1.1311 -0.4800  0.4134
 2365SOL     OW 7993   6.258   0.316   2.052  0.1796  0.0175  0.0826
 2365SOL    HW1 7994   6.353   0.289   2.069  0.2045  1.6350  3.2008
 2365SOL    HW2 7995   6.256   0.408   2.013 -0.1496 -0.3890 -0.9152
 2366SOL     OW 7996   2.716   5.828   3.187  0.3154  0.2056 -0.4301
 2366SOL    HW1 7997   2.744   5.790   3.276  0.1844  0.4623 -0.2773
 2366SOL    HW2 7998   2.791   5.819   3.122 -0.0417 -1.1924 -0.6710
 2367SOL     OW 7999   3.792   3.031   3.027  0.2303  0.4902  0.5162
 2367SOL    HW1 8000   3.760   3.112   3.077  0.1494 -1.2145  3.5070
 2367SOL    HW2 8001   3.780   2.951   3.085 -3.8299 -2.5299 -3.7913
 2368SOL     OW 8002   0.537   6.480   0.088  0.0476 -0.3057 -0.6539
 2368SOL    HW1 8003   0.601   6.557   0.091 -0.1879 -0.1232  1.7536
 2368SOL    HW2 8004   0.576   6.403   0.138 -1.8094  0.0390  1.5116
 2369SOL     OW 8005   1.687   3.253   0.697  0.2636  0.1556 -0.3377
 2369SOL    HW1 8006   1.650   3.332   0.649  0.2086 -0.3794 -1.2041
 2369SOL    HW2 8007   1.724   3.282   0.785  0.1100  1.1148 -0.5732
 2370SOL     OW 8008   5.454   3.469   6.270 -0.4037 -0.3289  0.1340
 2370SOL    HW1 8009   5.449   3.439   6.175  0.8472  2.3298 -0.8810
 2370SOL    HW2 8010   5.531   3.424   6.315  0.1522 -0.2369 -0.7019
 2371SOL     OW 8011   1.482   4.057   6.779  0.3042 -0.1248 -0.1359
 2371SOL    HW1 8012   1.478   3.959   6.803 -0.9581  0.0740  0.5825
 2371SOL    HW2 8013   1.485   4.111   6.863  1.6688  0.4612 -0.5314
 2372SOL     OW 8014   2.082   3.375   5.452 -0.9582  0.4264  0.2533
 2372SOL    HW1 8015   2.046   3.350   5.362  0.6641  1.3115 -0.6780
 2372SOL    HW2 8016   2.039   3.317   5.522  0.0171 -2.4949 -1.4009
 2373SOL     OW 8017   0.488   4.291   5.083 -0.2694  0.0163  0.3052
 2373SOL    HW1 8018   0.501   4.221   5.154 -2.3666 -1.0760 -0.3061
 2373SOL    HW2 8019   0.448   4.372   5.124  0.4433  0.1725  0.7067
 2374SOL     OW 8020   2.425   5.479   5.968  0.2328 -0.3553  0.2415
 2374SOL    HW1 8021   2.362   5.449   5.897  0.2626  1.2577 -0.4999
 2374SOL    HW2 8022   2.430   5.579   5.969  0.9297 -0.3662  1.9152
 2375SOL     OW 8023   6.157   4.165   6.911 -0.3324  0.6306  0.6856
 2375SOL    HW1 8024   6.198   4.242   6.863 -0.7708 -0.0229 -0.7855
 2375SOL    HW2 8025   6.191   4.080   6.872 -3.2326  0.0361 -0.8093
 2376SOL     OW 8026   2.104   3.092   5.654 -0.2879 -0.0166  0.0573
 2376SOL    HW1 8027   2.059   3.068   5.569 -0.6483  1.1047 -0.0795
 2376SOL    HW2 8028   2.195   3.129   5.635  0.3272 -1.3479  0.2765
 2377SOL     OW 8029   5.618   0.264   1.523 -0.2849  0.9229  0.7125
 2377SOL    HW1 8030   5.561   0.259   1.441  0.1961 -0.8894  0.4529
 2377SOL    HW2 8031   5.593   0.190   1.586  0.1913  1.5361  1.6456
 2378SOL     OW 8032   1.688   0.893   0.964  0.1316 -0.2216 -0.2656
 2378SOL    HW1 8033   1.767   0.875   1.022  0.0821  1.4611  0.3811
 2378SOL    HW2 8034   1.719   0.930   0.876  0.1856 -2.4136 -1.2258
 2379SOL     OW 8035   0.832   3.264   4.022  0.0439  0.1839 -0.2292
 2379SOL    HW1 8036   0.844   3.355   3.981 -1.2706  0.3057 -0.3672
 2379SOL    HW2 8037   0.903   3.203   3.987  0.1949  0.8305 -1.0918
 2380SOL     OW 8038   0.382   0.264   1.079  0.0095  0.1615 -0.3214
 2380SOL    HW1 8039   0.328   0.212   1.145  1.9817  0.2609  1.5032
 2380SOL    HW2 8040   0.380   0.361   1.102  0.9093  0.1714 -0.2204
 2381SOL     OW 8041   1.444   0.316   1.703 -0.1812 -0.6289  0.0455
 2381SOL    HW1 8042   1.365   0.362   1.743  0.8112  0.5744  0.7043
 2381SOL    HW2 8043   1.437   0.217   1.719 -1.7181 -0.5858 -0.2451
 2382SOL     OW 8044   3.958   6.002   5.347 -0.2414 -0.1843 -0.3764
 2382SOL    HW1 8045   3.922   6.088   5.310 -0.5670 -0.0622  0.2004
 2382SOL    HW2 8046   4.030   6.022   5.414 -1.1994 -0.2840  0.7208
 2383SOL     OW 8047   1.099   0.618   6.049 -0.6025 -0.2074  0.4215
 2383SOL    HW1 8048   1.066   0.602   6.142 -1.2402 -0.5597  0.1388
 2383SOL    HW2 8049   1.058   0.552   5.986 -1.3126  0.9313 -0.3499
 2384SOL     OW 8050   0.061   5.492   1.949  0.1523 -0.1053  0.1882
 2384SOL    HW1 8051   0.019   5.523   1.864 -1.1532 -2.5455 -0.1339
 2384SOL    HW2 8052   0.152   5.534   1.959 -0.0701  0.9789 -1.8887
 2385SOL     OW 8053   6.198   3.621   5.894  0.0221  0.2081 -0.1254
 2385SOL    HW1 8054   6.185   3.683   5.816 -2.0859  1.2189  0.9353
 2385SOL    HW2 8055   6.147   3.656   5.972  2.1272 -0.7323  1.7783
 2386SOL     OW 8056   2.579   4.674   4.747 -0.1027 -0.0420 -0.4415
 2386SOL    HW1 8057   2.552   4.607   4.816 -0.0869  1.0842  0.6828
 2386SOL    HW2 8058   2.668   4.713   4.770  0.0519  0.1262 -1.2734
 2387SOL     OW 8059   5.722   1.562   0.493  0.1053  0.1648 -0.0800
 2387SOL    HW1 8060   5.806   1.508   0.494  0.3231  0.4972 -0.3495
 2387SOL    HW2 8061   5.693   1.576   0.399  0.1408  0.6592 -0.0197
 2388SOL     OW 8062   1.146   2.277   5.685  0.2299 -0.0049 -0.7624
 2388SOL    HW1 8063   1.116   2.370   5.707  0.5317 -0.1523  0.3525
 2388SOL    HW2 8064   1.146   2.222   5.768  2.7007 -0.2649 -0.8652
 2389SOL     OW 8065   0.860   3.622   5.595 -0.3921 -0.2720 -0.5038
 2389SOL    HW1 8066   0.930   3.654   5.531  0.1331  0.8420  0.6002
 2389SOL    HW2 8067   0.900   3.553   5.656 -0.5593 -0.4294 -0.5699
 2390SOL     OW 8068   2.915   3.309   4.039 -0.1637  0.1914 -0.0116
 2390SOL    HW1 8069   2.954   3.222   4.008 -0.3234  0.1033  0.0376
 2390SOL    HW2 8070   2.957   3.384   3.987 -0.8182  0.0113 -0.8137
 2391SOL     OW 8071   3.894   2.100   3.814 -0.0198  0.3533 -0.0217
 2391SOL    HW1 8072   3.954   2.105   3.893  0.2308 -1.0471 -0.1052
 2391SOL    HW2 8073   3.936   2.149   3.737  0.8650 -0.3135  0.0216
 2392SOL     OW 8074   4.685   1.122   0.300 -0.3348 -0.6331  0.1229
 2392SOL    HW1 8075   4.598   1.170   0.301 -0.4282 -0.7987 -0.0076
 2392SOL    HW2 8076   4.670   1.026   0.325  0.0919 -0.1897  2.3477
 2393SOL     OW 8077   3.002   0.389   4.506  0.2199 -0.4212 -0.1463
 2393SOL    HW1 8078   3.034   0.299   4.479  0.9419 -0.4961  0.9120
 2393SOL    HW2 8079   3.048   0.417   4.590 -1.5880  0.0029  0.7472
 2394SOL     OW 8080   5.885   0.279   5.056  0.2137 -0.1605 -0.3848
 2394SOL    HW1 8081   5.945   0.239   4.986  0.7493 -1.1208  0.5964
 2394SOL    HW2 8082   5.884   0.378   5.045  1.3732 -0.1830 -0.9242
 2395SOL     OW 8083   5.535   0.009   6.057  0.3098  0.6546 -0.4850
 2395SOL    HW1 8084   5.473   0.001   5.979  1.0880  1.9225 -1.2586
 2395SOL    HW2 8085   5.612   0.069   6.033  2.1704 -1.3040  0.2375
 2396SOL     OW 8086   3.733   5.604   2.771  0.6138 -0.4400  0.1791
 2396SOL    HW1 8087   3.651   5.659   2.788  1.1733  0.3535  0.4243
 2396SOL    HW2 8088   3.808   5.665   2.742  1.2779 -1.0702  0.5410
 2397SOL     OW 8089   1.302   1.096   1.743 -0.0293 -0.3481  0.3404
 2397SOL    HW1 8090   1.359   1.016   1.726 -0.1754 -0.3491 -0.1599
 2397SOL    HW2 8091   1.217   1.068   1.789 -1.2306 -0.8633 -2.0408
 2398SOL     OW 8092   5.802   2.848   3.113  0.9119  0.6215  0.1538
 2398SOL    HW1 8093   5.836   2.942   3.116 -1.6513  1.6017  0.7735
 2398SOL    HW2 8094   5.749   2.829   3.195 -0.9027 -0.4332 -1.1968
 2399SOL     OW 8095   5.218   1.624   1.186  0.5512 -0.2640  0.5246
 2399SOL    HW1 8096   5.152   1.557   1.153 -0.0933  1.0197 -0.9747
 2399SOL    HW2 8097   5.282   1.646   1.112  0.8163  0.6734  1.0170
 2400SOL     OW 8098   6.484   0.927   5.310 -0.0779  0.1207 -0.0662
 2400SOL    HW1 8099   6.405   0.900   5.255  0.7573 -3.3333  0.2166
 2400SOL    HW2 8100   6.563   0.940   5.250 -0.1721  0.7779 -0.0618
 2401SOL     OW 8101   6.587   4.909   5.071  0.2364 -0.5871 -0.2018
 2401SOL    HW1 8102   6.506   4.957   5.104  1.5362  1.9625 -0.5030
 2401SOL    HW2 8103   6.668   4.945   5.117  1.4725 -1.1633 -1.8548
 2402SOL     OW 8104   1.948   0.366   4.400 -0.2901  0.7296 -0.2234
 2402SOL    HW1 8105   1.926   0.420   4.482 -0.4701 -1.6764  1.4189
 2402SOL    HW2 8106   1.863   0.337   4.356 -0.5235 -2.9264  2.2596
 2403SOL     OW 8107   1.370   1.388   3.307  0.5356  0.0433 -0.3489
 2403SOL    HW1 8108   1.371   1.483   3.275  0.9533  0.2815  0.3637
 2403SOL    HW2 8109   1.276   1.354   3.308 -0.2610  1.8592  3.5189
 2404SOL     OW 8110   1.973   3.366   2.795  0.2412  0.6577  0.1241
 2404SOL    HW1 8111   2.013   3.399   2.880  0.4799 -1.6093  0.9474
 2404SOL    HW2 8112   2.028   3.291   2.758 -1.6709 -0.6818 -0.1878
 2405SOL     OW 8113   0.283   6.948   3.078  0.1239 -0.0446  0.1927
 2405SOL    HW1 8114   0.362   6.947   3.015 -0.4255  0.1482 -0.5166
 2405SOL    HW2 8115   0.210   6.892   3.040  0.3581 -1.2529  1.4610
 2406SOL     OW 8116   0.369   4.422   2.960  0.2890  0.2048  0.3107
 2406SOL    HW1 8117   0.464   4.399   2.984 -0.0282 -1.0639  0.3791
 2406SOL    HW2 8118   0.322   4.341   2.927 -0.9318  0.7255  0.7330
 2407SOL     OW 8119   2.585   6.084   6.884  0.4826  0.3055  0.3652
 2407SOL    HW1 8120   2.644   6.035   6.820  2.1514  0.6691  1.5346
 2407SOL    HW2 8121   2.642   6.131   6.952 -1.1252  1.9988  0.6238
 2408SOL     OW 8122   3.772   2.971   4.664 -0.0951 -0.0013 -0.4906
 2408SOL    HW1 8123   3.696   2.932   4.717 -0.0760  0.7169  0.0866
 2408SOL    HW2 8124   3.858   2.929   4.693 -0.0388  0.6789  0.3466
 2409SOL     OW 8125   2.877   0.479   1.352  0.2169 -0.4821 -0.1837
 2409SOL    HW1 8126   2.833   0.427   1.426  0.3316  0.0923  0.2928
 2409SOL    HW2 8127   2.875   0.576   1.374  1.0352 -0.3846 -0.5230
 2410SOL     OW 8128   2.963   0.497   4.790  0.7452  0.0385  0.2238
 2410SOL    HW1 8129   2.928   0.582   4.750 -0.0490  0.5198  1.8584
 2410SOL    HW2 8130   2.893   0.427   4.783  0.3210  0.3345  1.4039
 2411SOL     OW 8131   3.103   5.612   3.957  0.2126 -0.5466 -0.7171
 2411SOL    HW1 8132   3.044   5.586   4.033 -1.7406 -0.2135 -2.0386
 2411SOL    HW2 8133   3.198   5.620   3.989 -0.4133 -1.1835  1.4629
 2412SOL     OW 8134   4.610   5.296   0.769  0.1538 -0.2142 -0.0915
 2412SOL    HW1 8135   4.571   5.316   0.679  0.3628 -0.8534 -0.3307
 2412SOL    HW2 8136   4.657   5.208   0.766 -2.2541 -1.6603  1.3522
 2413SOL     OW 8137   6.114   5.674   2.502  0.1375 -0.4039  0.1366
 2413SOL    HW1 8138   6.174   5.731   2.559  1.1673 -0.4395 -0.8748
 2413SOL    HW2 8139   6.039   5.638   2.558  1.0489 -0.3486  1.4397
 2414SOL     OW 8140   5.713   6.419   4.805  0.3346 -0.2606 -0.5056
 2414SOL    HW1 8141   5.688   6.409   4.709 -1.9747 -0.5430  0.0595
 2414SOL    HW2 8142   5.675   6.343   4.858  1.1269  0.1579  0.7217
 2415SOL     OW 8143   1.371   1.713   5.279  0.6781 -0.2559 -0.0711
 2415SOL    HW1 8144   1.356   1.718   5.180 -0.8346  0.2725  0.1558
 2415SOL    HW2 8145   1.459   1.755   5.302  0.9180 -0.1279 -1.1564
 2416SOL     OW 8146   3.851   3.396   3.400 -0.5933  0.5201  0.2134
 2416SOL    HW1 8147   3.903   3.380   3.484  0.2179  0.8537 -0.2145
 2416SOL    HW2 8148   3.820   3.308   3.364 -1.2251  0.3966  1.0224
 2417SOL     OW 8149   1.476   1.740   0.906  0.1512 -0.3414  0.1960
 2417SOL    HW1 8150   1.567   1.723   0.943  0.5870  0.3721 -0.5266
 2417SOL    HW2 8151   1.411   1.676   0.947  1.0933 -1.3319  0.1867
 2418SOL     OW 8152   2.809   5.193   6.061 -0.3478  0.0690 -0.1310
 2418SOL    HW1 8153   2.803   5.114   6.000  1.2113 -0.4934  0.4112
 2418SOL    HW2 8154   2.899   5.234   6.054 -0.7208  1.0357  0.5566
 2419SOL     OW 8155   4.090   2.156   6.719  0.5594 -0.3384  0.1318
 2419SOL    HW1 8156   4.024   2.198   6.656  1.6091  1.1165 -0.0488
 2419SOL    HW2 8157   4.050   2.152   6.810 -0.3606 -0.9390 -0.2757
 2420SOL     OW 8158   5.169   6.562   5.955  0.4016  0.3694  0.7333
 2420SOL    HW1 8159   5.175   6.473   6.000 -1.1824  0.0020  0.2867
 2420SOL    HW2 8160   5.243   6.621   5.987  2.4578 -1.6009 -0.1241
 2421SOL     OW 8161   0.421   1.735   6.404 -0.1326  0.4682 -0.1620
 2421SOL    HW1 8162   0.467   1.783   6.478  3.3018 -1.8868 -0.5532
 2421SOL    HW2 8163   0.477   1.739   6.321 -0.4494 -2.7194 -0.6400
 2422SOL     OW 8164   7.017   0.645   6.246 -0.2781  0.7516 -0.4814
 2422SOL    HW1 8165   7.044   0.698   6.327  0.3134  0.2637 -0.3542
 2422SOL    HW2 8166   6.917   0.646   6.238 -0.3976  0.2659  0.6358
 2423SOL     OW 8167   2.670   2.780   0.308 -0.0937 -0.8315 -0.4292
 2423SOL    HW1 8168   2.616   2.781   0.224 -1.4773  0.9445  0.4182
 2423SOL    HW2 8169   2.766   2.766   0.286 -0.7278 -3.2297 -2.0513
 2424SOL     OW 8170   0.614   3.735   0.483  0.0423  0.3489 -0.1359
 2424SOL    HW1 8171   0.712   3.741   0.504  0.4245 -0.2976 -1.6063
 2424SOL    HW2 8172   0.563   3.711   0.566  1.0287  1.3975  0.8080
 2425SOL     OW 8173   5.110   2.422   4.730 -0.0213  0.1017  0.7846
 2425SOL    HW1 8174   5.021   2.398   4.771  0.0313  0.0560  0.8728
 2425SOL    HW2 8175   5.183   2.384   4.785  0.0344 -0.7021  0.1634
 2426SOL     OW 8176   0.385   2.924   5.395 -0.1586 -0.8811 -0.1014
 2426SOL    HW1 8177   0.421   3.010   5.431 -0.1884 -0.8195 -0.2176
 2426SOL    HW2 8178   0.461   2.869   5.359 -0.1595 -0.8255 -0.1901
 2427SOL     OW 8179   5.097   4.915   4.803  0.2427  0.0398  0.3427
 2427SOL    HW1 8180   5.064   4.938   4.711  0.2246  0.3880  0.4334
 2427SOL    HW2 8181   5.061   4.826   4.830  0.8320 -0.3976 -0.2776
 2428SOL     OW 8182   3.555   5.217   1.603  0.3408  0.1657  0.6320
 2428SOL    HW1 8183   3.575   5.131   1.650  1.4467 -0.0953 -0.2617
 2428SOL    HW2 8184   3.458   5.221   1.578  0.5105 -1.3917 -0.3885
 2429SOL     OW 8185   3.031   4.828   2.550  0.2165 -0.2326 -0.0397
 2429SOL    HW1 8186   3.055   4.830   2.453  0.1159  3.2077 -0.1084
 2429SOL    HW2 8187   3.114   4.845   2.604 -0.1585  0.5519  0.3029
 2430SOL     OW 8188   5.602   6.116   4.267 -0.1185 -0.2030 -0.0027
 2430SOL    HW1 8189   5.676   6.181   4.248  1.5135 -2.2431 -1.0833
 2430SOL    HW2 8190   5.514   6.163   4.262  0.9500  1.8072 -1.2239
 2431SOL     OW 8191   1.661   6.538   3.561  0.2580 -0.3081  0.0679
 2431SOL    HW1 8192   1.635   6.594   3.483 -0.0421 -0.7514 -0.1569
 2431SOL    HW2 8193   1.676   6.444   3.531  5.1014  0.3742 -0.4449
 2432SOL     OW 8194   4.014   4.724   0.903 -0.4069  0.1300  0.6707
 2432SOL    HW1 8195   4.087   4.657   0.918  0.5100  0.8680 -0.3565
 2432SOL    HW2 8196   4.005   4.742   0.805 -0.7785  1.3522  0.9108
 2433SOL     OW 8197   6.946   3.701   3.249  0.7510  0.1101 -0.1105
 2433SOL    HW1 8198   6.903   3.770   3.307  0.8252  0.2623 -0.2356
 2433SOL    HW2 8199   6.995   3.636   3.306 -0.9484 -0.9888  0.1455
 2434SOL     OW 8200   2.833   2.902   6.049 -0.5941  0.2952  0.0309
 2434SOL    HW1 8201   2.914   2.949   6.013  0.1011 -3.4386 -4.2086
 2434SOL    HW2 8202   2.858   2.848   6.129  0.2474  1.6950  0.7457
 2435SOL     OW 8203   0.714   6.015   1.024  0.1370 -0.4076  0.4538
 2435SOL    HW1 8204   0.784   6.042   0.958 -0.6893  0.3069 -0.1595
 2435SOL    HW2 8205   0.630   6.065   1.005  0.0342  0.2545  2.3998
 2436SOL     OW 8206   5.899   4.327   4.701  0.0624  0.0651  0.1865
 2436SOL    HW1 8207   5.860   4.329   4.609 -0.1068  0.7033  0.2669
 2436SOL    HW2 8208   5.976   4.391   4.706  0.0366  0.0729  0.5052
 2437SOL     OW 8209   3.200   6.669   4.271  0.5207 -0.2977 -0.6562
 2437SOL    HW1 8210   3.195   6.575   4.304  0.6306 -0.1796 -0.3018
 2437SOL    HW2 8211   3.268   6.675   4.198  0.7441 -0.4305 -0.4604
 2438SOL     OW 8212   0.492   4.034   3.073  0.3616  0.2286  0.0639
 2438SOL    HW1 8213   0.430   4.040   2.995  0.6821 -1.0206 -0.3101
 2438SOL    HW2 8214   0.439   4.031   3.158 -0.0110  0.9138 -0.1383
 2439SOL     OW 8215   1.704   0.292   6.069 -0.3915  0.4144 -0.0211
 2439SOL    HW1 8216   1.681   0.194   6.073  0.3255  0.2144 -0.6380
 2439SOL    HW2 8217   1.691   0.325   5.976 -0.7415  0.9401  0.2140
 2440SOL     OW 8218   3.283   6.317   3.959  0.0633  0.2843  0.6193
 2440SOL    HW1 8219   3.262   6.247   3.891 -1.3907 -0.5882  1.8899
 2440SOL    HW2 8220   3.356   6.284   4.019 -0.1772  0.1284  0.8258
 2441SOL     OW 8221   1.862   5.734   0.312  0.3270 -0.2927  0.1311
 2441SOL    HW1 8222   1.806   5.796   0.257  1.0639  0.8527  0.6309
 2441SOL    HW2 8223   1.886   5.653   0.258  0.5509  0.5259 -1.0365
 2442SOL     OW 8224   0.183   2.648   0.164 -0.4042  0.6101  0.4301
 2442SOL    HW1 8225   0.220   2.687   0.080 -1.2409 -0.7892 -0.6235
 2442SOL    HW2 8226   0.228   2.560   0.182 -0.8639  0.4778  0.9582
 2443SOL     OW 8227   6.012   2.296   1.662 -0.1687  0.0003  0.3006
 2443SOL    HW1 8228   5.964   2.242   1.593 -1.6426 -1.6296  2.4726
 2443SOL    HW2 8229   5.966   2.287   1.750  1.0172  2.8426  1.3420
 2444SOL     OW 8230   6.963   1.472   5.372  0.1544 -0.1411  0.6545
 2444SOL    HW1 8231   7.026   1.397   5.355 -0.0000 -0.3347  0.9195
 2444SOL    HW2 8232   6.903   1.484   5.294  0.4466 -0.0265  0.4446
 2445SOL     OW 8233   1.204   4.077   4.577  0.1225 -0.7748  0.3917
 2445SOL    HW1 8234   1.199   4.052   4.480  0.8166 -0.2921  0.2206
 2445SOL    HW2 8235   1.169   4.169   4.590  0.4610 -0.6627  0.5234
 2446SOL     OW 8236   0.879   0.517   2.784  0.3567  0.4871  0.2818
 2446SOL    HW1 8237   0.870   0.603   2.834 -1.3394  0.1113  0.6813
 2446SOL    HW2 8238   0.789   0.486   2.755  1.2155  0.2916 -2.3943
 2447SOL     OW 8239   6.273   3.043   0.606  0.6523 -0.1612 -0.3489
 2447SOL    HW1 8240   6.360   3.044   0.556 -0.5035  1.8741 -2.4638
 2447SOL    HW2 8241   6.278   3.107   0.683  0.9756  0.0570 -0.5490
 2448SOL     OW 8242   5.667   5.902   4.047  0.0690  0.2526 -0.1888
 2448SOL    HW1 8243   5.711   5.979   4.095 -0.2441 -0.2743  0.9828
 2448SOL    HW2 8244   5.682   5.818   4.099  0.3409 -0.4793 -1.4185
 2449SOL     OW 8245   0.147   2.918   1.370 -0.1797  0.2732  0.1291
 2449SOL    HW1 8246   0.226   2.916   1.309 -0.8534  2.2517 -0.9031
 2449SOL    HW2 8247   0.067   2.953   1.320 -1.0026  1.0132  1.8602
 2450SOL     OW 8248   5.757   5.998   4.474  0.6761  0.4785 -0.0296
 2450SOL    HW1 8249   5.696   6.022   4.399 -0.4040 -0.6539  0.4498
 2450SOL    HW2 8250   5.719   5.921   4.525  2.1182  0.2653  0.7906
 2451SOL     OW 8251   5.222   0.542   4.756  0.9698  0.0220 -0.0208
 2451SOL    HW1 8252   5.248   0.555   4.852 -0.4013  0.4279  0.3210
 2451SOL    HW2 8253   5.304   0.548   4.698  1.5183  2.3311  0.8651
 2452SOL     OW 8254   5.362   3.710   6.603 -0.4119  0.2694  0.0666
 2452SOL    HW1 8255   5.431   3.764   6.554  0.5318 -0.2467  0.7960
 2452SOL    HW2 8256   5.349   3.749   6.694 -1.1273  0.3952 -0.0894
 2453SOL     OW 8257   5.520   6.950   5.645  0.3515  0.1595 -0.0796
 2453SOL    HW1 8258   5.584   6.974   5.572  0.2755  2.9624  0.6860
 2453SOL    HW2 8259   5.444   7.015   5.647  0.7165  0.6364  2.9078
 2454SOL     OW 8260   0.619   5.672   5.986  0.1501 -0.3749  0.9344
 2454SOL    HW1 8261   0.572   5.721   6.060 -0.1558  1.3050 -0.2980
 2454SOL    HW2 8262   0.654   5.585   6.020  0.7406  0.6976  3.2669
 2455SOL     OW 8263   6.806   2.882   4.943  0.1282 -0.2509 -0.0485
 2455SOL    HW1 8264   6.815   2.968   4.992 -2.2541  0.5348 -0.8361
 2455SOL    HW2 8265   6.886   2.825   4.960  2.4987  2.6588 -0.6521
 2456SOL     OW 8266   3.671   6.098   0.504  0.0931  0.3512 -0.3728
 2456SOL    HW1 8267   3.719   6.096   0.416 -3.0622  2.8309 -2.3833
 2456SOL    HW2 8268   3.661   6.193   0.534 -3.2025  0.0252 -0.0380
 2457SOL     OW 8269   2.605   6.875   1.421 -0.0504 -0.3425  0.0262
 2457SOL    HW1 8270   2.689   6.837   1.382  0.4289  1.7630 -1.1178
 2457SOL    HW2 8271   2.562   6.806   1.480  1.8142 -1.8922 -0.3183
 2458SOL     OW 8272   5.930   3.176   3.658  0.5492  0.0816  0.0215
 2458SOL    HW1 8273   6.009   3.186   3.598 -1.0503  1.4022 -1.9867
 2458SOL    HW2 8274   5.892   3.084   3.648  1.7938 -0.5909  1.0600
 2459SOL     OW 8275   3.557   3.945   5.424 -0.0360  0.1274  0.1337
 2459SOL    HW1 8276   3.495   4.011   5.468 -0.0555 -1.4668  2.6792
 2459SOL    HW2 8277   3.573   3.868   5.486 -0.5220 -2.6587 -2.9213
 2460SOL     OW 8278   0.763   4.378   2.497 -0.5464 -0.4272 -0.3239
 2460SOL    HW1 8279   0.708   4.445   2.447 -0.9564 -0.2922  0.2926
 2460SOL    HW2 8280   0.764   4.402   2.595  1.5546  0.2392 -0.4498
 2461SOL     OW 8281   5.341   5.681   2.328  0.3772  0.0388 -0.2778
 2461SOL    HW1 8282   5.333   5.780   2.339 -0.1581 -0.0104 -0.1911
 2461SOL    HW2 8283   5.334   5.658   2.231 -2.2114 -0.1134 -0.1446
 2462SOL     OW 8284   0.677   3.718   2.237  0.6818  0.3168 -0.1267
 2462SOL    HW1 8285   0.755   3.701   2.297  2.5290  0.7577 -2.2947
 2462SOL    HW2 8286   0.689   3.667   2.152 -3.8649 -3.7598  1.2148
 2463SOL     OW 8287   1.968   3.161   6.864  0.4098 -0.0853  0.3840
 2463SOL    HW1 8288   1.903   3.086   6.877  0.7895 -0.5536 -0.3667
 2463SOL    HW2 8289   1.979   3.211   6.950 -1.5134  0.4738  0.3403
 2464SOL     OW 8290   6.722   0.596   6.186  0.5467  0.2334 -0.1316
 2464SOL    HW1 8291   6.697   0.613   6.091 -0.6041 -1.8278 -0.2636
 2464SOL    HW2 8292   6.688   0.506   6.214  0.0203  1.1529  2.5143
 2465SOL     OW 8293   4.169   0.382   6.063 -0.4804  0.4233  0.2897
 2465SOL    HW1 8294   4.101   0.427   6.122 -0.4883 -0.5169  1.0313
 2465SOL    HW2 8295   4.258   0.426   6.075 -0.7488  1.0298  0.0669
 2466SOL     OW 8296   1.163   6.277   3.015  0.3434 -0.1503 -0.1226
 2466SOL    HW1 8297   1.210   6.335   3.082  2.0030 -0.5195 -0.9123
 2466SOL    HW2 8298   1.176   6.316   2.924 -0.0036 -0.8385 -0.4682
 2467SOL     OW 8299   0.702   4.271   5.877  0.1926 -0.9634  0.0184
 2467SOL    HW1 8300   0.641   4.348   5.858  0.5708 -0.5492  0.4616
 2467SOL    HW2 8301   0.665   4.188   5.836  0.9600 -0.1336 -2.5446
 2468SOL     OW 8302   1.528   4.391   3.364  0.1107  0.0478  0.2552
 2468SOL    HW1 8303   1.529   4.313   3.300  0.7648  0.4568 -0.2505
 2468SOL    HW2 8304   1.607   4.450   3.345 -2.3970  3.0097 -2.0473
 2469SOL     OW 8305   1.995   4.123   6.572 -0.1109  0.4405 -0.1377
 2469SOL    HW1 8306   1.922   4.083   6.628  0.2585 -0.5101 -0.3209
 2469SOL    HW2 8307   1.955   4.164   6.490 -0.2833 -1.9833 -1.3377
 2470SOL     OW 8308   4.754   0.550   0.690 -0.0957 -0.6068  0.7638
 2470SOL    HW1 8309   4.720   0.458   0.710  1.2972 -1.1567  0.6967
 2470SOL    HW2 8310   4.804   0.549   0.603  0.6568  0.0042  1.1756
 2471SOL     OW 8311   1.025   0.394   1.827  0.3139 -0.4904 -0.2934
 2471SOL    HW1 8312   0.978   0.461   1.883 -1.4424 -0.6000 -1.5741
 2471SOL    HW2 8313   1.118   0.381   1.862  0.1928  1.4568  0.8854
 2472SOL     OW 8314   5.370   3.411   5.014 -0.2122 -0.1820  0.1712
 2472SOL    HW1 8315   5.388   3.354   5.094  0.5386  0.4454  0.4641
 2472SOL    HW2 8316   5.306   3.363   4.953  0.8212 -1.5982  0.1350
 2473SOL     OW 8317   2.354   5.941   6.018 -0.0280 -0.4227  0.1575
 2473SOL    HW1 8318   2.368   5.892   5.932 -0.9396 -0.7059  0.1676
 2473SOL    HW2 8319   2.316   6.031   6.000  2.1014  0.5200  0.1033
 2474SOL     OW 8320   1.615   3.193   4.939 -0.3260 -0.8424  1.0072
 2474SOL    HW1 8321   1.714   3.198   4.926 -0.3822  0.2642  0.9025
 2474SOL    HW2 8322   1.570   3.263   4.883 -1.1511 -1.2085  1.1941
 2475SOL     OW 8323   1.310   6.907   4.319  0.0386 -0.1332 -0.0410
 2475SOL    HW1 8324   1.245   6.937   4.389  0.2784 -1.0053  0.5806
 2475SOL    HW2 8325   1.321   6.978   4.250  1.7604  1.8276  2.1309
 2476SOL     OW 8326   4.710   0.671   5.346  0.2431  0.6615 -0.2245
 2476SOL    HW1 8327   4.748   0.637   5.260 -3.2464  0.0416 -1.6974
 2476SOL    HW2 8328   4.683   0.767   5.334 -2.9463 -0.2066 -0.9911
 2477SOL     OW 8329   0.629   6.157   4.842 -0.2551 -0.5785  0.1913
 2477SOL    HW1 8330   0.700   6.089   4.856  1.6703  1.2797 -0.1479
 2477SOL    HW2 8331   0.608   6.202   4.929 -0.3887 -0.5256  0.1321
 2478SOL     OW 8332   2.491   1.910   2.771 -0.0805  0.4590 -0.1745
 2478SOL    HW1 8333   2.559   1.937   2.703 -1.2984  1.8690 -0.9168
 2478SOL    HW2 8334   2.535   1.896   2.859  1.4188 -0.5738 -1.0440
 2479SOL     OW 8335   6.713   2.262   4.290 -1.1605  0.3660  0.2499
 2479SOL    HW1 8336   6.632   2.302   4.333 -0.8519  0.1906  1.0219
 2479SOL    HW2 8337   6.738   2.178   4.340 -1.8840 -0.8934 -1.4009
 2480SOL     OW 8338   3.603   1.006   5.059 -0.2007  0.3700  0.1551
 2480SOL    HW1 8339   3.680   1.045   5.007 -0.8311  2.1271  0.4937
 2480SOL    HW2 8340   3.576   1.068   5.132 -2.9688  0.5736 -0.9265
 2481SOL     OW 8341   1.198   3.552   5.335  0.1461 -0.4914 -0.1392
 2481SOL    HW1 8342   1.124   3.611   5.301  0.0464 -0.8864 -0.6327
 2481SOL    HW2 8343   1.272   3.608   5.370 -0.1456 -0.0781 -0.1732
 2482SOL     OW 8344   6.605   0.610   6.613  0.3282  0.1916 -0.0511
 2482SOL    HW1 8345   6.514   0.569   6.614  1.3605 -2.3443 -1.6054
 2482SOL    HW2 8346   6.621   0.657   6.700 -1.9870 -0.3211  0.7236
 2483SOL     OW 8347   4.573   2.447   6.201 -0.7563 -0.3771  0.0418
 2483SOL    HW1 8348   4.480   2.442   6.236 -0.6926  0.5217  0.3776
 2483SOL    HW2 8349   4.636   2.404   6.266 -0.6294  1.3328  1.1389
 2484SOL     OW 8350   6.493   2.348   4.874 -0.5297  0.5802 -0.2482
 2484SOL    HW1 8351   6.540   2.400   4.945 -0.9897 -0.2795  0.7103
 2484SOL    HW2 8352   6.489   2.252   4.900  1.7055 -0.2872 -2.7369
 2485SOL     OW 8353   4.950   6.801   4.800  0.3371  0.4566  0.0153
 2485SOL    HW1 8354   4.880   6.766   4.738  0.6157 -0.9758  0.4693
 2485SOL    HW2 8355   5.035   6.749   4.787  0.1780 -0.4262  2.1017
 2486SOL     OW 8356   4.112   6.334   3.444  0.3412 -0.2033 -0.6043
 2486SOL    HW1 8357   4.209   6.312   3.434  0.3510 -1.3889  1.6301
 2486SOL    HW2 8358   4.061   6.298   3.365  1.4274 -1.4089 -0.7766
 2487SOL     OW 8359   5.600   4.072   2.319  0.0979  0.4842  0.3441
 2487SOL    HW1 8360   5.569   4.018   2.397 -0.6895 -0.3924 -0.5566
 2487SOL    HW2 8361   5.616   4.012   2.241  1.1107  1.3150 -0.1227
 2488SOL     OW 8362   0.326   6.042   4.057 -0.5757  0.1322  0.5705
 2488SOL    HW1 8363   0.231   6.032   4.086 -0.6343 -1.1873  0.0038
 2488SOL    HW2 8364   0.386   5.996   4.123 -0.4789 -0.4924  0.0526
 2489SOL     OW 8365   5.076   1.472   2.564  0.7275  0.2597  0.2841
 2489SOL    HW1 8366   5.017   1.411   2.617  2.2353 -0.0806  1.6417
 2489SOL    HW2 8367   5.027   1.557   2.545 -1.2559 -1.1203 -1.2605
 2490SOL     OW 8368   4.299   0.881   5.650  0.0092 -0.1649  0.6281
 2490SOL    HW1 8369   4.215   0.833   5.674  0.6072 -0.9328  1.2124
 2490SOL    HW2 8370   4.375   0.816   5.648  0.8633  0.7721  1.5759
 2491SOL     OW 8371   6.132   1.221   2.534  0.8562  0.2908  0.0717
 2491SOL    HW1 8372   6.071   1.298   2.516  2.0379  0.8583 -1.8340
 2491SOL    HW2 8373   6.081   1.147   2.578 -0.4725  1.8438  1.2694
 2492SOL     OW 8374   6.094   1.736   3.280  0.0101 -0.2263  0.0449
 2492SOL    HW1 8375   6.190   1.715   3.298 -0.2568 -0.9150  0.6787
 2492SOL    HW2 8376   6.088   1.786   3.193  1.0940  1.3229  0.8145
 2493SOL     OW 8377   2.590   6.022   1.241 -0.2220 -0.4470 -0.2809
 2493SOL    HW1 8378   2.564   6.036   1.337  2.5937  1.5363  0.2925
 2493SOL    HW2 8379   2.649   5.942   1.234  0.9956  0.4084 -0.0292
 2494SOL     OW 8380   4.220   1.073   0.327 -0.0909 -0.7143 -0.6509
 2494SOL    HW1 8381   4.123   1.054   0.316 -0.2189  0.1626 -1.0918
 2494SOL    HW2 8382   4.256   1.022   0.406 -1.0138 -0.6417 -0.1769
 2495SOL     OW 8383   2.702   6.551   2.863 -0.3585 -0.3177  0.2179
 2495SOL    HW1 8384   2.782   6.607   2.884 -0.7317  0.6035 -0.7198
 2495SOL    HW2 8385   2.624   6.585   2.914 -0.4102 -0.4720  0.2398
 2496SOL     OW 8386   0.397   5.299   6.931  0.2895  0.5279  0.1342
 2496SOL    HW1 8387   0.485   5.303   6.883  0.5618 -0.1104  0.5613
 2496SOL    HW2 8388   0.386   5.381   6.987  0.5613  0.6639 -0.0080
 2497SOL     OW 8389   5.331   4.274   2.868  0.3122  0.7520  0.0318
 2497SOL    HW1 8390   5.414   4.284   2.922  1.0528 -1.6058 -0.5318
 2497SOL    HW2 8391   5.352   4.220   2.786 -2.0859 -1.5604  0.8006
 2498SOL     OW 8392   3.303   2.110   3.792  0.2308 -0.1974 -0.5974
 2498SOL    HW1 8393   3.363   2.118   3.872  0.0991  0.8150 -0.5852
 2498SOL    HW2 8394   3.213   2.077   3.822  0.6422 -1.3634 -0.5669
 2499SOL     OW 8395   5.672   0.104   4.586  0.0807  0.2388  0.0809
 2499SOL    HW1 8396   5.607   0.155   4.530  0.6179  0.4465 -0.3633
 2499SOL    HW2 8397   5.758   0.095   4.537 -0.0584 -1.2777  0.0536
 2500SOL     OW 8398   3.748   6.186   3.501 -0.2470 -0.1348  0.1283
 2500SOL    HW1 8399   3.737   6.280   3.536 -1.7001 -0.7178  1.3495
 2500SOL    HW2 8400   3.818   6.139   3.555 -0.2138 -0.0488  0.1616
 2501SOL     OW 8401   2.568   5.410   3.350  0.0618  0.3526 -0.4917
 2501SOL    HW1 8402   2.494   5.384   3.412  2.1779 -1.9550  1.3029
 2501SOL    HW2 8403   2.611   5.327   3.314  1.8271  1.6066 -1.3993
 2502SOL     OW 8404   5.914   2.693   4.190 -0.3623 -0.5448  0.2360
 2502SOL    HW1 8405   5.966   2.774   4.219  1.5084 -0.7912 -2.1294
 2502SOL    HW2 8406   5.864   2.656   4.268  0.2420  1.7543  1.8272
 2503SOL     OW 8407   3.784   0.070   2.801  0.4606  0.0625 -0.2253
 2503SOL    HW1 8408   3.870   0.121   2.809 -0.0564  0.8638  0.4498
 2503SOL    HW2 8409   3.803  -0.028   2.803  1.2568  0.2005  1.7294
 2504SOL     OW 8410   4.555   0.357   5.979  0.5303  0.0906  0.0532
 2504SOL    HW1 8411   4.601   0.445   5.977 -0.7951  0.7953 -1.5408
 2504SOL    HW2 8412   4.510   0.340   5.891 -1.1890 -1.1124  1.0855
 2505SOL     OW 8413   6.929   4.892   1.002 -0.0423  0.0880  0.1783
 2505SOL    HW1 8414   6.994   4.879   1.077 -0.2320 -0.7020  0.2152
 2505SOL    HW2 8415   6.979   4.894   0.916  0.0607 -0.3355  0.2218
 2506SOL     OW 8416   5.060   6.577   2.222 -0.3764 -0.4076 -0.2581
 2506SOL    HW1 8417   4.976   6.619   2.187 -0.0082  0.4738 -0.1160
 2506SOL    HW2 8418   5.065   6.591   2.321  1.2438  2.0233 -0.5947
 2507SOL     OW 8419   2.652   2.939   0.561 -0.6335  0.1476 -0.0165
 2507SOL    HW1 8420   2.658   2.880   0.481  3.7406 -0.3035  0.3767
 2507SOL    HW2 8421   2.691   2.892   0.640  0.5061  2.5307  0.9438
 2508SOL     OW 8422   5.647   4.703   2.405 -0.1877 -0.2601 -0.0940
 2508SOL    HW1 8423   5.592   4.738   2.480  0.3046 -0.1202  0.2040
 2508SOL    HW2 8424   5.605   4.730   2.318 -0.2788  0.3399  0.1315
 2509SOL     OW 8425   1.749   5.411   1.428  0.2727 -0.5265  0.0749
 2509SOL    HW1 8426   1.834   5.366   1.401  1.1815  0.9323  0.3544
 2509SOL    HW2 8427   1.713   5.369   1.511  0.5756 -1.3168 -0.1856
 2510SOL     OW 8428   0.396   3.546   1.651  0.2807  0.1096  0.3155
 2510SOL    HW1 8429   0.466   3.558   1.722 -1.6557 -0.4279  2.4201
 2510SOL    HW2 8430   0.365   3.636   1.620  1.3831  0.3515 -0.1474
 2511SOL     OW 8431   0.253   0.089   0.518 -0.0965  0.0625 -0.2667
 2511SOL    HW1 8432   0.351   0.096   0.500  0.0412  0.2065  0.5047
 2511SOL    HW2 8433   0.213   0.021   0.457  0.6591 -0.6690  0.0267
 2512SOL     OW 8434   0.509   6.499   6.190  0.0633 -0.2759  0.3261
 2512SOL    HW1 8435   0.501   6.598   6.179  0.7617 -0.0826  1.4139
 2512SOL    HW2 8436   0.577   6.479   6.261  2.0860 -1.5865 -1.8653
 2513SOL     OW 8437   3.875   4.874   3.386  0.1266 -0.6234 -0.3965
 2513SOL    HW1 8438   3.848   4.818   3.308  0.1500 -1.9532  0.5111
 2513SOL    HW2 8439   3.954   4.833   3.432 -0.3022 -0.2518  0.7231
 2514SOL     OW 8440   6.764   3.556   4.445  0.2598  0.6890 -0.5851
 2514SOL    HW1 8441   6.808   3.606   4.371 -0.9542  2.7172 -0.0140
 2514SOL    HW2 8442   6.805   3.465   4.453  2.5216  1.5325 -1.7222
 2515SOL     OW 8443   0.872   0.431   5.897  0.3957 -0.1344 -0.0619
 2515SOL    HW1 8444   0.906   0.468   5.810 -0.1784 -0.1044 -0.2789
 2515SOL    HW2 8445   0.816   0.350   5.878  0.0643  0.0176  0.2550
 2516SOL     OW 8446   2.128   1.541   0.286  0.9217 -0.5049 -0.0899
 2516SOL    HW1 8447   2.198   1.596   0.333 -0.6395  0.1156  1.6030
 2516SOL    HW2 8448   2.039   1.585   0.296  0.1368 -1.6906 -1.5347
 2517SOL     OW 8449   2.079   5.634   1.397 -0.3925  0.7366  0.0351
 2517SOL    HW1 8450   1.998   5.693   1.391 -0.3180  0.9147  0.6758
 2517SOL    HW2 8451   2.132   5.642   1.313 -1.6808 -0.3300 -0.9277
 2518SOL     OW 8452   3.713   2.992   5.086 -0.1767 -0.0896  0.3086
 2518SOL    HW1 8453   3.614   2.988   5.096 -0.0164 -0.4947  2.0729
 2518SOL    HW2 8454   3.745   3.083   5.112 -0.1230  0.2878 -0.9879
 2519SOL     OW 8455   2.249   4.155   2.533  0.0494 -0.0692  0.2745
 2519SOL    HW1 8456   2.215   4.124   2.444  1.8713  1.2054 -0.9506
 2519SOL    HW2 8457   2.297   4.242   2.521  1.3479 -0.4494  2.2991
 2520SOL     OW 8458   6.832   2.414   6.631  0.7652  1.1127  0.2210
 2520SOL    HW1 8459   6.833   2.380   6.724  4.7647 -1.7153 -0.6072
 2520SOL    HW2 8460   6.920   2.458   6.610  0.6371  0.2816 -2.5713
 2521SOL     OW 8461   6.233   0.254   6.659  0.3933 -0.2572 -0.5685
 2521SOL    HW1 8462   6.134   0.242   6.667  0.1132  2.1880  0.1911
 2521SOL    HW2 8463   6.264   0.210   6.574 -1.5111 -0.1461 -1.3875
 2522SOL     OW 8464   3.779   1.895   0.351 -0.1242 -0.2731 -0.5072
 2522SOL    HW1 8465   3.744   1.898   0.257 -1.0523 -0.0467 -0.1698
 2522SOL    HW2 8466   3.702   1.883   0.414  0.5119 -0.6213  0.2129
 2523SOL     OW 8467   3.902   6.582   3.086  0.0208  0.2533  0.0981
 2523SOL    HW1 8468   3.951   6.572   2.999 -0.6341 -0.6119 -0.1962
 2523SOL    HW2 8469   3.813   6.535   3.079 -0.4676  1.0322  0.9077
 2524SOL     OW 8470   0.308   4.375   1.950  0.2041  0.0789  0.5420
 2524SOL    HW1 8471   0.235   4.405   1.889 -0.8677 -1.5106  0.9807
 2524SOL    HW2 8472   0.394   4.419   1.924 -0.8463  1.8274 -0.1209
 2525SOL     OW 8473   1.129   5.337   6.098  0.6167 -0.1881  0.2038
 2525SOL    HW1 8474   1.060   5.304   6.163  0.1701 -0.5467 -0.4417
 2525SOL    HW2 8475   1.201   5.268   6.089  0.2769 -0.4881 -0.2676
 2526SOL     OW 8476   6.505   0.493   3.010  0.2006  0.0298 -0.4987
 2526SOL    HW1 8477   6.425   0.549   2.988  0.9375  0.7875 -1.3593
 2526SOL    HW2 8478   6.509   0.416   2.947  0.3051  0.1541 -0.6447
 2527SOL     OW 8479   0.518   2.304   3.302  0.7905 -0.1073  0.3128
 2527SOL    HW1 8480   0.507   2.401   3.284  1.8194  0.4278  2.2342
 2527SOL    HW2 8481   0.468   2.251   3.233  2.9775  1.6327 -2.8474
 2528SOL     OW 8482   3.947   6.004   0.998  0.6058 -0.2650  0.2795
 2528SOL    HW1 8483   4.029   6.031   1.049  0.4331  1.9080 -0.5011
 2528SOL    HW2 8484   3.974   5.955   0.915  1.0776 -0.3541  0.4804
 2529SOL     OW 8485   6.404   5.563   6.151 -0.2687  0.3530  0.0732
 2529SOL    HW1 8486   6.471   5.638   6.158 -2.4092  2.3021  1.2715
 2529SOL    HW2 8487   6.404   5.511   6.236  0.8630 -0.7706 -0.5739
 2530SOL     OW 8488   6.513   4.594   5.422  0.1237  0.2169 -0.1945
 2530SOL    HW1 8489   6.603   4.588   5.379  0.1162  0.1447 -0.1997
 2530SOL    HW2 8490   6.514   4.667   5.491  0.0080  0.6449 -0.6341
 2531SOL     OW 8491   6.433   0.009   5.806 -0.4218  0.6848 -0.6893
 2531SOL    HW1 8492   6.402   0.101   5.784 -2.5309  0.4911  1.1336
 2531SOL    HW2 8493   6.369  -0.058   5.768 -0.5416  0.1105  0.4854
 2532SOL     OW 8494   6.356   5.743   1.452 -0.7746  0.0094 -0.1065
 2532SOL    HW1 8495   6.446   5.749   1.409 -1.8587 -2.2567 -3.0815
 2532SOL    HW2 8496   6.314   5.833   1.455  0.0032  0.5285 -2.6007
 2533SOL     OW 8497   2.473   0.682   6.809  0.1700  0.2119  0.3263
 2533SOL    HW1 8498   2.402   0.692   6.878 -0.9974 -1.1495 -0.6220
 2533SOL    HW2 8499   2.442   0.723   6.723  0.4757 -0.4468 -0.1107
 2534SOL     OW 8500   4.901   1.093   2.362 -0.6585  0.2769  0.0364
 2534SOL    HW1 8501   4.912   1.028   2.286 -0.5181  0.2499  0.0789
 2534SOL    HW2 8502   4.961   1.172   2.346  1.3532 -0.8875  1.3851
 2535SOL     OW 8503   1.388   0.033   1.654 -0.2661 -0.4648  0.0516
 2535SOL    HW1 8504   1.300  -0.004   1.683  0.1653 -2.2306 -0.7564
 2535SOL    HW2 8505   1.407   0.004   1.560  1.1271 -0.0110  0.1678
 2536SOL     OW 8506   0.116   7.003   6.437 -0.3762  0.5936 -0.5235
 2536SOL    HW1 8507   0.148   6.911   6.411 -2.1957 -0.2634  0.1215
 2536SOL    HW2 8508   0.195   7.064   6.444  0.6963 -0.3583 -3.0462
 2537SOL     OW 8509   0.697   3.263   0.213 -0.4925  0.0017  0.9361
 2537SOL    HW1 8510   0.711   3.220   0.123  0.6478  0.9361  0.6524
 2537SOL    HW2 8511   0.614   3.320   0.210 -0.1238  0.5184  0.2804
 2538SOL     OW 8512   2.370   5.261   5.419  0.6599 -0.2501 -0.7852
 2538SOL    HW1 8513   2.442   5.193   5.408  0.4827 -0.6673  0.5704
 2538SOL    HW2 8514   2.307   5.255   5.341  0.3812 -1.9601 -0.4697
 2539SOL     OW 8515   6.898   2.750   2.446 -0.4122 -0.4271  0.2915
 2539SOL    HW1 8516   6.908   2.683   2.372 -0.4934 -0.6577  0.4866
 2539SOL    HW2 8517   6.947   2.834   2.423  0.4430 -0.8761  0.4327
 2540SOL     OW 8518   1.755   1.417   0.823  0.2406  0.1634 -0.4749
 2540SOL    HW1 8519   1.705   1.407   0.909 -0.4673 -1.3015 -1.0157
 2540SOL    HW2 8520   1.854   1.412   0.842  0.1406  1.0495  0.3682
 2541SOL     OW 8521   3.709   0.015   4.847  0.1102  0.1613  1.1868
 2541SOL    HW1 8522   3.751   0.101   4.818 -0.2424  0.5405  1.7836
 2541SOL    HW2 8523   3.773  -0.060   4.830 -0.4758  0.1715 -1.6286
 2542SOL     OW 8524   1.338   2.450   0.007  0.0830 -0.6865 -0.1783
 2542SOL    HW1 8525   1.409   2.450  -0.064  0.2501  0.9517 -0.0359
 2542SOL    HW2 8526   1.329   2.541   0.046 -3.3249 -0.3574 -1.3840
 2543SOL     OW 8527   5.667   2.747   5.495 -0.5011  0.0185  0.2606
 2543SOL    HW1 8528   5.720   2.671   5.534 -2.1678 -0.8888  0.8533
 2543SOL    HW2 8529   5.730   2.818   5.463  1.0687 -1.0968  0.7264
 2544SOL     OW 8530   3.513   4.765   6.921 -0.2582 -0.3740  0.1634
 2544SOL    HW1 8531   3.459   4.681   6.924  1.8723 -1.7874  1.4666
 2544SOL    HW2 8532   3.470   4.835   6.978 -2.7052 -0.0788 -1.8904
 2545SOL     OW 8533   3.587   6.447   4.340  0.2003 -0.0950 -0.9005
 2545SOL    HW1 8534   3.570   6.426   4.244  0.5142 -1.0780 -0.7468
 2545SOL    HW2 8535   3.684   6.434   4.360 -0.1354 -1.5213 -0.0707
 2546SOL     OW 8536   2.696   5.545   2.614 -0.0745 -0.1267 -0.0300
 2546SOL    HW1 8537   2.673   5.589   2.527 -0.9910  0.1862  0.3499
 2546SOL    HW2 8538   2.625   5.478   2.636  0.7157 -0.9763 -0.0441
 2547SOL     OW 8539   5.577   5.913   2.154  0.6326 -0.6049  0.1799
 2547SOL    HW1 8540   5.660   5.890   2.205  1.3076  0.4310 -0.4023
 2547SOL    HW2 8541   5.599   5.920   2.057  0.1309  0.8596  0.1479
 2548SOL     OW 8542   1.639   0.365   0.113  0.5051 -0.3199 -0.4385
 2548SOL    HW1 8543   1.637   0.288   0.178 -0.1520 -0.5533 -0.7272
 2548SOL    HW2 8544   1.547   0.380   0.077  0.8329 -0.0782 -1.1817
 2549SOL     OW 8545   0.493   6.301   5.439  0.6260 -0.1465 -0.0261
 2549SOL    HW1 8546   0.575   6.254   5.408  0.6223  0.3998 -0.8812
 2549SOL    HW2 8547   0.519   6.372   5.505  0.5643 -1.8058  1.8995
 2550SOL     OW 8548   0.891   6.826   4.816 -0.2040 -0.0103  0.2947
 2550SOL    HW1 8549   0.910   6.905   4.758 -1.0404 -1.7599 -2.5972
 2550SOL    HW2 8550   0.809   6.779   4.782  0.4265 -2.2859  1.7088
 2551SOL     OW 8551   1.159   6.680   1.724 -0.5012  0.1759 -0.4435
 2551SOL    HW1 8552   1.204   6.681   1.813 -2.4354  0.2364  0.5889
 2551SOL    HW2 8553   1.185   6.597   1.674  0.8865  0.3230 -0.0002
 2552SOL     OW 8554   4.394   1.149   7.011  0.3727  0.4378  0.0351
 2552SOL    HW1 8555   4.468   1.214   6.994  0.9393  0.1486  1.2990
 2552SOL    HW2 8556   4.328   1.154   6.936  2.2972 -0.2109 -1.8005
 2553SOL     OW 8557   5.762   0.926   2.046 -0.3235  0.2002  0.1941
 2553SOL    HW1 8558   5.855   0.908   2.079  0.1384  0.2103 -1.0320
 2553SOL    HW2 8559   5.709   0.841   2.050 -0.5197  0.3751  1.6440
 2554SOL     OW 8560   3.653   1.133   1.725 -0.1401 -0.5113 -0.6231
 2554SOL    HW1 8561   3.676   1.222   1.685 -1.3476 -0.4990 -1.3668
 2554SOL    HW2 8562   3.609   1.146   1.814 -0.0725 -0.3706 -0.6110
 2555SOL     OW 8563   4.436   6.828   5.567  0.4252 -0.2712  0.1984
 2555SOL    HW1 8564   4.496   6.874   5.502 -0.7765  0.5945 -0.3331
 2555SOL    HW2 8565   4.343   6.863   5.557  0.0346 -0.7888  1.7585
 2556SOL     OW 8566   6.077   4.410   6.113  0.5204 -1.0457  0.2098
 2556SOL    HW1 8567   5.998   4.426   6.053  0.1336  1.6204  1.2739
 2556SOL    HW2 8568   6.069   4.319   6.155 -2.5496 -0.5346  1.0051
 2557SOL     OW 8569   1.397   6.356   5.793  0.2981 -0.2016  0.6172
 2557SOL    HW1 8570   1.311   6.401   5.817  1.8635  1.7820  2.9819
 2557SOL    HW2 8571   1.456   6.420   5.745  0.2736 -1.7950 -1.7603
 2558SOL     OW 8572   5.711   1.512   2.063 -0.1085 -0.4877  0.3358
 2558SOL    HW1 8573   5.618   1.497   2.096 -0.3514  1.3326  0.5460
 2558SOL    HW2 8574   5.729   1.610   2.056  1.1662 -0.7988 -1.5077
 2559SOL     OW 8575   1.926   2.106   2.126  0.1209  0.0244 -0.6194
 2559SOL    HW1 8576   1.835   2.070   2.147  0.1701  0.7085  0.8338
 2559SOL    HW2 8577   1.919   2.204   2.108  0.8242  0.4891  1.4746
 2560SOL     OW 8578   5.622   5.757   6.306  0.7699  0.2560 -0.5003
 2560SOL    HW1 8579   5.649   5.732   6.400  1.2292 -0.2312 -0.7535
 2560SOL    HW2 8580   5.639   5.854   6.292  3.0134 -0.1066 -0.8098
 2561SOL     OW 8581   6.461   5.227   6.131 -0.0444  0.4096 -0.0261
 2561SOL    HW1 8582   6.534   5.288   6.100  1.9153 -0.5622  2.3170
 2561SOL    HW2 8583   6.391   5.280   6.179  0.8631  1.0136  0.6679
 2562SOL     OW 8584   6.373   4.325   4.818 -0.5734  0.1580  0.1873
 2562SOL    HW1 8585   6.403   4.299   4.910  1.9612  0.9796 -0.3146
 2562SOL    HW2 8586   6.440   4.292   4.752  0.8822  4.4917 -0.8022
 2563SOL     OW 8587   0.401   2.083   0.275  0.4948  0.1235 -0.2802
 2563SOL    HW1 8588   0.500   2.074   0.282  0.5878 -0.0363 -1.5187
 2563SOL    HW2 8589   0.360   1.992   0.261  0.2214  0.2311 -0.1841
 2564SOL     OW 8590   3.445   4.980   6.140 -0.0005  0.5046  0.2043
 2564SOL    HW1 8591   3.446   5.024   6.051  0.0850  0.3332  0.1195
 2564SOL    HW2 8592   3.538   4.975   6.177  0.0192  0.2182  0.1232
 2565SOL     OW 8593   5.260   3.582   5.996  0.1847 -0.0185 -0.3327
 2565SOL    HW1 8594   5.302   3.492   6.000  0.1318 -0.0490 -0.4742
 2565SOL    HW2 8595   5.227   3.600   5.903 -1.6517 -0.6867  0.1556
 2566SOL     OW 8596   3.236   3.170   6.499  0.2104  0.4850  0.8168
 2566SOL    HW1 8597   3.167   3.098   6.503  0.4123  0.3467  2.5693
 2566SOL    HW2 8598   3.298   3.153   6.422 -1.9713  0.9201 -1.1870
 2567SOL     OW 8599   6.946   6.092   2.681  0.2623 -0.2711  0.0927
 2567SOL    HW1 8600   7.019   6.090   2.614  0.4260  0.5524  0.2332
 2567SOL    HW2 8601   6.961   6.167   2.745 -0.5308 -0.2891  0.3193
 2568SOL     OW 8602   0.015   4.970   6.380  0.2703 -0.0887 -0.0437
 2568SOL    HW1 8603   0.032   4.901   6.310  0.3661 -1.2612  1.1131
 2568SOL    HW2 8604   0.028   5.061   6.340 -0.4618 -0.6891 -1.7583
 2569SOL     OW 8605   0.594   6.751   0.371  0.1536 -0.8493  0.5151
 2569SOL    HW1 8606   0.618   6.710   0.283 -0.6404 -0.5760  0.1630
 2569SOL    HW2 8607   0.677   6.785   0.415  0.4836 -0.4156 -0.4154
 2570SOL     OW 8608   0.793   5.029   4.580 -0.2909  0.1012  0.2104
 2570SOL    HW1 8609   0.868   4.975   4.618  0.2925  0.6941 -0.0822
 2570SOL    HW2 8610   0.781   5.005   4.484 -0.7370 -0.2647  0.3502
 2571SOL     OW 8611   1.662   4.562   5.867  0.5934  0.1886  0.0857
 2571SOL    HW1 8612   1.681   4.603   5.778 -0.2089  2.2999  0.8348
 2571SOL    HW2 8613   1.641   4.634   5.933 -1.1831 -1.4733  1.4219
 2572SOL     OW 8614   0.295   4.216   4.561  0.0583 -0.1279 -0.1323
 2572SOL    HW1 8615   0.217   4.208   4.623  1.0054  0.1377  1.1388
 2572SOL    HW2 8616   0.299   4.309   4.525  0.2494  0.0811  0.4282
 2573SOL     OW 8617   1.673   2.779   0.530 -0.0798  0.2488 -0.1234
 2573SOL    HW1 8618   1.633   2.851   0.587 -2.0760 -0.4737 -0.5524
 2573SOL    HW2 8619   1.700   2.702   0.588 -0.2131  0.3423  0.0636
 2574SOL     OW 8620   4.121   2.851   6.096 -0.8064  0.7690 -0.4146
 2574SOL    HW1 8621   4.035   2.894   6.122 -0.9382  1.2639 -1.5833
 2574SOL    HW2 8622   4.153   2.891   6.010  0.0121 -0.1981 -0.5794
 2575SOL     OW 8623   5.758   4.648   0.168 -0.1687  0.0189  0.1604
 2575SOL    HW1 8624   5.713   4.563   0.196  1.6926 -1.3104 -0.6542
 2575SOL    HW2 8625   5.787   4.698   0.249  0.2165 -0.9884  0.6626
 2576SOL     OW 8626   1.640   1.392   5.750 -0.9609  0.1057 -0.3363
 2576SOL    HW1 8627   1.566   1.415   5.687  0.9346  1.7895 -2.0752
 2576SOL    HW2 8628   1.605   1.391   5.843 -3.0834  1.2485 -1.0537
 2577SOL     OW 8629   3.149   6.887   5.608 -0.1592  0.0000  0.1516
 2577SOL    HW1 8630   3.236   6.935   5.621 -0.3298  0.3485  0.0222
 2577SOL    HW2 8631   3.139   6.817   5.678  1.2752 -1.6103 -1.1416
 2578SOL     OW 8632   3.133   6.978   2.285  0.3895 -0.2232  0.7232
 2578SOL    HW1 8633   3.093   7.029   2.360  0.8796 -0.0828  0.8922
 2578SOL    HW2 8634   3.230   6.999   2.278  0.4769 -0.6965  0.4346
 2579SOL     OW 8635   6.610   5.190   5.370  0.3845  0.5320 -0.1205
 2579SOL    HW1 8636   6.605   5.268   5.308  1.1338  0.0151 -0.8616
 2579SOL    HW2 8637   6.565   5.111   5.328 -0.3802  0.5550  0.6283
 2580SOL     OW 8638   2.116   2.396   3.664 -0.9660 -0.2864 -0.6661
 2580SOL    HW1 8639   2.191   2.461   3.660 -0.1775 -1.1111  0.2625
 2580SOL    HW2 8640   2.083   2.387   3.758 -2.3458  0.1805 -1.0817
 2581SOL     OW 8641   0.068   2.524   3.595  0.4616 -0.0249  0.5303
 2581SOL    HW1 8642   0.068   2.611   3.643  2.5604 -0.0063  0.5878
 2581SOL    HW2 8643   0.048   2.450   3.660 -4.2464  0.5053 -0.0046
 2582SOL     OW 8644   0.003   5.387   3.850 -1.0305 -0.2873 -0.2261
 2582SOL    HW1 8645  -0.034   5.365   3.760  0.5262  0.7575 -1.1735
 2582SOL    HW2 8646   0.089   5.438   3.840 -0.7793 -0.1836  1.8551
 2583SOL     OW 8647   3.167   2.824   1.961  0.5337  0.2092 -0.3400
 2583SOL    HW1 8648   3.125   2.911   1.936  1.6723  0.2654 -2.2229
 2583SOL    HW2 8649   3.139   2.754   1.895  2.2799 -0.0476 -0.8613
 2584SOL     OW 8650   2.173   5.402   5.855 -0.4407  0.0976 -0.3471
 2584SOL    HW1 8651   2.145   5.341   5.780 -0.0054 -0.3752 -0.1318
 2584SOL    HW2 8652   2.122   5.379   5.937  1.4064 -1.6287  0.4019
 2585SOL     OW 8653   2.123   6.253   1.344  0.2864  0.5396 -0.0441
 2585SOL    HW1 8654   2.126   6.157   1.372 -3.8895  0.0758 -0.6574
 2585SOL    HW2 8655   2.123   6.311   1.425 -1.6970 -0.2676  0.5763
 2586SOL     OW 8656   0.666   1.178   6.828  0.0605  0.8821  0.0916
 2586SOL    HW1 8657   0.727   1.100   6.826  0.7793  1.4261  0.2675
 2586SOL    HW2 8658   0.713   1.259   6.794 -1.2771  0.8563 -1.9976
 2587SOL     OW 8659   5.331   4.678   2.923  0.6003 -0.0015  0.2017
 2587SOL    HW1 8660   5.404   4.628   2.969  0.5203  0.3062  0.6643
 2587SOL    HW2 8661   5.347   4.675   2.824  0.4565 -1.1621  0.1955
 2588SOL     OW 8662   6.900   4.509   1.614 -0.5631  0.1309  0.6312
 2588SOL    HW1 8663   6.818   4.465   1.650 -0.4911 -0.4624  0.0765
 2588SOL    HW2 8664   6.931   4.461   1.531 -0.3769  1.0987  0.1227
 2589SOL     OW 8665   4.669   1.876   6.662  0.2799  0.4415  0.5099
 2589SOL    HW1 8666   4.675   1.921   6.751 -1.1326  2.6154 -0.4036
 2589SOL    HW2 8667   4.704   1.937   6.591 -0.3295 -0.4781 -0.6297
 2590SOL     OW 8668   0.993   2.520   6.879  0.0023 -0.1965 -0.3242
 2590SOL    HW1 8669   0.946   2.509   6.967  0.4262  0.1262 -0.0583
 2590SOL    HW2 8670   1.051   2.601   6.882  0.6132 -0.6171 -0.6407
 2591SOL     OW 8671   3.519   2.263   6.983  0.0825 -0.1386  0.6834
 2591SOL    HW1 8672   3.549   2.358   6.973 -2.0390  0.3469 -3.2624
 2591SOL    HW2 8673   3.592   2.209   7.025  2.8054  2.5512 -0.2445
 2592SOL     OW 8674   5.819   1.205   5.270 -0.1330 -0.1153 -0.2263
 2592SOL    HW1 8675   5.913   1.188   5.240  0.9472 -0.0889  2.8569
 2592SOL    HW2 8676   5.792   1.298   5.244  0.5678 -0.2194 -1.3836
 2593SOL     OW 8677   1.620   6.011   5.126 -0.3986  0.7090  0.2473
 2593SOL    HW1 8678   1.599   6.088   5.065 -2.5438  0.4174  0.5465
 2593SOL    HW2 8679   1.574   5.929   5.093  0.2694  0.0005  1.0356
 2594SOL     OW 8680   3.382   3.971   6.080 -0.1137 -0.0348  0.0489
 2594SOL    HW1 8681   3.436   3.905   6.028  0.7994  0.4181  0.4170
 2594SOL    HW2 8682   3.413   4.063   6.060 -0.8316  0.2426  0.1794
 2595SOL     OW 8683   4.717   2.122   1.767  0.1344  0.7923  0.2882
 2595SOL    HW1 8684   4.795   2.084   1.717  0.7890  3.6462 -1.1295
 2595SOL    HW2 8685   4.738   2.123   1.865  0.8617 -0.6138  0.1717
 2596SOL     OW 8686   2.553   1.694   0.108 -0.0354  0.3931 -0.2790
 2596SOL    HW1 8687   2.550   1.748   0.192  0.1154 -1.3737  0.9201
 2596SOL    HW2 8688   2.644   1.700   0.067  0.4406 -0.1284  0.6727
 2597SOL     OW 8689   6.799   2.972   3.756  0.2750  0.0214  0.3772
 2597SOL    HW1 8690   6.895   2.985   3.778  0.5158  0.0177 -0.6382
 2597SOL    HW2 8691   6.772   2.877   3.775  0.6408 -0.1508  0.0339
 2598SOL     OW 8692   1.785   5.901   3.762  0.4010  0.1197  0.2636
 2598SOL    HW1 8693   1.706   5.946   3.802  1.5984  4.4822 -1.6937
 2598SOL    HW2 8694   1.760   5.809   3.733 -3.3235  0.5883  1.5150
 2599SOL     OW 8695   5.858   0.296   2.391 -0.4326  0.0350  0.1640
 2599SOL    HW1 8696   5.956   0.314   2.379 -0.5155 -0.3072 -1.1560
 2599SOL    HW2 8697   5.837   0.205   2.355 -1.3441  0.3304 -0.0543
 2600SOL     OW 8698   1.952   4.460   3.516  0.2697 -0.5152  0.3225
 2600SOL    HW1 8699   2.010   4.522   3.570  0.5003 -1.1759  0.8533
 2600SOL    HW2 8700   1.885   4.416   3.576  0.5522 -1.2894  0.0888
 2601SOL     OW 8701   0.092   1.657   2.997 -0.2939 -0.1978  0.5174
 2601SOL    HW1 8702   0.019   1.666   3.064  0.7756  0.4164  1.6479
 2601SOL    HW2 8703   0.140   1.744   2.988  1.3217 -0.9980  1.0245
 2602SOL     OW 8704   5.087   1.314   3.546 -0.3451  0.4264 -0.2814
 2602SOL    HW1 8705   5.145   1.393   3.563  1.4054 -0.9385  0.4268
 2602SOL    HW2 8706   5.025   1.300   3.624  1.3668 -0.5340  0.9788
 2603SOL     OW 8707   3.744   6.730   1.815 -0.1836  0.6042  0.2734
 2603SOL    HW1 8708   3.668   6.680   1.857  0.6497  1.0574  2.4587
 2603SOL    HW2 8709   3.709   6.787   1.741 -1.7049 -0.4582  0.1303
 2604SOL     OW 8710   4.615   1.105   3.806 -0.0413 -0.4598  0.3024
 2604SOL    HW1 8711   4.686   1.041   3.836 -0.6974 -1.3728 -0.0476
 2604SOL    HW2 8712   4.586   1.162   3.883  2.1353  0.9970  0.1163
 2605SOL     OW 8713   3.938   1.360   0.263 -0.2034 -0.2764 -0.0400
 2605SOL    HW1 8714   4.004   1.348   0.189 -0.1911 -0.9320  0.0674
 2605SOL    HW2 8715   3.974   1.318   0.346  0.5963  2.0492  0.8411
 2606SOL     OW 8716   6.932   6.994   3.158 -0.2604 -0.0131  0.3007
 2606SOL    HW1 8717   6.878   6.945   3.089 -1.1061 -0.3965  1.2199
 2606SOL    HW2 8718   6.942   7.090   3.131 -1.0142 -0.0444 -0.1015
 2607SOL     OW 8719   0.076   1.114   5.985  0.3226  0.6611  0.2747
 2607SOL    HW1 8720   0.111   1.065   5.906 -1.5449  2.3494 -1.7121
 2607SOL    HW2 8721   0.134   1.194   6.003 -0.6493  1.6854 -1.0191
 2608SOL     OW 8722   1.291   6.447   1.621  0.3497  0.2181 -0.2153
 2608SOL    HW1 8723   1.375   6.463   1.672 -0.2025  1.5836  0.3147
 2608SOL    HW2 8724   1.257   6.355   1.640 -0.1423  0.8578  2.3891
 2609SOL     OW 8725   4.811   1.807   3.333  0.0840 -0.3574  0.6230
 2609SOL    HW1 8726   4.754   1.819   3.251  0.4512 -1.1444  0.2425
 2609SOL    HW2 8727   4.811   1.892   3.386 -1.2870 -0.2770  0.5344
 2610SOL     OW 8728   2.790   0.515   2.537 -0.2021 -1.0620 -0.2575
 2610SOL    HW1 8729   2.839   0.479   2.458  1.9928 -0.4757  0.7507
 2610SOL    HW2 8730   2.851   0.573   2.591 -2.9503  2.5479 -0.6663
 2611SOL     OW 8731   6.524   3.835   0.828 -0.1805  0.3114  0.3129
 2611SOL    HW1 8732   6.602   3.834   0.891 -0.2971 -0.3412  0.4575
 2611SOL    HW2 8733   6.471   3.751   0.840 -0.3947  0.3391 -0.4277
 2612SOL     OW 8734   5.963   6.523   6.109 -1.2368  0.5510 -0.0075
 2612SOL    HW1 8735   5.966   6.592   6.037  1.0041  1.3247  0.7454
 2612SOL    HW2 8736   5.962   6.567   6.198  1.2112 -0.2954  0.5226
 2613SOL     OW 8737   0.872   5.567   4.036  0.2079 -0.3831  0.8941
 2613SOL    HW1 8738   0.774   5.559   4.017  0.8790 -2.9624 -2.3406
 2613SOL    HW2 8739   0.904   5.485   4.084  1.2825 -1.0753 -0.9347
 2614SOL     OW 8740   0.438   1.272   5.386 -0.0930 -0.0468  0.7788
 2614SOL    HW1 8741   0.410   1.286   5.291  1.2906 -3.7534 -0.3529
 2614SOL    HW2 8742   0.506   1.340   5.411  2.0650 -0.9293 -2.1578
 2615SOL     OW 8743   1.711   5.765   3.078 -0.2918 -0.4502  0.0922
 2615SOL    HW1 8744   1.743   5.670   3.070  0.7150 -0.1090 -0.0810
 2615SOL    HW2 8745   1.632   5.778   3.018 -0.5513 -1.2261  0.2491
 2616SOL     OW 8746   0.873   3.867   0.535  0.2516  0.2752  0.0860
 2616SOL    HW1 8747   0.956   3.916   0.561  1.3114 -0.4565 -1.7444
 2616SOL    HW2 8748   0.805   3.932   0.502  0.5572  0.7638  0.4018
 2617SOL     OW 8749   6.318   3.382   6.731  0.3191  0.4314  0.1039
 2617SOL    HW1 8750   6.289   3.474   6.705  1.3124  0.7005 -0.0892
 2617SOL    HW2 8751   6.415   3.370   6.709 -0.1417 -1.1810 -1.2892
 2618SOL     OW 8752   0.388   3.750   2.295 -0.0961 -0.6884  0.1062
 2618SOL    HW1 8753   0.349   3.746   2.203  0.8482  0.6244 -0.3835
 2618SOL    HW2 8754   0.487   3.761   2.289 -0.0204 -0.6398  1.2797
 2619SOL     OW 8755   3.397   6.727   4.085  0.0905  0.3196 -0.1696
 2619SOL    HW1 8756   3.414   6.689   3.995  1.6352  1.0999 -0.2366
 2619SOL    HW2 8757   3.484   6.746   4.131 -0.6010 -1.9117  2.3227
 2620SOL     OW 8758   0.026   0.563   4.595 -0.1645 -0.9394 -0.2543
 2620SOL    HW1 8759   0.045   0.482   4.539  0.6117 -0.9006 -0.0635
 2620SOL    HW2 8760   0.016   0.535   4.690 -1.6822 -1.0306 -0.4200
 2621SOL     OW 8761   1.371   2.686   0.122  0.4788  0.2814  0.3007
 2621SOL    HW1 8762   1.396   2.727   0.034  0.5795  0.4040  0.3854
 2621SOL    HW2 8763   1.408   2.742   0.196 -0.9510  1.0667  0.4528
 2622SOL     OW 8764   3.017   5.551   5.079  0.0127  0.3030 -0.5800
 2622SOL    HW1 8765   3.025   5.505   4.990 -0.0963 -0.6952 -0.0829
 2622SOL    HW2 8766   3.030   5.485   5.152 -1.3180  0.8356  0.1668
 2623SOL     OW 8767   4.033   4.217   1.117 -0.0541 -0.3375  0.3233
 2623SOL    HW1 8768   4.077   4.191   1.203 -0.9129  1.8561  1.4873
 2623SOL    HW2 8769   3.948   4.165   1.106  0.9326 -1.9558 -0.1818
 2624SOL     OW 8770   5.758   3.201   0.011  0.3955  0.2582  0.6356
 2624SOL    HW1 8771   5.695   3.220  -0.065 -0.2299 -2.6208  0.2849
 2624SOL    HW2 8772   5.842   3.160  -0.025  0.5601 -0.1024  1.4048
 2625SOL     OW 8773   5.687   6.893   2.158 -0.0720  0.2766 -0.2707
 2625SOL    HW1 8774   5.674   6.806   2.111  0.5319  0.3171 -0.5245
 2625SOL    HW2 8775   5.647   6.967   2.104 -1.2094  0.0803  0.2835
 2626SOL     OW 8776   5.854   6.576   1.031  0.5326 -0.4264 -0.3665
 2626SOL    HW1 8777   5.860   6.526   0.944 -1.5467 -2.1893  0.3895
 2626SOL    HW2 8778   5.759   6.604   1.046  1.0518  0.7921  0.8780
 2627SOL     OW 8779   2.294   3.350   5.976 -0.2822  0.0942 -0.4486
 2627SOL    HW1 8780   2.251   3.371   5.888 -0.2843 -1.3317 -0.8033
 2627SOL    HW2 8781   2.306   3.251   5.985  0.0131  0.2433  1.0239
 2628SOL     OW 8782   6.415   1.283   3.292  0.3692  0.4965 -0.1444
 2628SOL    HW1 8783   6.451   1.245   3.378  0.5840 -0.1731 -0.5229
 2628SOL    HW2 8784   6.475   1.356   3.261  0.1690  0.8982  0.3876
 2629SOL     OW 8785   3.043   5.310   4.206 -0.3460  0.6139  0.0349
 2629SOL    HW1 8786   3.102   5.277   4.133 -0.4426 -1.1343  0.6978
 2629SOL    HW2 8787   2.980   5.238   4.233  0.4957  0.7573  2.6843
 2630SOL     OW 8788   1.513   3.227   0.965 -0.1028  0.4202  0.0130
 2630SOL    HW1 8789   1.453   3.147   0.962  0.0013  0.3414  0.0334
 2630SOL    HW2 8790   1.606   3.199   0.989  0.7823  0.0303 -3.4168
 2631SOL     OW 8791   4.516   2.347   0.131 -0.5605  0.3076 -0.6721
 2631SOL    HW1 8792   4.436   2.291   0.111 -0.1377  0.1217 -1.9491
 2631SOL    HW2 8793   4.560   2.315   0.215 -0.8650 -0.6706 -0.8715
 2632SOL     OW 8794   1.371   3.723   6.953 -0.1036 -0.3780  0.3778
 2632SOL    HW1 8795   1.455   3.700   6.903  0.3676 -0.1779  1.0583
 2632SOL    HW2 8796   1.305   3.648   6.944 -0.4003  0.0491 -1.3137
 2633SOL     OW 8797   5.259   3.295   3.115  0.4399  0.2604  0.6732
 2633SOL    HW1 8798   5.181   3.293   3.179 -1.4729  2.6126 -1.3684
 2633SOL    HW2 8799   5.335   3.242   3.153 -1.7406 -1.2389  3.2915
 2634SOL     OW 8800   2.480   4.689   6.821 -0.3945  0.0693  0.4594
 2634SOL    HW1 8801   2.443   4.654   6.907 -0.4060  1.2500  0.9540
 2634SOL    HW2 8802   2.571   4.726   6.836 -0.3907  0.2726 -0.0439
 2635SOL     OW 8803   5.639   2.106   3.544 -0.1545 -0.3501 -0.7581
 2635SOL    HW1 8804   5.667   2.030   3.485  2.3438 -0.2158  0.1771
 2635SOL    HW2 8805   5.628   2.189   3.489 -0.2451 -0.7656 -1.3750
 2636SOL     OW 8806   2.889   5.525   3.417 -0.0736  0.0294  0.4622
 2636SOL    HW1 8807   2.826   5.516   3.495  0.1398 -2.4491  0.4240
 2636SOL    HW2 8808   2.851   5.477   3.338  1.6762 -1.2611  0.3560
 2637SOL     OW 8809   0.213   5.465   0.979 -0.4527  0.7498 -0.5323
 2637SOL    HW1 8810   0.190   5.537   1.045 -0.4931  0.9129 -0.7217
 2637SOL    HW2 8811   0.277   5.501   0.912  0.2364  0.3450 -0.1083
 2638SOL     OW 8812   6.222   0.369   3.723 -0.4040  0.2702  0.0899
 2638SOL    HW1 8813   6.297   0.424   3.757 -1.5264  1.3755  0.8748
 2638SOL    HW2 8814   6.246   0.272   3.728  1.5874  0.6346 -1.2539
 2639SOL     OW 8815   2.026   0.312   0.911  0.3433 -0.4348 -0.1137
 2639SOL    HW1 8816   2.069   0.257   0.982 -0.8382 -1.5447 -0.2353
 2639SOL    HW2 8817   1.929   0.324   0.931  0.3327  0.6345 -0.7047
 2640SOL     OW 8818   6.479   4.705   1.222  0.0395  0.0710  0.2490
 2640SOL    HW1 8819   6.418   4.636   1.184  1.4968 -0.5281 -1.1358
 2640SOL    HW2 8820   6.452   4.727   1.316 -2.5385  0.1919 -0.4604
 2641SOL     OW 8821   1.772   5.666   1.449 -0.3100 -0.3115 -0.0049
 2641SOL    HW1 8822   1.722   5.704   1.527  0.1283 -0.8980  0.5732
 2641SOL    HW2 8823   1.762   5.567   1.448 -0.8077 -0.2710 -1.0560
 2642SOL     OW 8824   0.728   4.011   1.287  0.0874 -1.0270 -0.1662
 2642SOL    HW1 8825   0.686   4.055   1.366  1.9673  0.6187  0.0005
 2642SOL    HW2 8826   0.696   4.055   1.203  0.2114 -0.8812 -0.1384
 2643SOL     OW 8827   0.709   2.286   3.948  0.3471 -0.3698 -0.0297
 2643SOL    HW1 8828   0.672   2.379   3.951  0.1675 -0.4085 -0.7148
 2643SOL    HW2 8829   0.725   2.260   3.852 -3.4472 -2.5125 -0.3193
 2644SOL     OW 8830   0.748   6.535   5.900 -0.0090  0.2774 -0.3187
 2644SOL    HW1 8831   0.672   6.555   5.961  0.5753  0.8994  0.2201
 2644SOL    HW2 8832   0.768   6.437   5.903 -0.6813  0.1332 -0.3506
 2645SOL     OW 8833   4.191   6.428   0.652  0.1519  0.2190  0.1103
 2645SOL    HW1 8834   4.279   6.413   0.698  0.1620  0.1569  0.0712
 2645SOL    HW2 8835   4.133   6.348   0.666 -0.7708  1.1812  2.0926
 2646SOL     OW 8836   5.754   0.554   1.927 -0.1819 -0.1708 -0.2043
 2646SOL    HW1 8837   5.833   0.555   1.988 -0.6366 -0.4965  0.4023
 2646SOL    HW2 8838   5.678   0.603   1.971 -0.3633  0.0243 -0.7235
 2647SOL     OW 8839   1.014   5.037   3.196 -0.2159 -0.1862  0.3624
 2647SOL    HW1 8840   1.095   5.070   3.147  0.0350 -0.8206  0.3350
 2647SOL    HW2 8841   1.040   5.013   3.290 -0.6539  0.8463  0.7526
 2648SOL     OW 8842   0.175   0.223   3.965  0.4288 -0.1483  0.4984
 2648SOL    HW1 8843   0.224   0.288   3.907 -0.3534 -0.3822 -0.4646
 2648SOL    HW2 8844   0.184   0.131   3.927 -0.4478 -0.2437  0.4942
 2649SOL     OW 8845   5.429   5.723   0.994  0.0172  0.1367  0.7184
 2649SOL    HW1 8846   5.463   5.817   0.992 -0.1259  0.1703 -0.5700
 2649SOL    HW2 8847   5.329   5.724   1.004  0.0111  0.1142  0.6584
 2650SOL     OW 8848   6.601   3.344   6.295 -0.1687  0.6418 -0.1480
 2650SOL    HW1 8849   6.538   3.321   6.370  0.1562  0.8683  0.1987
 2650SOL    HW2 8850   6.549   3.387   6.221 -1.2959 -3.3022 -1.9231
 2651SOL     OW 8851   2.093   3.473   3.031 -0.1990 -0.1879 -0.2321
 2651SOL    HW1 8852   2.119   3.431   3.118 -0.6892  1.1654  0.6072
 2651SOL    HW2 8853   2.114   3.571   3.034 -1.5923  0.1632 -1.0754
 2652SOL     OW 8854   4.486   1.990   1.709 -0.1627 -0.2605 -0.7346
 2652SOL    HW1 8855   4.564   2.036   1.750 -0.7456  0.6302 -0.5772
 2652SOL    HW2 8856   4.504   1.973   1.612  0.0291  0.4245 -0.8249
 2653SOL     OW 8857   6.169   5.960   5.089 -0.0325 -0.1293  0.4506
 2653SOL    HW1 8858   6.194   5.883   5.148  1.7362  0.2331  0.2317
 2653SOL    HW2 8859   6.074   5.985   5.106 -0.8493 -2.7098  0.1065
 2654SOL     OW 8860   2.218   2.275   1.333 -0.1046 -0.1566  0.2225
 2654SOL    HW1 8861   2.237   2.306   1.239 -0.3637 -1.4549 -0.2783
 2654SOL    HW2 8862   2.257   2.341   1.398  1.4502 -0.0111 -0.7873
 2655SOL     OW 8863   2.688   6.504   2.603  0.1215 -0.5299  0.7393
 2655SOL    HW1 8864   2.731   6.587   2.568  0.4208  0.0689  2.4057
 2655SOL    HW2 8865   2.711   6.494   2.700  0.8009 -3.0346  0.3894
 2656SOL     OW 8866   2.123   1.870   0.381 -0.5199  0.0075  0.5239
 2656SOL    HW1 8867   2.172   1.948   0.420  1.6486 -0.4466 -1.1371
 2656SOL    HW2 8868   2.073   1.899   0.300  0.9630 -0.4266 -0.5839
 2657SOL     OW 8869   2.446   1.684   4.338  0.1255 -0.1415 -0.6376
 2657SOL    HW1 8870   2.528   1.683   4.395  0.2936 -0.6408 -0.8883
 2657SOL    HW2 8871   2.382   1.752   4.373  1.3868  1.5689 -1.4721
 2658SOL     OW 8872   3.710   6.487   0.847 -0.8852 -0.9737 -0.0398
 2658SOL    HW1 8873   3.771   6.566   0.843 -1.4391 -0.3591  2.4437
 2658SOL    HW2 8874   3.660   6.479   0.760  0.2681  0.4854 -0.8680
 2659SOL     OW 8875   1.528   6.103   4.484  0.4895  0.3573  0.7123
 2659SOL    HW1 8876   1.438   6.103   4.439 -0.0894 -0.6144  1.8135
 2659SOL    HW2 8877   1.529   6.171   4.557  0.3726 -0.1725  1.2122
 2660SOL     OW 8878   0.284   4.675   2.184 -0.4006  0.7022 -0.0702
 2660SOL    HW1 8879   0.316   4.585   2.212  1.2055  1.4209  0.4895
 2660SOL    HW2 8880   0.185   4.672   2.170 -0.9484 -0.3486  3.2136
 2661SOL     OW 8881   5.472   1.078   5.564 -0.4865  0.6765  0.9372
 2661SOL    HW1 8882   5.476   1.164   5.615  0.1128  0.3603  1.4433
 2661SOL    HW2 8883   5.564   1.051   5.537 -0.6519  0.1170  0.9155
 2662SOL     OW 8884   6.557   6.640   2.023 -0.1303 -0.1668  0.0370
 2662SOL    HW1 8885   6.567   6.711   2.093  0.9443  0.3352 -0.5859
 2662SOL    HW2 8886   6.526   6.682   1.937  1.7724 -0.1666 -0.7180
 2663SOL     OW 8887   2.915   4.125   5.300  0.2419  0.0595  0.8737
 2663SOL    HW1 8888   2.943   4.217   5.330 -0.3878  0.4153  0.4060
 2663SOL    HW2 8889   2.952   4.106   5.210  1.2664 -0.5926  1.4123
 2664SOL     OW 8890   3.535   0.245   5.631  0.4463  0.1449  0.1134
 2664SOL    HW1 8891   3.628   0.272   5.653  0.5831 -0.4988  0.3381
 2664SOL    HW2 8892   3.515   0.266   5.536  1.7375 -2.1486 -0.7365
 2665SOL     OW 8893   6.884   4.105   1.302  0.4319  0.1178  0.3603
 2665SOL    HW1 8894   6.919   4.191   1.339 -1.4912  0.5632  1.2676
 2665SOL    HW2 8895   6.887   4.034   1.372 -1.4082  0.4583  0.8550
 2666SOL     OW 8896   5.877   5.201   6.918  0.0028  0.3208  0.2122
 2666SOL    HW1 8897   5.811   5.168   6.985  1.4424 -1.5972  0.7665
 2666SOL    HW2 8898   5.921   5.284   6.952 -0.6971  0.4913  0.7163
 2667SOL     OW 8899   3.643   0.463   0.128  0.3569  0.0821  0.1832
 2667SOL    HW1 8900   3.615   0.498   0.218  0.4513  0.8710 -0.0883
 2667SOL    HW2 8901   3.584   0.386   0.103  1.2041 -1.0779  1.5379
 2668SOL     OW 8902   4.325   1.769   4.738  0.0322 -0.0547 -0.4227
 2668SOL    HW1 8903   4.296   1.766   4.834 -1.8467 -0.9858 -0.9751
 2668SOL    HW2 8904   4.260   1.823   4.686  0.6505 -0.1429 -1.2941
 2669SOL     OW 8905   3.215   5.567   1.228  0.0965  0.0087 -0.0600
 2669SOL    HW1 8906   3.307   5.575   1.267  0.6692 -0.3581 -1.2911
 2669SOL    HW2 8907   3.147   5.568   1.301  1.0653  0.5456  0.8484
 2670SOL     OW 8908   5.260   5.226   6.896 -0.1589  0.1779  0.2260
 2670SOL    HW1 8909   5.313   5.287   6.954  1.4762 -0.0322 -0.9546
 2670SOL    HW2 8910   5.310   5.141   6.882 -0.7791 -0.0200 -0.9771
 2671SOL     OW 8911   6.796   5.347   0.983  0.2132  0.4826  0.2194
 2671SOL    HW1 8912   6.790   5.351   0.884 -3.5476 -0.3833  0.2469
 2671SOL    HW2 8913   6.862   5.278   1.010  1.0418  0.4808 -1.6627
 2672SOL     OW 8914   2.236   4.002   1.335  0.1300 -0.2929  0.2462
 2672SOL    HW1 8915   2.298   4.052   1.274  0.1804 -1.9012 -1.0663
 2672SOL    HW2 8916   2.267   3.908   1.344 -0.1683 -0.2303  2.3997
 2673SOL     OW 8917   2.129   2.042   1.958  0.5425 -1.0149 -0.2111
 2673SOL    HW1 8918   2.219   2.056   1.999  0.2603  1.0670 -0.2003
 2673SOL    HW2 8919   2.059   2.047   2.028  0.1884  0.8301 -0.6592
 2674SOL     OW 8920   3.255   3.485   4.183  0.0479  0.2049 -0.2001
 2674SOL    HW1 8921   3.159   3.493   4.208 -0.8517 -1.5445 -2.7159
 2674SOL    HW2 8922   3.305   3.564   4.219 -2.3270  1.2960  0.9574
 2675SOL     OW 8923   2.422   1.577   6.287 -0.1991 -0.3535 -0.3794
 2675SOL    HW1 8924   2.355   1.504   6.273  0.1920 -0.8264  0.1669
 2675SOL    HW2 8925   2.395   1.658   6.234 -2.0722  0.0437  1.0841
 2676SOL     OW 8926   0.673   2.080   0.317  0.7942  0.6959  0.1594
 2676SOL    HW1 8927   0.757   2.077   0.262  1.4818  0.4494  1.2028
 2676SOL    HW2 8928   0.694   2.114   0.408 -0.3548  1.1820  0.2572
 2677SOL     OW 8929   0.779   3.070   1.546  0.3407 -0.1435  0.3784
 2677SOL    HW1 8930   0.820   3.033   1.630 -1.4142 -0.9239  0.9465
 2677SOL    HW2 8931   0.680   3.056   1.549  0.0781  1.1434 -1.1924
 2678SOL     OW 8932   4.551   0.613   1.164 -0.1500 -0.3651  0.0046
 2678SOL    HW1 8933   4.587   0.616   1.071  1.1043  0.6512  0.4914
 2678SOL    HW2 8934   4.536   0.707   1.197  0.3588 -0.6650  1.1552
 2679SOL     OW 8935   1.511   0.645   4.732 -0.0930 -0.0909 -0.6976
 2679SOL    HW1 8936   1.441   0.573   4.727 -1.8284  1.3312  1.2411
 2679SOL    HW2 8937   1.571   0.628   4.809 -1.1214  0.9796  0.3806
 2680SOL     OW 8938   4.618   2.439   0.527  0.1816  0.2038 -0.0608
 2680SOL    HW1 8939   4.519   2.445   0.543  0.5508  1.6792  2.0014
 2680SOL    HW2 8940   4.637   2.359   0.469 -2.0761 -1.0335  0.7600
 2681SOL     OW 8941   2.262   4.161   2.196  0.4211 -0.7482 -0.0629
 2681SOL    HW1 8942   2.203   4.085   2.224 -0.2087 -0.2925 -0.1051
 2681SOL    HW2 8943   2.345   4.126   2.153 -0.8908 -1.4212 -2.1989
 2682SOL     OW 8944   5.128   0.842   1.534 -0.5185 -0.1413 -0.2315
 2682SOL    HW1 8945   5.159   0.760   1.583 -1.5873 -0.0093  0.7282
 2682SOL    HW2 8946   5.120   0.822   1.437  2.2539 -0.2489 -0.5286
 2683SOL     OW 8947   4.330   1.690   3.133  0.3245  0.0208  0.0817
 2683SOL    HW1 8948   4.391   1.632   3.187 -0.1879  0.1526  0.8226
 2683SOL    HW2 8949   4.264   1.632   3.085  1.3751 -0.1614 -1.1874
 2684SOL     OW 8950   2.109   4.894   4.264  0.0759  0.1330 -0.2993
 2684SOL    HW1 8951   2.020   4.867   4.228  1.0983 -2.2187 -1.2899
 2684SOL    HW2 8952   2.132   4.839   4.344 -0.1138  2.0485  1.1507
 2685SOL     OW 8953   2.741   0.951   4.052  0.0198 -0.2278  0.1525
 2685SOL    HW1 8954   2.787   1.017   4.112 -1.8258  0.5269  0.8157
 2685SOL    HW2 8955   2.655   0.990   4.019  0.2465 -1.2433 -1.7522
 2686SOL     OW 8956   1.157   4.290   2.099 -0.2286 -0.2109 -0.0623
 2686SOL    HW1 8957   1.236   4.255   2.148 -1.9457 -0.4936  2.7453
 2686SOL    HW2 8958   1.118   4.218   2.041 -0.0287 -0.9565  0.7151
 2687SOL     OW 8959   0.492   4.939   3.337 -0.1700 -0.5644  0.4071
 2687SOL    HW1 8960   0.455   4.846   3.343  1.0151 -1.1636 -0.9805
 2687SOL    HW2 8961   0.588   4.934   3.311 -0.8367  1.1005 -2.7635
 2688SOL     OW 8962   1.138   4.119   2.710 -0.2799  0.3004 -0.5228
 2688SOL    HW1 8963   1.172   4.213   2.710  0.9167 -0.0723  1.4528
 2688SOL    HW2 8964   1.041   4.119   2.734 -0.5822  1.0726 -1.6430
 2689SOL     OW 8965   1.815   5.963   2.042  0.0911 -0.1421 -0.2282
 2689SOL    HW1 8966   1.734   6.013   2.010 -0.2915 -0.6044  0.0087
 2689SOL    HW2 8967   1.813   5.870   2.006 -1.6910 -1.5559  3.0611
 2690SOL     OW 8968   3.077   3.118   3.904  0.2738 -0.7089  0.1471
 2690SOL    HW1 8969   3.105   3.026   3.932  1.4117 -0.0787  1.1639
 2690SOL    HW2 8970   3.157   3.170   3.876 -0.3119  0.0893 -0.0811
 2691SOL     OW 8971   1.125   6.325   0.243 -0.0238 -0.0109  0.5032
 2691SOL    HW1 8972   1.152   6.241   0.290 -2.1409  0.2210  2.2812
 2691SOL    HW2 8973   1.197   6.351   0.179  1.2692 -2.4557  0.8151
 2692SOL     OW 8974   3.821   5.645   1.637 -0.0162 -0.5753  0.7656
 2692SOL    HW1 8975   3.797   5.588   1.715 -1.5956 -0.7620  0.1890
 2692SOL    HW2 8976   3.746   5.709   1.618  0.9623  0.4592  0.2964
 2693SOL     OW 8977   0.814   1.396   6.767 -0.0637 -0.3623  0.5612
 2693SOL    HW1 8978   0.830   1.417   6.863 -0.5141  1.1659  0.3371
 2693SOL    HW2 8979   0.861   1.463   6.710 -0.3496 -0.8487 -0.2681
 2694SOL     OW 8980   6.140   5.841   6.754 -0.2509  0.2921 -0.2306
 2694SOL    HW1 8981   6.125   5.767   6.687 -1.5742  0.5159 -0.2005
 2694SOL    HW2 8982   6.237   5.865   6.755  0.2259 -1.4680 -0.2126
 2695SOL     OW 8983   6.982   6.702   2.682 -0.5312  0.5976  0.1808
 2695SOL    HW1 8984   6.912   6.769   2.660  0.1155  0.9051 -1.0724
 2695SOL    HW2 8985   6.943   6.610   2.680 -1.3141  0.8936  1.4252
 2696SOL     OW 8986   3.838   5.040   6.762 -0.5780 -0.8236  0.7160
 2696SOL    HW1 8987   3.812   5.052   6.667  1.2420 -0.2973  0.2542
 2696SOL    HW2 8988   3.872   4.946   6.776  2.3808  0.0365 -0.0320
 2697SOL     OW 8989   4.599   7.015   5.168 -0.1504 -0.1035 -0.2744
 2697SOL    HW1 8990   4.577   7.109   5.140  0.5045 -0.1373 -0.9246
 2697SOL    HW2 8991   4.693   6.994   5.142 -0.3855 -1.0386 -0.3901
 2698SOL     OW 8992   6.301   4.216   5.287  0.4364 -0.3538 -0.0613
 2698SOL    HW1 8993   6.335   4.124   5.266  0.8486 -0.3676  0.6037
 2698SOL    HW2 8994   6.211   4.229   5.246 -0.2049 -1.5259  0.8921
 2699SOL     OW 8995   1.864   4.216   6.064  0.1222 -0.1281 -0.5982
 2699SOL    HW1 8996   1.875   4.312   6.039  2.0823 -0.0654  0.3629
 2699SOL    HW2 8997   1.923   4.160   6.006 -0.1017 -0.6274 -0.3436
 2700SOL     OW 8998   6.431   3.398   5.074 -0.3991 -0.2076 -0.1199
 2700SOL    HW1 8999   6.418   3.347   4.989 -1.8757 -0.9466  0.5217
 2700SOL    HW2 9000   6.405   3.341   5.151  3.4233 -0.5663  1.1343
 2701SOL     OW 9001   4.827   6.463   0.374  0.0896  0.0500 -0.3347
 2701SOL    HW1 9002   4.776   6.547   0.390  0.5593  0.0272  1.5942
 2701SOL    HW2 9003   4.925   6.483   0.369  0.1374 -0.2749 -0.7443
 2702SOL     OW 9004   5.527   0.613   5.843  0.1262 -0.1206 -0.7750
 2702SOL    HW1 9005   5.557   0.620   5.748 -1.0228 -0.8859 -1.2129
 2702SOL    HW2 9006   5.433   0.645   5.852 -0.7736 -2.5762 -0.4651
 2703SOL     OW 9007   6.287   2.721   0.794  0.2790 -0.6364 -0.5449
 2703SOL    HW1 9008   6.263   2.757   0.704 -0.4358  0.9873  0.2508
 2703SOL    HW2 9009   6.224   2.648   0.820 -2.2766  1.7490  0.3704
 2704SOL     OW 9010   0.252   2.844   6.596  0.0450 -0.2032 -0.9166
 2704SOL    HW1 9011   0.206   2.859   6.684  1.0162  0.2386 -0.4639
 2704SOL    HW2 9012   0.209   2.900   6.526  1.3576  2.0807  0.0014
 2705SOL     OW 9013   0.658   3.024   1.198  0.0734 -0.4761  0.3138
 2705SOL    HW1 9014   0.682   2.939   1.246  0.2244  0.3892  1.8415
 2705SOL    HW2 9015   0.719   3.036   1.120  2.2748 -0.2100  1.9409
 2706SOL     OW 9016   2.802   2.142   1.144  0.7106 -0.0908  0.7826
 2706SOL    HW1 9017   2.876   2.096   1.095  0.4988  0.4550 -0.0621
 2706SOL    HW2 9018   2.738   2.073   1.179  0.3574 -0.4756 -0.5405
 2707SOL     OW 9019   3.975   3.432   3.994  0.1275  0.0724  0.1734
 2707SOL    HW1 9020   4.021   3.431   4.083  0.4994  0.8029 -0.0086
 2707SOL    HW2 9021   3.885   3.474   4.003 -1.0619 -2.4020  0.7747
 2708SOL     OW 9022   4.469   4.563   2.030 -0.5768  0.1518  0.2424
 2708SOL    HW1 9023   4.485   4.471   1.995 -2.2842  0.3885 -1.3628
 2708SOL    HW2 9024   4.525   4.579   2.110  1.6301 -1.3813 -0.9017
 2709SOL     OW 9025   3.397   1.075   0.300 -0.0192 -0.2607 -0.4335
 2709SOL    HW1 9026   3.359   1.143   0.238 -1.3317 -0.5865 -0.0229
 2709SOL    HW2 9027   3.464   1.118   0.360 -0.8815  0.7006 -0.1403
 2710SOL     OW 9028   0.400   2.605   6.946  0.0861 -0.0594  0.2298
 2710SOL    HW1 9029   0.418   2.536   7.016  2.4526  0.0924 -0.1656
 2710SOL    HW2 9030   0.477   2.667   6.939 -1.3645  1.7716 -0.4745
 2711SOL     OW 9031   5.584   3.845   5.305  0.3297  0.5155  0.3658
 2711SOL    HW1 9032   5.591   3.933   5.353  2.1487  0.2794  0.5954
 2711SOL    HW2 9033   5.630   3.852   5.216 -2.1351  0.6471 -1.0117
 2712SOL     OW 9034   5.311   5.165   1.145  0.0134  0.4003 -0.2567
 2712SOL    HW1 9035   5.380   5.162   1.218  1.0591 -1.5940 -1.2334
 2712SOL    HW2 9036   5.222   5.140   1.182 -0.1507  2.5326  0.9294
 2713SOL     OW 9037   2.862   4.957   1.411 -0.1169 -0.4257 -0.2240
 2713SOL    HW1 9038   2.874   4.941   1.509 -0.5160 -0.5850 -0.1959
 2713SOL    HW2 9039   2.901   5.046   1.386 -1.6047  0.4497  0.4290
 2714SOL     OW 9040   6.590   1.658   1.845  0.1369 -0.0077  0.4697
 2714SOL    HW1 9041   6.614   1.720   1.769 -1.2938 -1.5217 -1.3075
 2714SOL    HW2 9042   6.502   1.686   1.883  1.5420  1.6940  2.7354
 2715SOL     OW 9043   5.050   2.045   3.025 -0.1818 -0.3536 -0.0211
 2715SOL    HW1 9044   5.112   2.118   3.051 -0.0828 -0.3278 -0.3293
 2715SOL    HW2 9045   5.022   2.056   2.929 -0.2048 -0.6874 -0.0558
 2716SOL     OW 9046   1.774   4.527   5.048 -0.1571 -0.0159 -0.0135
 2716SOL    HW1 9047   1.845   4.562   4.987  0.9949  0.0322  1.3260
 2716SOL    HW2 9048   1.690   4.511   4.995  0.9809 -0.5668 -1.7197
 2717SOL     OW 9049   5.754   0.929   6.505 -0.2145 -0.3582  0.9814
 2717SOL    HW1 9050   5.771   0.903   6.410 -1.7409 -2.5824  1.2305
 2717SOL    HW2 9051   5.821   0.997   6.534  1.6718 -1.2530 -1.0097
 2718SOL     OW 9052   4.306   0.666   6.406  0.3377  0.1036  0.6668
 2718SOL    HW1 9053   4.225   0.720   6.384  0.9356  0.8888  0.3434
 2718SOL    HW2 9054   4.358   0.649   6.322  1.2642  0.8623  1.0715
 2719SOL     OW 9055   3.556   5.455   5.170 -0.3406  0.2511  0.1337
 2719SOL    HW1 9056   3.486   5.471   5.100  0.4342  0.8396 -0.5328
 2719SOL    HW2 9057   3.600   5.542   5.193 -1.1818  0.2194  2.0231
 2720SOL     OW 9058   0.723   4.848   5.560  0.8923  0.4172  0.1342
 2720SOL    HW1 9059   0.708   4.936   5.605 -0.9160  0.5494 -0.6267
 2720SOL    HW2 9060   0.716   4.860   5.461  0.3932 -0.6030  0.0333
 2721SOL     OW 9061   4.027   0.649   1.473  0.0336  0.0862  0.7349
 2721SOL    HW1 9062   4.035   0.630   1.375 -2.1378  0.9261  0.3383
 2721SOL    HW2 9063   4.009   0.563   1.522 -0.1583 -0.1660  0.2254
 2722SOL     OW 9064   4.701   1.876   2.568 -0.0160 -0.0681 -0.2306
 2722SOL    HW1 9065   4.677   1.786   2.533 -1.2071 -0.4345  1.3888
 2722SOL    HW2 9066   4.617   1.925   2.594  0.7430  0.0803  2.2132
 2723SOL     OW 9067   3.015   5.355   1.070  0.3860 -0.5223 -0.1656
 2723SOL    HW1 9068   3.063   5.297   1.004  0.4411 -0.0005 -0.5850
 2723SOL    HW2 9069   3.060   5.443   1.076 -0.1021 -0.2782 -0.0403
 2724SOL     OW 9070   0.583   1.516   3.272 -0.2865  0.0010  0.1939
 2724SOL    HW1 9071   0.561   1.473   3.359 -0.7614 -1.5979 -0.6622
 2724SOL    HW2 9072   0.683   1.519   3.261 -0.2359 -0.9118  0.2858
 2725SOL     OW 9073   0.642   0.437   4.975 -0.6632 -0.1078 -0.0402
 2725SOL    HW1 9074   0.560   0.473   4.932  0.4693  3.1460  0.2709
 2725SOL    HW2 9075   0.653   0.477   5.066  0.4472 -1.7265  0.5876
 2726SOL     OW 9076   2.277   6.404   0.844  0.6319  0.0102 -0.1155
 2726SOL    HW1 9077   2.254   6.386   0.939 -1.4084 -0.1001 -0.5947
 2726SOL    HW2 9078   2.374   6.384   0.829  1.6172  2.1819  2.4320
 2727SOL     OW 9079   6.361   6.370   1.814  0.3613 -0.1909 -0.4445
 2727SOL    HW1 9080   6.400   6.439   1.752 -2.7644  3.5562  1.3387
 2727SOL    HW2 9081   6.382   6.394   1.908 -0.2686 -2.1756  0.2599
 2728SOL     OW 9082   6.172   3.511   0.961 -0.5448  0.1128  0.0278
 2728SOL    HW1 9083   6.145   3.429   0.911 -1.1016  0.6816 -0.6308
 2728SOL    HW2 9084   6.091   3.564   0.985 -0.1086  2.2037 -2.5938
 2729SOL     OW 9085   2.681   4.669   3.853 -0.2188 -0.1788 -0.5854
 2729SOL    HW1 9086   2.730   4.734   3.911 -0.7356 -0.2127 -0.0994
 2729SOL    HW2 9087   2.599   4.638   3.900  0.5182 -1.9575 -0.3670
 2730SOL     OW 9088   3.134   5.099   2.481 -0.1486 -0.2909 -0.1207
 2730SOL    HW1 9089   3.159   5.022   2.423 -0.7488 -2.1385  1.9250
 2730SOL    HW2 9090   3.035   5.109   2.483 -0.2991 -1.5655  2.0348
 2731SOL     OW 9091   6.717   2.612   6.983 -0.0950 -0.0544  0.1184
 2731SOL    HW1 9092   6.805   2.566   6.976 -0.8651 -1.4935 -0.7648
 2731SOL    HW2 9093   6.714   2.688   6.918  0.3098 -0.3372 -0.2364
 2732SOL     OW 9094   6.434   5.125   4.079 -0.2160 -0.8213 -0.2821
 2732SOL    HW1 9095   6.516   5.182   4.083 -0.1774 -0.8804 -0.2171
 2732SOL    HW2 9096   6.374   5.158   4.007 -0.4027 -0.4226  0.0529
 2733SOL     OW 9097   3.204   6.739   0.240  0.2027  0.1577 -0.1738
 2733SOL    HW1 9098   3.227   6.807   0.170  0.3931 -0.2468 -0.5103
 2733SOL    HW2 9099   3.110   6.707   0.224 -0.1116  0.7895  0.3591
 2734SOL     OW 9100   1.512   5.257   1.411  0.4640  0.5790  0.0764
 2734SOL    HW1 9101   1.438   5.190   1.423  0.6990  0.0914 -1.0446
 2734SOL    HW2 9102   1.479   5.347   1.438 -0.3650  0.2809  0.1143
 2735SOL     OW 9103   1.495   5.686   2.588  0.1510 -0.6706 -0.7575
 2735SOL    HW1 9104   1.513   5.608   2.528  0.6561  0.4936 -2.2004
 2735SOL    HW2 9105   1.581   5.722   2.624 -0.0375 -0.5309 -0.4392
 2736SOL     OW 9106   3.783   6.583   5.659  0.1663  0.2992 -0.5748
 2736SOL    HW1 9107   3.861   6.520   5.657 -0.1609 -0.2585  1.5639
 2736SOL    HW2 9108   3.770   6.623   5.569  0.3625 -2.7474 -2.0543
 2737SOL     OW 9109   0.157   2.998   6.850 -0.2427  0.2833  0.4536
 2737SOL    HW1 9110   0.134   2.932   6.922 -1.0079 -0.1746 -0.1991
 2737SOL    HW2 9111   0.104   3.081   6.863 -1.3877 -0.2980 -0.3233
 2738SOL     OW 9112   1.241   6.359   6.693  0.2274  0.1746  0.6265
 2738SOL    HW1 9113   1.254   6.451   6.732 -0.7299  0.3660  0.5238
 2738SOL    HW2 9114   1.192   6.302   6.758 -0.2828  0.1206  0.2018
 2739SOL     OW 9115   4.744   5.610   5.803  0.4574 -0.1709 -0.0355
 2739SOL    HW1 9116   4.676   5.683   5.802  1.1380  0.4814 -1.7916
 2739SOL    HW2 9117   4.818   5.632   5.740  0.1057 -2.8960 -1.5712
 2740SOL     OW 9118   4.040   3.948   5.467  0.4710  0.3742 -0.6681
 2740SOL    HW1 9119   4.050   4.041   5.430 -0.3919  0.2590 -1.2279
 2740SOL    HW2 9120   3.951   3.940   5.512 -0.3170 -0.7317 -2.3367
 2741SOL     OW 9121   0.793   0.295   2.440  0.6351 -0.0187  0.5120
 2741SOL    HW1 9122   0.715   0.334   2.488 -0.3431 -1.1155 -0.1627
 2741SOL    HW2 9123   0.865   0.365   2.432 -0.1741  0.9369  1.3131
 2742SOL     OW 9124   0.980   5.111   3.692  0.0977  0.4043  0.5332
 2742SOL    HW1 9125   0.891   5.067   3.710  0.2395 -1.0306 -1.8475
 2742SOL    HW2 9126   1.052   5.056   3.734 -0.0430  1.1257  1.7692
 2743SOL     OW 9127   4.005   3.502   2.630  0.0409  0.2359  0.0449
 2743SOL    HW1 9128   3.956   3.446   2.563  0.3032 -0.1002  0.1303
 2743SOL    HW2 9129   4.072   3.445   2.678 -0.1583  0.4616  0.6068
 2744SOL     OW 9130   0.288   5.227   1.329 -0.0371  0.1942  0.1583
 2744SOL    HW1 9131   0.279   5.210   1.231  0.5474 -1.1563  0.3236
 2744SOL    HW2 9132   0.200   5.212   1.373  0.0231 -0.6140  0.0241
 2745SOL     OW 9133   1.210   0.081   5.675  0.5016 -0.7950 -0.7495
 2745SOL    HW1 9134   1.131   0.138   5.656  0.8698 -0.1789 -0.4609
 2745SOL    HW2 9135   1.180  -0.012   5.696 -0.2055 -0.3774  0.1628
 2746SOL     OW 9136   2.798   0.184   6.609  0.7575 -0.1044  0.0759
 2746SOL    HW1 9137   2.807   0.098   6.659 -1.0542 -0.8583 -0.7934
 2746SOL    HW2 9138   2.825   0.170   6.513 -0.7985 -0.1016 -0.3932
 2747SOL     OW 9139   5.180   1.734   1.617  0.5807  0.2982 -0.0597
 2747SOL    HW1 9140   5.094   1.688   1.595 -0.3580  1.7713  0.3596
 2747SOL    HW2 9141   5.242   1.729   1.539  0.8175 -2.2398  0.2058
 2748SOL     OW 9142   5.425   4.706   4.259 -0.3341  0.3080  0.4888
 2748SOL    HW1 9143   5.517   4.677   4.284  0.1231  0.4636 -0.9265
 2748SOL    HW2 9144   5.413   4.803   4.280  0.0433  0.4393  0.1064
 2749SOL     OW 9145   4.655   4.539   5.994  0.2236 -0.0675  0.3820
 2749SOL    HW1 9146   4.752   4.536   6.019  0.2177 -1.4064  0.3193
 2749SOL    HW2 9147   4.613   4.622   6.031  1.4549  0.6753  0.1604
 2750SOL     OW 9148   2.580   0.121   3.055  0.3957  0.1908  0.1014
 2750SOL    HW1 9149   2.607   0.053   3.123  0.0089 -0.5569 -0.4788
 2750SOL    HW2 9150   2.636   0.110   2.973  1.1059  1.3218  0.4095
 2751SOL     OW 9151   0.880   4.301   0.217 -0.7711  0.3707 -0.7044
 2751SOL    HW1 9152   0.825   4.243   0.158  1.4386 -1.0727 -1.4726
 2751SOL    HW2 9153   0.968   4.318   0.174  0.8232 -0.4903  1.9920
 2752SOL     OW 9154   0.476   3.657   3.892 -0.5786  0.0721  0.0774
 2752SOL    HW1 9155   0.409   3.673   3.965 -0.8457  1.6177 -0.4765
 2752SOL    HW2 9156   0.455   3.716   3.815  1.3736  0.5085 -0.1549
 2753SOL     OW 9157   1.825   2.257   6.748  0.4854 -0.1995  0.2222
 2753SOL    HW1 9158   1.922   2.240   6.764  0.2956 -0.4833  1.1028
 2753SOL    HW2 9159   1.794   2.334   6.803 -0.0063 -0.7223  0.6984
 2754SOL     OW 9160   5.306   6.214   0.927  0.0957 -0.6896  0.4441
 2754SOL    HW1 9161   5.376   6.273   0.966  0.4237 -2.3712  2.5282
 2754SOL    HW2 9162   5.317   6.211   0.827 -0.5540  3.4650  0.0592
 2755SOL     OW 9163   1.470   4.769   1.790  0.0094  0.2794 -0.1751
 2755SOL    HW1 9164   1.423   4.724   1.715 -1.3021  0.2305  0.6481
 2755SOL    HW2 9165   1.548   4.713   1.819 -2.5531 -2.5336  1.9810
 2756SOL     OW 9166   5.864   4.754   6.740 -0.0921  0.1301 -0.4944
 2756SOL    HW1 9167   5.822   4.672   6.700 -1.6223  1.7603 -2.4572
 2756SOL    HW2 9168   5.808   4.786   6.817 -1.5410  1.2758 -1.9692
 2757SOL     OW 9169   4.291   3.924   1.716  0.4449 -0.6718 -0.3501
 2757SOL    HW1 9170   4.269   3.945   1.621 -3.4420 -1.8144  0.1080
 2757SOL    HW2 9171   4.296   4.009   1.769  3.8388  0.0715 -1.6343
 2758SOL     OW 9172   5.811   6.196   6.708  0.2186  0.2041 -0.2343
 2758SOL    HW1 9173   5.889   6.138   6.687  0.4772 -0.6492  2.5930
 2758SOL    HW2 9174   5.738   6.141   6.748 -0.3792  1.5146  0.5692
 2759SOL     OW 9175   5.256   5.653   6.985 -0.2240 -0.4573 -0.0436
 2759SOL    HW1 9176   5.201   5.713   7.044  0.7416  0.1023  0.3085
 2759SOL    HW2 9177   5.261   5.691   6.893  0.9707  0.3968  0.3568
 2760SOL     OW 9178   5.852   3.987   6.709 -0.3754  0.5586  0.4036
 2760SOL    HW1 9179   5.887   4.068   6.757 -0.4525  0.0134  1.3898
 2760SOL    HW2 9180   5.804   3.928   6.773 -1.4213  0.3322 -0.5508
 2761SOL     OW 9181   5.305   0.074   6.785 -0.3553  0.3330 -0.1545
 2761SOL    HW1 9182   5.261   0.041   6.869  2.4111 -0.5092  1.0858
 2761SOL    HW2 9183   5.295   0.006   6.713  0.6544 -0.8242  0.7526
 2762SOL     OW 9184   3.850   4.876   1.950  0.1873  0.5011 -0.3071
 2762SOL    HW1 9185   3.856   4.937   1.871 -1.3170 -0.4010 -1.1618
 2762SOL    HW2 9186   3.755   4.851   1.966  0.6341 -0.5707  0.8518
 2763SOL     OW 9187   3.607   0.970   4.012  0.4674  0.6294  0.3883
 2763SOL    HW1 9188   3.634   0.987   4.107  0.8752 -1.5011  0.7076
 2763SOL    HW2 9189   3.680   0.999   3.951  1.6116 -0.9423  0.9616
 2764SOL     OW 9190   3.556   0.558   5.759  0.0536 -0.2129  0.0322
 2764SOL    HW1 9191   3.638   0.505   5.739  0.4270  0.2525  0.3172
 2764SOL    HW2 9192   3.541   0.561   5.858  1.8734  2.8768  0.3369
 2765SOL     OW 9193   4.840   5.212   1.481 -0.2570 -0.3228 -0.5431
 2765SOL    HW1 9194   4.755   5.222   1.532 -0.5875  1.4987 -1.3919
 2765SOL    HW2 9195   4.914   5.187   1.544 -0.9684  0.2310  0.5420
 2766SOL     OW 9196   3.774   4.793   6.548 -0.0783  0.0060 -0.0146
 2766SOL    HW1 9197   3.682   4.775   6.584 -0.4186 -1.3068 -1.4361
 2766SOL    HW2 9198   3.828   4.709   6.552 -0.1773 -0.2573 -2.6226
 2767SOL     OW 9199   5.801   5.335   3.108  0.0315 -0.4330 -0.4189
 2767SOL    HW1 9200   5.849   5.258   3.149 -1.6727 -0.6590  1.2414
 2767SOL    HW2 9201   5.704   5.330   3.129 -0.3634  1.3722 -1.5664
 2768SOL     OW 9202   2.352   3.140   5.568  0.1508 -0.4633 -0.3821
 2768SOL    HW1 9203   2.414   3.079   5.517 -0.3455 -0.0096 -1.5754
 2768SOL    HW2 9204   2.362   3.233   5.534  0.3938  0.0236  0.9577
 2769SOL     OW 9205   6.665   5.424   3.421  0.2637  0.4211 -0.1742
 2769SOL    HW1 9206   6.630   5.455   3.332 -1.4347  1.5715  0.8395
 2769SOL    HW2 9207   6.638   5.489   3.492  2.7154  0.2363  1.0325
 2770SOL     OW 9208   4.894   1.839   4.093  0.4281 -0.0533 -0.0858
 2770SOL    HW1 9209   4.852   1.829   4.183 -0.4178 -2.2112 -0.6476
 2770SOL    HW2 9210   4.978   1.893   4.101 -0.8485  1.8285  1.5638
 2771SOL     OW 9211   1.299   0.201   6.505 -0.2274  0.1547 -0.0968
 2771SOL    HW1 9212   1.222   0.234   6.559  0.0153  0.4178  0.0928
 2771SOL    HW2 9213   1.278   0.209   6.408 -0.8093 -0.6554 -0.0519
 2772SOL     OW 9214   1.844   4.788   1.752 -0.2281 -0.3018  0.3111
 2772SOL    HW1 9215   1.930   4.739   1.741 -0.6277 -0.9925  0.2373
 2772SOL    HW2 9216   1.780   4.733   1.805 -0.2934  0.6253  1.2425
 2773SOL     OW 9217   0.036   2.004   2.551  0.2761  0.7100  0.3338
 2773SOL    HW1 9218  -0.044   2.042   2.597 -0.4560 -1.2806  0.7850
 2773SOL    HW2 9219   0.112   1.999   2.615 -0.3904 -0.9264  1.0662
 2774SOL     OW 9220   6.837   2.074   6.835  0.5575  0.7525 -0.0816
 2774SOL    HW1 9221   6.876   1.983   6.843  1.6266  1.2487  0.5555
 2774SOL    HW2 9222   6.785   2.096   6.917 -2.1652 -0.3538 -1.3800
 2775SOL     OW 9223   6.593   2.156   1.968  0.2764 -0.2428 -0.5026
 2775SOL    HW1 9224   6.649   2.235   1.993 -3.2376  2.6232 -0.8251
 2775SOL    HW2 9225   6.634   2.073   2.005  2.7560  2.0075  2.3249
 2776SOL     OW 9226   2.079   2.587   2.684  0.5601 -0.1369 -0.1904
 2776SOL    HW1 9227   2.003   2.636   2.641  1.6200  0.6528 -1.2240
 2776SOL    HW2 9228   2.144   2.652   2.723  0.6480 -0.8041  0.8172
 2777SOL     OW 9229   7.017   5.202   1.074  0.4067  0.4744 -0.0809
 2777SOL    HW1 9230   7.080   5.168   1.006 -1.4584 -0.5950 -1.3711
 2777SOL    HW2 9231   6.968   5.126   1.116 -1.0968  1.3176 -0.2250
 2778SOL     OW 9232   1.976   0.257   0.333 -0.2779  0.5792  0.0507
 2778SOL    HW1 9233   2.040   0.245   0.258 -0.3218 -0.7088  0.1994
 2778SOL    HW2 9234   1.992   0.345   0.377 -0.2559  1.3580 -1.4603
 2779SOL     OW 9235   2.134   6.559   5.503  0.3612  0.2047 -0.5383
 2779SOL    HW1 9236   2.226   6.539   5.537  0.7651  1.6645 -0.7138
 2779SOL    HW2 9237   2.127   6.533   5.407  1.1983  1.7546 -1.0504
 2780SOL     OW 9238   3.861   2.370   0.981 -0.3944 -0.3319  0.0046
 2780SOL    HW1 9239   3.884   2.464   0.956 -1.9947  0.0011 -0.3107
 2780SOL    HW2 9240   3.930   2.335   1.045  0.0959  1.1278  0.3175
 2781SOL     OW 9241   1.794   0.595   3.176 -0.0887 -0.3390  0.0507
 2781SOL    HW1 9242   1.722   0.637   3.232  0.2655  0.5961 -0.1663
 2781SOL    HW2 9243   1.763   0.588   3.081 -0.3989 -1.2057  0.2103
 2782SOL     OW 9244   2.294   6.112   0.561 -0.0097  0.3757 -0.2514
 2782SOL    HW1 9245   2.371   6.161   0.602  0.7585  0.3445 -1.5959
 2782SOL    HW2 9246   2.323   6.019   0.536 -0.5915  0.2421 -0.4603
 2783SOL     OW 9247   0.780   2.017   5.813 -0.3544  0.5537  0.2442
 2783SOL    HW1 9248   0.804   2.040   5.908 -0.7116  0.9043  0.2490
 2783SOL    HW2 9249   0.740   2.096   5.768  1.1290  0.8385 -0.6529
 2784SOL     OW 9250   5.291   2.320   5.696  0.1632 -0.2802 -0.4344
 2784SOL    HW1 9251   5.317   2.226   5.673 -0.4151 -1.0143  1.7132
 2784SOL    HW2 9252   5.193   2.323   5.716  0.2942  0.6673  0.0957
 2785SOL     OW 9253   2.644   5.885   4.247  0.1825  0.0952  0.1153
 2785SOL    HW1 9254   2.702   5.906   4.326 -1.9164  0.3900  1.6605
 2785SOL    HW2 9255   2.641   5.964   4.186  1.1779  0.1676  0.1512
 2786SOL     OW 9256   6.260   3.809   3.512 -0.5263  0.2544  0.1814
 2786SOL    HW1 9257   6.318   3.728   3.508  0.8421  1.2162 -0.3764
 2786SOL    HW2 9258   6.169   3.787   3.476  0.0560 -0.8308 -0.6881
 2787SOL     OW 9259   0.929   4.585   6.938 -0.2561  0.1620  0.1897
 2787SOL    HW1 9260   0.994   4.517   6.906 -1.9466 -0.6695 -1.7182
 2787SOL    HW2 9261   0.940   4.600   7.036  1.9849 -0.7765  0.1207
 2788SOL     OW 9262   4.338   1.458   4.462  0.2567  0.1523 -0.1785
 2788SOL    HW1 9263   4.387   1.450   4.376 -0.4993  1.5995 -0.7648
 2788SOL    HW2 9264   4.240   1.466   4.444  0.1327  0.9791  0.7896
 2789SOL     OW 9265   0.337   5.500   2.967 -0.0096  0.3378 -0.4564
 2789SOL    HW1 9266   0.367   5.427   3.029  0.5960  1.4558  0.5899
 2789SOL    HW2 9267   0.317   5.460   2.877 -0.1662 -1.1934  0.2192
 2790SOL     OW 9268   4.945   4.788   3.854 -0.1020 -0.0373  0.2625
 2790SOL    HW1 9269   4.930   4.822   3.762 -1.6600 -0.7479  0.2267
 2790SOL    HW2 9270   4.931   4.689   3.857  1.0550 -0.2105  1.0497
 2791SOL     OW 9271   2.543   5.023   4.474  0.4054 -0.8145 -0.3965
 2791SOL    HW1 9272   2.585   4.996   4.388  0.8171  0.4502 -0.6203
 2791SOL    HW2 9273   2.495   5.110   4.461 -1.1724 -1.5697  0.1839
 2792SOL     OW 9274   0.476   2.780   3.748 -0.3089 -0.1518 -0.2638
 2792SOL    HW1 9275   0.481   2.753   3.844  0.8328  0.5020 -0.1104
 2792SOL    HW2 9276   0.568   2.776   3.708 -0.5960  0.6052 -1.0346
 2793SOL     OW 9277   4.798   0.971   2.600 -0.4516 -0.9354 -0.1430
 2793SOL    HW1 9278   4.881   0.923   2.628  0.7839  0.1158 -1.7962
 2793SOL    HW2 9279   4.819   1.031   2.522 -2.5244  0.2205  0.1226
 2794SOL     OW 9280   2.743   1.662   4.757 -0.4448  0.2294 -0.3216
 2794SOL    HW1 9281   2.718   1.567   4.775 -0.2896  0.6713  2.6230
 2794SOL    HW2 9282   2.737   1.715   4.841 -1.6008  3.1243 -2.0840
 2795SOL     OW 9283   2.066   5.808   5.642 -0.1043 -0.0166  0.3300
 2795SOL    HW1 9284   2.051   5.843   5.734 -0.6090  0.2815  0.1398
 2795SOL    HW2 9285   1.978   5.799   5.595  0.1579 -0.0417 -0.1634
 2796SOL     OW 9286   1.743   2.598   4.537 -0.1283 -0.0156  0.0744
 2796SOL    HW1 9287   1.726   2.686   4.580 -1.7683  0.1395 -0.8261
 2796SOL    HW2 9288   1.658   2.546   4.533  1.0375 -2.2528  1.8287
 2797SOL     OW 9289   2.434   2.675   1.362  0.2745  0.2931 -0.1507
 2797SOL    HW1 9290   2.501   2.647   1.432  0.0450  2.1572  0.8797
 2797SOL    HW2 9291   2.342   2.674   1.402 -0.0637 -0.2222 -0.9339
 2798SOL     OW 9292   1.835   1.735   5.609  0.6101 -0.4198  0.1386
 2798SOL    HW1 9293   1.802   1.703   5.698 -1.6622  0.4514 -0.3193
 2798SOL    HW2 9294   1.792   1.682   5.536  0.2348  0.6977 -0.4909
 2799SOL     OW 9295   6.483   4.024   2.273  0.8577  0.1738  0.2306
 2799SOL    HW1 9296   6.542   4.104   2.257 -0.2663  0.6116 -2.0074
 2799SOL    HW2 9297   6.457   4.022   2.370 -0.0862  3.2764  0.1502
 2800SOL     OW 9298   6.551   6.434   6.624  0.1191  0.0860  0.3098
 2800SOL    HW1 9299   6.461   6.391   6.621 -0.5294  1.1758  2.2396
 2800SOL    HW2 9300   6.609   6.386   6.690  0.5510  0.0842 -0.0726
 2801SOL     OW 9301   4.468   6.084   2.983 -0.2927  0.1674 -0.1418
 2801SOL    HW1 9302   4.384   6.125   2.948 -0.7775  0.3986  1.2066
 2801SOL    HW2 9303   4.468   6.090   3.083  1.1091 -0.2735 -0.0974
 2802SOL     OW 9304   2.463   3.540   6.235  0.0599 -0.4191  0.5353
 2802SOL    HW1 9305   2.402   3.579   6.167  0.4712  0.6699  0.7656
 2802SOL    HW2 9306   2.410   3.493   6.305 -0.4988  0.1640  0.5145
 2803SOL     OW 9307   3.753   4.984   0.521 -0.4224 -0.9209  1.0796
 2803SOL    HW1 9308   3.677   5.011   0.462 -1.1135 -3.9499  0.4155
 2803SOL    HW2 9309   3.734   5.012   0.615 -0.5617  1.5886  0.3760
 2804SOL     OW 9310   5.634   6.449   1.383 -0.0734  0.1143 -0.1566
 2804SOL    HW1 9311   5.610   6.385   1.309  1.8714  0.4744 -1.1770
 2804SOL    HW2 9312   5.670   6.533   1.343 -0.2677  0.8768  1.2171
 2805SOL     OW 9313   6.267   0.208   1.375  0.5240  0.1729  0.3008
 2805SOL    HW1 9314   6.344   0.271   1.376  0.4586  0.2632 -0.1426
 2805SOL    HW2 9315   6.223   0.211   1.286  0.3585 -0.3058  0.3634
 2806SOL     OW 9316   5.267   1.699   0.148 -0.2736  0.2553 -0.3984
 2806SOL    HW1 9317   5.275   1.790   0.188 -0.3144  0.3604 -0.6287
 2806SOL    HW2 9318   5.177   1.661   0.169 -0.4321  0.4609 -0.7018
 2807SOL     OW 9319   5.662   0.883   5.382  0.1112  0.3542 -0.0557
 2807SOL    HW1 9320   5.597   0.872   5.307 -0.3818 -0.5885  0.4877
 2807SOL    HW2 9321   5.751   0.912   5.345  0.1294 -0.9373 -1.1123
 2808SOL     OW 9322   4.980   5.090   1.931  0.1044 -0.2588 -0.0714
 2808SOL    HW1 9323   5.029   5.051   2.009  0.6390 -3.0613 -1.6878
 2808SOL    HW2 9324   5.029   5.069   1.847 -1.9117  0.2178 -1.4340
 2809SOL     OW 9325   5.233   2.768   2.714 -0.1415  0.0962 -0.3060
 2809SOL    HW1 9326   5.149   2.715   2.703 -1.3378  2.2797 -2.9027
 2809SOL    HW2 9327   5.230   2.817   2.802 -0.7246 -1.1735  0.4149
 2810SOL     OW 9328   3.334   0.728   4.035 -0.0797  0.4593  0.1271
 2810SOL    HW1 9329   3.300   0.635   4.054  2.4924 -0.5249  0.2257
 2810SOL    HW2 9330   3.327   0.783   4.119 -1.1210  0.2298  0.2111
 2811SOL     OW 9331   2.558   6.618   0.876  0.6485 -0.5447  0.2067
 2811SOL    HW1 9332   2.595   6.678   0.805  0.3251 -1.1495 -0.4789
 2811SOL    HW2 9333   2.628   6.603   0.946  0.1794  2.1143  1.3770
 2812SOL     OW 9334   1.182   6.608   0.375 -0.5436  0.0299 -0.1275
 2812SOL    HW1 9335   1.144   6.517   0.360  0.9255 -0.9202  1.5337
 2812SOL    HW2 9336   1.268   6.617   0.324 -0.2808  0.1920  0.3377
 2813SOL     OW 9337   1.540   4.404   4.979  0.4543 -0.3606 -0.3732
 2813SOL    HW1 9338   1.520   4.385   4.882 -1.0024  0.1067 -0.1943
 2813SOL    HW2 9339   1.534   4.319   5.031  0.5334 -0.4987 -0.5875
 2814SOL     OW 9340   1.130   3.484   0.161  0.3174  0.2731 -0.2418
 2814SOL    HW1 9341   1.061   3.429   0.207  0.9451  2.1842  3.3476
 2814SOL    HW2 9342   1.103   3.580   0.161  0.7948  0.5181 -3.2824
 2815SOL     OW 9343   2.686   5.953   0.315  0.5955 -0.2580 -0.1162
 2815SOL    HW1 9344   2.594   5.928   0.347  1.0694  0.0399  1.5439
 2815SOL    HW2 9345   2.754   5.915   0.377  1.4966  1.6910  0.1539
 2816SOL     OW 9346   1.575   1.084   3.822  0.2366  0.5811  0.3494
 2816SOL    HW1 9347   1.513   1.039   3.757  0.4692 -0.5144  0.8680
 2816SOL    HW2 9348   1.530   1.164   3.861 -1.3407 -0.8013  1.5413
 2817SOL     OW 9349   2.464   5.316   1.161 -0.4210 -0.4223 -0.4760
 2817SOL    HW1 9350   2.563   5.326   1.153 -0.5436  1.0100 -0.5517
 2817SOL    HW2 9351   2.436   5.331   1.256 -0.5478 -1.0934 -0.4027
 2818SOL     OW 9352   2.062   1.197   5.526  0.3205  0.1043  0.1875
 2818SOL    HW1 9353   1.968   1.228   5.514  0.6242  0.7579 -0.5886
 2818SOL    HW2 9354   2.078   1.116   5.470  1.0704  1.7936 -2.1836
 2819SOL     OW 9355   0.629   5.974   3.612  0.2492  0.4522 -0.5906
 2819SOL    HW1 9356   0.552   5.951   3.672  0.4983 -0.8122 -0.7392
 2819SOL    HW2 9357   0.711   5.926   3.643  0.7323  0.9505 -1.0735
 2820SOL     OW 9358   6.779   0.363   0.330  0.0651  0.4107 -0.6448
 2820SOL    HW1 9359   6.862   0.395   0.376 -1.0186 -0.2056  1.8780
 2820SOL    HW2 9360   6.771   0.264   0.343  0.3076 -0.0192 -3.2633
 2821SOL     OW 9361   3.143   3.683   4.575  0.0345  0.2892  0.4815
 2821SOL    HW1 9362   3.196   3.658   4.494 -0.3294 -0.8694  0.5719
 2821SOL    HW2 9363   3.064   3.622   4.583  1.7693 -1.8610  3.4417
 2822SOL     OW 9364   0.352   0.727   4.010 -0.3945  0.3672  0.8819
 2822SOL    HW1 9365   0.273   0.703   4.067  1.2649 -0.4716  2.9917
 2822SOL    HW2 9366   0.415   0.784   4.064  1.5346 -0.9332  0.1025
 2823SOL     OW 9367   0.290   3.348   2.788 -0.1440 -0.2948  0.4460
 2823SOL    HW1 9368   0.389   3.353   2.797 -0.1750  1.5101  0.1363
 2823SOL    HW2 9369   0.247   3.393   2.867 -0.6964 -0.2929  0.1488
 2824SOL     OW 9370   1.314   2.109   4.797 -0.2716  0.3894  0.5135
 2824SOL    HW1 9371   1.384   2.090   4.866  0.9315  0.5432 -0.6324
 2824SOL    HW2 9372   1.321   2.042   4.724 -1.1291  0.6033  0.2310
 2825SOL     OW 9373   0.364   5.714   3.912 -0.2902  0.2607 -0.1054
 2825SOL    HW1 9374   0.296   5.732   3.983 -0.0408 -2.7072  1.0438
 2825SOL    HW2 9375   0.385   5.799   3.864 -1.1372  2.2546  2.7527
 2826SOL     OW 9376   3.323   6.448   3.162 -0.2991 -0.0956 -0.0214
 2826SOL    HW1 9377   3.244   6.416   3.110 -1.3961  0.8063  1.0201
 2826SOL    HW2 9378   3.323   6.405   3.253  1.0396 -0.9097 -0.3821
 2827SOL     OW 9379   3.007   6.071   4.591  0.4809 -0.3971 -0.1933
 2827SOL    HW1 9380   2.947   6.147   4.564  0.9339 -0.1812 -0.6141
 2827SOL    HW2 9381   3.094   6.079   4.542  0.6923 -0.9484  0.0901
 2828SOL     OW 9382   0.736   3.801   1.926 -0.1551 -0.1371 -0.0269
 2828SOL    HW1 9383   0.690   3.880   1.966 -1.7921 -1.6816  1.3174
 2828SOL    HW2 9384   0.747   3.815   1.827 -0.8405  1.5273  0.0994
 2829SOL     OW 9385   3.117   2.984   1.433 -0.7072  0.3010 -0.0938
 2829SOL    HW1 9386   3.094   3.065   1.487  1.5166  0.3571  0.9098
 2829SOL    HW2 9387   3.199   3.003   1.378 -0.8506 -0.8918 -0.7490
 2830SOL     OW 9388   6.087   4.403   2.190  0.1398 -0.8316 -0.0866
 2830SOL    HW1 9389   6.041   4.487   2.220  1.2637 -0.1787 -0.1385
 2830SOL    HW2 9390   6.023   4.327   2.195 -0.5890 -0.1727  1.0135
 2831SOL     OW 9391   5.383   3.133   0.494 -0.3860 -1.0335 -0.1630
 2831SOL    HW1 9392   5.297   3.173   0.527  0.7718  0.6544  1.0210
 2831SOL    HW2 9393   5.398   3.160   0.399 -0.3436  0.1729  0.1682
 2832SOL     OW 9394   4.976   2.517   5.251 -0.0538 -0.2857 -0.0418
 2832SOL    HW1 9395   4.881   2.527   5.281 -0.6421  1.8092 -2.2219
 2832SOL    HW2 9396   4.996   2.421   5.233 -1.3532 -0.9086  1.6295
 2833SOL     OW 9397   3.039   4.904   3.458  0.0863 -0.4297 -0.9348
 2833SOL    HW1 9398   3.005   4.841   3.528 -1.1863  1.1615 -0.0503
 2833SOL    HW2 9399   3.129   4.937   3.484  0.1441 -0.7691 -0.6892
 2834SOL     OW 9400   5.689   6.688   3.951  0.0982  0.1910  0.0582
 2834SOL    HW1 9401   5.628   6.712   4.027  0.3262  0.3288  0.1956
 2834SOL    HW2 9402   5.732   6.770   3.915 -2.5628  0.6774 -2.4543
 2835SOL     OW 9403   4.897   5.664   6.648 -0.9953  0.1712  0.3248
 2835SOL    HW1 9404   4.914   5.721   6.568 -0.7631  0.1014  0.3248
 2835SOL    HW2 9405   4.945   5.576   6.638  0.4519  0.8050  1.2938
 2836SOL     OW 9406   6.391   6.958   1.398  0.1625 -0.2886 -0.5609
 2836SOL    HW1 9407   6.370   7.052   1.426 -1.0556 -0.6033 -0.3574
 2836SOL    HW2 9408   6.483   6.934   1.429 -0.9540 -0.5384  3.1076
 2837SOL     OW 9409   1.584   5.282   3.007 -0.2034  0.4008 -0.2511
 2837SOL    HW1 9410   1.541   5.235   3.084 -0.8375  1.8221  0.2863
 2837SOL    HW2 9411   1.683   5.267   3.010 -0.3993 -1.0957 -0.2582
 2838SOL     OW 9412   6.443   3.077   1.489 -0.1750  0.3211 -0.2618
 2838SOL    HW1 9413   6.422   3.141   1.564 -2.8448 -0.9186  0.1739
 2838SOL    HW2 9414   6.367   3.076   1.424 -0.1693 -2.2674 -0.3306
 2839SOL     OW 9415   1.735   0.515   2.897 -0.0733 -0.4846 -0.0815
 2839SOL    HW1 9416   1.703   0.593   2.844 -1.2854 -0.6562  0.3751
 2839SOL    HW2 9417   1.835   0.515   2.899 -0.0540  1.6265  0.7771
 2840SOL     OW 9418   1.797   4.323   4.743 -0.3459  0.4211 -0.1295
 2840SOL    HW1 9419   1.883   4.354   4.703 -0.4382  0.1678 -0.5295
 2840SOL    HW2 9420   1.813   4.293   4.837 -0.0990  0.8737 -0.0273
 2841SOL     OW 9421   3.478   6.785   5.747  0.1668 -0.2611  0.4319
 2841SOL    HW1 9422   3.494   6.719   5.674  1.4883 -0.3140  0.7440
 2841SOL    HW2 9423   3.548   6.774   5.817 -0.7321  0.1868  1.4329
 2842SOL     OW 9424   0.205   2.419   6.853 -0.1233 -0.6772  0.1605
 2842SOL    HW1 9425   0.269   2.482   6.897 -1.3050  0.5529  0.2184
 2842SOL    HW2 9426   0.169   2.355   6.920 -0.8267  0.2617  0.7174
 2843SOL     OW 9427   1.487   3.631   1.436  0.1204  0.0960 -0.1331
 2843SOL    HW1 9428   1.493   3.604   1.340  0.4430  3.5544 -1.2221
 2843SOL    HW2 9429   1.576   3.616   1.480  0.0897 -1.1220 -0.4440
 2844SOL     OW 9430   4.066   4.897   3.842  0.0327 -0.6443  0.3265
 2844SOL    HW1 9431   4.094   4.863   3.932 -0.9555  0.4606  1.0813
 2844SOL    HW2 9432   3.966   4.896   3.836  0.0480  0.3544 -0.3279
 2845SOL     OW 9433   4.410   5.527   6.114  0.3403  0.1429  0.6420
 2845SOL    HW1 9434   4.414   5.568   6.023  1.2003  0.2372  0.7143
 2845SOL    HW2 9435   4.339   5.456   6.115  0.6924 -0.2389 -0.2577
 2846SOL     OW 9436   5.867   1.894   1.196  0.0555 -0.1438 -0.1971
 2846SOL    HW1 9437   5.817   1.907   1.111 -1.8933  0.0588  0.9209
 2846SOL    HW2 9438   5.931   1.970   1.210 -1.3825  1.1176 -0.3086
 2847SOL     OW 9439   6.692   5.198   3.786  0.5322  0.2669  0.2174
 2847SOL    HW1 9440   6.757   5.207   3.710  0.4957 -1.7208 -0.1172
 2847SOL    HW2 9441   6.729   5.242   3.867  0.7575  2.0908 -0.8182
 2848SOL     OW 9442   0.308   2.918   5.811 -0.3527 -0.9153  0.2905
 2848SOL    HW1 9443   0.246   2.973   5.867 -0.3235 -0.1910 -0.3659
 2848SOL    HW2 9444   0.256   2.846   5.765 -0.9545  0.3596 -1.1286
 2849SOL     OW 9445   5.387   6.210   5.579  0.0672 -0.3013  0.1608
 2849SOL    HW1 9446   5.387   6.274   5.656  2.2404  0.6936 -0.5685
 2849SOL    HW2 9447   5.437   6.251   5.502 -0.4456 -2.0005 -1.1264
 2850SOL     OW 9448   6.707   1.909   2.090  0.1851 -0.0606  0.0440
 2850SOL    HW1 9449   6.626   1.853   2.107  1.0750 -0.8176  2.0848
 2850SOL    HW2 9450   6.789   1.854   2.107  1.1159  1.2108 -0.2309
 2851SOL     OW 9451   4.184   3.800   5.641 -0.2671  0.0558  0.7193
 2851SOL    HW1 9452   4.146   3.796   5.733 -0.8521  0.4005  0.4959
 2851SOL    HW2 9453   4.123   3.853   5.581  0.1430 -0.0991  0.1512
 2852SOL     OW 9454   5.051   3.367   4.566  0.3146 -0.3803 -0.5018
 2852SOL    HW1 9455   5.148   3.353   4.549 -0.0683 -2.4971 -1.2323
 2852SOL    HW2 9456   5.003   3.378   4.478 -0.0222  1.7263 -0.1213
 2853SOL     OW 9457   3.326   4.641   1.636  0.3762 -0.1250 -0.1231
 2853SOL    HW1 9458   3.393   4.662   1.707 -0.8216 -0.1427  1.0406
 2853SOL    HW2 9459   3.234   4.662   1.669 -0.3423 -1.5316 -1.1358
 2854SOL     OW 9460   3.522   5.173   1.270  0.0448  0.1992 -0.4608
 2854SOL    HW1 9461   3.509   5.212   1.179 -1.6055 -0.5154 -0.5674
 2854SOL    HW2 9462   3.456   5.213   1.333  1.1081  0.6092  0.4207
 2855SOL     OW 9463   1.193   2.623   2.362  0.3937  0.4296 -0.3327
 2855SOL    HW1 9464   1.221   2.531   2.334  0.5745  0.0930  0.8807
 2855SOL    HW2 9465   1.131   2.661   2.293 -0.2620 -0.8964 -0.5216
 2856SOL     OW 9466   6.587   5.693   5.298 -0.3422  0.7556 -0.3345
 2856SOL    HW1 9467   6.685   5.675   5.288 -0.4794  1.2372 -3.4470
 2856SOL    HW2 9468   6.541   5.610   5.329  1.0618  0.7053  1.8693
 2857SOL     OW 9469   6.533   4.337   6.576 -0.2719  0.5110 -0.4985
 2857SOL    HW1 9470   6.610   4.274   6.562  0.1993  1.1890 -1.0374
 2857SOL    HW2 9471   6.568   4.430   6.588 -1.0301  0.9683 -1.6445
 2858SOL     OW 9472   4.946   4.098   5.377  0.1991  0.1087  0.4393
 2858SOL    HW1 9473   4.983   4.147   5.297  0.1153 -0.2177  0.2002
 2858SOL    HW2 9474   4.854   4.066   5.356 -0.4456  1.3758  1.2156
 2859SOL     OW 9475   3.898   0.714   3.282 -0.3357 -0.4019  0.5979
 2859SOL    HW1 9476   3.954   0.675   3.209  1.0623  2.6569 -0.1098
 2859SOL    HW2 9477   3.853   0.797   3.250 -0.2674  0.6414  2.9831
 2860SOL     OW 9478   6.218   1.859   0.632 -0.1634 -0.4429  0.2423
 2860SOL    HW1 9479   6.145   1.893   0.692 -0.4955 -1.8363  0.6621
 2860SOL    HW2 9480   6.288   1.814   0.688  0.2274 -0.5020 -0.2937
 2861SOL     OW 9481   1.127   4.853   5.535 -0.7189  1.0438  0.2229
 2861SOL    HW1 9482   1.059   4.822   5.601 -0.8702  3.3977  1.2647
 2861SOL    HW2 9483   1.084   4.871   5.447 -0.6975 -1.0854 -0.2954
 2862SOL     OW 9484   0.278   2.747   3.454 -0.8427  0.7054 -0.0062
 2862SOL    HW1 9485   0.201   2.781   3.508 -0.3698  0.3149  0.9482
 2862SOL    HW2 9486   0.322   2.672   3.503 -0.8339 -0.1552 -1.2890
 2863SOL     OW 9487   2.854   4.809   4.822  0.4642 -0.2136 -1.0135
 2863SOL    HW1 9488   2.845   4.748   4.901  0.4360 -0.8163 -1.4731
 2863SOL    HW2 9489   2.950   4.813   4.794  0.3939 -0.4631 -1.3009
 2864SOL     OW 9490   6.866   0.309   3.927  0.3145 -0.2468 -0.7322
 2864SOL    HW1 9491   6.899   0.280   4.017  0.5343  1.0214 -0.3758
 2864SOL    HW2 9492   6.932   0.373   3.887 -0.8546  0.9884 -0.7687
 2865SOL     OW 9493   0.316   5.457   3.316 -1.1003 -0.2819 -0.4822
 2865SOL    HW1 9494   0.246   5.481   3.248 -1.7833  0.8421  0.5921
 2865SOL    HW2 9495   0.301   5.363   3.346 -2.2218 -0.0321 -0.2017
 2866SOL     OW 9496   1.882   2.050   2.973 -0.0541 -0.7901  0.2220
 2866SOL    HW1 9497   1.889   1.954   3.002  1.0634 -0.1637  2.2409
 2866SOL    HW2 9498   1.931   2.108   3.039 -1.8832  1.3193 -0.1669
 2867SOL     OW 9499   3.519   6.714   6.107  0.2648 -0.1161 -0.2995
 2867SOL    HW1 9500   3.584   6.782   6.144 -0.1024  0.6407 -1.0018
 2867SOL    HW2 9501   3.570   6.636   6.071  0.7184 -0.0770  0.2426
 2868SOL     OW 9502   6.078   5.577   5.662 -0.0730  0.0508 -0.2892
 2868SOL    HW1 9503   6.161   5.594   5.716 -0.0915 -1.2226  0.1690
 2868SOL    HW2 9504   6.034   5.494   5.695 -1.0191  0.1947 -1.1651
 2869SOL     OW 9505   2.752   2.942   1.741 -0.0039  0.3443  0.0687
 2869SOL    HW1 9506   2.832   2.883   1.746 -1.2866 -1.5223 -0.4733
 2869SOL    HW2 9507   2.767   3.012   1.670  0.4303 -1.1540 -1.3860
 2870SOL     OW 9508   2.053   0.830   1.838  0.3365  0.4985  0.4534
 2870SOL    HW1 9509   1.971   0.778   1.864  0.6971 -0.1902  0.2460
 2870SOL    HW2 9510   2.030   0.926   1.828 -0.6000  0.2074 -0.2928
 2871SOL     OW 9511   6.498   4.995   0.001 -0.7247 -0.5752  0.7818
 2871SOL    HW1 9512   6.535   4.962  -0.085 -0.5047  0.1858  0.5781
 2871SOL    HW2 9513   6.550   4.956   0.077 -1.6174 -2.1374  0.6336
 2872SOL     OW 9514   1.582   3.225   1.881 -0.1987  0.2906 -0.4832
 2872SOL    HW1 9515   1.621   3.197   1.969 -0.6691  0.9306 -0.0593
 2872SOL    HW2 9516   1.592   3.324   1.871 -1.2762  0.4009 -0.5733
 2873SOL     OW 9517   5.964   2.475   1.281  0.1250 -0.1160 -0.2356
 2873SOL    HW1 9518   5.929   2.397   1.230 -1.0327  1.1038 -1.3865
 2873SOL    HW2 9519   6.064   2.470   1.285  0.3253 -0.0714 -3.0232
 2874SOL     OW 9520   0.030   4.665   4.123 -0.0983 -0.1754 -0.0771
 2874SOL    HW1 9521   0.114   4.672   4.069 -0.7315  0.0515 -1.0642
 2874SOL    HW2 9522   0.032   4.731   4.198  0.6052 -0.1881 -0.0818
 2875SOL     OW 9523   1.097   5.362   3.645  0.0579  0.3007 -0.1970
 2875SOL    HW1 9524   1.055   5.280   3.685 -0.2189  0.7603  0.4771
 2875SOL    HW2 9525   1.193   5.368   3.675  0.0431  0.2935 -0.1489
 2876SOL     OW 9526   1.457   1.489   1.666  0.0013  0.0270 -0.3112
 2876SOL    HW1 9527   1.380   1.427   1.649 -1.0638  1.1282  0.2614
 2876SOL    HW2 9528   1.426   1.584   1.654  1.0302  0.5300  0.7944
 2877SOL     OW 9529   0.624   6.035   5.431  0.3406 -0.3941 -0.3919
 2877SOL    HW1 9530   0.653   6.007   5.523 -2.0738  0.1848  0.6278
 2877SOL    HW2 9531   0.609   5.954   5.374 -1.0060 -0.9406  0.6943
 2878SOL     OW 9532   5.256   1.034   0.018 -0.1193 -0.1411  0.3280
 2878SOL    HW1 9533   5.299   1.028  -0.072 -0.1552  1.1581  0.2066
 2878SOL    HW2 9534   5.168   0.987   0.017 -0.1970  0.0156 -0.3598
 2879SOL     OW 9535   2.781   0.292   2.852 -0.0724  0.4419  0.1449
 2879SOL    HW1 9536   2.715   0.352   2.808 -1.2106 -0.8508  0.0522
 2879SOL    HW2 9537   2.798   0.212   2.795  0.0112 -0.2407  1.0967
 2880SOL     OW 9538   1.200   6.181   1.672  0.3030  0.4259  0.3737
 2880SOL    HW1 9539   1.110   6.215   1.699  0.0558 -0.9518  1.3782
 2880SOL    HW2 9540   1.191   6.089   1.634  1.3863 -0.1159  1.3751
 2881SOL     OW 9541   4.696   5.478   2.210 -0.1639  0.0940  0.1318
 2881SOL    HW1 9542   4.639   5.446   2.135  1.1441 -0.0189 -0.8487
 2881SOL    HW2 9543   4.699   5.578   2.210 -0.6037  0.1080  0.3764
 2882SOL     OW 9544   6.664   5.465   4.210 -0.3275 -0.1462 -0.2029
 2882SOL    HW1 9545   6.654   5.499   4.117  0.5252 -0.1102 -0.2909
 2882SOL    HW2 9546   6.676   5.543   4.272  0.3578 -0.2104 -0.2393
 2883SOL     OW 9547   6.929   3.358   1.274 -0.5843 -0.3063  0.0366
 2883SOL    HW1 9548   6.975   3.270   1.284 -0.3118 -0.3283 -1.2406
 2883SOL    HW2 9549   6.933   3.387   1.179 -0.6846  1.0918  0.4322
 2884SOL     OW 9550   4.967   5.605   1.476  0.6121 -0.2568 -0.5883
 2884SOL    HW1 9551   4.869   5.586   1.470  0.5240  0.4400 -1.7782
 2884SOL    HW2 9552   5.014   5.562   1.399  1.1363  0.0317 -0.4388
 2885SOL     OW 9553   5.025   6.078   3.755  0.2306  0.0432  0.4301
 2885SOL    HW1 9554   5.008   6.138   3.833 -1.5765  0.3751 -0.1779
 2885SOL    HW2 9555   5.111   6.105   3.712  0.0458  1.4535  0.8685
 2886SOL     OW 9556   0.030   4.526   4.950 -0.1050 -0.4891 -0.2215
 2886SOL    HW1 9557  -0.056   4.479   4.929  0.7725 -1.6039 -1.5680
 2886SOL    HW2 9558   0.102   4.458   4.964  0.5372  0.4169  1.0721
 2887SOL     OW 9559   5.514   0.499   0.435  0.3360  0.2235 -0.0668
 2887SOL    HW1 9560   5.554   0.490   0.526 -0.5922  1.8713  0.5297
 2887SOL    HW2 9561   5.578   0.547   0.375  0.8407 -0.6400 -0.2459
 2888SOL     OW 9562   1.942   6.955   3.130  0.1366  0.2058 -0.3320
 2888SOL    HW1 9563   1.988   6.867   3.115  1.9250  1.0568 -0.1436
 2888SOL    HW2 9564   2.000   7.028   3.094 -0.8224  1.3951  0.4997
 2889SOL     OW 9565   6.250   5.466   6.922 -0.2031  0.1103 -0.9075
 2889SOL    HW1 9566   6.303   5.549   6.938 -0.2011  0.4844 -2.6474
 2889SOL    HW2 9567   6.285   5.392   6.979 -2.1609  1.9605  3.1193
 2890SOL     OW 9568   2.355   5.531   4.479 -0.3080  0.4687 -0.4029
 2890SOL    HW1 9569   2.451   5.559   4.487 -0.1923  0.0151 -0.2108
 2890SOL    HW2 9570   2.297   5.613   4.476  0.0547  0.7383 -0.1208
 2891SOL     OW 9571   1.793   6.604   2.524 -0.3706  0.6074 -0.4416
 2891SOL    HW1 9572   1.695   6.592   2.512  0.1475 -3.8586 -2.0730
 2891SOL    HW2 9573   1.832   6.646   2.442 -0.7601  1.7057 -0.0868
 2892SOL     OW 9574   2.624   3.886   6.010 -0.2091 -0.1391 -0.3054
 2892SOL    HW1 9575   2.611   3.890   6.109  0.2089 -0.5655 -0.2288
 2892SOL    HW2 9576   2.701   3.826   5.989 -0.1755  0.0985 -0.8804
 2893SOL     OW 9577   3.055   1.263   1.139 -0.5406 -0.0404 -0.1296
 2893SOL    HW1 9578   3.124   1.273   1.067 -0.4349  1.5206  0.1616
 2893SOL    HW2 9579   3.095   1.218   1.218 -0.6507 -1.7600 -0.9932
 2894SOL     OW 9580   4.837   4.076   0.380 -0.4056  0.1938  0.5243
 2894SOL    HW1 9581   4.737   4.067   0.380 -0.3574 -1.0590 -1.8373
 2894SOL    HW2 9582   4.873   4.042   0.467 -1.7245 -4.8503 -0.5632
 2895SOL     OW 9583   5.724   6.772   5.823  0.2266  0.3120  0.5074
 2895SOL    HW1 9584   5.720   6.679   5.788 -0.4424  0.7812 -0.7600
 2895SOL    HW2 9585   5.647   6.825   5.785  1.1325  1.6243  0.4165
 2896SOL     OW 9586   2.081   5.562   3.778 -0.0754 -0.5233 -0.0481
 2896SOL    HW1 9587   2.171   5.604   3.793  0.4024 -1.4758 -0.1650
 2896SOL    HW2 9588   2.015   5.600   3.843  0.3294  0.4280 -0.1863
 2897SOL     OW 9589   5.427   5.844   1.859  0.6891 -0.6894  0.4038
 2897SOL    HW1 9590   5.501   5.859   1.793  0.4073  0.8601  0.4090
 2897SOL    HW2 9591   5.452   5.769   1.920  1.8900 -0.7395 -0.1155
 2898SOL     OW 9592   4.609   0.918   5.244 -0.8415  0.6218 -0.0635
 2898SOL    HW1 9593   4.685   0.975   5.212 -0.5645  0.3837  0.1591
 2898SOL    HW2 9594   4.551   0.970   5.305  0.1947  0.2765  1.2593
 2899SOL     OW 9595   2.655   3.413   5.955 -0.2914 -0.4521  0.3379
 2899SOL    HW1 9596   2.557   3.420   5.974 -0.4900 -2.9508  0.5253
 2899SOL    HW2 9597   2.670   3.347   5.882  1.2448  0.4534 -0.2065
 2900SOL     OW 9598   2.740   3.632   6.222 -0.5385 -0.9746  0.0033
 2900SOL    HW1 9599   2.777   3.676   6.304  0.2778 -1.0809 -0.2955
 2900SOL    HW2 9600   2.651   3.592   6.243 -0.7354 -0.2465  0.6042
 2901SOL     OW 9601   0.608   1.187   5.970  0.3969 -0.0898 -0.2715
 2901SOL    HW1 9602   0.602   1.268   6.029  0.1131 -0.5101  0.2727
 2901SOL    HW2 9603   0.569   1.209   5.881  0.8697  0.5622 -0.3332
 2902SOL     OW 9604   5.801   0.185   2.705  0.4254 -0.6661 -0.1285
 2902SOL    HW1 9605   5.738   0.232   2.642  0.6456 -2.6298 -1.9530
 2902SOL    HW2 9606   5.831   0.248   2.776  0.1139  1.6875 -1.9621
 2903SOL     OW 9607   2.351   3.314   6.652 -0.0523  0.2966 -0.1913
 2903SOL    HW1 9608   2.294   3.240   6.689  3.4882 -1.7334  1.7340
 2903SOL    HW2 9609   2.343   3.395   6.710 -2.0765  0.6681 -0.8978
 2904SOL     OW 9610   4.295   3.386   5.261 -0.2884  0.2420 -0.4554
 2904SOL    HW1 9611   4.361   3.326   5.307 -0.4964 -0.4941 -1.0987
 2904SOL    HW2 9612   4.331   3.479   5.258 -0.2244  0.2974  1.1015
 2905SOL     OW 9613   0.349   5.283   0.398 -0.4951  0.1202  0.4904
 2905SOL    HW1 9614   0.374   5.225   0.320  0.3074  1.8485 -0.6160
 2905SOL    HW2 9615   0.250   5.294   0.400 -0.7041 -1.6034  0.9930
 2906SOL     OW 9616   5.742   4.958   2.920  0.0953 -0.3921  0.0850
 2906SOL    HW1 9617   5.792   4.887   2.870  1.3742  2.0436 -2.3383
 2906SOL    HW2 9618   5.647   4.929   2.932  0.0140 -1.6291 -2.7998
 2907SOL     OW 9619   1.885   0.874   2.583 -0.1537  0.3210  0.2546
 2907SOL    HW1 9620   1.975   0.891   2.623  0.2153  1.0921 -0.8784
 2907SOL    HW2 9621   1.831   0.819   2.647  1.0257  0.0410  1.0522
 2908SOL     OW 9622   5.334   3.308   1.851  0.5724  0.0859 -0.1565
 2908SOL    HW1 9623   5.422   3.302   1.897  0.9933  0.0333 -0.9443
 2908SOL    HW2 9624   5.296   3.399   1.862 -0.5959 -0.6301  2.5054
 2909SOL     OW 9625   1.579   4.264   6.129 -0.1129 -0.2611 -0.3130
 2909SOL    HW1 9626   1.670   4.234   6.101  0.0569 -1.2754  1.1769
 2909SOL    HW2 9627   1.510   4.226   6.067  0.4489  0.4045 -1.3695
 2910SOL     OW 9628   5.755   3.147   1.856 -0.0444 -0.1145  0.0759
 2910SOL    HW1 9629   5.803   3.105   1.779  1.3006  2.2034 -0.4519
 2910SOL    HW2 9630   5.752   3.084   1.933  1.9255 -1.1325 -0.6301
 2911SOL     OW 9631   0.443   6.831   5.543 -0.3148  0.2123 -0.2106
 2911SOL    HW1 9632   0.432   6.733   5.562  0.7602  0.4264  1.7387
 2911SOL    HW2 9633   0.353   6.873   5.533 -0.8817 -0.5692  1.2900
 2912SOL     OW 9634   2.880   1.939   5.382 -0.0179 -0.0814 -0.1508
 2912SOL    HW1 9635   2.853   1.844   5.396 -0.6178 -0.2562 -2.1923
 2912SOL    HW2 9636   2.974   1.952   5.414 -0.2586 -1.0857  1.0530
 2913SOL     OW 9637   4.660   5.606   6.314 -0.5326 -0.5761 -0.3312
 2913SOL    HW1 9638   4.658   5.542   6.390  0.2027  0.3332  0.4806
 2913SOL    HW2 9639   4.567   5.632   6.289 -0.9003 -2.5944 -1.2558
 2914SOL     OW 9640   6.059   1.268   2.270 -0.1198  0.1852  0.1696
 2914SOL    HW1 9641   6.107   1.355   2.259  0.1732  0.0202  0.1393
 2914SOL    HW2 9642   6.114   1.207   2.327  0.3335 -0.4932 -0.9744
 2915SOL     OW 9643   6.578   0.806   6.847  0.2959 -0.7554 -0.3526
 2915SOL    HW1 9644   6.636   0.881   6.814 -0.9450  0.9178  1.0645
 2915SOL    HW2 9645   6.613   0.772   6.934 -0.4502 -0.1689  0.1901
 2916SOL     OW 9646   4.948   6.278   2.593 -0.1095 -0.3482  0.0518
 2916SOL    HW1 9647   5.031   6.275   2.648 -0.7179 -2.3365  0.9623
 2916SOL    HW2 9648   4.969   6.258   2.498  0.5992  0.3689  0.0536
 2917SOL     OW 9649   4.114   0.312   4.614 -0.1751 -0.4744  0.5385
 2917SOL    HW1 9650   4.135   0.291   4.710 -2.0188 -1.5029  0.7523
 2917SOL    HW2 9651   4.114   0.228   4.560 -2.2145 -0.3570  0.2863
 2918SOL     OW 9652   1.654   3.108   2.129 -0.1810  0.1338 -0.2608
 2918SOL    HW1 9653   1.740   3.064   2.155 -0.3728 -1.1403 -1.6638
 2918SOL    HW2 9654   1.591   3.040   2.093 -1.9482  0.9804  1.0443
 2919SOL     OW 9655   3.557   1.146   0.545  0.4326  0.1238 -0.3742
 2919SOL    HW1 9656   3.654   1.168   0.557 -0.1648  2.1425  1.2858
 2919SOL    HW2 9657   3.530   1.077   0.611  0.6850 -0.3463 -0.7536
 2920SOL     OW 9658   6.578   3.972   5.025  0.1729 -0.0702  0.1928
 2920SOL    HW1 9659   6.548   4.026   4.947  1.1234  1.9146  1.1357
 2920SOL    HW2 9660   6.505   3.969   5.094  0.0534 -0.1566  0.0632
 2921SOL     OW 9661   5.350   1.975   3.642 -0.1519  0.1044  0.7431
 2921SOL    HW1 9662   5.262   1.933   3.618 -0.2107  0.0023  1.1407
 2921SOL    HW2 9663   5.339   2.031   3.724  0.7782 -2.2724  2.6051
 2922SOL     OW 9664   4.203   4.176   5.319  0.1909 -0.0132 -0.1224
 2922SOL    HW1 9665   4.279   4.123   5.282 -0.9295 -0.2925 -2.2370
 2922SOL    HW2 9666   4.221   4.273   5.304 -0.2706 -0.1218 -1.6073
 2923SOL     OW 9667   6.994   0.650   1.967  0.2186  0.1859 -0.6087
 2923SOL    HW1 9668   7.024   0.621   2.058  0.6500 -2.9935 -1.6507
 2923SOL    HW2 9669   7.072   0.652   1.905 -0.2288  1.4541 -1.1734
 2924SOL     OW 9670   1.189   6.886   2.668  0.2125 -0.3402 -0.0061
 2924SOL    HW1 9671   1.091   6.875   2.654  0.1145 -2.4530  1.8572
 2924SOL    HW2 9672   1.205   6.953   2.740 -0.0251 -1.7668  1.4274
 2925SOL     OW 9673   4.583   1.271   3.209 -0.2873  0.8430 -0.0044
 2925SOL    HW1 9674   4.545   1.179   3.202  1.4848  0.0155  0.4787
 2925SOL    HW2 9675   4.674   1.272   3.167 -0.6414  2.6161 -0.7908
 2926SOL     OW 9676   3.564   1.802   4.646 -0.8408 -0.0329  0.3923
 2926SOL    HW1 9677   3.663   1.813   4.648 -0.9719  1.2490  0.8270
 2926SOL    HW2 9678   3.539   1.712   4.680  0.0137  0.8686  3.8298
 2927SOL     OW 9679   5.045   3.471   6.617 -0.1778  0.2840 -0.1713
 2927SOL    HW1 9680   5.107   3.514   6.682 -0.0542 -0.3395  0.1272
 2927SOL    HW2 9681   4.998   3.542   6.564  1.4598  0.7612 -1.0470
 2928SOL     OW 9682   6.000   3.723   6.085  0.0993  0.3594 -0.3193
 2928SOL    HW1 9683   5.978   3.818   6.062  1.4311  0.9392  0.7134
 2928SOL    HW2 9684   6.009   3.713   6.184  0.4068 -0.7537 -0.4407
 2929SOL     OW 9685   3.545   0.086   4.658  0.0920  0.1009 -0.4474
 2929SOL    HW1 9686   3.587   0.169   4.622  1.8534 -0.2732  0.6099
 2929SOL    HW2 9687   3.590   0.061   4.743 -2.4058 -0.2957  0.8582
 2930SOL     OW 9688   3.262   6.381   1.971 -0.5157 -0.5622 -0.0811
 2930SOL    HW1 9689   3.217   6.351   1.886  0.6305  2.1021 -1.7562
 2930SOL    HW2 9690   3.203   6.447   2.018  0.1330  0.3235 -0.4798
 2931SOL     OW 9691   6.073   6.246   5.115 -0.3212  0.1175  0.0140
 2931SOL    HW1 9692   6.026   6.221   5.031  0.9861 -0.3088 -0.6147
 2931SOL    HW2 9693   6.166   6.277   5.094  0.1962 -0.4565  1.3233
 2932SOL     OW 9694   3.602   0.071   1.084 -0.3286  0.4677  0.3251
 2932SOL    HW1 9695   3.628  -0.020   1.052  0.4261  0.0768  1.9441
 2932SOL    HW2 9696   3.625   0.139   1.014  0.3086 -0.4298 -0.3608
 2933SOL     OW 9697   5.020   6.201   0.987 -0.4176 -0.5444  0.5873
 2933SOL    HW1 9698   5.119   6.198   0.994 -0.2994  0.6104 -0.2136
 2933SOL    HW2 9699   4.980   6.219   1.077 -0.0358 -2.7564  1.2467
 2934SOL     OW 9700   3.713   1.653   3.182  0.2284 -0.0005  0.4408
 2934SOL    HW1 9701   3.698   1.584   3.111  0.7619 -0.2815  0.5960
 2934SOL    HW2 9702   3.797   1.702   3.164  0.1373  0.2298  0.6400
 2935SOL     OW 9703   0.932   4.851   4.287 -0.0558 -0.1964 -0.5969
 2935SOL    HW1 9704   0.894   4.762   4.312  0.7018 -0.6009 -0.8485
 2935SOL    HW2 9705   1.030   4.841   4.269  0.0294  0.6865 -0.6470
 2936SOL     OW 9706   4.523   0.987   3.579  0.0719  0.2426 -0.6051
 2936SOL    HW1 9707   4.560   1.037   3.658 -0.6696 -1.0240  0.5797
 2936SOL    HW2 9708   4.568   0.898   3.571 -1.1835 -0.4229 -0.4455
 2937SOL     OW 9709   0.333   4.859   0.846  0.4556  0.1069  0.5532
 2937SOL    HW1 9710   0.341   4.760   0.837  0.1061  0.1294 -0.0336
 2937SOL    HW2 9711   0.238   4.886   0.832  0.7609  0.6468 -0.5249
 2938SOL     OW 9712   5.055   6.775   5.698 -0.0555  0.0263  0.0998
 2938SOL    HW1 9713   5.123   6.707   5.670 -0.3108 -0.3182  0.3108
 2938SOL    HW2 9714   5.024   6.825   5.617 -0.2177 -0.4353 -0.1287
 2939SOL     OW 9715   4.757   6.961   0.363 -0.1234 -0.5420 -0.0734
 2939SOL    HW1 9716   4.772   6.959   0.264 -1.2789  1.8128 -0.3559
 2939SOL    HW2 9717   4.688   7.030   0.385  2.4579  1.3994  2.6620
 2940SOL     OW 9718   0.702   0.749   3.183 -0.2767  0.2419 -0.4916
 2940SOL    HW1 9719   0.759   0.750   3.101  1.2587 -1.4276  0.4886
 2940SOL    HW2 9720   0.732   0.822   3.245  0.0277  0.1190 -0.4902
 2941SOL     OW 9721   6.170   1.849   4.020 -0.2356 -0.4121 -0.4837
 2941SOL    HW1 9722   6.123   1.781   3.964 -2.9980  1.3560 -0.4974
 2941SOL    HW2 9723   6.201   1.924   3.962  0.6279 -0.5138 -0.1661
 2942SOL     OW 9724   6.780   0.327   6.708 -0.4414 -0.4249 -0.7072
 2942SOL    HW1 9725   6.703   0.283   6.661 -1.4226 -0.6739  1.0448
 2942SOL    HW2 9726   6.866   0.288   6.675 -1.2063 -2.3568 -0.5746
 2943SOL     OW 9727   4.674   6.504   5.814 -0.1735  0.3314  0.0474
 2943SOL    HW1 9728   4.660   6.500   5.913 -0.7830  2.1544  0.0665
 2943SOL    HW2 9729   4.772   6.516   5.795  0.0419 -0.7269  0.3629
 2944SOL     OW 9730   2.594   6.208   5.809  0.8638  0.1295  0.1271
 2944SOL    HW1 9731   2.507   6.246   5.840  0.1911 -0.0134 -1.4902
 2944SOL    HW2 9732   2.635   6.269   5.741  0.6624 -1.1013 -1.1470
 2945SOL     OW 9733   4.736   2.065   1.135  0.4880 -0.3851 -0.2538
 2945SOL    HW1 9734   4.829   2.038   1.159  1.0870  1.2741 -0.6064
 2945SOL    HW2 9735   4.733   2.163   1.115 -1.3098 -0.4283 -0.4032
 2946SOL     OW 9736   2.448   0.813   5.100  0.0710 -0.2487 -0.4070
 2946SOL    HW1 9737   2.418   0.728   5.143 -0.3369  0.7942  1.4848
 2946SOL    HW2 9738   2.370   0.859   5.059 -0.0328  0.0536  0.1224
 2947SOL     OW 9739   5.257   0.615   6.075  0.4673  0.0732  0.0073
 2947SOL    HW1 9740   5.293   0.526   6.102 -0.3991 -0.5656 -0.8646
 2947SOL    HW2 9741   5.203   0.605   5.991 -0.3340  1.2662  0.3524
 2948SOL     OW 9742   3.765   4.094   4.206 -0.6415 -0.5554  0.0106
 2948SOL    HW1 9743   3.754   4.126   4.111 -0.1090 -1.6427 -0.4359
 2948SOL    HW2 9744   3.733   3.999   4.213  1.6170 -1.3429  0.3209
 2949SOL     OW 9745   5.550   4.766   2.155  0.4634  0.3019  0.1714
 2949SOL    HW1 9746   5.451   4.752   2.162  0.3197 -0.3165 -2.1869
 2949SOL    HW2 9747   5.568   4.847   2.098  1.2965 -0.1113 -0.1693
 2950SOL     OW 9748   2.740   2.286   5.169  0.1621  0.0927  0.1598
 2950SOL    HW1 9749   2.781   2.240   5.089 -1.1264  1.5960 -1.4298
 2950SOL    HW2 9750   2.699   2.372   5.141 -0.6002  0.5435  2.4405
 2951SOL     OW 9751   6.161   2.016   6.433 -0.3386  0.2556  0.0547
 2951SOL    HW1 9752   6.159   2.077   6.353 -0.5879 -0.4984 -0.5271
 2951SOL    HW2 9753   6.208   2.062   6.508  1.8988  0.1496 -1.1928
 2952SOL     OW 9754   5.431   2.016   3.153 -0.7785 -0.4247 -0.0428
 2952SOL    HW1 9755   5.519   2.063   3.154 -0.3961 -1.1419  0.7077
 2952SOL    HW2 9756   5.365   2.068   3.207 -0.7350 -0.0588 -0.3343
 2953SOL     OW 9757   5.078   5.157   1.591  0.2792 -0.0746 -0.0026
 2953SOL    HW1 9758   5.089   5.061   1.616  1.0762 -0.5786 -2.0811
 2953SOL    HW2 9759   5.117   5.215   1.662  2.0124 -1.3791  0.1679
 2954SOL     OW 9760   1.062   0.895   2.779  0.6192 -0.5113  0.2415
 2954SOL    HW1 9761   1.070   0.950   2.862  1.2473 -0.3117  0.0587
 2954SOL    HW2 9762   1.038   0.955   2.702  3.0493 -0.1248 -0.3192
 2955SOL     OW 9763   5.993   6.102   3.099 -0.0947 -0.2764 -0.4706
 2955SOL    HW1 9764   6.057   6.026   3.085  2.1556  1.1709  1.1436
 2955SOL    HW2 9765   5.917   6.094   3.034  1.4522 -2.3741 -2.1924
 2956SOL     OW 9766   3.539   5.668   4.508  0.0681 -0.2101 -0.4799
 2956SOL    HW1 9767   3.479   5.595   4.541 -0.7919  1.0970  0.9784
 2956SOL    HW2 9768   3.572   5.644   4.417 -1.1108 -1.8710 -0.5325
 2957SOL     OW 9769   6.602   5.977   0.143  0.7504 -0.0560  0.3844
 2957SOL    HW1 9770   6.567   5.937   0.058 -1.1164  2.2592 -0.0394
 2957SOL    HW2 9771   6.696   5.945   0.159  1.7612  0.5626 -3.3726
 2958SOL     OW 9772   0.289   4.024   3.282  0.1419 -0.4248  0.4126
 2958SOL    HW1 9773   0.252   3.996   3.370 -0.2766 -0.3648  0.2553
 2958SOL    HW2 9774   0.307   4.123   3.283  1.2589 -0.6137  0.8351
 2959SOL     OW 9775   1.758   1.444   6.949  0.2261  0.2424 -0.4211
 2959SOL    HW1 9776   1.661   1.467   6.943  0.1418  0.0020  0.0006
 2959SOL    HW2 9777   1.809   1.500   6.883 -0.1091  0.8749 -0.1528
 2960SOL     OW 9778   0.466   0.430   0.704 -0.5822 -0.4050  0.3284
 2960SOL    HW1 9779   0.516   0.429   0.790  2.6959  1.3105 -1.3597
 2960SOL    HW2 9780   0.494   0.352   0.648  0.6951  0.7858 -0.7924
 2961SOL     OW 9781   4.793   2.883   5.946 -0.6635  0.0661 -0.4606
 2961SOL    HW1 9782   4.772   2.979   5.961  0.2440 -0.0292  1.8123
 2961SOL    HW2 9783   4.742   2.827   6.011  0.7154 -0.7497 -0.0292
 2962SOL     OW 9784   0.400   6.823   5.116 -0.2710  0.0816  0.3383
 2962SOL    HW1 9785   0.426   6.846   5.210  0.1379 -2.3013  0.8969
 2962SOL    HW2 9786   0.477   6.777   5.072 -1.2055 -0.8699 -0.3572
 2963SOL     OW 9787   4.568   0.150   4.748 -0.6563  0.2793 -0.4308
 2963SOL    HW1 9788   4.664   0.172   4.733 -0.6321  1.1294  0.8545
 2963SOL    HW2 9789   4.533   0.099   4.670  1.7763 -3.2570  0.5850
 2964SOL     OW 9790   3.871   4.076   4.842 -1.1422  0.6324  0.2738
 2964SOL    HW1 9791   3.827   4.086   4.752  0.4329 -0.4347 -0.6512
 2964SOL    HW2 9792   3.947   4.141   4.849  0.5707 -1.2161 -0.3661
 2965SOL     OW 9793   2.713   4.944   0.529  0.7301  0.4866  0.7766
 2965SOL    HW1 9794   2.617   4.969   0.539  0.7253  0.6884  0.2451
 2965SOL    HW2 9795   2.723   4.845   0.541  0.3228  0.3392 -0.0459
 2966SOL     OW 9796   6.258   0.423   5.253  0.1038  0.2799 -1.0057
 2966SOL    HW1 9797   6.328   0.493   5.270  3.5579 -2.8275 -0.9844
 2966SOL    HW2 9798   6.255   0.360   5.331 -2.0354 -0.3020 -1.5044
 2967SOL     OW 9799   2.445   0.833   0.607  0.1985 -0.3024  0.0921
 2967SOL    HW1 9800   2.382   0.904   0.638 -0.2936  0.1423 -1.7954
 2967SOL    HW2 9801   2.404   0.743   0.623 -0.1729 -0.0745  0.4277
 2968SOL     OW 9802   3.945   4.099   5.899 -0.4100 -0.1866  0.5850
 2968SOL    HW1 9803   3.964   4.122   5.803  0.7752 -1.0666  0.5836
 2968SOL    HW2 9804   3.928   4.183   5.950 -0.4489  0.3440 -0.2768
 2969SOL     OW 9805   5.832   3.180   1.013 -0.1467  0.0723 -0.0684
 2969SOL    HW1 9806   5.884   3.191   1.098 -0.2931 -1.2524  0.2106
 2969SOL    HW2 9807   5.882   3.120   0.950 -0.8353 -0.3503 -0.2268
 2970SOL     OW 9808   1.651   4.048   1.233 -0.3328  0.2730  0.4232
 2970SOL    HW1 9809   1.672   4.062   1.330  0.8439 -0.3775  0.2821
 2970SOL    HW2 9810   1.726   4.082   1.178 -1.4230  1.5448 -0.3403
 2971SOL     OW 9811   1.790   5.697   4.395 -0.1855 -0.3745 -0.1037
 2971SOL    HW1 9812   1.717   5.646   4.438  0.7590 -0.7992  1.0479
 2971SOL    HW2 9813   1.769   5.795   4.398 -0.6064 -0.4783  0.4196
 2972SOL     OW 9814   0.050   1.063   5.352 -0.0186 -0.3045 -0.3161
 2972SOL    HW1 9815   0.061   1.149   5.402 -1.9183 -0.4638  0.4493
 2972SOL    HW2 9816  -0.036   1.065   5.301  1.3142 -0.6015 -2.7512
 2973SOL     OW 9817   3.526   2.921   0.931  0.1761 -0.0074  0.5657
 2973SOL    HW1 9818   3.440   2.912   0.981  1.6723 -1.2297  3.0957
 2973SOL    HW2 9819   3.543   3.018   0.912 -0.5849  0.5062  2.2923
 2974SOL     OW 9820   4.523   5.193   4.219 -0.0255  0.0502 -0.6287
 2974SOL    HW1 9821   4.606   5.199   4.164 -0.7468  0.6271 -1.7035
 2974SOL    HW2 9822   4.446   5.228   4.166 -0.6442  1.2977  0.9905
 2975SOL     OW 9823   5.623   1.767   0.665 -0.0404  0.0330  0.4260
 2975SOL    HW1 9824   5.561   1.737   0.737  0.4302  1.1539  1.3256
 2975SOL    HW2 9825   5.683   1.691   0.640 -0.9542 -0.7006  0.4018
 2976SOL     OW 9826   1.092   2.505   5.874  0.1709 -0.1834  0.3485
 2976SOL    HW1 9827   1.191   2.503   5.885  0.1053 -0.8110  0.9362
 2976SOL    HW2 9828   1.048   2.509   5.964 -0.3631 -2.6355  0.2817
 2977SOL     OW 9829   2.022   1.172   2.774  0.1241  0.3779 -0.9909
 2977SOL    HW1 9830   2.033   1.079   2.738 -0.1461  0.4075 -1.1570
 2977SOL    HW2 9831   2.103   1.198   2.826 -0.8853 -0.9693  1.3897
 2978SOL     OW 9832   2.401   2.076   6.519 -0.1323 -0.0881 -0.6251
 2978SOL    HW1 9833   2.470   2.091   6.448 -0.5024  0.3253 -0.8954
 2978SOL    HW2 9834   2.399   1.978   6.542  0.9941 -0.0135 -0.1497
 2979SOL     OW 9835   2.143   3.642   6.489 -0.6509  0.4029  0.1137
 2979SOL    HW1 9836   2.088   3.718   6.454 -0.9010  0.2746  0.2270
 2979SOL    HW2 9837   2.087   3.559   6.490 -0.1118  0.0102 -0.8773
 2980SOL     OW 9838   5.979   0.697   1.268  0.4383 -0.3407 -0.8443
 2980SOL    HW1 9839   5.970   0.671   1.172 -0.7246  0.6601 -1.0261
 2980SOL    HW2 9840   5.943   0.624   1.326  1.9850 -1.3577 -1.0894
 2981SOL     OW 9841   6.357   2.752   4.613 -0.2557 -0.5723 -0.0241
 2981SOL    HW1 9842   6.365   2.743   4.513 -1.3611 -0.1760 -0.1584
 2981SOL    HW2 9843   6.343   2.662   4.653 -0.8118 -0.6268 -0.3300
 2982SOL     OW 9844   2.172   0.030   5.787 -0.1745  0.4298 -0.0101
 2982SOL    HW1 9845   2.232   0.018   5.867 -1.1761  1.7891  0.9990
 2982SOL    HW2 9846   2.212   0.097   5.725  0.1416  0.0937 -0.1709
 2983SOL     OW 9847   0.861   2.711   3.283  0.8820 -0.1818 -0.1318
 2983SOL    HW1 9848   0.868   2.802   3.324 -2.3281  0.0542  0.1255
 2983SOL    HW2 9849   0.951   2.669   3.281  2.4124  2.8078  0.1187
 2984SOL     OW 9850   3.247   2.232   0.152 -0.2800  0.0687 -0.1544
 2984SOL    HW1 9851   3.172   2.297   0.137  0.0374  0.4922  0.0904
 2984SOL    HW2 9852   3.301   2.223   0.068  0.1343  0.7081  0.0392
 2985SOL     OW 9853   0.258   0.374   4.237  0.1229 -0.0416 -0.4224
 2985SOL    HW1 9854   0.355   0.394   4.252  0.1173  0.6517 -1.2067
 2985SOL    HW2 9855   0.248   0.316   4.156 -0.2226  1.5883 -1.5994
 2986SOL     OW 9856   0.999   1.711   5.835  0.1914 -0.2352  0.1150
 2986SOL    HW1 9857   1.060   1.645   5.880  1.0123 -0.8106 -1.7364
 2986SOL    HW2 9858   0.905   1.678   5.839  0.3107 -0.4838  1.0107
 2987SOL     OW 9859   4.884   1.361   2.735 -0.4097 -0.0753 -0.2148
 2987SOL    HW1 9860   4.916   1.275   2.775  0.0694  0.3135  0.2462
 2987SOL    HW2 9861   4.789   1.350   2.706 -0.5288 -0.5929  0.3444
 2988SOL     OW 9862   0.797   3.705   4.258  0.0082  0.1857 -0.3874
 2988SOL    HW1 9863   0.729   3.635   4.280 -0.5430  0.8769  0.1386
 2988SOL    HW2 9864   0.792   3.726   4.161  0.1748 -0.4970 -0.5513
 2989SOL     OW 9865   1.434   1.863   3.269  0.1264  0.0802 -0.6741
 2989SOL    HW1 9866   1.524   1.907   3.270  0.7307 -1.1023 -1.3933
 2989SOL    HW2 9867   1.444   1.765   3.253 -1.3015 -0.0569 -0.8908
 2990SOL     OW 9868   4.575   5.019   4.897 -0.4034 -0.0802  0.0981
 2990SOL    HW1 9869   4.668   4.982   4.893 -0.4702 -0.3511  0.8674
 2990SOL    HW2 9870   4.569   5.099   4.838  1.8101  3.1594  3.7359
 2991SOL     OW 9871   1.080   5.440   3.230  0.1424  0.5198  0.4201
 2991SOL    HW1 9872   1.137   5.370   3.186  0.2672  1.4727 -1.0014
 2991SOL    HW2 9873   1.138   5.517   3.256  0.1447 -0.1794  2.7109
 2992SOL     OW 9874   0.981   5.442   2.009  0.3405  0.0249 -0.2158
 2992SOL    HW1 9875   1.012   5.467   2.101  0.2036  0.4418 -0.2787
 2992SOL    HW2 9876   0.902   5.380   2.016  0.1977  0.2205 -0.0480
 2993SOL     OW 9877   6.831   2.141   2.674 -0.0867 -0.1118 -0.0990
 2993SOL    HW1 9878   6.804   2.227   2.717  2.7596  1.4823 -1.2161
 2993SOL    HW2 9879   6.792   2.137   2.582  0.7765  0.6192 -0.5094
 2994SOL     OW 9880   6.063   5.792   3.412  0.0693  0.2053 -1.0982
 2994SOL    HW1 9881   6.080   5.767   3.316 -2.4710 -1.1419 -1.2783
 2994SOL    HW2 9882   5.965   5.790   3.430  0.4539  0.9442  1.4309
 2995SOL     OW 9883   6.249   5.618   4.348 -0.1052 -0.2098 -0.0996
 2995SOL    HW1 9884   6.221   5.529   4.312 -0.4754 -0.4931  0.8629
 2995SOL    HW2 9885   6.336   5.609   4.395  0.1660  0.0727 -0.5376
 2996SOL     OW 9886   5.221   1.846   2.138  0.1787  0.0381 -0.2631
 2996SOL    HW1 9887   5.283   1.851   2.060 -2.0058  1.5629 -2.0084
 2996SOL    HW2 9888   5.177   1.757   2.140  0.1031  0.0567 -0.9118
 2997SOL     OW 9889   5.345   1.095   1.959  0.3876 -0.0274  1.2168
 2997SOL    HW1 9890   5.413   1.118   2.029 -0.2520  1.5603  1.3547
 2997SOL    HW2 9891   5.387   1.035   1.891  3.2949  3.9138 -0.8934
 2998SOL     OW 9892   0.790   1.275   3.656  0.0955 -0.0373 -0.4912
 2998SOL    HW1 9893   0.811   1.203   3.723 -0.2937  0.1513 -0.1601
 2998SOL    HW2 9894   0.832   1.361   3.685 -0.2060  0.0820 -0.4020
 2999SOL     OW 9895   4.197   6.844   1.318  0.3042  0.6865 -0.3033
 2999SOL    HW1 9896   4.120   6.870   1.377 -0.7302  2.9212 -2.4926
 2999SOL    HW2 9897   4.283   6.871   1.362 -0.4679  2.9068 -0.0704
 3000SOL     OW 9898   6.289   1.235   6.383 -0.4207 -0.4040 -0.1942
 3000SOL    HW1 9899   6.195   1.209   6.358 -1.3250  2.5955 -0.3719
 3000SOL    HW2 9900   6.321   1.306   6.320  1.5586 -0.5703  0.5760
 3001SOL     OW 9901   2.416   4.423   3.521  0.4609  0.7138 -0.6461
 3001SOL    HW1 9902   2.359   4.394   3.598  1.3985  1.4025  0.3492
 3001SOL    HW2 9903   2.398   4.365   3.442 -0.7972  0.2235 -0.0177
 3002SOL     OW 9904   3.720   6.630   5.401 -0.0017 -0.1316  0.4596
 3002SOL    HW1 9905   3.693   6.703   5.338 -0.6574  0.6057  1.5575
 3002SOL    HW2 9906   3.740   6.547   5.349  0.2164  0.6628 -0.7721
 3003SOL     OW 9907   2.829   4.786   3.137 -0.0628 -0.4998 -1.2145
 3003SOL    HW1 9908   2.781   4.749   3.058 -0.4628 -0.5904 -0.9294
 3003SOL    HW2 9909   2.795   4.742   3.220 -2.2826  2.1283 -0.5904
 3004SOL     OW 9910   1.418   1.438   5.594  0.8344 -0.5544  0.7535
 3004SOL    HW1 9911   1.416   1.401   5.501 -0.9034 -1.5382  1.1333
 3004SOL    HW2 9912   1.407   1.537   5.591  1.1909 -0.5304 -0.0931
 3005SOL     OW 9913   5.681   2.782   0.168 -0.2093 -0.0598  0.5636
 3005SOL    HW1 9914   5.648   2.875   0.156 -1.1498 -0.3758  0.6126
 3005SOL    HW2 9915   5.645   2.746   0.255  0.2023 -0.4411  0.5746
 3006SOL     OW 9916   6.602   0.566   0.321 -0.0739  0.2381  0.1340
 3006SOL    HW1 9917   6.665   0.643   0.332  0.8655 -0.5010  0.0667
 3006SOL    HW2 9918   6.651   0.480   0.335 -0.6315 -0.4366 -1.6535
 3007SOL     OW 9919   1.880   3.483   4.017  0.0029  0.1505 -0.5431
 3007SOL    HW1 9920   1.826   3.431   4.083  0.5886 -0.7031 -0.7231
 3007SOL    HW2 9921   1.843   3.575   4.010  0.4462  0.5346  1.5932
 3008SOL     OW 9922   0.382   2.136   6.484 -0.4530 -0.2075 -0.1141
 3008SOL    HW1 9923   0.324   2.158   6.563  0.7106  2.8910  0.0055
 3008SOL    HW2 9924   0.455   2.074   6.512 -1.3967 -1.0153  0.6391
 3009SOL     OW 9925   0.626   4.569   6.855  0.0427  0.1923  0.2514
 3009SOL    HW1 9926   0.718   4.541   6.882 -0.1808 -0.8910 -0.0602
 3009SOL    HW2 9927   0.568   4.580   6.936  0.9930  3.0672  0.6490
 3010SOL     OW 9928   6.907   0.460   2.946  0.3427  0.3097 -0.4437
 3010SOL    HW1 9929   6.890   0.549   2.904 -2.7473  0.4344  0.7814
 3010SOL    HW2 9930   6.878   0.462   3.041  0.3477 -1.9482 -0.3440
 3011SOL     OW 9931   2.123   2.547   6.764 -0.6637  0.1621  0.4714
 3011SOL    HW1 9932   2.182   2.591   6.832  1.8573 -1.6125 -0.4189
 3011SOL    HW2 9933   2.037   2.520   6.807  0.1463  0.6339  2.5125
 3012SOL     OW 9934   5.805   1.857   4.685 -0.0519  0.7314 -0.6186
 3012SOL    HW1 9935   5.861   1.927   4.640 -0.9488  1.7947 -0.1408
 3012SOL    HW2 9936   5.792   1.882   4.781  0.5641 -0.7096 -0.1496
 3013SOL     OW 9937   1.729   4.528   5.514  0.5826  0.1452  0.0236
 3013SOL    HW1 9938   1.735   4.458   5.586  2.1003  0.8111  0.5843
 3013SOL    HW2 9939   1.746   4.485   5.425 -0.4629 -0.5300  0.1255
 3014SOL     OW 9940   3.354   3.310   4.700  0.2393 -0.2841 -0.5412
 3014SOL    HW1 9941   3.277   3.250   4.678 -1.6468  2.1206 -0.9219
 3014SOL    HW2 9942   3.366   3.313   4.800 -1.2592  0.5261 -0.3573
 3015SOL     OW 9943   0.465   5.749   1.293  0.0689  0.4000  0.0410
 3015SOL    HW1 9944   0.542   5.712   1.242 -1.0212 -1.2116 -0.5230
 3015SOL    HW2 9945   0.431   5.680   1.357 -1.2838  0.8425 -0.1659
 3016SOL     OW 9946   5.332   0.419   6.439 -0.3226  0.1869  0.1090
 3016SOL    HW1 9947   5.342   0.504   6.491  0.0728 -0.8365  1.8038
 3016SOL    HW2 9948   5.258   0.365   6.479 -0.6717 -0.1989 -1.0452
 3017SOL     OW 9949   5.581   0.550   5.191  0.2744  0.6795  0.1348
 3017SOL    HW1 9950   5.572   0.479   5.120  0.1915 -0.8228  1.5858
 3017SOL    HW2 9951   5.677   0.579   5.196  0.4934 -0.0371  0.1820
 3018SOL     OW 9952   5.949   2.281   0.044 -0.5397 -0.1685 -0.2550
 3018SOL    HW1 9953   5.855   2.268   0.011 -0.2669  0.5712 -1.3862
 3018SOL    HW2 9954   6.008   2.303  -0.033  0.7090 -1.2717  0.3524
 3019SOL     OW 9955   3.634   3.496   4.245  0.8311 -0.9701  0.5829
 3019SOL    HW1 9956   3.701   3.538   4.306 -0.2296  0.0405  1.0860
 3019SOL    HW2 9957   3.551   3.552   4.243 -0.7004 -3.0793  1.3733
 3020SOL     OW 9958   6.600   2.257   2.241 -0.1431 -0.6052  0.0784
 3020SOL    HW1 9959   6.508   2.295   2.228 -1.1026 -2.3764  1.1555
 3020SOL    HW2 9960   6.667   2.314   2.195 -1.5887  1.6977  0.6762
 3021SOL     OW 9961   1.790   4.281   3.048  0.2679 -0.7987  0.0099
 3021SOL    HW1 9962   1.734   4.252   3.126 -0.4196 -0.0151 -0.1784
 3021SOL    HW2 9963   1.778   4.379   3.034 -0.1639 -1.0585 -1.5233
 3022SOL     OW 9964   4.451   1.743   6.781 -0.0386 -0.5071  0.9848
 3022SOL    HW1 9965   4.377   1.809   6.795 -1.4572 -2.0102  0.8888
 3022SOL    HW2 9966   4.527   1.787   6.733 -1.4949  0.7191 -0.3019
 3023SOL     OW 9967   6.958   6.676   1.781 -0.1188 -0.1469  0.6791
 3023SOL    HW1 9968   7.048   6.712   1.809  0.0827 -0.8139  0.9063
 3023SOL    HW2 9969   6.899   6.670   1.861 -0.0799 -0.5327  0.6769
 3024SOL     OW 9970   6.774   1.716   2.795 -0.6015  0.3494 -0.4234
 3024SOL    HW1 9971   6.713   1.678   2.864 -1.1800  1.7571 -0.1460
 3024SOL    HW2 9972   6.816   1.800   2.829 -0.4904  0.7785 -1.5687
 3025SOL     OW 9973   6.444   4.761   0.853  0.2483  0.1732 -0.2029
 3025SOL    HW1 9974   6.344   4.761   0.850  0.2368 -1.6780 -0.7773
 3025SOL    HW2 9975   6.476   4.839   0.907 -1.4780  1.1170 -0.4860
 3026SOL     OW 9976   2.212   5.794   2.506  0.1766  0.1922  0.3448
 3026SOL    HW1 9977   2.228   5.740   2.588 -0.8553  0.1794  0.5539
 3026SOL    HW2 9978   2.117   5.784   2.478  0.3221  0.8176 -0.4024
 3027SOL     OW 9979   6.131   3.328   6.515  0.5495  0.4674  0.8825
 3027SOL    HW1 9980   6.187   3.343   6.596  0.4847  2.5346  0.5796
 3027SOL    HW2 9981   6.035   3.346   6.536  0.5251  0.9714  0.3758
 3028SOL     OW 9982   1.106   2.284   4.877 -0.1042  0.6193 -0.0288
 3028SOL    HW1 9983   1.010   2.255   4.883 -0.6243  2.3466  0.7798
 3028SOL    HW2 9984   1.162   2.207   4.848 -2.0595  0.1968 -3.2183
 3029SOL     OW 9985   4.564   0.834   5.739 -0.1768  0.2790  0.2421
 3029SOL    HW1 9986   4.633   0.897   5.704 -0.7394  0.9088  0.2492
 3029SOL    HW2 9987   4.561   0.840   5.839 -0.4262  0.4511  0.2249
 3030SOL     OW 9988   4.771   6.090   2.691 -0.0605 -0.5051  1.1665
 3030SOL    HW1 9989   4.847   6.155   2.696  2.1305 -2.7639 -0.0565
 3030SOL    HW2 9990   4.723   6.101   2.604 -0.2380  0.0027  1.3248
 3031SOL     OW 9991   2.923   0.963   2.337  0.2504 -0.2783 -0.0591
 3031SOL    HW1 9992   2.858   0.977   2.263 -1.1596 -3.0511  0.4781
 3031SOL    HW2 9993   2.891   0.887   2.394  2.6475  0.0168  1.8332
 3032SOL     OW 9994   0.354   0.118   2.850 -0.5513  0.6823 -0.4823
 3032SOL    HW1 9995   0.439   0.098   2.801 -0.0110  3.1128 -0.6617
 3032SOL    HW2 9996   0.320   0.207   2.822 -0.8482  1.6807  2.6990
 3033SOL     OW 9997   3.968   2.131   0.659  0.1499 -0.7417 -0.1371
 3033SOL    HW1 9998   4.025   2.207   0.691  0.1810 -0.4976 -0.7574
 3033SOL    HW2 9999   3.901   2.107   0.730 -1.3652  1.3753 -0.7448
 3034SOL     OW10000   2.118   0.154   4.557  0.1549 -0.4928 -0.1102
 3034SOL    HW110001   2.143   0.071   4.507  0.9683  0.7564 -1.8650
 3034SOL    HW210002   2.087   0.224   4.493  4.3756  2.3389  0.5325
 3035SOL     OW10003   6.011   6.467   4.511 -0.9091 -0.1284  0.0569
 3035SOL    HW110004   5.936   6.401   4.508 -2.0712  1.1957 -0.8762
 3035SOL    HW210005   6.071   6.453   4.433 -2.2427  1.1168 -1.2409
 3036SOL     OW10006   4.862   4.890   5.363 -0.5525  0.5508  0.5719
 3036SOL    HW110007   4.875   4.897   5.264 -1.4828  0.4860  0.4299
 3036SOL    HW210008   4.849   4.982   5.401 -1.8118  0.4771  0.3732
 3037SOL     OW10009   0.401   5.848   4.447 -0.0348 -0.1846  0.1130
 3037SOL    HW110010   0.413   5.926   4.385  1.0182  0.6474  1.3131
 3037SOL    HW210011   0.403   5.880   4.542  4.0009 -1.9484  0.8546
 3038SOL     OW10012   6.274   6.424   5.486 -0.1015  0.2206 -0.6901
 3038SOL    HW110013   6.247   6.396   5.579 -0.3947  1.1772 -0.4775
 3038SOL    HW210014   6.249   6.352   5.421 -1.4767  0.2752 -0.2552
 3039SOL     OW10015   1.991   6.271   3.688  0.0282 -0.3428 -0.7690
 3039SOL    HW110016   2.047   6.244   3.766  0.3426  3.1052  0.3964
 3039SOL    HW210017   1.894   6.257   3.711  0.0747  1.2705  0.6333
 3040SOL     OW10018   1.203   4.411   2.667  0.1185  0.2869  0.3034
 3040SOL    HW110019   1.175   4.383   2.575  2.3980 -0.8611 -0.1089
 3040SOL    HW210020   1.245   4.502   2.663 -1.1261  0.8925  0.4994
 3041SOL     OW10021   5.693   3.447   0.150 -0.0217  0.0773 -0.6517
 3041SOL    HW110022   5.754   3.368   0.141  0.8259  0.6431  0.0159
 3041SOL    HW210023   5.683   3.471   0.247  0.8907  1.6768 -0.9264
 3042SOL     OW10024   5.882   4.314   2.559  0.1757 -0.4319 -0.1802
 3042SOL    HW110025   5.921   4.228   2.526  0.0455 -0.2538 -0.8131
 3042SOL    HW210026   5.882   4.315   2.659 -0.8529 -1.6415 -0.1535
 3043SOL     OW10027   4.400   6.239   4.286  0.5472  0.2188  0.3313
 3043SOL    HW110028   4.306   6.233   4.320  0.5930 -2.9581  0.2404
 3043SOL    HW210029   4.462   6.256   4.362  0.3036 -3.2178  1.4886
 3044SOL     OW10030   2.721   4.802   6.879 -0.1601  0.5108  0.3655
 3044SOL    HW110031   2.811   4.760   6.870 -0.5111 -0.2752  0.4818
 3044SOL    HW210032   2.710   4.837   6.973 -0.4989 -0.6568  0.7846
 3045SOL     OW10033   1.006   5.856   3.017 -0.2991  0.4356 -0.0949
 3045SOL    HW110034   0.929   5.867   2.954 -1.0555 -0.6713  0.6042
 3045SOL    HW210035   1.051   5.769   3.000 -0.6304  0.0341  0.9963
 3046SOL     OW10036   0.014   7.011   0.046 -0.2917 -0.2231  0.1280
 3046SOL    HW110037  -0.017   6.930   0.096 -1.0743  0.1104  0.1870
 3046SOL    HW210038  -0.051   7.033  -0.027  0.9127 -0.7907 -1.1635
 3047SOL     OW10039   4.317   1.039   2.042  0.5849  0.7415  0.5933
 3047SOL    HW110040   4.346   1.134   2.026  0.4107  0.5912 -0.7475
 3047SOL    HW210041   4.223   1.028   2.010  1.0070 -0.1636 -0.4033
 3048SOL     OW10042   3.679   4.304   6.232 -0.1361  0.3219  0.2419
 3048SOL    HW110043   3.689   4.388   6.286 -1.6384  0.2077  0.7345
 3048SOL    HW210044   3.696   4.225   6.291  1.9101  0.2493 -0.3676
 3049SOL     OW10045   0.320   2.944   3.944 -0.5457  0.4527 -0.2968
 3049SOL    HW110046   0.412   2.966   3.977 -0.8856 -0.5887  1.4403
 3049SOL    HW210047   0.326   2.903   3.853  0.9237 -1.5843  0.6555
 3050SOL     OW10048   3.868   6.344   1.252  0.4296  0.8140 -0.2604
 3050SOL    HW110049   3.795   6.411   1.241 -0.5753 -0.5420 -2.6996
 3050SOL    HW210050   3.900   6.315   1.162  1.2279 -1.5445  0.7027
 3051SOL     OW10051   6.670   4.409   2.378  0.0930 -0.2891 -0.1031
 3051SOL    HW110052   6.638   4.324   2.338 -1.4320  0.2784 -0.1514
 3051SOL    HW210053   6.605   4.442   2.446  1.3136  0.1659  0.9005
 3052SOL     OW10054   0.925   1.628   5.366  0.2430 -0.1383 -0.9362
 3052SOL    HW110055   0.848   1.684   5.399  1.6221  1.0706  0.3875
 3052SOL    HW210056   1.010   1.680   5.376  1.4516 -2.0566 -0.7831
 3053SOL     OW10057   1.569   2.172   3.085  0.2960  0.1611  0.2065
 3053SOL    HW110058   1.504   2.142   3.015 -0.1103  1.8368 -0.1800
 3053SOL    HW210059   1.640   2.228   3.042  2.0351 -1.6167  0.6312
 3054SOL     OW10060   6.021   3.496   2.220 -0.2861 -0.4109 -0.4280
 3054SOL    HW110061   6.062   3.570   2.166  1.1067  0.3062  1.4966
 3054SOL    HW210062   6.030   3.410   2.171  1.2891  0.1436 -1.1789
 3055SOL     OW10063   0.833   5.523   4.762  0.2052  0.1953  0.3714
 3055SOL    HW110064   0.820   5.612   4.718  0.0054 -0.1367 -0.2451
 3055SOL    HW210065   0.817   5.450   4.696 -1.2643 -0.3440  1.2837
 3056SOL     OW10066   3.735   3.845   4.680  0.3843  0.0966  0.4071
 3056SOL    HW110067   3.831   3.818   4.690  0.9933  1.8668 -0.1626
 3056SOL    HW210068   3.731   3.938   4.643 -1.5751 -0.0981  0.0513
 3057SOL     OW10069   6.817   0.491   2.552  0.5374 -0.2044  0.0866
 3057SOL    HW110070   6.841   0.397   2.528 -0.9203 -0.2295 -1.5189
 3057SOL    HW210071   6.805   0.498   2.651  1.2703 -1.5595  0.2924
 3058SOL     OW10072   2.329   1.109   3.547 -1.1247 -0.1318  0.6831
 3058SOL    HW110073   2.347   1.191   3.601 -0.5508 -1.7854  3.1636
 3058SOL    HW210074   2.405   1.045   3.557 -2.0785 -1.4576 -0.2276
 3059SOL     OW10075   2.380   0.485   5.544 -0.1209  0.4279  0.0731
 3059SOL    HW110076   2.478   0.470   5.545 -0.2112 -0.4107 -1.4311
 3059SOL    HW210077   2.357   0.561   5.606  1.3790  0.2317  0.8973
 3060SOL     OW10078   2.011   0.989   5.136  0.4932  0.1582  0.0903
 3060SOL    HW110079   1.995   0.922   5.064  0.5546  1.8454 -1.5672
 3060SOL    HW210080   1.933   0.988   5.199 -0.0085 -0.7153 -0.5117
 3061SOL     OW10081   0.207   2.611   2.513 -0.4461 -0.0045 -0.0057
 3061SOL    HW110082   0.225   2.608   2.414 -0.2646  1.0850 -0.0187
 3061SOL    HW210083   0.124   2.559   2.533  0.6680 -2.0521 -0.4277
 3062SOL     OW10084   0.700   1.691   6.677  0.8337 -0.2228 -0.6177
 3062SOL    HW110085   0.669   1.698   6.772  0.9373 -0.0104 -0.5988
 3062SOL    HW210086   0.789   1.646   6.673  0.3694 -1.1618 -0.7024
 3063SOL     OW10087   4.314   1.794   1.361  0.2658 -0.2468  0.7049
 3063SOL    HW110088   4.279   1.742   1.283  1.8011  2.2026 -1.8085
 3063SOL    HW210089   4.400   1.752   1.393  0.2589 -0.5977  0.2817
 3064SOL     OW10090   7.008   3.793   3.626 -0.4037  0.4776  0.7130
 3064SOL    HW110091   6.990   3.841   3.712 -0.9597 -0.5778  1.1960
 3064SOL    HW210092   6.938   3.819   3.559 -1.9636 -1.2047  1.6169
 3065SOL     OW10093   5.191   6.639   3.876  0.2658  0.1078  0.2100
 3065SOL    HW110094   5.287   6.619   3.894 -0.1920 -2.3077  0.2995
 3065SOL    HW210095   5.133   6.583   3.935 -1.1978  0.4662 -0.8278
 3066SOL     OW10096   5.523   4.384   2.609 -0.4950 -0.8163  0.2092
 3066SOL    HW110097   5.456   4.457   2.621 -0.2158 -0.6110  0.5209
 3066SOL    HW210098   5.538   4.369   2.511  1.3104  1.2806  0.0976
 3067SOL     OW10099   6.091   6.017   0.996  0.3036 -0.1961  0.0046
 3067SOL    HW110100   6.077   5.961   0.914  0.7520 -0.7512  0.2999
 3067SOL    HW210101   6.102   6.113   0.969  1.8101 -0.5351 -0.7397
 3068SOL     OW10102   6.857   3.795   0.778  0.2574 -0.2527 -0.1148
 3068SOL    HW110103   6.797   3.774   0.855  1.2388  0.9591  1.0230
 3068SOL    HW210104   6.947   3.754   0.793  1.1047  1.6978  0.4416
 3069SOL     OW10105   5.472   1.227   1.107  0.5314  0.4726  0.1664
 3069SOL    HW110106   5.555   1.173   1.093 -0.5728 -0.8064 -2.0400
 3069SOL    HW210107   5.473   1.267   1.199  0.7944 -4.4720  2.6400
 3070SOL     OW10108   0.330   5.892   5.513 -0.4395 -0.1248  0.1960
 3070SOL    HW110109   0.354   5.924   5.605  0.9502 -1.7154  0.4418
 3070SOL    HW210110   0.247   5.837   5.516  0.1106 -0.9353  0.6654
 3071SOL     OW10111   5.260   4.522   2.360 -0.2115  0.1419 -0.0435
 3071SOL    HW110112   5.293   4.557   2.273 -1.5108  2.2116  0.2245
 3071SOL    HW210113   5.268   4.422   2.361  0.9042  0.1604 -2.0470
 3072SOL     OW10114   2.058   5.349   1.401 -0.1325  0.2273 -0.2676
 3072SOL    HW110115   2.061   5.322   1.305 -0.7159 -0.1414 -0.1923
 3072SOL    HW210116   2.050   5.448   1.408 -0.0881  0.2554 -0.6023
 3073SOL     OW10117   4.270   2.308   6.107 -0.1545 -0.1001 -0.2864
 3073SOL    HW110118   4.287   2.401   6.141 -0.1840 -0.1920 -0.0159
 3073SOL    HW210119   4.326   2.291   6.026 -0.6128  0.3751 -0.7100
 3074SOL     OW10120   6.988   4.894   5.356  0.8458 -0.1495 -0.4290
 3074SOL    HW110121   6.938   4.966   5.403 -2.1435 -0.6141 -2.5991
 3074SOL    HW210122   7.066   4.865   5.412 -0.5198  1.5605  2.5849
 3075SOL     OW10123   3.688   1.613   0.541 -0.1682  0.3911 -0.3496
 3075SOL    HW110124   3.772   1.566   0.565  0.0071  1.1838  0.6508
 3075SOL    HW210125   3.677   1.613   0.442  1.6862  1.4216 -0.5871
 3076SOL     OW10126   6.339   4.435   6.242  0.0561  0.1736 -0.1461
 3076SOL    HW110127   6.364   4.496   6.317  0.4543  0.5307 -0.5662
 3076SOL    HW210128   6.239   4.433   6.233 -0.0687 -0.8152  1.1645
 3077SOL     OW10129   6.770   0.264   1.944  0.9945  0.4474  0.2967
 3077SOL    HW110130   6.783   0.183   1.888  0.7016  1.3174 -1.0898
 3077SOL    HW210131   6.785   0.346   1.888 -3.6696  1.4801  0.1576
 3078SOL     OW10132   4.932   3.382   5.123  0.4350 -0.0996  0.2628
 3078SOL    HW110133   4.907   3.471   5.161  1.0127 -0.7062  2.1829
 3078SOL    HW210134   4.944   3.390   5.024 -1.1506  1.5632  0.1557
 3079SOL     OW10135   1.937   6.716   5.131  0.4974 -0.1445  0.0886
 3079SOL    HW110136   1.989   6.667   5.200 -0.2863  0.4784  1.1605
 3079SOL    HW210137   1.985   6.801   5.107 -0.5991  1.1241  2.0922
 3080SOL     OW10138   3.258   0.184   1.606 -0.1088 -0.3623  0.5020
 3080SOL    HW110139   3.233   0.281   1.618 -1.8947 -0.6889 -0.2325
 3080SOL    HW210140   3.306   0.173   1.519  0.9053 -0.0107  1.0077
 3081SOL     OW10141   4.550   4.371   1.439 -0.3245  0.2965 -0.2383
 3081SOL    HW110142   4.622   4.441   1.436  1.6987 -1.6560  0.1523
 3081SOL    HW210143   4.461   4.414   1.424  0.9205  2.7781 -1.0592
 3082SOL     OW10144   4.482   6.445   4.105  0.3558 -0.7828  0.2411
 3082SOL    HW110145   4.465   6.352   4.071 -2.3029  0.4062 -2.0806
 3082SOL    HW210146   4.434   6.459   4.191 -1.1503 -0.9185 -0.5525
 3083SOL     OW10147   6.957   1.197   0.154  0.4154  0.5437  0.1324
 3083SOL    HW110148   6.909   1.163   0.073  0.3019 -1.7804  1.0796
 3083SOL    HW210149   7.027   1.130   0.181  1.1759  1.7784  1.3427
 3084SOL     OW10150   0.248   4.756   1.799 -0.1043 -0.0952  0.5192
 3084SOL    HW110151   0.237   4.835   1.859 -2.5533 -0.2076  0.3429
 3084SOL    HW210152   0.204   4.775   1.711 -0.3703 -1.4774  0.3313
 3085SOL     OW10153   6.736   3.471   6.650 -0.2400 -0.5088  0.0647
 3085SOL    HW110154   6.651   3.420   6.652 -0.0637 -0.8100 -0.1043
 3085SOL    HW210155   6.768   3.480   6.556 -0.3443  0.0378  0.0775
 3086SOL     OW10156   2.304   4.315   3.746  0.3421  0.2338 -0.3639
 3086SOL    HW110157   2.263   4.224   3.754  0.8842  0.0600  0.6429
 3086SOL    HW210158   2.320   4.352   3.837  3.9204 -0.4055 -0.6010
 3087SOL     OW10159   1.025   0.897   3.066  0.8407 -0.1563 -0.0280
 3087SOL    HW110160   0.974   0.979   3.040  2.3246 -0.0088 -2.8303
 3087SOL    HW210161   1.116   0.923   3.099  1.0502 -0.6356 -0.2183
 3088SOL     OW10162   4.564   1.872   3.239  0.1661 -0.4145  0.8346
 3088SOL    HW110163   4.515   1.789   3.216 -2.1294  1.3064 -1.0464
 3088SOL    HW210164   4.519   1.951   3.196  0.6089  2.1891  4.6311
 3089SOL     OW10165   0.499   5.925   2.770 -0.0452 -0.8501 -0.2253
 3089SOL    HW110166   0.484   6.024   2.770 -3.4615 -1.1936  1.9633
 3089SOL    HW210167   0.457   5.885   2.689  1.5055 -0.5809 -1.2125
 3090SOL     OW10168   1.690   5.036   1.362  0.2622 -0.4356  0.3443
 3090SOL    HW110169   1.708   4.974   1.438 -0.2622  0.0505  0.8711
 3090SOL    HW210170   1.632   5.111   1.392  2.4024  1.4009  0.2157
 3091SOL     OW10171   4.458   4.535   4.569 -0.4708 -0.0985  0.5656
 3091SOL    HW110172   4.474   4.618   4.515  0.0086 -0.2550  0.4628
 3091SOL    HW210173   4.406   4.559   4.651 -0.0575  0.3582  0.7005
 3092SOL     OW10174   1.761   2.915   5.889  0.0514 -0.4362 -0.4421
 3092SOL    HW110175   1.748   2.893   5.986  1.8637  0.6142  0.0768
 3092SOL    HW210176   1.782   2.830   5.839 -0.9359 -0.9931  0.0560
 3093SOL     OW10177   2.323   5.966   3.993 -0.4211  0.1218  0.0156
 3093SOL    HW110178   2.310   5.903   3.917 -0.0243 -1.1418  0.9609
 3093SOL    HW210179   2.421   5.981   4.007 -0.4948  0.3788  0.2570
 3094SOL     OW10180   2.118   3.158   2.661  0.1935 -0.7194 -0.3983
 3094SOL    HW110181   2.097   3.203   2.574 -1.9342  0.4710  0.6344
 3094SOL    HW210182   2.167   3.073   2.644  1.8646  0.5838 -2.5959
 3095SOL     OW10183   1.059   3.214   5.913 -0.2553  0.1855  0.5693
 3095SOL    HW110184   1.137   3.228   5.975  0.3835  0.9758 -0.3924
 3095SOL    HW210185   1.072   3.129   5.862 -0.4265 -0.0944  0.9856
 3096SOL     OW10186   5.071   6.011   4.581 -0.0525  0.0058  0.0970
 3096SOL    HW110187   5.128   6.077   4.631  0.6952 -0.9724  0.5631
 3096SOL    HW210188   5.127   5.936   4.548 -0.9597 -0.6240 -0.0607
 3097SOL     OW10189   0.269   1.014   2.466  0.1159 -0.0207 -0.0579
 3097SOL    HW110190   0.192   1.061   2.423  0.5123  0.1538 -0.5989
 3097SOL    HW210191   0.323   0.968   2.396  1.1757  0.8538  0.1483
 3098SOL     OW10192   5.919   5.198   0.464  0.2797  0.1546  0.5181
 3098SOL    HW110193   5.966   5.234   0.384 -0.6860 -3.2170 -1.7691
 3098SOL    HW210194   5.822   5.221   0.460  0.1730 -0.2726  0.5327
 3099SOL     OW10195   4.990   3.641   6.049  0.3811  0.9168  0.3611
 3099SOL    HW110196   5.090   3.631   6.049  0.4110  0.6319 -1.9879
 3099SOL    HW210197   4.965   3.729   6.009 -0.3209  0.2679 -0.6645
 3100SOL     OW10198   6.905   4.373   5.737 -0.2199 -0.3160 -0.2650
 3100SOL    HW110199   6.964   4.358   5.658  1.6700  2.5332  0.4531
 3100SOL    HW210200   6.850   4.456   5.722 -1.9547 -1.3063  0.3047
 3101SOL     OW10201   5.651   5.340   4.037 -0.5728  0.3339 -0.2325
 3101SOL    HW110202   5.624   5.249   4.067 -0.3577  0.3975  0.1569
 3101SOL    HW210203   5.594   5.408   4.083  0.4351  0.4891  0.8455
 3102SOL     OW10204   5.788   1.933   0.107  0.0651  0.2324 -0.4708
 3102SOL    HW110205   5.833   1.894   0.187 -3.0388 -0.9258  0.8910
 3102SOL    HW210206   5.829   1.897   0.024  1.8527 -0.3901  0.6369
 3103SOL     OW10207   6.721   6.768   5.746  0.1291 -0.0474 -0.2233
 3103SOL    HW110208   6.657   6.757   5.670  2.4369  1.3835 -2.5638
 3103SOL    HW210209   6.687   6.839   5.808 -0.8593  0.2339 -1.0560
 3104SOL     OW10210   3.347   1.615   4.307 -0.2009 -0.3416  0.4889
 3104SOL    HW110211   3.295   1.661   4.234  0.2236 -1.1138 -0.3153
 3104SOL    HW210212   3.442   1.606   4.280  0.0653 -0.2138  1.3558
 3105SOL     OW10213   5.573   3.029   0.134 -0.0812  0.4827 -0.1251
 3105SOL    HW110214   5.644   3.089   0.096  1.0309 -1.0625 -0.5643
 3105SOL    HW210215   5.504   3.011   0.063  0.1652  0.3580 -0.3355
 3106SOL     OW10216   3.330   1.019   6.140 -0.0140  0.3106 -0.2942
 3106SOL    HW110217   3.315   0.969   6.055 -0.7984 -0.3724  0.2254
 3106SOL    HW210218   3.313   0.959   6.218  1.9712  0.5534  0.3789
 3107SOL     OW10219   3.413   2.065   5.541 -0.4022 -0.4998  0.3332
 3107SOL    HW110220   3.442   2.129   5.612 -1.5960  0.0208  0.3722
 3107SOL    HW210221   3.315   2.049   5.548 -0.5989 -0.2166 -1.3507
 3108SOL     OW10222   0.148   2.496   1.898 -0.6807  0.3907 -0.2171
 3108SOL    HW110223   0.190   2.578   1.936 -1.1803  0.0628  1.1163
 3108SOL    HW210224   0.140   2.505   1.799  1.6697  0.8369 -0.4369
 3109SOL     OW10225   3.008   4.555   6.917 -0.2558  0.1193 -0.0083
 3109SOL    HW110226   2.950   4.489   6.964 -1.7289  0.7933 -0.8205
 3109SOL    HW210227   3.054   4.612   6.985 -0.3509 -0.5761  0.6581
 3110SOL     OW10228   6.635   0.697   3.883  0.2622  0.0530 -0.2318
 3110SOL    HW110229   6.640   0.598   3.897  2.8286  0.2000  0.3671
 3110SOL    HW210230   6.623   0.742   3.972  2.6927  0.3710  0.0103
 3111SOL     OW10231   1.998   2.053   4.065 -0.1402  0.3080  0.4185
 3111SOL    HW110232   2.032   1.995   4.140 -1.9385 -0.5998  0.5844
 3111SOL    HW210233   1.918   2.103   4.097 -0.4410  0.5257 -0.6703
 3112SOL     OW10234   3.447   5.680   3.443 -0.2091 -0.0895 -0.2527
 3112SOL    HW110235   3.493   5.593   3.463 -0.9993  0.0195  2.5397
 3112SOL    HW210236   3.348   5.668   3.451 -0.4207  0.7284 -1.4358
 3113SOL     OW10237   2.123   5.915   6.698  0.2186 -0.4038  0.6429
 3113SOL    HW110238   2.067   5.892   6.777 -1.8222  4.0703  0.7700
 3113SOL    HW210239   2.192   5.983   6.724  1.4343 -0.9871 -0.8860
 3114SOL     OW10240   1.051   4.702   3.833  0.2927 -0.4213  0.0563
 3114SOL    HW110241   0.964   4.654   3.819  0.0767 -0.7268  2.1763
 3114SOL    HW210242   1.126   4.645   3.799 -0.1340 -1.3791  0.6786
 3115SOL     OW10243   1.099   2.216   0.022 -0.0807  0.3696 -0.3439
 3115SOL    HW110244   1.044   2.299   0.022  0.7161  0.9028 -0.0525
 3115SOL    HW210245   1.187   2.233  -0.023  0.8479  0.2207  1.3302
 3116SOL     OW10246   2.478   0.421   5.863  0.3281  0.7718  0.2174
 3116SOL    HW110247   2.487   0.518   5.842  1.6858  0.7626  0.6965
 3116SOL    HW210248   2.382   0.394   5.853 -0.0451  2.1223 -0.0529
 3117SOL     OW10249   1.083   2.425   4.295  0.2244 -0.1903 -0.0556
 3117SOL    HW110250   0.995   2.394   4.260 -1.0851  1.5334  1.4548
 3117SOL    HW210251   1.105   2.375   4.379  0.5727 -0.4469 -0.2973
 3118SOL     OW10252   4.293   0.225   3.633  0.3072 -0.4009  0.2628
 3118SOL    HW110253   4.334   0.251   3.721 -0.7333 -0.0422  0.6596
 3118SOL    HW210254   4.244   0.138   3.644  1.8771 -1.4306 -0.4933
 3119SOL     OW10255   5.733   5.598   3.852 -0.1952 -0.2379 -0.4156
 3119SOL    HW110256   5.828   5.569   3.843 -0.4827 -1.1635 -0.5136
 3119SOL    HW210257   5.673   5.519   3.843 -0.8996 -0.0187  1.7728
 3120SOL     OW10258   5.116   5.577   1.713 -0.4758 -0.2325 -0.1097
 3120SOL    HW110259   5.122   5.669   1.751  0.6501 -0.1104 -0.5407
 3120SOL    HW210260   5.042   5.573   1.646  0.3207  0.7559 -1.0861
 3121SOL     OW10261   6.131   3.956   4.106  0.3888  0.0391 -0.3700
 3121SOL    HW110262   6.111   3.868   4.063 -1.1819  0.1456  0.1045
 3121SOL    HW210263   6.092   4.029   4.051  0.6092  0.3642 -0.0988
 3122SOL     OW10264   5.285   0.096   4.638 -0.4575  0.7106 -0.0799
 3122SOL    HW110265   5.190   0.066   4.645  0.5837 -2.6147  1.9619
 3122SOL    HW210266   5.302   0.133   4.547 -3.0859 -0.9277 -1.3396
 3123SOL     OW10267   4.091   0.837   3.062  0.6542  0.1732  0.4634
 3123SOL    HW110268   4.051   0.927   3.045 -0.7873 -0.7515 -1.4911
 3123SOL    HW210269   4.161   0.818   2.993  0.7585 -0.3005  0.6957
 3124SOL     OW10270   4.746   5.123   5.678 -0.2099  0.5505 -0.2001
 3124SOL    HW110271   4.649   5.102   5.689 -0.0262  0.4199  1.3208
 3124SOL    HW210272   4.778   5.177   5.756  1.0192  0.3343 -0.5286
 3125SOL     OW10273   1.605   3.657   6.759 -0.3316 -0.3331  0.0026
 3125SOL    HW110274   1.647   3.570   6.784 -0.0055 -0.0684  0.3932
 3125SOL    HW210275   1.669   3.710   6.704 -0.6294 -0.4451 -0.4589
 3126SOL     OW10276   6.631   0.788   3.346  0.1891 -0.0149  0.3246
 3126SOL    HW110277   6.596   0.722   3.412  0.9696  1.0478  1.8553
 3126SOL    HW210278   6.662   0.739   3.264  0.4218 -1.5257  1.2638
 3127SOL     OW10279   2.707   3.197   6.807  0.0487 -0.2087 -0.1705
 3127SOL    HW110280   2.686   3.189   6.709 -0.0982  0.2453 -0.1791
 3127SOL    HW210281   2.681   3.288   6.839 -0.8245 -0.6816  0.5144
 3128SOL     OW10282   2.041   0.973   2.360 -0.8287  0.2890  0.1003
 3128SOL    HW110283   1.985   0.941   2.436 -0.9034 -0.3763 -0.2215
 3128SOL    HW210284   1.984   0.980   2.278 -0.3869 -0.6911 -0.3060
 3129SOL     OW10285   5.240   2.579   1.468  0.4798  0.0685  0.1854
 3129SOL    HW110286   5.164   2.516   1.464 -0.0865  0.6205  1.5500
 3129SOL    HW210287   5.320   2.533   1.507 -0.0071  0.2463  1.4224
 3130SOL     OW10288   0.437   2.966   0.009  0.0509  0.0742 -0.0976
 3130SOL    HW110289   0.459   2.940  -0.085  1.9067 -0.6210  0.4924
 3130SOL    HW210290   0.479   2.901   0.072 -1.8336  0.0560  1.2274
 3131SOL     OW10291   0.804   6.056   1.283  0.4919 -1.0739 -0.4288
 3131SOL    HW110292   0.749   6.131   1.320  1.9587 -0.4621  0.6234
 3131SOL    HW210293   0.784   6.045   1.186  1.4368  1.8690 -1.0799
 3132SOL     OW10294   1.581   1.000   5.329 -0.9941  0.0436  0.0409
 3132SOL    HW110295   1.679   0.988   5.342 -1.1008 -0.1516  0.7183
 3132SOL    HW210296   1.542   1.041   5.411 -1.4758  0.1333 -0.2325
 3133SOL     OW10297   6.698   5.276   6.473  0.1001 -0.5781  0.4162
 3133SOL    HW110298   6.626   5.222   6.515 -1.1846 -0.5113 -1.5498
 3133SOL    HW210299   6.731   5.230   6.390  3.0120 -1.0461  1.6850
 3134SOL     OW10300   4.560   3.481   1.246  0.3846  0.6897  0.1758
 3134SOL    HW110301   4.623   3.483   1.168  2.5764  0.4881  1.8589
 3134SOL    HW210302   4.510   3.394   1.246 -0.0291  0.8986 -1.2467
 3135SOL     OW10303   1.911   6.608   6.549 -0.2192 -0.4172 -0.0891
 3135SOL    HW110304   1.992   6.667   6.557 -1.2559  0.7673  2.7410
 3135SOL    HW210305   1.851   6.644   6.477 -0.7484  2.0075  1.4516
 3136SOL     OW10306   0.279   0.052   5.348 -0.0042  0.7471  0.0167
 3136SOL    HW110307   0.364   0.103   5.361  0.2211  0.6581 -1.0590
 3136SOL    HW210308   0.203   0.101   5.393  0.3608  1.5586 -0.2460
 3137SOL     OW10309   3.637   2.145   6.156 -0.0322  0.2954 -0.1379
 3137SOL    HW110310   3.714   2.165   6.096 -0.0315  0.3491 -0.1188
 3137SOL    HW210311   3.595   2.230   6.186 -0.8806  0.2453 -1.1434
 3138SOL     OW10312   4.833   2.927   2.559  0.6037 -0.1811  0.6382
 3138SOL    HW110313   4.841   3.022   2.587 -2.4261  0.2124  0.5058
 3138SOL    HW210314   4.837   2.920   2.460 -1.4888  0.2006  0.4791
 3139SOL     OW10315   0.265   0.570   0.261  0.3402  0.2815 -0.0469
 3139SOL    HW110316   0.310   0.615   0.184  3.3565  1.1139  2.0559
 3139SOL    HW210317   0.234   0.479   0.232 -0.1622  1.1760 -2.6252
 3140SOL     OW10318   4.280   3.954   6.155 -0.2912  0.0539 -0.8803
 3140SOL    HW110319   4.292   4.038   6.101  0.4364  1.4721  1.3476
 3140SOL    HW210320   4.186   3.949   6.188  0.3166  1.6310  1.3634
 3141SOL     OW10321   4.370   5.646   5.882  0.0475  0.1683  0.2716
 3141SOL    HW110322   4.389   5.580   5.810  0.1893 -0.1816  0.6270
 3141SOL    HW210323   4.432   5.724   5.873  0.2931 -0.0325  0.2218
 3142SOL     OW10324   2.028   4.114   2.345 -0.1498 -0.3209  0.1282
 3142SOL    HW110325   1.980   4.119   2.257 -0.0658 -1.0899  0.0382
 3142SOL    HW210326   1.963   4.133   2.419 -0.1640  0.6039 -0.0996
 3143SOL     OW10327   5.471   3.136   3.202 -0.5079 -0.2458  0.5384
 3143SOL    HW110328   5.498   3.080   3.280 -0.7002 -2.3524 -0.8200
 3143SOL    HW210329   5.486   3.084   3.117 -2.7176  0.9438 -0.6695
 3144SOL     OW10330   1.998   1.948   0.164 -0.0800 -0.2927 -0.4178
 3144SOL    HW110331   1.915   1.896   0.187  0.5779 -1.2355 -0.1072
 3144SOL    HW210332   2.028   1.924   0.072  0.3069 -0.5808 -0.2200
 3145SOL     OW10333   5.858   3.370   6.607 -0.0683 -0.4410  0.6671
 3145SOL    HW110334   5.806   3.313   6.670 -1.3283  0.6241  0.6330
 3145SOL    HW210335   5.896   3.449   6.656 -1.0449  0.3867  0.1246
 3146SOL     OW10336   2.916   0.106   4.274 -0.3320  0.0901  0.1024
 3146SOL    HW110337   2.922   0.007   4.259  0.4224  0.1843 -0.2685
 3146SOL    HW210338   2.962   0.154   4.199 -1.3664  0.7490 -0.1251
 3147SOL     OW10339   5.943   7.013   5.177 -0.3638  0.1546  0.5938
 3147SOL    HW110340   5.917   7.082   5.109 -2.0504  0.0437  1.0904
 3147SOL    HW210341   5.978   7.060   5.259  1.2112  0.2990 -0.1139
 3148SOL     OW10342   2.931   5.042   0.400 -0.1338  0.0587 -0.3363
 3148SOL    HW110343   2.846   5.013   0.444  0.1333  1.0273  0.8683
 3148SOL    HW210344   3.008   5.025   0.461  0.4250  0.1407 -1.0063
 3149SOL     OW10345   4.747   0.223   0.639 -0.0909 -0.0693  0.9391
 3149SOL    HW110346   4.689   0.191   0.564 -0.3942 -1.7605  1.8497
 3149SOL    HW210347   4.739   0.161   0.717  1.6419  0.6157  1.7222
 3150SOL     OW10348   3.084   1.401   6.186  0.1646  0.1436 -0.3120
 3150SOL    HW110349   3.085   1.386   6.088  0.4923  1.0260 -0.4446
 3150SOL    HW210350   3.108   1.316   6.233  1.2680  0.0516 -1.0326
 3151SOL     OW10351   1.119   1.658   4.532 -0.1290  0.8667  0.4023
 3151SOL    HW110352   1.055   1.733   4.546 -1.3966  0.2314 -1.5610
 3151SOL    HW210353   1.194   1.689   4.473 -2.0993  0.0336 -2.8132
 3152SOL     OW10354   4.313   6.100   6.450  0.0040  0.3684  0.2782
 3152SOL    HW110355   4.313   6.042   6.532 -0.1714  0.1024  0.0942
 3152SOL    HW210356   4.219   6.122   6.425  0.0295  0.0264 -0.1413
 3153SOL     OW10357   0.739   5.576   3.421 -0.1763  0.9798  0.2249
 3153SOL    HW110358   0.787   5.641   3.362  0.5865 -0.0046 -0.2548
 3153SOL    HW210359   0.805   5.520   3.470 -0.8241  0.9680  1.1204
 3154SOL     OW10360   2.425   4.784   4.532 -0.1509 -0.1250 -0.3417
 3154SOL    HW110361   2.471   4.747   4.612 -0.4138 -0.4288 -0.3288
 3154SOL    HW210362   2.480   4.858   4.493  0.4006 -0.5476 -0.3844
 3155SOL     OW10363   1.626   4.423   0.398  0.5247  0.3527  0.0123
 3155SOL    HW110364   1.548   4.434   0.459  1.1527  3.5435  0.3969
 3155SOL    HW210365   1.684   4.349   0.431 -1.4018 -0.9446  0.6852
 3156SOL     OW10366   2.525   4.365   6.478  0.0091 -0.7201 -0.1167
 3156SOL    HW110367   2.545   4.417   6.561 -1.9172 -2.4845  1.5504
 3156SOL    HW210368   2.426   4.363   6.463  0.0119 -3.6437 -0.2554
 3157SOL     OW10369   2.348   6.885   0.098 -0.0389  0.4919  0.6823
 3157SOL    HW110370   2.266   6.928   0.059  0.2812  1.4018  0.9965
 3157SOL    HW210371   2.354   6.907   0.196  0.7848  0.7638  0.5792
 3158SOL     OW10372   1.057   3.150   3.327 -0.1721 -0.3838 -0.0293
 3158SOL    HW110373   1.067   3.119   3.422 -0.4848  0.4569  0.2841
 3158SOL    HW210374   0.963   3.136   3.298 -0.0788 -0.6296 -0.2177
 3159SOL     OW10375   5.601   4.916   0.376  0.2993  0.2821  0.4569
 3159SOL    HW110376   5.680   4.865   0.408  1.0290  1.0814 -0.0020
 3159SOL    HW210377   5.623   5.014   0.375 -0.8738  0.5639  0.8049
 3160SOL     OW10378   4.435   0.352   1.146  0.1471  0.0420  0.7315
 3160SOL    HW110379   4.486   0.283   1.196  2.1748  1.1166  0.2490
 3160SOL    HW210380   4.446   0.441   1.190 -2.7595  0.0830  1.5895
 3161SOL     OW10381   5.137   6.275   4.772 -0.5282 -0.3098 -0.4259
 3161SOL    HW110382   5.210   6.293   4.838 -0.2023 -2.2232 -0.2227
 3161SOL    HW210383   5.133   6.351   4.707  0.3658  0.7368  0.6732
 3162SOL     OW10384   6.574   0.052   0.665 -0.3350 -0.7126 -0.2286
 3162SOL    HW110385   6.648   0.101   0.711  0.8108 -3.2193  0.7213
 3162SOL    HW210386   6.508   0.019   0.732 -0.8065 -0.9426 -0.7940
 3163SOL     OW10387   0.882   6.666   1.692  0.1603 -0.2127  0.2069
 3163SOL    HW110388   0.861   6.594   1.626 -0.6212 -1.3978  1.6789
 3163SOL    HW210389   0.980   6.668   1.709  0.4623  0.6042 -1.5061
 3164SOL     OW10390   2.829   6.298   4.524  0.2900  0.6476  0.3309
 3164SOL    HW110391   2.869   6.349   4.601  1.3428  1.9510 -1.0300
 3164SOL    HW210392   2.729   6.296   4.534  0.3259  1.8107  1.1289
 3165SOL     OW10393   4.562   5.206   2.353  0.2739  0.5061  0.2752
 3165SOL    HW110394   4.581   5.293   2.307 -2.7286  1.2316  0.2379
 3165SOL    HW210395   4.512   5.223   2.437  0.6201 -1.1517  0.8517
 3166SOL     OW10396   2.301   0.033   2.482 -0.3607  0.3824  0.5137
 3166SOL    HW110397   2.396   0.034   2.450 -0.3035 -0.7996  0.5890
 3166SOL    HW210398   2.300   0.051   2.581 -0.1785  0.0673  0.5759
 3167SOL     OW10399   3.508   5.470   4.709 -0.7794  0.1242  0.2823
 3167SOL    HW110400   3.559   5.543   4.755 -0.1675 -0.2109  0.1439
 3167SOL    HW210401   3.542   5.381   4.740 -0.4524 -0.1110 -0.7091
 3168SOL     OW10402   0.249   6.475   4.156  0.3612  0.0523 -0.2628
 3168SOL    HW110403   0.247   6.497   4.058  0.7387  0.0579 -0.2707
 3168SOL    HW210404   0.166   6.508   4.199  0.1584 -0.0159 -0.5992
 3169SOL     OW10405   1.926   1.333   5.777 -0.5548  0.0774 -0.4438
 3169SOL    HW110406   1.996   1.404   5.767 -1.3297  0.9250 -0.0361
 3169SOL    HW210407   1.836   1.373   5.760 -1.0424 -0.6951  0.2547
 3170SOL     OW10408   5.446   2.109   5.431 -0.1802  0.6989  0.9940
 3170SOL    HW110409   5.460   2.196   5.385 -0.5767 -0.0794 -0.6422
 3170SOL    HW210410   5.444   2.035   5.364 -2.1877 -0.3215  2.0896
 3171SOL     OW10411   3.181   4.017   3.309 -0.1960  0.3779 -0.2160
 3171SOL    HW110412   3.151   4.107   3.342  1.7231  1.7536 -1.9758
 3171SOL    HW210413   3.268   3.993   3.354  0.1987  0.2577 -1.0229
 3172SOL     OW10414   0.575   1.158   2.949 -0.2489  0.5514 -0.4710
 3172SOL    HW110415   0.477   1.173   2.967  0.0063  0.3098  1.2173
 3172SOL    HW210416   0.586   1.123   2.855 -1.9014 -0.6722 -0.2573
 3173SOL     OW10417   0.910   0.932   5.462  0.2301 -0.7349 -0.4751
 3173SOL    HW110418   0.906   0.969   5.370 -0.2548 -0.2368 -0.2592
 3173SOL    HW210419   0.865   0.995   5.526 -0.6895 -1.7299 -0.1167
 3174SOL     OW10420   4.502   1.502   5.575  0.4605 -0.0229 -0.0239
 3174SOL    HW110421   4.597   1.499   5.606 -0.0157 -1.2120  1.4726
 3174SOL    HW210422   4.494   1.561   5.495  2.3134  0.7522  0.3203
 3175SOL     OW10423   4.931   2.058   5.896 -0.2921  0.0734 -0.0569
 3175SOL    HW110424   5.026   2.053   5.925  0.4662  1.3438 -2.1401
 3175SOL    HW210425   4.874   2.006   5.960  1.9075 -1.6521  0.6261
 3176SOL     OW10426   0.500   5.498   5.358  0.0543  0.0747 -0.4842
 3176SOL    HW110427   0.421   5.472   5.304  0.2351  0.3987 -0.9011
 3176SOL    HW210428   0.506   5.438   5.438  1.0748 -1.9665 -1.9852
 3177SOL     OW10429   6.626   1.468   0.613 -0.2322 -0.7337  0.1271
 3177SOL    HW110430   6.528   1.446   0.610 -0.7985  1.6553 -0.3539
 3177SOL    HW210431   6.658   1.492   0.522 -0.6245  3.8486  0.9569
 3178SOL     OW10432   6.836   3.941   5.065 -0.4081 -0.1561  0.5028
 3178SOL    HW110433   6.855   3.853   5.107  0.8602 -0.8749 -1.4497
 3178SOL    HW210434   6.738   3.947   5.044 -0.6151 -0.8191  1.2278
 3179SOL     OW10435   4.348   1.210   3.722 -0.4673 -0.5533 -0.0116
 3179SOL    HW110436   4.356   1.210   3.822 -0.8246 -0.6703  0.0171
 3179SOL    HW210437   4.423   1.157   3.683 -0.6605 -1.0082  0.2233
 3180SOL     OW10438   0.949   3.160   2.837  0.6431 -0.6692 -0.2900
 3180SOL    HW110439   1.024   3.198   2.782 -0.2441  0.2254 -0.9313
 3180SOL    HW210440   0.944   3.061   2.824  0.2464 -0.4402 -2.1427
 3181SOL     OW10441   0.653   3.599   3.501  0.6292 -0.0441 -0.7788
 3181SOL    HW110442   0.641   3.611   3.599  1.9834 -0.6056 -0.5177
 3181SOL    HW210443   0.597   3.666   3.452  0.2563  0.5142  0.3779
 3182SOL     OW10444   2.732   4.674   0.503  0.1795  0.3903 -0.3040
 3182SOL    HW110445   2.675   4.627   0.435  1.3034 -0.1150 -0.9284
 3182SOL    HW210446   2.826   4.678   0.470  1.3131 -2.0524  2.2187
 3183SOL     OW10447   1.675   3.638   6.160  0.1444 -0.2822 -0.2732
 3183SOL    HW110448   1.660   3.701   6.084 -0.4289 -1.8718 -1.5224
 3183SOL    HW210449   1.747   3.573   6.136 -0.4168 -1.1405  0.2996
 3184SOL     OW10450   3.546   4.973   1.773 -0.0915  0.5314  0.6028
 3184SOL    HW110451   3.596   4.892   1.804  0.0831  0.9690  1.5005
 3184SOL    HW210452   3.562   5.048   1.836 -0.6233  1.1394  0.0292
 3185SOL     OW10453   3.110   1.147   2.191  0.4599  0.6706 -0.1583
 3185SOL    HW110454   3.072   1.112   2.105  0.1826 -0.7973  0.5328
 3185SOL    HW210455   3.183   1.086   2.222 -0.4535  0.3399  1.4075
 3186SOL     OW10456   2.238   1.801   2.806  0.5456 -0.0803 -0.2888
 3186SOL    HW110457   2.179   1.851   2.742 -0.1202  1.0286  1.1430
 3186SOL    HW210458   2.334   1.821   2.784  0.2985  1.5106 -0.0280
 3187SOL     OW10459   6.590   1.433   3.035  0.1289  0.5162  0.0472
 3187SOL    HW110460   6.624   1.527   3.036  1.3635  0.1769 -1.9617
 3187SOL    HW210461   6.644   1.377   3.099  1.7426  0.5303 -1.2219
 3188SOL     OW10462   6.129   6.748   1.819  0.1697  0.0193 -0.4928
 3188SOL    HW110463   6.178   6.685   1.759 -0.0285 -0.3365 -0.2874
 3188SOL    HW210464   6.138   6.841   1.785  1.1162 -0.0198 -0.3682
 3189SOL     OW10465   4.971   5.381   4.245 -0.4390 -0.1696 -0.3689
 3189SOL    HW110466   4.947   5.461   4.190  0.8987  0.1992 -0.4382
 3189SOL    HW210467   5.033   5.322   4.193  0.9890  0.2729  0.7860
 3190SOL     OW10468   3.842   3.072   3.396 -0.0663 -0.3576 -0.1342
 3190SOL    HW110469   3.872   3.053   3.489  0.7078  0.9833 -0.0945
 3190SOL    HW210470   3.800   2.990   3.358 -1.8575 -0.4956  1.9314
 3191SOL     OW10471   5.341   0.624   0.197  0.3734 -0.0568 -0.1042
 3191SOL    HW110472   5.356   0.723   0.194 -0.5373  0.0601 -2.1063
 3191SOL    HW210473   5.319   0.596   0.291  0.9145  1.5742  0.5410
 3192SOL     OW10474   1.076   3.330   5.260  0.2132 -0.6937 -0.0943
 3192SOL    HW110475   1.080   3.330   5.160  1.0104 -0.1764 -0.0646
 3192SOL    HW210476   1.125   3.409   5.296 -2.2778  0.6156  0.6343
 3193SOL     OW10477   5.799   5.339   1.779  0.0477  0.1967 -0.0783
 3193SOL    HW110478   5.793   5.350   1.680  0.2715  0.4752 -0.0598
 3193SOL    HW210479   5.865   5.403   1.817 -0.1971  0.2443  0.2791
 3194SOL     OW10480   4.131   0.273   5.823 -0.5545 -0.1547  0.7929
 3194SOL    HW110481   4.142   0.302   5.917 -1.9551 -0.2233  1.0008
 3194SOL    HW210482   4.138   0.352   5.762  0.0156 -0.0600  0.9800
 3195SOL     OW10483   2.139   3.362   4.327 -0.2990 -0.5713 -0.3843
 3195SOL    HW110484   2.109   3.306   4.250 -2.1776  0.3373 -0.3849
 3195SOL    HW210485   2.141   3.306   4.410 -2.2061 -0.6985 -0.3691
 3196SOL     OW10486   2.152   1.689   1.068 -0.1371 -1.0587  0.7558
 3196SOL    HW110487   2.143   1.655   0.974 -0.2205 -0.4829  0.5512
 3196SOL    HW210488   2.246   1.720   1.083 -0.4883  0.2488  0.3722
 3197SOL     OW10489   4.851   1.683   6.636 -0.4320 -0.2216  0.3964
 3197SOL    HW110490   4.773   1.745   6.643 -0.9905 -0.7687 -0.7713
 3197SOL    HW210491   4.933   1.734   6.611 -0.5090  0.2796  1.1295
 3198SOL     OW10492   4.290   0.805   4.066 -0.3020 -0.1676  0.4249
 3198SOL    HW110493   4.271   0.818   4.164  0.1948  2.8302  0.2261
 3198SOL    HW210494   4.218   0.849   4.012  0.1804 -0.5346 -0.5350
 3199SOL     OW10495   2.098   2.176   5.325  0.1615  0.1845  0.1235
 3199SOL    HW110496   2.014   2.156   5.375 -0.0038 -2.5844 -1.0457
 3199SOL    HW210497   2.173   2.189   5.390 -0.4531 -1.1852  1.1744
 3200SOL     OW10498   6.447   6.266   4.557  0.3588 -0.6261  0.2952
 3200SOL    HW110499   6.499   6.208   4.619  0.3705 -0.8823  0.0469
 3200SOL    HW210500   6.448   6.360   4.591  0.4474 -0.7459  0.6289
 3201SOL     OW10501   6.277   6.504   3.109  0.3107 -0.2153  0.4565
 3201SOL    HW110502   6.216   6.578   3.081  0.7190 -0.3699 -0.9261
 3201SOL    HW210503   6.224   6.422   3.127  0.1103 -0.5809 -1.5082
 3202SOL     OW10504   2.660   0.262   4.233 -0.2862  0.1705 -0.1357
 3202SOL    HW110505   2.740   0.202   4.222  0.3094  0.9840 -0.2819
 3202SOL    HW210506   2.583   0.208   4.268  0.8204 -0.3027  1.7114
 3203SOL     OW10507   3.547   2.937   4.151  0.3176  0.1477 -0.3144
 3203SOL    HW110508   3.545   3.035   4.171 -0.3768 -0.1217  1.0880
 3203SOL    HW210509   3.464   2.912   4.101  0.5852  0.2931 -0.8430
 3204SOL     OW10510   4.888   2.338   4.869 -0.1190 -0.1353  0.4726
 3204SOL    HW110511   4.842   2.402   4.931  0.1819  0.2260  0.3261
 3204SOL    HW210512   4.825   2.313   4.795  0.3255  1.4172 -0.4918
 3205SOL     OW10513   3.390   3.146   1.830 -0.1168 -0.4682  0.7868
 3205SOL    HW110514   3.413   3.049   1.823  0.1103 -0.3133 -1.0012
 3205SOL    HW210515   3.305   3.157   1.882 -0.4674 -1.6679  0.4808
 3206SOL     OW10516   2.622   5.706   2.370  0.2878  0.6099  0.2083
 3206SOL    HW110517   2.550   5.751   2.423 -0.1010  1.5466 -1.0402
 3206SOL    HW210518   2.610   5.729   2.273  0.9525 -1.0588 -0.2932
 3207SOL     OW10519   6.819   3.339   5.264 -1.0375 -0.3053 -0.0859
 3207SOL    HW110520   6.916   3.337   5.289 -0.5441  0.5035 -1.8060
 3207SOL    HW210521   6.764   3.333   5.347  0.4655 -1.0612  0.9126
 3208SOL     OW10522   3.325   3.221   3.265 -0.2122  0.1462 -0.4513
 3208SOL    HW110523   3.406   3.278   3.280  0.4362 -0.7303 -0.5344
 3208SOL    HW210524   3.278   3.208   3.353  1.3329 -1.6491  0.1903
 3209SOL     OW10525   5.712   3.844   6.889 -0.8013 -0.3827  0.1544
 3209SOL    HW110526   5.739   3.748   6.897 -1.6895 -0.7233 -0.8232
 3209SOL    HW210527   5.661   3.871   6.971 -0.9981 -0.8964  0.2058
 3210SOL     OW10528   4.294   1.648   6.146  0.3738 -0.7066 -0.1070
 3210SOL    HW110529   4.253   1.669   6.057  0.4496  1.0493  0.2412
 3210SOL    HW210530   4.388   1.684   6.149  0.0138  0.1928  1.0287
 3211SOL     OW10531   5.580   0.260   0.220 -0.9768 -0.1696 -0.1415
 3211SOL    HW110532   5.592   0.161   0.212 -0.1517 -0.3743  2.5743
 3211SOL    HW210533   5.486   0.285   0.195 -0.9497 -1.4678 -1.6901
 3212SOL     OW10534   4.740   3.513   1.038  0.0239 -0.2427  0.0597
 3212SOL    HW110535   4.774   3.496   0.946 -0.0358  0.9951 -0.2099
 3212SOL    HW210536   4.811   3.489   1.105  0.6124  0.2115 -0.3874
 3213SOL     OW10537   1.338   4.033   3.049  0.3291 -0.1692  0.1788
 3213SOL    HW110538   1.243   4.022   3.020  0.2214  0.5810  0.2138
 3213SOL    HW210539   1.393   3.958   3.013 -0.3338 -0.7888  0.4395
 3214SOL     OW10540   1.236   4.570   6.247 -0.5029 -0.0619  0.4469
 3214SOL    HW110541   1.245   4.646   6.312  1.0427  0.4874 -0.3532
 3214SOL    HW210542   1.183   4.601   6.167  0.0573  0.1772  0.1582
 3215SOL     OW10543   4.676   4.117   5.560  0.2734 -0.2850 -0.4580
 3215SOL    HW110544   4.667   4.146   5.655 -0.4204  0.1876 -0.6585
 3215SOL    HW210545   4.657   4.019   5.554 -1.5044  0.0097 -0.3434
 3216SOL     OW10546   6.364   4.616   2.282  0.8133  0.1928 -0.3702
 3216SOL    HW110547   6.455   4.650   2.261  0.1675  0.7302 -2.5441
 3216SOL    HW210548   6.301   4.639   2.207 -1.1486 -0.0432  1.1065
 3217SOL     OW10549   1.352   1.993   4.113 -0.2928  0.4809 -0.2530
 3217SOL    HW110550   1.385   1.993   4.018  1.0859  0.0446  0.1958
 3217SOL    HW210551   1.366   2.083   4.153  0.4418  0.2810 -0.0458
 3218SOL     OW10552   4.568   4.984   2.153 -0.3228 -0.5759 -0.0029
 3218SOL    HW110553   4.538   5.065   2.203 -0.2391 -0.0278 -0.8082
 3218SOL    HW210554   4.613   4.921   2.216  0.3165  0.3593  0.5123
 3219SOL     OW10555   6.438   4.402   0.462 -0.0197  0.0096 -0.0290
 3219SOL    HW110556   6.351   4.376   0.419  0.6833 -2.2103 -0.2013
 3219SOL    HW210557   6.468   4.329   0.524  0.8990  1.4946  1.3604
 3220SOL     OW10558   2.906   0.669   6.392  0.5862  0.0626 -0.1895
 3220SOL    HW110559   2.815   0.630   6.380  1.0482 -1.5077  1.0046
 3220SOL    HW210560   2.928   0.674   6.490  2.0178 -0.2066 -0.4665
 3221SOL     OW10561   4.546   0.210   2.567 -0.3493  0.3276 -0.5515
 3221SOL    HW110562   4.639   0.194   2.535 -0.3638 -0.4385 -0.2461
 3221SOL    HW210563   4.519   0.304   2.548  0.9554  0.9460  0.5304
 3222SOL     OW10564   1.819   0.974   6.235  0.1204  0.2121 -0.3103
 3222SOL    HW110565   1.918   0.981   6.252  0.2508 -0.2844 -0.8500
 3222SOL    HW210566   1.786   1.061   6.198 -0.0971  1.1938  2.0173
 3223SOL     OW10567   0.906   2.781   0.061 -0.3067 -0.0264  0.5530
 3223SOL    HW110568   0.989   2.726   0.072 -0.0228  0.1427 -0.6055
 3223SOL    HW210569   0.931   2.877   0.049 -0.5229 -0.1918 -1.5968
 3224SOL     OW10570   5.450   2.574   2.652  0.2199  0.7374  0.1834
 3224SOL    HW110571   5.526   2.596   2.713  0.2216  1.2265  0.0084
 3224SOL    HW210572   5.377   2.641   2.664  0.1165  0.6934 -0.1753
 3225SOL     OW10573   6.634   0.424   4.045  0.7662 -0.4524  0.0640
 3225SOL    HW110574   6.542   0.386   4.039 -0.2380  1.8424 -0.0761
 3225SOL    HW210575   6.698   0.365   3.996 -0.5290 -2.3265  0.5359
 3226SOL     OW10576   4.023   3.588   3.759  0.1733 -0.2141 -0.4193
 3226SOL    HW110577   4.025   3.573   3.858  1.3655  2.1982 -0.0183
 3226SOL    HW210578   4.023   3.499   3.712  4.1199 -1.5743  1.7065
 3227SOL     OW10579   0.500   4.392   3.531 -0.0554 -0.0053  0.0235
 3227SOL    HW110580   0.413   4.419   3.572  0.6960 -0.5152  2.0498
 3227SOL    HW210581   0.556   4.473   3.513  0.2647  0.1479  1.6002
 3228SOL     OW10582   3.341   4.116   1.497 -0.6333 -0.1061  0.4549
 3228SOL    HW110583   3.305   4.186   1.436 -1.3742 -0.5204  0.4072
 3228SOL    HW210584   3.390   4.047   1.445  0.7772  0.7756  0.5809
 3229SOL     OW10585   2.454   4.034   5.531  0.8411  0.2724  0.3032
 3229SOL    HW110586   2.405   4.030   5.443  0.5343 -0.1076  0.4887
 3229SOL    HW210587   2.530   3.969   5.530  0.0982 -0.6341  0.7558
 3230SOL     OW10588   4.402   1.298   2.971  0.2133 -0.3610  0.5045
 3230SOL    HW110589   4.468   1.318   3.043  0.0038  0.7232  0.4131
 3230SOL    HW210590   4.313   1.278   3.012  0.1598 -0.0184  0.5542
 3231SOL     OW10591   0.106   0.373   5.714  0.5138 -0.0146 -0.0245
 3231SOL    HW110592   0.111   0.472   5.703 -0.9843 -0.0229 -1.0615
 3231SOL    HW210593   0.029   0.350   5.773  1.2175 -0.5540  0.7018
 3232SOL     OW10594   0.697   5.028   4.299 -0.2272  0.0575 -0.5953
 3232SOL    HW110595   0.692   5.126   4.279 -0.4570  0.0128 -0.7473
 3232SOL    HW210596   0.785   4.992   4.267 -0.4425  0.0617 -1.2061
 3233SOL     OW10597   2.303   0.861   5.809 -0.0672  0.0028  0.1921
 3233SOL    HW110598   2.256   0.792   5.753 -1.2525  0.3287  0.7439
 3233SOL    HW210599   2.252   0.947   5.806  0.0111  0.1149  1.5175
 3234SOL     OW10600   0.815   3.445   6.981  0.1179  0.1903  0.0526
 3234SOL    HW110601   0.823   3.506   7.060  2.1098 -0.7546  0.6282
 3234SOL    HW210602   0.804   3.351   7.012  1.1003 -0.2186 -0.7907
 3235SOL     OW10603   5.787   5.930   2.667 -0.0257 -0.2329  0.0411
 3235SOL    HW110604   5.755   6.024   2.679  2.0910  0.6675 -0.9419
 3235SOL    HW210605   5.876   5.919   2.712 -0.0989 -1.7008 -0.1185
 3236SOL     OW10606   0.297   5.923   6.812  0.2304  0.2187 -0.4337
 3236SOL    HW110607   0.331   5.872   6.890 -1.8966 -1.5391 -0.5726
 3236SOL    HW210608   0.360   5.912   6.735 -1.0317 -4.0386 -1.1098
 3237SOL     OW10609   1.529   2.774   6.926 -0.2325  0.2026 -0.4474
 3237SOL    HW110610   1.625   2.766   6.899 -0.4080  0.5626 -1.2252
 3237SOL    HW210611   1.471   2.771   6.844 -1.0628 -2.3599  0.1642
 3238SOL     OW10612   3.353   6.787   2.117  0.2748 -0.0981 -0.2438
 3238SOL    HW110613   3.444   6.823   2.099  2.3229 -4.5303 -0.0501
 3238SOL    HW210614   3.299   6.788   2.034  0.4347  2.4733 -0.3944
 3239SOL     OW10615   0.756   2.369   0.310  0.0905  0.1020 -0.6023
 3239SOL    HW110616   0.684   2.426   0.271 -0.6237 -1.2764 -1.3877
 3239SOL    HW210617   0.739   2.356   0.408 -0.3160  0.3844 -0.6340
 3240SOL     OW10618   6.107   0.724   6.984 -0.0046  0.0879 -0.5499
 3240SOL    HW110619   6.048   0.745   7.063  0.3912  0.8215 -0.4369
 3240SOL    HW210620   6.152   0.636   6.999  0.7383  0.6087  0.4748
 3241SOL     OW10621   0.987   1.434   1.861  0.3442  0.0445  0.0992
 3241SOL    HW110622   0.960   1.480   1.776 -1.6319 -0.4607  0.3894
 3241SOL    HW210623   1.074   1.471   1.893  0.1910  1.5923 -1.1381
 3242SOL     OW10624   2.643   6.107   4.038 -0.0084  0.4903 -0.3222
 3242SOL    HW110625   2.630   6.163   3.957  2.3085  0.1463 -0.9979
 3242SOL    HW210626   2.710   6.035   4.019  0.6407  0.4309  1.9066
 3243SOL     OW10627   2.437   1.727   3.417  0.3802  0.6825 -0.2022
 3243SOL    HW110628   2.380   1.748   3.497 -0.1929 -1.1721 -0.0496
 3243SOL    HW210629   2.533   1.737   3.441  0.2447 -0.5363  0.9861
 3244SOL     OW10630   6.826   5.272   4.671 -0.3505 -0.4340 -0.0576
 3244SOL    HW110631   6.794   5.218   4.593  1.2588 -1.1348 -0.2840
 3244SOL    HW210632   6.815   5.370   4.651  0.6660 -0.5839 -1.4802
 3245SOL     OW10633   4.924   1.534   4.171  0.2232  0.0883 -0.6445
 3245SOL    HW110634   4.924   1.572   4.078  3.7559  0.8919 -0.4316
 3245SOL    HW210635   5.017   1.508   4.198 -0.6856 -0.2976  2.6317
 3246SOL     OW10636   2.029   4.100   1.677 -0.6345 -0.1040 -0.0018
 3246SOL    HW110637   1.961   4.171   1.693 -1.6051 -1.1697  0.8301
 3246SOL    HW210638   2.053   4.057   1.764  1.7866  0.8017 -0.1434
 3247SOL     OW10639   0.237   2.019   2.749  0.0462  0.3804  0.2034
 3247SOL    HW110640   0.236   1.988   2.844 -0.2534 -0.0034  0.0766
 3247SOL    HW210641   0.249   2.118   2.746  2.3589  0.1703  0.5939
 3248SOL     OW10642   3.767   1.637   5.180  0.1156  0.4034  0.2376
 3248SOL    HW110643   3.744   1.613   5.274 -0.7718  0.1652 -0.0272
 3248SOL    HW210644   3.735   1.565   5.118  2.0508 -0.1967 -0.1384
 3249SOL     OW10645   6.577   1.531   1.367 -0.0124  0.5988 -0.5121
 3249SOL    HW110646   6.676   1.536   1.355 -0.0329  1.0265 -0.5163
 3249SOL    HW210647   6.536   1.494   1.283  0.1311  0.5423 -0.5582
 3250SOL     OW10648   4.502   6.155   0.203  0.0444 -0.3641  0.3616
 3250SOL    HW110649   4.462   6.071   0.167 -0.5294  1.3661 -3.6897
 3250SOL    HW210650   4.461   6.234   0.157  2.2477  2.0348  2.1595
 3251SOL     OW10651   2.528   6.117   6.517  0.3582 -0.2596 -0.2316
 3251SOL    HW110652   2.599   6.179   6.547  1.0503 -0.8338 -0.6470
 3251SOL    HW210653   2.501   6.139   6.423 -1.9561  1.6736  0.7668
 3252SOL     OW10654   6.941   5.247   5.096  0.2487  0.0356  0.0916
 3252SOL    HW110655   6.857   5.295   5.124  0.3336  0.3545 -0.2041
 3252SOL    HW210656   7.001   5.310   5.048  1.0199  0.0191  1.0075
 3253SOL     OW10657   1.776   2.229   4.617  0.3466  0.0209  0.6463
 3253SOL    HW110658   1.828   2.260   4.537 -0.0389 -0.8851  0.0297
 3253SOL    HW210659   1.808   2.137   4.643 -0.9902 -0.5935  0.1953
 3254SOL     OW10660   4.960   1.242   4.830  0.3553  0.1427 -0.1641
 3254SOL    HW110661   5.022   1.310   4.869  0.0300  0.7015 -0.6060
 3254SOL    HW210662   4.925   1.276   4.742  0.3491 -0.6849 -0.4853
 3255SOL     OW10663   2.045   5.952   6.158 -0.1863 -0.8779 -0.5327
 3255SOL    HW110664   1.986   6.026   6.127 -1.5566 -1.1949  1.1458
 3255SOL    HW210665   2.137   5.986   6.173 -0.6080  0.2895 -0.5496
 3256SOL     OW10666   6.624   4.181   5.992 -0.0634  0.1512 -0.2062
 3256SOL    HW110667   6.693   4.167   5.921 -0.2518 -1.1867 -0.1384
 3256SOL    HW210668   6.622   4.278   6.018  3.3811 -0.0988  1.4431
 3257SOL     OW10669   5.627   0.514   5.468 -0.4717  0.9287 -0.4594
 3257SOL    HW110670   5.604   0.539   5.374 -0.6310  3.0425  0.0950
 3257SOL    HW210671   5.708   0.455   5.468 -1.1471 -0.0520 -1.9545
 3258SOL     OW10672   6.369   1.870   6.841 -0.0307 -0.2246  0.3503
 3258SOL    HW110673   6.367   1.970   6.848  0.6764 -0.1290 -0.6142
 3258SOL    HW210674   6.318   1.841   6.760  3.7638 -0.2637 -2.2616
 3259SOL     OW10675   5.809   4.827   0.738  0.4948  0.2411  0.0951
 3259SOL    HW110676   5.765   4.759   0.680 -0.2385  2.0679 -1.6020
 3259SOL    HW210677   5.886   4.869   0.688  1.5473  0.0192  1.4682
 3260SOL     OW10678   3.521   1.984   1.272 -0.2178 -0.1698  0.2874
 3260SOL    HW110679   3.534   2.081   1.253  0.6169 -0.1421  0.9662
 3260SOL    HW210680   3.451   1.947   1.210 -0.9631  0.9836  0.4025
 3261SOL     OW10681   6.676   6.896   1.401 -0.0789 -0.0518  0.2543
 3261SOL    HW110682   6.703   6.838   1.478  0.9573 -0.3312 -0.3068
 3261SOL    HW210683   6.725   6.983   1.406  1.2084 -0.6847 -0.9445
 3262SOL     OW10684   4.837   3.170   4.163  0.3855  0.6664  0.0930
 3262SOL    HW110685   4.840   3.156   4.064 -0.5884  0.9577  0.0186
 3262SOL    HW210686   4.830   3.081   4.208 -1.8272  0.6389 -0.2235
 3263SOL     OW10687   2.627   0.041   5.275 -0.4505  0.6903  0.1560
 3263SOL    HW110688   2.674   0.006   5.355 -0.5637 -1.4343 -0.6411
 3263SOL    HW210689   2.662   0.132   5.252  3.4543 -0.7945 -0.4966
 3264SOL     OW10690   5.062   3.548   1.834 -0.4175 -0.3738  0.4079
 3264SOL    HW110691   5.029   3.461   1.796  1.0771 -1.0077  0.5034
 3264SOL    HW210692   4.999   3.622   1.808 -2.0496 -1.5482  0.8295
 3265SOL     OW10693   6.139   4.214   4.501 -0.2040 -0.3071 -0.0151
 3265SOL    HW110694   6.126   4.184   4.596  1.1328  0.6004  0.4915
 3265SOL    HW210695   6.125   4.313   4.495 -0.9104 -0.4484 -0.9069
 3266SOL     OW10696   0.423   4.365   6.840 -0.1121  0.3573 -0.0764
 3266SOL    HW110697   0.505   4.417   6.819 -0.8670  2.5776  2.0076
 3266SOL    HW210698   0.370   4.351   6.756 -0.0797  3.4345 -0.7380
 3267SOL     OW10699   6.180   3.372   6.230 -0.1712 -0.0971 -0.0836
 3267SOL    HW110700   6.193   3.282   6.188 -0.7020  0.2194 -0.9588
 3267SOL    HW210701   6.181   3.363   6.329  0.3546 -0.9839 -0.1551
 3268SOL     OW10702   1.956   0.213   1.619 -0.1074 -0.1893 -0.2756
 3268SOL    HW110703   1.871   0.166   1.645  0.5387 -1.5265 -0.5161
 3268SOL    HW210704   2.025   0.146   1.594  1.0472  0.8847 -0.0589
 3269SOL     OW10705   3.534   3.525   5.212  0.4764 -0.4632  0.3029
 3269SOL    HW110706   3.592   3.530   5.130 -0.2814  0.9379 -0.1794
 3269SOL    HW210707   3.493   3.614   5.229 -0.3212 -1.0443  1.5368
 3270SOL     OW10708   1.409   4.026   4.242  0.1480  0.0819 -0.5382
 3270SOL    HW110709   1.313   4.012   4.269  0.6985 -0.9571  1.0309
 3270SOL    HW210710   1.423   3.987   4.151 -0.4854 -1.6491  0.0514
 3271SOL     OW10711   6.171   4.114   4.773 -0.4940  0.0300  0.5035
 3271SOL    HW110712   6.103   4.131   4.845 -1.3384 -1.6981  0.1695
 3271SOL    HW210713   6.251   4.171   4.789 -1.0357  0.3693  2.2838
 3272SOL     OW10714   3.508   1.624   3.679 -0.2812 -0.2943  0.5719
 3272SOL    HW110715   3.591   1.575   3.707 -0.6276 -0.3084  1.6103
 3272SOL    HW210716   3.505   1.629   3.579  0.6229 -0.8915  0.4980
 3273SOL     OW10717   5.645   6.216   4.985  0.1211  0.2430 -0.4767
 3273SOL    HW110718   5.555   6.178   5.008  0.7522 -0.3370  1.1672
 3273SOL    HW210719   5.702   6.219   5.067  2.0836 -0.6651 -1.7331
 3274SOL     OW10720   5.679   3.426   6.402  0.4854 -0.3836 -0.4087
 3274SOL    HW110721   5.682   3.526   6.398 -1.9449 -0.1009  2.1903
 3274SOL    HW210722   5.738   3.393   6.475 -1.5957 -0.4425  1.3548
 3275SOL     OW10723   6.936   6.940   4.167  0.0305  0.2699  0.0554
 3275SOL    HW110724   7.010   6.881   4.133  0.5764  0.9660  0.0277
 3275SOL    HW210725   6.892   6.896   4.245  0.6898  0.0071  0.2816
 3276SOL     OW10726   1.662   6.273   1.428 -0.0403  0.0342 -0.0196
 3276SOL    HW110727   1.611   6.277   1.343  0.0194 -0.4408 -0.0772
 3276SOL    HW210728   1.730   6.347   1.430  1.8613 -1.5684 -1.6033
 3277SOL     OW10729   0.868   4.350   3.701 -0.0912 -1.1195 -0.4922
 3277SOL    HW110730   0.793   4.288   3.675  0.6576 -2.1953 -0.1709
 3277SOL    HW210731   0.897   4.403   3.621 -1.1675 -0.7089 -0.6245
 3278SOL     OW10732   1.200   0.628   4.208 -0.0966  0.2972  0.2750
 3278SOL    HW110733   1.286   0.679   4.200  0.4867 -0.7358 -0.2486
 3278SOL    HW210734   1.132   0.668   4.146  0.1387  0.8459  0.3627
 3279SOL     OW10735   0.475   4.982   2.475  0.4258 -0.4224  1.1074
 3279SOL    HW110736   0.498   4.949   2.383  1.1559 -0.6305  1.3626
 3279SOL    HW210737   0.508   4.917   2.543  1.7415  0.7311  1.6226
 3280SOL     OW10738   4.467   5.018   5.736  0.5818 -0.0338 -0.4335
 3280SOL    HW110739   4.443   4.921   5.745  0.5500 -0.1398 -1.5626
 3280SOL    HW210740   4.425   5.070   5.811 -0.3249 -0.7149 -0.4567
 3281SOL     OW10741   6.785   5.518   4.612  0.7450 -0.0678  0.1279
 3281SOL    HW110742   6.688   5.507   4.591  1.0036 -1.1334 -0.6260
 3281SOL    HW210743   6.823   5.591   4.556  0.7446 -0.8302 -0.8994
 3282SOL     OW10744   6.088   5.258   0.741  0.4736  0.1212  0.2476
 3282SOL    HW110745   6.033   5.260   0.657  1.0854 -1.0136 -0.1998
 3282SOL    HW210746   6.178   5.219   0.721 -0.1469 -2.3183  1.8489
 3283SOL     OW10747   1.016   4.579   1.901  0.4982  0.0388  0.4841
 3283SOL    HW110748   0.965   4.603   1.818 -0.5645  1.2103  1.4470
 3283SOL    HW210749   0.992   4.486   1.929 -2.0306  0.9268  1.5277
 3284SOL     OW10750   0.838   3.364   0.907  0.4503 -0.7043 -0.0392
 3284SOL    HW110751   0.928   3.322   0.920  0.2119 -0.5959  2.2545
 3284SOL    HW210752   0.811   3.413   0.989 -1.9862 -1.2490 -0.4260
 3285SOL     OW10753   4.333   5.900   1.485 -0.1303 -0.3223 -0.0350
 3285SOL    HW110754   4.238   5.875   1.466 -0.8221  2.0349 -0.0189
 3285SOL    HW210755   4.365   5.853   1.567 -1.1177 -1.4932 -0.3044
 3286SOL     OW10756   6.884   2.389   4.628  0.1363  0.2121 -0.4065
 3286SOL    HW110757   6.824   2.364   4.704 -0.0704  0.8061 -0.3643
 3286SOL    HW210758   6.974   2.346   4.641  1.1798  2.7076  1.8978
 3287SOL     OW10759   3.988   2.291   1.607  0.4412 -0.6586 -0.2410
 3287SOL    HW110760   3.950   2.255   1.692  0.1848  0.8658  0.3254
 3287SOL    HW210761   3.933   2.369   1.576  2.1231  0.5948 -0.2515
 3288SOL     OW10762   6.645   6.572   1.545 -0.2357 -0.0908 -0.5931
 3288SOL    HW110763   6.565   6.518   1.518  0.2226 -1.0035 -0.1448
 3288SOL    HW210764   6.727   6.532   1.505 -0.0133  1.0100 -1.2854
 3289SOL     OW10765   0.108   0.775   5.106 -0.1383  0.8703 -0.3920
 3289SOL    HW110766   0.013   0.797   5.128  0.3769  2.6253  0.2069
 3289SOL    HW210767   0.159   0.761   5.191  0.2995  0.5802 -0.6983
 3290SOL     OW10768   1.054   0.678   3.236 -0.2066  0.2817 -0.6609
 3290SOL    HW110769   1.033   0.762   3.187 -0.0244 -0.0840 -1.3892
 3290SOL    HW210770   1.120   0.624   3.183  0.0946 -0.0630  0.0563
 3291SOL     OW10771   3.515   2.117   3.357 -0.5914 -0.6225  0.5703
 3291SOL    HW110772   3.436   2.146   3.411 -0.9969 -0.7697  0.0708
 3291SOL    HW210773   3.592   2.177   3.376 -0.3360 -1.4498  2.2692
 3292SOL     OW10774   6.115   2.126   3.884 -0.3771 -0.0502 -0.3599
 3292SOL    HW110775   6.032   2.082   3.917  0.2740 -0.0838  1.3115
 3292SOL    HW210776   6.128   2.213   3.933  1.1895 -0.6253  0.2940
 3293SOL     OW10777   5.101   0.461   5.205 -0.6563  0.4107 -0.4832
 3293SOL    HW110778   5.146   0.477   5.117 -1.9380  1.2528 -1.0069
 3293SOL    HW210779   5.108   0.364   5.228  1.3124  0.4864 -0.5813
 3294SOL     OW10780   0.246   1.049   1.743 -0.0713 -0.1299 -0.2241
 3294SOL    HW110781   0.240   1.140   1.785  1.3105 -0.4334  0.7196
 3294SOL    HW210782   0.175   0.990   1.781  0.5860 -0.1360  1.0435
 3295SOL     OW10783   4.257   1.236   6.775 -0.6754 -0.4521 -0.5348
 3295SOL    HW110784   4.190   1.177   6.730 -3.1910  0.7358  1.3313
 3295SOL    HW210785   4.306   1.289   6.707 -0.6697 -2.3118 -2.0595
 3296SOL     OW10786   1.457   1.083   5.550 -0.3042  0.0845 -0.1611
 3296SOL    HW110787   1.455   1.029   5.634  0.5395 -0.2180 -0.3221
 3296SOL    HW210788   1.414   1.172   5.567  1.4844  0.7799  1.1714
 3297SOL     OW10789   2.990   1.726   6.384 -0.0576 -0.3337  0.2826
 3297SOL    HW110790   2.981   1.785   6.464 -1.7303  1.6195 -1.2252
 3297SOL    HW210791   2.914   1.661   6.381  0.0380 -0.4479  0.2779
 3298SOL     OW10792   2.261   4.443   3.174  0.3154  0.1412  0.2759
 3298SOL    HW110793   2.208   4.397   3.245 -3.1489  2.3790 -0.6263
 3298SOL    HW210794   2.270   4.383   3.095  0.0282 -0.6626  0.8455
 3299SOL     OW10795   0.971   0.145   6.950 -0.4096  0.1321  0.2330
 3299SOL    HW110796   0.976   0.083   6.872 -2.4723 -1.4747  1.2715
 3299SOL    HW210797   0.886   0.198   6.946 -1.0421 -0.6800  1.8250
 3300SOL     OW10798   3.633   6.705   3.834  0.4111 -0.2229 -0.2999
 3300SOL    HW110799   3.634   6.803   3.814 -0.0234  0.3208  2.0254
 3300SOL    HW210800   3.547   6.665   3.802  0.2585  0.3156 -0.5751
 3301SOL     OW10801   6.745   2.706   3.245  0.1767  0.1325 -0.4638
 3301SOL    HW110802   6.777   2.665   3.331 -1.7113  0.8932  0.6683
 3301SOL    HW210803   6.820   2.757   3.203  1.7896 -2.0918 -0.4873
 3302SOL     OW10804   5.590   4.433   3.289 -0.1629 -0.1366 -0.4202
 3302SOL    HW110805   5.638   4.346   3.300 -0.0667 -0.0952 -0.5045
 3302SOL    HW210806   5.650   4.508   3.316  0.0433 -0.0422 -1.1214
 3303SOL     OW10807   4.340   0.152   5.508  0.0125  0.1310  0.6848
 3303SOL    HW110808   4.417   0.095   5.479 -2.1776 -1.7689 -2.0406
 3303SOL    HW210809   4.318   0.218   5.436 -0.9090  0.6302  1.3953
 3304SOL     OW10810   3.561   5.104   0.370 -0.1465  0.0627 -0.1543
 3304SOL    HW110811   3.474   5.148   0.350  0.1249  0.0739 -1.4216
 3304SOL    HW210812   3.636   5.167   0.349  0.1876 -0.3097 -0.0866
 3305SOL     OW10813   4.103   4.996   6.063  0.2450 -0.2458 -0.0358
 3305SOL    HW110814   4.200   5.011   6.083  0.0736  2.4022 -0.6947
 3305SOL    HW210815   4.091   4.907   6.020  2.6042 -0.1003 -1.1697
 3306SOL     OW10816   4.797   1.479   2.285  0.4658 -0.4089 -0.1775
 3306SOL    HW110817   4.871   1.420   2.318 -0.8863 -2.1133 -0.0813
 3306SOL    HW210818   4.788   1.469   2.186  1.6014  1.3145 -0.5052
 3307SOL     OW10819   5.817   1.573   1.477 -0.2734 -0.2827 -0.5160
 3307SOL    HW110820   5.844   1.611   1.566 -1.5530  0.8415 -0.5765
 3307SOL    HW210821   5.846   1.478   1.471  1.1998  0.0680  0.4791
 3308SOL     OW10822   5.957   0.987   6.054 -0.4677  0.2871 -0.3208
 3308SOL    HW110823   6.052   1.019   6.047 -0.3936  0.3324  0.7858
 3308SOL    HW210824   5.940   0.921   5.980  0.0332  1.1955 -1.2885
 3309SOL     OW10825   4.657   4.929   1.454 -0.2277 -0.5866  0.2487
 3309SOL    HW110826   4.646   4.915   1.355  1.7096  0.0247 -0.0955
 3309SOL    HW210827   4.731   4.871   1.488 -1.2662 -1.2342  1.4890
 3310SOL     OW10828   0.314   5.012   5.219  0.4204  0.3362  0.0386
 3310SOL    HW110829   0.262   4.973   5.143  1.2146 -0.6259 -0.0245
 3310SOL    HW210830   0.379   5.079   5.182 -2.7712  3.9921  0.3507
 3311SOL     OW10831   2.343   2.023   1.431  0.4938 -0.1966 -0.0384
 3311SOL    HW110832   2.331   2.034   1.530 -0.8125 -0.6591 -0.1253
 3311SOL    HW210833   2.338   2.113   1.387 -2.2199 -0.2566  0.0186
 3312SOL     OW10834   5.238   4.042   6.063 -0.0399  0.3046 -0.2278
 3312SOL    HW110835   5.212   3.955   6.106 -0.3305 -0.9154 -2.6904
 3312SOL    HW210836   5.326   4.073   6.101  0.4628 -1.4725  0.1639
 3313SOL     OW10837   0.424   1.129   3.892 -0.3969 -0.0992  0.6955
 3313SOL    HW110838   0.404   1.054   3.830  0.4748 -1.1435  1.6266
 3313SOL    HW210839   0.340   1.160   3.937 -0.9543  0.3547 -0.6224
 3314SOL     OW10840   0.942   4.874   5.914 -0.8216 -0.3880 -0.0026
 3314SOL    HW110841   0.887   4.863   5.832 -0.4305  0.9896 -0.4777
 3314SOL    HW210842   1.010   4.947   5.900  1.5658 -2.3908  0.3408
 3315SOL     OW10843   3.417   6.970   2.443  0.2961 -0.0974 -0.7934
 3315SOL    HW110844   3.363   6.901   2.492  0.7826 -0.0814 -0.2352
 3315SOL    HW210845   3.514   6.953   2.456  0.5388 -1.4233 -3.5412
 3316SOL     OW10846   2.230   3.410   5.698  0.1442  0.3979 -0.3491
 3316SOL    HW110847   2.180   3.421   5.612 -0.3432  2.5046  0.1505
 3316SOL    HW210848   2.304   3.477   5.703 -0.4023  0.9297  1.2332
 3317SOL     OW10849   3.597   3.226   3.982  0.3485 -0.0871 -0.3061
 3317SOL    HW110850   3.510   3.215   4.029 -0.6351 -0.4750 -2.1363
 3317SOL    HW210851   3.671   3.190   4.041 -0.9187 -1.4473  0.5453
 3318SOL     OW10852   2.656   1.186   2.381  0.0077 -0.1434  0.0109
 3318SOL    HW110853   2.590   1.114   2.402  1.3667 -1.7174 -0.7736
 3318SOL    HW210854   2.656   1.254   2.453 -0.6372 -1.4688  1.3129
 3319SOL     OW10855   2.980   3.705   3.738  0.3615  0.5999  0.1052
 3319SOL    HW110856   2.941   3.795   3.759  0.8555  1.1480 -1.2442
 3319SOL    HW210857   3.064   3.717   3.684 -0.4872 -0.7105 -1.5702
 3320SOL     OW10858   6.115   5.029   6.977  0.6813  0.3550 -0.5965
 3320SOL    HW110859   6.033   5.085   6.989 -0.0088 -0.2526 -2.1475
 3320SOL    HW210860   6.195   5.080   7.006 -0.1689  1.2295  0.2810
 3321SOL     OW10861   0.393   2.884   1.225 -0.1678  1.3703  0.3833
 3321SOL    HW110862   0.420   2.966   1.173  4.5550  1.2421  2.1538
 3321SOL    HW210863   0.414   2.803   1.171  1.4105  1.2940  1.0746
 3322SOL     OW10864   2.521   6.361   2.431  0.5766 -0.2412  0.4424
 3322SOL    HW110865   2.552   6.266   2.422 -0.7995 -0.8646  1.7593
 3322SOL    HW210866   2.565   6.403   2.511  0.8537  0.0897  0.1166
 3323SOL     OW10867   5.276   3.582   3.374  0.0002  0.7986  0.5623
 3323SOL    HW110868   5.330   3.498   3.371  0.3001  0.9625  1.2299
 3323SOL    HW210869   5.222   3.584   3.458  1.0531  1.9064  1.2509
 3324SOL     OW10870   5.289   6.404   4.966  0.5349 -0.0532  0.3599
 3324SOL    HW110871   5.200   6.443   4.988  0.2577 -0.2520 -0.3636
 3324SOL    HW210872   5.359   6.475   4.975  0.1975  0.3067  0.2160
 3325SOL     OW10873   5.860   4.561   3.787 -0.2896  0.7468  0.0088
 3325SOL    HW110874   5.783   4.603   3.739 -2.0304  1.6544  3.2773
 3325SOL    HW210875   5.919   4.632   3.825  0.9567  0.0696 -0.5872
 3326SOL     OW10876   4.743   4.657   4.291 -0.3114  0.9849 -0.1910
 3326SOL    HW110877   4.804   4.713   4.347 -0.5400  0.1059  0.9637
 3326SOL    HW210878   4.790   4.572   4.267 -0.1713  1.4003 -1.4586
 3327SOL     OW10879   0.341   2.721   2.737  0.6922  0.2870  0.5970
 3327SOL    HW110880   0.378   2.811   2.711 -0.3539  0.6432  0.2892
 3327SOL    HW210881   0.283   2.686   2.664  0.2734 -0.1678  1.1326
 3328SOL     OW10882   3.465   0.049   1.716  1.0672 -0.7519 -0.3440
 3328SOL    HW110883   3.541   0.094   1.669 -0.0548 -0.5185 -2.0224
 3328SOL    HW210884   3.380   0.099   1.698  0.1716 -2.1702 -0.2475
 3329SOL     OW10885   3.588   5.462   3.538 -0.5381  0.0222  0.1077
 3329SOL    HW110886   3.579   5.447   3.636 -0.6780  0.4600  0.1647
 3329SOL    HW210887   3.591   5.374   3.490 -3.1328 -0.2414  0.2616
 3330SOL     OW10888   0.122   2.553   6.620  0.3182 -0.0645 -0.4367
 3330SOL    HW110889   0.195   2.594   6.564  0.7781  0.7368  0.7048
 3330SOL    HW210890   0.161   2.516   6.704 -0.0305 -3.2597 -1.5440
 3331SOL     OW10891   0.720   0.314   6.904 -0.2265  0.5019 -0.4561
 3331SOL    HW110892   0.626   0.280   6.900 -0.5064  1.3033 -0.9999
 3331SOL    HW210893   0.731   0.390   6.839  0.6856  0.6872 -0.1043
 3332SOL     OW10894   3.251   2.106   6.315 -0.5304 -0.6437  0.8906
 3332SOL    HW110895   3.225   2.146   6.227  1.4147 -0.0523  0.5340
 3332SOL    HW210896   3.260   2.006   6.305  0.9804 -0.4541  0.0181
 3333SOL     OW10897   6.523   4.751   3.880 -0.2338 -0.1553 -0.7091
 3333SOL    HW110898   6.623   4.742   3.879  0.0982  1.7244  2.2234
 3333SOL    HW210899   6.496   4.837   3.837 -0.6076 -0.5625 -1.3110
 3334SOL     OW10900   2.419   6.167   1.935  0.0973  0.5215 -0.4196
 3334SOL    HW110901   2.393   6.207   2.023  0.0629  0.8447 -0.5754
 3334SOL    HW210902   2.516   6.145   1.936 -0.1847 -0.7982  0.2075
 3335SOL     OW10903   6.565   3.265   6.656  0.8432  0.1721  0.1272
 3335SOL    HW110904   6.592   3.192   6.719  0.5379 -0.9310 -0.9777
 3335SOL    HW210905   6.496   3.230   6.593 -0.2382  1.7924  0.3512
 3336SOL     OW10906   3.354   3.239   6.726 -0.0754  0.5252 -0.2851
 3336SOL    HW110907   3.335   3.205   6.634  2.3142 -0.4881 -0.4890
 3336SOL    HW210908   3.448   3.272   6.730  0.4773 -1.0678  2.2170
 3337SOL     OW10909   2.419   6.629   1.846 -0.4450  0.2559 -0.7984
 3337SOL    HW110910   2.479   6.550   1.859 -1.8661 -0.4516  2.4350
 3337SOL    HW210911   2.435   6.695   1.919 -1.8692  1.2132 -1.3153
 3338SOL     OW10912   3.439   4.106   4.319  0.0873  0.0268 -1.1949
 3338SOL    HW110913   3.410   4.068   4.407 -2.7025 -0.9253 -2.4256
 3338SOL    HW210914   3.517   4.053   4.286 -0.1970 -1.0166 -0.2883
 3339SOL     OW10915   3.532   5.846   2.033  0.1732 -0.4334 -0.4133
 3339SOL    HW110916   3.522   5.752   2.066  0.7611 -0.1446  0.6453
 3339SOL    HW210917   3.627   5.862   2.007  0.5962  0.4965  1.5364
 3340SOL     OW10918   6.966   3.163   4.096  0.2937 -0.0503 -0.1256
 3340SOL    HW110919   7.000   3.215   4.174  1.4703  0.4198 -0.9116
 3340SOL    HW210920   6.950   3.068   4.123  3.0410 -0.5267  0.1657
 3341SOL     OW10921   0.689   4.021   5.650 -0.4188 -0.7533  0.0334
 3341SOL    HW110922   0.751   4.001   5.726  0.0015 -0.4736 -0.2325
 3341SOL    HW210923   0.693   3.947   5.583  0.2704 -0.3346 -0.3943
 3342SOL     OW10924   6.415   3.006   1.919  0.1864 -0.2367  0.7686
 3342SOL    HW110925   6.490   3.031   1.980  0.6104  2.1034 -0.6112
 3342SOL    HW210926   6.401   3.078   1.851 -0.6907 -2.4128 -1.5255
 3343SOL     OW10927   0.350   0.263   1.558  0.0692  0.1878  0.2237
 3343SOL    HW110928   0.408   0.322   1.501 -0.2613 -0.7534 -1.1473
 3343SOL    HW210929   0.408   0.198   1.608  0.2888  0.1329 -0.0999
 3344SOL     OW10930   1.529   1.150   3.310  0.1790  0.0179  0.5598
 3344SOL    HW110931   1.468   1.222   3.342 -0.3479  0.8831 -2.1565
 3344SOL    HW210932   1.486   1.061   3.322 -0.7984  0.4682  0.4422
 3345SOL     OW10933   2.435   4.996   6.853 -0.0899 -0.4081  0.3438
 3345SOL    HW110934   2.382   5.002   6.769 -2.3471 -1.1335  1.6237
 3345SOL    HW210935   2.448   4.900   6.878  2.6848 -0.3226 -0.3430
 3346SOL     OW10936   3.335   6.502   0.600  0.0876 -0.6311  0.2598
 3346SOL    HW110937   3.284   6.540   0.677  0.1073 -0.9093  0.4147
 3346SOL    HW210938   3.355   6.574   0.534 -0.9621 -0.6271 -0.0595
 3347SOL     OW10939   4.272   1.662   0.213 -0.0479 -0.0563  0.1031
 3347SOL    HW110940   4.317   1.683   0.126  0.8313  1.4481  0.8830
 3347SOL    HW210941   4.173   1.669   0.202  0.0292 -0.3765 -0.8924
 3348SOL     OW10942   3.325   4.021   0.455 -0.3977 -0.1507 -0.0598
 3348SOL    HW110943   3.417   3.987   0.435 -0.1476  0.8108 -0.6483
 3348SOL    HW210944   3.281   3.962   0.522 -0.0908 -1.7646 -1.2053
 3349SOL     OW10945   5.062   5.193   4.043  0.6197  0.4262 -0.3994
 3349SOL    HW110946   5.090   5.113   3.990  1.0226 -0.2544  0.7934
 3349SOL    HW210947   5.083   5.277   3.991  1.4848 -0.1948 -1.0847
 3350SOL     OW10948   0.026   2.709   1.487  0.0580 -0.3661  0.3238
 3350SOL    HW110949   0.067   2.671   1.570  0.8738 -0.5062 -0.1327
 3350SOL    HW210950   0.063   2.800   1.469 -1.0587  0.1972  0.7949
 3351SOL     OW10951   0.684   3.322   2.707 -0.2353 -0.0442 -0.2200
 3351SOL    HW110952   0.660   3.337   2.612  0.9505 -0.2675 -0.5756
 3351SOL    HW210953   0.654   3.400   2.762 -0.4902  0.3159 -0.8611
 3352SOL     OW10954   5.871   6.127   2.388  0.1709  0.4238 -0.3626
 3352SOL    HW110955   5.871   6.213   2.438  1.1706  0.0411  0.3253
 3352SOL    HW210956   5.846   6.144   2.293  0.0647  1.4240 -0.1677
 3353SOL     OW10957   4.319   5.400   3.167  0.4417 -0.1450 -0.3822
 3353SOL    HW110958   4.263   5.466   3.218 -1.2201 -1.3343 -0.5841
 3353SOL    HW210959   4.340   5.437   3.077  2.8121  1.6846  0.7991
 3354SOL     OW10960   0.043   4.577   6.353  0.2550 -0.3243 -0.3409
 3354SOL    HW110961   0.040   4.491   6.302  2.5010 -0.6946  0.0709
 3354SOL    HW210962   0.116   4.573   6.421 -1.1008  1.0611  1.3072
 3355SOL     OW10963   6.915   2.981   5.198  0.4198  0.3705  0.1181
 3355SOL    HW110964   6.891   3.069   5.156 -0.4526 -0.4194 -1.1273
 3355SOL    HW210965   7.014   2.969   5.197  0.4549  0.5369 -1.4766
 3356SOL     OW10966   1.411   3.238   4.352  0.1141  0.5657  0.1878
 3356SOL    HW110967   1.354   3.238   4.270  0.8054 -0.9054 -0.3315
 3356SOL    HW210968   1.371   3.178   4.421  0.2295  0.7411  0.4091
 3357SOL     OW10969   0.233   0.747   4.672 -0.1730  0.0853 -0.1625
 3357SOL    HW110970   0.292   0.754   4.591 -0.8292 -1.2798 -0.7915
 3357SOL    HW210971   0.157   0.686   4.652 -1.0187  0.6904  1.1112
 3358SOL     OW10972   2.948   5.897   3.508 -0.3632  0.3296  0.5032
 3358SOL    HW110973   2.853   5.889   3.478  0.0536 -1.3607 -0.4985
 3358SOL    HW210974   2.965   5.833   3.584 -0.2980  1.4476  1.4528
 3359SOL     OW10975   4.252   6.718   5.153 -0.4418 -0.0498  0.1130
 3359SOL    HW110976   4.214   6.715   5.245 -1.5652  1.3846 -0.2816
 3359SOL    HW210977   4.352   6.706   5.158 -0.7643 -3.4587  1.1950
 3360SOL     OW10978   6.080   0.533   6.567  0.0150 -0.1045 -0.1141
 3360SOL    HW110979   6.095   0.604   6.498 -0.7145  0.9129  0.7432
 3360SOL    HW210980   6.165   0.516   6.617  0.0079  0.7605  0.2106
 3361SOL     OW10981   1.168   3.192   6.573  0.3638 -0.0574 -0.1733
 3361SOL    HW110982   1.208   3.105   6.543 -0.3057 -0.3418 -0.2650
 3361SOL    HW210983   1.241   3.255   6.598  0.8546 -0.9745  0.8093
 3362SOL     OW10984   2.737   5.474   4.089 -0.0199 -0.0193  0.0450
 3362SOL    HW110985   2.732   5.376   4.110  0.3871  0.2147  1.3318
 3362SOL    HW210986   2.804   5.517   4.149 -2.2193  1.5613  1.4741
 3363SOL     OW10987   6.758   3.890   5.643 -0.1136 -0.1157  0.0804
 3363SOL    HW110988   6.815   3.930   5.715  0.1244  0.7487 -0.5813
 3363SOL    HW210989   6.661   3.903   5.666 -0.0404 -0.0505  0.3536
 3364SOL     OW10990   3.325   0.370   4.516  0.2193 -0.0087 -0.0151
 3364SOL    HW110991   3.273   0.285   4.515  0.6570 -0.2824 -0.9721
 3364SOL    HW210992   3.311   0.417   4.603 -1.0677 -0.4201  0.0274
 3365SOL     OW10993   5.519   0.741   4.457 -0.0273 -0.6977  0.6205
 3365SOL    HW110994   5.586   0.812   4.437  0.8693 -1.5354  0.6030
 3365SOL    HW210995   5.440   0.751   4.396  1.2394 -1.2847 -1.1847
 3366SOL     OW10996   1.785   6.050   3.534 -0.1429  0.2334 -0.1017
 3366SOL    HW110997   1.885   6.058   3.539 -0.0182 -0.4919 -1.1295
 3366SOL    HW210998   1.753   5.986   3.604  0.3021 -0.8073 -0.8252
 3367SOL     OW10999   3.482   4.788   0.646  0.0606 -0.3554 -0.2114
 3367SOL    HW111000   3.443   4.754   0.560  0.5579  0.8869 -0.9476
 3367SOL    HW211001   3.419   4.767   0.722 -1.2926  0.1913 -1.1382
 3368SOL     OW11002   2.680   4.730   1.785 -0.0126  0.0571 -0.4416
 3368SOL    HW111003   2.726   4.677   1.856 -0.1440  0.6007  0.0528
 3368SOL    HW211004   2.642   4.668   1.717 -0.1810 -0.4815  0.1386
 3369SOL     OW11005   5.066   5.403   5.527  0.0744 -0.5853 -0.2178
 3369SOL    HW111006   5.139   5.443   5.470 -0.1690 -0.5270 -0.4941
 3369SOL    HW211007   5.066   5.304   5.515 -0.7396 -0.4811 -1.2617
 3370SOL     OW11008   5.553   6.833   2.639  0.5629  0.7316  0.4025
 3370SOL    HW111009   5.555   6.911   2.702 -0.0726 -0.0418  1.3952
 3370SOL    HW211010   5.463   6.790   2.641  0.2238  1.2186 -1.7242
 3371SOL     OW11011   3.358   5.967   6.268  0.2947  0.5731  0.0367
 3371SOL    HW111012   3.388   5.935   6.358 -0.0387  0.4382  0.1013
 3371SOL    HW211013   3.370   6.066   6.261 -2.2918  1.0388  1.2634
 3372SOL     OW11014   0.598   6.760   6.024  0.0165 -0.5474  0.1286
 3372SOL    HW111015   0.671   6.801   6.077 -1.3546 -0.6708  2.2267
 3372SOL    HW211016   0.537   6.831   5.989  1.1952 -0.4264 -1.8179
 3373SOL     OW11017   5.705   2.167   6.983  0.3145 -0.0752  0.4748
 3373SOL    HW111018   5.664   2.126   6.901  1.5323 -0.4866  0.0552
 3373SOL    HW211019   5.748   2.095   7.038  1.9012  0.5213  0.0653
 3374SOL     OW11020   0.832   3.776   1.244 -0.1168 -0.0674 -0.1470
 3374SOL    HW111021   0.920   3.779   1.195 -0.3790 -0.1530 -0.6352
 3374SOL    HW211022   0.790   3.866   1.241  0.0195  0.0070  0.2065
 3375SOL     OW11023   2.743   0.788   2.452  0.2619 -0.0223  0.6012
 3375SOL    HW111024   2.729   0.698   2.411 -1.0601 -0.7543  2.5304
 3375SOL    HW211025   2.661   0.843   2.439  0.6852  0.5531  0.3170
 3376SOL     OW11026   2.573   6.915   0.339  0.1881 -0.3430  0.4620
 3376SOL    HW111027   2.499   6.891   0.402 -0.7997  3.3247  0.9370
 3376SOL    HW211028   2.558   7.008   0.305  2.5210 -0.9580 -2.5941
 3377SOL     OW11029   4.636   1.643   2.480 -0.0923  0.5988  0.4101
 3377SOL    HW111030   4.706   1.582   2.442  0.4371  1.2989  0.2297
 3377SOL    HW211031   4.561   1.651   2.415  0.0672  0.5224  0.2128
 3378SOL     OW11032   5.984   3.464   5.152 -0.5978  0.2700  0.1963
 3378SOL    HW111033   6.026   3.379   5.121  1.6726 -0.0052  3.5471
 3378SOL    HW211034   6.029   3.542   5.108 -0.1408 -0.1522 -0.0909
 3379SOL     OW11035   4.214   3.716   5.154 -0.0308  0.8572  0.2216
 3379SOL    HW111036   4.287   3.734   5.220  0.8102 -0.2724 -0.3782
 3379SOL    HW211037   4.252   3.711   5.062 -1.3642  3.7629 -0.6210
 3380SOL     OW11038   0.228   4.845   5.457  0.1470  0.0749  0.3531
 3380SOL    HW111039   0.301   4.797   5.507 -0.8370 -0.8989  0.9067
 3380SOL    HW211040   0.268   4.921   5.405  1.3227  0.6968  2.0509
 3381SOL     OW11041   4.833   2.865   1.764 -0.2979 -0.4770 -0.5141
 3381SOL    HW111042   4.750   2.888   1.813  0.0397  1.0663 -0.6102
 3381SOL    HW211043   4.815   2.791   1.699 -1.6101 -0.1026 -0.5956
 3382SOL     OW11044   0.056   3.498   5.548 -0.0076 -0.6068 -0.7091
 3382SOL    HW111045   0.087   3.456   5.633 -0.2192 -0.3186 -0.4825
 3382SOL    HW211046   0.062   3.432   5.473 -1.4067 -1.4144 -0.1489
 3383SOL     OW11047   3.139   2.831   7.014  0.0571  0.1895 -0.1594
 3383SOL    HW111048   3.131   2.859   7.110  0.0918 -2.0330  0.5551
 3383SOL    HW211049   3.220   2.873   6.973  1.3756 -0.6066  1.5012
 3384SOL     OW11050   6.329   2.662   6.241 -0.0760  0.4655  0.1327
 3384SOL    HW111051   6.309   2.753   6.276  0.7520  1.1620 -1.1170
 3384SOL    HW211052   6.250   2.629   6.189 -0.6991  0.0939  1.2872
 3385SOL     OW11053   4.976   4.680   1.801 -0.0152 -0.0775 -0.5351
 3385SOL    HW111054   5.075   4.666   1.798 -0.0756 -0.3540 -1.4321
 3385SOL    HW211055   4.934   4.606   1.855  0.4064  0.9803  1.3391
 3386SOL     OW11056   6.349   5.790   4.617 -0.1277 -0.1931 -0.2407
 3386SOL    HW111057   6.341   5.806   4.716  0.3509 -1.1467 -0.0356
 3386SOL    HW211058   6.350   5.877   4.569 -1.1518  0.2619  0.5342
 3387SOL     OW11059   2.084   6.959   5.090 -0.1023  0.0532 -0.2243
 3387SOL    HW111060   2.054   7.034   5.148  0.2403  0.4478 -0.5566
 3387SOL    HW211061   2.178   6.935   5.112 -0.4526 -0.8046  0.4213
 3388SOL     OW11062   5.016   2.350   5.742  0.6423  0.3764  0.5491
 3388SOL    HW111063   5.000   2.428   5.681  2.5180  0.5129  0.1785
 3388SOL    HW211064   5.025   2.382   5.836  0.2767  0.4761  0.5491
 3389SOL     OW11065   0.360   6.508   5.313 -0.2314 -0.2341  0.1175
 3389SOL    HW111066   0.412   6.438   5.361  1.2772  0.7562 -0.0012
 3389SOL    HW211067   0.317   6.569   5.379  1.3202  0.7516  0.2657
 3390SOL     OW11068   4.087   0.962   1.913 -0.1046 -0.5040 -0.3993
 3390SOL    HW111069   4.132   0.887   1.865 -1.6752 -1.4822 -0.4157
 3390SOL    HW211070   3.990   0.963   1.890 -0.2446  1.1684  0.0944
 3391SOL     OW11071   3.978   3.948   4.400  0.2614 -0.5283 -0.4238
 3391SOL    HW111072   3.991   3.883   4.326 -0.0905 -0.9431 -0.1313
 3391SOL    HW211073   3.938   4.033   4.364  1.4426 -0.1633 -0.9308
 3392SOL     OW11074   5.984   3.904   1.306 -0.2554 -0.0130  0.0022
 3392SOL    HW111075   6.027   3.965   1.373  0.6068  0.9637 -1.4031
 3392SOL    HW211076   6.012   3.810   1.325 -1.2301  0.0233  1.9116
 3393SOL     OW11077   1.540   3.794   0.610  0.1592  0.1417 -0.2626
 3393SOL    HW111078   1.510   3.767   0.518 -1.2008  1.0357 -0.1202
 3393SOL    HW211079   1.520   3.721   0.675 -2.0222  0.7767 -0.1394
 3394SOL     OW11080   0.093   0.030   2.570 -0.1221  0.1006 -0.4628
 3394SOL    HW111081   0.069   0.032   2.667 -0.2654  0.1682 -0.4991
 3394SOL    HW211082   0.129   0.119   2.542 -1.1529  0.4437 -0.7389
 3395SOL     OW11083   5.909   4.557   2.339 -0.0638 -0.0097 -0.1283
 3395SOL    HW111084   5.822   4.597   2.367 -0.5460 -1.2695  0.2389
 3395SOL    HW211085   5.914   4.462   2.370  1.9612  0.3827  0.9266
 3396SOL     OW11086   2.946   3.527   4.976  0.0829 -0.0459  0.3968
 3396SOL    HW111087   2.910   3.594   5.041  1.3288  0.2805  0.7675
 3396SOL    HW211088   2.952   3.438   5.021  1.0183  0.1958  0.7829
 3397SOL     OW11089   2.663   2.852   1.204 -0.4209 -0.2365  0.8588
 3397SOL    HW111090   2.759   2.826   1.206 -0.1132  0.7626  0.0662
 3397SOL    HW211091   2.608   2.775   1.170  0.3339 -0.2440 -0.4132
 3398SOL     OW11092   1.242   2.450   4.081  0.4651  0.0760 -0.6102
 3398SOL    HW111093   1.333   2.460   4.121  0.4935 -0.6081 -0.4928
 3398SOL    HW211094   1.176   2.430   4.153 -0.0143  1.7765 -0.5187
 3399SOL     OW11095   0.353   3.256   2.002 -0.3818 -0.1764  0.3192
 3399SOL    HW111096   0.265   3.295   2.027  0.5000  1.3746  1.1654
 3399SOL    HW211097   0.426   3.320   2.027  1.2127 -2.5570  2.1675
 3400SOL     OW11098   2.352   6.937   5.133  0.0638 -0.2274  0.4363
 3400SOL    HW111099   2.403   6.864   5.087 -1.7199 -0.7496 -0.8400
 3400SOL    HW211100   2.398   7.024   5.120  1.2447 -0.8402  0.3831
 3401SOL     OW11101   3.432   0.327   4.260 -0.0594 -1.3602 -0.1706
 3401SOL    HW111102   3.513   0.270   4.269 -0.4686 -1.7033  1.9432
 3401SOL    HW211103   3.392   0.343   4.351 -0.1671  1.9997 -0.6800
 3402SOL     OW11104   1.056   1.617   4.176 -0.1416  0.3482 -0.2902
 3402SOL    HW111105   0.993   1.690   4.200  0.3993  1.1389 -1.2078
 3402SOL    HW211106   1.053   1.602   4.077  0.9048  0.1991 -0.3072
 3403SOL     OW11107   5.449   2.240   6.256 -0.0665 -0.1561 -0.0711
 3403SOL    HW111108   5.457   2.332   6.294  1.2400  0.3169 -1.3897
 3403SOL    HW211109   5.394   2.243   6.173  0.0198 -0.5477 -0.1434
 3404SOL     OW11110   0.961   4.155   5.210  0.2953 -0.2411 -0.5919
 3404SOL    HW111111   0.985   4.252   5.205  0.4951 -0.1599  1.1326
 3404SOL    HW211112   1.010   4.113   5.286 -0.1078 -1.6048 -1.0614
 3405SOL     OW11113   2.460   6.096   6.257  0.4286 -0.2506 -0.4912
 3405SOL    HW111114   2.464   6.007   6.211  0.4152 -0.9052  0.7338
 3405SOL    HW211115   2.367   6.133   6.251 -0.0822 -1.2814  0.7175
 3406SOL     OW11116   6.870   3.138   6.623 -0.1596  0.6513  0.0085
 3406SOL    HW111117   6.812   3.113   6.701 -1.7676  1.7721 -0.7755
 3406SOL    HW211118   6.895   3.235   6.629  1.9777  0.1142  0.5076
 3407SOL     OW11119   6.894   3.443   6.376  0.4183  0.9198 -0.0612
 3407SOL    HW111120   6.843   3.357   6.373  0.1072  0.9698  2.0746
 3407SOL    HW211121   6.869   3.499   6.297 -0.8327 -0.1587 -0.4736
 3408SOL     OW11122   5.305   6.069   1.937  0.5123 -0.9431  0.0555
 3408SOL    HW111123   5.359   5.985   1.933  1.2494 -0.5841  1.7726
 3408SOL    HW211124   5.351   6.141   1.884  1.1878 -0.9381  0.6312
 3409SOL     OW11125   5.838   5.110   5.149 -0.0326 -0.2613  0.0864
 3409SOL    HW111126   5.848   5.051   5.229  1.9372  0.7405  0.6421
 3409SOL    HW211127   5.928   5.134   5.113 -0.7952  1.4336 -0.8435
 3410SOL     OW11128   3.709   1.528   0.252 -0.0766  0.5098  0.3321
 3410SOL    HW111129   3.706   1.578   0.166 -0.2426  0.3520  0.2456
 3410SOL    HW211130   3.800   1.489   0.265  0.3699  1.6972  0.8973
 3411SOL     OW11131   3.948   5.743   2.704 -0.3394  0.4773 -0.1377
 3411SOL    HW111132   4.039   5.716   2.672 -0.3994  0.8833 -0.6802
 3411SOL    HW211133   3.957   5.808   2.779 -0.1782  0.6157 -0.2746
 3412SOL     OW11134   5.274   5.802   5.516 -0.4915  0.4933  0.3480
 3412SOL    HW111135   5.192   5.807   5.459 -0.3849 -1.8999 -0.1060
 3412SOL    HW211136   5.249   5.815   5.612 -0.9546  2.4710  0.0173
 3413SOL     OW11137   5.769   5.077   1.208  0.4625 -0.8247  0.3264
 3413SOL    HW111138   5.713   5.143   1.158 -0.0498 -0.6095  1.1650
 3413SOL    HW211139   5.851   5.056   1.155 -0.6829 -1.6043 -1.2101
 3414SOL     OW11140   6.141   4.029   1.513  0.0349  1.0764 -0.4653
 3414SOL    HW111141   6.222   3.973   1.530 -1.4110 -1.0995 -0.3278
 3414SOL    HW211142   6.082   4.029   1.594  0.1469  3.1330 -0.3446
 3415SOL     OW11143   3.344   0.939   3.784  0.2071 -0.4689  0.0733
 3415SOL    HW111144   3.269   0.877   3.763 -0.0426 -0.0307 -0.3513
 3415SOL    HW211145   3.315   1.004   3.854  0.1824 -0.2875 -0.1043
 3416SOL     OW11146   3.661   3.300   0.425  0.0025 -0.1120  0.4554
 3416SOL    HW111147   3.715   3.379   0.453 -0.3656  0.0342  0.7627
 3416SOL    HW211148   3.564   3.324   0.424  0.0644  0.5387 -3.0193
 3417SOL     OW11149   2.098   5.527   0.426  0.0329 -0.0518 -0.6336
 3417SOL    HW111150   2.106   5.624   0.447 -0.3583 -0.1601  0.0112
 3417SOL    HW211151   2.112   5.514   0.327  0.5970  0.5921 -0.6503
 3418SOL     OW11152   4.798   4.289   0.760  0.0423 -0.4290 -0.0372
 3418SOL    HW111153   4.883   4.248   0.793 -1.3264 -2.3782  1.3615
 3418SOL    HW211154   4.722   4.227   0.781 -1.6444  0.8806 -1.9333
 3419SOL     OW11155   0.422   6.905   3.847  0.3429  0.1909  0.0014
 3419SOL    HW111156   0.403   6.808   3.830 -1.3165  0.4312  0.3861
 3419SOL    HW211157   0.389   6.959   3.770 -2.9658  0.8450  1.7219
 3420SOL     OW11158   1.804   4.156   2.553  0.1486  0.3105 -0.3438
 3420SOL    HW111159   1.778   4.060   2.540  1.3869  0.1772 -2.2141
 3420SOL    HW211160   1.817   4.174   2.650 -3.3194 -0.4941  0.4161
 3421SOL     OW11161   3.458   6.125   5.139 -0.0192  0.1119  0.3358
 3421SOL    HW111162   3.375   6.109   5.192  0.1059  1.8028  1.0967
 3421SOL    HW211163   3.438   6.117   5.041 -0.4945 -1.9369  0.5553
 3422SOL     OW11164   4.189   5.648   0.021 -0.5464  0.0362 -0.5812
 3422SOL    HW111165   4.133   5.662   0.103  2.9304 -0.3406  2.0899
 3422SOL    HW211166   4.205   5.550   0.009  0.5801  0.1956 -0.4685
 3423SOL     OW11167   0.807   5.373   1.594  0.7381  0.4162 -0.4433
 3423SOL    HW111168   0.906   5.382   1.607  0.9614  0.1342 -1.8074
 3423SOL    HW211169   0.778   5.434   1.521 -0.5796  2.5217  1.6621
 3424SOL     OW11170   0.585   1.154   0.217  0.1140  0.7629  0.0556
 3424SOL    HW111171   0.680   1.185   0.213 -0.6479  3.2676 -0.5189
 3424SOL    HW211172   0.541   1.191   0.300 -0.3613 -0.4241  0.3560
 3425SOL     OW11173   3.032   3.104   2.917  0.2387  0.1664  0.3393
 3425SOL    HW111174   2.986   3.056   2.842  1.2333  1.1303 -0.9428
 3425SOL    HW211175   2.964   3.139   2.981 -0.8380  1.2882 -1.3301
 3426SOL     OW11176   2.348   4.329   5.551 -0.0529  0.7624  0.3462
 3426SOL    HW111177   2.293   4.347   5.469  0.0014  0.4522  0.2409
 3426SOL    HW211178   2.444   4.348   5.531  0.3195 -1.5715 -0.4143
 3427SOL     OW11179   0.724   2.583   3.466 -0.5927 -0.3027  0.0204
 3427SOL    HW111180   0.716   2.636   3.550 -0.2807  0.1098 -0.2044
 3427SOL    HW211181   0.777   2.635   3.399  1.4040 -1.6811  0.4520
 3428SOL     OW11182   4.086   3.054   0.333 -0.5389 -0.2872 -0.3132
 3428SOL    HW111183   4.126   3.042   0.424 -1.3960  1.4565  0.3468
 3428SOL    HW211184   4.042   2.968   0.304  1.5440 -1.5043 -0.0428
 3429SOL     OW11185   1.575   0.617   0.585 -0.4933  0.1925  0.1713
 3429SOL    HW111186   1.504   0.674   0.626 -1.2683 -1.3312  1.0239
 3429SOL    HW211187   1.548   0.592   0.492  0.2712  1.8928 -0.5535
 3430SOL     OW11188   6.164   1.141   4.790 -0.3242 -0.1368 -0.4191
 3430SOL    HW111189   6.261   1.149   4.767 -0.5781  0.6335 -1.2974
 3430SOL    HW211190   6.109   1.146   4.706 -1.2960  2.7296  0.2549
 3431SOL     OW11191   0.501   6.211   2.730  0.7419  0.0614 -0.6557
 3431SOL    HW111192   0.586   6.263   2.731  0.2060  1.1101  2.6650
 3431SOL    HW211193   0.459   6.217   2.639  3.2442  1.0144 -1.8493
 3432SOL     OW11194   1.771   6.406   2.169  0.0215 -0.0823  0.6085
 3432SOL    HW111195   1.766   6.356   2.082  0.0145  0.4106  0.3229
 3432SOL    HW211196   1.757   6.504   2.153 -1.3610 -0.1275  1.3392
 3433SOL     OW11197   3.549   3.132   0.765  0.0030 -0.1799 -0.2028
 3433SOL    HW111198   3.454   3.157   0.748  0.2996  0.7989 -0.4618
 3433SOL    HW211199   3.597   3.122   0.678  0.1569 -0.6151 -0.0708
 3434SOL     OW11200   1.638   3.310   6.255 -0.0295 -0.3394 -0.6701
 3434SOL    HW111201   1.607   3.383   6.317 -0.8827 -1.3709  0.1574
 3434SOL    HW211202   1.730   3.331   6.222  0.5708  0.1146  1.1855
 3435SOL     OW11203   0.314   6.505   5.947  0.2958  0.4172 -0.1345
 3435SOL    HW111204   0.270   6.419   5.973  0.3056  0.5508  0.3273
 3435SOL    HW211205   0.399   6.516   5.999  1.2607 -0.1713 -1.5054
 3436SOL     OW11206   6.465   6.390   1.407 -0.4733  0.0320 -0.0789
 3436SOL    HW111207   6.367   6.377   1.422 -0.7077 -1.2581 -2.3798
 3436SOL    HW211208   6.482   6.420   1.313  1.3215  0.7435  0.4208
 3437SOL     OW11209   2.951   0.794   3.361  0.0536 -0.2907 -0.0106
 3437SOL    HW111210   2.974   0.887   3.391  0.4583 -0.9095  1.7263
 3437SOL    HW211211   2.978   0.729   3.432 -1.1068 -1.6554 -0.7778
 3438SOL     OW11212   6.238   4.305   2.833 -0.0982  0.1353 -0.5609
 3438SOL    HW111213   6.296   4.238   2.880 -1.3870 -1.8446 -1.6650
 3438SOL    HW211214   6.218   4.273   2.740 -1.4402  1.6740 -0.8548
 3439SOL     OW11215   5.013   1.888   6.578  0.3612 -0.0219 -0.1855
 3439SOL    HW111216   4.954   1.927   6.507  0.0474 -0.0793  0.0451
 3439SOL    HW211217   5.099   1.939   6.581 -0.0537  0.6692  0.1232
 3440SOL     OW11218   3.157   4.067   3.680 -0.4210 -0.2453  0.1622
 3440SOL    HW111219   3.116   4.131   3.746 -1.1357 -1.6613  1.1345
 3440SOL    HW211220   3.240   4.108   3.643 -0.7643  1.1881  0.8753
 3441SOL     OW11221   4.503   5.892   2.400  0.1041 -0.2545 -0.5202
 3441SOL    HW111222   4.547   5.981   2.403 -1.0193  0.3122  2.5070
 3441SOL    HW211223   4.411   5.901   2.361 -0.9335  0.4998  1.8710
 3442SOL     OW11224   6.029   0.883   2.891 -0.5818  0.0879  0.2490
 3442SOL    HW111225   5.957   0.824   2.856 -1.5290  0.6370  1.2224
 3442SOL    HW211226   5.992   0.945   2.960  0.5519  1.2678 -0.1396
 3443SOL     OW11227   6.799   0.041   6.555  0.3993 -0.1332  0.2750
 3443SOL    HW111228   6.714   0.084   6.585 -0.1360 -0.3270 -0.8996
 3443SOL    HW211229   6.808   0.051   6.455  0.4047 -2.4503 -0.0082
 3444SOL     OW11230   0.959   4.382   0.981  0.6272  0.0126 -0.3043
 3444SOL    HW111231   0.895   4.393   1.057  0.7839 -0.2689 -0.1339
 3444SOL    HW211232   1.051   4.370   1.016  0.6571 -0.4124 -0.5325
 3445SOL     OW11233   5.591   3.200   2.514 -0.3638  0.7374 -0.2718
 3445SOL    HW111234   5.671   3.260   2.511  0.9294 -0.9198 -0.4977
 3445SOL    HW211235   5.558   3.193   2.608  1.3676 -0.5359  0.2943
 3446SOL     OW11236   5.914   3.737   3.653 -0.1624 -0.7101  0.2850
 3446SOL    HW111237   5.822   3.775   3.648  0.4431  0.7929  0.0892
 3446SOL    HW211238   5.978   3.796   3.604  1.3291 -0.3295  2.5220
 3447SOL     OW11239   0.040   1.979   5.678 -0.4571 -0.0310 -0.2087
 3447SOL    HW111240  -0.012   2.027   5.748 -2.7021  0.3390 -2.0040
 3447SOL    HW211241   0.078   2.045   5.613  2.0880 -0.3225  0.8722
 3448SOL     OW11242   2.117   1.572   5.824  0.7501  0.3889  0.3046
 3448SOL    HW111243   2.193   1.532   5.875  0.7845  1.6750  1.3277
 3448SOL    HW211244   2.130   1.671   5.819 -1.2923  0.7589  1.2788
 3449SOL     OW11245   4.518   0.459   2.251 -0.5479 -0.0393 -0.0004
 3449SOL    HW111246   4.428   0.497   2.272 -0.5810  0.3725 -0.8634
 3449SOL    HW211247   4.586   0.497   2.314 -0.9838 -0.4336  0.7259
 3450SOL     OW11248   4.972   4.960   0.120 -0.5975  0.6932  0.4236
 3450SOL    HW111249   5.018   5.043   0.152  1.3145 -0.1657  0.0465
 3450SOL    HW211250   4.974   4.956   0.020  0.4944 -0.3886  0.4588
 3451SOL     OW11251   3.618   2.250   1.285  0.2225  0.0871 -0.2860
 3451SOL    HW111252   3.693   2.267   1.348 -0.1163  1.9868 -0.3431
 3451SOL    HW211253   3.625   2.311   1.206 -1.3735  0.3112 -0.2932
 3452SOL     OW11254   0.490   0.688   0.832 -0.0343 -0.1918 -0.1161
 3452SOL    HW111255   0.515   0.683   0.736  0.7008  0.4675  0.0325
 3452SOL    HW211256   0.568   0.723   0.885 -0.3211 -0.8412  0.7581
 3453SOL     OW11257   4.920   3.345   4.331 -0.4209 -0.8424 -0.0530
 3453SOL    HW111258   4.878   3.281   4.266 -0.7580 -0.1029 -0.5773
 3453SOL    HW211259   4.930   3.434   4.287 -2.1092  0.1286  1.4166
 3454SOL     OW11260   6.839   4.663   0.475 -0.1913  0.2166 -0.2387
 3454SOL    HW111261   6.817   4.657   0.572  0.9525  0.1609  0.0289
 3454SOL    HW211262   6.788   4.594   0.424  0.1776 -0.6073  0.4990
 3455SOL     OW11263   3.319   2.532   6.077 -0.2894  0.1173 -0.4556
 3455SOL    HW111264   3.356   2.520   5.985 -2.2229 -1.7063 -1.0783
 3455SOL    HW211265   3.255   2.609   6.076 -0.0873  0.2854 -0.5577
 3456SOL     OW11266   1.081   4.999   3.454 -0.2085 -0.2013  0.1255
 3456SOL    HW111267   1.045   5.017   3.546  1.9954  0.3105  0.9751
 3456SOL    HW211268   1.150   5.068   3.432 -0.0015 -0.8924 -1.5302
 3457SOL     OW11269   5.720   4.720   5.635 -0.1896  0.3058 -0.7552
 3457SOL    HW111270   5.773   4.780   5.576 -0.4172  0.3809 -0.8871
 3457SOL    HW211271   5.775   4.640   5.661 -0.1739  0.1423 -1.2833
 3458SOL     OW11272   6.323   5.567   5.832 -0.2236 -0.3674  0.2417
 3458SOL    HW111273   6.333   5.534   5.926  0.1626 -0.2092  0.2603
 3458SOL    HW211274   6.387   5.518   5.773 -1.1372 -1.1565 -0.1233
 3459SOL     OW11275   6.817   0.810   5.152 -0.3184  0.4511 -0.4832
 3459SOL    HW111276   6.776   0.772   5.069 -2.4476  1.0716  0.2287
 3459SOL    HW211277   6.780   0.901   5.170 -1.3131 -0.3618  2.0936
 3460SOL     OW11278   0.145   0.677   6.833 -0.1777 -0.2188  0.1839
 3460SOL    HW111279   0.128   0.579   6.839 -2.7004  0.2305  1.3697
 3460SOL    HW211280   0.151   0.716   6.925 -3.1088  1.2785 -0.1317
 3461SOL     OW11281   3.268   6.096   1.574 -0.4184  0.1315  0.3123
 3461SOL    HW111282   3.361   6.103   1.537  0.1311  1.7579  1.8296
 3461SOL    HW211283   3.267   6.035   1.653 -0.0577  1.8466  1.7287
 3462SOL     OW11284   6.337   4.286   1.372 -0.1809 -0.0830 -0.3692
 3462SOL    HW111285   6.411   4.290   1.439  0.5420 -0.5348 -1.1216
 3462SOL    HW211286   6.280   4.205   1.390  1.7713 -1.9485 -2.0383
 3463SOL     OW11287   2.373   3.394   5.296  0.5040 -0.4689  0.2584
 3463SOL    HW111288   2.296   3.457   5.303 -0.4845 -1.5779 -0.1625
 3463SOL    HW211289   2.338   3.300   5.292  1.8800 -0.9879 -0.1169
 3464SOL     OW11290   0.786   0.547   6.742  0.5892  0.0776  0.1473
 3464SOL    HW111291   0.786   0.599   6.827 -2.2012 -1.9904  1.5775
 3464SOL    HW211292   0.699   0.562   6.694  1.2052 -0.5163 -1.2242
 3465SOL     OW11293   3.686   2.882   3.239 -0.1966  0.1014 -0.1937
 3465SOL    HW111294   3.619   2.951   3.212 -1.6550 -1.2036 -0.0764
 3465SOL    HW211295   3.639   2.795   3.254  1.1863 -0.3075  2.2241
 3466SOL     OW11296   6.445   3.495   2.083  0.3903  0.2392 -0.5417
 3466SOL    HW111297   6.541   3.503   2.058  0.2807  0.1817 -0.9813
 3466SOL    HW211298   6.396   3.578   2.054  0.1206 -0.1368 -1.1650
 3467SOL     OW11299   3.225   3.664   6.668  0.6285 -0.1645  0.2628
 3467SOL    HW111300   3.300   3.678   6.733  0.4940  0.0872  0.3653
 3467SOL    HW211301   3.197   3.568   6.670  1.3180 -0.3791 -0.1808
 3468SOL     OW11302   1.723   1.546   3.827 -0.1037 -0.0725 -0.7564
 3468SOL    HW111303   1.791   1.493   3.878 -1.4284 -1.3641 -0.2473
 3468SOL    HW211304   1.651   1.576   3.889  0.0934  1.4614 -1.2488
 3469SOL     OW11305   3.994   6.639   4.406  0.3795  0.2240  0.0123
 3469SOL    HW111306   3.899   6.661   4.426  0.1633 -1.6408  1.1974
 3469SOL    HW211307   4.048   6.641   4.490  1.0900 -0.1590 -0.4185
 3470SOL     OW11308   3.511   3.944   2.524  0.1591  0.1637  0.2383
 3470SOL    HW111309   3.476   4.006   2.595 -0.5690  0.9855 -0.8085
 3470SOL    HW211310   3.603   3.972   2.498 -0.2430  0.9606 -0.3738
 3471SOL     OW11311   1.635   3.097   4.315  0.4776 -0.2389 -0.2072
 3471SOL    HW111312   1.654   3.109   4.413 -1.5861 -0.8165  0.3127
 3471SOL    HW211313   1.540   3.122   4.296  0.6947 -0.6340 -1.9852
 3472SOL     OW11314   4.458   5.208   1.364 -0.4255  0.0373  0.0324
 3472SOL    HW111315   4.522   5.136   1.390  0.2460  0.1726 -1.2097
 3472SOL    HW211316   4.426   5.193   1.271 -0.5109  1.1813 -0.1379
 3473SOL     OW11317   0.617   3.055   1.867 -0.0735 -0.0327  0.0988
 3473SOL    HW111318   0.629   2.971   1.815 -1.5024  0.5619 -1.2479
 3473SOL    HW211319   0.604   3.032   1.964 -1.2476 -1.4342 -0.3523
 3474SOL     OW11320   3.741   0.320   3.934  0.2174  0.1330 -0.2471
 3474SOL    HW111321   3.652   0.346   3.973 -0.0263  1.2345 -1.4642
 3474SOL    HW211322   3.808   0.391   3.955 -0.1643  1.2983 -2.5971
 3475SOL     OW11323   0.034   1.048   6.894  0.5263 -0.3758 -0.3832
 3475SOL    HW111324   0.134   1.054   6.884  0.3474  2.1431 -1.1649
 3475SOL    HW211325  -0.010   1.103   6.823 -1.3654  0.3991  1.3099
 3476SOL     OW11326   1.030   2.493   3.364 -0.2894  0.2789  0.2438
 3476SOL    HW111327   0.947   2.479   3.416  1.3079 -1.4492  2.5131
 3476SOL    HW211328   1.061   2.406   3.325  1.3351  0.5348  0.8772
 3477SOL     OW11329   2.095   4.053   5.961  0.8656 -0.1735 -0.2072
 3477SOL    HW111330   2.124   4.048   5.866  4.4691 -1.2111  0.8132
 3477SOL    HW211331   2.044   3.970   5.985 -0.9206  0.5264 -1.3997
 3478SOL     OW11332   1.108   3.133   1.717  0.2729  0.0022  0.3782
 3478SOL    HW111333   1.164   3.158   1.796  2.2596 -0.7210 -0.7624
 3478SOL    HW211334   1.098   3.212   1.657 -1.7539  0.7359  1.5627
 3479SOL     OW11335   4.814   5.473   0.951  0.4353  0.6551 -0.4296
 3479SOL    HW111336   4.881   5.398   0.951 -1.2127 -0.8932 -0.6511
 3479SOL    HW211337   4.766   5.474   1.038 -2.1937 -1.1286 -1.7158
 3480SOL     OW11338   3.294   5.161   4.464 -0.5186  0.0806  0.3296
 3480SOL    HW111339   3.211   5.119   4.430 -0.7025 -1.6159  2.6716
 3480SOL    HW211340   3.271   5.236   4.527 -0.2301  0.6298 -0.2016
 3481SOL     OW11341   5.013   0.038   4.607 -0.2446  0.0071  0.4344
 3481SOL    HW111342   5.016  -0.043   4.665 -0.3798 -0.1227  0.2609
 3481SOL    HW211343   4.974   0.014   4.518 -0.4280  0.2947  0.4361
 3482SOL     OW11344   5.685   5.190   4.640 -0.0517  0.4535  0.6400
 3482SOL    HW111345   5.682   5.123   4.566 -0.2315 -0.6674  1.6500
 3482SOL    HW211346   5.775   5.233   4.642 -0.2473  0.9741 -0.6287
 3483SOL     OW11347   4.572   5.107   3.127 -0.4330 -0.2406  0.3286
 3483SOL    HW111348   4.537   5.139   3.039  1.9073  0.7529 -0.3411
 3483SOL    HW211349   4.526   5.157   3.201 -0.7599  0.6572 -0.4553
 3484SOL     OW11350   1.501   0.115   3.721  0.0752  0.4865  0.2056
 3484SOL    HW111351   1.560   0.191   3.693  0.6025 -0.6736 -2.0738
 3484SOL    HW211352   1.551   0.055   3.783  0.3850  0.8909  0.3544
 3485SOL     OW11353   2.297   1.274   2.634  0.7528 -0.0914  0.3747
 3485SOL    HW111354   2.258   1.360   2.666  0.8243 -0.4382  1.4142
 3485SOL    HW211355   2.332   1.222   2.712 -0.0338 -1.4334 -0.1373
 3486SOL     OW11356   6.506   1.316   2.352 -0.0816  0.4510 -0.4983
 3486SOL    HW111357   6.598   1.322   2.311 -0.3484  0.8918 -1.0507
 3486SOL    HW211358   6.499   1.380   2.428  0.0708  0.4045 -0.4433
 3487SOL     OW11359   4.807   5.352   5.233 -0.3138 -0.1000  0.2118
 3487SOL    HW111360   4.897   5.395   5.247  0.0860 -0.8967  0.1626
 3487SOL    HW211361   4.772   5.378   5.143  0.3910 -0.6731 -0.2444
 3488SOL     OW11362   4.240   5.622   4.792  0.6603 -0.0101  0.0641
 3488SOL    HW111363   4.261   5.629   4.694  0.4244 -2.1862 -0.1727
 3488SOL    HW211364   4.205   5.531   4.812  0.2286  0.5706  2.1132
 3489SOL     OW11365   4.821   3.812   3.632 -0.5155 -0.1435  0.7712
 3489SOL    HW111366   4.809   3.888   3.695  0.0619  1.3248 -0.8251
 3489SOL    HW211367   4.816   3.726   3.683  0.0501  0.9681  2.8211
 3490SOL     OW11368   3.409   5.470   2.693 -0.4173  0.0411 -0.2163
 3490SOL    HW111369   3.446   5.425   2.774 -1.7134  0.1120  0.4505
 3490SOL    HW211370   3.309   5.457   2.691 -0.3393 -0.5267 -2.1600
 3491SOL     OW11371   4.482   0.791   5.054  0.0545  0.1933  0.1365
 3491SOL    HW111372   4.388   0.802   5.087  0.0521 -0.3393  0.2991
 3491SOL    HW211373   4.545   0.832   5.119  0.1450 -1.8867  1.4273
 3492SOL     OW11374   0.703   6.317   1.901  0.3723 -0.1093 -0.5318
 3492SOL    HW111375   0.771   6.375   1.947 -0.3284  1.4241 -1.3386
 3492SOL    HW211376   0.681   6.240   1.960  1.8093  0.0842  0.3265
 3493SOL     OW11377   0.947   1.087   6.452  0.3232  0.7089 -0.7664
 3493SOL    HW111378   1.044   1.082   6.431 -0.0303 -1.8020 -2.1115
 3493SOL    HW211379   0.934   1.085   6.552  1.6038 -1.6201 -0.5826
 3494SOL     OW11380   2.474   2.476   1.150 -0.1092  0.1720 -0.2685
 3494SOL    HW111381   2.453   2.529   1.232 -0.7836 -1.0762  0.4027
 3494SOL    HW211382   2.389   2.439   1.112  0.1752  0.8908 -1.6559
 3495SOL     OW11383   5.913   2.560   1.573  0.6871  0.6475  0.1716
 3495SOL    HW111384   5.880   2.527   1.484 -1.2105 -0.2601  1.1484
 3495SOL    HW211385   5.959   2.486   1.621  0.6921  0.7978  0.3997
 3496SOL     OW11386   1.428   2.644   4.408  0.3397 -0.2221  0.0917
 3496SOL    HW111387   1.446   2.626   4.504  0.0786  0.0359  0.1910
 3496SOL    HW211388   1.329   2.651   4.393  0.3860 -0.1112 -0.1647
 3497SOL     OW11389   3.421   2.875   1.884 -0.0492 -0.4875  0.0436
 3497SOL    HW111390   3.489   2.861   1.955 -0.3454 -2.7414 -0.0435
 3497SOL    HW211391   3.330   2.867   1.923 -0.2746  1.0294 -0.1183
 3498SOL     OW11392   0.625   0.754   4.994 -0.0690  0.2136  0.0650
 3498SOL    HW111393   0.636   0.738   4.896  1.6446  0.5514  0.1746
 3498SOL    HW211394   0.713   0.741   5.040 -1.1189 -1.3372  1.7788
 3499SOL     OW11395   0.914   3.600   3.412 -0.2084 -0.2773 -0.2081
 3499SOL    HW111396   0.913   3.699   3.423 -1.1878 -0.0803 -1.8261
 3499SOL    HW211397   0.827   3.562   3.446  0.5013 -0.6958  1.1952
 3500SOL     OW11398   6.901   2.408   1.665 -0.1258  0.1698  0.0571
 3500SOL    HW111399   6.996   2.404   1.636 -0.0684 -1.6328  0.4178
 3500SOL    HW211400   6.892   2.365   1.755 -1.7165 -2.4108 -1.2306
 3501SOL     OW11401   6.345   5.988   3.908 -0.5945  0.0089  0.0139
 3501SOL    HW111402   6.341   6.000   3.809  1.0104  1.4425  0.0750
 3501SOL    HW211403   6.368   6.075   3.952  1.0006 -1.0521  1.4400
 3502SOL     OW11404   6.549   6.299   2.259 -0.4998  0.3019 -0.0239
 3502SOL    HW111405   6.538   6.200   2.245 -0.8594  0.1368  1.2632
 3502SOL    HW211406   6.462   6.344   2.240 -0.1460  0.4825 -1.3203
 3503SOL     OW11407   6.490   3.495   2.395  0.0677  0.0566  0.2383
 3503SOL    HW111408   6.574   3.443   2.414  0.5353  1.2533  1.6818
 3503SOL    HW211409   6.449   3.462   2.310  1.0314 -1.7608  0.4253
 3504SOL     OW11410   2.980   6.842   4.237 -0.3586 -0.1113  0.2448
 3504SOL    HW111411   3.052   6.775   4.259  0.2360  1.0797  2.2032
 3504SOL    HW211412   2.978   6.858   4.139 -0.9000 -3.3710 -0.4117
 3505SOL     OW11413   1.736   4.099   1.558  0.0795 -0.1422  0.3361
 3505SOL    HW111414   1.670   4.173   1.547 -0.6147 -0.5078  1.7915
 3505SOL    HW211415   1.743   4.075   1.655 -0.1781 -2.4003 -0.1576
 3506SOL     OW11416   1.689   5.452   2.730  0.4101  0.4024 -0.5574
 3506SOL    HW111417   1.674   5.396   2.648 -0.7993  1.3264 -0.9957
 3506SOL    HW211418   1.756   5.523   2.709 -0.6323  1.2589 -1.0799
 3507SOL     OW11419   0.242   1.396   3.515  0.5671  0.4220 -0.3583
 3507SOL    HW111420   0.291   1.381   3.601 -1.0993 -1.2240  0.3824
 3507SOL    HW211421   0.219   1.493   3.506 -1.1794  0.3674  2.2669
 3508SOL     OW11422   3.912   4.826   5.301 -0.4201  0.4450  0.0739
 3508SOL    HW111423   3.826   4.787   5.335 -0.5346 -0.3260 -1.0395
 3508SOL    HW211424   3.987   4.761   5.318 -0.4028  0.2474 -0.7105
 3509SOL     OW11425   1.431   2.198   4.241 -0.6020  0.0039  0.0498
 3509SOL    HW111426   1.465   2.281   4.196 -0.5151 -0.1425 -0.1556
 3509SOL    HW211427   1.394   2.222   4.331  0.6356  0.0802  0.5645
 3510SOL     OW11428   2.807   0.903   4.831  0.2796 -0.2235 -0.2194
 3510SOL    HW111429   2.737   0.844   4.871 -0.7401  1.5487  0.7388
 3510SOL    HW211430   2.867   0.938   4.902 -0.8306  2.0174 -0.2619
 3511SOL     OW11431   2.605   6.925   3.347 -0.3220  0.0420  0.1547
 3511SOL    HW111432   2.653   6.920   3.260  1.2890  0.5285  0.9736
 3511SOL    HW211433   2.569   6.834   3.371 -0.7389 -0.1001 -0.9648
 3512SOL     OW11434   6.210   6.274   1.377 -0.3319  0.0485  0.1718
 3512SOL    HW111435   6.219   6.193   1.318  2.9467  0.7876 -0.5431
 3512SOL    HW211436   6.147   6.339   1.335 -0.5194 -0.7743 -0.8619
 3513SOL     OW11437   6.577   1.891   5.958  0.0891 -0.2011 -0.2222
 3513SOL    HW111438   6.657   1.858   5.909 -0.3034 -1.2100 -0.2169
 3513SOL    HW211439   6.561   1.833   6.038 -0.3815  0.2652  0.0301
 3514SOL     OW11440   3.159   6.784   0.575  0.3723 -0.1670 -0.1323
 3514SOL    HW111441   3.251   6.772   0.537  0.4468 -1.6597  0.4406
 3514SOL    HW211442   3.148   6.724   0.654 -0.9679  0.2951  0.0562
 3515SOL     OW11443   6.321   1.648   0.796 -0.1595 -0.3998  0.2093
 3515SOL    HW111444   6.373   1.563   0.802 -0.3745 -0.7207 -1.9853
 3515SOL    HW211445   6.224   1.627   0.783 -0.1193  0.1510 -1.1041
 3516SOL     OW11446   5.797   3.166   4.800 -0.0007  0.2177  0.4406
 3516SOL    HW111447   5.770   3.259   4.775 -0.1054  0.1751  0.3952
 3516SOL    HW211448   5.728   3.101   4.768 -0.5834  0.2393  1.5902
 3517SOL     OW11449   2.798   6.671   6.573 -0.4199  0.3929 -0.0301
 3517SOL    HW111450   2.831   6.713   6.488  0.7522  0.7685  0.5894
 3517SOL    HW211451   2.865   6.604   6.605 -0.4778  0.8257  1.0152
 3518SOL     OW11452   6.040   6.815   0.962  0.0742  0.3277 -0.5183
 3518SOL    HW111453   6.138   6.825   0.979 -0.4638  1.5224  2.4646
 3518SOL    HW211454   6.007   6.731   1.004 -0.2260 -0.0204 -1.4275
 3519SOL     OW11455   1.036   3.662   6.554  0.3402 -0.4016  0.1815
 3519SOL    HW111456   1.032   3.599   6.632  2.8935 -0.2098  0.5627
 3519SOL    HW211457   1.121   3.714   6.558  0.4712 -0.2561 -2.6404
 3520SOL     OW11458   2.531   5.959   4.789 -0.1050 -0.0330  0.4434
 3520SOL    HW111459   2.445   5.909   4.805  0.3724 -2.3173 -2.9573
 3520SOL    HW211460   2.596   5.938   4.861 -1.4468 -0.5924  1.5366
 3521SOL     OW11461   2.693   1.970   0.910  0.0974  0.3617 -0.2027
 3521SOL    HW111462   2.733   1.946   0.999  1.9490 -1.6034 -1.4642
 3521SOL    HW211463   2.611   2.024   0.925  0.0665 -0.2867  2.7278
 3522SOL     OW11464   4.585   0.153   0.410  0.2806  0.1116  0.7023
 3522SOL    HW111465   4.563   0.139   0.314  2.0922  1.7570 -0.0436
 3522SOL    HW211466   4.507   0.193   0.457 -0.4822 -0.3007 -0.1848
 3523SOL     OW11467   1.101   5.366   0.108  0.4390  0.0675 -0.0070
 3523SOL    HW111468   1.182   5.357   0.050 -1.0694  0.7908 -2.3674
 3523SOL    HW211469   1.079   5.463   0.120  0.0043 -0.1133  0.7408
 3524SOL     OW11470   6.672   1.842   1.672  0.5598 -0.5909 -0.4053
 3524SOL    HW111471   6.618   1.845   1.588 -0.6582  0.2140  0.3806
 3524SOL    HW211472   6.699   1.934   1.698  0.7953 -0.8142  0.1668
 3525SOL     OW11473   3.460   1.067   4.506  0.0665 -0.8924  0.5117
 3525SOL    HW111474   3.534   1.030   4.563  0.9082  0.5615  0.4245
 3525SOL    HW211475   3.405   1.131   4.560 -0.0671 -0.6654  0.1095
 3526SOL     OW11476   0.734   2.552   4.815 -0.0613 -0.1634  0.5085
 3526SOL    HW111477   0.813   2.501   4.848 -1.2938 -2.2266  0.4236
 3526SOL    HW211478   0.691   2.502   4.740 -0.3930  1.8464 -0.7222
 3527SOL     OW11479   1.848   5.156   5.614  0.6173 -0.2594 -0.8105
 3527SOL    HW111480   1.944   5.170   5.640  0.4438 -0.1007 -0.2382
 3527SOL    HW211481   1.844   5.112   5.525  1.2186  0.3013 -1.1223
 3528SOL     OW11482   1.427   4.847   5.379 -0.3476  0.2608 -0.2057
 3528SOL    HW111483   1.452   4.911   5.452 -0.2081  0.8525 -0.7737
 3528SOL    HW211484   1.462   4.879   5.292 -0.2702 -0.5941 -0.5035
 3529SOL     OW11485   1.961   4.618   6.344 -0.2081 -0.3301  0.6532
 3529SOL    HW111486   1.876   4.655   6.382 -0.2639  0.2030  0.0339
 3529SOL    HW211487   1.965   4.639   6.246  0.9519  0.2470  0.8152
 3530SOL     OW11488   0.262   6.138   5.375 -0.3327 -0.1784  0.3726
 3530SOL    HW111489   0.344   6.193   5.387 -1.0228  1.0840 -0.4578
 3530SOL    HW211490   0.287   6.041   5.368  1.1738  0.2556 -0.7584
 3531SOL     OW11491   5.173   4.670   1.282  0.6034  0.1016  0.0400
 3531SOL    HW111492   5.216   4.580   1.282 -0.2971 -0.3387 -0.4646
 3531SOL    HW211493   5.101   4.673   1.213  0.9847  1.3878 -0.3280
 3532SOL     OW11494   4.589   6.449   3.550  0.2113 -0.4267  0.0536
 3532SOL    HW111495   4.497   6.412   3.563 -0.1876  0.3796 -0.3678
 3532SOL    HW211496   4.653   6.405   3.613 -0.4685 -0.9853  0.3560
 3533SOL     OW11497   0.950   4.979   0.486  0.2551 -0.2795  0.0351
 3533SOL    HW111498   0.893   5.031   0.422  1.4985  1.0298 -0.0576
 3533SOL    HW211499   0.896   4.955   0.567 -0.4217  0.9938 -0.0220
 3534SOL     OW11500   5.451   1.420   6.207 -0.2966 -0.1212 -0.6093
 3534SOL    HW111501   5.432   1.322   6.207 -1.2009  0.0327 -1.8371
 3534SOL    HW211502   5.522   1.440   6.274 -0.5652 -1.5179  0.1360
 3535SOL     OW11503   4.157   6.632   5.425 -0.7049  0.0320  0.0401
 3535SOL    HW111504   4.078   6.579   5.391  0.4980 -0.9650 -1.3603
 3535SOL    HW211505   4.229   6.569   5.453  0.9458  0.8579 -2.0725
 3536SOL     OW11506   6.658   6.844   2.215  0.3214  0.6301  0.3187
 3536SOL    HW111507   6.745   6.844   2.167 -0.7696  0.4614 -1.7644
 3536SOL    HW211508   6.659   6.773   2.285  1.1553 -0.7786 -1.0623
 3537SOL     OW11509   2.027   2.717   2.999 -0.3382  1.3664 -0.6367
 3537SOL    HW111510   2.062   2.798   2.951  1.1672  0.4388 -1.1777
 3537SOL    HW211511   1.974   2.661   2.935  1.3762  0.3058 -1.1889
 3538SOL     OW11512   4.425   0.600   5.468 -0.5170  0.3947  0.2025
 3538SOL    HW111513   4.511   0.635   5.430 -0.8958  0.4575 -0.6039
 3538SOL    HW211514   4.438   0.505   5.496 -0.9243 -0.5627 -2.5586
 3539SOL     OW11515   1.434   2.828   5.246  0.2763 -0.4159 -0.7713
 3539SOL    HW111516   1.374   2.897   5.285 -1.9330 -1.7237 -1.6711
 3539SOL    HW211517   1.495   2.870   5.179  1.4006  1.1732  1.1366
 3540SOL     OW11518   6.055   5.074   6.527 -0.1936 -0.3149  0.1626
 3540SOL    HW111519   6.112   5.148   6.564 -0.0356 -1.5056  2.5164
 3540SOL    HW211520   6.082   4.988   6.570 -1.0472 -1.6044 -1.7711
 3541SOL     OW11521   4.702   3.430   1.502 -0.0610 -0.0440  0.6137
 3541SOL    HW111522   4.785   3.375   1.511  0.1068  0.0553 -0.2953
 3541SOL    HW211523   4.689   3.457   1.407 -1.0498  0.0858  0.7735
 3542SOL     OW11524   2.112   4.706   1.476 -0.3967 -0.0905  0.3637
 3542SOL    HW111525   2.203   4.673   1.451 -1.2876 -2.6591  0.1972
 3542SOL    HW211526   2.106   4.714   1.576 -0.3836 -1.3242  0.4828
 3543SOL     OW11527   5.136   5.927   4.020 -0.5786  0.4220 -0.1842
 3543SOL    HW111528   5.232   5.951   4.006 -0.8019  1.2081 -0.3995
 3543SOL    HW211529   5.106   5.865   3.948 -0.3732  0.5786 -0.4050
 3544SOL     OW11530   5.728   2.916   5.823  0.5899  0.2155 -0.4820
 3544SOL    HW111531   5.818   2.890   5.788  1.7583  0.8740  1.8340
 3544SOL    HW211532   5.685   2.980   5.759  2.3939  0.9892 -0.9998
 3545SOL     OW11533   2.040   3.886   0.389  0.5645  0.3345  0.2392
 3545SOL    HW111534   2.085   3.815   0.334 -1.0056 -0.0183 -0.6392
 3545SOL    HW211535   2.024   3.850   0.481  2.1936  0.5321  0.6356
 3546SOL     OW11536   5.059   3.212   2.400  0.6514  0.0442 -0.3558
 3546SOL    HW111537   5.018   3.274   2.466  2.3966  2.1055 -1.1007
 3546SOL    HW211538   5.114   3.144   2.448  0.3651  0.3286  0.3856
 3547SOL     OW11539   0.633   1.190   3.249 -0.3584 -0.2722  0.0185
 3547SOL    HW111540   0.555   1.236   3.292  1.1350  0.9952  1.5172
 3547SOL    HW211541   0.638   1.217   3.153 -0.8011  0.9921  0.3236
 3548SOL     OW11542   2.675   5.346   6.880  0.0183  0.0431 -0.7656
 3548SOL    HW111543   2.740   5.417   6.853 -1.0922  0.6045 -2.1107
 3548SOL    HW211544   2.641   5.299   6.798  0.8085 -2.1821  0.0763
 3549SOL     OW11545   1.689   5.713   6.806 -0.6434  0.2553  0.2125
 3549SOL    HW111546   1.737   5.735   6.721 -1.0561  1.7666  0.3463
 3549SOL    HW211547   1.608   5.658   6.785 -1.5012  1.7605 -0.5507
 3550SOL     OW11548   0.859   3.272   2.280  0.1331 -0.8983 -0.0651
 3550SOL    HW111549   0.880   3.296   2.185 -1.7038  0.0446 -0.2851
 3550SOL    HW211550   0.765   3.301   2.301  1.1470  0.7813  2.6478
 3551SOL     OW11551   5.660   1.547   0.999  0.2228  0.3007 -0.1212
 3551SOL    HW111552   5.582   1.593   0.957  0.5200  2.0199  1.1035
 3551SOL    HW211553   5.676   1.459   0.954 -2.2363  0.0274 -0.5537
 3552SOL     OW11554   2.048   4.320   2.624 -0.0472  0.1104 -0.9127
 3552SOL    HW111555   2.035   4.387   2.551  0.8999  1.0495 -0.2432
 3552SOL    HW211556   2.105   4.244   2.590 -0.1158  0.2379 -1.3185
 3553SOL     OW11557   3.883   3.829   4.962 -0.4995  0.2416 -1.1816
 3553SOL    HW111558   3.893   3.852   5.059  1.9273  0.6973 -1.4681
 3553SOL    HW211559   3.866   3.913   4.910 -2.0433 -0.0329 -1.1559
 3554SOL     OW11560   1.877   6.115   2.624 -0.7697  0.2215 -0.5936
 3554SOL    HW111561   1.869   6.207   2.586  0.5731  0.4608 -0.3706
 3554SOL    HW211562   1.836   6.049   2.562  0.2386  0.7433 -1.8606
 3555SOL     OW11563   5.049   5.064   4.348  0.2192  0.8243  0.2553
 3555SOL    HW111564   4.950   5.048   4.340  0.6511 -2.0905 -0.6407
 3555SOL    HW211565   5.086   5.086   4.258  0.8963 -2.3470 -0.3551
 3556SOL     OW11566   0.945   6.088   5.692 -0.5259 -0.7676 -0.1915
 3556SOL    HW111567   0.980   6.052   5.606 -2.4094  0.9563 -1.7897
 3556SOL    HW211568   0.849   6.061   5.703 -1.3098  1.6714 -0.3252
 3557SOL     OW11569   5.094   1.882   5.112  0.0466 -0.2755  0.0071
 3557SOL    HW111570   5.112   1.855   5.206  1.8618 -0.9427 -0.4823
 3557SOL    HW211571   5.050   1.807   5.063 -0.3851 -0.1317  0.1694
 3558SOL     OW11572   6.726   5.063   6.799 -0.0697  0.0440  0.6036
 3558SOL    HW111573   6.783   4.982   6.805  1.7358  1.1469 -0.6372
 3558SOL    HW211574   6.765   5.136   6.855 -0.2311  0.8289 -0.2790
 3559SOL     OW11575   0.711   0.594   1.266  0.0724  0.1620  0.2912
 3559SOL    HW111576   0.635   0.575   1.328 -0.0722 -0.4765 -0.0785
 3559SOL    HW211577   0.785   0.638   1.317  0.6564 -1.8912  1.3059
 3560SOL     OW11578   4.136   6.647   2.232  0.0913 -0.3002  0.5229
 3560SOL    HW111579   4.173   6.633   2.324 -0.8003  1.8555  1.2915
 3560SOL    HW211580   4.186   6.721   2.188  0.9977 -1.7986 -1.0700
 3561SOL     OW11581   1.292   3.108   4.158 -0.0956  0.4301  0.1524
 3561SOL    HW111582   1.333   3.026   4.119 -0.7209  0.4848 -0.6416
 3561SOL    HW211583   1.198   3.089   4.185 -0.7681  1.2666 -1.4689
 3562SOL     OW11584   4.667   2.272   1.564 -0.0443 -0.0034  0.0932
 3562SOL    HW111585   4.709   2.224   1.641 -1.0056 -1.0333  0.0124
 3562SOL    HW211586   4.717   2.356   1.544  1.5021 -0.8111  0.4649
 3563SOL     OW11587   2.948   6.547   1.852 -0.6063 -0.5484 -0.0984
 3563SOL    HW111588   2.864   6.598   1.866  0.0209  0.1771  1.2318
 3563SOL    HW211589   2.975   6.503   1.938  0.1170 -1.1805 -0.6305
 3564SOL     OW11590   4.917   6.013   1.641 -0.3224 -0.4664 -0.2504
 3564SOL    HW111591   4.957   6.046   1.727 -1.1800 -1.6291  0.6318
 3564SOL    HW211592   4.870   6.089   1.595 -0.4953  0.0135  0.6846
 3565SOL     OW11593   0.398   1.852   6.142  0.3668 -0.2634  0.0476
 3565SOL    HW111594   0.381   1.927   6.078  1.4585  1.6994  1.9274
 3565SOL    HW211595   0.320   1.845   6.206  0.6942 -0.0749  0.4717
 3566SOL     OW11596   1.948   6.612   4.459 -0.2921  0.2390  0.2014
 3566SOL    HW111597   1.922   6.554   4.537  0.0990  0.9007  0.8336
 3566SOL    HW211598   1.946   6.708   4.487 -0.3012  0.4939 -0.6587
 3567SOL     OW11599   4.144   4.784   4.521  0.2861 -0.0411 -0.2277
 3567SOL    HW111600   4.209   4.735   4.579  0.8376  1.5439  0.5566
 3567SOL    HW211601   4.054   4.785   4.566  0.4095  0.1337  0.0190
 3568SOL     OW11602   0.797   5.963   4.849  0.1080  0.2059  0.5663
 3568SOL    HW111603   0.771   5.895   4.781 -0.2925  0.7638  0.1567
 3568SOL    HW211604   0.843   5.917   4.926  1.9045 -0.2793 -0.7300
 3569SOL     OW11605   5.451   2.979   6.925 -0.6839  0.4703 -0.0818
 3569SOL    HW111606   5.363   2.932   6.923 -1.2757  1.5114  0.5968
 3569SOL    HW211607   5.448   3.056   6.860 -0.4059  0.7231  0.2042
 3570SOL     OW11608   4.348   5.597   0.667  0.3395 -0.4357 -0.1661
 3570SOL    HW111609   4.381   5.528   0.731 -1.3129 -0.3341  0.8663
 3570SOL    HW211610   4.421   5.662   0.647  1.3348 -1.3478  0.3946
 3571SOL     OW11611   0.627   4.390   3.023 -0.3942 -0.1276 -0.1739
 3571SOL    HW111612   0.670   4.459   3.082 -0.6462 -0.4903  0.4467
 3571SOL    HW211613   0.656   4.299   3.052  0.1782 -0.2856 -1.1820
 3572SOL     OW11614   6.959   4.743   0.206  0.0755  0.1140 -0.8901
 3572SOL    HW111615   6.960   4.719   0.303  1.4034  0.2480 -0.8539
 3572SOL    HW211616   6.955   4.659   0.151 -0.6913  0.0384 -0.7273
 3573SOL     OW11617   2.892   3.472   2.682  0.3202  0.6990  0.0715
 3573SOL    HW111618   2.943   3.473   2.768 -1.6906  1.7273  1.3554
 3573SOL    HW211619   2.874   3.566   2.653  1.1112  0.3623 -1.6090
 3574SOL     OW11620   6.159   3.106   3.540 -0.3692 -0.2631 -0.3139
 3574SOL    HW111621   6.169   3.045   3.462  0.1983 -1.3949  0.6162
 3574SOL    HW211622   6.222   3.078   3.613 -0.6938  0.9274  0.4569
 3575SOL     OW11623   3.496   2.918   2.334 -0.3344 -0.2925  0.3749
 3575SOL    HW111624   3.482   2.895   2.430 -1.7092  0.2797  0.3381
 3575SOL    HW211625   3.408   2.938   2.291  0.4716  2.8451 -0.1203
 3576SOL     OW11626   1.895   2.497   2.855 -0.0367  0.0132 -0.5073
 3576SOL    HW111627   1.979   2.500   2.800  0.4218 -1.4129  0.0719
 3576SOL    HW211628   1.824   2.448   2.805 -0.4263  0.8956 -0.8411
 3577SOL     OW11629   2.782   6.969   6.149 -0.2547 -0.3575 -0.8197
 3577SOL    HW111630   2.720   6.924   6.213  0.5792  0.6591  0.7537
 3577SOL    HW211631   2.860   6.909   6.131  0.2749 -0.0450  0.3524
 3578SOL     OW11632   3.283   6.451   4.729 -0.3363 -0.1486  0.0605
 3578SOL    HW111633   3.369   6.500   4.740  0.5959 -0.8920 -3.0226
 3578SOL    HW211634   3.207   6.511   4.755  0.8232  2.5057 -2.2337
 3579SOL     OW11635   1.925   0.857   6.833  0.0408  0.3753  0.0529
 3579SOL    HW111636   1.878   0.944   6.814 -1.0843 -0.5197 -1.5394
 3579SOL    HW211637   2.001   0.846   6.768 -1.2991 -0.8667 -1.3780
 3580SOL     OW11638   1.228   1.211   3.870  1.0001 -0.4642 -0.1610
 3580SOL    HW111639   1.244   1.145   3.943  1.7700 -0.8992 -0.7104
 3580SOL    HW211640   1.314   1.258   3.847  0.5340  0.4858 -0.0162
 3581SOL     OW11641   1.737   3.896   2.505  0.2758  0.6646  0.1301
 3581SOL    HW111642   1.722   3.825   2.574 -0.8497  0.8453  0.0964
 3581SOL    HW211643   1.816   3.871   2.448  0.9793  0.3238  1.2204
 3582SOL     OW11644   2.915   6.623   7.005  0.2218  0.1529 -0.5101
 3582SOL    HW111645   2.962   6.561   7.069  0.0098  1.3401  0.8478
 3582SOL    HW211646   2.875   6.569   6.931 -0.7457 -1.4715  1.0923
 3583SOL     OW11647   5.620   4.943   2.582  0.1344 -0.1785  0.3360
 3583SOL    HW111648   5.619   4.996   2.498  0.3833 -0.0662  0.3995
 3583SOL    HW211649   5.547   4.974   2.643  1.1790  1.1124  0.9815
 3584SOL     OW11650   6.194   4.817   5.140  0.3754  0.5592 -0.1010
 3584SOL    HW111651   6.119   4.757   5.166  1.8781 -0.4058  2.3237
 3584SOL    HW211652   6.279   4.764   5.133  1.4386  2.0984  0.4761
 3585SOL     OW11653   6.629   5.865   3.905 -0.4565 -0.1466 -0.2876
 3585SOL    HW111654   6.550   5.927   3.912 -3.4588 -3.6016 -0.7507
 3585SOL    HW211655   6.630   5.823   3.815  1.5255 -0.7862 -0.0065
 3586SOL     OW11656   2.199   2.895   2.534  0.1857 -0.7966 -0.4373
 3586SOL    HW111657   2.135   2.899   2.458 -0.4772 -0.8182  0.1073
 3586SOL    HW211658   2.255   2.812   2.527 -0.7471 -1.4597 -0.2192
 3587SOL     OW11659   3.625   3.211   4.255 -0.8283  0.0535 -0.6330
 3587SOL    HW111660   3.625   3.308   4.230  1.8427  0.5217  0.8145
 3587SOL    HW211661   3.593   3.202   4.349 -1.0771 -0.4827 -0.7700
 3588SOL     OW11662   6.475   5.603   6.488  0.0120  0.4175  0.3190
 3588SOL    HW111663   6.398   5.664   6.469 -2.7299 -2.4476  1.4058
 3588SOL    HW211664   6.491   5.599   6.587  1.9279  1.2845  0.0923
 3589SOL     OW11665   4.553   4.700   3.364 -0.1328  0.1140  0.0742
 3589SOL    HW111666   4.635   4.653   3.396 -1.1835 -1.6090  0.3214
 3589SOL    HW211667   4.544   4.788   3.412  1.1784  0.0048  0.5508
 3590SOL     OW11668   2.973   4.498   0.383  0.1862 -0.0256  0.5273
 3590SOL    HW111669   2.905   4.523   0.314  0.5339 -0.2403  0.0996
 3590SOL    HW211670   3.024   4.419   0.351 -0.6575 -1.0850  1.6941
 3591SOL     OW11671   1.484   6.393   6.863  0.5773 -0.0605  0.0998
 3591SOL    HW111672   1.575   6.401   6.821 -0.6897  1.2929 -2.6861
 3591SOL    HW211673   1.444   6.305   6.838 -0.6725  1.2171 -2.9726
 3592SOL     OW11674   3.591   1.406   3.909 -0.4442 -0.4644  0.7807
 3592SOL    HW111675   3.586   1.412   4.008  0.7197  0.7495  0.7948
 3592SOL    HW211676   3.659   1.471   3.875 -1.2176 -0.4669 -0.8598
 3593SOL     OW11677   1.103   0.656   1.288 -0.1306 -0.6583  0.0722
 3593SOL    HW111678   1.156   0.724   1.338 -0.9685 -0.4151  0.6426
 3593SOL    HW211679   1.112   0.567   1.334 -1.2813 -0.3394  0.9749
 3594SOL     OW11680   2.340   2.483   5.313 -0.4562  0.1950 -0.0301
 3594SOL    HW111681   2.381   2.393   5.302 -0.2686  0.0988  1.3467
 3594SOL    HW211682   2.240   2.475   5.310 -0.4354 -0.0395 -0.0483
 3595SOL     OW11683   4.588   4.642   3.724  0.0219  0.1343 -0.2451
 3595SOL    HW111684   4.533   4.628   3.642 -0.3725  0.4333 -0.0332
 3595SOL    HW211685   4.671   4.586   3.719  1.1636  1.8443 -1.9127
 3596SOL     OW11686   5.754   1.685   3.644  0.0691 -0.0209  0.2750
 3596SOL    HW111687   5.661   1.705   3.613 -1.0135 -3.7030  0.6548
 3596SOL    HW211688   5.795   1.617   3.583  0.0545 -3.1245  3.4035
 3597SOL     OW11689   0.201   4.971   2.685 -0.0779 -1.0462  0.1102
 3597SOL    HW111690   0.168   4.966   2.591  1.9187 -3.1691 -0.5722
 3597SOL    HW211691   0.301   4.976   2.685 -0.0365 -0.9109  2.1480
 3598SOL     OW11692   4.808   1.888   5.366  0.3633 -0.0623  0.0134
 3598SOL    HW111693   4.731   1.950   5.349 -0.6738 -1.6911 -1.5645
 3598SOL    HW211694   4.782   1.822   5.437 -0.2292 -1.4181 -1.4198
 3599SOL     OW11695   4.093   6.315   6.677 -0.0173 -0.6079  0.1317
 3599SOL    HW111696   4.084   6.264   6.592  1.1542  0.2452 -0.5235
 3599SOL    HW211697   4.165   6.275   6.734  1.5652  0.7876 -0.7943
 3600SOL     OW11698   6.148   5.940   2.706  0.0521  0.4050  0.9929
 3600SOL    HW111699   6.226   5.879   2.718  1.0436  1.6117  0.9114
 3600SOL    HW211700   6.069   5.905   2.757 -0.2371 -2.3178 -1.1330
 3601SOL     OW11701   3.881   4.557   0.348  0.3231  0.0742  0.1461
 3601SOL    HW111702   3.817   4.597   0.282  1.0569  2.4587  0.7694
 3601SOL    HW211703   3.840   4.558   0.439  0.2518 -0.9233  0.1375
 3602SOL     OW11704   1.803   4.600   4.517  0.4581  0.3661 -0.5051
 3602SOL    HW111705   1.731   4.552   4.467 -0.3148  0.0770  0.8381
 3602SOL    HW211706   1.865   4.534   4.559  0.2898  0.5675  0.0695
 3603SOL     OW11707   4.621   6.929   4.177  0.5442 -0.6624  0.5177
 3603SOL    HW111708   4.527   6.947   4.148  0.4755  0.5552  1.4174
 3603SOL    HW211709   4.684   6.948   4.102  0.2619  1.1152  0.6983
 3604SOL     OW11710   3.807   6.129   2.916 -0.3177  0.2984 -0.8104
 3604SOL    HW111711   3.856   6.067   2.979 -1.7011  0.7207  0.7623
 3604SOL    HW211712   3.830   6.105   2.822 -0.0369 -1.9841 -0.2415
 3605SOL     OW11713   5.454   1.107   4.598 -0.1003 -0.4182  0.0206
 3605SOL    HW111714   5.497   1.174   4.658  0.4168 -0.3704 -0.4005
 3605SOL    HW211715   5.369   1.075   4.640 -0.2538  0.3461  0.3188
 3606SOL     OW11716   5.290   2.112   0.030 -0.0551  0.6500  0.4350
 3606SOL    HW111717   5.286   2.054   0.111  3.4060 -1.5413 -0.7725
 3606SOL    HW211718   5.364   2.179   0.040  2.0013 -1.1495 -1.6659
 3607SOL     OW11719   4.082   1.918   6.335 -0.2165  0.0249 -0.7361
 3607SOL    HW111720   4.124   1.952   6.251 -1.1669  3.6302  0.0759
 3607SOL    HW211721   3.993   1.879   6.314 -0.8749  1.7699 -1.4000
 3608SOL     OW11722   6.386   4.887   2.978 -0.1348 -0.1043 -0.2977
 3608SOL    HW111723   6.391   4.984   2.957 -0.5368 -0.1144 -0.4479
 3608SOL    HW211724   6.343   4.838   2.902  0.5046 -0.4679 -0.4291
 3609SOL     OW11725   3.184   5.538   0.588 -0.2235 -0.1114  0.0193
 3609SOL    HW111726   3.250   5.537   0.663 -1.3607 -1.0740  1.0678
 3609SOL    HW211727   3.104   5.483   0.613 -1.1605  0.4961 -1.4469
 3610SOL     OW11728   6.536   1.794   1.443 -0.0955  0.0032 -0.3331
 3610SOL    HW111729   6.570   1.701   1.435 -0.7381 -0.1633 -1.4515
 3610SOL    HW211730   6.446   1.800   1.400 -0.7274  0.8133  1.0272
 3611SOL     OW11731   2.029   3.860   6.781 -0.5720  0.1065  0.8959
 3611SOL    HW111732   2.031   3.960   6.788  0.2827  0.1324  0.3575
 3611SOL    HW211733   2.073   3.820   6.862  0.3174  0.2011  0.4688
 3612SOL     OW11734   1.695   2.360   5.296 -0.1508  0.6495 -0.3739
 3612SOL    HW111735   1.648   2.448   5.294  0.2623  0.8831 -0.1212
 3612SOL    HW211736   1.762   2.356   5.221  0.6778  1.0418  0.3244
 3613SOL     OW11737   0.216   0.707   3.667 -0.5997  0.2102 -0.4049
 3613SOL    HW111738   0.212   0.786   3.606  0.1197 -0.5647 -1.5089
 3613SOL    HW211739   0.246   0.735   3.758 -1.2101  1.3231 -0.5393
 3614SOL     OW11740   1.654   0.608   4.966 -0.3368  0.4858 -0.1412
 3614SOL    HW111741   1.610   0.669   5.033 -3.2018  0.0549 -1.4731
 3614SOL    HW211742   1.663   0.517   5.006  0.5103  0.8592  0.5634
 3615SOL     OW11743   0.572   2.964   6.595  0.1665  0.0470 -0.4193
 3615SOL    HW111744   0.627   2.968   6.512 -0.7440  2.3488 -0.9943
 3615SOL    HW211745   0.476   2.979   6.571 -0.4614 -1.6964  0.8074
 3616SOL     OW11746   5.813   7.008   3.509  0.5183 -0.3706 -0.2008
 3616SOL    HW111747   5.848   7.094   3.470 -0.0223  0.5848  1.3474
 3616SOL    HW211748   5.876   6.934   3.485  0.7751  0.3414 -1.9419
 3617SOL     OW11749   3.042   1.826   6.123 -0.4510 -0.4414 -0.2172
 3617SOL    HW111750   3.041   1.765   6.202 -1.7340 -3.1361 -2.1361
 3617SOL    HW211751   3.129   1.816   6.074  0.4798  1.4714  0.9395
 3618SOL     OW11752   2.757   0.333   5.097  0.2925 -0.1497  0.3608
 3618SOL    HW111753   2.768   0.253   5.038 -3.7612  0.7442 -2.0583
 3618SOL    HW211754   2.815   0.407   5.064  0.5847 -0.7039 -0.3980
 3619SOL     OW11755   6.486   3.511   3.751 -0.1702  0.3259  0.4624
 3619SOL    HW111756   6.472   3.418   3.784 -1.5141  0.4626  0.3391
 3619SOL    HW211757   6.462   3.517   3.654  0.5317  0.6731  0.2964
 3620SOL     OW11758   3.711   0.639   4.015  0.2475  0.2918  0.1478
 3620SOL    HW111759   3.788   0.602   3.962  1.1423  1.4748  0.5743
 3620SOL    HW211760   3.745   0.679   4.100 -1.1072 -1.1398  1.4358
 3621SOL     OW11761   0.993   0.327   6.475  0.1680  0.0708  0.3300
 3621SOL    HW111762   1.073   0.381   6.450  1.2065 -1.1759  0.8670
 3621SOL    HW211763   0.938   0.308   6.393  0.2710  1.1487  0.0007
 3622SOL     OW11764   1.305   0.279   4.424  0.0867 -0.2160 -0.0007
 3622SOL    HW111765   1.279   0.375   4.432 -0.4787 -0.4283  0.8196
 3622SOL    HW211766   1.369   0.256   4.498  0.4939 -0.3944 -0.3972
 3623SOL     OW11767   1.249   3.498   0.622 -0.3735  0.1793  0.5588
 3623SOL    HW111768   1.224   3.570   0.558  1.4518 -0.4466 -0.9620
 3623SOL    HW211769   1.167   3.451   0.654 -1.4108  1.3805 -0.2704
 3624SOL     OW11770   3.052   0.865   4.210 -0.1553 -0.0972  0.3859
 3624SOL    HW111771   3.137   0.834   4.252  0.7815  0.1886 -1.1970
 3624SOL    HW211772   3.069   0.950   4.159 -0.7771 -1.2695 -1.9238
 3625SOL     OW11773   2.865   2.179   3.739 -0.9917 -0.3681 -0.4476
 3625SOL    HW111774   2.794   2.109   3.730 -0.9372 -0.7477  1.7068
 3625SOL    HW211775   2.840   2.243   3.812  0.8499 -0.4609  0.3033
 3626SOL     OW11776   2.108   5.444   2.626  0.3888  0.3870  0.2360
 3626SOL    HW111777   2.179   5.509   2.597 -0.6513  0.7453 -1.6911
 3626SOL    HW211778   2.026   5.494   2.654  0.3726 -0.0581  1.0034
 3627SOL     OW11779   2.034   2.179   1.520 -0.3860 -0.5764 -0.4817
 3627SOL    HW111780   2.093   2.218   1.449  0.5850 -1.3994 -0.1493
 3627SOL    HW211781   2.016   2.083   1.499 -3.0572  0.0766 -1.4911
 3628SOL     OW11782   1.448   0.965   0.894 -0.1945 -0.2660 -0.1520
 3628SOL    HW111783   1.428   1.047   0.841  0.4996 -0.8911 -1.4186
 3628SOL    HW211784   1.544   0.968   0.924  1.0595 -2.2761 -3.4396
 3629SOL     OW11785   5.074   7.013   2.254 -0.1913 -0.3809  0.0517
 3629SOL    HW111786   5.111   7.072   2.327 -2.9500  0.5618  0.8022
 3629SOL    HW211787   5.078   7.062   2.167 -0.3632  0.0129  0.2608
 3630SOL     OW11788   0.320   1.412   4.340 -0.1447 -0.2662  0.3750
 3630SOL    HW111789   0.283   1.361   4.417 -1.3422  0.4416  0.2939
 3630SOL    HW211790   0.420   1.415   4.346 -0.2598  0.7221  2.5204
 3631SOL     OW11791   4.780   5.816   5.544 -0.4459  0.1523 -0.6951
 3631SOL    HW111792   4.851   5.756   5.582  0.0798  1.4416  0.4390
 3631SOL    HW211793   4.694   5.767   5.538  0.3323 -1.1927 -1.3158
 3632SOL     OW11794   5.251   5.006   5.873  0.3552  0.2368  0.1527
 3632SOL    HW111795   5.184   4.987   5.945  0.3289  0.4017  0.1713
 3632SOL    HW211796   5.224   5.088   5.823  2.0473  2.0230  1.9958
 3633SOL     OW11797   6.810   2.428   5.602 -0.3783  0.0221  0.1532
 3633SOL    HW111798   6.726   2.454   5.554 -0.1705  1.0250  0.3162
 3633SOL    HW211799   6.868   2.509   5.616  0.7333 -0.6866 -0.1713
 3634SOL     OW11800   3.695   0.422   0.554  0.0803 -0.5606 -0.4133
 3634SOL    HW111801   3.636   0.359   0.604 -0.2179 -0.2283 -0.3463
 3634SOL    HW211802   3.639   0.479   0.493  0.0668  1.1414  1.0958
 3635SOL     OW11803   6.680   6.191   0.543  0.1242 -0.8593  0.2586
 3635SOL    HW111804   6.705   6.286   0.524 -0.8038 -0.7464 -0.4395
 3635SOL    HW211805   6.759   6.132   0.524  0.7715 -0.2245  0.8821
 3636SOL     OW11806   1.110   2.233   3.319 -0.6878 -0.0030 -0.2250
 3636SOL    HW111807   1.082   2.242   3.224  0.1845  2.5860 -0.2998
 3636SOL    HW211808   1.199   2.187   3.323 -1.8217 -2.3509 -0.4210
 3637SOL     OW11809   1.482   4.219   5.215 -0.7666 -0.0944 -0.2174
 3637SOL    HW111810   1.453   4.230   5.310 -1.1011  0.0143 -0.3289
 3637SOL    HW211811   1.554   4.150   5.209 -1.9469 -1.3725 -0.0978
 3638SOL     OW11812   6.996   5.142   5.948  0.2304 -0.0029 -0.2441
 3638SOL    HW111813   7.048   5.074   5.897  1.1550  0.8237 -0.4263
 3638SOL    HW211814   7.059   5.207   5.991 -0.6406  0.9879 -0.4315
 3639SOL     OW11815   2.430   4.081   1.055 -0.2357 -0.4707  0.6058
 3639SOL    HW111816   2.460   4.073   0.960  0.0314  0.2889  0.6165
 3639SOL    HW211817   2.486   4.023   1.114  1.0457  0.7227  0.5876
 3640SOL     OW11818   6.024   0.299   4.025  0.1441  0.6338 -0.0564
 3640SOL    HW111819   6.055   0.375   4.081  2.3121 -0.6334  0.5810
 3640SOL    HW211820   6.093   0.278   3.955 -0.2245 -0.9522  0.0142
 3641SOL     OW11821   1.355   1.060   2.904  0.7983 -0.3333 -0.9377
 3641SOL    HW111822   1.330   1.131   2.838  0.2422 -0.0692 -0.4547
 3641SOL    HW211823   1.405   1.101   2.980 -3.2711  0.4512  1.6208
 3642SOL     OW11824   3.828   4.474   1.303 -0.4255  0.0040 -0.6081
 3642SOL    HW111825   3.864   4.567   1.296 -1.4291  0.3286 -2.0566
 3642SOL    HW211826   3.903   4.408   1.309  0.2874  0.9165  0.9142
 3643SOL     OW11827   6.121   1.557   6.727  0.2917 -0.0009 -0.5420
 3643SOL    HW111828   6.123   1.633   6.792 -1.9188 -0.5290  0.2113
 3643SOL    HW211829   6.120   1.470   6.776 -1.3594 -0.4124 -1.2322
 3644SOL     OW11830   3.957   3.317   0.630  0.0112  0.3221  0.2319
 3644SOL    HW111831   3.883   3.383   0.617 -0.5506 -0.2822  0.3434
 3644SOL    HW211832   3.980   3.312   0.727  0.6735  0.9992  0.1311
 3645SOL     OW11833   3.495   1.468   6.743 -0.1771 -0.8942 -0.5692
 3645SOL    HW111834   3.485   1.424   6.833  2.4619 -1.7144 -0.6106
 3645SOL    HW211835   3.426   1.432   6.681 -1.8432 -0.5708  0.9819
 3646SOL     OW11836   2.956   3.930   6.598  0.4441 -0.1764 -0.1940
 3646SOL    HW111837   3.023   3.876   6.547  0.2204  0.2190 -0.9074
 3646SOL    HW211838   2.909   3.992   6.537  0.5891  0.7335  0.5970
 3647SOL     OW11839   4.341   3.079   6.496  0.3593 -0.1839 -0.6835
 3647SOL    HW111840   4.277   3.154   6.481 -0.6154 -0.7972  0.2079
 3647SOL    HW211841   4.365   3.074   6.593  0.9646 -0.5924 -0.8468
 3648SOL     OW11842   1.438   2.934   4.774  0.1511 -0.1844  0.2677
 3648SOL    HW111843   1.534   2.907   4.771  0.6806  1.0532  2.7380
 3648SOL    HW211844   1.383   2.856   4.802  0.3863 -0.9163 -1.2083
 3649SOL     OW11845   0.618   0.002   2.043  0.6586 -0.6162 -0.6903
 3649SOL    HW111846   0.653   0.066   1.975  2.3930 -3.1799 -2.4134
 3649SOL    HW211847   0.652   0.028   2.133 -0.1785  1.8323 -1.0221
 3650SOL     OW11848   2.732   5.034   3.040  0.0457 -0.0623 -0.2268
 3650SOL    HW111849   2.788   4.966   3.087  1.0412  0.1275 -1.1306
 3650SOL    HW211850   2.694   4.994   2.957 -1.2155 -0.1960  0.3739
 3651SOL     OW11851   3.328   3.361   1.481 -0.3255  0.2775  0.3377
 3651SOL    HW111852   3.272   3.410   1.414  0.9962 -0.1888 -1.1431
 3651SOL    HW211853   3.421   3.398   1.480 -0.2671  0.2510  1.9276
 3652SOL     OW11854   0.202   1.771   0.213 -0.0584  0.3010 -0.0936
 3652SOL    HW111855   0.133   1.704   0.240  0.7934 -0.6896 -0.3329
 3652SOL    HW211856   0.250   1.739   0.132  1.5008  0.3942  0.7556
 3653SOL     OW11857   5.521   2.718   4.948  0.1584 -0.2853 -0.8307
 3653SOL    HW111858   5.611   2.697   4.987 -0.5649 -1.5577  0.2437
 3653SOL    HW211859   5.500   2.815   4.960  1.1776 -0.0792 -0.6614
 3654SOL     OW11860   5.138   3.905   3.115  0.1825 -0.0869 -0.3600
 3654SOL    HW111861   5.127   3.990   3.064  1.7120 -1.3815 -3.0674
 3654SOL    HW211862   5.049   3.859   3.121 -0.9762  2.1683  2.3442
 3655SOL     OW11863   6.224   6.152   2.174  0.0760 -0.3766  0.0903
 3655SOL    HW111864   6.219   6.124   2.270  0.4557 -0.7025  0.0195
 3655SOL    HW211865   6.278   6.084   2.122  1.0528  0.4983 -0.0774
 3656SOL     OW11866   1.681   6.970   1.410 -0.0395  0.5246 -0.5110
 3656SOL    HW111867   1.725   7.038   1.350  0.1601 -0.8440 -1.9875
 3656SOL    HW211868   1.583   6.967   1.389 -0.3161  1.3800  0.5967
 3657SOL     OW11869   5.640   0.539   0.683 -0.1347 -0.2214  0.0955
 3657SOL    HW111870   5.690   0.467   0.731  0.4391 -1.6418 -2.4104
 3657SOL    HW211871   5.703   0.589   0.623 -1.1492  0.0392 -0.7808
 3658SOL     OW11872   4.563   1.313   1.842  0.1552 -0.4760  0.1530
 3658SOL    HW111873   4.585   1.238   1.779  2.0654 -1.8159  2.2612
 3658SOL    HW211874   4.647   1.349   1.882 -0.8692  1.6372  0.5621
 3659SOL     OW11875   5.092   5.110   1.303  0.2881  0.0496 -0.1823
 3659SOL    HW111876   5.021   5.155   1.357 -0.3443 -1.8227  0.6310
 3659SOL    HW211877   5.123   5.028   1.351  0.8555 -0.8104 -1.9392
 3660SOL     OW11878   3.976   2.290   5.676 -0.0382 -0.0690 -0.4829
 3660SOL    HW111879   3.891   2.240   5.659  0.5869 -1.0328 -0.8730
 3660SOL    HW211880   3.966   2.384   5.646 -1.1344 -0.0346 -0.0552
 3661SOL     OW11881   6.468   0.914   0.226 -0.3076  0.3515  0.1072
 3661SOL    HW111882   6.403   0.850   0.185 -1.4362  1.1890  0.5301
 3661SOL    HW211883   6.434   1.008   0.215  0.3476  0.7363  1.1900
 3662SOL     OW11884   5.421   0.286   1.331 -0.4159 -0.3853  0.2813
 3662SOL    HW111885   5.426   0.311   1.235  0.1062 -0.6458  0.2335
 3662SOL    HW211886   5.341   0.228   1.347  0.5659 -1.9685 -0.3894
 3663SOL     OW11887   1.179   5.459   1.019 -1.0263 -0.2087 -0.0626
 3663SOL    HW111888   1.199   5.389   0.950  2.0031  0.3367  0.1434
 3663SOL    HW211889   1.227   5.543   0.996 -0.8875  0.3632  2.1088
 3664SOL     OW11890   5.809   1.910   3.047  0.0587  0.5393 -0.1132
 3664SOL    HW111891   5.861   1.992   3.023 -0.6782  1.3023  0.8264
 3664SOL    HW211892   5.760   1.877   2.967  1.4745  0.1540 -0.8695
 3665SOL     OW11893   2.813   0.170   4.875  0.3104 -0.4948 -0.5318
 3665SOL    HW111894   2.903   0.153   4.834  0.6715 -0.1835  0.1180
 3665SOL    HW211895   2.775   0.254   4.836  0.8219  0.0088  0.0259
 3666SOL     OW11896   6.535   6.865   0.224 -0.3749  0.3711 -0.6306
 3666SOL    HW111897   6.522   6.811   0.141  0.8731 -0.0490 -0.5789
 3666SOL    HW211898   6.490   6.820   0.300  1.4439 -1.1819 -0.3923
 3667SOL     OW11899   4.003   5.225   1.333 -0.3102 -0.3937  0.4795
 3667SOL    HW111900   4.047   5.166   1.400 -0.7462 -0.1499  0.9818
 3667SOL    HW211901   4.048   5.314   1.332 -0.7407 -0.1705  0.9372
 3668SOL     OW11902   6.566   5.013   1.327  1.0303 -0.4061 -0.3082
 3668SOL    HW111903   6.652   5.040   1.373  0.9155 -0.9030  0.2143
 3668SOL    HW211904   6.501   5.088   1.333  1.0780 -0.4017  0.1998
 3669SOL     OW11905   0.226   3.757   3.882  0.9919  0.4806 -0.0808
 3669SOL    HW111906   0.174   3.837   3.853  1.7129  0.3459 -1.8209
 3669SOL    HW211907   0.254   3.704   3.802  0.5959 -1.4914  1.0258
 3670SOL     OW11908   5.114   0.097   0.693 -0.2333 -0.5060 -0.0251
 3670SOL    HW111909   5.048   0.025   0.717 -0.2382 -1.0937 -1.6699
 3670SOL    HW211910   5.133   0.093   0.595 -0.6841  2.1257 -0.2827
 3671SOL     OW11911   5.577   0.973   3.946  0.0697 -0.1880 -0.1599
 3671SOL    HW111912   5.629   0.942   3.866 -0.4702 -0.6378 -0.3459
 3671SOL    HW211913   5.501   1.030   3.916  0.1708  0.0761  0.0775
 3672SOL     OW11914   1.481   3.395   6.036  0.2495 -0.3108 -0.6347
 3672SOL    HW111915   1.527   3.365   6.119  0.7987 -1.9607 -1.5075
 3672SOL    HW211916   1.387   3.422   6.059 -0.1002 -2.1619  0.3193
 3673SOL     OW11917   2.980   0.182   0.359 -0.3286  0.1942 -0.4813
 3673SOL    HW111918   2.953   0.268   0.403 -2.4225 -0.5820 -0.1435
 3673SOL    HW211919   2.972   0.107   0.424 -1.0158 -0.6117 -1.4797
 3674SOL     OW11920   4.553   6.055   5.707  0.5005 -0.1163  0.1619
 3674SOL    HW111921   4.637   6.075   5.657  0.9508 -1.2120  0.4456
 3674SOL    HW211922   4.540   6.124   5.779  2.1026 -0.8681  1.2417
 3675SOL     OW11923   3.534   6.621   6.568  0.3395 -0.3413 -0.2034
 3675SOL    HW111924   3.501   6.527   6.574  0.6253 -0.4147  0.2597
 3675SOL    HW211925   3.597   6.639   6.643  0.6438  0.0798 -0.5533
 3676SOL     OW11926   5.426   2.831   0.487  0.8507 -0.4581 -0.2796
 3676SOL    HW111927   5.409   2.930   0.491  0.3892 -0.5519  0.1305
 3676SOL    HW211928   5.343   2.782   0.515  1.1987 -0.9582 -0.1234
 3677SOL     OW11929   7.004   3.268   3.172 -0.5776  0.4850 -0.5390
 3677SOL    HW111930   7.042   3.297   3.084  1.9633  1.2360  0.7159
 3677SOL    HW211931   7.018   3.340   3.239 -0.0342 -1.1129  1.1342
 3678SOL     OW11932   1.281   2.997   1.550  1.2644  0.2309 -0.2277
 3678SOL    HW111933   1.223   3.058   1.604  1.2451  1.1000 -1.1999
 3678SOL    HW211934   1.358   2.966   1.606  0.4555 -0.0904  0.7481
 3679SOL     OW11935   1.805   1.300   3.682 -0.6860  0.3466 -0.1553
 3679SOL    HW111936   1.763   1.229   3.739 -0.3386 -1.1814 -1.7210
 3679SOL    HW211937   1.772   1.390   3.711 -1.5776 -0.4802  1.5240
 3680SOL     OW11938   7.003   4.164   0.922  0.3720 -0.1376 -0.2061
 3680SOL    HW111939   6.967   4.251   0.956  0.7857 -0.2768  0.6298
 3680SOL    HW211940   7.090   4.180   0.876  0.5609 -0.1239  0.1459
 3681SOL     OW11941   1.633   3.487   6.470  0.1175 -0.0863 -0.7348
 3681SOL    HW111942   1.542   3.516   6.501  0.5894  0.1129  0.4942
 3681SOL    HW211943   1.686   3.567   6.442 -0.6126 -0.3268 -3.0327
 3682SOL     OW11944   4.200   3.580   1.034  0.2858 -0.1979  0.0772
 3682SOL    HW111945   4.291   3.542   1.017 -0.1371 -0.5091 -1.5791
 3682SOL    HW211946   4.164   3.621   0.951 -2.1123 -2.2678 -0.0185
 3683SOL     OW11947   1.164   1.840   6.642 -0.3933  0.0353 -0.0473
 3683SOL    HW111948   1.193   1.815   6.550  0.0551  0.9220 -0.1595
 3683SOL    HW211949   1.065   1.854   6.643 -0.3600  0.3231 -0.4718
 3684SOL     OW11950   5.202   4.453   5.806  0.3113  0.2152  0.0804
 3684SOL    HW111951   5.235   4.419   5.895 -0.3161  1.5332  0.8396
 3684SOL    HW211952   5.104   4.469   5.811  0.1495 -0.3098 -1.0796
 3685SOL     OW11953   3.256   5.402   6.776 -0.1251 -0.0850 -0.3155
 3685SOL    HW111954   3.210   5.489   6.789 -0.2642 -0.3481  1.2718
 3685SOL    HW211955   3.204   5.345   6.713 -0.2211  0.8318 -1.0814
 3686SOL     OW11956   0.703   3.144   0.462  0.5544 -0.6903 -0.2419
 3686SOL    HW111957   0.670   3.050   0.453  0.1578 -0.5024 -0.7655
 3686SOL    HW211958   0.705   3.188   0.372  1.0400 -0.2972 -0.0442
 3687SOL     OW11959   0.214   5.811   1.888 -1.0356  0.2991  0.6244
 3687SOL    HW111960   0.266   5.878   1.836  0.6618  1.2689  3.3592
 3687SOL    HW211961   0.116   5.823   1.870 -0.6579  2.3151 -0.3097
 3688SOL     OW11962   4.851   3.636   2.570  0.1594  0.6290 -0.0436
 3688SOL    HW111963   4.757   3.640   2.535  0.3965  2.2371 -0.5891
 3688SOL    HW211964   4.856   3.686   2.656  0.1829 -0.8940  0.8635
 3689SOL     OW11965   5.483   5.738   3.789  0.1401  0.2987 -0.0627
 3689SOL    HW111966   5.571   5.706   3.825 -0.2051 -0.0933  0.4495
 3689SOL    HW211967   5.480   5.723   3.691 -0.2235 -1.8144  0.2192
 3690SOL     OW11968   0.795   4.446   4.071  0.7816  0.4156 -0.4477
 3690SOL    HW111969   0.737   4.366   4.065  0.2264  0.8275 -0.6533
 3690SOL    HW211970   0.885   4.425   4.033  1.9268 -1.2462  2.7722
 3691SOL     OW11971   1.375   0.785   2.204 -0.2396 -0.0310 -0.1846
 3691SOL    HW111972   1.283   0.779   2.165  0.2968  0.6757 -1.6431
 3691SOL    HW211973   1.423   0.863   2.164  0.9618 -0.3195  0.6342
 3692SOL     OW11974   4.835   5.800   0.354  0.5846 -0.3537 -0.4819
 3692SOL    HW111975   4.818   5.876   0.417 -1.4351 -0.8057 -0.4193
 3692SOL    HW211976   4.920   5.754   0.379  0.3702  0.1371  1.2491
 3693SOL     OW11977   2.127   2.805   5.607  0.1539 -0.0749 -0.3156
 3693SOL    HW111978   2.096   2.891   5.648 -1.6201 -0.6350 -0.3685
 3693SOL    HW211979   2.185   2.755   5.671  0.2181  0.6239  0.1728
 3694SOL     OW11980   6.792   1.248   4.123 -0.6039 -0.2581  0.3045
 3694SOL    HW111981   6.811   1.231   4.220  2.1222  0.4449 -0.0219
 3694SOL    HW211982   6.776   1.161   4.077 -0.7776 -0.6993  1.1677
 3695SOL     OW11983   3.050   1.366   2.359  0.1679 -0.2723 -0.1706
 3695SOL    HW111984   3.094   1.448   2.323 -1.0383  0.2964 -0.3928
 3695SOL    HW211985   3.053   1.293   2.290  0.7039 -0.2279 -0.1984
 3696SOL     OW11986   6.110   0.801   0.847  0.5688  0.3580  0.3029
 3696SOL    HW111987   6.078   0.788   0.753 -2.4901  0.4592  1.2149
 3696SOL    HW211988   6.199   0.846   0.846  0.6320  0.3505 -2.5283
 3697SOL     OW11989   0.389   0.739   5.213 -0.6320  0.3350 -0.0649
 3697SOL    HW111990   0.436   0.740   5.125  0.4934 -0.3447  0.4979
 3697SOL    HW211991   0.421   0.815   5.269  0.8169 -0.8536  0.7996
 3698SOL     OW11992   3.382   0.962   5.446  0.2897 -0.1234 -0.9075
 3698SOL    HW111993   3.306   0.969   5.510  0.3277 -2.5557 -0.4951
 3698SOL    HW211994   3.468   0.955   5.496  0.3645 -1.5587 -1.2055
 3699SOL     OW11995   3.495   2.498   5.538 -0.7430 -0.2250 -0.0132
 3699SOL    HW111996   3.512   2.417   5.483  0.8717 -0.9632  1.4738
 3699SOL    HW211997   3.552   2.573   5.506 -1.8403  0.2078 -1.0436
 3700SOL     OW11998   4.006   5.875   0.769  0.1448 -0.3604  0.1052
 3700SOL    HW111999   4.044   5.785   0.791  2.2078  0.7114  1.2049
 3700SOL    HW212000   4.004   5.886   0.669 -3.0345 -2.7162 -0.2436
 3701SOL     OW12001   1.160   6.827   4.591 -0.4030  0.2552  0.1988
 3701SOL    HW112002   1.139   6.919   4.557  0.1135  0.1960 -0.2862
 3701SOL    HW212003   1.098   6.761   4.549 -0.7117  0.3622  0.4760
 3702SOL     OW12004   6.283   4.491   1.205  0.0447  0.5312 -0.1860
 3702SOL    HW112005   6.190   4.512   1.234  0.4655  0.6354  1.1404
 3702SOL    HW212006   6.326   4.429   1.270 -0.2964 -2.5723 -2.6879
 3703SOL     OW12007   6.849   0.398   5.979 -0.3325  0.6316  0.1449
 3703SOL    HW112008   6.849   0.359   5.887 -0.5350  1.3519 -0.1651
 3703SOL    HW212009   6.943   0.413   6.009 -0.1050 -2.3188  1.2512
 3704SOL     OW12010   2.327   5.005   4.118 -0.3699  0.2587 -0.6783
 3704SOL    HW112011   2.305   5.103   4.112 -1.5790  0.1273  1.0491
 3704SOL    HW212012   2.252   4.956   4.162  0.6230 -1.3128 -0.6527
 3705SOL     OW12013   6.596   2.672   0.820 -0.1870 -0.3905  0.1095
 3705SOL    HW112014   6.652   2.633   0.893 -2.1414 -1.5744  1.0576
 3705SOL    HW212015   6.508   2.702   0.857  0.0308  2.1285 -1.1852
 3706SOL     OW12016   5.887   5.158   6.071 -0.2546  0.0582  0.1751
 3706SOL    HW112017   5.949   5.130   6.143  1.0894 -1.3181 -1.4314
 3706SOL    HW212018   5.845   5.245   6.095  4.1137  2.3679  0.3026
 3707SOL     OW12019   3.296   5.673   6.711  0.1138  0.3758  0.3523
 3707SOL    HW112020   3.374   5.610   6.713  0.4347  0.7431 -0.3203
 3707SOL    HW212021   3.239   5.653   6.631  0.0427  0.7300  0.3133
 3708SOL     OW12022   2.438   1.023   6.856 -0.0803  0.4273  0.3805
 3708SOL    HW112023   2.440   1.122   6.870 -0.9408  0.5662 -0.3954
 3708SOL    HW212024   2.354   0.985   6.894  0.6983 -0.1693  1.5674
 3709SOL     OW12025   2.255   1.369   0.516  0.0104  0.7635 -0.0662
 3709SOL    HW112026   2.246   1.408   0.607 -1.4776  0.1251  0.0906
 3709SOL    HW212027   2.229   1.438   0.448 -2.1117  0.3061  0.1881
 3710SOL     OW12028   3.628   3.525   5.924 -0.1688 -0.0978  0.4277
 3710SOL    HW112029   3.722   3.513   5.955 -0.5597 -1.8203  1.0909
 3710SOL    HW212030   3.566   3.515   6.003 -0.9627 -0.1205 -0.1870
 3711SOL     OW12031   6.651   2.951   6.146  0.6579 -0.2015 -0.4215
 3711SOL    HW112032   6.689   2.930   6.236  2.2300  1.4459 -0.6458
 3711SOL    HW212033   6.723   2.986   6.086 -0.5811 -0.1575 -1.9622
 3712SOL     OW12034   6.759   2.084   0.359 -0.5439  0.5304 -0.3473
 3712SOL    HW112035   6.825   2.145   0.316 -0.0557  0.8724  0.8466
 3712SOL    HW212036   6.689   2.138   0.405  0.5950  0.2899  1.8225
 3713SOL     OW12037   1.531   6.328   3.955  0.2848 -0.0853  0.3906
 3713SOL    HW112038   1.502   6.347   4.049 -2.8671 -0.2737 -0.4119
 3713SOL    HW212039   1.456   6.283   3.906  1.8369 -0.0246 -2.2111
 3714SOL     OW12040   3.684   1.528   4.686 -0.2706  0.3084 -0.4022
 3714SOL    HW112041   3.677   1.519   4.785 -0.5894  1.0098 -0.3557
 3714SOL    HW212042   3.605   1.485   4.643 -0.1243 -0.0102 -0.3593
 3715SOL     OW12043   3.596   1.867   2.712  0.0250 -0.1176  0.0653
 3715SOL    HW112044   3.664   1.800   2.683 -0.6928 -0.0985 -1.8253
 3715SOL    HW212045   3.610   1.891   2.808  3.0940  0.3869 -0.4284
 3716SOL     OW12046   4.445   4.672   0.130  0.3769  0.0024 -0.8176
 3716SOL    HW112047   4.371   4.680   0.197  2.1845  0.6232  1.2219
 3716SOL    HW212048   4.408   4.640   0.043 -2.1435 -0.5141  0.3549
 3717SOL     OW12049   6.856   6.057   2.309 -0.4295 -0.4183  0.0728
 3717SOL    HW112050   6.824   5.993   2.239 -0.8531  0.7362 -0.8308
 3717SOL    HW212051   6.788   6.064   2.382  0.1479 -1.8522  0.7814
 3718SOL     OW12052   2.582   6.541   5.730  0.4246  0.3359 -0.6679
 3718SOL    HW112053   2.519   6.497   5.666  0.2603 -0.5402  0.0800
 3718SOL    HW212054   2.533   6.563   5.814  1.1137 -0.3419 -0.0874
 3719SOL     OW12055   4.349   2.576   0.154 -0.2204 -0.2725 -0.7263
 3719SOL    HW112056   4.435   2.525   0.152  0.3334  0.5353  0.7777
 3719SOL    HW212057   4.316   2.581   0.248 -0.5967  1.5656 -0.9207
 3720SOL     OW12058   5.092   2.286   0.554  0.1103 -0.5211 -0.8393
 3720SOL    HW112059   5.182   2.315   0.586 -0.7737  0.3381  1.0272
 3720SOL    HW212060   5.065   2.341   0.475  0.3532  0.7220 -0.0906
 3721SOL     OW12061   6.240   3.646   6.652  0.4159 -0.3884  0.7267
 3721SOL    HW112062   6.181   3.724   6.631 -0.0924 -1.2527 -1.2621
 3721SOL    HW212063   6.331   3.660   6.612  0.2676 -0.8659  0.2017
 3722SOL     OW12064   2.085   2.231   0.706  0.1670 -0.0888 -0.3920
 3722SOL    HW112065   2.133   2.147   0.731  1.5432  1.0107  0.8749
 3722SOL    HW212066   2.138   2.281   0.638  0.8661  1.0869  0.9458
 3723SOL     OW12067   5.887   0.551   3.260 -0.3770 -0.0200  0.2598
 3723SOL    HW112068   5.850   0.613   3.329  0.9468  0.6553  0.3987
 3723SOL    HW212069   5.835   0.559   3.175 -1.7203 -0.5080  1.0074
 3724SOL     OW12070   6.298   5.874   5.450 -0.7049 -0.2126  0.3078
 3724SOL    HW112071   6.301   5.778   5.422  0.7517 -0.6422  1.7541
 3724SOL    HW212072   6.261   5.880   5.543  1.8198  0.2480  1.3778
 3725SOL     OW12073   4.275   0.408   0.951 -0.2510 -0.0896  0.0895
 3725SOL    HW112074   4.205   0.479   0.949  1.0917  1.2861 -1.3691
 3725SOL    HW212075   4.321   0.408   1.040  0.1931  1.3668 -0.1265
 3726SOL     OW12076   2.746   5.548   0.387  0.4977  0.8132 -0.2811
 3726SOL    HW112077   2.805   5.468   0.398  0.8077  1.1270  0.4070
 3726SOL    HW212078   2.755   5.584   0.294  1.3039  0.7912 -0.2139
 3727SOL     OW12079   3.580   5.551   3.174 -0.2537 -0.0580  0.1848
 3727SOL    HW112080   3.590   5.453   3.187  0.8925 -0.1365 -1.0322
 3727SOL    HW212081   3.483   5.575   3.167 -0.5116 -1.2197 -0.3735
 3728SOL     OW12082   4.562   1.363   2.235  0.4572 -0.5235  0.5940
 3728SOL    HW112083   4.578   1.311   2.319  0.1661 -2.6027 -0.5703
 3728SOL    HW212084   4.591   1.457   2.249  1.0295 -0.9573  2.8085
 3729SOL     OW12085   3.000   1.735   2.057 -0.2365  0.1295 -0.1061
 3729SOL    HW112086   2.923   1.797   2.043 -0.9531 -1.1324 -2.2311
 3729SOL    HW212087   3.086   1.786   2.053 -0.8713  1.2540  0.1863
 3730SOL     OW12088   4.299   2.397   5.369 -0.9529  0.5017  0.3143
 3730SOL    HW112089   4.260   2.447   5.291 -1.2303 -0.2139 -0.0174
 3730SOL    HW212090   4.256   2.308   5.376 -0.0041  0.0431  0.4978
 3731SOL     OW12091   6.520   0.229   1.528  0.1520  0.2788  0.2309
 3731SOL    HW112092   6.483   0.256   1.617 -1.3247 -0.4714 -0.1048
 3731SOL    HW212093   6.491   0.295   1.458  0.8629  0.5848  0.2233
 3732SOL     OW12094   4.460   6.031   6.672 -0.6043  0.6962 -0.3253
 3732SOL    HW112095   4.456   5.935   6.701 -0.8101  0.1301 -2.1202
 3732SOL    HW212096   4.534   6.043   6.606 -0.2219  1.9038  0.3040
 3733SOL     OW12097   1.413   2.282   5.027 -0.1540 -0.9764 -0.1545
 3733SOL    HW112098   1.349   2.294   5.103  2.3986 -2.6251  2.4717
 3733SOL    HW212099   1.462   2.368   5.011 -0.1816 -0.8190  0.5906
 3734SOL     OW12100   1.010   1.496   0.968 -0.1544  0.0867 -0.3168
 3734SOL    HW112101   1.028   1.524   0.874 -1.3530 -0.4639 -0.7219
 3734SOL    HW212102   1.068   1.418   0.992 -0.2894 -0.1661 -0.8112
 3735SOL     OW12103   0.945   2.209   2.401  0.3947  0.0693  0.0200
 3735SOL    HW112104   1.014   2.186   2.334  1.1084  0.9619  0.4230
 3735SOL    HW212105   0.964   2.300   2.439 -1.0415  0.3801  0.0780
 3736SOL     OW12106   5.769   0.825   4.283 -0.4969  0.8024 -0.0097
 3736SOL    HW112107   5.689   0.791   4.232  0.5840  1.2896 -2.1698
 3736SOL    HW212108   5.747   0.911   4.327 -0.9691  1.3793 -1.3151
 3737SOL     OW12109   1.119   4.630   1.573 -0.3722 -0.4739  0.2419
 3737SOL    HW112110   1.029   4.645   1.613 -0.9348 -2.7195 -0.0247
 3737SOL    HW212111   1.108   4.599   1.478  0.7606  0.4867 -0.2256
 3738SOL     OW12112   1.741   5.024   6.350 -0.1854 -0.0767  0.0416
 3738SOL    HW112113   1.741   4.927   6.328 -0.9103  0.5276 -3.0092
 3738SOL    HW212114   1.829   5.048   6.392  1.3642 -1.5086 -2.1330
 3739SOL     OW12115   0.582   6.145   4.553  0.1370  0.1065 -0.1107
 3739SOL    HW112116   0.594   6.127   4.650  2.1347  0.0511 -0.3117
 3739SOL    HW212117   0.667   6.123   4.504 -1.5868 -2.3668 -2.2818
 3740SOL     OW12118   6.210   2.158   2.756 -0.4267 -0.0392  0.0756
 3740SOL    HW112119   6.256   2.150   2.844 -0.4945 -0.1357  0.1024
 3740SOL    HW212120   6.276   2.142   2.683 -0.1855  0.8939  0.0856
 3741SOL     OW12121   4.683   0.713   0.928 -0.2220  0.2341  0.6825
 3741SOL    HW112122   4.624   0.787   0.897 -1.1294  0.0693  1.9440
 3741SOL    HW212123   4.706   0.654   0.851  0.6546  1.8917 -0.3843
 3742SOL     OW12124   3.165   5.347   2.663  0.6904 -0.0423 -0.6537
 3742SOL    HW112125   3.082   5.399   2.680  1.8550  1.1525  1.9920
 3742SOL    HW212126   3.141   5.251   2.648 -1.1857  0.3393 -0.3896
 3743SOL     OW12127   1.229   1.450   6.582 -0.2338 -0.3281  0.4646
 3743SOL    HW112128   1.271   1.504   6.656  0.4394  0.6284 -0.5740
 3743SOL    HW212129   1.201   1.512   6.509 -2.8738 -1.0115  0.7957
 3744SOL     OW12130   4.535   1.759   6.351  0.4384  0.1696 -0.3629
 3744SOL    HW112131   4.449   1.765   6.401  1.1197 -0.3699  0.9093
 3744SOL    HW212132   4.569   1.851   6.331 -0.3994  0.3830 -0.8261
 3745SOL     OW12133   3.961   0.332   2.386 -0.3267  0.3260 -0.0491
 3745SOL    HW112134   4.014   0.251   2.361 -0.6504  0.4667 -1.2347
 3745SOL    HW212135   3.866   0.307   2.401 -0.3720  0.4359 -0.1491
 3746SOL     OW12136   0.250   1.059   5.133 -0.4415 -0.0307 -0.3587
 3746SOL    HW112137   0.170   1.047   5.191 -0.8233 -1.3817 -1.0991
 3746SOL    HW212138   0.233   1.016   5.044 -0.0088  2.2661 -1.6368
 3747SOL     OW12139   5.749   5.004   4.195  0.1155 -0.1927  0.2779
 3747SOL    HW112140   5.780   5.094   4.226  1.2134 -0.3729 -0.2425
 3747SOL    HW212141   5.814   4.968   4.128 -0.7777 -0.9929 -0.1823
 3748SOL     OW12142   3.572   3.033   6.278  0.3458  0.4137  0.0030
 3748SOL    HW112143   3.477   3.001   6.277  1.1307 -2.0864 -0.0620
 3748SOL    HW212144   3.618   2.998   6.359  1.6283  0.3150 -0.7505
 3749SOL     OW12145   5.755   6.811   6.113  0.4112 -0.3146  0.0399
 3749SOL    HW112146   5.705   6.884   6.159  0.6218 -0.4561  0.5068
 3749SOL    HW212147   5.744   6.819   6.014  1.0113  0.7593  0.0539
 3750SOL     OW12148   5.596   2.658   3.735 -0.3664 -0.4314 -0.4698
 3750SOL    HW112149   5.636   2.599   3.805  2.3112 -0.7731 -2.1107
 3750SOL    HW212150   5.604   2.753   3.764  0.2999 -0.5907 -0.0916
 3751SOL     OW12151   4.922   0.332   4.036 -0.3749  0.3262  0.3615
 3751SOL    HW112152   4.841   0.290   3.994 -0.6527  0.5146  0.7070
 3751SOL    HW212153   4.946   0.283   4.120  1.4476 -1.4028 -1.0579
 3752SOL     OW12154   4.899   5.556   4.045 -0.3069  0.3540  0.0847
 3752SOL    HW112155   4.939   5.543   3.955 -0.7691 -0.5851 -0.0008
 3752SOL    HW212156   4.799   5.559   4.037 -0.5574 -2.6078  0.8101
 3753SOL     OW12157   0.002   4.692   2.283  0.3634 -0.3213  0.0625
 3753SOL    HW112158  -0.008   4.630   2.361  0.9930 -0.9359 -0.3341
 3753SOL    HW212159   0.015   4.785   2.316  1.0986 -0.6446  0.7164
 3754SOL     OW12160   2.933   2.246   4.392 -0.5202  0.9197 -0.4628
 3754SOL    HW112161   2.850   2.192   4.380  1.1446 -1.9758  0.0970
 3754SOL    HW212162   2.990   2.241   4.310  0.8774 -0.5264  0.5344
 3755SOL     OW12163   0.790   3.264   3.031  0.1894  0.0815  0.3881
 3755SOL    HW112164   0.855   3.231   2.962 -0.2090  1.1350 -0.5352
 3755SOL    HW212165   0.822   3.352   3.067 -0.2922  0.1969  0.5374
 3756SOL     OW12166   4.298   0.620   4.861  0.2114  0.0625 -0.1173
 3756SOL    HW112167   4.335   0.571   4.782 -0.1480  1.7289 -1.3874
 3756SOL    HW212168   4.360   0.695   4.885  0.0225 -0.0720  0.8406
 3757SOL     OW12169   0.461   4.148   4.823 -0.4988 -0.0503 -0.2730
 3757SOL    HW112170   0.472   4.184   4.915  2.6205  0.9112 -0.8826
 3757SOL    HW212171   0.396   4.204   4.772 -1.8733 -0.2966  1.1503
 3758SOL     OW12172   2.599   2.309   1.409  0.2860 -0.3137  0.2628
 3758SOL    HW112173   2.681   2.366   1.402 -0.3650  0.6439  0.2014
 3758SOL    HW212174   2.520   2.367   1.431 -0.3880 -1.2099  0.2661
 3759SOL     OW12175   1.443   5.950   3.550  0.3004  0.3284 -0.1150
 3759SOL    HW112176   1.435   5.987   3.643  0.5351  1.4275 -0.5302
 3759SOL    HW212177   1.497   5.866   3.553 -1.6494 -0.9862  1.0796
 3760SOL     OW12178   2.158   2.274   4.645  0.4030 -0.0033 -0.4046
 3760SOL    HW112179   2.157   2.373   4.657 -0.0664  0.0128 -0.5256
 3760SOL    HW212180   2.107   2.231   4.719  1.8038 -0.2666  0.4447
 3761SOL     OW12181   6.934   3.985   6.256 -0.0923 -0.5978 -0.0555
 3761SOL    HW112182   7.008   4.002   6.191 -0.5814  1.0156 -0.2480
 3761SOL    HW212183   6.960   4.021   6.346 -0.4888 -0.3730 -0.0295
 3762SOL     OW12184   2.491   2.464   4.066 -0.5184 -0.2236  0.0167
 3762SOL    HW112185   2.457   2.388   4.011  2.1303 -2.7533  1.5778
 3762SOL    HW212186   2.447   2.463   4.156  0.0512 -0.4067  0.3002
 3763SOL     OW12187   1.427   0.056   4.139  0.4237 -0.2672  0.3077
 3763SOL    HW112188   1.420   0.154   4.120  0.6123 -0.0821  1.1351
 3763SOL    HW212189   1.485   0.012   4.071  0.9574  0.3324  0.3704
 3764SOL     OW12190   6.472   1.204   5.065  0.3575 -0.0067  0.1628
 3764SOL    HW112191   6.554   1.246   5.102  0.6059 -0.6234  0.3255
 3764SOL    HW212192   6.467   1.222   4.966  2.2603 -2.4082 -0.4587
 3765SOL     OW12193   6.531   4.777   1.529 -0.2040  0.1144  0.7610
 3765SOL    HW112194   6.623   4.774   1.568 -0.6343  1.7510  2.0093
 3765SOL    HW212195   6.529   4.844   1.454 -0.1370 -0.7510 -0.0376
 3766SOL     OW12196   6.946   2.334   1.937  0.8316  0.6407  0.2544
 3766SOL    HW112197   7.029   2.390   1.936  1.1619  0.1685  0.6083
 3766SOL    HW212198   6.971   2.238   1.951  0.3449  0.2692 -1.1696
 3767SOL     OW12199   6.866   5.107   5.462 -0.2581 -0.3437 -0.3905
 3767SOL    HW112200   6.905   5.190   5.503 -0.1998 -0.1561 -0.8252
 3767SOL    HW212201   6.772   5.125   5.434 -0.6114 -0.7430  0.4917
 3768SOL     OW12202   0.420   0.170   6.824  0.2584 -0.0808 -0.1024
 3768SOL    HW112203   0.364   0.160   6.906  0.3546 -0.0376 -0.0304
 3768SOL    HW212204   0.402   0.094   6.761 -1.3953  0.9804 -0.9916
 3769SOL     OW12205   2.481   4.491   2.885  0.3387 -0.0783  0.2281
 3769SOL    HW112206   2.454   4.470   2.979  1.3020 -1.9034  0.1444
 3769SOL    HW212207   2.401   4.486   2.826  0.1141 -1.2251  0.6093
 3770SOL     OW12208   5.706   6.695   1.317  0.1826 -0.2749  0.7528
 3770SOL    HW112209   5.753   6.761   1.375  2.7981 -1.0350 -0.3736
 3770SOL    HW212210   5.697   6.732   1.224  0.0895 -0.8220  0.5396
 3771SOL     OW12211   6.123   2.024   4.217  0.5347  0.1980 -0.5179
 3771SOL    HW112212   6.120   1.935   4.172  1.1009 -0.1045  0.0145
 3771SOL    HW212213   6.034   2.069   4.208 -0.9465 -1.8727  2.0622
 3772SOL     OW12214   1.459   2.357   3.369  0.0309  0.5346 -0.2340
 3772SOL    HW112215   1.439   2.259   3.366 -1.0745  0.7619 -0.6788
 3772SOL    HW212216   1.553   2.370   3.400  0.3273 -0.6788 -0.5469
 3773SOL     OW12217   1.907   1.674   4.707  0.0151  0.7803 -0.1056
 3773SOL    HW112218   1.935   1.634   4.794  0.0073 -2.6886 -1.5515
 3773SOL    HW212219   1.807   1.679   4.704 -0.0069  0.3185 -0.1555
 3774SOL     OW12220   6.005   2.403   5.629 -0.0144 -0.2573 -0.2304
 3774SOL    HW112221   5.982   2.311   5.595 -1.4035 -0.4169  1.0485
 3774SOL    HW212222   6.067   2.395   5.707 -0.5059 -0.1445  0.1758
 3775SOL     OW12223   4.848   6.964   1.773 -0.2552 -0.0354 -0.2947
 3775SOL    HW112224   4.847   7.048   1.826 -1.1801 -0.8669  1.0681
 3775SOL    HW212225   4.821   6.887   1.831 -1.4723 -0.9854 -2.0088
 3776SOL     OW12226   2.676   0.578   1.092  0.0537 -0.1708  0.1265
 3776SOL    HW112227   2.611   0.641   1.134  1.1902  0.9983  0.1650
 3776SOL    HW212228   2.748   0.556   1.157  0.3646 -0.4874 -0.3213
 3777SOL     OW12229   5.619   4.443   5.490 -0.7028  0.3658  0.1098
 3777SOL    HW112230   5.650   4.469   5.581 -0.5263  0.1178  0.1210
 3777SOL    HW212231   5.594   4.347   5.489  0.5847  0.0087 -0.4257
 3778SOL     OW12232   5.440   2.766   6.205 -0.1660 -0.0673  0.0421
 3778SOL    HW112233   5.413   2.862   6.207  1.6737  0.4858 -0.6876
 3778SOL    HW212234   5.479   2.741   6.294  0.3834  0.1703 -0.1314
 3779SOL     OW12235   6.108   0.667   6.041 -0.1851  0.9142 -0.0386
 3779SOL    HW112236   6.046   0.593   6.014 -0.6303  0.8870  1.0294
 3779SOL    HW212237   6.143   0.712   5.959  1.7818 -1.8350 -0.8913
 3780SOL     OW12238   1.084   1.683   6.392 -0.2249 -0.2373  0.2382
 3780SOL    HW112239   1.099   1.724   6.302 -1.9133 -0.9339 -0.3892
 3780SOL    HW212240   1.008   1.618   6.388 -0.8603  0.2885  2.3496
 3781SOL     OW12241   4.694   0.353   5.460 -0.9360  0.5111  0.3764
 3781SOL    HW112242   4.769   0.287   5.456 -3.3643 -2.4533 -0.3529
 3781SOL    HW212243   4.731   0.446   5.467  2.7687 -0.6193 -1.6164
 3782SOL     OW12244   4.684   2.204   0.349  0.1104 -0.1971 -0.4168
 3782SOL    HW112245   4.775   2.239   0.327 -0.9976  2.2608 -1.4605
 3782SOL    HW212246   4.692   2.112   0.387  3.0365  0.1100 -0.0663
 3783SOL     OW12247   3.274   5.856   2.403 -0.0941  0.2595 -0.0969
 3783SOL    HW112248   3.349   5.804   2.444 -0.0224  1.8802  1.9755
 3783SOL    HW212249   3.311   5.923   2.339  0.1833  0.5997  0.4126
 3784SOL     OW12250   6.850   1.180   0.750  0.0992  0.1837 -0.1934
 3784SOL    HW112251   6.809   1.118   0.816 -0.6432  0.3790 -0.4566
 3784SOL    HW212252   6.847   1.137   0.659 -0.8443  0.7742 -0.4574
 3785SOL     OW12253   6.432   1.189   0.181 -0.0177 -0.5370 -0.0108
 3785SOL    HW112254   6.403   1.214   0.089 -1.0065 -1.6606 -0.0249
 3785SOL    HW212255   6.511   1.244   0.207  1.2024 -1.1934 -2.0986
 3786SOL     OW12256   3.515   1.286   6.181  0.4875  0.0333  1.0014
 3786SOL    HW112257   3.456   1.353   6.136  2.3836  2.9816  2.5723
 3786SOL    HW212258   3.478   1.194   6.167 -1.4038  1.1554 -2.6651
 3787SOL     OW12259   1.372   0.586   5.434 -0.4822 -0.0046 -0.4144
 3787SOL    HW112260   1.350   0.494   5.402 -2.1974  0.3214 -0.2847
 3787SOL    HW212261   1.294   0.646   5.417 -0.4244  0.8172  1.9500
 3788SOL     OW12262   6.595   2.261   0.497  0.1290 -0.1345  0.2057
 3788SOL    HW112263   6.513   2.317   0.491 -1.4822 -2.3398  0.2370
 3788SOL    HW212264   6.634   2.268   0.589 -0.6793  0.1026  0.5339
 3789SOL     OW12265   4.326   2.003   2.265  0.2537  0.0753  0.3256
 3789SOL    HW112266   4.241   2.036   2.306 -0.3367 -0.0984 -0.7166
 3789SOL    HW212267   4.403   2.057   2.299 -0.3360  0.5644  0.9030
 3790SOL     OW12268   6.714   2.466   1.478 -0.0270  0.0459 -0.4513
 3790SOL    HW112269   6.649   2.390   1.489 -2.5229  1.8444 -1.5917
 3790SOL    HW212270   6.789   2.455   1.542 -1.7421 -1.8964  1.4104
 3791SOL     OW12271   5.545   5.007   1.330  0.1805  0.1882 -0.6769
 3791SOL    HW112272   5.502   4.937   1.273  0.4857  0.7252 -1.5908
 3791SOL    HW212273   5.635   5.029   1.292  0.3720  0.5879 -0.0045
 3792SOL     OW12274   0.283   0.357   3.750 -0.1962  0.0260 -0.2330
 3792SOL    HW112275   0.330   0.300   3.681 -2.1282 -1.4963 -0.3787
 3792SOL    HW212276   0.246   0.439   3.706  0.3467  0.0984 -0.5693
 3793SOL     OW12277   5.314   6.631   5.224  0.2019 -0.1583 -0.2043
 3793SOL    HW112278   5.274   6.540   5.235 -0.3720  0.1117  0.0133
 3793SOL    HW212279   5.257   6.685   5.161  1.0996 -0.2802 -1.1500
 3794SOL     OW12280   5.515   6.523   6.487  0.0728  0.3433  0.4819
 3794SOL    HW112281   5.604   6.503   6.528 -1.0298 -0.9191  2.4281
 3794SOL    HW212282   5.509   6.478   6.398  1.7040  1.2588 -0.1325
 3795SOL     OW12283   4.411   6.770   1.683  0.7255 -0.1966 -0.1000
 3795SOL    HW112284   4.438   6.787   1.777  1.3640 -0.6020 -0.2007
 3795SOL    HW212285   4.329   6.712   1.681  0.6401 -0.0855  0.2045
 3796SOL     OW12286   1.914   2.201   3.554  0.4316  0.0139 -0.0490
 3796SOL    HW112287   1.984   2.269   3.576  1.1888 -0.6381 -0.3762
 3796SOL    HW212288   1.892   2.206   3.457  0.9213 -0.5961 -0.1948
 3797SOL     OW12289   2.188   0.235   5.579  0.3582  0.4485  0.1126
 3797SOL    HW112290   2.172   0.155   5.521  0.1138  0.1003  0.6461
 3797SOL    HW212291   2.269   0.284   5.547  1.6321 -1.0663  0.8861
 3798SOL     OW12292   5.289   0.274   4.868  0.1080 -0.1381 -0.7820
 3798SOL    HW112293   5.240   0.358   4.848 -1.3154 -0.6362  0.4387
 3798SOL    HW212294   5.293   0.217   4.786 -0.1201  0.5113 -1.2530
 3799SOL     OW12295   3.927   3.258   5.958  0.1153 -0.2821 -0.7886
 3799SOL    HW112296   3.945   3.349   5.922  0.6126 -0.6234 -1.4250
 3799SOL    HW212297   4.010   3.203   5.952  0.4279 -0.1663  1.4990
 3800SOL     OW12298   5.598   4.271   0.625 -0.0854  0.3659 -0.0493
 3800SOL    HW112299   5.624   4.178   0.600  0.6989  0.2055  1.2439
 3800SOL    HW212300   5.502   4.287   0.603 -0.3497 -0.9165  0.1394
 3801SOL     OW12301   1.538   6.250   4.970  0.0710 -0.0153  0.2327
 3801SOL    HW112302   1.566   6.271   4.876  0.2758  1.9391  0.6920
 3801SOL    HW212303   1.493   6.330   5.010 -0.8463 -1.1241  1.5158
 3802SOL     OW12304   1.536   0.752   1.164  0.0785 -0.5537 -0.3447
 3802SOL    HW112305   1.546   0.851   1.154 -0.0920 -0.5299 -0.2771
 3802SOL    HW212306   1.599   0.706   1.101  0.0865 -0.4028 -0.4479
 3803SOL     OW12307   5.812   0.947   2.382 -0.2945 -0.4030 -0.2706
 3803SOL    HW112308   5.811   1.002   2.298 -2.1826  0.1341  0.0631
 3803SOL    HW212309   5.906   0.919   2.402  0.3253  0.2749 -2.0203
 3804SOL     OW12310   6.826   4.532   3.755 -0.8935 -0.7387  0.4516
 3804SOL    HW112311   6.840   4.589   3.836  0.5221  0.2461 -0.4454
 3804SOL    HW212312   6.806   4.439   3.784  0.4926 -0.6296  1.9584
 3805SOL     OW12313   5.772   0.680   5.986  0.1232 -0.3097  0.0324
 3805SOL    HW112314   5.683   0.652   5.950 -0.1474  0.0610  0.4053
 3805SOL    HW212315   5.830   0.711   5.910  0.1110 -1.0108 -0.2700
 3806SOL     OW12316   1.960   4.832   5.243 -0.3467 -0.4912  0.4175
 3806SOL    HW112317   1.884   4.802   5.301  0.8815 -0.9658  1.8452
 3806SOL    HW212318   1.947   4.796   5.151 -1.9086 -0.4547  0.5875
 3807SOL     OW12319   2.575   2.345   6.708 -0.1286 -0.1797  0.3149
 3807SOL    HW112320   2.477   2.349   6.691 -0.2677 -1.0265  0.8437
 3807SOL    HW212321   2.608   2.252   6.691  0.6965  0.2404 -0.4354
 3808SOL     OW12322   0.184   5.565   4.608 -0.4286  0.3931  0.4603
 3808SOL    HW112323   0.141   5.622   4.538  1.2204  0.3096 -0.6892
 3808SOL    HW212324   0.235   5.623   4.672  1.0387  0.2874 -0.5609
 3809SOL     OW12325   4.561   3.667   6.046 -0.5004  0.1548  0.0651
 3809SOL    HW112326   4.526   3.725   6.120  0.3698  0.4461  0.2721
 3809SOL    HW212327   4.578   3.575   6.080  1.1746  0.6227  0.6372
 3810SOL     OW12328   5.967   5.834   4.837 -0.1937 -0.1618 -0.3615
 3810SOL    HW112329   5.964   5.931   4.814 -0.1763 -0.5433 -2.0601
 3810SOL    HW212330   5.994   5.781   4.757 -0.2653 -1.5862  0.5189
 3811SOL     OW12331   1.769   5.128   2.509 -0.0762 -0.2487 -0.3330
 3811SOL    HW112332   1.703   5.196   2.540 -1.0155 -1.8476  1.3075
 3811SOL    HW212333   1.832   5.106   2.584  0.2758 -1.1271 -0.8780
 3812SOL     OW12334   0.741   1.096   5.287 -0.2070  0.3591  0.6465
 3812SOL    HW112335   0.787   1.162   5.347 -0.9137  0.5777  0.9715
 3812SOL    HW212336   0.796   1.080   5.206  0.3374  0.7656  0.9309
 3813SOL     OW12337   6.129   2.596   5.376  0.1620  0.4215  0.0208
 3813SOL    HW112338   6.190   2.580   5.298  0.8191  0.2568  0.5642
 3813SOL    HW212339   6.183   2.607   5.459 -0.6136 -2.6254  1.0478
 3814SOL     OW12340   0.345   1.173   1.080  0.2727 -0.0641  0.7862
 3814SOL    HW112341   0.391   1.092   1.043 -0.1438 -0.4559  1.1166
 3814SOL    HW212342   0.337   1.164   1.179 -1.5368 -0.5568  0.6388
 3815SOL     OW12343   2.486   4.962   6.144  0.1535 -0.3567 -0.2435
 3815SOL    HW112344   2.522   4.880   6.099  0.4720  0.3700 -1.3292
 3815SOL    HW212345   2.477   5.036   6.078  2.9151  1.5207  1.2480
 3816SOL     OW12346   1.345   1.272   4.664  0.2387  0.5521  0.0395
 3816SOL    HW112347   1.361   1.360   4.620 -0.2297 -0.2012 -1.7250
 3816SOL    HW212348   1.247   1.261   4.681  0.0155 -0.5026 -1.7522
 3817SOL     OW12349   1.937   1.696   2.231  0.9005  0.9216 -0.0497
 3817SOL    HW112350   1.943   1.759   2.309  1.0766  0.6298  0.1742
 3817SOL    HW212351   2.028   1.677   2.197  1.1261 -1.3880  1.6439
 3818SOL     OW12352   6.861   4.103   5.890  0.1637  0.3461  0.1561
 3818SOL    HW112353   6.946   4.091   5.839  0.4919 -0.0124  0.7704
 3818SOL    HW212354   6.875   4.073   5.985 -0.6669  0.2160  0.2446
 3819SOL     OW12355   0.768   3.400   0.581 -0.3001  0.2125  0.0859
 3819SOL    HW112356   0.706   3.439   0.650 -0.3907 -0.0561  0.1581
 3819SOL    HW212357   0.728   3.317   0.544  0.6958 -0.8135  1.2256
 3820SOL     OW12358   4.019   6.172   4.316 -0.2402  0.0686 -0.1556
 3820SOL    HW112359   4.007   6.203   4.410  2.1105  2.1878 -0.4456
 3820SOL    HW212360   4.089   6.100   4.313 -0.7542 -0.4388 -0.2505
 3821SOL     OW12361   1.293   0.666   0.258 -0.1952 -0.0895  0.2745
 3821SOL    HW112362   1.334   0.676   0.167 -2.0971  1.5924 -0.4797
 3821SOL    HW212363   1.349   0.715   0.325  0.2135  0.2828 -0.3282
 3822SOL     OW12364   5.766   3.468   4.977  0.2733  0.6391 -0.1109
 3822SOL    HW112365   5.691   3.436   5.037  0.8732  0.2184  0.4320
 3822SOL    HW212366   5.854   3.443   5.018  0.6922 -0.3167 -1.5363
 3823SOL     OW12367   0.734   4.045   0.721  0.0479  0.1042  0.1685
 3823SOL    HW112368   0.802   4.117   0.728  0.5931 -0.0968 -2.0537
 3823SOL    HW212369   0.767   3.963   0.768  2.5363 -0.7401 -2.7189
 3824SOL     OW12370   2.651   6.048   1.687 -0.2079 -0.0930 -0.0380
 3824SOL    HW112371   2.582   6.040   1.616 -1.7912  0.1847  1.4016
 3824SOL    HW212372   2.639   6.135   1.735  1.1559 -0.0401  0.2417
 3825SOL     OW12373   5.774   5.944   5.632 -0.1963  0.2795  0.2289
 3825SOL    HW112374   5.804   6.039   5.624  1.2393 -0.2179 -0.6915
 3825SOL    HW212375   5.677   5.937   5.610 -0.4772  1.6217  0.9732
 3826SOL     OW12376   4.904   3.080   0.014  0.5844  0.4894  0.2001
 3826SOL    HW112377   4.882   3.078  -0.083 -0.3355 -2.8412  0.3397
 3826SOL    HW212378   4.836   3.136   0.062 -0.3738  0.2307 -0.8096
 3827SOL     OW12379   2.950   4.185   1.700  0.4122  0.0549 -0.1996
 3827SOL    HW112380   2.861   4.138   1.698  0.1288  0.6025 -0.6238
 3827SOL    HW212381   2.942   4.267   1.757  0.0854  1.1958 -1.8246
 3828SOL     OW12382   1.486   1.772   1.313 -0.0141  0.0417 -0.0982
 3828SOL    HW112383   1.561   1.743   1.254  2.2204  2.5652  1.2742
 3828SOL    HW212384   1.413   1.811   1.258  1.1784  0.6135 -1.3268
 3829SOL     OW12385   3.627   6.212   6.436  0.4199 -0.2828  0.4441
 3829SOL    HW112386   3.565   6.153   6.385  1.4268 -0.6064 -0.4290
 3829SOL    HW212387   3.711   6.227   6.383  0.6300  1.0641  1.1050
 3830SOL     OW12388   6.791   4.422   4.373 -0.3571 -0.1443 -0.0289
 3830SOL    HW112389   6.733   4.356   4.326  0.0100 -0.1009 -0.5614
 3830SOL    HW212390   6.805   4.394   4.468  0.5961 -1.3751 -0.4994
 3831SOL     OW12391   1.715   3.071   5.365  0.2100  0.6554  0.1368
 3831SOL    HW112392   1.668   3.121   5.292  0.1444  1.8325  0.9620
 3831SOL    HW212393   1.720   2.974   5.341  1.2638  1.1656 -2.0175
 3832SOL     OW12394   4.907   1.825   0.956 -0.2228 -0.5481  0.0354
 3832SOL    HW112395   4.833   1.758   0.962  1.0259 -2.0519 -0.5956
 3832SOL    HW212396   4.966   1.802   0.878  1.1115  0.3925  0.7247
 3833SOL     OW12397   5.634   0.416   6.477 -0.2290  0.4703  0.2712
 3833SOL    HW112398   5.541   0.380   6.487  1.1008 -3.1191  1.2937
 3833SOL    HW212399   5.635   0.487   6.407 -3.4681 -0.4402 -0.8792
 3834SOL     OW12400   6.414   4.083   0.807  0.3182  0.2736 -0.4130
 3834SOL    HW112401   6.321   4.103   0.836  1.0160  0.6428  1.7123
 3834SOL    HW212402   6.429   3.984   0.810  0.1360  0.2494 -0.2761
 3835SOL     OW12403   1.127   6.957   1.679  0.1474  0.2614  0.2011
 3835SOL    HW112404   1.063   6.981   1.607  0.6622  0.4415 -0.2064
 3835SOL    HW212405   1.121   6.860   1.699 -0.3514  0.3069  0.2657
 3836SOL     OW12406   6.522   2.594   5.299 -0.0715  0.1367  0.5697
 3836SOL    HW112407   6.489   2.686   5.280 -0.8666 -0.3647 -0.6055
 3836SOL    HW212408   6.622   2.596   5.305 -0.1680  1.3987  2.6255
 3837SOL     OW12409   0.978   0.052   4.747  0.3919  0.8920 -0.5016
 3837SOL    HW112410   1.059   0.042   4.805 -0.8286  1.2040  1.3470
 3837SOL    HW212411   0.974   0.145   4.712  1.0450  0.7571 -0.9517
 3838SOL     OW12412   1.164   3.833   6.147  0.8083 -0.3384  0.0768
 3838SOL    HW112413   1.128   3.784   6.067 -0.5665 -0.8813  1.0017
 3838SOL    HW212414   1.130   3.926   6.148  1.4072 -0.1052 -0.3330
 3839SOL     OW12415   5.995   0.737   0.606  0.2931 -0.7894  0.3152
 3839SOL    HW112416   5.944   0.808   0.559  1.4090 -0.5218 -0.5217
 3839SOL    HW212417   5.964   0.647   0.575  0.9513 -0.6187 -0.8981
 3840SOL     OW12418   3.385   2.683   0.199  0.1762  0.1948 -0.2185
 3840SOL    HW112419   3.358   2.603   0.252 -1.4604  1.9479  1.7922
 3840SOL    HW212420   3.307   2.718   0.147  0.3431  1.4160  0.2927
 3841SOL     OW12421   1.102   2.309   4.554 -0.8806 -0.0090 -0.1222
 3841SOL    HW112422   1.003   2.315   4.553 -0.8280  4.0829 -0.9890
 3841SOL    HW212423   1.137   2.340   4.642 -0.4259  2.1488 -0.9943
 3842SOL     OW12424   2.796   5.525   3.667  0.6970 -0.0455 -0.1351
 3842SOL    HW112425   2.719   5.533   3.731  0.7873 -2.8500  0.4616
 3842SOL    HW212426   2.872   5.582   3.699 -0.3395  1.0133  0.5058
 3843SOL     OW12427   1.385   4.910   5.655  0.4066  0.3648  0.1193
 3843SOL    HW112428   1.403   4.843   5.727 -0.8179  0.6434  0.7070
 3843SOL    HW212429   1.304   4.883   5.603 -1.1049  2.1221  1.3791
 3844SOL     OW12430   6.146   4.919   3.126 -0.1152  0.0650 -0.0379
 3844SOL    HW112431   6.235   4.933   3.083  0.9806 -0.2204  2.0404
 3844SOL    HW212432   6.157   4.867   3.210 -2.5275 -1.8559 -0.8016
 3845SOL     OW12433   2.098   6.499   5.241  0.1166 -0.6912  0.7565
 3845SOL    HW112434   2.075   6.401   5.236 -1.6731 -0.2365 -2.5817
 3845SOL    HW212435   2.139   6.528   5.155 -0.2547  1.7050  1.3248
 3846SOL     OW12436   5.841   0.700   2.855 -0.2070  0.2409  0.1872
 3846SOL    HW112437   5.777   0.745   2.792 -0.6919 -2.1257 -1.1266
 3846SOL    HW212438   5.790   0.668   2.936 -0.1908  0.5595  0.3240
 3847SOL     OW12439   4.191   1.536   2.394 -0.5326  0.1952 -0.2155
 3847SOL    HW112440   4.120   1.585   2.344  0.3296  0.7426 -0.9390
 3847SOL    HW212441   4.191   1.439   2.367 -0.6740  0.2988 -0.5879
 3848SOL     OW12442   0.941   0.246   3.435 -0.1827 -0.2097  0.4878
 3848SOL    HW112443   0.930   0.146   3.437 -2.0520 -0.0650 -0.3457
 3848SOL    HW212444   0.952   0.280   3.528 -1.4951 -1.0304  0.9713
 3849SOL     OW12445   4.309   0.257   0.719 -0.0621 -0.3935 -0.1770
 3849SOL    HW112446   4.292   0.310   0.802 -0.6546  0.3567 -0.7546
 3849SOL    HW212447   4.340   0.165   0.743 -0.2437 -0.1930  0.8670
 3850SOL     OW12448   5.471   5.482   2.460 -0.4759  0.2263 -0.0191
 3850SOL    HW112449   5.543   5.434   2.410 -0.5160  0.8233 -0.6597
 3850SOL    HW212450   5.427   5.549   2.400  0.1826  1.7059  1.0884
 3851SOL     OW12451   3.785   5.376   5.034 -0.1686 -0.0540 -0.0665
 3851SOL    HW112452   3.699   5.390   5.083 -0.7803  1.7128 -1.5378
 3851SOL    HW212453   3.811   5.461   4.988  0.9692 -1.3208 -1.8672
 3852SOL     OW12454   4.566   6.202   6.163  0.0050 -0.2557 -0.3291
 3852SOL    HW112455   4.572   6.112   6.206 -3.4445 -0.8043 -0.7405
 3852SOL    HW212456   4.576   6.193   6.064 -0.1078 -0.1426 -0.3514
 3853SOL     OW12457   4.652   4.435   5.477 -0.3004  0.2555  0.2652
 3853SOL    HW112458   4.599   4.425   5.562 -0.7302  0.3250  0.0088
 3853SOL    HW212459   4.591   4.463   5.403  0.1593  0.6770  0.0391
 3854SOL     OW12460   5.655   3.840   1.650  0.5633  0.0468  0.3023
 3854SOL    HW112461   5.658   3.801   1.742  1.5574  0.0654  0.2883
 3854SOL    HW212462   5.563   3.831   1.613  0.5749 -1.5701  0.6083
 3855SOL     OW12463   1.757   6.302   5.557  0.1186 -0.1661  0.1219
 3855SOL    HW112464   1.674   6.249   5.573  0.5062 -0.6012  0.7075
 3855SOL    HW212465   1.778   6.301   5.459 -1.0874  0.7570 -0.1746
 3856SOL     OW12466   4.391   4.529   3.565 -0.9279  0.1865 -0.5360
 3856SOL    HW112467   4.442   4.495   3.485  0.1601 -0.5136  0.4146
 3856SOL    HW212468   4.334   4.455   3.602 -2.0108  0.7228 -1.0822
 3857SOL     OW12469   0.058   4.185   3.733  0.2532 -0.1176 -0.3235
 3857SOL    HW112470   0.094   4.205   3.641  1.2342  1.6463  0.3821
 3857SOL    HW212471   0.054   4.270   3.786 -1.4026 -0.9086  0.9095
 3858SOL     OW12472   6.685   1.483   4.122  0.3508 -0.7131  0.3953
 3858SOL    HW112473   6.637   1.489   4.209  1.1623 -4.1528  1.2491
 3858SOL    HW212474   6.743   1.401   4.121  1.3379 -0.1639 -2.9542
 3859SOL     OW12475   1.429   0.977   6.125  0.4440  0.1161  0.4705
 3859SOL    HW112476   1.488   0.899   6.148 -0.5625 -0.8461 -0.1296
 3859SOL    HW212477   1.409   1.029   6.209 -1.0569 -1.8418  1.4111
 3860SOL     OW12478   6.155   0.044   4.555  0.5103 -0.3359  0.2864
 3860SOL    HW112479   6.129  -0.040   4.603  0.8781 -0.3096  0.5338
 3860SOL    HW212480   6.250   0.067   4.577  0.2683  0.3928  0.5754
 3861SOL     OW12481   6.857   5.680   5.303 -0.4430 -0.0315  0.4625
 3861SOL    HW112482   6.886   5.743   5.375 -1.3795  1.0035 -0.0242
 3861SOL    HW212483   6.937   5.648   5.252  0.1232  0.1391  1.2320
 3862SOL     OW12484   5.278   5.096   0.171 -0.0061 -0.1841 -0.2665
 3862SOL    HW112485   5.253   5.082   0.267 -0.3463 -1.7142 -0.5542
 3862SOL    HW212486   5.232   5.178   0.136 -0.9977 -0.3992  0.4875
 3863SOL     OW12487   5.216   3.979   1.395  0.3424  0.4952 -0.6384
 3863SOL    HW112488   5.158   3.985   1.476  1.1033  0.6136 -0.0876
 3863SOL    HW212489   5.160   3.960   1.315 -0.4891  0.9745 -0.1805
 3864SOL     OW12490   6.621   0.497   1.161  0.3180  0.1577  0.5473
 3864SOL    HW112491   6.610   0.589   1.123  3.6448 -0.0578 -1.3621
 3864SOL    HW212492   6.629   0.431   1.086 -0.3589 -1.4645  1.8442
 3865SOL     OW12493   2.963   0.553   5.065 -0.3681  0.2547 -0.6128
 3865SOL    HW112494   3.053   0.576   5.101  0.6731 -0.4908 -2.6088
 3865SOL    HW212495   2.966   0.552   4.965 -1.5770 -3.3926 -0.7771
 3866SOL     OW12496   4.504   4.574   0.617 -0.9214  0.4276 -0.1955
 3866SOL    HW112497   4.602   4.559   0.608 -0.4909  2.8073 -0.0658
 3866SOL    HW212498   4.455   4.488   0.599  1.1629 -0.8562 -0.0170
 3867SOL     OW12499   5.948   0.278   6.595 -0.2981  0.0035 -0.5072
 3867SOL    HW112500   5.854   0.280   6.629 -0.4326 -1.0388 -0.8001
 3867SOL    HW212501   5.984   0.371   6.593 -0.4801  0.2011  1.9070
 3868SOL     OW12502   6.140   5.375   1.768 -0.5963  0.4148 -0.3623
 3868SOL    HW112503   6.132   5.463   1.813  1.2085  1.2042 -1.4668
 3868SOL    HW212504   6.130   5.301   1.835 -2.8513  1.4011  0.4515
 3869SOL     OW12505   6.699   4.585   4.969  0.5220 -0.3182  0.0743
 3869SOL    HW112506   6.746   4.497   4.960 -0.9533 -1.3872  1.8499
 3869SOL    HW212507   6.649   4.605   4.885 -0.3701 -2.0030  0.1612
 3870SOL     OW12508   1.155   1.231   0.652 -0.3106 -0.1414  0.2086
 3870SOL    HW112509   1.224   1.290   0.611  1.7758 -0.7396  2.6374
 3870SOL    HW212510   1.163   1.139   0.613 -0.8061  0.1468 -0.6048
 3871SOL     OW12511   0.167   2.885   2.461  0.2523 -0.2767  0.2116
 3871SOL    HW112512   0.193   2.789   2.472  0.1271 -0.5327 -1.4023
 3871SOL    HW212513   0.226   2.942   2.518  0.2304 -1.3107  1.3120
 3872SOL     OW12514   0.437   1.632   4.944  0.3255  0.1715  0.4388
 3872SOL    HW112515   0.468   1.574   4.869  0.4990 -0.3917  0.9411
 3872SOL    HW212516   0.342   1.609   4.968 -0.2607  1.3686 -0.5844
 3873SOL     OW12517   1.493   0.054   6.631 -0.2074  0.2985  0.0537
 3873SOL    HW112518   1.585   0.081   6.660 -0.6895  0.2641  1.6986
 3873SOL    HW212519   1.445   0.133   6.594 -0.0664  0.6903  0.6956
 3874SOL     OW12520   6.657   0.754   0.107 -0.3714 -0.2972 -0.1120
 3874SOL    HW112521   6.631   0.662   0.135 -1.1081 -0.0386  0.0880
 3874SOL    HW212522   6.608   0.821   0.163 -1.5211  0.2288 -1.6668
 3875SOL     OW12523   6.506   0.808   1.906  0.5848 -0.1747  0.0817
 3875SOL    HW112524   6.544   0.833   1.817  0.7925 -0.9236 -0.0490
 3875SOL    HW212525   6.506   0.888   1.966 -0.5148  0.6020 -0.9153
 3876SOL     OW12526   0.420   0.142   6.306 -0.5823 -0.4793  0.0989
 3876SOL    HW112527   0.501   0.129   6.250 -1.4962 -1.7250 -0.9800
 3876SOL    HW212528   0.338   0.144   6.248 -1.4172 -0.1432  1.2408
 3877SOL     OW12529   3.957   0.890   4.501 -0.1941 -0.0638  0.3908
 3877SOL    HW112530   3.949   0.990   4.508  0.4585  0.2661 -2.3597
 3877SOL    HW212531   3.868   0.849   4.522 -0.7722  1.1748  0.5125
 3878SOL     OW12532   6.638   0.974   5.517  0.3536  0.2727 -0.3141
 3878SOL    HW112533   6.677   0.891   5.557  0.9125  0.2866 -0.8092
 3878SOL    HW212534   6.566   0.949   5.453  1.3180  0.0745 -1.3682
 3879SOL     OW12535   2.303   5.673   6.155  0.3770 -0.8983 -0.1423
 3879SOL    HW112536   2.275   5.695   6.061 -0.5701 -2.5846 -0.2977
 3879SOL    HW212537   2.244   5.601   6.191  2.1122 -1.8491  0.9423
 3880SOL     OW12538   6.434   6.924   2.613 -0.4620 -0.1233  0.0586
 3880SOL    HW112539   6.424   6.831   2.577  0.0538 -1.1852  2.4843
 3880SOL    HW212540   6.346   6.956   2.648 -0.7408  0.5294 -1.1611
 3881SOL     OW12541   1.490   4.194   2.646 -0.0001 -0.5531  0.3182
 3881SOL    HW112542   1.532   4.269   2.596 -2.5063  0.1123 -0.9607
 3881SOL    HW212543   1.560   4.144   2.697  2.3349  0.1776 -1.9894
 3882SOL     OW12544   4.881   2.915   4.252 -0.1217 -0.1043 -0.2134
 3882SOL    HW112545   4.972   2.899   4.212 -0.4504  0.1849 -1.0944
 3882SOL    HW212546   4.891   2.969   4.336  0.4295  1.0470 -1.0044
 3883SOL     OW12547   2.458   0.554   2.859 -0.1715 -0.5862 -0.0914
 3883SOL    HW112548   2.441   0.476   2.919 -0.2995 -0.1729  0.4086
 3883SOL    HW212549   2.485   0.520   2.768  0.5057 -1.2115  0.3289
 3884SOL     OW12550   1.143   3.994   4.316  0.1548 -0.0733 -0.1204
 3884SOL    HW112551   1.122   4.086   4.281 -0.7761 -1.0316 -2.3018
 3884SOL    HW212552   1.061   3.956   4.360  0.5993  0.1976  0.9613
 3885SOL     OW12553   1.076   0.484   4.874  0.1653  0.1280  0.3666
 3885SOL    HW112554   0.997   0.453   4.926 -0.0609  0.7251  0.3921
 3885SOL    HW212555   1.136   0.537   4.934  0.7052 -0.5232  0.4057
 3886SOL     OW12556   3.405   2.820   6.284  0.2181  0.6932  0.0912
 3886SOL    HW112557   3.484   2.824   6.223 -0.2879 -0.9372 -0.7493
 3886SOL    HW212558   3.323   2.803   6.230 -0.1905 -1.2458  1.2135
 3887SOL     OW12559   4.466   2.463   4.825  0.2212 -0.2914  0.3227
 3887SOL    HW112560   4.432   2.379   4.783  1.3545 -1.4660  1.6704
 3887SOL    HW212561   4.420   2.477   4.913  2.0530 -1.1202  1.4793
 3888SOL     OW12562   5.812   4.274   3.345 -0.6290  0.0030  0.2042
 3888SOL    HW112563   5.893   4.216   3.350 -1.2861 -1.3621 -2.9494
 3888SOL    HW212564   5.768   4.278   3.435  0.5760 -2.7173  1.0187
 3889SOL     OW12565   4.662   4.626   1.143  0.1561  0.1931 -0.0281
 3889SOL    HW112566   4.678   4.682   1.225  1.8048 -0.9821  0.5023
 3889SOL    HW212567   4.610   4.545   1.167 -0.6046  0.5477 -0.4422
 3890SOL     OW12568   2.809   0.131   6.889 -0.1490  0.0761  0.1261
 3890SOL    HW112569   2.789   0.207   6.827  1.0283 -1.1526 -1.8781
 3890SOL    HW212570   2.731   0.068   6.890 -0.5209  0.5365  0.6028
 3891SOL     OW12571   1.899   2.485   0.487  0.2526 -0.2961 -0.1037
 3891SOL    HW112572   1.854   2.521   0.569 -0.5583 -2.6023  0.5197
 3891SOL    HW212573   1.909   2.559   0.420 -3.2915  0.6502  0.2406
 3892SOL     OW12574   6.887   0.712   1.004 -0.0593 -0.1734  0.6944
 3892SOL    HW112575   6.979   0.749   0.990  0.0838 -1.0049 -0.6838
 3892SOL    HW212576   6.859   0.661   0.923 -1.4017 -0.6527  1.4407
 3893SOL     OW12577   4.286   5.608   4.257  0.1475  0.0678 -0.0657
 3893SOL    HW112578   4.306   5.689   4.201  2.1280 -0.2683  0.0693
 3893SOL    HW212579   4.276   5.528   4.197 -0.9407  0.2487 -0.1387
 3894SOL     OW12580   2.063   1.314   3.684  0.0213  0.5294 -0.3290
 3894SOL    HW112581   1.963   1.314   3.695  0.0663  0.6353  0.0815
 3894SOL    HW212582   2.086   1.272   3.596 -0.2771 -1.4426  0.4730
 3895SOL     OW12583   0.415   4.260   6.140  0.2002  0.1033 -0.2088
 3895SOL    HW112584   0.498   4.205   6.147 -0.4947 -1.0071 -0.4558
 3895SOL    HW212585   0.401   4.286   6.044 -0.8300 -1.4924 -0.5240
 3896SOL     OW12586   0.691   0.939   0.694 -0.1140 -0.0844 -0.2003
 3896SOL    HW112587   0.711   0.999   0.616  3.0351 -0.5231  0.1531
 3896SOL    HW212588   0.664   0.849   0.661 -3.8892  1.0734 -0.7228
 3897SOL     OW12589   1.426   3.447   0.220  0.4675 -0.1642  0.1155
 3897SOL    HW112590   1.338   3.451   0.172  0.8742  0.5082 -0.5940
 3897SOL    HW212591   1.492   3.397   0.164  0.7620  0.0333  0.2883
 3898SOL     OW12592   2.403   5.304   4.142 -0.4878 -0.4065  0.3439
 3898SOL    HW112593   2.381   5.358   4.223 -0.9252 -1.0892  0.6934
 3898SOL    HW212594   2.341   5.330   4.068  0.4734  0.8266 -0.0517
 3899SOL     OW12595   3.006   1.341   4.895  0.2317  0.1604 -0.2592
 3899SOL    HW112596   3.014   1.440   4.901 -0.8874  0.3504 -1.3777
 3899SOL    HW212597   3.001   1.314   4.799  2.9928 -1.2386 -0.1244
 3900SOL     OW12598   2.406   6.793   6.289  0.4212 -0.6544  0.0626
 3900SOL    HW112599   2.385   6.890   6.283  1.2017 -0.5261 -0.9732
 3900SOL    HW212600   2.486   6.779   6.348  0.9861 -0.5397 -0.6577
 3901SOL     OW12601   3.734   0.748   4.558  0.2348  0.1672  0.3094
 3901SOL    HW112602   3.786   0.665   4.578 -0.1708 -0.4350 -1.0216
 3901SOL    HW212603   3.639   0.725   4.538  0.1274  0.9416 -0.1483
 3902SOL     OW12604   0.250   5.921   0.497 -0.4132  0.3189  0.2350
 3902SOL    HW112605   0.271   6.010   0.538 -4.0573  2.3626 -1.8203
 3902SOL    HW212606   0.236   5.932   0.398 -0.9039 -2.6184 -0.1190
 3903SOL     OW12607   1.732   2.523   2.245  0.1873  0.5310  0.3389
 3903SOL    HW112608   1.651   2.577   2.268  1.0122  2.0043 -0.0582
 3903SOL    HW212609   1.770   2.555   2.158  1.1475 -0.1925  0.4682
 3904SOL     OW12610   0.231   0.197   6.087 -0.3137 -0.1054  0.0052
 3904SOL    HW112611   0.206   0.277   6.142 -0.0853  0.5926 -0.8688
 3904SOL    HW212612   0.309   0.220   6.030  0.7734 -1.4693  0.8792
 3905SOL     OW12613   3.656   3.253   3.700 -0.6061  0.3189  0.2512
 3905SOL    HW112614   3.598   3.223   3.776 -0.5031 -0.6241 -0.0271
 3905SOL    HW212615   3.749   3.268   3.734 -0.5058 -0.3210  0.2836
 3906SOL     OW12616   4.563   6.130   3.686 -0.0764  0.3962 -0.0191
 3906SOL    HW112617   4.658   6.100   3.695  0.1005  1.0228  0.2800
 3906SOL    HW212618   4.530   6.163   3.774 -0.2477  1.0996 -0.3315
 3907SOL     OW12619   4.870   0.788   6.622  0.4943 -0.4769 -0.4074
 3907SOL    HW112620   4.851   0.874   6.576  1.5282  0.2967  0.5406
 3907SOL    HW212621   4.925   0.729   6.563 -1.2565 -1.0319 -1.5404
 3908SOL     OW12622   1.240   4.386   3.067  0.2217  0.2525 -0.4345
 3908SOL    HW112623   1.309   4.385   2.995  0.1763  1.1836 -0.5040
 3908SOL    HW212624   1.159   4.336   3.037  0.0414  0.9851 -1.2017
 3909SOL     OW12625   1.945   1.823   2.499 -0.3396  0.0951  0.1342
 3909SOL    HW112626   1.992   1.890   2.557 -1.0199 -0.1361  0.9723
 3909SOL    HW212627   1.848   1.844   2.496 -0.3566 -0.0600 -0.7166
 3910SOL     OW12628   3.342   1.695   5.340 -0.6768 -0.3978 -0.1379
 3910SOL    HW112629   3.352   1.597   5.360 -0.5146 -0.2124  0.7682
 3910SOL    HW212630   3.422   1.744   5.376 -0.5027  0.0068 -1.0602
 3911SOL     OW12631   1.335   0.801   5.028  0.4202 -0.7434 -0.0744
 3911SOL    HW112632   1.281   0.719   5.048  1.2102 -1.7854 -1.9299
 3911SOL    HW212633   1.298   0.878   5.079 -1.0475 -2.0055  0.8800
 3912SOL     OW12634   1.099   5.174   2.201 -0.0616 -0.0658 -0.9282
 3912SOL    HW112635   1.067   5.267   2.216  0.8873  0.4586 -2.0697
 3912SOL    HW212636   1.082   5.147   2.106  0.6551 -0.6523 -0.9017
 3913SOL     OW12637   0.223   3.103   0.590  0.0662  0.2660 -0.3659
 3913SOL    HW112638   0.253   3.169   0.521  1.9735  1.1062  1.1780
 3913SOL    HW212639   0.200   3.152   0.674 -2.1416 -0.7464 -0.3117
 3914SOL     OW12640   2.851   2.217   2.691 -0.0381 -0.5101  0.2215
 3914SOL    HW112641   2.816   2.248   2.780 -1.2645 -1.7633  0.2156
 3914SOL    HW212642   2.946   2.186   2.702  0.1171  0.1602  0.8941
 3915SOL     OW12643   3.441   6.221   6.213  0.2443  0.1600 -0.1044
 3915SOL    HW112644   3.505   6.221   6.137  1.9023 -0.6083  1.2191
 3915SOL    HW212645   3.418   6.315   6.238  1.6646  0.4940  0.0149
 3916SOL     OW12646   2.148   4.729   4.992 -0.5381 -0.1359 -0.0597
 3916SOL    HW112647   2.065   4.765   4.950  0.7639  1.7032 -1.2103
 3916SOL    HW212648   2.228   4.763   4.943  0.9274 -2.0352  0.8631
 3917SOL     OW12649   2.680   5.544   2.074 -0.6475  0.1209 -0.0385
 3917SOL    HW112650   2.765   5.521   2.121  0.1497  0.6653 -1.1705
 3917SOL    HW212651   2.656   5.639   2.093  0.6354  0.9200 -2.0389
 3918SOL     OW12652   3.930   4.021   3.715  0.0290 -0.1035  0.0057
 3918SOL    HW112653   3.851   3.973   3.677 -0.9663  0.9536  0.6739
 3918SOL    HW212654   3.994   4.044   3.642 -0.4421 -0.6805 -0.5924
 3919SOL     OW12655   3.430   1.467   4.545  0.3878 -0.1592  0.1256
 3919SOL    HW112656   3.373   1.514   4.479  0.1838  0.1577  0.5203
 3919SOL    HW212657   3.374   1.404   4.599  0.5311 -0.3322  0.0748
 3920SOL     OW12658   0.090   0.535   2.664  0.0570  0.1148 -0.0459
 3920SOL    HW112659   0.030   0.568   2.738  1.2005  0.3614  0.7938
 3920SOL    HW212660   0.106   0.610   2.599 -0.8429 -0.0636 -0.4936
 3921SOL     OW12661   1.566   4.281   0.777  0.3207  0.3001 -0.3401
 3921SOL    HW112662   1.601   4.207   0.721  1.5461  1.1399 -0.7300
 3921SOL    HW212663   1.568   4.366   0.725  0.0326  0.8193  0.4731
 3922SOL     OW12664   2.716   5.353   0.144 -0.0904 -0.7457  0.4282
 3922SOL    HW112665   2.723   5.325   0.049  1.0857 -0.7536  0.4960
 3922SOL    HW212666   2.788   5.420   0.164  0.2406 -1.4031  1.5314
 3923SOL     OW12667   3.157   6.734   3.087  0.2001 -0.5872 -0.0089
 3923SOL    HW112668   3.188   6.829   3.100 -0.2428 -0.4220 -0.1268
 3923SOL    HW212669   3.222   6.672   3.129  1.3041 -0.3104 -1.2665
 3924SOL     OW12670   6.421   3.590   0.910 -0.1314 -0.1535 -0.1853
 3924SOL    HW112671   6.465   3.526   0.846  1.1840  0.4893  0.0543
 3924SOL    HW212672   6.329   3.557   0.930  0.2272 -1.5564 -0.6811
 3925SOL     OW12673   1.183   1.836   5.687  0.1653 -0.0830  0.4243
 3925SOL    HW112674   1.108   1.801   5.743 -0.9740  1.4406 -0.1070
 3925SOL    HW212675   1.246   1.888   5.743  0.8288 -1.2976  0.8554
 3926SOL     OW12676   0.585   6.944   0.690 -0.1929  0.1530  0.0888
 3926SOL    HW112677   0.622   7.035   0.708 -0.1842  0.0906  0.3868
 3926SOL    HW212678   0.548   6.941   0.597 -0.3209  0.5032  0.1269
 3927SOL     OW12679   0.183   2.185   2.070 -0.7042 -0.2140  0.3109
 3927SOL    HW112680   0.161   2.280   2.093 -1.2416 -0.6562  1.7629
 3927SOL    HW212681   0.099   2.131   2.067 -0.2926 -0.8954  0.7874
 3928SOL     OW12682   6.605   1.167   0.926  0.0019 -0.5697 -0.2401
 3928SOL    HW112683   6.555   1.122   0.852  1.7496 -2.6765 -0.2466
 3928SOL    HW212684   6.635   1.257   0.895 -2.4084  0.1452 -0.7332
 3929SOL     OW12685   1.397   5.516   3.474  0.7239  0.0931 -0.2152
 3929SOL    HW112686   1.485   5.470   3.463  0.8804  0.7437 -2.1771
 3929SOL    HW212687   1.331   5.454   3.516  1.5250 -1.1591 -0.7618
 3930SOL     OW12688   5.962   5.005   3.989 -0.3026  0.2745  0.4118
 3930SOL    HW112689   6.031   5.022   4.060  0.1724  2.0883 -0.4315
 3930SOL    HW212690   5.944   5.089   3.939 -1.7735 -0.6148 -0.6259
 3931SOL     OW12691   3.508   3.746   6.898  0.5661 -0.5184  0.3364
 3931SOL    HW112692   3.523   3.785   6.807  4.4378  0.8825  1.3479
 3931SOL    HW212693   3.466   3.815   6.957  0.0405 -0.6922  0.1730
 3932SOL     OW12694   3.521   0.607   2.953  0.1007  0.1437  0.1861
 3932SOL    HW112695   3.559   0.523   2.990 -1.8209 -1.8587 -2.0927
 3932SOL    HW212696   3.446   0.639   3.012  1.2386  0.6892  1.3909
 3933SOL     OW12697   6.301   2.745   2.260 -0.1930 -0.1896  0.5081
 3933SOL    HW112698   6.228   2.752   2.193  0.1035 -2.0499 -0.0827
 3933SOL    HW212699   6.281   2.804   2.339 -1.2167  0.9690 -0.5892
 3934SOL     OW12700   2.882   0.813   3.884 -0.4852  0.5715 -0.1642
 3934SOL    HW112701   2.834   0.850   3.964 -0.9331  0.2289 -0.2686
 3934SOL    HW212702   2.829   0.737   3.846  0.3375 -0.0814 -0.0486
 3935SOL     OW12703   2.686   1.246   1.203  0.6913 -0.0963 -0.4271
 3935SOL    HW112704   2.612   1.264   1.268 -0.9236  0.3307 -2.2836
 3935SOL    HW212705   2.710   1.330   1.155  0.4700 -0.7672 -1.7534
 3936SOL     OW12706   4.182   6.633   1.639 -0.0581  0.0613  0.3924
 3936SOL    HW112707   4.204   6.554   1.696 -1.6381 -0.7133  0.0007
 3936SOL    HW212708   4.083   6.634   1.621  0.3932  0.1109 -2.5263
 3937SOL     OW12709   4.668   2.736   1.324  0.0779 -0.6272  0.4338
 3937SOL    HW112710   4.634   2.788   1.245  1.4955  0.1775  0.3255
 3937SOL    HW212711   4.611   2.654   1.336 -1.8101  0.5842  0.2211
 3938SOL     OW12712   5.890   5.979   5.245 -0.4548 -0.8661  0.7973
 3938SOL    HW112713   5.847   6.065   5.220 -0.7832 -1.2509  0.0040
 3938SOL    HW212714   5.893   5.970   5.345 -0.3744  0.0768  0.8808
 3939SOL     OW12715   1.114   1.271   6.069  0.9078 -0.3081 -0.4396
 3939SOL    HW112716   1.045   1.240   6.003  1.4791  0.4673 -1.4387
 3939SOL    HW212717   1.204   1.269   6.026  1.3612 -0.2593  0.4953
 3940SOL     OW12718   6.978   6.098   5.048 -0.3378  0.2122 -0.0093
 3940SOL    HW112719   6.924   6.016   5.067 -0.6983  0.0604 -1.5342
 3940SOL    HW212720   7.073   6.071   5.028 -0.1744  0.2841  0.6617
 3941SOL     OW12721   6.811   0.727   2.181  0.0098  0.0273 -0.8817
 3941SOL    HW112722   6.842   0.745   2.088 -0.3837 -0.0207 -1.0280
 3941SOL    HW212723   6.771   0.810   2.219  0.2996  0.0852 -0.7022
 3942SOL     OW12724   5.178   1.478   6.113 -0.6300 -0.1890  0.3919
 3942SOL    HW112725   5.140   1.558   6.159 -1.3936 -0.3446  0.0429
 3942SOL    HW212726   5.276   1.472   6.132 -0.5939  0.7546  0.5204
 3943SOL     OW12727   2.043   4.981   2.404  0.0427  0.0401 -0.2012
 3943SOL    HW112728   2.096   5.025   2.476  0.9594  0.9554 -1.4091
 3943SOL    HW212729   1.949   5.014   2.407 -0.3034 -0.9476  1.4001
 3944SOL     OW12730   5.790   5.852   3.394 -0.3451 -0.4509  0.3461
 3944SOL    HW112731   5.755   5.938   3.432  1.0100  0.5105 -0.5322
 3944SOL    HW212732   5.796   5.858   3.295  2.3692 -0.5030  0.4278
 3945SOL     OW12733   1.244   6.052   2.925  0.2465 -0.1285  0.5158
 3945SOL    HW112734   1.208   6.132   2.973  1.0960  1.3144 -1.1090
 3945SOL    HW212735   1.170   6.003   2.880 -0.1259  0.6926  0.2119
 3946SOL     OW12736   6.639   0.798   4.126  0.1814  0.1818  0.1214
 3946SOL    HW112737   6.693   0.821   4.207 -0.3036 -0.7582  0.7368
 3946SOL    HW212738   6.542   0.795   4.150  0.1303 -1.3674 -0.1503
 3947SOL     OW12739   3.414   0.843   6.670 -0.1153  0.2339  0.3051
 3947SOL    HW112740   3.434   0.864   6.766  0.0772  0.5266  0.2008
 3947SOL    HW212741   3.491   0.796   6.629 -0.0251  0.4891  0.1769
 3948SOL     OW12742   6.799   4.896   4.679 -0.5099  0.3494  0.2465
 3948SOL    HW112743   6.819   4.843   4.762 -0.9791 -0.7505 -0.3288
 3948SOL    HW212744   6.862   4.869   4.606 -1.8799 -0.7417 -0.5838
 3949SOL     OW12745   6.795   5.398   1.495 -0.2697 -0.5052  0.5271
 3949SOL    HW112746   6.874   5.424   1.440  0.5459 -1.4062  1.2424
 3949SOL    HW212747   6.726   5.470   1.491 -0.5010 -0.7941 -2.1336
 3950SOL     OW12748   3.766   2.684   6.999 -0.0394  0.0321 -0.7437
 3950SOL    HW112749   3.730   2.698   7.091 -1.0700 -0.7769 -1.0113
 3950SOL    HW212750   3.846   2.743   6.986 -0.2029  0.5605  0.4684
 3951SOL     OW12751   4.223   1.072   1.520 -0.1009 -0.2559 -0.2642
 3951SOL    HW112752   4.131   1.048   1.549  0.2101 -2.3781 -0.8815
 3951SOL    HW212753   4.250   1.158   1.563 -2.7202  0.9493 -0.8763
 3952SOL     OW12754   0.809   5.523   3.718  0.0782 -0.2241 -0.4601
 3952SOL    HW112755   0.862   5.439   3.708  1.8792  1.0316 -2.4081
 3952SOL    HW212756   0.721   5.512   3.673  0.4387 -0.9519 -1.0148
 3953SOL     OW12757   1.718   2.748   0.151  0.0266  0.2591  0.2513
 3953SOL    HW112758   1.673   2.668   0.112  0.7138 -0.4600  0.9169
 3953SOL    HW212759   1.676   2.831   0.112 -2.1923 -0.3490  1.1607
 3954SOL     OW12760   1.972   6.659   2.316  0.3378 -0.2252 -0.2917
 3954SOL    HW112761   2.019   6.571   2.308  0.7290 -0.1559  0.9955
 3954SOL    HW212762   1.917   6.676   2.234 -0.5562 -2.1370 -0.1372
 3955SOL     OW12763   4.308   2.311   2.300 -0.0444  0.0763 -0.0616
 3955SOL    HW112764   4.386   2.252   2.322  0.7906  1.9554  2.5515
 3955SOL    HW212765   4.226   2.255   2.290  1.0655 -1.6959  0.2323
 3956SOL     OW12766   0.781   0.893   0.300  0.2026  0.0515 -0.3394
 3956SOL    HW112767   0.874   0.871   0.271  0.7790  3.9046 -2.0818
 3956SOL    HW212768   0.784   0.965   0.370 -1.4478  0.5261 -0.6973
 3957SOL     OW12769   2.858   0.822   2.022 -0.2132 -0.1994 -0.6969
 3957SOL    HW112770   2.841   0.913   2.060  1.1111 -0.4332  0.5562
 3957SOL    HW212771   2.788   0.759   2.054  1.1354 -0.5095  1.9568
 3958SOL     OW12772   3.050   6.646   4.727  0.3233  0.4333 -0.2051
 3958SOL    HW112773   2.986   6.666   4.654 -0.7062  3.0114  1.2789
 3958SOL    HW212774   3.123   6.715   4.728  0.9210 -0.1807  0.5369
 3959SOL     OW12775   4.106   5.940   4.504  0.2073  0.1081 -0.0980
 3959SOL    HW112776   4.025   5.935   4.562 -1.1384  2.6224 -1.6332
 3959SOL    HW212777   4.111   5.858   4.447 -0.7351 -0.4959  0.6552
 3960SOL     OW12778   6.668   0.068   2.942 -0.0835 -0.4766 -0.1109
 3960SOL    HW112779   6.720  -0.017   2.928  0.0930 -0.4496  0.3785
 3960SOL    HW212780   6.610   0.059   3.023  0.3320  0.0603  0.2499
 3961SOL     OW12781   5.002   1.630   0.162 -0.1287  0.1085 -0.0914
 3961SOL    HW112782   4.980   1.726   0.147 -2.5994 -0.2333  0.9078
 3961SOL    HW212783   4.952   1.573   0.096  2.0762 -0.5114 -1.3366
 3962SOL     OW12784   5.724   4.097   6.460  0.1538  0.3062  0.0963
 3962SOL    HW112785   5.681   4.184   6.437  1.5127  0.7820 -0.7715
 3962SOL    HW212786   5.814   4.113   6.500  0.8968 -0.6887 -1.0758
 3963SOL     OW12787   5.568   0.024   0.100 -0.7826  0.6776 -0.2591
 3963SOL    HW112788   5.564  -0.074   0.083  1.3493  0.6814 -1.0803
 3963SOL    HW212789   5.599   0.071   0.017 -0.3067  1.8836  0.5693
 3964SOL     OW12790   6.241   2.854   1.207  0.0015  0.8127 -0.5614
 3964SOL    HW112791   6.246   2.756   1.192 -2.3024  0.4714  0.5224
 3964SOL    HW212792   6.220   2.900   1.120 -0.7050  0.1484 -0.7520
 3965SOL     OW12793   2.327   1.308   4.673 -0.0321 -0.0661 -0.3610
 3965SOL    HW112794   2.368   1.396   4.698 -1.0695  0.6752 -1.1712
 3965SOL    HW212795   2.397   1.236   4.676  0.9588  0.8781 -0.2340
 3966SOL     OW12796   5.456   3.949   1.127  1.2298 -0.1258 -0.0589
 3966SOL    HW112797   5.524   3.967   1.199  3.2706 -3.0445 -1.0762
 3966SOL    HW212798   5.495   3.974   1.038  0.7440 -1.2366 -0.5962
 3967SOL     OW12799   3.110   5.666   0.270 -0.0402 -0.1151 -0.4178
 3967SOL    HW112800   3.128   5.569   0.286  0.3463 -0.0030 -0.1517
 3967SOL    HW212801   3.087   5.711   0.356  0.2342  0.1200 -0.4655
 3968SOL     OW12802   3.246   6.080   3.789  0.2194  0.3055  0.1900
 3968SOL    HW112803   3.225   5.982   3.799  0.5844  0.3125  1.0696
 3968SOL    HW212804   3.302   6.093   3.707  2.2478 -0.5527  1.3817
 3969SOL     OW12805   5.293   4.286   0.201  0.0574  0.1034  0.3213
 3969SOL    HW112806   5.209   4.321   0.159 -0.0639 -0.0099  0.4671
 3969SOL    HW212807   5.323   4.205   0.152 -1.2572 -1.2915  1.7056
 3970SOL     OW12808   4.681   1.533   4.321  0.6701 -0.3325 -0.0219
 3970SOL    HW112809   4.662   1.443   4.358  3.0353 -0.1399  1.9603
 3970SOL    HW212810   4.760   1.528   4.260  1.9916  0.5996  1.5337
 3971SOL     OW12811   4.485   1.625   2.721 -0.4883 -0.3963  0.3399
 3971SOL    HW112812   4.497   1.648   2.624  0.1059  1.9831  0.9071
 3971SOL    HW212813   4.393   1.652   2.749 -0.1844  0.2439  0.7449
 3972SOL     OW12814   1.064   0.077   0.806 -0.5018  0.2839 -0.3237
 3972SOL    HW112815   1.139   0.142   0.798  1.4892 -1.9214 -0.4224
 3972SOL    HW212816   1.098  -0.016   0.796 -3.2287 -0.8479 -0.1107
 3973SOL     OW12817   6.300   1.708   4.209  0.3384  0.4515 -0.1552
 3973SOL    HW112818   6.268   1.618   4.179 -1.9876  0.8300  0.9884
 3973SOL    HW212819   6.283   1.775   4.137  2.1426  0.0154 -1.0396
 3974SOL     OW12820   4.265   5.852   4.016  0.0700  0.0351  0.0194
 3974SOL    HW112821   4.174   5.893   4.008 -0.3252 -1.0482 -1.4310
 3974SOL    HW212822   4.325   5.914   4.067 -1.4576  0.7869  0.9696
 3975SOL     OW12823   1.652   5.287   3.962 -0.1764 -0.4598 -0.2254
 3975SOL    HW112824   1.722   5.286   3.890 -0.4079 -1.1001 -0.4438
 3975SOL    HW212825   1.578   5.225   3.938 -1.9057  1.7869 -1.0458
 3976SOL     OW12826   4.993   4.948   1.091  0.7153  0.3610  0.3852
 3976SOL    HW112827   4.992   4.971   1.189 -1.7320 -1.1737  0.8365
 3976SOL    HW212828   4.993   5.031   1.037  0.0114  1.2972  1.7549
 3977SOL     OW12829   3.903   2.177   1.830  0.4504  0.1807 -0.0842
 3977SOL    HW112830   3.827   2.231   1.867 -1.7837 -1.9244 -1.3487
 3977SOL    HW212831   3.896   2.083   1.863  2.9307  0.0528  0.2562
 3978SOL     OW12832   5.777   4.869   5.402 -0.3788 -0.5281 -0.4622
 3978SOL    HW112833   5.748   4.783   5.362 -0.0209 -0.5324 -0.7158
 3978SOL    HW212834   5.696   4.924   5.425 -0.6135 -1.0237 -0.0821
 3979SOL     OW12835   5.194   5.058   6.306 -0.1724  0.2974 -0.2214
 3979SOL    HW112836   5.123   5.030   6.241  1.1083  0.3389 -1.6853
 3979SOL    HW212837   5.151   5.104   6.383 -1.5814  3.3092 -2.5846
 3980SOL     OW12838   6.257   6.376   3.832 -0.1531 -0.0836  0.1657
 3980SOL    HW112839   6.349   6.353   3.864 -0.3726 -1.4447 -0.1056
 3980SOL    HW212840   6.254   6.374   3.732 -0.6147 -0.6459  0.1871
 3981SOL     OW12841   5.633   1.842   3.912 -0.6354  0.3149 -0.1954
 3981SOL    HW112842   5.724   1.854   3.954 -1.0023 -0.6995  0.9620
 3981SOL    HW212843   5.619   1.745   3.893 -0.9090  0.6404 -1.7538
 3982SOL     OW12844   3.138   0.144   4.445  0.2623  0.3706 -0.1548
 3982SOL    HW112845   3.211   0.082   4.415 -0.4289 -1.0883  1.0399
 3982SOL    HW212846   3.059   0.134   4.383 -0.4297 -1.1757  0.9001
 3983SOL     OW12847   3.635   1.971   4.067  0.0404 -0.3205 -0.6448
 3983SOL    HW112848   3.543   1.992   4.033  0.7991  0.9479 -2.0164
 3983SOL    HW212849   3.683   1.913   4.001  0.1351 -1.2843  0.2351
 3984SOL     OW12850   4.336   2.913   1.566 -0.4127  0.5371  0.2452
 3984SOL    HW112851   4.407   2.938   1.632  0.0788  0.5364 -0.2738
 3984SOL    HW212852   4.319   2.991   1.505  1.3291 -0.4001 -1.5627
 3985SOL     OW12853   0.837   6.907   6.134 -0.5009  0.0867 -0.2715
 3985SOL    HW112854   0.912   6.862   6.085 -0.9655 -0.2427 -0.6941
 3985SOL    HW212855   0.813   6.854   6.215 -1.3929 -0.7316 -1.0461
 3986SOL     OW12856   5.681   5.278   0.609  0.4499  0.1195  0.1253
 3986SOL    HW112857   5.693   5.277   0.708  0.1019  0.2150  0.1689
 3986SOL    HW212858   5.714   5.192   0.571  0.4027  0.0036  0.3452
 3987SOL     OW12859   1.411   2.510   1.930  0.4881  0.5036 -0.2234
 3987SOL    HW112860   1.387   2.437   1.867  2.9836 -0.3556 -0.2939
 3987SOL    HW212861   1.458   2.471   2.010 -1.2664  1.7125  1.4903
 3988SOL     OW12862   0.471   4.529   1.795  0.0891 -0.3847 -0.0754
 3988SOL    HW112863   0.542   4.547   1.727  0.7617 -1.8927  0.1873
 3988SOL    HW212864   0.404   4.603   1.794  1.3099  0.7413 -0.7845
 3989SOL     OW12865   3.768   5.303   0.325  0.5058 -0.6601 -0.1036
 3989SOL    HW112866   3.765   5.340   0.418 -0.2786  0.8597 -0.7056
 3989SOL    HW212867   3.858   5.260   0.309  0.9024 -0.3105  1.1054
 3990SOL     OW12868   4.435   0.049   0.832  0.0997 -0.0859 -0.2002
 3990SOL    HW112869   4.467  -0.015   0.762  0.3081 -2.9126  2.2223
 3990SOL    HW212870   4.513   0.089   0.879  0.0949 -1.3355  0.9508
 3991SOL     OW12871   5.088   6.687   6.515 -0.4850 -0.6903 -0.4491
 3991SOL    HW112872   5.020   6.761   6.516  0.7293  0.5076 -1.6435
 3991SOL    HW212873   5.171   6.717   6.563 -0.1836 -1.5121 -0.4357
 3992SOL     OW12874   5.248   0.566   1.635  0.4256  0.4739 -0.4077
 3992SOL    HW112875   5.341   0.597   1.615 -0.0108  1.2696 -1.2438
 3992SOL    HW212876   5.253   0.479   1.685  1.5945 -0.4742 -2.0682
 3993SOL     OW12877   0.085   0.012   2.861  0.1101  0.2545  0.0161
 3993SOL    HW112878   0.179   0.040   2.880  0.3396  1.2046 -2.2173
 3993SOL    HW212879   0.024   0.089   2.875  0.1357  0.6293 -1.6559
 3994SOL     OW12880   5.801   6.252   5.197  0.5663 -0.0080  0.6036
 3994SOL    HW112881   5.897   6.258   5.172 -0.4093  1.2049 -3.5969
 3994SOL    HW212882   5.769   6.340   5.231  0.6342 -0.0519  0.7841
 3995SOL     OW12883   3.667   4.427   5.816  0.4285  0.0766 -0.8643
 3995SOL    HW112884   3.572   4.436   5.846  1.3465 -1.4709  3.2495
 3995SOL    HW212885   3.672   4.361   5.741 -1.5795 -2.5344  1.1001
 3996SOL     OW12886   6.824   0.314   1.163 -0.6308 -0.0497  0.4014
 3996SOL    HW112887   6.778   0.403   1.164  1.8096  1.3702 -1.4069
 3996SOL    HW212888   6.918   0.325   1.197 -0.2396 -1.9341  0.0503
 3997SOL     OW12889   2.576   5.652   0.572  0.9312  0.2674 -0.1485
 3997SOL    HW112890   2.486   5.609   0.577  1.2701 -0.2796  1.9675
 3997SOL    HW212891   2.634   5.600   0.510  0.0593  0.1397 -0.8783
 3998SOL     OW12892   6.891   1.416   3.902 -0.0430 -0.0584 -0.0098
 3998SOL    HW112893   6.823   1.490   3.904  0.5958  0.5378 -0.0575
 3998SOL    HW212894   6.875   1.354   3.978 -0.9401 -0.1940 -0.2975
 3999SOL     OW12895   6.208   1.092   4.278  0.5369  0.4896 -0.6492
 3999SOL    HW112896   6.230   1.065   4.184  0.0979  0.7543 -0.8357
 3999SOL    HW212897   6.108   1.101   4.287  0.2240 -2.7993  0.7162
 4000SOL     OW12898   6.040   3.706   4.407 -0.1889  0.0132  0.0687
 4000SOL    HW112899   5.947   3.699   4.372  0.3944 -1.6634 -1.2480
 4000SOL    HW212900   6.062   3.803   4.421 -1.4526  0.5824 -1.4808
 4001SOL     OW12901   5.042   2.486   6.374 -0.3757  0.4107 -0.2229
 4001SOL    HW112902   5.107   2.528   6.311  0.7907  0.2094  0.8191
 4001SOL    HW212903   4.967   2.550   6.392  1.6426  2.3875  1.7860
 4002SOL     OW12904   6.720   6.703   5.308 -0.1313  0.2815 -0.1831
 4002SOL    HW112905   6.765   6.614   5.311 -1.2710 -0.3353 -0.9286
 4002SOL    HW212906   6.660   6.713   5.387 -1.0448 -0.1904 -0.8048
 4003SOL     OW12907   6.880   1.499   4.660 -0.5533 -0.0606  0.0543
 4003SOL    HW112908   6.799   1.452   4.695 -1.3552 -0.9904 -2.8160
 4003SOL    HW212909   6.852   1.583   4.614  0.2280  0.1067 -0.1329
 4004SOL     OW12910   6.461   1.080   2.817  0.5138  0.6991 -0.0186
 4004SOL    HW112911   6.452   1.012   2.890 -2.1096 -0.5581 -1.3875
 4004SOL    HW212912   6.527   1.047   2.749  0.0982  0.0334 -0.1059
 4005SOL     OW12913   5.410   4.322   0.893  0.7957  0.3388 -0.5481
 4005SOL    HW112914   5.333   4.383   0.875 -0.7709 -0.8811  1.5436
 4005SOL    HW212915   5.440   4.332   0.988  2.3975 -0.1282 -0.9681
 4006SOL     OW12916   4.509   6.380   6.407  0.6258 -0.3486  0.0825
 4006SOL    HW112917   4.435   6.317   6.434 -1.9679  1.6573 -1.8497
 4006SOL    HW212918   4.554   6.345   6.325  1.7825 -1.4725  1.1459
 4007SOL     OW12919   3.199   2.117   0.406 -0.8356  0.4439 -0.3327
 4007SOL    HW112920   3.238   2.139   0.317 -1.7132  0.4828 -0.7129
 4007SOL    HW212921   3.108   2.157   0.414 -1.1624 -0.3849  0.2005
 4008SOL     OW12922   5.443   4.476   0.060  0.3969 -0.3611  0.5274
 4008SOL    HW112923   5.406   4.399   0.113 -0.9355 -0.4745 -0.5193
 4008SOL    HW212924   5.388   4.557   0.076 -0.4298 -0.5564 -1.1394
 4009SOL     OW12925   6.766   0.819   4.383  0.0329 -0.1082 -0.1492
 4009SOL    HW112926   6.692   0.804   4.449  0.7734  2.1406  1.3095
 4009SOL    HW212927   6.854   0.800   4.427  0.4465 -0.4235 -1.0975
 4010SOL     OW12928   2.810   1.170   1.717  0.0497 -0.1081  0.1138
 4010SOL    HW112929   2.755   1.218   1.786  1.8819  1.4119  0.6371
 4010SOL    HW212930   2.751   1.133   1.646 -1.5624  3.3149 -0.5502
 4011SOL     OW12931   6.513   5.593   2.920 -0.2493 -0.1574 -0.7513
 4011SOL    HW112932   6.461   5.523   2.871 -1.6509  0.6764 -0.4906
 4011SOL    HW212933   6.585   5.628   2.861  0.4871 -1.8058 -0.8877
 4012SOL     OW12934   3.858   5.147   0.073  0.5147  0.5360  0.5087
 4012SOL    HW112935   3.823   5.158  -0.020 -1.8063 -2.1190  0.9323
 4012SOL    HW212936   3.792   5.184   0.138  0.6645 -0.3443  1.1807
 4013SOL     OW12937   3.581   6.732   3.451 -0.6819 -0.2041 -0.0827
 4013SOL    HW112938   3.660   6.672   3.448 -0.0353  0.4478  1.8159
 4013SOL    HW212939   3.498   6.678   3.462 -0.2495 -0.8103  0.2568
 4014SOL     OW12940   2.878   6.677   3.701 -0.1966 -0.7046  0.4912
 4014SOL    HW112941   2.959   6.640   3.745  3.5438  1.8272 -3.4692
 4014SOL    HW212942   2.877   6.777   3.711  0.3790 -0.0637 -3.8211
 4015SOL     OW12943   2.747   4.182   5.592 -0.0446 -0.1574  0.4325
 4015SOL    HW112944   2.714   4.167   5.499 -1.3444  0.0188  0.8557
 4015SOL    HW212945   2.828   4.241   5.590 -1.2385  1.5284 -0.4529
 4016SOL     OW12946   1.025   3.987   3.163 -0.0856 -0.0501 -0.3296
 4016SOL    HW112947   0.946   3.975   3.224  0.5225 -0.9872  0.3209
 4016SOL    HW212948   1.011   3.933   3.080 -1.4306  2.1357 -1.5906
 4017SOL     OW12949   2.653   4.258   0.507 -0.4183  0.5914 -0.2813
 4017SOL    HW112950   2.581   4.287   0.569  0.3343  1.0895  0.3754
 4017SOL    HW212951   2.736   4.237   0.559 -0.6776 -2.0616 -0.7894
 4018SOL     OW12952   5.862   6.667   4.409  0.6107 -0.1532 -0.2643
 4018SOL    HW112953   5.921   6.591   4.437  0.9078 -0.4498 -1.6500
 4018SOL    HW212954   5.916   6.735   4.360 -0.0388 -0.0425 -0.8409
 4019SOL     OW12955   3.234   3.350   6.052 -0.2684  0.6915  0.2736
 4019SOL    HW112956   3.281   3.434   6.022 -0.1739  0.5011 -0.1224
 4019SOL    HW212957   3.156   3.374   6.109 -1.8987  1.2287 -2.0232
 4020SOL     OW12958   0.516   3.670   0.949  0.6210  0.5640 -0.4810
 4020SOL    HW112959   0.475   3.757   0.925  1.2933  0.3496 -2.6147
 4020SOL    HW212960   0.446   3.608   0.983  0.2643  2.1415  1.9506
 4021SOL     OW12961   5.391   3.090   6.184 -0.0271  0.6691 -0.5235
 4021SOL    HW112962   5.482   3.078   6.225  0.7268 -0.8835 -2.5129
 4021SOL    HW212963   5.381   3.185   6.154  0.2939  1.2443  1.0543
 4022SOL     OW12964   0.896   6.771   3.342  0.4626 -0.2269 -0.0271
 4022SOL    HW112965   0.843   6.702   3.294 -0.2297  1.3954 -1.7373
 4022SOL    HW212966   0.985   6.734   3.368 -0.6071 -2.3102  0.8744
 4023SOL     OW12967   0.976   3.449   1.216 -0.0816  0.0564 -0.1610
 4023SOL    HW112968   1.016   3.537   1.241  0.0254 -0.4288  1.5173
 4023SOL    HW212969   0.931   3.409   1.296  1.1234 -2.0726 -0.4722
 4024SOL     OW12970   3.832   5.258   1.586  0.1146 -0.7722 -0.9876
 4024SOL    HW112971   3.854   5.346   1.543 -0.7319  0.5813  1.2033
 4024SOL    HW212972   3.735   5.237   1.571  0.0575 -0.7969 -0.5823
 4025SOL     OW12973   5.880   1.624   2.291  0.1800 -0.1995  0.4760
 4025SOL    HW112974   5.842   1.683   2.220  0.8370 -0.1442  0.1608
 4025SOL    HW212975   5.970   1.660   2.319  0.6521 -1.1332  0.1779
 4026SOL     OW12976   5.060   6.523   5.101 -0.1190  0.3907 -0.0807
 4026SOL    HW112977   4.984   6.497   5.161  0.3637  0.7655  0.7078
 4026SOL    HW212978   5.061   6.622   5.091 -2.1726  0.2110 -3.3625
 4027SOL     OW12979   3.619   1.773   5.845 -0.4291 -0.1114 -0.3751
 4027SOL    HW112980   3.566   1.738   5.922  1.5003 -1.1906  0.5358
 4027SOL    HW212981   3.558   1.790   5.768 -2.0957 -1.2402  0.6285
 4028SOL     OW12982   4.532   1.864   1.179 -0.1197  0.2207 -0.4453
 4028SOL    HW112983   4.604   1.933   1.188 -0.4309  0.4555  0.4297
 4028SOL    HW212984   4.525   1.813   1.265 -1.3406  0.5438 -0.3474
 4029SOL     OW12985   2.336   2.146   1.695  0.0785 -0.1054 -0.1455
 4029SOL    HW112986   2.264   2.136   1.763  0.1417 -1.5403 -0.2561
 4029SOL    HW212987   2.422   2.167   1.741 -0.2706  1.0421  0.0282
 4030SOL     OW12988   0.200   1.776   6.714 -0.1286 -0.4830  0.6200
 4030SOL    HW112989   0.273   1.799   6.780  1.0301 -0.4882 -0.6152
 4030SOL    HW212990   0.177   1.857   6.661 -1.1238 -0.4597  1.0682
 4031SOL     OW12991   6.308   1.761   1.294 -0.1819  0.1886  0.1428
 4031SOL    HW112992   6.332   1.673   1.252 -3.1803 -0.2983 -0.7800
 4031SOL    HW212993   6.332   1.835   1.231  1.8353  0.0619  0.6841
 4032SOL     OW12994   7.011   4.325   1.412 -0.6834  0.5832  0.1274
 4032SOL    HW112995   7.021   4.400   1.346 -3.3395 -0.0791 -1.1645
 4032SOL    HW212996   7.100   4.282   1.428  0.3632  1.9929 -1.5283
 4033SOL     OW12997   1.851   6.767   5.726  0.5370  0.0402 -0.3548
 4033SOL    HW112998   1.880   6.671   5.724 -0.3979 -0.3036  0.9546
 4033SOL    HW212999   1.916   6.823   5.675  1.8865 -1.0899  0.0675
 4034SOL     OW13000   2.972   3.368   4.323  0.4929 -0.1864  0.5071
 4034SOL    HW113001   2.996   3.282   4.367 -0.4642 -0.0335  1.3953
 4034SOL    HW213002   2.950   3.352   4.227  0.3611 -0.9358  0.6559
 4035SOL     OW13003   0.793   5.100   4.896  0.2569  0.3350 -0.4631
 4035SOL    HW113004   0.872   5.059   4.852  1.6479  2.3357  0.0123
 4035SOL    HW213005   0.753   5.169   4.835 -0.5464  0.0222 -0.3123
 4036SOL     OW13006   5.299   2.415   6.568  0.1685  0.3315  0.3707
 4036SOL    HW113007   5.322   2.366   6.652 -0.7860  0.8899  0.9783
 4036SOL    HW213008   5.205   2.450   6.574 -0.0528  0.0616 -1.0849
 4037SOL     OW13009   6.382   5.306   3.473 -1.4616 -0.7756  0.8169
 4037SOL    HW113010   6.373   5.273   3.379 -1.3423  0.3324  0.3959
 4037SOL    HW213011   6.478   5.323   3.494 -1.5403 -0.4629  0.9340
 4038SOL     OW13012   3.261   1.817   4.602  0.6809  0.1383  0.0439
 4038SOL    HW113013   3.207   1.808   4.686 -0.7716 -0.2491 -0.8963
 4038SOL    HW213014   3.347   1.865   4.623 -0.2764  1.3314  1.4809
 4039SOL     OW13015   5.715   1.863   5.636 -0.0347 -0.2269 -0.0092
 4039SOL    HW113016   5.694   1.942   5.695 -0.7917 -1.1174  0.9468
 4039SOL    HW213017   5.802   1.824   5.664  0.0441 -0.1044 -0.0806
 4040SOL     OW13018   2.785   2.835   6.384  0.1797 -0.0960 -0.2834
 4040SOL    HW113019   2.778   2.804   6.479  0.8193  0.3732 -0.0746
 4040SOL    HW213020   2.703   2.887   6.360 -0.6206 -1.3938 -0.4438
 4041SOL     OW13021   3.486   3.418   1.958 -0.2298 -0.9663 -0.0382
 4041SOL    HW113022   3.565   3.365   1.928  0.6920  0.6243 -0.5179
 4041SOL    HW213023   3.429   3.441   1.880  1.5339  2.1397 -0.5598
 4042SOL     OW13024   3.721   0.345   4.639  0.0615 -0.5347 -0.4237
 4042SOL    HW113025   3.729   0.322   4.736  0.9241 -1.7397 -0.7633
 4042SOL    HW213026   3.786   0.418   4.616  0.9716 -1.3283 -0.4116
 4043SOL     OW13027   0.103   4.056   5.786 -0.2606  0.1743  0.1704
 4043SOL    HW113028   0.118   4.143   5.835 -0.7229  0.0766  0.4868
 4043SOL    HW213029   0.117   4.071   5.688 -1.3803  0.8626  0.0979
 4044SOL     OW13030   0.350   2.930   4.686 -0.1620 -0.5180  0.2964
 4044SOL    HW113031   0.402   2.944   4.770  0.9506  1.0916 -0.6050
 4044SOL    HW213032   0.370   3.004   4.622 -0.4392 -2.0631 -1.6701
 4045SOL     OW13033   0.207   4.263   0.791  0.9373  0.0908  0.1271
 4045SOL    HW113034   0.162   4.337   0.741  0.2671 -0.6959 -0.4701
 4045SOL    HW213035   0.295   4.242   0.749  0.8063  0.0698 -0.1356
 4046SOL     OW13036   2.325   4.968   2.567  0.1018 -0.1040  0.2864
 4046SOL    HW113037   2.406   4.975   2.508  1.1208 -1.0633  1.5269
 4046SOL    HW213038   2.276   5.055   2.565  1.1706  0.5126 -0.4636
 4047SOL     OW13039   4.271   0.345   5.336 -0.4135 -0.3048 -0.1070
 4047SOL    HW113040   4.191   0.371   5.282  0.1654 -1.4019 -1.5511
 4047SOL    HW213041   4.352   0.390   5.299 -0.3924  1.3974  1.8049
 4048SOL     OW13042   6.112   5.456   5.148 -0.1889  0.3571  0.2102
 4048SOL    HW113043   6.102   5.546   5.190  1.0642  0.5906  0.0402
 4048SOL    HW213044   6.169   5.464   5.066 -0.2999 -0.5441  0.0392
 4049SOL     OW13045   6.471   1.791   2.135 -0.8691  0.5049  0.0497
 4049SOL    HW113046   6.436   1.882   2.155 -2.0830  0.2711 -0.9138
 4049SOL    HW213047   6.425   1.754   2.054  2.0420  0.4166 -1.7021
 4050SOL     OW13048   5.475   0.773   2.981  0.4482 -0.2627  0.3837
 4050SOL    HW113049   5.412   0.850   2.973  0.1724 -0.5310 -0.0657
 4050SOL    HW213050   5.474   0.720   2.896 -0.1631 -1.3736  1.0505
 4051SOL     OW13051   0.325   4.579   0.536  0.0069 -0.0293  0.0670
 4051SOL    HW113052   0.372   4.660   0.570  1.6057 -0.9827  0.2149
 4051SOL    HW213053   0.308   4.589   0.438  2.0108 -0.3059 -0.3548
 4052SOL     OW13054   0.558   3.553   6.151 -0.4341  0.2726  0.4609
 4052SOL    HW113055   0.519   3.502   6.229 -2.6359 -0.0560 -0.7698
 4052SOL    HW213056   0.566   3.492   6.072  2.1727  0.4948  0.4749
 4053SOL     OW13057   0.399   2.156   0.012  0.3542  0.0611 -0.2495
 4053SOL    HW113058   0.304   2.180  -0.010  0.3673 -0.6980 -1.2347
 4053SOL    HW213059   0.404   2.127   0.107 -0.1051  1.5266  0.2512
 4054SOL     OW13060   6.227   4.885   0.300 -0.2737  0.3003  0.2011
 4054SOL    HW113061   6.194   4.849   0.213  0.0342  1.5979 -0.4734
 4054SOL    HW213062   6.236   4.810   0.366  0.1701 -0.8155 -1.0908
 4055SOL     OW13063   1.056   1.256   4.424  0.0952 -0.0307  0.1604
 4055SOL    HW113064   1.142   1.232   4.379  0.5448 -3.0887  2.3347
 4055SOL    HW213065   0.988   1.281   4.354  1.7760 -0.7922 -1.8669
 4056SOL     OW13066   2.353   2.882   0.967 -0.0086  0.6298  0.3474
 4056SOL    HW113067   2.406   2.801   0.942 -3.6166 -1.8917 -0.0476
 4056SOL    HW213068   2.343   2.886   1.066  0.9383  1.1643  0.4289
 4057SOL     OW13069   5.040   3.666   5.207  0.9943  0.7565 -0.6821
 4057SOL    HW113070   4.948   3.685   5.175  0.5294  0.3737  0.3778
 4057SOL    HW213071   5.065   3.733   5.277 -0.4395 -1.9127  2.6795
 4058SOL     OW13072   0.559   0.134   5.192  0.1340 -0.0621  0.7355
 4058SOL    HW113073   0.490   0.193   5.149 -1.7100 -2.7005 -0.1630
 4058SOL    HW213074   0.621   0.099   5.123 -0.1273 -0.8846  0.9125
 4059SOL     OW13075   4.282   2.057   3.588 -0.2532 -0.1645  0.1781
 4059SOL    HW113076   4.305   2.041   3.684 -1.0165  0.0537  0.4056
 4059SOL    HW213077   4.315   1.981   3.532 -0.6433 -0.7577  0.7452
 4060SOL     OW13078   6.380   0.986   6.767  0.5503 -0.0467  0.4246
 4060SOL    HW113079   6.361   0.975   6.669 -0.2084  1.4269  0.3740
 4060SOL    HW213080   6.451   0.921   6.795  1.2235 -0.0699 -1.2355
 4061SOL     OW13081   2.596   4.422   0.981 -0.4671 -0.4120 -0.6753
 4061SOL    HW113082   2.622   4.491   0.914  0.6950 -1.2548 -1.1260
 4061SOL    HW213083   2.517   4.454   1.033  0.0037  1.2111 -0.9171
 4062SOL     OW13084   5.042   4.306   0.082  0.5950  0.3250  0.4450
 4062SOL    HW113085   5.001   4.395   0.099 -1.0287 -0.4488  0.7796
 4062SOL    HW213086   4.970   4.236   0.079  1.7222 -0.8469 -0.7561
 4063SOL     OW13087   1.023   3.071   0.100 -0.3550 -0.4130 -0.2363
 4063SOL    HW113088   1.046   3.107   0.191 -1.1627 -2.0136  0.6518
 4063SOL    HW213089   1.074   3.121   0.030  0.2685  0.8764  1.0925
 4064SOL     OW13090   2.033   6.204   6.578 -0.4138 -0.0498 -0.6005
 4064SOL    HW113091   2.127   6.168   6.575  0.8239  2.7999  0.3598
 4064SOL    HW213092   2.010   6.245   6.490 -0.7806 -0.7403 -0.8328
 4065SOL     OW13093   1.150   6.285   1.236 -0.1105 -0.4418  0.6444
 4065SOL    HW113094   1.104   6.288   1.147  0.1313  0.2581  0.5392
 4065SOL    HW213095   1.115   6.208   1.289 -0.2902 -0.8371 -0.0392
 4066SOL     OW13096   0.204   5.299   2.437  0.0622 -0.5390  0.5745
 4066SOL    HW113097   0.215   5.204   2.410 -0.7828 -0.5070  0.0857
 4066SOL    HW213098   0.107   5.319   2.449  0.0184  0.8460 -1.5501
 4067SOL     OW13099   4.736   0.825   4.022 -0.2673 -0.6867 -0.4440
 4067SOL    HW113100   4.782   0.757   4.079 -0.5093 -0.9903 -0.6095
 4067SOL    HW213101   4.644   0.794   4.000 -0.4883 -0.1635 -0.2709
 4068SOL     OW13102   6.325   2.093   5.611  0.1954 -0.0260 -0.3376
 4068SOL    HW113103   6.309   2.154   5.534 -0.7830  2.2044  1.5086
 4068SOL    HW213104   6.380   2.140   5.680 -1.9781 -0.4908  1.8820
 4069SOL     OW13105   2.098   1.716   5.446 -0.3682 -0.4463  0.0342
 4069SOL    HW113106   2.013   1.734   5.496 -0.3437  0.0293 -0.0953
 4069SOL    HW213107   2.119   1.618   5.451 -0.8032 -0.5314  0.2561
 4070SOL     OW13108   3.194   0.413   3.008 -0.1277 -0.0631  0.5058
 4070SOL    HW113109   3.174   0.457   2.921  0.6448 -0.5639  0.0665
 4070SOL    HW213110   3.256   0.470   3.062  0.4275 -0.3431  0.1727
 4071SOL     OW13111   3.813   1.170   5.513  0.9639  0.7191 -0.2875
 4071SOL    HW113112   3.843   1.239   5.448  0.4282  0.4755 -0.8001
 4071SOL    HW213113   3.740   1.208   5.570  1.1956  0.8191 -0.0523
 4072SOL     OW13114   4.387   4.196   0.896  0.1047  0.1688  0.5394
 4072SOL    HW113115   4.360   4.216   0.991  0.3853 -0.5358  0.7726
 4072SOL    HW213116   4.317   4.233   0.834 -0.6163 -0.2765  1.0688
 4073SOL     OW13117   2.819   0.199   6.063  0.5465 -0.0558  0.3191
 4073SOL    HW113118   2.900   0.172   6.010  0.1434 -0.2047 -0.2341
 4073SOL    HW213119   2.778   0.118   6.105  0.3107 -0.0775  0.0538
 4074SOL     OW13120   2.325   5.351   0.350 -0.2122 -0.3791  0.2643
 4074SOL    HW113121   2.367   5.418   0.290 -0.3142 -0.9745 -0.4815
 4074SOL    HW213122   2.351   5.369   0.445  0.3079  0.2932 -0.0069
 4075SOL     OW13123   5.220   4.658   5.081  0.4490  0.2847  0.2247
 4075SOL    HW113124   5.277   4.579   5.103  0.6294 -0.1740 -1.6761
 4075SOL    HW213125   5.203   4.660   4.982 -0.7913  1.8003  0.4286
 4076SOL     OW13126   1.046   2.903   3.777  0.5701  0.5267  0.3770
 4076SOL    HW113127   1.125   2.852   3.743  0.1254  0.4264 -0.5561
 4076SOL    HW213128   1.008   2.858   3.858  2.2637  1.3239  1.6639
 4077SOL     OW13129   6.090   5.107   2.836  0.1537  0.0255  0.0649
 4077SOL    HW113130   6.051   5.197   2.815  0.4072 -0.0024 -0.5448
 4077SOL    HW213131   6.024   5.053   2.888 -0.2801  0.3002 -0.1938
 4078SOL     OW13132   1.715   1.863   3.832 -0.3247 -0.4404 -0.1029
 4078SOL    HW113133   1.683   1.776   3.795  0.9258 -0.7566 -0.4793
 4078SOL    HW213134   1.710   1.861   3.932  0.1351 -1.1251 -0.0872
 4079SOL     OW13135   1.389   3.622   6.564  0.3532 -0.3121 -0.3911
 4079SOL    HW113136   1.342   3.705   6.536  0.4593 -0.3064 -0.5575
 4079SOL    HW213137   1.458   3.644   6.632  1.2751 -0.0598 -1.3751
 4080SOL     OW13138   3.040   5.227   3.637  0.1213 -0.6114 -0.2172
 4080SOL    HW113139   3.118   5.175   3.601 -0.0051 -1.1922  0.3349
 4080SOL    HW213140   3.059   5.325   3.628  0.5002 -0.7445 -0.9744
 4081SOL     OW13141   6.475   2.248   3.434  0.3787 -0.0797  0.4532
 4081SOL    HW113142   6.404   2.318   3.430  0.7785  0.3510  0.7798
 4081SOL    HW213143   6.473   2.194   3.351  0.5144  0.7686 -0.1171
 4082SOL     OW13144   4.418   4.744   6.348  0.2314 -0.2067 -0.6461
 4082SOL    HW113145   4.461   4.834   6.351  0.2561 -0.1954 -1.3033
 4082SOL    HW213146   4.417   4.711   6.254  0.1675 -0.8685 -0.4128
 4083SOL     OW13147   5.138   0.375   6.689  0.3464  0.3065 -0.3125
 4083SOL    HW113148   5.067   0.306   6.673  0.1407  0.1822  1.0733
 4083SOL    HW213149   5.106   0.441   6.756  2.0207 -0.5452  1.4226
 4084SOL     OW13150   4.818   2.153   3.153  0.0540  0.1262  0.5022
 4084SOL    HW113151   4.842   2.249   3.141 -2.2535  0.5102 -2.2315
 4084SOL    HW213152   4.892   2.095   3.120  1.4909  0.8993  2.2244
 4085SOL     OW13153   3.100   3.007   6.704  0.0519  0.3393  0.2324
 4085SOL    HW113154   3.087   3.104   6.725 -1.9161 -0.1033  1.3450
 4085SOL    HW213155   3.156   2.965   6.775  1.7490  0.8275 -0.7760
 4086SOL     OW13156   3.364   1.695   6.853 -0.0420 -0.0742 -0.2214
 4086SOL    HW113157   3.420   1.641   6.790  1.4477  0.0552  0.9337
 4086SOL    HW213158   3.268   1.670   6.842  0.4417 -1.7942 -0.8332
 4087SOL     OW13159   5.761   3.729   4.298 -0.3636  0.1019  0.1311
 4087SOL    HW113160   5.784   3.691   4.208 -1.7186  0.5363 -0.4152
 4087SOL    HW213161   5.706   3.663   4.349 -0.6719  0.3625  0.1375
 4088SOL     OW13162   6.821   4.888   1.405 -0.3352  0.5103 -0.0119
 4088SOL    HW113163   6.809   4.838   1.490 -1.9033  2.3760  0.9342
 4088SOL    HW213164   6.786   4.834   1.329 -1.3593 -0.1055  0.8751
 4089SOL     OW13165   5.098   6.819   5.101 -0.6455 -0.3681  0.3141
 4089SOL    HW113166   5.179   6.868   5.071 -0.1333 -0.2025  1.8948
 4089SOL    HW213167   5.017   6.861   5.061 -0.0235  0.0499 -0.5252
 4090SOL     OW13168   1.180   5.225   0.311  0.3060 -0.5980 -0.0224
 4090SOL    HW113169   1.147   5.288   0.240 -2.5367 -1.1527  0.6788
 4090SOL    HW213170   1.139   5.250   0.399  2.4193 -0.9600  1.1266
 4091SOL     OW13171   6.754   2.926   6.377 -0.2348 -0.1937  0.2163
 4091SOL    HW113172   6.846   2.924   6.416 -0.5164 -0.4998  0.8762
 4091SOL    HW213173   6.690   2.878   6.438 -0.7659 -0.2993 -0.4090
 4092SOL     OW13174   0.674   4.711   0.675 -0.4257  0.0107 -0.1285
 4092SOL    HW113175   0.659   4.665   0.763 -0.4999 -0.0463 -0.1706
 4092SOL    HW213176   0.590   4.756   0.646 -0.1943  0.6577  0.1887
 4093SOL     OW13177   1.458   6.037   1.214  0.4325  0.0597 -0.3711
 4093SOL    HW113178   1.520   5.963   1.239 -0.8360 -0.4014  1.6693
 4093SOL    HW213179   1.454   6.104   1.288 -2.0014 -0.3083 -0.0732
 4094SOL     OW13180   0.907   6.473   6.980 -0.3185 -0.0214  0.4165
 4094SOL    HW113181   0.882   6.561   6.940  1.4730 -0.0119 -0.8214
 4094SOL    HW213182   0.905   6.480   7.080 -1.6162  0.9674  0.3418
 4095SOL     OW13183   2.985   5.754   3.761 -0.0664 -0.6302 -0.2504
 4095SOL    HW113184   3.038   5.712   3.834  0.9199 -2.0813 -1.7152
 4095SOL    HW213185   2.932   5.830   3.797  1.4892 -0.3802  1.6554
 4096SOL     OW13186   1.419   6.465   5.089  0.3200  0.2651 -0.0276
 4096SOL    HW113187   1.347   6.535   5.090  1.1753  1.2073  1.9206
 4096SOL    HW213188   1.385   6.383   5.135 -0.1637 -0.0452 -0.9200
 4097SOL     OW13189   1.900   6.238   1.657  0.0601  0.7011 -0.4811
 4097SOL    HW113190   1.963   6.287   1.597 -1.3273  2.7158 -0.4096
 4097SOL    HW213191   1.870   6.153   1.613 -0.4465  1.8181 -2.3985
 4098SOL     OW13192   6.654   6.691   6.530 -0.2846 -0.6638  0.4951
 4098SOL    HW113193   6.634   6.608   6.582  0.5644 -2.4063 -1.7723
 4098SOL    HW213194   6.571   6.745   6.519 -0.7926 -1.0280  2.2622
 4099SOL     OW13195   4.317   3.154   1.411  0.2241  0.7170  0.5829
 4099SOL    HW113196   4.229   3.110   1.432 -0.2174  1.5811  0.5871
 4099SOL    HW213197   4.315   3.249   1.441  1.4124  0.5731  1.1838
 4100SOL     OW13198   3.109   4.671   5.343  0.0946  0.2122 -0.7215
 4100SOL    HW113199   3.027   4.670   5.287 -0.6119  1.0053  0.2544
 4100SOL    HW213200   3.095   4.732   5.421 -0.0457 -2.8745  1.8968
 4101SOL     OW13201   1.159   3.926   1.966 -0.4420  0.1460  0.2763
 4101SOL    HW113202   1.136   3.847   2.022 -2.0009  0.3250 -0.0639
 4101SOL    HW213203   1.081   3.989   1.963 -0.1294  0.5192 -1.4064
 4102SOL     OW13204   2.796   3.148   1.553 -0.2850  0.3518  0.2033
 4102SOL    HW113205   2.890   3.178   1.567 -0.4164  0.6770  0.3983
 4102SOL    HW213206   2.733   3.216   1.590 -0.6212  0.5422 -0.6898
 4103SOL     OW13207   0.945   5.355   4.201  0.2385  0.4384  0.3077
 4103SOL    HW113208   0.965   5.390   4.293  2.6475  0.1995 -0.0598
 4103SOL    HW213209   0.969   5.258   4.197 -1.6608 -0.0518 -0.0821
 4104SOL     OW13210   0.427   6.219   6.723  0.0805  0.8336 -0.2078
 4104SOL    HW113211   0.348   6.161   6.742 -0.0273  0.7591 -0.8799
 4104SOL    HW213212   0.505   6.187   6.777 -0.2854  0.7789  0.2998
 4105SOL     OW13213   4.407   4.638   2.317  0.1032  0.9023 -0.6622
 4105SOL    HW113214   4.396   4.721   2.371  1.3826 -0.5176  2.0141
 4105SOL    HW213215   4.319   4.610   2.279 -0.7731  2.2302  0.3051
 4106SOL     OW13216   3.858   0.401   2.871 -0.0015  0.4675  0.2622
 4106SOL    HW113217   3.921   0.328   2.846 -1.5720 -0.9522  0.3315
 4106SOL    HW213218   3.782   0.364   2.925  0.4629  2.5548  2.5780
 4107SOL     OW13219   3.524   6.794   4.967 -0.4277  0.2114 -0.1440
 4107SOL    HW113220   3.457   6.865   4.989  1.8578  2.3922  0.3601
 4107SOL    HW213221   3.587   6.829   4.898 -0.4387 -2.1804 -1.4616
 4108SOL     OW13222   5.371   2.343   1.423 -0.1238 -0.6110  0.5736
 4108SOL    HW113223   5.302   2.271   1.426 -0.2527 -0.4760  0.9833
 4108SOL    HW213224   5.378   2.381   1.331  0.3655 -1.5564  0.2102
 4109SOL     OW13225   2.822   1.000   3.694  0.0044  0.2251  0.5897
 4109SOL    HW113226   2.837   0.941   3.773  1.6980  1.2517  1.0707
 4109SOL    HW213227   2.885   0.972   3.620  0.7295  1.3102  0.7776
 4110SOL     OW13228   5.559   1.527   5.875 -0.2194 -0.0598 -0.4253
 4110SOL    HW113229   5.473   1.477   5.872  0.5281 -1.4049 -0.3151
 4110SOL    HW213230   5.543   1.623   5.854 -1.3749 -0.7657 -3.2833
 4111SOL     OW13231   4.017   3.321   2.852  0.1488 -0.3486 -0.9364
 4111SOL    HW113232   3.938   3.375   2.879  0.1890 -1.4818  1.7547
 4111SOL    HW213233   3.991   3.260   2.777 -1.1420  0.2141 -0.9751
 4112SOL     OW13234   6.696   3.252   4.819  0.0987 -0.5272  0.5985
 4112SOL    HW113235   6.653   3.167   4.851 -2.7589  0.4200 -0.4541
 4112SOL    HW213236   6.691   3.256   4.719  1.4857  0.2782  0.5354
 4113SOL     OW13237   2.226   4.773   1.137 -0.0729 -0.3044 -0.2484
 4113SOL    HW113238   2.313   4.779   1.088  0.3106  1.1144  0.5440
 4113SOL    HW213239   2.243   4.781   1.235 -0.8666 -2.6547  0.1449
 4114SOL     OW13240   2.344   6.427   3.734 -0.1334 -0.0885  0.2353
 4114SOL    HW113241   2.282   6.444   3.656  0.6374 -1.0837 -0.6240
 4114SOL    HW213242   2.299   6.367   3.799 -0.5367  0.2035  0.2310
 4115SOL     OW13243   1.771   3.467   3.245 -0.2855 -0.1207  0.1042
 4115SOL    HW113244   1.855   3.413   3.256 -0.7690 -1.4976 -2.2714
 4115SOL    HW213245   1.760   3.528   3.324  2.8856  0.0670  0.5502
 4116SOL     OW13246   6.623   5.929   5.159  0.3356 -0.0248 -0.0459
 4116SOL    HW113247   6.595   5.834   5.168  1.3381 -0.5251 -1.7358
 4116SOL    HW213248   6.630   5.971   5.249  0.5687 -1.7538  0.7660
 4117SOL     OW13249   4.210   3.045   5.615 -0.7469  0.0559  0.0704
 4117SOL    HW113250   4.243   3.023   5.524 -1.7059 -0.7587 -0.1026
 4117SOL    HW213251   4.235   3.139   5.638 -0.6012  0.3131 -1.0765
 4118SOL     OW13252   5.048   1.392   2.305 -0.0666 -0.0130 -0.1437
 4118SOL    HW113253   5.079   1.431   2.392  0.0810  0.9483 -0.6121
 4118SOL    HW213254   5.128   1.369   2.250 -0.1652 -0.0941 -0.2510
 4119SOL     OW13255   5.316   6.150   0.667 -0.3678 -0.5032 -0.3404
 4119SOL    HW113256   5.384   6.122   0.599  0.0289 -0.5743  0.0786
 4119SOL    HW213257   5.228   6.168   0.622 -0.0721 -0.4118 -0.8874
 4120SOL     OW13258   2.776   1.658   3.651 -0.7619  0.1665  0.4736
 4120SOL    HW113259   2.737   1.674   3.560 -0.5968  0.0587  0.3832
 4120SOL    HW213260   2.830   1.573   3.650 -1.4604 -0.2936  0.8948
 4121SOL     OW13261   5.238   0.810   4.398 -0.3268  0.4746 -0.2757
 4121SOL    HW113262   5.227   0.858   4.311 -1.1039  1.3796  0.2974
 4121SOL    HW213263   5.177   0.850   4.466 -0.5983 -0.9778  0.3869
 4122SOL     OW13264   0.469   0.861   4.244 -0.2433  0.3578 -0.1372
 4122SOL    HW113265   0.433   0.950   4.273 -2.1878 -1.1412  2.6001
 4122SOL    HW213266   0.557   0.844   4.288 -0.2781  0.6049  0.0291
 4123SOL     OW13267   6.655   5.160   0.693 -0.0897 -0.0453  0.9685
 4123SOL    HW113268   6.577   5.222   0.692  1.4240  2.0810 -2.0031
 4123SOL    HW213269   6.623   5.065   0.685 -2.3548  0.5740  1.9271
 4124SOL     OW13270   3.049   2.011   3.441  0.0142 -1.1619  0.7224
 4124SOL    HW113271   3.052   1.974   3.349  1.8613 -0.6269  0.5263
 4124SOL    HW213272   3.031   1.938   3.506 -0.9668 -1.5988 -0.0102
 4125SOL     OW13273   6.580   0.222   3.465 -0.3860 -0.1890 -0.7509
 4125SOL    HW113274   6.619   0.295   3.521  0.6858 -0.1414 -1.5311
 4125SOL    HW213275   6.532   0.262   3.387 -1.4554 -0.2734 -0.1628
 4126SOL     OW13276   3.377   1.161   6.488  0.1995  0.1247  0.1119
 4126SOL    HW113277   3.386   1.260   6.489  0.1448  0.2239 -2.2990
 4126SOL    HW213278   3.467   1.118   6.477  0.0411  0.0090 -0.7728
 4127SOL     OW13279   3.654   0.868   3.711 -0.1343 -0.2163 -0.8255
 4127SOL    HW113280   3.751   0.846   3.708  0.4488  1.6023  1.8784
 4127SOL    HW213281   3.613   0.850   3.621  2.7689 -0.5049 -2.1919
 4128SOL     OW13282   5.811   5.038   3.690 -0.1058 -0.0931  0.1749
 4128SOL    HW113283   5.860   5.113   3.734 -0.1052 -0.0872  0.1647
 4128SOL    HW213284   5.713   5.046   3.710  0.0506 -0.8561  1.2919
 4129SOL     OW13285   0.180   2.098   6.313  0.4207 -0.7961 -0.4250
 4129SOL    HW113286   0.183   2.137   6.221 -1.2245 -1.4054 -0.7755
 4129SOL    HW213287   0.259   2.130   6.366 -0.7665  2.9689 -0.6544
 4130SOL     OW13288   5.917   3.021   2.333  0.6780 -0.5867 -0.2294
 4130SOL    HW113289   5.894   2.926   2.312 -0.0150 -1.1106  2.5018
 4130SOL    HW213290   5.843   3.081   2.304  1.1219 -0.8340 -1.9800
 4131SOL     OW13291   4.836   5.123   2.384 -0.1256  0.0976 -0.2046
 4131SOL    HW113292   4.844   5.024   2.383 -0.7075  0.0461 -0.6978
 4131SOL    HW213293   4.742   5.149   2.363  0.2375  0.7668 -1.0802
 4132SOL     OW13294   0.481   1.304   6.273  0.0650  0.2088  0.5652
 4132SOL    HW113295   0.558   1.242   6.292 -1.6082 -2.1190  0.2171
 4132SOL    HW213296   0.466   1.364   6.352  1.2339 -0.3864  1.2708
 4133SOL     OW13297   5.637   3.708   3.297  0.2552  0.2366  0.1955
 4133SOL    HW113298   5.716   3.654   3.325  1.4523  0.7748 -1.9267
 4133SOL    HW213299   5.587   3.660   3.224  0.7019  1.4381 -0.9460
 4134SOL     OW13300   1.075   2.545   0.658  0.2957 -0.2474  0.9261
 4134SOL    HW113301   1.164   2.530   0.614  0.2072  0.1204  0.6200
 4134SOL    HW213302   1.031   2.457   0.675  0.3514 -0.3946  0.3238
 4135SOL     OW13303   2.522   2.084   1.191 -0.2688 -0.3038  0.1435
 4135SOL    HW113304   2.454   2.046   1.254 -1.5399  2.3389  0.5112
 4135SOL    HW213305   2.569   2.160   1.235 -0.1805  0.7080 -1.5980
 4136SOL     OW13306   3.271   6.915   4.372 -0.4656  0.3595 -0.5318
 4136SOL    HW113307   3.302   6.956   4.287 -0.4834 -0.9820 -1.2146
 4136SOL    HW213308   3.232   6.825   4.353  0.7038 -0.5296  1.0247
 4137SOL     OW13309   1.395   5.791   0.327 -0.2050 -0.2038  0.2435
 4137SOL    HW113310   1.423   5.867   0.268  2.2870  0.3034  1.9414
 4137SOL    HW213311   1.429   5.705   0.288  0.3670 -0.0109  0.3127
 4138SOL     OW13312   3.193   5.627   6.450  0.6137 -0.2726 -0.1732
 4138SOL    HW113313   3.165   5.697   6.385 -0.2597 -0.6003 -0.1667
 4138SOL    HW213314   3.240   5.554   6.402 -0.3539 -0.6911 -0.5094
 4139SOL     OW13315   0.811   5.076   5.192 -0.6634 -0.4123 -0.2568
 4139SOL    HW113316   0.855   5.166   5.187 -0.1624 -0.7051 -1.2780
 4139SOL    HW213317   0.779   5.050   5.101 -0.3111 -1.5180 -0.0755
 4140SOL     OW13318   4.845   5.249   4.463 -0.1426 -0.3167 -0.3066
 4140SOL    HW113319   4.808   5.160   4.437 -0.9827  0.0081 -0.2712
 4140SOL    HW213320   4.876   5.297   4.381 -2.3558  0.5141 -0.7437
 4141SOL     OW13321   2.597   0.022   5.933  0.2521  0.6475  0.4940
 4141SOL    HW113322   2.658  -0.008   6.007  0.0206  0.7492  0.7274
 4141SOL    HW213323   2.624  -0.023   5.848 -0.7870 -1.1135  1.0555
 4142SOL     OW13324   6.176   1.518   5.695 -0.0070  0.2593  0.1089
 4142SOL    HW113325   6.223   1.607   5.696 -0.4156  0.5697 -2.1046
 4142SOL    HW213326   6.083   1.531   5.660 -0.5568 -0.8557  1.1262
 4143SOL     OW13327   1.225   5.651   3.305 -0.4687  0.8978  0.2861
 4143SOL    HW113328   1.295   5.623   3.371  0.0213 -0.8160 -0.8880
 4143SOL    HW213329   1.259   5.728   3.250  0.6258 -0.0348 -0.4018
 4144SOL     OW13330   3.223   4.261   0.381  0.1815 -0.2418  0.6955
 4144SOL    HW113331   3.232   4.331   0.451 -2.2805 -0.5031  1.3683
 4144SOL    HW213332   3.287   4.186   0.400  0.0326  0.0001  2.2851
 4145SOL     OW13333   5.854   2.141   3.728  0.4016 -0.2853 -0.5304
 4145SOL    HW113334   5.889   2.049   3.746 -2.0420 -1.2472 -0.3846
 4145SOL    HW213335   5.767   2.135   3.679  0.5371  1.9862 -1.1441
 4146SOL     OW13336   2.740   5.975   6.695 -0.5537 -0.2762  0.2174
 4146SOL    HW113337   2.670   5.981   6.624  0.0881  0.7734 -0.3407
 4146SOL    HW213338   2.812   5.913   6.666  0.5542  1.4399 -0.8202
 4147SOL     OW13339   1.847   2.339   5.029  0.4696 -0.3214 -0.2490
 4147SOL    HW113340   1.814   2.246   5.009 -0.7463 -0.2221  1.1236
 4147SOL    HW213341   1.842   2.394   4.946  0.9559 -1.3950 -1.0222
 4148SOL     OW13342   5.683   1.073   1.805 -0.2677 -0.5264  0.1333
 4148SOL    HW113343   5.715   1.005   1.871  0.3231  0.7694  1.2294
 4148SOL    HW213344   5.751   1.146   1.797 -0.4147 -0.5504 -1.8034
 4149SOL     OW13345   5.541   5.313   3.174  0.1880 -0.4328 -0.0975
 4149SOL    HW113346   5.555   5.371   3.253  3.7242 -1.6976  0.3808
 4149SOL    HW213347   5.491   5.231   3.202 -0.0236 -0.1274  0.4386
 4150SOL     OW13348   1.267   2.125   2.389 -0.6656 -0.0761 -0.4533
 4150SOL    HW113349   1.340   2.062   2.362 -0.9611 -0.3200 -0.6913
 4150SOL    HW213350   1.194   2.123   2.321 -0.8185  0.2940 -0.3027
 4151SOL     OW13351   5.634   6.255   2.410 -0.3940  0.0277  0.1826
 4151SOL    HW113352   5.606   6.302   2.327 -0.3305  2.0715  1.2533
 4151SOL    HW213353   5.678   6.168   2.386 -1.5529 -0.0691 -1.8113
 4152SOL     OW13354   2.301   0.560   6.403 -0.1061  0.2325  0.1979
 4152SOL    HW113355   2.202   0.570   6.413 -0.2015  0.8866 -1.1772
 4152SOL    HW213356   2.321   0.520   6.314  0.9221  1.8738 -0.3523
 4153SOL     OW13357   2.200   5.266   3.978 -0.0900 -0.2785 -0.3521
 4153SOL    HW113358   2.151   5.213   4.047 -0.0321  0.8607  0.5898
 4153SOL    HW213359   2.136   5.292   3.905 -1.3882  2.5769  1.6549
 4154SOL     OW13360   6.612   1.199   3.470  0.0239 -0.5522 -0.2353
 4154SOL    HW113361   6.670   1.237   3.542 -1.6195 -2.3861  2.2295
 4154SOL    HW213362   6.669   1.146   3.407  1.3203 -0.4755  0.8089
 4155SOL     OW13363   1.431   5.456   2.848 -0.1829  0.7641 -0.3819
 4155SOL    HW113364   1.490   5.394   2.899  0.2632 -0.5889 -2.3892
 4155SOL    HW213365   1.474   5.478   2.760 -3.0615 -1.3220 -2.5465
 4156SOL     OW13366   4.661   2.121   2.047 -0.1124  0.6827  0.1424
 4156SOL    HW113367   4.674   2.022   2.052 -1.2419  0.5892  2.5470
 4156SOL    HW213368   4.575   2.142   2.000  0.1138  0.5498 -0.3410
 4157SOL     OW13369   3.412   6.754   1.758  0.2395 -0.1559 -0.1258
 4157SOL    HW113370   3.317   6.733   1.734  0.0469 -1.0447  1.3427
 4157SOL    HW213371   3.430   6.851   1.739 -1.5443  0.5238  1.3715
 4158SOL     OW13372   0.412   1.871   1.716 -0.1661  0.7524  0.1554
 4158SOL    HW113373   0.451   1.822   1.794  1.5443  1.3982 -0.2574
 4158SOL    HW213374   0.341   1.933   1.749 -0.5221 -0.0699  0.9933
 4159SOL     OW13375   0.184   6.146   1.116 -0.0826 -0.3586  0.0024
 4159SOL    HW113376   0.263   6.100   1.157  0.8175  1.0241 -0.0837
 4159SOL    HW213377   0.108   6.082   1.109  0.5042 -1.3021  1.5820
 4160SOL     OW13378   2.088   4.393   2.158  0.2287 -0.0721 -0.8029
 4160SOL    HW113379   2.144   4.314   2.186  1.9700  0.5703 -2.2969
 4160SOL    HW213380   2.104   4.469   2.221  2.8374  0.8191 -2.3858
 4161SOL     OW13381   2.605   4.919   2.792  0.0984 -0.1140  0.4965
 4161SOL    HW113382   2.544   4.924   2.714 -0.0739  0.1947  0.6527
 4161SOL    HW213383   2.697   4.949   2.765 -0.6922  3.4008  1.2030
 4162SOL     OW13384   4.185   0.483   4.404 -0.0578  0.1405 -0.4143
 4162SOL    HW113385   4.273   0.440   4.386  0.9695  1.3188  1.4423
 4162SOL    HW213386   4.132   0.427   4.468 -0.1166  0.0456 -0.5462
 4163SOL     OW13387   2.373   6.264   2.200  0.5885  0.2460 -0.0670
 4163SOL    HW113388   2.452   6.273   2.260  1.2283 -0.0642 -0.8473
 4163SOL    HW213389   2.296   6.226   2.252  0.6829  1.3182  0.9038
 4164SOL     OW13390   5.186   3.096   5.831  0.1723 -0.4435 -0.6349
 4164SOL    HW113391   5.240   3.166   5.785 -0.5323  0.3573 -0.2584
 4164SOL    HW213392   5.103   3.136   5.868  0.2204 -1.2738  0.4405
 4165SOL     OW13393   2.527   0.777   3.173  0.4961  0.8500 -0.0198
 4165SOL    HW113394   2.620   0.746   3.154  0.0079  0.0467 -1.1937
 4165SOL    HW213395   2.495   0.735   3.258  0.3377 -0.9003 -0.8844
 4166SOL     OW13396   1.088   5.180   0.761 -0.6175  0.6020 -0.1439
 4166SOL    HW113397   1.086   5.178   0.861 -0.7714  1.0089 -0.1361
 4166SOL    HW213398   1.036   5.103   0.725 -1.6875  1.1962  0.0917
 4167SOL     OW13399   2.079   5.100   1.520  0.0787 -0.2032 -0.0456
 4167SOL    HW113400   2.087   5.193   1.483  0.2354 -0.3158 -0.3010
 4167SOL    HW213401   2.042   5.040   1.449 -0.0707 -0.3243  0.1363
 4168SOL     OW13402   1.649   1.255   2.331  0.0873  0.5020  0.1831
 4168SOL    HW113403   1.552   1.254   2.357  0.3217  0.6997  1.0890
 4168SOL    HW213404   1.701   1.196   2.393  0.4861  0.0376 -0.5753
 4169SOL     OW13405   1.195   1.025   0.294  0.0434  0.8385  0.2431
 4169SOL    HW113406   1.225   0.997   0.385 -0.0366 -2.1366 -0.5148
 4169SOL    HW213407   1.275   1.041   0.236  0.1296  0.2418  0.1897
 4170SOL     OW13408   4.605   5.827   1.440  1.0250  0.0368 -0.4147
 4170SOL    HW113409   4.532   5.895   1.436  0.6998 -0.2145  0.7329
 4170SOL    HW213410   4.689   5.866   1.403  0.5628  0.6715 -0.8227
 4171SOL     OW13411   3.500   3.903   1.820 -0.5465  0.1606 -0.2363
 4171SOL    HW113412   3.425   3.897   1.885 -0.0771 -1.2873  0.1924
 4171SOL    HW213413   3.511   3.998   1.791 -0.9881  0.7949  1.5363
 4172SOL     OW13414   5.396   4.857   0.538 -0.3274  0.1293 -0.1772
 4172SOL    HW113415   5.406   4.776   0.597  0.0913  0.8044  0.7142
 4172SOL    HW213416   5.476   4.866   0.480  0.5032  0.9168  1.0490
 4173SOL     OW13417   0.948   0.655   6.567  0.1823 -0.4715 -0.3534
 4173SOL    HW113418   0.909   0.601   6.642  0.5577  0.0511  0.2363
 4173SOL    HW213419   1.012   0.722   6.605 -2.0273  2.0433 -0.7949
 4174SOL     OW13420   5.998   1.857   1.985  0.4627  0.1536  0.0521
 4174SOL    HW113421   6.041   1.844   1.896  1.2866 -0.6907  0.5654
 4174SOL    HW213422   6.063   1.839   2.058  0.5393  3.2112  0.8946
 4175SOL     OW13423   4.568   5.815   5.841  0.0608  0.0592 -0.0250
 4175SOL    HW113424   4.587   5.838   5.936  2.1706 -0.4925 -0.2700
 4175SOL    HW213425   4.562   5.900   5.787  0.5292  0.3043  0.3054
 4176SOL     OW13426   0.543   4.420   0.331 -0.8364 -0.5029  0.2817
 4176SOL    HW113427   0.566   4.415   0.428 -2.3006 -0.5774  0.6365
 4176SOL    HW213428   0.509   4.331   0.300 -2.1631  0.0201  0.1795
 4177SOL     OW13429   1.417   2.644   3.773 -0.4810 -0.3444  0.7165
 4177SOL    HW113430   1.453   2.570   3.717  0.2494  2.6257 -3.1882
 4177SOL    HW213431   1.319   2.656   3.755 -0.0780  1.1376 -0.7629
 4178SOL     OW13432   2.973   2.203   0.511 -0.5270  0.3440 -0.3717
 4178SOL    HW113433   2.901   2.270   0.494 -3.9403 -2.0117  3.1013
 4178SOL    HW213434   2.943   2.139   0.582  4.8968 -1.1885  1.0278
 4179SOL     OW13435   6.835   5.398   3.088 -0.1982 -0.0372  0.1730
 4179SOL    HW113436   6.903   5.458   3.046 -0.6660  0.5689  0.2666
 4179SOL    HW213437   6.758   5.453   3.120 -0.0894 -0.5593  1.3516
 4180SOL     OW13438   2.613   4.617   4.197 -0.4563  0.1197 -0.4038
 4180SOL    HW113439   2.707   4.650   4.182 -0.2157 -0.6326 -0.5959
 4180SOL    HW213440   2.566   4.610   4.109 -0.4713 -0.1368 -0.3764
 4181SOL     OW13441   4.884   1.429   4.592  0.1238  0.4689 -0.1571
 4181SOL    HW113442   4.790   1.406   4.614  0.4483 -0.5939  0.1773
 4181SOL    HW213443   4.916   1.372   4.516  0.5750  0.6520 -0.1104
 4182SOL     OW13444   3.344   5.983   1.864  0.4233  0.0529 -0.3896
 4182SOL    HW113445   3.277   6.014   1.932  1.6144  2.6076 -0.2611
 4182SOL    HW213446   3.411   5.923   1.908  0.8320  1.1984  0.6196
 4183SOL     OW13447   3.752   4.860   3.131 -0.2799 -0.0185  0.2831
 4183SOL    HW113448   3.779   4.955   3.116  1.3611 -0.1866  1.7840
 4183SOL    HW213449   3.670   4.839   3.077  0.8670  1.4450 -2.1992
 4184SOL     OW13450   2.894   2.332   0.851 -0.1356  0.2831 -0.2975
 4184SOL    HW113451   2.848   2.335   0.939 -0.9041  1.9458 -0.7011
 4184SOL    HW213452   2.984   2.374   0.859  1.2508 -2.6016  0.3994
 4185SOL     OW13453   0.412   0.606   6.807  0.3419  0.0632 -0.9333
 4185SOL    HW113454   0.320   0.642   6.824  0.9193  0.5739  1.4844
 4185SOL    HW213455   0.457   0.663   6.738 -0.2070  1.5161 -0.1390
 4186SOL     OW13456   1.007   4.512   2.809  0.3792  0.0917  0.4674
 4186SOL    HW113457   1.034   4.608   2.800  1.6382 -0.0225  2.2894
 4186SOL    HW213458   1.083   4.453   2.781 -0.0509 -0.3606  0.2317
 4187SOL     OW13459   3.210   6.088   1.179 -0.1907  0.1935  0.7182
 4187SOL    HW113460   3.296   6.135   1.198  0.3803  0.2052 -1.6205
 4187SOL    HW213461   3.228   5.993   1.154 -0.6993  0.4724 -0.8344
 4188SOL     OW13462   3.548   3.877   0.741 -0.1144  0.2171 -0.4347
 4188SOL    HW113463   3.621   3.883   0.809 -0.3284  0.0437 -0.1906
 4188SOL    HW213464   3.468   3.929   0.772 -0.4422 -0.3852 -0.2576
 4189SOL     OW13465   5.442   0.692   3.244  0.1842 -0.0594  0.3687
 4189SOL    HW113466   5.448   0.726   3.150 -1.8449  1.0163  0.5710
 4189SOL    HW213467   5.454   0.768   3.308 -1.2505 -0.2605  0.9024
 4190SOL     OW13468   0.609   2.364   4.629  0.2621 -0.1519  0.0245
 4190SOL    HW113469   0.607   2.306   4.711  0.3112 -0.3822 -0.1368
 4190SOL    HW213470   0.525   2.350   4.576 -0.2347  0.7441  0.5474
 4191SOL     OW13471   0.774   4.260   6.778  0.4063 -0.2440 -0.5263
 4191SOL    HW113472   0.865   4.288   6.750  0.8297 -0.1278  0.9011
 4191SOL    HW213473   0.711   4.267   6.700  1.5873 -0.2728 -1.5009
 4192SOL     OW13474   2.590   6.227   4.737 -0.0848  0.0094 -0.5701
 4192SOL    HW113475   2.567   6.130   4.737 -0.7726  0.1661 -0.1662
 4192SOL    HW213476   2.571   6.266   4.647  0.5659 -0.3095 -0.8520
 4193SOL     OW13477   3.990   6.800   6.996  0.0395  0.7459  1.0229
 4193SOL    HW113478   3.973   6.887   6.951  0.8720  1.3979  1.9517
 4193SOL    HW213479   4.082   6.768   6.974 -1.0122 -1.0584 -1.1588
 4194SOL     OW13480   4.946   3.656   6.459 -0.2349 -0.5174  0.0823
 4194SOL    HW113481   5.032   3.686   6.418 -0.6811  0.9361  0.1647
 4194SOL    HW213482   4.875   3.724   6.441 -1.1965 -1.3364  0.6582
 4195SOL     OW13483   3.568   0.478   1.438  0.0643  0.0199 -0.0126
 4195SOL    HW113484   3.649   0.422   1.420 -0.2490 -0.8671  1.1756
 4195SOL    HW213485   3.583   0.571   1.404  0.6333 -0.7456 -1.9587
 4196SOL     OW13486   0.160   3.723   0.760 -0.2797  0.0156 -0.1710
 4196SOL    HW113487   0.183   3.811   0.717  0.3352 -0.1143 -0.1204
 4196SOL    HW213488   0.145   3.654   0.689  0.3186 -0.0966 -0.1977
 4197SOL     OW13489   3.389   1.657   2.690  0.1816 -0.9658 -0.7881
 4197SOL    HW113490   3.427   1.580   2.638  2.7906  0.2526 -0.8604
 4197SOL    HW213491   3.440   1.740   2.668 -1.1788  0.3678  0.8564
 4198SOL     OW13492   4.265   5.942   2.279 -0.3507  0.5077 -0.4880
 4198SOL    HW113493   4.244   5.849   2.250 -0.0076  0.6655 -1.2475
 4198SOL    HW213494   4.187   6.001   2.259 -0.3841  0.4815 -0.4361
 4199SOL     OW13495   0.081   4.087   5.063  0.4933  0.2225 -0.6473
 4199SOL    HW113496  -0.019   4.088   5.062  0.4458 -0.2579 -2.8956
 4199SOL    HW213497   0.113   3.992   5.061  1.0097  0.3742  0.0814
 4200SOL     OW13498   4.253   1.193   1.127  0.5066 -0.0995  0.2592
 4200SOL    HW113499   4.230   1.104   1.089 -0.8991 -0.4523  1.8288
 4200SOL    HW213500   4.266   1.185   1.226 -1.8603  1.7622  0.8338
 4201SOL     OW13501   3.954   4.563   1.599 -0.6383 -0.6499 -0.0672
 4201SOL    HW113502   4.019   4.570   1.675 -0.5343 -2.3250  0.0163
 4201SOL    HW213503   3.970   4.639   1.536 -0.4325  0.5242  1.3252
 4202SOL     OW13504   0.142   4.004   5.519 -0.1425  0.2937 -0.1452
 4202SOL    HW113505   0.052   3.983   5.481 -0.9654  0.9863  1.3451
 4202SOL    HW213506   0.205   3.930   5.498 -1.0656 -0.2453 -1.1415
 4203SOL     OW13507   6.578   4.209   5.656 -0.0083 -0.0663 -0.3365
 4203SOL    HW113508   6.516   4.257   5.595  0.0972  1.2962  0.5971
 4203SOL    HW213509   6.663   4.261   5.666 -1.0546  1.2900  3.1221
 4204SOL     OW13510   6.375   0.631   3.799 -0.2228 -0.5148 -0.5896
 4204SOL    HW113511   6.456   0.669   3.843 -1.2616  1.1856 -0.0625
 4204SOL    HW213512   6.396   0.613   3.703  0.4656  1.0784 -0.7829
 4205SOL     OW13513   0.716   5.486   2.939  0.4219 -0.1019  0.2854
 4205SOL    HW113514   0.711   5.443   2.849  0.5850 -0.2454  0.3436
 4205SOL    HW213515   0.676   5.425   3.007  1.0515 -0.3502  0.4335
 4206SOL     OW13516   4.199   5.194   3.915  0.0445  0.3411 -0.2594
 4206SOL    HW113517   4.159   5.210   3.825  1.2221  0.7079 -0.7488
 4206SOL    HW213518   4.295   5.167   3.904 -0.5583 -2.6115  0.7491
 4207SOL     OW13519   5.638   6.565   6.074 -0.5537  0.0291  0.0966
 4207SOL    HW113520   5.710   6.631   6.095 -0.2426 -0.1007 -0.5099
 4207SOL    HW213521   5.552   6.613   6.060 -0.2976  0.3334 -0.4896
 4208SOL     OW13522   4.455   1.621   0.604  0.5760  0.4366 -0.0786
 4208SOL    HW113523   4.552   1.619   0.630  0.7141 -0.1608 -0.6102
 4208SOL    HW213524   4.415   1.707   0.633  1.3376  0.8058 -0.0912
 4209SOL     OW13525   3.492   3.713   6.375  0.8227  0.2317  0.2987
 4209SOL    HW113526   3.430   3.787   6.400  1.0510  0.4989  0.0804
 4209SOL    HW213527   3.564   3.706   6.443  1.2396  0.7215 -0.0845
 4210SOL     OW13528   4.426   1.909   0.276  0.1086  0.2091  0.3810
 4210SOL    HW113529   4.347   1.850   0.292 -1.4091  2.2057  0.6394
 4210SOL    HW213530   4.492   1.898   0.350 -1.5199  0.9534  1.9964
 4211SOL     OW13531   4.152   5.482   1.528 -0.4217 -0.0373 -0.0556
 4211SOL    HW113532   4.118   5.489   1.623 -0.2019 -2.3869  0.2534
 4211SOL    HW213533   4.074   5.488   1.465 -0.8703 -0.7489  0.4117
 4212SOL     OW13534   3.544   2.387   6.222 -0.0654 -0.1232 -0.6617
 4212SOL    HW113535   3.591   2.467   6.258 -0.9213 -0.7734  2.1217
 4212SOL    HW213536   3.470   2.417   6.161  3.0625  0.9177 -4.3595
 4213SOL     OW13537   3.324   4.989   0.985  0.4404 -0.1106 -0.3576
 4213SOL    HW113538   3.372   5.077   0.989  0.3523 -0.0490 -0.6351
 4213SOL    HW213539   3.347   4.935   1.066 -0.8570  0.8564  0.7084
 4214SOL     OW13540   4.738   5.451   3.263  0.3085 -0.0529  0.5143
 4214SOL    HW113541   4.777   5.414   3.178  0.4727 -0.5573  0.8088
 4214SOL    HW213542   4.658   5.397   3.289  0.3695 -0.0120  0.7840
 4215SOL     OW13543   6.361   6.676   3.807 -0.2484 -0.1284  0.6685
 4215SOL    HW113544   6.303   6.621   3.747  0.1029  0.4738 -0.2460
 4215SOL    HW213545   6.343   6.652   3.902  0.0831 -1.9990  0.2851
 4216SOL     OW13546   1.622   3.294   5.204  0.2581  0.2561 -0.3586
 4216SOL    HW113547   1.609   3.278   5.106  1.3433  0.8643 -0.6118
 4216SOL    HW213548   1.533   3.291   5.250 -0.2790  0.1059 -1.3798
 4217SOL     OW13549   6.916   6.509   2.379  0.3825 -0.0411  0.0517
 4217SOL    HW113550   6.956   6.428   2.335 -3.2980 -1.3723 -1.2580
 4217SOL    HW213551   6.918   6.497   2.478  4.1085  0.5852  0.1932
 4218SOL     OW13552   4.911   3.601   3.337 -0.3017 -0.6620 -0.1888
 4218SOL    HW113553   4.874   3.592   3.245  0.2258  0.8487 -0.5932
 4218SOL    HW213554   4.899   3.695   3.369  1.9103 -0.4332  0.1817
 4219SOL     OW13555   1.994   5.614   3.529  0.7350  0.1244  0.4493
 4219SOL    HW113556   2.019   5.578   3.618  1.0823  0.5773  0.5372
 4219SOL    HW213557   2.050   5.571   3.458  1.5176  0.8476  0.6064
 4220SOL     OW13558   2.296   4.182   6.162 -0.3504 -0.6939  0.8938
 4220SOL    HW113559   2.241   4.109   6.123 -0.3268 -1.3640  2.0659
 4220SOL    HW213560   2.249   4.219   6.243 -0.4810  0.7595  0.1835
 4221SOL     OW13561   0.684   6.144   2.153  0.0839  0.6482  0.4544
 4221SOL    HW113562   0.678   6.086   2.072  0.4731  1.2248  0.0024
 4221SOL    HW213563   0.632   6.103   2.227 -1.2496  0.6643 -0.4302
 4222SOL     OW13564   4.982   0.800   0.656  0.7975 -0.0787  0.6835
 4222SOL    HW113565   4.995   0.881   0.713 -1.4525  2.0957 -1.6131
 4222SOL    HW213566   4.885   0.774   0.657  0.6085  0.2272 -2.2217
 4223SOL     OW13567   1.425   2.643   1.587 -0.3419  0.4438 -0.2672
 4223SOL    HW113568   1.503   2.625   1.528 -0.6309 -1.0330 -0.2466
 4223SOL    HW213569   1.456   2.684   1.673  0.6347 -1.3576  0.3119
 4224SOL     OW13570   5.693   6.949   0.544  0.1807 -0.2015  0.1089
 4224SOL    HW113571   5.642   7.033   0.521 -0.0204 -0.6665 -1.1868
 4224SOL    HW213572   5.724   6.955   0.639  1.4435  1.9927 -0.3740
 4225SOL     OW13573   6.951   0.710   1.273  0.1747  1.2635  0.5170
 4225SOL    HW113574   7.050   0.719   1.264 -0.0583  3.3860 -0.5725
 4225SOL    HW213575   6.910   0.694   1.183 -0.5198  1.0468  0.8645
 4226SOL     OW13576   5.237   1.381   0.303  0.1721  0.3518 -0.3395
 4226SOL    HW113577   5.155   1.325   0.290  0.2285 -0.0522  0.9616
 4226SOL    HW213578   5.285   1.389   0.216 -0.6014 -0.4217 -0.8600
 4227SOL     OW13579   0.014   0.501   5.047 -0.2902 -0.1995 -0.0647
 4227SOL    HW113580   0.034   0.479   5.142 -0.7880  1.3263  0.4238
 4227SOL    HW213581   0.008   0.600   5.036 -0.9964 -0.3737 -1.5301
 4228SOL     OW13582   2.777   4.845   4.039 -0.3972 -0.0954  0.0766
 4228SOL    HW113583   2.728   4.932   4.051  0.4552  0.5579 -1.0415
 4228SOL    HW213584   2.873   4.857   4.065 -0.3785 -0.8585  0.4005
 4229SOL     OW13585   1.124   2.755   1.555  0.5939 -0.0730 -0.3861
 4229SOL    HW113586   1.101   2.727   1.461 -0.6761 -1.1269  0.2059
 4229SOL    HW213587   1.195   2.825   1.552 -0.1094  0.6411 -2.1894
 4230SOL     OW13588   4.272   0.830   2.248  0.3896 -0.2574 -0.0798
 4230SOL    HW113589   4.259   0.929   2.238  0.5577 -0.2099  0.1636
 4230SOL    HW213590   4.361   0.805   2.210  1.2833  0.0083  1.7369
 4231SOL     OW13591   4.643   4.736   3.106 -0.3484 -0.3811  0.5215
 4231SOL    HW113592   4.612   4.734   3.200 -1.7802  1.2547  0.1259
 4231SOL    HW213593   4.573   4.777   3.047  1.3683  0.7411 -0.8898
 4232SOL     OW13594   2.503   2.254   6.069 -0.0317 -0.2531  0.0418
 4232SOL    HW113595   2.461   2.341   6.095  0.1480 -0.2257  0.2375
 4232SOL    HW213596   2.602   2.260   6.080 -0.0749 -0.7128  0.7228
 4233SOL     OW13597   2.602   1.136   3.740  0.6453  0.3129 -0.2985
 4233SOL    HW113598   2.693   1.096   3.739  0.4029 -0.2459 -0.5710
 4233SOL    HW213599   2.598   1.212   3.675  0.9680  0.4584 -0.1491
 4234SOL     OW13600   0.969   5.846   6.605  0.0055  0.1368  1.2681
 4234SOL    HW113601   1.019   5.922   6.565 -0.7573  0.3616  0.7288
 4234SOL    HW213602   1.034   5.774   6.632  0.5086 -0.2947 -0.9372
 4235SOL     OW13603   4.128   2.254   1.955  0.0988 -0.8710 -0.1388
 4235SOL    HW113604   4.038   2.238   1.914  0.1491 -0.2857 -0.4842
 4235SOL    HW213605   4.120   2.323   2.027  0.1908 -1.1651  0.1562
 4236SOL     OW13606   4.375   5.371   5.220 -0.3231 -0.9562  0.0521
 4236SOL    HW113607   4.320   5.305   5.168 -0.5214 -0.1085 -0.8441
 4236SOL    HW213608   4.375   5.459   5.172 -0.2989 -0.2179  1.3733
 4237SOL     OW13609   6.019   0.048   6.466 -0.2599  0.6512  0.2031
 4237SOL    HW113610   6.001  -0.017   6.540 -1.7122 -0.4591 -1.0571
 4237SOL    HW213611   5.976   0.135   6.488 -2.7167 -0.3580 -0.3067
 4238SOL     OW13612   1.533   2.130   1.697  0.0915  0.0278 -0.2809
 4238SOL    HW113613   1.511   2.192   1.622 -0.6729  0.2015  0.0813
 4238SOL    HW213614   1.592   2.057   1.663  0.8480  0.8346 -0.7562
 4239SOL     OW13615   2.199   2.968   3.939 -0.6160 -0.1654  0.0120
 4239SOL    HW113616   2.164   3.002   3.852  0.9574 -0.3497 -0.7203
 4239SOL    HW213617   2.297   2.985   3.944  0.1019 -3.6653  0.0438
 4240SOL     OW13618   2.924   0.491   2.293 -0.2107 -0.1932 -0.0255
 4240SOL    HW113619   2.879   0.444   2.217  0.7476 -0.6583 -0.3090
 4240SOL    HW213620   2.990   0.557   2.257 -1.1250  0.9999  0.3771
 4241SOL     OW13621   5.640   4.334   2.365  0.2960  0.3675 -0.4240
 4241SOL    HW113622   5.587   4.249   2.358 -0.6399  0.9383 -0.3056
 4241SOL    HW213623   5.725   4.315   2.415  1.1260 -0.9625 -2.2181
 4242SOL     OW13624   5.914   0.363   2.898 -0.1971  0.3920  0.3723
 4242SOL    HW113625   5.911   0.328   2.991 -0.0685 -0.0646  0.2073
 4242SOL    HW213626   5.995   0.420   2.886  0.0804  0.0054  0.3857
 4243SOL     OW13627   5.203   6.592   5.525 -0.3376 -0.3332 -0.3463
 4243SOL    HW113628   5.157   6.503   5.521  0.5667 -0.7929 -0.9191
 4243SOL    HW213629   5.301   6.578   5.539 -0.0905  0.5316 -1.1063
 4244SOL     OW13630   2.828   6.621   0.517 -0.1607  0.2751 -0.4491
 4244SOL    HW113631   2.846   6.676   0.436  3.5375  0.6151  0.4259
 4244SOL    HW213632   2.905   6.559   0.533 -1.9971 -1.7098  1.3435
 4245SOL     OW13633   4.644   0.741   3.518 -0.7287  0.0500  0.5651
 4245SOL    HW113634   4.726   0.731   3.575 -0.5604  0.3529  0.3731
 4245SOL    HW213635   4.592   0.656   3.522 -0.9221  0.1965  1.4901
 4246SOL     OW13636   2.322   2.069   6.786  0.7022 -0.1922  0.0426
 4246SOL    HW113637   2.318   2.090   6.688 -2.0721 -2.6130 -0.5260
 4246SOL    HW213638   2.414   2.034   6.809  0.5536 -2.6985 -2.5473
 4247SOL     OW13639   0.607   5.937   0.695 -0.1572 -0.0415 -0.8653
 4247SOL    HW113640   0.603   6.018   0.636 -0.4407 -1.3149 -2.6461
 4247SOL    HW213641   0.702   5.914   0.714 -0.0627  1.2737  0.5512
 4248SOL     OW13642   1.719   2.098   2.751 -0.1923  0.7761  0.1386
 4248SOL    HW113643   1.773   2.071   2.831  1.4217  0.2544 -1.0753
 4248SOL    HW213644   1.778   2.143   2.684 -0.9212 -1.0186 -1.8352
 4249SOL     OW13645   6.975   5.480   1.202  0.2523 -0.1186  0.5118
 4249SOL    HW113646   6.912   5.521   1.136 -1.2456  1.0185  2.5532
 4249SOL    HW213647   6.993   5.385   1.176  0.1264  0.4254 -1.7701
 4250SOL     OW13648   1.564   4.180   3.178 -0.2024 -0.3876 -0.0639
 4250SOL    HW113649   1.508   4.114   3.127 -2.1670  0.8380  0.3603
 4250SOL    HW213650   1.612   4.133   3.251 -0.0163 -1.6382 -0.9457
 4251SOL     OW13651   0.212   3.034   1.877  0.4330 -0.1466  0.1283
 4251SOL    HW113652   0.248   3.113   1.927 -1.1225  1.1849 -0.7663
 4251SOL    HW213653   0.230   3.045   1.779 -2.5989  0.7984 -0.4309
 4252SOL     OW13654   6.505   6.332   5.235 -0.3926  0.8644 -0.1162
 4252SOL    HW113655   6.550   6.321   5.323 -0.5900  0.5061 -0.0589
 4252SOL    HW213656   6.412   6.367   5.249  0.0825  2.2721 -0.2706
 4253SOL     OW13657   3.875   5.225   5.778  0.0108  0.3708  0.8479
 4253SOL    HW113658   3.776   5.224   5.792  0.1848 -0.0079  2.2375
 4253SOL    HW213659   3.902   5.146   5.724 -0.5396  0.9944 -0.3690
 4254SOL     OW13660   1.638   0.932   2.374  0.3296  0.4902  0.2227
 4254SOL    HW113661   1.548   0.911   2.337  0.9542 -0.4744 -0.7810
 4254SOL    HW213662   1.628   0.998   2.449 -1.1243  0.9919 -0.3793
 4255SOL     OW13663   5.407   5.947   3.965 -0.1243  0.1212 -0.5643
 4255SOL    HW113664   5.502   5.969   3.989  0.6955 -0.1040 -3.2560
 4255SOL    HW213665   5.406   5.869   3.902 -2.0977  0.2832 -0.7823
 4256SOL     OW13666   3.965   3.515   6.516  0.7106  0.0820  0.6488
 4256SOL    HW113667   3.873   3.553   6.504  0.1650 -0.5875  2.3252
 4256SOL    HW213668   3.959   3.415   6.522  1.5656  0.0211  0.5922
 4257SOL     OW13669   1.062   1.305   0.324  0.2215 -0.5269  0.2965
 4257SOL    HW113670   1.132   1.377   0.325  0.3345 -0.6336 -0.0096
 4257SOL    HW213671   1.106   1.216   0.335 -0.0034 -0.4864  1.7247
 4258SOL     OW13672   3.789   5.060   6.485 -0.4558 -0.0185 -0.5417
 4258SOL    HW113673   3.838   5.079   6.400  0.0297 -0.1847 -0.3042
 4258SOL    HW213674   3.789   4.962   6.502 -1.8865 -0.1358 -1.1305
 4259SOL     OW13675   0.471   3.549   4.584 -0.7805 -0.2949  0.3292
 4259SOL    HW113676   0.476   3.502   4.672 -0.5433 -0.4556  0.2332
 4259SOL    HW213677   0.396   3.614   4.585  0.0466  0.6974  1.1371
 4260SOL     OW13678   1.419   6.889   2.503  0.0373 -0.5571 -0.2235
 4260SOL    HW113679   1.484   6.960   2.532  0.1395 -0.4743 -0.6578
 4260SOL    HW213680   1.349   6.878   2.573 -1.0465  1.2743 -0.9611
 4261SOL     OW13681   0.077   5.543   1.465 -0.2179 -0.6727  0.0783
 4261SOL    HW113682   0.068   5.642   1.465 -0.2325 -0.6606 -1.2443
 4261SOL    HW213683   0.039   5.505   1.380 -2.2012 -2.0071  1.4530
 4262SOL     OW13684   6.054   2.836   3.838 -0.3512 -0.5214  0.0681
 4262SOL    HW113685   6.109   2.900   3.892  0.2136 -0.6494 -0.3436
 4262SOL    HW213686   6.018   2.883   3.757  0.1196 -0.7330 -0.2696
 4263SOL     OW13687   2.631   4.134   5.283 -0.1887 -0.0615  0.1878
 4263SOL    HW113688   2.722   4.102   5.256 -0.5794  0.0820 -1.4125
 4263SOL    HW213689   2.565   4.060   5.268 -0.5600  0.3328 -0.1391
 4264SOL     OW13690   3.025   0.178   6.363  0.0821  0.4551  0.2082
 4264SOL    HW113691   2.993   0.145   6.274  2.5166  0.2723 -0.6799
 4264SOL    HW213692   3.025   0.278   6.362  0.1968  0.4544 -0.0479
 4265SOL     OW13693   0.761   1.910   4.398 -0.9510 -0.0036  0.2294
 4265SOL    HW113694   0.840   1.928   4.456 -0.4890  0.1737 -0.4482
 4265SOL    HW213695   0.791   1.877   4.309 -1.5826  1.0729 -0.4118
 4266SOL     OW13696   2.549   6.012   3.274 -0.2148  0.1500 -0.8646
 4266SOL    HW113697   2.602   5.938   3.232 -0.4205  0.2652 -1.3302
 4266SOL    HW213698   2.529   6.082   3.206 -0.9207  0.1392 -0.6718
 4267SOL     OW13699   1.271   5.590   1.896  0.1919  0.3159 -0.3794
 4267SOL    HW113700   1.335   5.589   1.819 -0.6459 -0.7630 -1.1008
 4267SOL    HW213701   1.177   5.594   1.862 -0.1630  1.3345  0.6481
 4268SOL     OW13702   5.413   1.972   5.171  0.2796  0.1062 -0.1250
 4268SOL    HW113703   5.427   1.889   5.117 -0.3251  0.1504 -0.3603
 4268SOL    HW213704   5.480   2.041   5.144 -0.6221  0.4828 -1.5561
 4269SOL     OW13705   0.811   3.865   3.741 -0.0645 -0.5608  0.6027
 4269SOL    HW113706   0.840   3.835   3.650  1.3679  1.0867  0.4522
 4269SOL    HW213707   0.892   3.876   3.799 -0.6169  1.4378  1.0792
 4270SOL     OW13708   1.723   4.066   0.270 -0.2059 -0.3648 -0.0868
 4270SOL    HW113709   1.713   4.100   0.363 -0.4454 -0.4615 -0.0772
 4270SOL    HW213710   1.799   4.114   0.225  0.6092 -1.0634  0.5039
 4271SOL     OW13711   4.089   0.180   1.099 -0.1841 -0.3716  0.1761
 4271SOL    HW113712   4.162   0.220   1.043 -1.3471  0.1815 -0.9935
 4271SOL    HW213713   4.086   0.081   1.084  0.3545 -0.4137  0.2983
 4272SOL     OW13714   4.016   2.701   1.719  0.6352 -0.0161 -0.1805
 4272SOL    HW113715   3.939   2.711   1.656 -1.8459 -1.1867  2.4543
 4272SOL    HW213716   4.052   2.791   1.743 -1.7151  0.7890  0.5506
 4273SOL     OW13717   0.623   4.562   4.800  0.0799 -0.7068  0.3590
 4273SOL    HW113718   0.679   4.501   4.857 -1.1322 -1.6421  0.6046
 4273SOL    HW213719   0.540   4.514   4.772  0.7353 -0.3869 -2.4605
 4274SOL     OW13720   4.542   2.152   2.372 -0.2884  0.3249  0.2538
 4274SOL    HW113721   4.623   2.209   2.362 -1.3948  1.5818 -2.4231
 4274SOL    HW213722   4.522   2.140   2.470  1.1266  2.8852  0.9612
 4275SOL     OW13723   3.267   6.571   6.928  0.3154 -0.3195  0.0755
 4275SOL    HW113724   3.347   6.606   6.977  0.4060  1.2660 -1.1280
 4275SOL    HW213725   3.191   6.562   6.992  0.7433  0.6002  0.7440
 4276SOL     OW13726   1.232   6.607   1.035  0.4040 -0.2963 -0.0306
 4276SOL    HW113727   1.259   6.525   0.985 -0.8099 -0.2601 -0.7971
 4276SOL    HW213728   1.138   6.597   1.067  1.1318 -0.3031  2.2937
 4277SOL     OW13729   2.212   5.767   5.422  0.0263  0.0290 -0.1177
 4277SOL    HW113730   2.180   5.782   5.516 -0.2060 -0.4684 -0.1130
 4277SOL    HW213731   2.177   5.679   5.389  0.9793 -0.2862 -0.3005
 4278SOL     OW13732   3.342   5.620   1.553  0.0556 -0.6353 -0.2747
 4278SOL    HW113733   3.390   5.703   1.526 -0.2059  0.1416  1.5004
 4278SOL    HW213734   3.276   5.641   1.625  0.9218 -2.5635  1.2053
 4279SOL     OW13735   6.873   1.033   2.220 -0.0704  0.5246 -0.2232
 4279SOL    HW113736   6.797   0.987   2.268 -0.3904  1.7634  0.4996
 4279SOL    HW213737   6.838   1.079   2.139 -0.2716  1.7514  0.5280
 4280SOL     OW13738   4.328   5.747   2.763 -0.3507 -0.3810  0.3715
 4280SOL    HW113739   4.418   5.780   2.735 -0.0803 -1.1645  0.2956
 4280SOL    HW213740   4.276   5.823   2.803 -0.0645  0.3293 -0.5659
 4281SOL     OW13741   0.863   6.430   1.534  0.2868 -0.3387  0.0071
 4281SOL    HW113742   0.899   6.376   1.610 -1.3019  0.7463  1.6358
 4281SOL    HW213743   0.789   6.381   1.490 -1.3054  0.4813  1.6265
 4282SOL     OW13744   0.299   6.922   6.109  0.5219 -0.2206 -0.4156
 4282SOL    HW113745   0.302   7.022   6.100  1.0151 -0.2393 -0.4657
 4282SOL    HW213746   0.240   6.884   6.038 -1.6876  0.2175  1.0821
 4283SOL     OW13747   6.883   4.630   2.055  0.6840 -0.2304 -0.1577
 4283SOL    HW113748   6.872   4.531   2.059  2.2076 -0.4125 -0.0473
 4283SOL    HW213749   6.930   4.662   2.137  1.0451  0.4658 -0.6278
 4284SOL     OW13750   5.966   5.281   5.460 -0.5137 -0.0276 -0.0899
 4284SOL    HW113751   5.996   5.214   5.391  0.1079  0.7107 -0.5481
 4284SOL    HW213752   6.019   5.269   5.544 -2.4728 -2.1215  0.9582
 4285SOL     OW13753   3.511   0.195   6.435  0.5740 -0.2083  0.0376
 4285SOL    HW113754   3.567   0.115   6.416 -0.4708 -0.9272 -0.1344
 4285SOL    HW213755   3.435   0.199   6.370 -1.1301 -0.8191  1.8968
 4286SOL     OW13756   5.075   5.356   5.138 -0.7457 -0.6413  0.6779
 4286SOL    HW113757   5.031   5.266   5.127  0.5327 -1.3103  0.8925
 4286SOL    HW213758   5.168   5.344   5.172  0.4083  0.5846 -1.7841
 4287SOL     OW13759   5.746   2.364   4.174 -0.3923  0.4506  0.6711
 4287SOL    HW113760   5.731   2.449   4.224 -0.1891  0.8559  0.0562
 4287SOL    HW213761   5.711   2.287   4.227 -1.3253  0.9982  0.8701
 4288SOL     OW13762   3.922   3.785   0.528 -0.0067 -0.6654  0.4756
 4288SOL    HW113763   4.010   3.760   0.487  0.9544  1.3328  1.1713
 4288SOL    HW213764   3.907   3.883   0.517 -2.1126 -0.9449  0.4992
 4289SOL     OW13765   5.725   6.534   2.891 -0.3018  0.2129  0.3287
 4289SOL    HW113766   5.631   6.552   2.918 -0.5250 -1.0185  0.4243
 4289SOL    HW213767   5.726   6.484   2.804  0.3792  3.4787 -1.7050
 4290SOL     OW13768   1.124   2.823   1.263 -0.6264  0.3083 -0.3382
 4290SOL    HW113769   1.118   2.922   1.280 -1.1622 -0.1318  2.4814
 4290SOL    HW213770   1.220   2.797   1.254 -0.2381  0.7001  2.0771
 4291SOL     OW13771   2.670   1.688   4.482 -0.4054  0.5418 -0.4267
 4291SOL    HW113772   2.703   1.685   4.576 -2.3738 -0.6239  0.3040
 4291SOL    HW213773   2.718   1.619   4.428  0.5201  1.0081 -0.2169
 4292SOL     OW13774   5.934   6.322   5.814  0.2169 -0.2964 -0.4535
 4292SOL    HW113775   5.937   6.420   5.794  0.8060 -0.4990 -1.4037
 4292SOL    HW213776   5.983   6.305   5.899 -1.2307  0.4141  0.5744
 4293SOL     OW13777   5.006   2.302   3.592 -0.1699  0.0769  0.1851
 4293SOL    HW113778   4.989   2.339   3.683  0.8934  1.1529 -0.0282
 4293SOL    HW213779   5.015   2.202   3.598 -2.8196 -0.1989  0.8037
 4294SOL     OW13780   6.168   4.543   0.262  0.5673 -0.0444 -0.3673
 4294SOL    HW113781   6.229   4.574   0.335  3.1964 -0.0261 -2.4287
 4294SOL    HW213782   6.147   4.620   0.201 -0.8264 -0.2635 -0.2040
 4295SOL     OW13783   3.062   2.042   2.745  0.2692 -0.0505  0.0643
 4295SOL    HW113784   3.157   2.047   2.715  0.0688  1.1421 -0.4305
 4295SOL    HW213785   3.022   1.955   2.715  1.5744 -1.2103  1.4845
 4296SOL     OW13786   0.352   1.600   4.564 -0.1353  0.1382  0.8168
 4296SOL    HW113787   0.306   1.566   4.482 -2.1966 -0.6291  2.2310
 4296SOL    HW213788   0.446   1.625   4.540  0.3130 -2.8778 -1.1419
 4297SOL     OW13789   5.932   0.189   5.819 -0.2810  0.1900  0.3415
 4297SOL    HW113790   6.022   0.149   5.835 -0.0383  0.3274 -0.5934
 4297SOL    HW213791   5.878   0.185   5.903  0.2274 -0.8412  0.6367
 4298SOL     OW13792   6.638   5.423   5.993  0.3226 -0.7446  0.4498
 4298SOL    HW113793   6.738   5.419   5.999  0.3876  0.6225  0.5595
 4298SOL    HW213794   6.606   5.511   6.027 -0.9091 -1.0509  0.1334
 4299SOL     OW13795   1.761   3.508   2.946 -0.3618 -0.3413  0.3372
 4299SOL    HW113796   1.761   3.487   3.044 -0.9321  1.5806  0.7890
 4299SOL    HW213797   1.837   3.461   2.902 -0.6948 -2.0730  1.4821
 4300SOL     OW13798   0.056   3.495   3.391 -0.2969 -0.1535 -0.3114
 4300SOL    HW113799   0.036   3.466   3.485 -0.7602  1.6446  0.1935
 4300SOL    HW213800   0.154   3.501   3.378 -0.1756 -2.1576 -0.5332
 4301SOL     OW13801   5.564   6.667   5.340  0.5508 -0.3107  0.1150
 4301SOL    HW113802   5.478   6.657   5.290  1.5164  0.8956 -1.9261
 4301SOL    HW213803   5.566   6.756   5.386  0.5476 -0.5138  0.5159
 4302SOL     OW13804   5.292   5.077   4.962  0.1700 -0.3671  0.3956
 4302SOL    HW113805   5.316   5.000   5.021 -0.5316 -1.2980 -0.4946
 4302SOL    HW213806   5.224   5.048   4.895  2.6986 -0.1130 -2.5345
 4303SOL     OW13807   2.971   1.622   4.006  0.2591 -0.1673 -0.1404
 4303SOL    HW113808   2.963   1.686   4.083  1.2325  1.2600 -1.1669
 4303SOL    HW213809   2.898   1.641   3.940  0.3859 -0.3076 -0.3204
 4304SOL     OW13810   1.858   0.644   5.799 -0.0750  0.1473 -0.0594
 4304SOL    HW113811   1.840   0.553   5.761 -1.1480  0.4289 -0.2394
 4304SOL    HW213812   1.773   0.694   5.808  0.3637  0.7023  1.1988
 4305SOL     OW13813   3.376   4.144   4.046 -0.3304  0.6045  0.6006
 4305SOL    HW113814   3.387   4.153   4.145  0.3560 -0.6798  0.6704
 4305SOL    HW213815   3.280   4.130   4.024 -0.3201 -0.7404  1.2740
 4306SOL     OW13816   1.116   5.239   1.898  0.6439  0.1116 -0.1744
 4306SOL    HW113817   1.194   5.258   1.957  0.8210  0.6527 -0.5694
 4306SOL    HW213818   1.059   5.321   1.891  1.3895  0.5493 -1.8692
 4307SOL     OW13819   2.230   4.998   0.600 -0.2649 -0.1310  0.1609
 4307SOL    HW113820   2.273   4.981   0.689 -0.6018 -0.6586  0.2287
 4307SOL    HW213821   2.157   5.065   0.610 -0.3049 -0.1924  0.2875
 4308SOL     OW13822   5.191   1.371   3.937  0.1557  0.3518  0.3803
 4308SOL    HW113823   5.267   1.437   3.937  1.8098 -1.4283 -1.3933
 4308SOL    HW213824   5.118   1.406   3.879  1.1151  0.5382 -0.7483
 4309SOL     OW13825   1.608   3.105   3.742  0.3404 -0.0977 -0.2404
 4309SOL    HW113826   1.674   3.144   3.806 -1.4326  1.2010  0.9061
 4309SOL    HW213827   1.582   3.013   3.774  0.2513  0.1175  0.3198
 4310SOL     OW13828   5.723   6.088   3.532  0.1852  0.6769  0.6059
 4310SOL    HW113829   5.812   6.134   3.532  1.1370 -1.0439  2.1825
 4310SOL    HW213830   5.679   6.100   3.621 -0.1833 -0.2700  0.5577
 4311SOL     OW13831   4.704   6.361   3.896 -0.2710  0.7406 -0.3832
 4311SOL    HW113832   4.624   6.315   3.935  1.3538 -0.6781  1.4735
 4311SOL    HW213833   4.727   6.441   3.950  0.2399  0.4609 -0.1736
 4312SOL     OW13834   3.571   2.186   5.767  0.4884 -0.2021  0.0654
 4312SOL    HW113835   3.621   2.126   5.830  0.4172  0.6270  0.9321
 4312SOL    HW213836   3.616   2.275   5.763 -1.0786  0.6807  1.1493
 4313SOL     OW13837   5.825   2.131   1.523 -0.3736 -0.4707 -0.1644
 4313SOL    HW113838   5.792   2.037   1.526 -2.3690  0.2011  1.8558
 4313SOL    HW213839   5.777   2.182   1.452 -1.7179 -0.2009  0.9091
 4314SOL     OW13840   0.468   4.750   5.088 -0.6541 -0.1345  0.3907
 4314SOL    HW113841   0.377   4.736   5.048 -0.9538  0.2344  0.9421
 4314SOL    HW213842   0.531   4.779   5.016 -0.8618 -0.8166 -0.0810
 4315SOL     OW13843   6.657   6.545   3.683  0.0383  0.8274  0.0074
 4315SOL    HW113844   6.698   6.552   3.592  0.0674 -0.7267 -0.1235
 4315SOL    HW213845   6.577   6.606   3.688 -1.1473 -0.4852 -1.7292
 4316SOL     OW13846   2.064   3.472   1.175 -0.2417 -0.4655 -0.4749
 4316SOL    HW113847   2.008   3.549   1.205  0.3211 -0.0395 -0.4923
 4316SOL    HW213848   2.158   3.485   1.206  0.0468 -0.7245 -1.2165
 4317SOL     OW13849   5.688   5.720   2.901  0.4290 -0.8000 -0.2599
 4317SOL    HW113850   5.668   5.774   2.983  0.4802  1.0678 -1.4065
 4317SOL    HW213851   5.605   5.675   2.869  0.0499 -0.2453 -0.0638
 4318SOL     OW13852   5.612   1.068   0.046 -1.7053  0.3852 -0.3575
 4318SOL    HW113853   5.695   1.019   0.019 -0.4166  0.6951  2.6845
 4318SOL    HW213854   5.532   1.020   0.010 -0.2999 -0.4748 -2.5578
 4319SOL     OW13855   5.566   2.500   0.248  0.5507  0.6568 -0.0711
 4319SOL    HW113856   5.509   2.530   0.325 -1.2785 -2.4703 -0.0122
 4319SOL    HW213857   5.637   2.438   0.281  1.2596  1.1381 -0.6655
 4320SOL     OW13858   0.331   5.195   3.361 -0.0380 -0.7580 -0.0626
 4320SOL    HW113859   0.279   5.116   3.327  0.1800 -1.3241  0.8874
 4320SOL    HW213860   0.429   5.173   3.358  0.1272  0.0314 -1.1479
 4321SOL     OW13861   5.219   5.441   6.219 -0.3939 -0.3702 -0.6864
 4321SOL    HW113862   5.218   5.536   6.187 -0.5309 -0.0309  0.2962
 4321SOL    HW213863   5.306   5.398   6.194 -0.7787 -0.3454 -2.1273
 4322SOL     OW13864   6.917   3.064   0.601  0.0000 -0.7198  0.4324
 4322SOL    HW113865   6.855   3.024   0.669  1.0334 -1.8506  0.7416
 4322SOL    HW213866   6.986   3.120   0.648 -1.0035  0.8847  0.0586
 4323SOL     OW13867   5.395   5.037   2.686  0.6025 -0.2339 -0.2233
 4323SOL    HW113868   5.351   5.125   2.706 -0.6591 -0.9357  0.2643
 4323SOL    HW213869   5.329   4.977   2.640  1.8446 -0.4956 -1.7409
 4324SOL     OW13870   5.766   1.262   2.303 -0.0975  0.3002  0.6727
 4324SOL    HW113871   5.738   1.340   2.246 -0.8481  0.3495  1.0930
 4324SOL    HW213872   5.863   1.244   2.289  0.0322  1.1590  0.3835
 4325SOL     OW13873   1.639   6.936   5.705 -0.3874 -0.4815 -0.0932
 4325SOL    HW113874   1.653   6.971   5.613 -0.1449  2.1724  0.8592
 4325SOL    HW213875   1.711   6.870   5.727  1.7887  1.5966 -0.5778
 4326SOL     OW13876   3.730   0.447   1.140  0.2253 -0.4126  0.1176
 4326SOL    HW113877   3.734   0.396   1.054  0.0614 -0.1679 -0.0361
 4326SOL    HW213878   3.636   0.479   1.155  0.8470  2.3551 -1.2509
 4327SOL     OW13879   3.150   1.150   6.311 -0.0406  0.3968 -0.4626
 4327SOL    HW113880   3.199   1.086   6.251 -0.6452  1.0324 -1.6844
 4327SOL    HW213881   3.210   1.179   6.385  0.1931 -1.7135  0.2481
 4328SOL     OW13882   1.294   6.476   3.143 -0.3738 -0.5278 -0.1877
 4328SOL    HW113883   1.255   6.563   3.112  0.1645  0.6057  2.0611
 4328SOL    HW213884   1.394   6.480   3.137 -0.2965 -0.5634  0.9219
 4329SOL     OW13885   6.315   6.332   2.493  0.9425 -0.1973  0.5410
 4329SOL    HW113886   6.270   6.245   2.474  2.3786 -0.9823  0.6230
 4329SOL    HW213887   6.263   6.406   2.450  0.2608 -1.1969 -0.4123
 4330SOL     OW13888   6.826   4.645   0.856  0.4263 -0.2290 -0.5029
 4330SOL    HW113889   6.743   4.627   0.909  2.7006 -0.3140  3.4396
 4330SOL    HW213890   6.866   4.732   0.886  1.3006  0.3204 -3.0279
 4331SOL     OW13891   4.699   1.382   0.711 -0.3354 -0.2080  0.5428
 4331SOL    HW113892   4.727   1.349   0.621 -0.1714  0.2699  0.4150
 4331SOL    HW213893   4.705   1.307   0.777  1.4468 -0.0895  0.5681
 4332SOL     OW13894   4.535   0.708   0.096 -0.3631 -0.3578 -0.0223
 4332SOL    HW113895   4.452   0.758   0.118 -0.1927  0.1267 -0.4556
 4332SOL    HW213896   4.531   0.678   0.000 -0.1081 -0.4624 -0.0013
 4333SOL     OW13897   0.498   0.555   0.043 -0.6783  0.2211  0.7187
 4333SOL    HW113898   0.586   0.603   0.050  0.4584 -1.4177 -1.3314
 4333SOL    HW213899   0.455   0.577  -0.045 -1.4387 -0.4296  0.9128
 4334SOL     OW13900   6.994   1.974   2.287  0.4000  0.3119  1.0000
 4334SOL    HW113901   7.004   1.984   2.386 -0.6827  3.1429  0.9266
 4334SOL    HW213902   6.990   1.877   2.263  1.3049 -0.4598  3.6247
 4335SOL     OW13903   5.253   2.932   0.233 -0.0602  0.4950 -0.4938
 4335SOL    HW113904   5.333   2.903   0.286  0.1192  1.1172 -0.4047
 4335SOL    HW213905   5.216   2.855   0.182 -0.3792 -0.1852  0.7218
 4336SOL     OW13906   1.198   2.668   1.980  0.1705  0.1545  0.0000
 4336SOL    HW113907   1.132   2.617   1.924  0.4473  0.1354 -0.3119
 4336SOL    HW213908   1.282   2.615   1.989  0.0705  0.0910  0.5681
 4337SOL     OW13909   4.440   2.213   2.853 -1.1521 -0.1758 -0.0282
 4337SOL    HW113910   4.432   2.311   2.873 -1.4614 -0.3476  0.7287
 4337SOL    HW213911   4.510   2.173   2.911 -1.0843 -0.4183 -0.2765
 4338SOL     OW13912   3.394   3.087   1.433 -0.0792  0.7440 -0.2653
 4338SOL    HW113913   3.360   3.178   1.455  1.3125  1.1633  0.2099
 4338SOL    HW213914   3.493   3.083   1.447  0.0239 -0.5845 -1.1413
 4339SOL     OW13915   3.934   3.879   2.309  0.2647  0.4267 -0.1640
 4339SOL    HW113916   3.995   3.853   2.234 -0.2010  1.5651 -0.9698
 4339SOL    HW213917   3.879   3.958   2.281  0.7372  1.4734  1.7319
 4340SOL     OW13918   1.235   3.706   0.481  0.6718  0.1319 -0.2170
 4340SOL    HW113919   1.325   3.726   0.443  0.0024 -0.7259 -2.3644
 4340SOL    HW213920   1.185   3.792   0.496 -0.1589  0.5548 -4.2769
 4341SOL     OW13921   3.789   0.715   2.415  0.1992  0.3405 -0.1426
 4341SOL    HW113922   3.780   0.802   2.464  1.4101 -0.2227  1.1436
 4341SOL    HW213923   3.698   0.675   2.400 -0.2030  0.2596  2.2016
 4342SOL     OW13924   5.952   1.509   5.540 -0.2180  0.1735  0.3980
 4342SOL    HW113925   6.007   1.426   5.534  1.6469  1.3595  0.3719
 4342SOL    HW213926   5.934   1.544   5.448  0.0876  0.4855  0.4574
 4343SOL     OW13927   3.516   1.311   6.974 -0.0503 -0.1399  0.3965
 4343SOL    HW113928   3.603   1.314   6.924 -0.9479 -0.6776 -1.2580
 4343SOL    HW213929   3.535   1.311   7.073  1.7555  1.4819  0.1217
 4344SOL     OW13930   0.893   1.809   1.705  0.1456 -0.3845 -0.7059
 4344SOL    HW113931   0.818   1.807   1.771 -0.1009  0.0730 -0.9638
 4344SOL    HW213932   0.977   1.841   1.750 -0.3032  1.1001 -0.8773
 4345SOL     OW13933   3.428   3.854   4.093 -0.5036 -0.5702 -0.0953
 4345SOL    HW113934   3.419   3.954   4.084  3.2449 -0.0973  0.1200
 4345SOL    HW213935   3.413   3.812   4.004  1.1932  0.5831 -0.9787
 4346SOL     OW13936   2.818   5.568   0.879 -0.1758  0.2309 -0.8602
 4346SOL    HW113937   2.815   5.666   0.857  0.0394  0.5641  0.4796
 4346SOL    HW213938   2.846   5.557   0.975  1.6970 -1.2046 -1.5092
 4347SOL     OW13939   1.857   5.333   4.330  0.2603  0.4099 -0.3246
 4347SOL    HW113940   1.932   5.362   4.270  0.8270 -0.0671  0.1407
 4347SOL    HW213941   1.809   5.255   4.289  1.3316 -0.6177  0.3238
 4348SOL     OW13942   6.501   6.493   3.992  0.1645  0.1235  0.1160
 4348SOL    HW113943   6.511   6.587   4.024 -0.8791  0.3094 -0.0576
 4348SOL    HW213944   6.433   6.446   4.048 -1.5261  0.3783 -1.5844
 4349SOL     OW13945   2.215   6.272   6.963 -0.2991 -0.0696 -0.3614
 4349SOL    HW113946   2.152   6.338   6.922 -1.0682 -0.0796  0.7470
 4349SOL    HW213947   2.276   6.236   6.893  1.0457  2.7866 -0.7959
 4350SOL     OW13948   5.125   2.547   1.788  0.0517  0.2302  0.4275
 4350SOL    HW113949   5.204   2.573   1.733  0.5395  0.3821  1.1905
 4350SOL    HW213950   5.092   2.627   1.839  2.0017 -0.6743  3.3615
 4351SOL     OW13951   4.832   4.441   1.305 -0.3683 -0.1169  0.4577
 4351SOL    HW113952   4.863   4.360   1.356 -0.5154  0.2788  1.2006
 4351SOL    HW213953   4.889   4.520   1.331  0.7410 -0.2778 -1.3677
 4352SOL     OW13954   4.975   0.481   5.982 -0.2216 -0.2518 -0.2637
 4352SOL    HW113955   4.907   0.535   5.933 -0.7282 -1.0930 -0.5171
 4352SOL    HW213956   5.041   0.443   5.917  0.5745  0.6621 -0.0055
 4353SOL     OW13957   1.582   4.653   3.971 -0.2860  0.1771  0.0047
 4353SOL    HW113958   1.495   4.604   3.978 -0.0055 -0.4976 -1.0302
 4353SOL    HW213959   1.658   4.590   3.983  0.0908  0.1690 -2.0863
 4354SOL     OW13960   0.420   0.855   2.287 -0.5436  0.3762  0.3453
 4354SOL    HW113961   0.431   0.770   2.340  1.0326 -0.2579 -0.8941
 4354SOL    HW213962   0.443   0.837   2.191  1.6510  2.5723  0.3540
 4355SOL     OW13963   6.758   6.009   6.031 -0.5435 -0.4514  0.5743
 4355SOL    HW113964   6.664   5.992   6.002 -0.3197 -0.1138 -0.3791
 4355SOL    HW213965   6.764   6.097   6.077 -0.3162  0.5999 -1.3624
 4356SOL     OW13966   6.316   5.503   3.099 -0.6519  0.9708 -0.0272
 4356SOL    HW113967   6.353   5.420   3.140  1.6680  1.8977 -0.1269
 4356SOL    HW213968   6.391   5.561   3.068 -2.2560  2.3462 -1.5055
 4357SOL     OW13969   6.594   1.697   0.999 -0.6672  0.0490 -0.1883
 4357SOL    HW113970   6.526   1.770   0.988 -0.5368  0.0272 -1.2756
 4357SOL    HW213971   6.560   1.629   1.063 -0.0612  1.9061  2.2495
 4358SOL     OW13972   4.753   3.748   0.358  0.0800  0.0373 -0.3961
 4358SOL    HW113973   4.683   3.819   0.369 -1.1020 -0.7974 -2.1881
 4358SOL    HW213974   4.773   3.706   0.446 -0.1369  1.6991  0.4757
 4359SOL     OW13975   2.878   6.294   5.122 -0.0780  0.5287  0.1903
 4359SOL    HW113976   2.933   6.377   5.128 -2.2167  2.0313  0.0407
 4359SOL    HW213977   2.806   6.306   5.054 -0.8379 -1.2250  0.6281
 4360SOL     OW13978   6.333   6.678   2.729 -0.4965  0.0951 -0.2394
 4360SOL    HW113979   6.360   6.666   2.634  2.1040  0.1992  0.4111
 4360SOL    HW213980   6.240   6.715   2.733 -0.4268  0.7211 -2.7286
 4361SOL     OW13981   5.751   6.468   6.597  0.7249  0.2107 -0.0735
 4361SOL    HW113982   5.828   6.527   6.572  0.7085  0.1516 -0.2675
 4361SOL    HW213983   5.784   6.395   6.657  0.7657  0.3502  0.0763
 4362SOL     OW13984   0.628   6.534   2.994  0.4894 -0.1801 -0.3883
 4362SOL    HW113985   0.661   6.453   2.944 -0.4814 -1.1205  0.4486
 4362SOL    HW213986   0.535   6.556   2.965  0.1298 -0.3890  0.5599
 4363SOL     OW13987   1.574   3.343   2.223  0.0529  0.6057  0.3314
 4363SOL    HW113988   1.480   3.367   2.200 -0.7782 -1.1133  1.7358
 4363SOL    HW213989   1.598   3.254   2.184  0.8149  0.6343  0.6998
 4364SOL     OW13990   1.584   6.720   0.159 -0.0126 -0.4033 -0.0474
 4364SOL    HW113991   1.584   6.804   0.106 -0.3310 -1.6488 -2.1340
 4364SOL    HW213992   1.655   6.659   0.125  0.5625 -0.8072  1.7671
 4365SOL     OW13993   1.375   0.781   3.027  0.4242 -0.5249  0.2427
 4365SOL    HW113994   1.343   0.872   3.002  0.7547 -0.6785 -0.7602
 4365SOL    HW213995   1.473   0.783   3.044  0.6201 -0.8796 -0.7650
 4366SOL     OW13996   0.133   5.886   0.207  0.2975 -0.8875  0.4183
 4366SOL    HW113997   0.189   5.838   0.140  0.6275  0.5541 -0.3680
 4366SOL    HW213998   0.098   5.970   0.167  1.1421  0.4071  2.2713
 4367SOL     OW13999   1.693   6.549   4.018  0.3161  0.6855  0.3848
 4367SOL    HW114000   1.791   6.536   4.036 -0.0011 -1.9096  0.6308
 4367SOL    HW214001   1.657   6.471   3.967 -1.5316  1.8853 -0.2776
 4368SOL     OW14002   4.090   5.240   5.930  0.0102  0.8291 -1.0875
 4368SOL    HW114003   4.083   5.147   5.966  0.6652  0.6068 -1.5159
 4368SOL    HW214004   4.003   5.265   5.886 -1.1569  1.4694  1.4089
 4369SOL     OW14005   5.934   1.979   4.477 -0.0092 -0.8400 -0.6001
 4369SOL    HW114006   5.965   2.070   4.450  1.4613 -1.3502 -0.7191
 4369SOL    HW214007   6.000   1.911   4.446  0.7482 -1.6537  2.4819
 4370SOL     OW14008   2.388   6.778   1.016 -0.2934 -0.1805  0.0092
 4370SOL    HW114009   2.450   6.831   1.074  0.3580  0.1142 -0.9142
 4370SOL    HW214010   2.443   6.720   0.955 -0.9857 -1.5711  0.6804
 4371SOL     OW14011   1.942   5.583   1.118  0.0983  0.0223 -0.1742
 4371SOL    HW114012   1.916   5.513   1.050  1.6390  0.0049 -0.7913
 4371SOL    HW214013   2.042   5.589   1.123 -0.0014  1.3271  0.7757
 4372SOL     OW14014   4.258   1.656   5.612 -0.6207 -0.8421 -0.1622
 4372SOL    HW114015   4.347   1.612   5.599 -0.3424  0.0078 -1.3195
 4372SOL    HW214016   4.217   1.676   5.523 -2.6615 -2.5022  0.3163
 4373SOL     OW14017   5.227   4.673   1.869 -0.3048 -0.1899 -0.8921
 4373SOL    HW114018   5.235   4.585   1.822  1.2014 -0.5054 -0.1091
 4373SOL    HW214019   5.318   4.714   1.879 -0.2915 -0.7934  2.8912
 4374SOL     OW14020   1.295   3.728   5.759  0.3506 -0.2375 -0.2813
 4374SOL    HW114021   1.381   3.718   5.808 -0.5957  3.1344  2.4342
 4374SOL    HW214022   1.222   3.681   5.809  0.0293 -0.2678 -0.7696
 4375SOL     OW14023   2.376   0.485   6.131  0.2584  0.1493  0.1636
 4375SOL    HW114024   2.433   0.494   6.050 -0.3290 -1.3890 -0.4668
 4375SOL    HW214025   2.308   0.413   6.116 -1.7072  1.7383  0.9633
 4376SOL     OW14026   0.633   1.458   1.099 -0.3604 -0.0935  0.1184
 4376SOL    HW114027   0.669   1.542   1.140 -0.0699  0.0319 -0.3882
 4376SOL    HW214028   0.702   1.418   1.039 -0.3952 -0.8397  0.5540
 4377SOL     OW14029   3.911   6.262   0.950  0.9282 -0.4447 -0.5106
 4377SOL    HW114030   3.886   6.167   0.932 -2.1595 -0.4232  2.5942
 4377SOL    HW214031   3.848   6.323   0.901  1.1776 -0.0840 -0.3884
 4378SOL     OW14032   5.430   1.741   3.289 -0.3986  0.5420 -0.4522
 4378SOL    HW114033   5.457   1.786   3.204 -0.3070  1.0048 -0.1823
 4378SOL    HW214034   5.335   1.767   3.311 -0.4388  0.3839 -0.4400
 4379SOL     OW14035   1.028   3.547   3.714 -0.0148  0.3368 -0.3445
 4379SOL    HW114036   1.121   3.537   3.679  0.0797 -2.3900  0.4465
 4379SOL    HW214037   0.962   3.522   3.643  0.0160 -0.5732 -0.0793
 4380SOL     OW14038   0.491   0.542   3.850 -0.4378  0.1935 -0.1266
 4380SOL    HW114039   0.425   0.469   3.832  1.2180 -1.1667 -0.9596
 4380SOL    HW214040   0.459   0.598   3.927 -2.7468 -0.1188 -0.7848
 4381SOL     OW14041   0.096   4.503   1.813  0.4186  0.2554 -0.3991
 4381SOL    HW114042   0.040   4.508   1.730  0.5948 -0.1229 -0.5398
 4381SOL    HW214043   0.136   4.593   1.831  0.4445  0.3193 -0.7670
 4382SOL     OW14044   3.090   2.502   0.747 -0.3303 -0.1550  0.1168
 4382SOL    HW114045   3.148   2.583   0.758 -0.4410 -0.0744  0.0991
 4382SOL    HW214046   3.016   2.521   0.684  0.9410 -0.9627 -1.7069
 4383SOL     OW14047   0.849   4.964   0.767 -0.0085 -0.6133 -0.0321
 4383SOL    HW114048   0.778   5.034   0.772  0.1686 -0.5101  1.6563
 4383SOL    HW214049   0.811   4.880   0.730 -0.8452 -0.3477  0.1970
 4384SOL     OW14050   6.387   0.370   6.004  0.2293 -0.3945  0.1392
 4384SOL    HW114051   6.360   0.289   6.056  1.7048 -1.3765 -0.5775
 4384SOL    HW214052   6.314   0.439   6.010 -3.0201 -3.2231 -2.5711
 4385SOL     OW14053   3.093   6.241   6.254  0.5864  0.7308 -0.4556
 4385SOL    HW114054   3.151   6.306   6.205  0.8842  0.4948 -0.4224
 4385SOL    HW214055   3.027   6.291   6.311 -0.0103  1.0138 -1.3681
 4386SOL     OW14056   5.979   0.120   4.845 -0.2834  0.4536 -0.0054
 4386SOL    HW114057   5.947   0.162   4.760 -3.0834  0.3790  0.9318
 4386SOL    HW214058   6.069   0.078   4.829 -1.0284 -0.2174 -3.1222
 4387SOL     OW14059   4.801   5.729   3.733 -0.5404  0.5277  0.2022
 4387SOL    HW114060   4.851   5.758   3.651  0.6336  0.0440  0.7396
 4387SOL    HW214061   4.775   5.810   3.786  1.4878  0.7428  0.9620
 4388SOL     OW14062   5.897   6.507   5.529  0.0505  0.0302  0.6916
 4388SOL    HW114063   5.940   6.418   5.512 -1.9557 -0.8044 -0.2633
 4388SOL    HW214064   5.860   6.544   5.443  0.9564  1.9000  1.0328
 4389SOL     OW14065   0.881   2.389   0.076 -0.7090  0.2275  0.4689
 4389SOL    HW114066   0.846   2.307   0.031 -0.5003 -0.3228  1.2912
 4389SOL    HW214067   0.853   2.389   0.172  1.1424 -0.0091  1.0415
 4390SOL     OW14068   3.719   0.882   1.622 -0.1845 -0.2518 -0.9418
 4390SOL    HW114069   3.682   0.973   1.640 -0.2535 -0.7167  1.4731
 4390SOL    HW214070   3.668   0.813   1.673  0.7868 -1.5017 -1.5889
 4391SOL     OW14071   4.233   4.979   4.346 -0.9291 -0.5470  0.5161
 4391SOL    HW114072   4.197   5.058   4.396  0.2405  1.5677 -1.7648
 4391SOL    HW214073   4.217   4.896   4.399 -1.6382  1.2589  3.3412
 4392SOL     OW14074   2.183   2.952   1.546  0.0290  0.6574  0.1770
 4392SOL    HW114075   2.252   3.022   1.563 -0.7304  1.9496 -1.7165
 4392SOL    HW214076   2.094   2.996   1.529 -0.5178 -0.7455 -0.8439
 4393SOL     OW14077   4.193   1.968   0.524  0.5413  0.1189  0.3230
 4393SOL    HW114078   4.113   1.994   0.471  0.1633 -0.2741  0.6923
 4393SOL    HW214079   4.264   2.037   0.513 -0.0714  0.7872  0.4882
 4394SOL     OW14080   3.763   6.440   2.660  0.0888 -0.6399  0.6322
 4394SOL    HW114081   3.848   6.474   2.620 -0.1789  1.2862  1.5747
 4394SOL    HW214082   3.700   6.517   2.673 -1.9889 -2.0828 -0.4475
 4395SOL     OW14083   1.693   1.768   4.151  0.6306  0.8179 -0.3613
 4395SOL    HW114084   1.777   1.721   4.178  0.7202  1.0883 -0.1658
 4395SOL    HW214085   1.706   1.867   4.160  0.1835  0.8463 -0.0174
 4396SOL     OW14086   0.990   5.719   3.420 -0.2508  0.3889 -0.3035
 4396SOL    HW114087   1.083   5.701   3.389 -0.2727 -0.0506 -0.1321
 4396SOL    HW214088   0.954   5.800   3.374 -0.5368 -0.6248 -1.9549
 4397SOL     OW14089   6.431   0.551   4.315  1.0869 -0.0396 -0.0044
 4397SOL    HW114090   6.415   0.496   4.234  1.5811 -0.3484  0.1032
 4397SOL    HW214091   6.375   0.517   4.391 -0.8039  1.3857 -0.6725
 4398SOL     OW14092   4.771   5.740   2.038 -0.4943  0.3533  0.5865
 4398SOL    HW114093   4.838   5.750   1.965  1.1342 -1.4586  1.7528
 4398SOL    HW214094   4.689   5.792   2.015  0.1097  0.1780 -2.3099
 4399SOL     OW14095   1.920   5.677   4.806  0.5767 -0.2288 -0.0741
 4399SOL    HW114096   2.000   5.707   4.858  0.3524 -2.1030  1.4666
 4399SOL    HW214097   1.946   5.603   4.744 -0.1423 -1.7706  1.3957
 4400SOL     OW14098   3.907   0.646   4.225 -0.6209 -0.0630  0.0160
 4400SOL    HW114099   3.871   0.553   4.234 -0.4131 -0.1770 -0.3381
 4400SOL    HW214100   4.007   0.643   4.218 -0.6190  0.1838 -0.0713
 4401SOL     OW14101   0.376   4.706   4.721 -0.4286 -0.0397 -0.3377
 4401SOL    HW114102   0.414   4.739   4.634  0.1938  0.3791  0.0798
 4401SOL    HW214103   0.451   4.688   4.785 -0.9558  2.1470  0.9897
 4402SOL     OW14104   6.271   3.602   0.193  0.5042  0.0579 -0.0369
 4402SOL    HW114105   6.238   3.561   0.277 -1.2486  2.0317  0.3414
 4402SOL    HW214106   6.276   3.533   0.121 -1.4006 -1.0166  0.7897
 4403SOL     OW14107   3.484   4.900   1.212  0.0753 -0.0123 -0.6234
 4403SOL    HW114108   3.490   5.000   1.213  2.4372 -0.1130  0.4696
 4403SOL    HW214109   3.504   4.864   1.304  0.4518 -1.5385 -1.2737
 4404SOL     OW14110   3.308   0.598   0.706 -0.3164 -0.0873  0.7116
 4404SOL    HW114111   3.331   0.685   0.663 -1.2173 -0.2760 -0.2239
 4404SOL    HW214112   3.251   0.614   0.787 -0.3188  0.2084  0.6508
 4405SOL     OW14113   5.848   0.628   1.684 -0.1467  0.4677 -0.0657
 4405SOL    HW114114   5.801   0.592   1.765  0.5041  1.6784  0.8934
 4405SOL    HW214115   5.787   0.693   1.638 -0.4508 -0.0870 -0.4553
 4406SOL     OW14116   0.088   4.283   2.936  0.4521 -0.6765  0.2912
 4406SOL    HW114117   0.097   4.269   2.838  1.1113 -0.7306  0.3555
 4406SOL    HW214118   0.091   4.195   2.983  2.6539 -0.5174  0.5447
 4407SOL     OW14119   5.125   1.841   3.842 -0.3510 -0.8117 -0.3534
 4407SOL    HW114120   5.222   1.824   3.827  0.3458  0.8792  1.7634
 4407SOL    HW214121   5.073   1.757   3.825  1.1347 -1.2350 -3.6347
 4408SOL     OW14122   5.282   4.100   5.372  0.6778  0.8162  0.0726
 4408SOL    HW114123   5.295   4.163   5.449 -0.7490  0.2508  0.8254
 4408SOL    HW214124   5.214   4.031   5.397  0.2589  0.5477 -1.6691
 4409SOL     OW14125   3.340   6.080   3.040 -0.2491 -0.1401  0.7278
 4409SOL    HW114126   3.430   6.049   3.070  0.7036  0.9435 -0.8236
 4409SOL    HW214127   3.298   6.135   3.111  0.6704  0.0056  1.1737
 4410SOL     OW14128   5.548   0.383   6.067  0.7438  0.2938 -0.0158
 4410SOL    HW114129   5.548   0.463   6.007 -1.4658 -2.2348 -3.7505
 4410SOL    HW214130   5.458   0.374   6.111  1.6705  0.9262  2.1501
 4411SOL     OW14131   6.056   1.914   2.686  0.2272 -0.6104 -0.2551
 4411SOL    HW114132   6.114   1.850   2.735  2.0236  0.1756 -1.2526
 4411SOL    HW214133   6.074   2.007   2.717 -1.9884 -0.4809  0.8221
 4412SOL     OW14134   0.062   0.374   4.810  0.0799  0.0695 -0.0230
 4412SOL    HW114135   0.032   0.280   4.827  0.7093  0.0078  0.8019
 4412SOL    HW214136   0.051   0.429   4.893  1.6862  0.1804  0.1471
 4413SOL     OW14137   5.632   2.643   2.819 -0.5680  0.5421 -0.0600
 4413SOL    HW114138   5.695   2.673   2.747  0.8980  1.0956  1.4113
 4413SOL    HW214139   5.638   2.705   2.897 -0.7043 -1.1239  1.3304
 4414SOL     OW14140   6.660   6.564   2.715 -0.4909 -0.5184 -0.1923
 4414SOL    HW114141   6.593   6.551   2.788  1.7015  1.1293  2.2985
 4414SOL    HW214142   6.614   6.602   2.635 -2.4495  1.8277  1.8632
 4415SOL     OW14143   6.387   5.245   1.322  0.4661  0.9938 -0.0393
 4415SOL    HW114144   6.306   5.303   1.316 -0.5074 -0.2409  0.6270
 4415SOL    HW214145   6.428   5.253   1.414 -1.5721 -1.6980  1.2391
 4416SOL     OW14146   6.103   6.969   6.192 -0.4602 -0.2726  0.0663
 4416SOL    HW114147   6.107   6.877   6.230 -1.5994 -1.2547 -1.9653
 4416SOL    HW214148   6.040   7.025   6.246  0.4252 -0.5873  1.4625
 4417SOL     OW14149   6.362   4.842   1.766  0.2888  0.8367  0.7686
 4417SOL    HW114150   6.404   4.809   1.681 -0.4260  1.4738  0.1501
 4417SOL    HW214151   6.302   4.770   1.803 -0.8547  1.1991 -0.2922
 4418SOL     OW14152   2.936   0.381   6.747 -0.0897  0.2988  0.7330
 4418SOL    HW114153   2.902   0.335   6.665  1.7877  0.7198 -0.3609
 4418SOL    HW214154   2.943   0.479   6.729 -0.7909  0.5553  1.8287
 4419SOL     OW14155   3.062   0.266   0.645 -0.2132  0.3983 -0.2307
 4419SOL    HW114156   2.977   0.213   0.640  0.6450 -1.0005 -0.6319
 4419SOL    HW214157   3.046   0.358   0.610 -1.5475  0.1603 -0.3226
 4420SOL     OW14158   3.623   6.633   0.279 -0.2408 -0.0495 -0.3990
 4420SOL    HW114159   3.718   6.654   0.253  0.3928  0.3200  2.0122
 4420SOL    HW214160   3.618   6.539   0.313 -0.8209 -0.1720 -0.8056
 4421SOL     OW14161   0.509   0.792   5.463 -0.3826  0.2326  0.7192
 4421SOL    HW114162   0.427   0.735   5.467 -1.7437  2.0623  0.3670
 4421SOL    HW214163   0.496   0.873   5.519  0.7293  1.1292 -0.2595
 4422SOL     OW14164   4.910   2.158   5.513 -0.4593 -0.1020  0.3309
 4422SOL    HW114165   4.884   2.217   5.436 -1.0284  0.9848  1.3323
 4422SOL    HW214166   5.003   2.122   5.497  0.2068  1.6493  0.0372
 4423SOL     OW14167   4.860   2.426   3.165  0.1396  0.3131  0.0769
 4423SOL    HW114168   4.807   2.506   3.194  0.9430  1.3188 -1.0909
 4423SOL    HW214169   4.911   2.449   3.082 -1.5830 -2.1757 -1.8146
 4424SOL     OW14170   5.604   6.037   6.279  0.3627 -0.1822 -0.1464
 4424SOL    HW114171   5.545   6.118   6.273 -0.5696 -0.7806  0.7470
 4424SOL    HW214172   5.694   6.064   6.315  0.6337  0.7140 -1.4084
 4425SOL     OW14173   5.948   6.155   2.091  0.0232  0.1204  0.2182
 4425SOL    HW114174   5.929   6.248   2.060  1.2079  1.1499  2.3082
 4425SOL    HW214175   6.040   6.152   2.130 -0.7823 -1.3462  2.1968
 4426SOL     OW14176   1.048   2.059   0.958  0.5071 -0.2157  0.4273
 4426SOL    HW114177   1.145   2.078   0.974  0.1337 -0.4717  3.5049
 4426SOL    HW214178   1.036   1.962   0.936  0.9394 -0.1009 -0.3741
 4427SOL     OW14179   6.217   3.569   4.999  0.3997 -0.3856 -0.2852
 4427SOL    HW114180   6.259   3.600   4.913  0.6324 -0.2253 -0.1140
 4427SOL    HW214181   6.284   3.517   5.052  1.4483  2.5344  1.4661
 4428SOL     OW14182   6.186   1.777   4.871 -0.3844  0.6773  0.4650
 4428SOL    HW114183   6.208   1.760   4.967  0.1478 -0.5267  0.1556
 4428SOL    HW214184   6.163   1.690   4.826  2.2033  0.7246 -1.1710
 4429SOL     OW14185   1.597   2.767   3.364  0.4519  0.1861  0.2816
 4429SOL    HW114186   1.619   2.742   3.270  0.3661  0.6443  0.1338
 4429SOL    HW214187   1.504   2.802   3.369  0.2520 -0.3845  0.6465
 4430SOL     OW14188   0.722   0.437   5.249  0.1696 -0.0033 -0.1515
 4430SOL    HW114189   0.722   0.522   5.302 -0.5727  0.5130 -0.9490
 4430SOL    HW214190   0.698   0.361   5.309  0.2354  0.4350  0.4444
 4431SOL     OW14191   2.480   1.668   5.677  0.0711  0.0214  0.2790
 4431SOL    HW114192   2.521   1.758   5.662  0.2783  0.0771  1.1012
 4431SOL    HW214193   2.480   1.617   5.592  0.7576  0.4730 -0.0011
 4432SOL     OW14194   2.814   0.397   2.063  0.8078  0.2293  0.1447
 4432SOL    HW114195   2.816   0.302   2.095 -1.6099  0.2403  0.4824
 4432SOL    HW214196   2.745   0.406   1.991  0.1104  1.9782  0.9860
 4433SOL     OW14197   4.217   4.476   6.194 -0.8407 -0.4959 -0.0269
 4433SOL    HW114198   4.162   4.467   6.277  0.1644 -1.1232  0.5753
 4433SOL    HW214199   4.306   4.433   6.207  0.6559  2.2645 -0.2319
 4434SOL     OW14200   7.010   4.612   6.801 -0.3576  0.6294 -0.4913
 4434SOL    HW114201   7.101   4.650   6.813  0.8508 -2.2726  0.1641
 4434SOL    HW214202   7.002   4.573   6.709 -1.0019  0.9325 -0.5721
 4435SOL     OW14203   2.689   1.400   4.818 -0.1577  0.6968  0.0433
 4435SOL    HW114204   2.769   1.370   4.869 -0.1855  0.8959  0.2058
 4435SOL    HW214205   2.660   1.327   4.756  1.3252  1.3103 -1.4594
 4436SOL     OW14206   2.123   0.963   5.398  0.3972  0.0447 -0.2068
 4436SOL    HW114207   2.162   0.878   5.434  0.1000  0.2066  0.5205
 4436SOL    HW214208   2.191   1.009   5.340  0.1289 -1.3075 -1.6798
 4437SOL     OW14209   2.089   0.353   4.160  0.5419 -0.1187  0.5668
 4437SOL    HW114210   2.185   0.333   4.175  0.6978  0.5153  0.4347
 4437SOL    HW214211   2.048   0.385   4.245  0.8228  1.0855  0.2555
 4438SOL     OW14212   5.776   4.014   2.721  0.6002  0.3116 -0.0578
 4438SOL    HW114213   5.780   3.929   2.774 -0.5364  1.4637  1.9902
 4438SOL    HW214214   5.837   4.081   2.761 -1.6018  1.7954  1.0000
 4439SOL     OW14215   3.301   6.050   4.477  0.5772  0.3496 -0.2526
 4439SOL    HW114216   3.334   6.143   4.495  0.9028  0.2272 -0.2122
 4439SOL    HW214217   3.349   5.985   4.536  0.0223  0.2055  0.0428
 4440SOL     OW14218   0.552   5.479   5.068  0.4820  0.7894 -0.6794
 4440SOL    HW114219   0.563   5.486   5.167  0.8275  0.7736 -0.7150
 4440SOL    HW214220   0.540   5.571   5.030  0.4114  0.8007 -0.6315
 4441SOL     OW14221   4.853   2.885   0.776  0.1005  0.4398 -0.0111
 4441SOL    HW114222   4.922   2.922   0.837  0.4646  0.4598 -0.4294
 4441SOL    HW214223   4.814   2.802   0.816  1.3652 -0.3671 -0.3953
 4442SOL     OW14224   3.708   4.969   4.896 -0.0428  0.0618  0.6208
 4442SOL    HW114225   3.786   4.920   4.935 -0.4485 -1.0436  0.0692
 4442SOL    HW214226   3.648   5.001   4.970  0.0865 -0.5103  0.9776
 4443SOL     OW14227   4.793   1.010   6.466 -0.5366  0.3450  0.5993
 4443SOL    HW114228   4.725   1.055   6.524  0.7292  0.4980  2.0173
 4443SOL    HW214229   4.833   1.077   6.404  0.3136  0.8767  1.7092
 4444SOL     OW14230   0.842   3.580   0.200 -0.1717 -0.2697 -0.1660
 4444SOL    HW114231   0.841   3.509   0.270  1.2521  0.3696  0.5473
 4444SOL    HW214232   0.787   3.658   0.231  0.0840 -0.1710  0.0400
 4445SOL     OW14233   6.682   3.732   2.304 -0.0010  0.3331  0.0275
 4445SOL    HW114234   6.618   3.670   2.350  2.1320 -0.8755  1.5734
 4445SOL    HW214235   6.708   3.806   2.367 -0.4293  1.2635 -0.8547
 4446SOL     OW14236   4.457   1.903   3.465  0.1790 -0.7051 -0.4978
 4446SOL    HW114237   4.431   1.808   3.485  3.0438 -1.1820  1.6865
 4446SOL    HW214238   4.513   1.905   3.382 -0.4196 -0.8362 -0.9048
 4447SOL     OW14239   4.534   5.802   0.614  0.5726  0.4384 -0.0802
 4447SOL    HW114240   4.575   5.884   0.654 -1.0479  2.6524 -2.6042
 4447SOL    HW214241   4.601   5.756   0.557  1.7391 -0.5509  1.9893
 4448SOL     OW14242   1.922   3.960   3.171  0.3537 -0.0357  0.1838
 4448SOL    HW114243   1.823   3.962   3.158  0.5258  2.0023 -1.2934
 4448SOL    HW214244   1.965   4.026   3.109  2.7802 -1.9038 -0.2809
 4449SOL     OW14245   1.022   5.865   3.988 -0.1295  0.5783  0.4690
 4449SOL    HW114246   1.047   5.954   3.950 -1.2109  0.6556 -0.0940
 4449SOL    HW214247   1.099   5.828   4.040  0.1300  2.1045  1.2178
 4450SOL     OW14248   0.811   6.441   0.934 -0.4079 -0.1809 -0.2113
 4450SOL    HW114249   0.851   6.533   0.935 -1.6648  0.3765  1.0294
 4450SOL    HW214250   0.756   6.430   0.852  1.8427 -0.8165 -1.7456
 4451SOL     OW14251   6.023   3.794   4.982  0.2543 -0.0453 -1.1639
 4451SOL    HW114252   6.092   3.723   5.000 -0.3168 -0.0642  1.2882
 4451SOL    HW214253   6.059   3.883   5.011 -0.5327  0.0182 -0.3546
 4452SOL     OW14254   0.595   3.209   4.817 -0.6098  0.4431  0.9013
 4452SOL    HW114255   0.621   3.302   4.789 -0.1877  0.5772  1.7059
 4452SOL    HW214256   0.675   3.162   4.855 -0.4332 -0.8236 -0.9543
 4453SOL     OW14257   6.424   3.489   6.123  0.2649 -0.7430 -0.3276
 4453SOL    HW114258   6.333   3.454   6.145 -0.4330  0.0756 -1.7655
 4453SOL    HW214259   6.432   3.584   6.152 -0.1654 -0.1079 -2.1153
 4454SOL     OW14260   3.860   3.932   6.592 -0.1594  0.4723 -0.6028
 4454SOL    HW114261   3.918   4.011   6.611  1.0069  0.2380 -2.8084
 4454SOL    HW214262   3.908   3.869   6.530 -1.4273 -1.5129  0.3150
 4455SOL     OW14263   6.685   3.760   6.328 -0.2636  0.2743 -0.1761
 4455SOL    HW114264   6.747   3.683   6.314  0.8733  0.7336  1.9128
 4455SOL    HW214265   6.641   3.784   6.241  0.6938 -1.5710 -1.2240
 4456SOL     OW14266   6.142   4.311   1.800  0.0206 -0.6517  0.0895
 4456SOL    HW114267   6.127   4.305   1.899  0.2576 -0.5298  0.1328
 4456SOL    HW214268   6.129   4.406   1.771  1.3087 -0.4249  0.2257
 4457SOL     OW14269   1.880   4.228   4.982  0.2150  0.1868 -0.5016
 4457SOL    HW114270   1.893   4.319   5.023 -0.5685 -0.4757  1.3367
 4457SOL    HW214271   1.968   4.195   4.948  1.0100  0.6522  0.9928
 4458SOL     OW14272   6.152   5.127   1.554  0.4337  0.3689  0.3299
 4458SOL    HW114273   6.204   5.181   1.620  1.2957 -0.4656  0.3658
 4458SOL    HW214274   6.212   5.104   1.476  0.2690 -1.0070  0.5928
 4459SOL     OW14275   4.729   2.869   3.260 -0.0071  0.1287  0.4384
 4459SOL    HW114276   4.693   2.932   3.191  1.8667  0.6696 -0.0894
 4459SOL    HW214277   4.731   2.776   3.221  0.7143  0.3731 -0.1393
 4460SOL     OW14278   5.639   2.020   0.318 -0.3966  0.9972 -0.7244
 4460SOL    HW114279   5.705   1.994   0.389 -0.6280  3.8915  0.7270
 4460SOL    HW214280   5.682   2.010   0.228  1.4545  1.2077  0.0709
 4461SOL     OW14281   3.798   1.299   1.293  0.1502 -0.0439  0.3052
 4461SOL    HW114282   3.810   1.203   1.271 -1.4055 -0.2667  0.3219
 4461SOL    HW214283   3.875   1.352   1.256  1.3319 -1.3476  0.8348
 4462SOL     OW14284   3.605   6.948   3.239 -0.1403  0.3209  0.1995
 4462SOL    HW114285   3.688   6.955   3.184 -0.2967 -0.3179 -0.1326
 4462SOL    HW214286   3.616   6.875   3.307 -0.6189 -0.1371 -0.2011
 4463SOL     OW14287   4.576   5.416   1.993 -0.0684  0.4078 -0.5115
 4463SOL    HW114288   4.579   5.467   1.907  0.7178  0.7023 -0.3123
 4463SOL    HW214289   4.620   5.327   1.980  2.7990  1.5895  0.3134
 4464SOL     OW14290   6.858   0.618   0.704 -0.4875  0.2069 -0.1725
 4464SOL    HW114291   6.900   0.532   0.674 -0.0666  0.9522 -1.8966
 4464SOL    HW214292   6.923   0.693   0.691 -1.4693  1.0343 -0.4520
 4465SOL     OW14293   3.939   4.829   0.379  0.3559  0.5097 -0.5515
 4465SOL    HW114294   3.866   4.895   0.401  0.7267  0.6267  0.3778
 4465SOL    HW214295   3.901   4.736   0.382  0.1345  0.6001 -0.5186
 4466SOL     OW14296   6.330   3.021   3.772 -0.5533 -0.3293  0.5078
 4466SOL    HW114297   6.368   2.953   3.709  0.6535 -0.2708  1.1380
 4466SOL    HW214298   6.359   3.000   3.865  0.2864  1.3306  0.6543
 4467SOL     OW14299   5.026   2.250   4.290  0.0253 -0.2384 -0.2977
 4467SOL    HW114300   5.035   2.332   4.348  3.6442 -1.1600  0.6909
 4467SOL    HW214301   5.021   2.278   4.194 -0.1571  1.1723  0.0942
 4468SOL     OW14302   4.930   6.531   4.440  0.6888  0.2128  0.1602
 4468SOL    HW114303   4.839   6.521   4.481  1.1783 -0.0984  1.2082
 4468SOL    HW214304   4.979   6.443   4.447  0.2694 -0.3142 -2.4349
 4469SOL     OW14305   5.191   6.091   2.196 -0.4125  0.1103 -0.2885
 4469SOL    HW114306   5.249   6.037   2.257  0.9111  1.8302  0.0356
 4469SOL    HW214307   5.195   6.052   2.104 -1.3869 -1.7235  0.4033
 4470SOL     OW14308   5.748   4.609   5.301 -0.2982  0.3526  0.1830
 4470SOL    HW114309   5.711   4.591   5.210  0.3255 -0.5985  0.1092
 4470SOL    HW214310   5.692   4.561   5.369  1.2369 -1.8034  0.0040
 4471SOL     OW14311   3.370   4.895   3.205  0.6192  0.0942  0.1764
 4471SOL    HW114312   3.281   4.892   3.250  1.6083 -0.6005  2.2030
 4471SOL    HW214313   3.442   4.883   3.273  2.2075 -1.8290 -1.7098
 4472SOL     OW14314   4.062   2.919   0.762 -0.2194  0.7979 -0.4687
 4472SOL    HW114315   3.974   2.912   0.810 -1.3437 -1.0025 -2.5766
 4472SOL    HW214316   4.071   2.841   0.699  3.0718  0.7669 -0.0959
 4473SOL     OW14317   5.536   0.994   2.201 -0.0993 -0.1987  0.3540
 4473SOL    HW114318   5.535   1.087   2.237 -0.1189 -0.5050  1.1564
 4473SOL    HW214319   5.620   0.979   2.149  1.1348 -0.5072  2.3318
 4474SOL     OW14320   1.257   0.834   5.972  0.0562 -0.3807 -0.1316
 4474SOL    HW114321   1.293   0.892   6.044  1.7911  0.0990 -1.3227
 4474SOL    HW214322   1.219   0.751   6.012  1.2331 -0.2677  1.3031
 4475SOL     OW14323   4.956   5.163   0.902 -0.6828  0.3857  0.3606
 4475SOL    HW114324   4.982   5.216   0.983  0.5036 -0.4079  0.5367
 4475SOL    HW214325   4.997   5.204   0.821 -3.1827  2.1271 -0.1313
 4476SOL     OW14326   4.578   6.084   2.036  0.5667  0.4043 -0.3055
 4476SOL    HW114327   4.562   5.998   1.987 -1.0597  0.1688  0.5393
 4476SOL    HW214328   4.663   6.078   2.087  0.8045 -0.4489 -0.7749
 4477SOL     OW14329   4.056   0.561   3.059  0.4510  0.0493  0.0931
 4477SOL    HW114330   4.059   0.660   3.069  0.9826 -0.1260  2.0475
 4477SOL    HW214331   4.002   0.537   2.978 -0.4089  1.9045  0.0799
 4478SOL     OW14332   0.694   5.435   0.697  0.3966  0.4585  0.6752
 4478SOL    HW114333   0.659   5.435   0.603  1.2846  0.3837  0.3317
 4478SOL    HW214334   0.771   5.371   0.704  1.8126  2.0890  0.8809
 4479SOL     OW14335   0.847   3.595   2.711 -0.0008 -0.2296  0.5132
 4479SOL    HW114336   0.933   3.608   2.761  0.6260 -1.5958 -0.1519
 4479SOL    HW214337   0.773   3.581   2.777 -0.0143  2.3530  1.1369
 4480SOL     OW14338   2.485   5.478   0.181  0.4030  0.1531  0.7795
 4480SOL    HW114339   2.568   5.426   0.165  0.6703  0.7187  0.3059
 4480SOL    HW214340   2.463   5.533   0.100 -1.0722 -0.8572  0.4424
 4481SOL     OW14341   3.832   3.570   5.562  0.4534  0.3517 -0.2508
 4481SOL    HW114342   3.910   3.533   5.511  1.3846  2.0150 -0.1016
 4481SOL    HW214343   3.757   3.504   5.560  2.2326 -1.8262  0.5969
 4482SOL     OW14344   1.603   6.727   3.810 -0.1161 -1.1287 -0.5037
 4482SOL    HW114345   1.624   6.671   3.890  0.0611 -2.3045 -1.3518
 4482SOL    HW214346   1.621   6.675   3.727  0.1780  0.2344 -1.3299
 4483SOL     OW14347   5.495   0.235   3.965  0.4917  0.0941  0.0756
 4483SOL    HW114348   5.592   0.251   3.944  1.3426 -2.1557  1.8528
 4483SOL    HW214349   5.463   0.156   3.913  0.3777 -0.7173  1.3380
 4484SOL     OW14350   6.898   2.080   6.299 -0.2713  0.3677  0.9572
 4484SOL    HW114351   6.866   2.094   6.393  1.0736 -0.4274  1.5640
 4484SOL    HW214352   6.995   2.054   6.301 -0.4944 -0.6911 -0.5858
 4485SOL     OW14353   1.905   4.253   5.530  0.2498 -0.0356 -0.0207
 4485SOL    HW114354   1.877   4.312   5.454  0.3366  0.1298  0.0763
 4485SOL    HW214355   1.825   4.227   5.583  0.2364  0.1558  0.0532
 4486SOL     OW14356   4.784   5.309   1.242 -0.1005 -0.4444  0.2370
 4486SOL    HW114357   4.686   5.292   1.241 -0.0146 -0.9379 -0.1750
 4486SOL    HW214358   4.822   5.279   1.330 -0.4083  0.3331  0.6481
 4487SOL     OW14359   3.472   2.828   6.578 -0.1865  0.3693 -0.5106
 4487SOL    HW114360   3.398   2.770   6.613  0.4012  0.8710  1.7133
 4487SOL    HW214361   3.438   2.880   6.500 -2.1735  0.4981  0.3589
 4488SOL     OW14362   3.025   3.270   0.548  0.6779  0.4112  0.2686
 4488SOL    HW114363   2.929   3.243   0.555  1.2009 -2.4947 -1.8220
 4488SOL    HW214364   3.033   3.348   0.487 -0.3135  0.1166 -0.2674
 4489SOL     OW14365   4.068   5.657   6.237 -0.4665  0.0307  0.5571
 4489SOL    HW114366   4.166   5.662   6.257 -0.8439  1.5056  2.2697
 4489SOL    HW214367   4.045   5.722   6.164 -0.1031 -0.7536 -0.2771
 4490SOL     OW14368   2.255   0.220   1.773  0.2396 -0.4604  0.3049
 4490SOL    HW114369   2.164   0.196   1.739 -0.3240  0.3798  1.1667
 4490SOL    HW214370   2.300   0.282   1.709  0.4874 -1.3794 -0.4400
 4491SOL     OW14371   4.432   6.764   1.123  0.1116  0.4360  0.6598
 4491SOL    HW114372   4.420   6.796   1.029  2.1416  1.2385  0.6332
 4491SOL    HW214373   4.347   6.779   1.174 -0.6859  0.9374 -0.7555
 4492SOL     OW14374   4.250   0.074   2.514  0.3798 -0.5707 -0.3993
 4492SOL    HW114375   4.342   0.048   2.487  1.0947  2.3787 -1.2461
 4492SOL    HW214376   4.253   0.164   2.559 -2.2764  0.8431 -2.7366
 4493SOL     OW14377   6.930   6.250   0.350  0.4168 -0.4749  0.2069
 4493SOL    HW114378   6.932   6.190   0.431  3.0225 -3.3653 -1.7735
 4493SOL    HW214379   7.012   6.307   0.349 -0.5008  0.8818  0.4542
 4494SOL     OW14380   3.966   6.936   1.465 -0.1031 -0.2605 -0.1381
 4494SOL    HW114381   3.977   6.915   1.562 -0.7139 -0.9454 -0.2062
 4494SOL    HW214382   3.954   7.034   1.453 -0.3656 -0.2121  0.5123
 4495SOL     OW14383   3.250   2.960   4.065  0.2632  0.2708  0.4669
 4495SOL    HW114384   3.269   3.058   4.071  1.5961  0.0286  0.5834
 4495SOL    HW214385   3.277   2.926   3.975 -1.8276  0.3040 -0.2293
 4496SOL     OW14386   4.240   4.923   1.437  0.5084 -0.3666 -0.1931
 4496SOL    HW114387   4.280   5.007   1.474 -0.0670 -0.0920 -0.1891
 4496SOL    HW214388   4.278   4.907   1.346  1.2414 -0.5537  0.1324
 4497SOL     OW14389   6.958   1.159   6.665  0.6046 -0.5252 -0.0303
 4497SOL    HW114390   6.977   1.109   6.580  2.2577 -0.7964  0.4578
 4497SOL    HW214391   6.920   1.249   6.643  1.3606 -0.4383 -1.0796
 4498SOL     OW14392   1.672   0.108   2.329  0.6229 -0.1746 -0.2860
 4498SOL    HW114393   1.750   0.093   2.389  0.8968  0.1726 -0.5521
 4498SOL    HW214394   1.703   0.110   2.234  0.3889  0.5982 -0.3540
 4499SOL     OW14395   5.225   1.236   0.899  0.2479  0.2132  0.0562
 4499SOL    HW114396   5.182   1.322   0.870 -0.9169 -0.6436 -0.8602
 4499SOL    HW214397   5.269   1.249   0.988 -0.0642  1.6987  0.0232
 4500SOL     OW14398   2.479   1.096   6.156  0.0225  0.4606 -0.1097
 4500SOL    HW114399   2.540   1.042   6.099  2.4204  0.5965  2.1170
 4500SOL    HW214400   2.436   1.038   6.225  1.6515  1.0810  1.5110
 4501SOL     OW14401   2.944   6.837   3.964 -0.0985 -0.0348 -0.2248
 4501SOL    HW114402   2.964   6.742   3.941 -1.1078 -0.2687 -0.1670
 4501SOL    HW214403   3.021   6.895   3.937  1.2369 -1.0610  1.1748
 4502SOL     OW14404   4.903   1.300   3.779  0.3471 -0.0304 -0.5342
 4502SOL    HW114405   4.902   1.203   3.802  1.1655  0.0253 -0.2126
 4502SOL    HW214406   4.826   1.346   3.823 -0.1131 -0.5525 -0.7884
 4503SOL     OW14407   1.208   4.878   0.483 -0.6580  0.4896 -0.4960
 4503SOL    HW114408   1.123   4.931   0.477 -1.3147 -0.4629  0.1708
 4503SOL    HW214409   1.205   4.820   0.563  0.9665  0.9787 -0.0533
 4504SOL     OW14410   3.745   5.737   2.430 -0.0684 -0.1802  0.0021
 4504SOL    HW114411   3.742   5.654   2.373  0.1152 -0.0834 -0.1483
 4504SOL    HW214412   3.808   5.723   2.506  0.6865  0.1537 -0.5482
 4505SOL     OW14413   0.748   6.065   1.697  0.3841 -0.5448  0.0293
 4505SOL    HW114414   0.776   5.970   1.686  0.6564 -0.4861  0.2025
 4505SOL    HW214415   0.661   6.080   1.650 -1.1970 -1.6185  2.4108
 4506SOL     OW14416   6.141   4.270   0.553 -0.3583  0.1911  0.4831
 4506SOL    HW114417   6.061   4.286   0.495 -0.6618  0.1411  0.8872
 4506SOL    HW214418   6.154   4.172   0.565  1.2690  0.0774 -1.6662
 4507SOL     OW14419   3.864   4.975   1.707  0.8617 -0.1942  0.2856
 4507SOL    HW114420   3.795   4.910   1.675 -0.0008  0.6151  0.4209
 4507SOL    HW214421   3.839   5.067   1.676  1.4709  0.2190  0.9869
 4508SOL     OW14422   2.672   6.571   3.883 -0.7214 -0.3308  0.0600
 4508SOL    HW114423   2.743   6.598   3.818 -0.0611  0.3704  1.0425
 4508SOL    HW214424   2.582   6.589   3.844 -0.3615 -1.0559 -1.1269
 4509SOL     OW14425   5.114   5.861   0.057  0.2018  0.4930  0.7183
 4509SOL    HW114426   5.032   5.805   0.069 -0.9679  2.2521  1.3798
 4509SOL    HW214427   5.087   5.952   0.025  1.8708  1.2464  1.3896
 4510SOL     OW14428   3.175   3.362   2.750 -0.4141  0.0566 -0.1203
 4510SOL    HW114429   3.162   3.264   2.769 -0.1696 -0.2865 -1.6410
 4510SOL    HW214430   3.134   3.415   2.825 -2.7822 -1.1547 -0.4463
 4511SOL     OW14431   1.197   3.589   0.880  0.4493  0.1202 -0.5793
 4511SOL    HW114432   1.166   3.611   0.787 -0.6125  1.2388  0.0180
 4511SOL    HW214433   1.158   3.501   0.909  1.6299 -0.7608 -1.5569
 4512SOL     OW14434   3.712   3.149   5.588  0.6023  0.4566  0.2222
 4512SOL    HW114435   3.693   3.217   5.517 -1.2554 -0.7122 -0.4569
 4512SOL    HW214436   3.803   3.166   5.627  1.9693  0.7394 -2.8371
 4513SOL     OW14437   2.521   2.902   6.568 -0.1448  0.2823 -0.0810
 4513SOL    HW114438   2.505   2.914   6.470  0.5292  1.5281 -0.0590
 4513SOL    HW214439   2.477   2.818   6.599  1.1208 -1.0629 -1.8042
 4514SOL     OW14440   6.886   3.027   4.674  0.1708  0.5225  0.0598
 4514SOL    HW114441   6.807   2.987   4.720 -1.0587  3.7051  1.0090
 4514SOL    HW214442   6.856   3.076   4.593  1.3759  0.6667 -0.3173
 4515SOL     OW14443   1.588   6.121   1.898 -0.0002  0.1902  0.1391
 4515SOL    HW114444   1.527   6.198   1.915 -0.4292 -0.5191  2.0779
 4515SOL    HW214445   1.536   6.035   1.905  1.0529 -0.3989  1.2149
 4516SOL     OW14446   5.510   0.560   2.750  0.1809 -0.1343 -0.4028
 4516SOL    HW114447   5.570   0.518   2.682  1.5948  0.3506  0.5031
 4516SOL    HW214448   5.444   0.493   2.782 -0.1422 -0.5262 -1.8229
 4517SOL     OW14449   5.959   4.177   4.935  0.2918 -0.1490  0.0769
 4517SOL    HW114450   5.923   4.240   4.866  1.8969  0.9066  0.1690
 4517SOL    HW214451   5.973   4.226   5.021  0.5037 -0.9091  0.4819
 4518SOL     OW14452   1.320   2.157   3.775 -0.0702 -0.7218 -0.1069
 4518SOL    HW114453   1.254   2.189   3.842 -1.0230 -1.5447 -0.6295
 4518SOL    HW214454   1.366   2.235   3.733 -0.1406 -0.1745  0.8297
 4519SOL     OW14455   5.496   3.298   3.959  0.0808 -0.4109  0.4184
 4519SOL    HW114456   5.481   3.365   4.032  1.0571 -1.2151  1.4117
 4519SOL    HW214457   5.541   3.217   3.998  1.0567 -0.6733 -1.1655
 4520SOL     OW14458   0.237   3.115   0.166  0.2302 -0.0487  0.2734
 4520SOL    HW114459   0.263   3.212   0.168 -0.5113  0.1508  0.6815
 4520SOL    HW214460   0.298   3.066   0.104 -0.1403  0.9071 -0.9096
 4521SOL     OW14461   0.601   4.517   2.317  0.1123  0.3212  0.7520
 4521SOL    HW114462   0.627   4.555   2.228 -0.5703  1.4322  1.0099
 4521SOL    HW214463   0.512   4.472   2.308 -0.9446  2.1851  1.2683
 4522SOL     OW14464   3.055   5.978   1.422 -0.5069 -0.1481 -0.3297
 4522SOL    HW114465   2.993   5.957   1.497 -0.6489 -0.5990 -0.5685
 4522SOL    HW214466   3.130   6.035   1.455 -0.5655 -0.3509  0.1563
 4523SOL     OW14467   3.932   1.683   6.710 -0.7201 -0.0029 -0.0186
 4523SOL    HW114468   4.002   1.638   6.656 -2.3397  0.6168 -2.8372
 4523SOL    HW214469   3.941   1.782   6.703 -1.5837  0.0900 -0.0258
 4524SOL     OW14470   3.034   6.487   0.201  0.3339 -0.2962 -0.2913
 4524SOL    HW114471   2.986   6.471   0.287  0.2691  0.6351 -0.1491
 4524SOL    HW214472   3.124   6.444   0.205 -0.5619 -2.3531 -0.6861
 4525SOL     OW14473   5.691   5.007   2.325  0.0242  0.1492 -0.0838
 4525SOL    HW114474   5.729   4.928   2.373  1.2125  1.2228  0.7852
 4525SOL    HW214475   5.685   4.986   2.227  0.4555 -0.9575  0.1113
 4526SOL     OW14476   6.319   5.137   1.835 -0.2389 -0.2518  0.6619
 4526SOL    HW114477   6.336   5.039   1.828 -0.1006 -0.1232 -1.0231
 4526SOL    HW214478   6.268   5.155   1.920  0.0606 -1.7108  1.1938
 4527SOL     OW14479   4.687   5.566   1.509 -0.3935 -0.5500  0.0912
 4527SOL    HW114480   4.611   5.502   1.518  0.5381 -1.6071  0.6736
 4527SOL    HW214481   4.659   5.643   1.452 -1.7362 -1.1604 -0.1111
 4528SOL     OW14482   6.552   0.730   5.959 -0.6384 -0.4538 -0.6047
 4528SOL    HW114483   6.482   0.789   5.997  0.5650  0.0310  0.9749
 4528SOL    HW214484   6.607   0.781   5.893 -1.1809 -0.5746 -1.1602
 4529SOL     OW14485   6.130   4.009   0.620  0.1614 -0.1999  0.7339
 4529SOL    HW114486   6.048   3.952   0.614 -0.5692  0.9720 -1.4032
 4529SOL    HW214487   6.201   3.972   0.561 -0.5889  1.3872 -1.3082
 4530SOL     OW14488   1.631   6.149   0.756 -0.4792  0.3574  0.3291
 4530SOL    HW114489   1.702   6.079   0.750 -2.0390 -1.1669 -2.2504
 4530SOL    HW214490   1.673   6.236   0.781  1.9875 -0.8613  0.7721
 4531SOL     OW14491   5.525   2.282   4.525 -0.0306  0.3495 -0.6299
 4531SOL    HW114492   5.442   2.334   4.506 -0.2789  0.5005  0.7980
 4531SOL    HW214493   5.596   2.343   4.559 -0.8352 -0.3547  2.6613
 4532SOL     OW14494   5.990   6.836   4.247 -0.2960  0.1177  0.1065
 4532SOL    HW114495   6.083   6.848   4.283 -0.5645 -0.3696  0.9848
 4532SOL    HW214496   5.963   6.918   4.197  0.3255  0.5686  0.4955
 4533SOL     OW14497   1.544   3.369   3.605 -0.1606 -0.3394  0.0571
 4533SOL    HW114498   1.560   3.435   3.679 -1.8797  0.3678 -0.1502
 4533SOL    HW214499   1.549   3.276   3.642 -1.2454  0.0050  1.1654
 4534SOL     OW14500   4.699   5.599   0.453 -0.4700  0.0303  0.4912
 4534SOL    HW114501   4.737   5.565   0.539  0.6499 -1.8987 -0.6960
 4534SOL    HW214502   4.755   5.675   0.419  0.7594 -1.0070  0.1222
 4535SOL     OW14503   3.540   0.175   5.924  0.5081  0.2858  0.0208
 4535SOL    HW114504   3.556   0.204   5.830  0.2819  1.9642  0.4674
 4535SOL    HW214505   3.616   0.117   5.954  0.1464 -1.0101 -1.4496
 4536SOL     OW14506   5.927   5.401   4.041 -0.1923 -0.4940 -0.2515
 4536SOL    HW114507   5.835   5.363   4.049  0.1334 -1.2609 -0.0712
 4536SOL    HW214508   5.924   5.500   4.054 -1.0050 -0.4980 -0.3692
 4537SOL     OW14509   4.090   2.173   5.402  0.3289  0.2226  0.2751
 4537SOL    HW114510   4.013   2.199   5.344  0.3797  0.8575  0.4863
 4537SOL    HW214511   4.080   2.214   5.492  0.8060  0.1358  0.3705
 4538SOL     OW14512   0.934   1.620   4.928  0.6264  0.3676  0.7826
 4538SOL    HW114513   0.857   1.660   4.878  1.3013  0.2499 -0.3826
 4538SOL    HW214514   1.004   1.591   4.863  1.5842  0.3169  1.8182
 4539SOL     OW14515   5.065   3.088   1.391  0.1507 -0.0100  0.0783
 4539SOL    HW114516   5.062   3.064   1.488  0.6251  0.9639  0.3389
 4539SOL    HW214517   5.149   3.052   1.350 -0.6938 -1.6334 -0.3212
 4540SOL     OW14518   6.298   5.780   4.893  0.5126  0.0098  0.2771
 4540SOL    HW114519   6.245   5.850   4.942  1.0283  1.3606 -1.0277
 4540SOL    HW214520   6.252   5.692   4.901  0.2929  0.2620  2.7181
 4541SOL     OW14521   6.493   4.256   4.312 -0.0395 -0.4160  0.1776
 4541SOL    HW114522   6.418   4.225   4.253 -0.4153 -0.4298  0.6566
 4541SOL    HW214523   6.501   4.356   4.305 -0.0445 -0.4238  0.0563
 4542SOL     OW14524   2.161   3.737   1.945  0.2630 -0.2348 -0.2341
 4542SOL    HW114525   2.177   3.764   1.851  0.6220  1.4113  0.2813
 4542SOL    HW214526   2.169   3.637   1.953 -1.0019 -0.5489 -2.1607
 4543SOL     OW14527   0.819   0.088   1.262  0.4726  0.0222 -0.3209
 4543SOL    HW114528   0.859   0.048   1.345  1.0768 -0.3900 -0.8040
 4543SOL    HW214529   0.852   0.039   1.182  1.0913  1.3869 -0.9252
 4544SOL     OW14530   5.209   5.902   5.759 -0.0840 -0.1266  0.3810
 4544SOL    HW114531   5.263   5.965   5.815  1.4568  0.2032 -1.3930
 4544SOL    HW214532   5.130   5.872   5.812  1.1426  0.3352  2.6441
 4545SOL     OW14533   1.730   3.296   4.162  0.2236  0.1392 -0.7957
 4545SOL    HW114534   1.698   3.218   4.215 -1.6530  1.7230  0.5136
 4545SOL    HW214535   1.652   3.349   4.130  1.4428  2.3551 -0.2929
 4546SOL     OW14536   5.045   1.326   1.952  0.5311  0.0620 -0.0159
 4546SOL    HW114537   5.009   1.408   1.996  1.4370  1.2227 -1.3470
 4546SOL    HW214538   4.969   1.270   1.919 -0.1024  1.3214 -0.7489
 4547SOL     OW14539   1.622   0.590   0.869 -0.2449  0.2873  0.4060
 4547SOL    HW114540   1.603   0.682   0.904 -1.0590  0.2817  0.0187
 4547SOL    HW214541   1.629   0.594   0.769  3.4668  0.5517  0.5606
 4548SOL     OW14542   5.194   0.319   5.914 -0.7204 -0.0231 -0.8124
 4548SOL    HW114543   5.196   0.248   5.984 -2.1011 -0.1912 -0.9221
 4548SOL    HW214544   5.243   0.287   5.833  3.1483  1.1161  0.8374
 4549SOL     OW14545   1.637   5.179   0.423 -0.0177  0.1708 -0.4364
 4549SOL    HW114546   1.544   5.141   0.432  0.1375  0.0702  1.1658
 4549SOL    HW214547   1.689   5.124   0.359 -0.9100 -0.0972 -0.9507
 4550SOL     OW14548   1.642   0.883   4.763  0.1213 -0.1626  0.3010
 4550SOL    HW114549   1.696   0.862   4.845 -0.8503  1.2936  1.3641
 4550SOL    HW214550   1.581   0.807   4.743  1.5395 -1.2490 -0.1117
 4551SOL     OW14551   5.396   0.340   6.748  0.1525 -0.0970 -0.8689
 4551SOL    HW114552   5.311   0.383   6.716  0.7940  1.2505 -0.8508
 4551SOL    HW214553   5.377   0.247   6.779 -1.5580  0.6044  0.3190
 4552SOL     OW14554   6.806   1.097   4.365  0.0062  0.2143 -0.0745
 4552SOL    HW114555   6.792   1.000   4.344 -0.0183  0.6178 -2.1605
 4552SOL    HW214556   6.904   1.117   4.368  0.0239 -0.0077  1.1235
 4553SOL     OW14557   4.093   0.981   6.244 -0.1530  0.4978 -0.3580
 4553SOL    HW114558   4.156   0.935   6.182  1.7849  0.5404  1.4729
 4553SOL    HW214559   4.098   1.080   6.229  1.0031  0.5767  0.4325
 4554SOL     OW14560   2.768   5.247   5.664  0.1837  0.0469  0.0494
 4554SOL    HW114561   2.686   5.303   5.670 -0.6441 -1.1090 -0.1929
 4554SOL    HW214562   2.755   5.163   5.718  0.4558 -1.0223 -1.4874
 4555SOL     OW14563   5.231   3.573   3.073  0.3193  0.4073 -0.0786
 4555SOL    HW114564   5.237   3.473   3.063 -0.9706  0.1575  1.2587
 4555SOL    HW214565   5.216   3.596   3.170  1.7987  1.9851 -0.1777
 4556SOL     OW14566   0.407   5.523   0.810 -0.0777  1.4695  0.1070
 4556SOL    HW114567   0.490   5.493   0.858 -0.7785  0.7691  0.9146
 4556SOL    HW214568   0.431   5.593   0.744  1.0018  2.0755  1.1001
 4557SOL     OW14569   4.015   2.528   0.238 -0.0465 -0.2645 -0.0946
 4557SOL    HW114570   4.067   2.610   0.211 -1.0400  0.3693 -0.1209
 4557SOL    HW214571   3.921   2.554   0.260 -0.3156 -1.3783  0.1087
 4558SOL     OW14572   4.645   2.730   4.232 -0.4072 -0.8130  0.2874
 4558SOL    HW114573   4.698   2.812   4.211 -0.9757 -0.3153  0.7504
 4558SOL    HW214574   4.683   2.685   4.313  1.2862 -2.2821 -1.2392
 4559SOL     OW14575   2.410   6.430   5.554 -0.4834  0.5183 -0.2808
 4559SOL    HW114576   2.454   6.341   5.540  0.7301  1.0407  0.0782
 4559SOL    HW214577   2.415   6.483   5.469  0.1003  0.7875 -0.0863
 4560SOL     OW14578   3.652   2.586   6.384 -0.2104 -0.5341 -0.5714
 4560SOL    HW114579   3.730   2.581   6.447 -0.7772 -1.2339  0.0907
 4560SOL    HW214580   3.572   2.543   6.426 -0.4357 -1.6142 -2.0278
 4561SOL     OW14581   4.426   3.403   1.000  0.4178 -0.5332 -0.0266
 4561SOL    HW114582   4.475   3.357   0.926 -1.5565 -1.2054 -0.9791
 4561SOL    HW214583   4.359   3.340   1.040  1.4764 -0.2337  2.4592
 4562SOL     OW14584   4.468   5.076   4.455  0.7387  0.1277 -0.3080
 4562SOL    HW114585   4.434   4.988   4.421  0.1379  0.1837  0.1257
 4562SOL    HW214586   4.489   5.135   4.378  0.7001 -0.2328 -0.5988
 4563SOL     OW14587   3.973   1.018   2.210  0.2120 -0.5129 -0.2207
 4563SOL    HW114588   3.892   0.980   2.165  0.2122 -1.8367  0.8368
 4563SOL    HW214589   4.052   1.005   2.151  0.1340 -1.8118 -0.0702
 4564SOL     OW14590   1.394   2.813   6.665 -0.2983 -0.2307 -0.3500
 4564SOL    HW114591   1.367   2.778   6.575  1.1504  0.8714 -1.2622
 4564SOL    HW214592   1.422   2.909   6.657  1.4045 -0.5666  0.9436
 4565SOL     OW14593   6.565   1.763   3.642 -0.5763  0.1453 -0.3297
 4565SOL    HW114594   6.554   1.701   3.564  0.3670 -1.4253  0.7412
 4565SOL    HW214595   6.478   1.771   3.690 -0.9464  0.4525 -1.0260
 4566SOL     OW14596   6.394   0.982   3.514  0.3134  0.0433  0.2078
 4566SOL    HW114597   6.479   1.032   3.501  0.1017  0.3015 -0.1878
 4566SOL    HW214598   6.356   1.003   3.605  0.0849  0.8148 -0.0621
 4567SOL     OW14599   1.922   4.407   6.810  0.2825  0.4511 -0.2268
 4567SOL    HW114600   2.005   4.353   6.808  1.2169  1.7806  0.6872
 4567SOL    HW214601   1.939   4.496   6.766 -0.3713  1.0841  0.7684
 4568SOL     OW14602   1.559   0.705   4.388 -0.2187 -0.3367  0.4666
 4568SOL    HW114603   1.464   0.720   4.415 -0.2728 -0.7182  0.4885
 4568SOL    HW214604   1.565   0.704   4.288 -0.2864 -0.6310  0.4667
 4569SOL     OW14605   6.758   6.837   2.993 -0.1996  0.3003 -0.2680
 4569SOL    HW114606   6.811   6.753   2.982 -0.5365  0.0216  0.1896
 4569SOL    HW214607   6.661   6.815   2.988 -0.3180  0.4954  0.8819
 4570SOL     OW14608   6.726   5.102   3.092  0.1601 -0.1365 -0.7167
 4570SOL    HW114609   6.761   5.195   3.104 -0.8496  0.2631 -0.7533
 4570SOL    HW214610   6.697   5.089   2.997 -0.8884 -0.0424 -0.4259
 4571SOL     OW14611   3.399   2.926   3.232  0.0344  0.0696  0.2516
 4571SOL    HW114612   3.373   2.894   3.141 -1.0476 -0.5213  0.7485
 4571SOL    HW214613   3.366   3.019   3.245 -0.4688 -0.1096  0.2970
 4572SOL     OW14614   4.237   1.654   1.139 -0.5394 -0.4414 -0.2566
 4572SOL    HW114615   4.257   1.592   1.064 -0.9123 -0.3697 -0.4162
 4572SOL    HW214616   4.162   1.714   1.114  1.0630  1.4288 -0.8942
 4573SOL     OW14617   6.375   6.342   6.137  0.1978 -0.7434  0.3490
 4573SOL    HW114618   6.447   6.340   6.068 -1.6985  1.6604 -1.8949
 4573SOL    HW214619   6.380   6.429   6.188 -0.5682 -0.9333  0.7678
 4574SOL     OW14620   5.023   3.324   0.325  0.3624 -0.2551  0.0460
 4574SOL    HW114621   5.070   3.275   0.252 -0.2392 -1.4598  0.4314
 4574SOL    HW214622   4.938   3.277   0.347 -0.4317  1.2090  0.1842
 4575SOL     OW14623   5.269   0.421   4.275  0.3128 -0.0229  0.2503
 4575SOL    HW114624   5.281   0.367   4.359  1.2603  0.3103  0.3376
 4575SOL    HW214625   5.295   0.365   4.196  0.4754  0.0241  0.2704
 4576SOL     OW14626   5.292   4.617   4.039 -0.2728 -0.0648  0.0691
 4576SOL    HW114627   5.309   4.521   4.020 -0.6699  0.1166 -1.3041
 4576SOL    HW214628   5.357   4.650   4.108  0.5878 -1.0190 -0.2690
 4577SOL     OW14629   1.225   5.725   4.101  0.2181 -0.7238  0.3037
 4577SOL    HW114630   1.220   5.729   4.201 -1.2970 -2.3568  0.3490
 4577SOL    HW214631   1.318   5.746   4.071  0.6900 -0.1571  2.0353
 4578SOL     OW14632   6.546   6.651   0.648 -0.0439  0.3561 -0.2024
 4578SOL    HW114633   6.481   6.718   0.685 -2.2821 -2.0727  0.5746
 4578SOL    HW214634   6.512   6.618   0.560  0.7988 -0.0707 -0.3716
 4579SOL     OW14635   4.800   4.107   0.048  0.0765  0.3898 -0.5304
 4579SOL    HW114636   4.756   4.114   0.138  0.6927  0.1476 -0.2065
 4579SOL    HW214637   4.812   4.011   0.024 -0.7981  0.4385 -1.2336
 4580SOL     OW14638   4.749   1.047   1.071 -0.2303 -0.2452  0.2063
 4580SOL    HW114639   4.809   1.075   0.996  0.9464 -2.0758  0.3887
 4580SOL    HW214640   4.799   1.051   1.157 -0.9926  0.0734  0.6414
 4581SOL     OW14641   6.637   0.257   6.072  0.3070 -0.1643 -0.4252
 4581SOL    HW114642   6.721   0.306   6.049 -0.1261  0.3771 -0.8785
 4581SOL    HW214643   6.559   0.302   6.029 -0.2612 -0.4587  0.2716
 4582SOL     OW14644   4.540   6.723   5.060  0.6166 -0.3700  0.9981
 4582SOL    HW114645   4.528   6.781   4.980  0.1307 -0.1954  1.1896
 4582SOL    HW214646   4.600   6.768   5.126  1.3134 -0.6758  0.5790
 4583SOL     OW14647   5.452   4.450   5.160 -0.0863 -0.4603  0.1864
 4583SOL    HW114648   5.473   4.352   5.155 -0.2943 -0.4578 -3.6931
 4583SOL    HW214649   5.531   4.503   5.129 -1.4073  0.2513 -2.2290
 4584SOL     OW14650   5.046   0.247   1.131  0.7607 -0.4057  0.2250
 4584SOL    HW114651   5.033   0.195   1.047 -3.5027 -1.0077  1.0115
 4584SOL    HW214652   4.964   0.302   1.149  2.6854  1.9769  2.5505
 4585SOL     OW14653   0.057   5.024   5.692  0.4916 -0.0253  0.6249
 4585SOL    HW114654   0.093   4.981   5.608 -2.3931 -0.4554 -0.4884
 4585SOL    HW214655   0.016   5.112   5.669  1.0447  0.5942  1.9117
 4586SOL     OW14656   0.836   5.240   5.935 -0.1252 -0.0693  0.2910
 4586SOL    HW114657   0.819   5.322   5.990  1.3842 -0.7117  1.8201
 4586SOL    HW214658   0.829   5.159   5.994  0.1365 -0.9069 -0.8088
 4587SOL     OW14659   4.973   2.434   0.314  0.3615  0.4610  0.5728
 4587SOL    HW114660   4.895   2.497   0.306  0.7555  0.9695  0.6846
 4587SOL    HW214661   4.969   2.367   0.240 -0.6345 -0.0358  1.0426
 4588SOL     OW14662   0.680   4.557   1.530  0.3421 -0.3325  0.3113
 4588SOL    HW114663   0.615   4.486   1.506  0.5832 -0.2323 -0.6933
 4588SOL    HW214664   0.712   4.602   1.447  3.0934 -1.5967  0.5787
 4589SOL     OW14665   4.839   4.123   6.106  0.5225  0.5230  0.3229
 4589SOL    HW114666   4.890   4.160   6.183  1.1963 -1.5934  0.9486
 4589SOL    HW214667   4.785   4.044   6.135  2.5977 -1.8413 -1.6979
 4590SOL     OW14668   0.770   2.769   1.842 -0.2261 -0.7916 -0.0017
 4590SOL    HW114669   0.818   2.698   1.893  0.3722 -0.5179 -0.1726
 4590SOL    HW214670   0.836   2.831   1.800 -0.5408 -2.5261 -3.4080
 4591SOL     OW14671   7.016   2.500   4.423  0.1371 -0.1177 -0.1673
 4591SOL    HW114672   6.982   2.456   4.339  1.2626 -1.6471  0.1481
 4591SOL    HW214673   6.970   2.460   4.502  0.5829 -0.1507  0.0761
 4592SOL     OW14674   2.803   3.279   1.958  0.1208 -0.0456  0.1622
 4592SOL    HW114675   2.823   3.375   1.977  0.0624  0.0969 -0.5016
 4592SOL    HW214676   2.789   3.230   2.045  2.9681 -0.0809  0.6763
 4593SOL     OW14677   2.724   3.034   0.025  0.0065  0.1740 -0.1478
 4593SOL    HW114678   2.783   2.955   0.008  1.9571  1.3889  0.6101
 4593SOL    HW214679   2.713   3.087  -0.059 -2.8405 -1.7722 -1.1555
 4594SOL     OW14680   3.635   5.880   4.641  0.3790  0.0926  0.2598
 4594SOL    HW114681   3.732   5.865   4.660  0.5750 -1.0847 -1.3939
 4594SOL    HW214682   3.601   5.805   4.583 -1.2972  0.9487  0.0874
 4595SOL     OW14683   0.902   1.378   1.276 -0.1655 -0.0170 -0.2050
 4595SOL    HW114684   0.888   1.449   1.207 -0.0564 -0.7385 -0.9853
 4595SOL    HW214685   0.824   1.377   1.338  0.0227  1.0541  0.0725
 4596SOL     OW14686   0.939   3.331   0.300 -0.6327 -0.1565 -0.4081
 4596SOL    HW114687   0.991   3.251   0.330  0.1091  0.7767  0.8648
 4596SOL    HW214688   0.851   3.301   0.263  0.6385 -1.7494 -2.3826
 4597SOL     OW14689   2.356   2.069   3.440 -0.1691  0.2554  0.3568
 4597SOL    HW114690   2.305   2.000   3.390 -0.3651 -1.2494  2.5165
 4597SOL    HW214691   2.454   2.052   3.431 -0.1789  0.5091 -0.2185
 4598SOL     OW14692   6.827   6.456   5.353 -0.6718  0.3203  0.0191
 4598SOL    HW114693   6.894   6.395   5.311 -0.9754 -0.2569  0.3652
 4598SOL    HW214694   6.765   6.404   5.411 -1.6957  0.7851 -0.6215
 4599SOL     OW14695   2.278   2.148   4.061 -0.0708 -0.0574  0.2103
 4599SOL    HW114696   2.347   2.143   3.989  1.6280  2.3725  1.5159
 4599SOL    HW214697   2.228   2.062   4.066  2.7619 -1.9079 -0.9380
 4600SOL     OW14698   6.401   2.498   2.194  0.2033  0.4449  0.0119
 4600SOL    HW114699   6.359   2.581   2.230  1.2227  0.8182  0.3736
 4600SOL    HW214700   6.456   2.521   2.114  0.4786  0.1161  0.1064
 4601SOL     OW14701   0.417   0.419   6.406 -0.2132 -0.0173 -0.5263
 4601SOL    HW114702   0.435   0.324   6.379 -3.9111 -0.9020 -0.4589
 4601SOL    HW214703   0.426   0.427   6.506  1.9919  0.2691 -0.7041
 4602SOL     OW14704   1.773   3.573   0.786 -0.1843  0.1924  0.4916
 4602SOL    HW114705   1.684   3.538   0.814 -0.8749  1.5338  0.0016
 4602SOL    HW214706   1.797   3.653   0.841 -0.8579  1.9238 -1.6227
 4603SOL     OW14707   3.187   0.848   3.121  0.0609  0.2049  0.5624
 4603SOL    HW114708   3.171   0.881   3.028  0.9636 -1.8636 -0.3772
 4603SOL    HW214709   3.101   0.815   3.160  0.1290 -1.3681 -0.5666
 4604SOL     OW14710   2.668   0.352   6.998  0.8806 -0.3810 -0.7127
 4604SOL    HW114711   2.710   0.432   7.041 -0.3403 -0.8682  1.5361
 4604SOL    HW214712   2.740   0.292   6.962  1.8568  1.0857 -1.2804
 4605SOL     OW14713   2.756   6.241   0.281  0.2507 -0.0922 -0.4380
 4605SOL    HW114714   2.739   6.146   0.309  0.7495  0.2552  1.1451
 4605SOL    HW214715   2.679   6.298   0.310 -0.2304 -0.0640 -1.7366
 4606SOL     OW14716   4.585   2.744   1.794 -0.1611 -0.7037  0.5126
 4606SOL    HW114717   4.574   2.841   1.815 -1.2894 -0.5856 -0.5172
 4606SOL    HW214718   4.584   2.691   1.880 -0.7865  0.0886  1.0102
 4607SOL     OW14719   1.796   0.734   1.957 -0.2172 -0.5613 -0.1562
 4607SOL    HW114720   1.749   0.775   2.035  0.7139 -1.3943  0.8853
 4607SOL    HW214721   1.729   0.705   1.889 -1.0518  0.1602  0.3345
 4608SOL     OW14722   3.149   2.785   6.177  0.4508  0.6027  0.1073
 4608SOL    HW114723   3.125   2.832   6.262  2.1233  1.0946  0.3489
 4608SOL    HW214724   3.125   2.843   6.099 -1.5189 -0.0434  0.1766
 4609SOL     OW14725   0.133   1.929   0.532 -0.2124 -0.0358  0.1560
 4609SOL    HW114726   0.165   1.998   0.468 -0.2146  0.1544  0.3604
 4609SOL    HW214727   0.033   1.936   0.541 -0.3175 -0.6085 -0.4589
 4610SOL     OW14728   1.770   1.358   0.349  0.4120 -0.2258  0.6895
 4610SOL    HW114729   1.690   1.412   0.321  0.2394  0.2210  1.9477
 4610SOL    HW214730   1.849   1.383   0.293 -0.3571 -0.8102 -0.6999
 4611SOL     OW14731   4.068   0.864   3.427  0.0667  0.0404  0.0879
 4611SOL    HW114732   4.012   0.814   3.361  1.8327 -0.5438 -1.0490
 4611SOL    HW214733   4.040   0.960   3.428 -1.3241 -0.3409  0.0075
 4612SOL     OW14734   3.711   0.241   2.370 -0.6859  0.1494 -0.5713
 4612SOL    HW114735   3.626   0.293   2.375  0.1239  1.6496 -1.5709
 4612SOL    HW214736   3.695   0.155   2.321 -1.8156 -0.0654  0.1362
 4613SOL     OW14737   4.469   6.544   4.823 -0.0028 -0.4369 -0.5801
 4613SOL    HW114738   4.503   6.557   4.916 -0.8348  1.7682 -0.5202
 4613SOL    HW214739   4.370   6.535   4.825 -0.2353  1.3538 -1.3106
 4614SOL     OW14740   6.269   4.131   6.529 -0.4031  0.0519  0.1744
 4614SOL    HW114741   6.279   4.222   6.569 -1.5787  0.5837 -0.6709
 4614SOL    HW214742   6.312   4.129   6.439  0.1435 -0.4241  0.4381
 4615SOL     OW14743   4.790   0.898   4.740  0.1149  0.0982 -0.1367
 4615SOL    HW114744   4.837   0.810   4.738 -0.2881 -0.1774  1.1065
 4615SOL    HW214745   4.818   0.949   4.822 -0.3820  0.6966 -0.3287
 4616SOL     OW14746   2.978   4.846   6.433 -0.9543  0.0863  0.0253
 4616SOL    HW114747   2.895   4.868   6.485 -1.8706 -1.1417 -0.8489
 4616SOL    HW214748   2.990   4.747   6.431  1.1097  0.2587  0.9417
 4617SOL     OW14749   5.767   3.995   4.252  0.5733 -0.9744 -0.0430
 4617SOL    HW114750   5.772   3.903   4.290  0.6616 -1.3985 -1.0467
 4617SOL    HW214751   5.798   3.994   4.157 -0.3736 -0.0988 -0.3894
 4618SOL     OW14752   1.952   3.071   1.205 -0.3897 -0.1618  0.0082
 4618SOL    HW114753   2.027   3.094   1.267 -1.5328  0.7621  1.0963
 4618SOL    HW214754   1.866   3.105   1.243 -1.1193  0.5388 -2.1297
 4619SOL     OW14755   4.996   1.407   5.444 -0.0455  1.2584  0.0578
 4619SOL    HW114756   4.988   1.307   5.441  1.6390  1.0592  1.1908
 4619SOL    HW214757   5.050   1.438   5.366 -0.4513  1.2956 -0.2160
 4620SOL     OW14758   0.761   2.962   6.378  0.0995 -0.3504  0.2721
 4620SOL    HW114759   0.835   3.029   6.379 -0.1934  0.0805 -2.0593
 4620SOL    HW214760   0.800   2.869   6.375  0.5024 -0.2542  1.7297
 4621SOL     OW14761   0.688   1.796   0.294 -0.7914 -0.6031 -0.1983
 4621SOL    HW114762   0.694   1.894   0.312 -1.0715 -0.4861 -0.7291
 4621SOL    HW214763   0.626   1.754   0.361 -0.3184 -0.5013  0.3156
 4622SOL     OW14764   0.760   3.844   1.642  0.3363 -0.4640 -0.2758
 4622SOL    HW114765   0.854   3.853   1.609  0.2826 -0.0086 -0.3210
 4622SOL    HW214766   0.704   3.800   1.572  0.5747 -0.9944 -0.1372
 4623SOL     OW14767   1.260   6.380   2.781 -0.5796 -0.1192 -0.2920
 4623SOL    HW114768   1.344   6.421   2.817  0.0374 -0.4251 -1.3136
 4623SOL    HW214769   1.214   6.446   2.722 -0.1988 -0.4758 -1.0059
 4624SOL     OW14770   2.335   6.176   2.674  0.2774  0.2201  0.6777
 4624SOL    HW114771   2.311   6.179   2.577  1.4322  0.9621  0.3800
 4624SOL    HW214772   2.257   6.144   2.728 -0.0030 -1.3520 -0.6077
 4625SOL     OW14773   3.793   0.212   3.542 -0.3513  0.1673 -0.5782
 4625SOL    HW114774   3.746   0.281   3.487  1.9438  0.4826 -2.2922
 4625SOL    HW214775   3.804   0.247   3.635 -1.1469  1.1679 -0.8361
 4626SOL     OW14776   0.095   2.550   0.670 -0.3081  0.2234 -0.0366
 4626SOL    HW114777   0.013   2.494   0.661 -0.2117  0.0490  0.1621
 4626SOL    HW214778   0.121   2.556   0.767  0.7963 -1.0101 -0.2261
 4627SOL     OW14779   1.114   0.303   2.879  0.1193 -0.9192 -0.1744
 4627SOL    HW114780   1.169   0.374   2.924 -0.1488 -0.7160 -0.1681
 4627SOL    HW214781   1.017   0.327   2.885  0.1235 -0.4656 -1.5807
 4628SOL     OW14782   3.861   1.398   4.129  0.3674 -0.1703  0.3227
 4628SOL    HW114783   3.845   1.496   4.116  0.3291 -0.1846  0.2596
 4628SOL    HW214784   3.959   1.381   4.133  0.4713 -0.3830 -1.8143
 4629SOL     OW14785   1.169   0.413   1.406 -0.5232  0.1684 -0.2397
 4629SOL    HW114786   1.267   0.425   1.419 -0.5712  2.5855 -1.5239
 4629SOL    HW214787   1.152   0.359   1.323 -0.2739  0.5976 -0.5718
 4630SOL     OW14788   2.338   5.442   2.388  0.2658 -0.4216  0.0207
 4630SOL    HW114789   2.374   5.393   2.467 -1.1033 -0.2605  0.7841
 4630SOL    HW214790   2.406   5.443   2.315  2.6887  1.7441  2.1191
 4631SOL     OW14791   6.717   3.045   0.136  0.0081  0.4024  0.1148
 4631SOL    HW114792   6.686   3.105   0.210  0.1188 -0.8643  1.2271
 4631SOL    HW214793   6.817   3.036   0.141  0.0165  0.3273 -0.1935
 4632SOL     OW14794   5.661   1.470   1.272 -0.1602  0.3129 -0.0654
 4632SOL    HW114795   5.686   1.536   1.343  1.0406  1.8014 -1.7920
 4632SOL    HW214796   5.689   1.504   1.182  1.2606 -2.9175 -1.0054
 4633SOL     OW14797   1.696   4.972   2.042 -0.6860 -0.0671 -0.3178
 4633SOL    HW114798   1.599   4.993   2.031 -0.2275  1.9535 -0.9203
 4633SOL    HW214799   1.708   4.873   2.052 -2.7106 -0.4370 -1.1206
 4634SOL     OW14800   0.102   3.459   2.372  0.7589  0.1215  0.2177
 4634SOL    HW114801   0.054   3.547   2.368  1.3886  0.4169 -1.8947
 4634SOL    HW214802   0.066   3.405   2.448 -1.4259  1.1703  0.0015
 4635SOL     OW14803   3.858   1.809   4.850 -0.1140 -0.5967  0.1056
 4635SOL    HW114804   3.907   1.799   4.936 -0.5320 -0.5638  0.3521
 4635SOL    HW214805   3.905   1.757   4.778  1.5404  1.2403 -0.2001
 4636SOL     OW14806   3.284   1.624   0.194  0.7988 -0.1819  0.3185
 4636SOL    HW114807   3.353   1.621   0.120 -0.7174 -2.9730 -1.1497
 4636SOL    HW214808   3.196   1.595   0.158 -0.3503 -0.2193  2.9584
 4637SOL     OW14809   0.832   5.186   0.093  0.4342 -0.4130 -0.0267
 4637SOL    HW114810   0.827   5.236   0.180 -0.9446  0.2206 -0.4324
 4637SOL    HW214811   0.828   5.088   0.111  0.3459 -0.2930  0.6388
 4638SOL     OW14812   1.975   3.425   1.998  0.0124 -0.0791  0.2159
 4638SOL    HW114813   1.981   3.336   2.043 -1.7416 -1.1706 -1.5849
 4638SOL    HW214814   2.063   3.447   1.956 -0.0765 -1.9838 -1.0801
 4639SOL     OW14815   0.171   3.077   3.264  0.2081 -0.5438 -0.0700
 4639SOL    HW114816   0.193   3.000   3.204 -1.8149 -1.3979  0.2180
 4639SOL    HW214817   0.112   3.141   3.215  1.0384  0.3288  0.0364
 4640SOL     OW14818   1.862   0.646   0.378  0.0529  0.1469 -0.2739
 4640SOL    HW114819   1.773   0.644   0.333  0.4486 -0.6647 -1.0434
 4640SOL    HW214820   1.871   0.566   0.437 -0.4275  1.1528  1.2329
 4641SOL     OW14821   6.200   5.270   5.661 -0.0038 -0.3025 -0.2564
 4641SOL    HW114822   6.237   5.202   5.725  1.4274 -1.5546 -2.3024
 4641SOL    HW214823   6.265   5.345   5.652 -1.2567  1.0770  1.4378
 4642SOL     OW14824   2.364   4.675   3.446 -0.4903 -0.0985  0.1039
 4642SOL    HW114825   2.411   4.604   3.499 -0.2419 -0.6677 -0.8522
 4642SOL    HW214826   2.393   4.669   3.351 -1.3874  0.5162 -0.2135
 4643SOL     OW14827   0.830   3.158   6.682  0.3638  0.0165  0.4894
 4643SOL    HW114828   0.759   3.106   6.636  1.2854 -1.7836  0.9829
 4643SOL    HW214829   0.795   3.248   6.709 -1.2287 -0.2627 -0.5803
 4644SOL     OW14830   6.348   5.038   4.664  0.4213  0.1372 -0.5401
 4644SOL    HW114831   6.433   5.031   4.612 -0.2549 -0.4241 -1.6084
 4644SOL    HW214832   6.277   4.983   4.619 -0.6207  0.9336  0.0978
 4645SOL     OW14833   4.833   0.995   5.703 -0.2771  0.4469 -0.0233
 4645SOL    HW114834   4.854   0.957   5.613 -1.3834  0.6334 -0.3839
 4645SOL    HW214835   4.832   1.095   5.698  0.5222  0.4805  0.4097
 4646SOL     OW14836   1.473   6.372   2.010  0.1370  0.1688  0.5779
 4646SOL    HW114837   1.521   6.414   1.934  0.5820 -1.5561 -0.1327
 4646SOL    HW214838   1.446   6.442   2.076  1.7874  1.4100 -0.0238
 4647SOL     OW14839   4.906   3.117   3.868 -0.0857  0.1744  0.4866
 4647SOL    HW114840   4.916   3.066   3.783  0.5239  0.3790  0.4339
 4647SOL    HW214841   4.996   3.144   3.902 -0.2167 -1.0564  1.9122
 4648SOL     OW14842   5.341   1.018   3.012 -0.3924  0.2132  0.2441
 4648SOL    HW114843   5.388   1.095   3.055  0.7340 -1.1486  1.5521
 4648SOL    HW214844   5.278   0.976   3.078 -0.2360 -0.6029 -0.1103
 4649SOL     OW14845   0.489   1.128   2.588  0.1583  0.2376 -0.0836
 4649SOL    HW114846   0.406   1.095   2.543 -1.6135  1.7603  1.8804
 4649SOL    HW214847   0.489   1.228   2.591  0.7173  0.2422  2.2156
 4650SOL     OW14848   5.446   1.909   4.090 -0.2242  0.2659  0.0282
 4650SOL    HW114849   5.518   1.864   4.037  0.7984  1.9663 -0.1015
 4650SOL    HW214850   5.421   1.995   4.045 -0.6613  0.8491  1.3450
 4651SOL     OW14851   3.089   2.965   5.958  0.1321 -0.4110 -0.2099
 4651SOL    HW114852   3.081   2.902   5.881  1.3095  0.1121 -0.7897
 4651SOL    HW214853   3.138   3.047   5.928 -1.3596  0.7864  0.5262
 4652SOL     OW14854   0.879   4.649   1.678 -0.5890 -0.1778  0.3160
 4652SOL    HW114855   0.832   4.730   1.714 -0.3892 -0.6163  1.6095
 4652SOL    HW214856   0.814   4.592   1.627 -0.7453  0.7493 -0.5489
 4653SOL     OW14857   4.862   0.431   6.360  0.2037  0.0181 -0.6182
 4653SOL    HW114858   4.921   0.395   6.289  1.3238 -2.3664  1.3634
 4653SOL    HW214859   4.917   0.474   6.432 -0.6030 -0.4664  0.3229
 4654SOL     OW14860   5.482   4.916   4.666 -0.2337 -0.2770 -0.3111
 4654SOL    HW114861   5.548   4.941   4.596 -0.2714 -3.1137 -1.4736
 4654SOL    HW214862   5.399   4.972   4.655  0.0888 -0.0779 -2.0033
 4655SOL     OW14863   0.404   5.816   0.013 -0.5234 -0.0261 -0.3358
 4655SOL    HW114864   0.420   5.801   0.111 -1.7409 -0.6800 -0.2164
 4655SOL    HW214865   0.470   5.762  -0.040  0.0416  0.2100  0.1086
 4656SOL     OW14866   1.199   2.455   2.890  0.5614  0.4739 -0.5501
 4656SOL    HW114867   1.227   2.375   2.942  2.0118  1.2220 -0.1230
 4656SOL    HW214868   1.198   2.536   2.949 -1.3415  0.7328 -0.8570
 4657SOL     OW14869   6.497   2.022   0.742  0.2619 -1.0566  0.5604
 4657SOL    HW114870   6.522   2.115   0.771 -0.7616 -0.8128  0.6895
 4657SOL    HW214871   6.578   1.976   0.706  1.0459 -0.5195  1.5629
 4658SOL     OW14872   6.168   3.084   2.004  0.1718 -0.2392 -0.5417
 4658SOL    HW114873   6.262   3.049   2.007 -0.1533 -1.0594  1.4588
 4658SOL    HW214874   6.104   3.010   2.025 -0.9732  0.2699 -2.0444
 4659SOL     OW14875   1.100   3.899   5.657  0.4846 -0.3193 -0.2192
 4659SOL    HW114876   1.181   3.847   5.683  0.1505 -1.0403 -0.5575
 4659SOL    HW214877   1.033   3.895   5.731 -0.0360 -1.4566 -0.7151
 4660SOL     OW14878   1.088   0.537   5.350  0.0251 -0.3460  0.8814
 4660SOL    HW114879   1.027   0.459   5.366 -0.2576  0.1546  2.4328
 4660SOL    HW214880   1.063   0.611   5.412 -0.4452  1.4374 -1.2955
 4661SOL     OW14881   5.867   6.277   1.392  0.0504 -0.0944  0.4140
 4661SOL    HW114882   5.791   6.340   1.375 -0.6430 -1.1540 -0.5262
 4661SOL    HW214883   5.875   6.213   1.316  1.5868 -0.3218  0.7357
 4662SOL     OW14884   2.437   5.662   3.653  0.4821 -0.0843 -0.8379
 4662SOL    HW114885   2.378   5.743   3.661 -1.0986 -1.2326 -0.4452
 4662SOL    HW214886   2.439   5.631   3.558  0.1271 -0.2665 -0.7880
 4663SOL     OW14887   5.715   6.054   1.506  0.0438 -0.1476  0.4096
 4663SOL    HW114888   5.776   6.133   1.501 -0.3195  0.0669 -1.0468
 4663SOL    HW214889   5.624   6.079   1.475  0.2772 -1.4403 -1.5004
 4664SOL     OW14890   0.061   5.723   0.905  0.0169  0.2223  0.4293
 4664SOL    HW114891   0.116   5.702   0.985  2.1022 -1.4000 -1.3132
 4664SOL    HW214892  -0.024   5.670   0.908  0.2771 -0.1694  1.3354
 4665SOL     OW14893   2.277   5.812   3.201  0.1301  0.1581  0.8059
 4665SOL    HW114894   2.198   5.819   3.263  0.1593 -0.2460  0.8880
 4665SOL    HW214895   2.322   5.902   3.195 -0.8908  0.6380  0.0083
 4666SOL     OW14896   1.964   0.021   4.856 -0.0989  0.4845  0.6162
 4666SOL    HW114897   2.015  -0.008   4.937 -0.2581  0.4807  0.7155
 4666SOL    HW214898   2.001   0.107   4.821  1.5237 -0.6747 -0.7025
 4667SOL     OW14899   1.381   2.864   4.046  0.4031 -0.5336  0.7723
 4667SOL    HW114900   1.327   2.788   4.010  0.7972 -0.1709 -0.6764
 4667SOL    HW214901   1.442   2.831   4.117  0.6948 -1.6295  0.0419
 4668SOL     OW14902   6.949   5.998   6.340 -0.5673  0.1514 -0.6716
 4668SOL    HW114903   6.896   5.952   6.412  0.5076  1.0538  0.7504
 4668SOL    HW214904   6.993   6.080   6.377 -0.0035  0.6775 -2.3850
 4669SOL     OW14905   4.002   3.871   6.020 -0.0287  0.2272  0.1509
 4669SOL    HW114906   4.095   3.846   5.995  0.0945 -0.2502  1.0191
 4669SOL    HW214907   3.976   3.956   5.975  0.1421 -0.5997 -1.5890
 4670SOL     OW14908   6.399   0.005   3.025 -0.3720 -0.9928  0.5843
 4670SOL    HW114909   6.306   0.041   3.033 -0.5049 -1.3141  0.4876
 4670SOL    HW214910   6.423  -0.045   3.108  0.1720  0.1422  1.1317
 4671SOL     OW14911   6.208   0.368   4.966  0.1519  0.1001 -0.6141
 4671SOL    HW114912   6.212   0.378   5.066  0.0041 -0.0088 -0.5976
 4671SOL    HW214913   6.301   0.360   4.930  0.3091  1.6572 -0.6428
 4672SOL     OW14914   1.969   0.962   3.493  0.2742  0.3489  0.2294
 4672SOL    HW114915   2.059   0.932   3.463  1.5424  3.4975  0.5323
 4672SOL    HW214916   1.969   0.980   3.591 -1.0513 -0.5974  0.4462
 4673SOL     OW14917   6.820   5.274   4.365  0.0525 -0.3681  0.3099
 4673SOL    HW114918   6.745   5.338   4.349  0.6187  0.0102 -1.0800
 4673SOL    HW214919   6.799   5.186   4.322 -0.4305 -0.9194  1.6340
 4674SOL     OW14920   5.049   0.999   6.132 -0.4034 -0.3610 -0.3007
 4674SOL    HW114921   5.114   0.976   6.204  0.9595  0.8090 -1.1056
 4674SOL    HW214922   5.036   1.098   6.128 -2.3609 -0.5618 -0.0991
 4675SOL     OW14923   6.851   3.876   3.842 -0.2525 -0.0064  0.3293
 4675SOL    HW114924   6.763   3.910   3.809 -1.7818  0.5063  4.4017
 4675SOL    HW214925   6.846   3.776   3.853  1.2214 -0.6268 -3.1973
 4676SOL     OW14926   0.480   6.055   0.219  0.6196  0.0314  0.3938
 4676SOL    HW114927   0.446   6.042   0.126 -0.9386 -1.5778  1.1122
 4676SOL    HW214928   0.481   5.966   0.266 -2.8314  1.2747  3.2117
 4677SOL     OW14929   3.661   2.086   2.931 -0.4635 -0.3110 -0.4916
 4677SOL    HW114930   3.718   2.077   3.013 -0.1450  0.8973 -0.5615
 4677SOL    HW214931   3.568   2.109   2.958 -0.2248  0.6833 -0.4676
 4678SOL     OW14932   0.541   3.047   5.880 -0.3754  0.0388 -0.0969
 4678SOL    HW114933   0.459   2.990   5.869 -1.0025  0.9966 -0.4972
 4678SOL    HW214934   0.544   3.115   5.807 -0.4106  1.4577  1.1873
 4679SOL     OW14935   3.789   6.955   4.455  0.0317  0.1307 -0.4809
 4679SOL    HW114936   3.732   6.998   4.525  1.0278 -0.1337  0.5148
 4679SOL    HW214937   3.774   6.856   4.456 -2.0037  0.3234 -2.5389
 4680SOL     OW14938   4.281   6.877   2.121  0.1224  0.1515 -0.0637
 4680SOL    HW114939   4.331   6.832   2.046 -2.2348 -0.6573 -1.2517
 4680SOL    HW214940   4.322   6.966   2.140  0.6147  0.5223 -2.5456
 4681SOL     OW14941   0.355   6.186   2.984  0.1753  0.2449 -0.4215
 4681SOL    HW114942   0.367   6.223   3.076  0.6689  1.4562 -0.9494
 4681SOL    HW214943   0.427   6.222   2.924  0.1511 -0.9064 -1.1772
 4682SOL     OW14944   5.233   2.861   4.685  0.2272 -0.3832  0.3085
 4682SOL    HW114945   5.200   2.894   4.597  1.9806 -1.4201 -0.8079
 4682SOL    HW214946   5.159   2.815   4.734 -1.0435  1.1317 -0.1078
 4683SOL     OW14947   2.104   0.726   1.589  0.4173 -0.5683  0.5985
 4683SOL    HW114948   2.049   0.643   1.595 -0.1279 -0.2775 -0.2169
 4683SOL    HW214949   2.100   0.776   1.676 -0.0344 -0.9056  0.7712
 4684SOL     OW14950   3.629   0.902   5.913  0.0537 -0.0688 -0.6425
 4684SOL    HW114951   3.681   0.974   5.960  1.4082 -0.4771 -1.4434
 4684SOL    HW214952   3.613   0.826   5.976  0.4277  0.0730 -0.3710
 4685SOL     OW14953   5.654   3.427   3.114  0.7805 -0.1559 -0.3081
 4685SOL    HW114954   5.560   3.405   3.088  1.0550 -1.1937 -0.4338
 4685SOL    HW214955   5.678   3.377   3.197  1.1176  0.3808 -0.0720
 4686SOL     OW14956   6.250   5.161   4.898  0.3110 -0.1078 -0.0087
 4686SOL    HW114957   6.320   5.233   4.901  1.1656 -0.9381  0.9494
 4686SOL    HW214958   6.278   5.091   4.832  1.2869 -1.2958  1.6134
 4687SOL     OW14959   6.618   5.474   6.975 -0.1236 -0.0581 -0.2252
 4687SOL    HW114960   6.685   5.430   7.035  2.0022  3.2915  0.1194
 4687SOL    HW214961   6.546   5.516   7.030 -1.8387 -2.4378 -0.5217
 4688SOL     OW14962   3.941   4.864   4.701 -0.0660 -0.6132 -0.0656
 4688SOL    HW114963   3.843   4.874   4.681 -0.3190 -0.2618  1.2160
 4688SOL    HW214964   3.953   4.860   4.801  1.4109  1.2850 -0.1353
 4689SOL     OW14965   5.983   1.129   4.513 -0.2969 -0.3564 -0.2215
 4689SOL    HW114966   5.960   1.221   4.481 -1.3346  0.1227  1.7622
 4689SOL    HW214967   5.938   1.061   4.455 -2.0191  0.4632  0.0991
 4690SOL     OW14968   6.903   2.774   0.865  0.0844 -0.0996  0.4898
 4690SOL    HW114969   6.850   2.694   0.892  0.4492 -0.9784 -1.2435
 4690SOL    HW214970   6.909   2.777   0.765  2.6054  0.4157  0.5977
 4691SOL     OW14971   0.516   2.683   4.034 -0.4726  0.6039 -0.0979
 4691SOL    HW114972   0.433   2.685   4.090 -0.7582  0.3831 -0.5155
 4691SOL    HW214973   0.580   2.753   4.068  0.1354 -0.7474  1.6918
 4692SOL     OW14974   5.051   1.931   3.294 -0.1788  0.1761 -0.1538
 4692SOL    HW114975   5.073   1.962   3.202 -2.4925  1.1553 -0.4347
 4692SOL    HW214976   4.993   1.850   3.289 -0.7734  0.5562  0.4096
 4693SOL     OW14977   5.046   0.422   2.420 -0.1807 -0.5881  0.4218
 4693SOL    HW114978   5.066   0.513   2.455  0.4295 -1.0185  1.2018
 4693SOL    HW214979   5.024   0.428   2.322 -0.5861  0.4410  0.5687
 4694SOL     OW14980   1.030   2.926   4.776 -0.3963 -0.2949  0.3722
 4694SOL    HW114981   1.079   2.953   4.858 -0.4337  0.4012  0.1800
 4694SOL    HW214982   1.058   2.986   4.700 -1.8961  0.4578  0.3786
 4695SOL     OW14983   5.079   2.847   5.980 -0.9164  0.5705 -0.8368
 4695SOL    HW114984   5.088   2.880   5.886 -1.6725 -0.0567 -1.1421
 4695SOL    HW214985   4.988   2.871   6.014 -0.6523  0.7699 -0.2691
 4696SOL     OW14986   5.459   4.264   2.124 -0.1227  0.5321 -0.5896
 4696SOL    HW114987   5.377   4.315   2.098  0.5132  0.6517 -2.5196
 4696SOL    HW214988   5.540   4.322   2.110  0.5563 -0.7020 -2.0939
 4697SOL     OW14989   0.884   3.362   2.020 -0.7849  0.1837 -0.0990
 4697SOL    HW114990   0.972   3.408   2.004 -0.4047 -0.5672 -0.2117
 4697SOL    HW214991   0.831   3.362   1.936 -0.4319 -0.3184 -0.3238
 4698SOL     OW14992   0.904   4.202   6.303 -0.2428 -0.2320  0.3551
 4698SOL    HW114993   0.938   4.284   6.350  1.0411 -0.3763 -0.2820
 4698SOL    HW214994   0.869   4.137   6.371  0.4904  0.0477  1.0166
 4699SOL     OW14995   0.328   3.458   3.411 -0.3852 -0.5456 -0.1195
 4699SOL    HW114996   0.345   3.489   3.504 -1.5364 -1.5776  0.4793
 4699SOL    HW214997   0.383   3.376   3.392 -0.2310 -0.3984 -0.3101
 4700SOL     OW14998   3.099   5.406   5.281  0.7539  0.4361  0.1641
 4700SOL    HW114999   3.190   5.380   5.315  0.3244  0.1292  1.1166
 4700SOL    HW215000   3.030   5.382   5.349 -0.1047  0.1815 -0.7752
 4701SOL     OW15001   6.155   3.262   0.326  0.1584 -0.1333 -0.1389
 4701SOL    HW115002   6.091   3.253   0.249 -1.0923 -0.6945  0.9294
 4701SOL    HW215003   6.115   3.221   0.407  2.2411 -1.2640  0.3962
 4702SOL     OW15004   5.886   0.274   3.428  0.0748 -0.3579 -0.3541
 4702SOL    HW115005   5.903   0.335   3.506 -3.0919  0.6057 -0.2516
 4702SOL    HW215006   5.959   0.283   3.361  0.6349  2.2056  0.5041
 4703SOL     OW15007   2.041   3.793   2.663  0.3129  0.0820 -0.0362
 4703SOL    HW115008   2.018   3.699   2.639 -0.4342  0.7374 -2.0722
 4703SOL    HW215009   1.974   3.827   2.730  0.4875 -0.7549  0.5790
 4704SOL     OW15010   0.462   0.929   1.029 -0.2796 -0.0365 -0.4440
 4704SOL    HW115011   0.408   0.887   1.102 -1.4073  0.5755 -0.9065
 4704SOL    HW215012   0.558   0.902   1.039 -0.2420  0.7046  1.7638
 4705SOL     OW15013   2.963   3.966   0.172  0.6739  0.2847 -0.4602
 4705SOL    HW115014   3.062   3.961   0.160  0.8376  1.7764  0.0527
 4705SOL    HW215015   2.940   3.946   0.267  0.0583 -4.0584 -1.3283
 4706SOL     OW15016   3.309   1.340   3.879  0.1709 -0.0917 -0.4436
 4706SOL    HW115017   3.297   1.293   3.791  0.5028  1.5505 -1.4183
 4706SOL    HW215018   3.404   1.373   3.885  0.4021 -0.9389  0.9483
 4707SOL     OW15019   2.277   4.235   2.998  0.7063 -0.0293  0.2570
 4707SOL    HW115020   2.193   4.191   3.030  0.4280  0.4876  0.2319
 4707SOL    HW215021   2.331   4.168   2.946 -0.3856  0.0401 -1.0137
 4708SOL     OW15022   0.284   0.953   3.098  0.0680 -0.4553 -0.1022
 4708SOL    HW115023   0.242   0.896   3.027  1.4418 -1.7012  0.0398
 4708SOL    HW215024   0.258   1.049   3.084  0.8013 -0.5646 -2.6911
 4709SOL     OW15025   3.126   0.977   2.894  0.0034  0.1057  0.2433
 4709SOL    HW115026   3.042   1.018   2.857  0.1898  0.5889  0.3517
 4709SOL    HW215027   3.203   1.002   2.836  0.0608 -0.4508  0.0676
 4710SOL     OW15028   1.897   3.034   3.562  0.4924 -0.3172 -0.4094
 4710SOL    HW115029   1.849   2.946   3.566  1.4814 -0.8507  0.3491
 4710SOL    HW215030   1.846   3.103   3.613  1.0787 -1.1813  1.4584
 4711SOL     OW15031   0.373   3.301   5.287  0.8688 -0.6138  0.5331
 4711SOL    HW115032   0.407   3.222   5.236  0.8945  0.9231 -2.0376
 4711SOL    HW215033   0.397   3.385   5.237 -0.9029  0.9042  2.0992
 4712SOL     OW15034   5.856   6.914   0.113  0.4600  0.8047  0.6234
 4712SOL    HW115035   5.893   6.963   0.192  0.4340 -0.1076  1.2170
 4712SOL    HW215036   5.830   6.821   0.140  2.1657 -0.1695 -0.8523
 4713SOL     OW15037   3.771   2.893   5.458 -0.4924 -0.0803 -0.0015
 4713SOL    HW115038   3.862   2.916   5.421 -0.5018  0.2858  0.2020
 4713SOL    HW215039   3.727   2.976   5.492 -0.1873 -0.5090  1.5177
 4714SOL     OW15040   6.298   2.394   2.412 -0.1569  0.3848  0.1329
 4714SOL    HW115041   6.327   2.417   2.319  0.7096 -0.1712  0.2492
 4714SOL    HW215042   6.340   2.458   2.477 -0.5042  0.5766  0.1690
 4715SOL     OW15043   0.692   2.733   5.853 -0.3052  0.2975 -0.1648
 4715SOL    HW115044   0.791   2.733   5.835 -0.0222 -1.0591  1.1989
 4715SOL    HW215045   0.644   2.774   5.775  1.2706  0.3137 -1.1712
 4716SOL     OW15046   1.681   2.533   1.438 -0.2276  0.8288 -0.6881
 4716SOL    HW115047   1.672   2.554   1.341  0.5526  2.2253 -0.4824
 4716SOL    HW215048   1.773   2.498   1.456  0.0997  1.8831 -0.2495
 4717SOL     OW15049   5.188   2.974   0.655 -0.0508 -0.1134  0.0016
 4717SOL    HW115050   5.166   2.997   0.750 -0.7521  0.5592 -0.3144
 4717SOL    HW215051   5.172   3.054   0.597 -0.8893 -0.8996 -0.8763
 4718SOL     OW15052   2.127   6.431   2.284  0.2670  0.3470  0.0449
 4718SOL    HW115053   2.220   6.462   2.265  0.3701  0.0637  0.0760
 4718SOL    HW215054   2.130   6.337   2.319  0.0446  0.6635  0.9445
 4719SOL     OW15055   5.366   5.396   3.551 -0.0519 -0.0885  0.0737
 4719SOL    HW115056   5.404   5.488   3.555  0.4800 -0.2144 -1.4796
 4719SOL    HW215057   5.430   5.331   3.591  0.6925 -0.0778 -1.0387
 4720SOL     OW15058   2.553   1.455   6.525  0.5582  0.5390 -0.2912
 4720SOL    HW115059   2.521   1.492   6.437  1.3606 -0.2751 -0.9438
 4720SOL    HW215060   2.567   1.356   6.516  0.9917  0.5054  0.6585
 4721SOL     OW15061   5.321   6.212   4.344 -0.3749 -0.5149  0.2763
 4721SOL    HW115062   5.329   6.127   4.292 -1.3991 -0.6112  0.2499
 4721SOL    HW215063   5.225   6.241   4.345 -0.1935  0.0807  1.1780
 4722SOL     OW15064   3.796   6.391   1.772 -0.2298  0.8330 -0.2762
 4722SOL    HW115065   3.710   6.405   1.725 -0.5920 -1.3477 -0.3337
 4722SOL    HW215066   3.782   6.404   1.871 -0.2743  1.8551 -0.4024
 4723SOL     OW15067   5.843   3.881   3.230  0.1126  0.3845  0.0402
 4723SOL    HW115068   5.750   3.853   3.253  0.4913 -0.7929  0.2200
 4723SOL    HW215069   5.844   3.919   3.137 -0.4307 -0.2649 -0.2428
 4724SOL     OW15070   6.000   6.969   3.724  0.3457  0.3523  0.2574
 4724SOL    HW115071   6.010   6.870   3.715 -0.4295  0.2890  0.0125
 4724SOL    HW215072   5.931   7.001   3.659  0.6227  1.0587  0.3108
 4725SOL     OW15073   3.277   3.163   3.000  0.1004 -0.0179  0.6268
 4725SOL    HW115074   3.274   3.200   3.092 -1.0110 -0.9514  0.9934
 4725SOL    HW215075   3.183   3.148   2.967  0.4908 -0.7062 -0.2249
 4726SOL     OW15076   6.375   6.594   5.688 -0.1806 -0.4486 -0.0315
 4726SOL    HW115077   6.424   6.534   5.751 -0.5645 -0.9233 -0.1744
 4726SOL    HW215078   6.346   6.541   5.608  0.7388  0.2456 -0.8538
 4727SOL     OW15079   5.802   3.983   5.177 -0.2013 -0.0258 -0.0085
 4727SOL    HW115080   5.841   4.032   5.099 -0.2146 -0.6826 -0.4375
 4727SOL    HW215081   5.743   4.045   5.229 -0.8098  0.2321 -0.9645
 4728SOL     OW15082   2.261   2.924   3.454 -0.4027  0.1341  0.2668
 4728SOL    HW115083   2.340   2.865   3.465  1.1484  1.8876 -0.8215
 4728SOL    HW215084   2.252   2.950   3.357 -2.2013  0.1338  0.3996
 4729SOL     OW15085   2.690   6.817   4.665 -0.1600 -0.0894 -0.0305
 4729SOL    HW115086   2.769   6.763   4.638  0.2379  0.4838 -0.0168
 4729SOL    HW215087   2.611   6.792   4.609 -0.4161 -1.8406  1.0265
 4730SOL     OW15088   4.897   4.884   5.086  0.5635  0.0937 -0.4437
 4730SOL    HW115089   4.925   4.822   5.013 -0.0197 -1.0788  0.3055
 4730SOL    HW215090   4.913   4.979   5.057  0.1811 -0.3341 -2.1606
 4731SOL     OW15091   4.912   2.312   2.062  0.7753 -0.3970  0.8670
 4731SOL    HW115092   4.821   2.353   2.060  0.8381 -0.2585 -1.0568
 4731SOL    HW215093   4.976   2.376   2.105  0.0626 -0.3065  1.8122
 4732SOL     OW15094   3.261   6.624   5.212 -0.0974  0.0067  0.3514
 4732SOL    HW115095   3.295   6.551   5.270  1.9139  0.6615  0.0713
 4732SOL    HW215096   3.290   6.713   5.249 -3.0541  0.7858  1.0709
 4733SOL     OW15097   3.413   6.734   0.440 -0.4684 -0.5881  0.1233
 4733SOL    HW115098   3.357   6.722   0.358 -1.9634 -1.5058  1.2263
 4733SOL    HW215099   3.506   6.703   0.422 -0.6605 -0.3710 -1.3335
 4734SOL     OW15100   4.831   2.495   3.435 -0.4140  0.0991 -0.3540
 4734SOL    HW115101   4.741   2.491   3.390 -0.6458  1.1940 -0.0353
 4734SOL    HW215102   4.844   2.414   3.491 -1.6973  0.4286  0.4654
 4735SOL     OW15103   6.087   5.743   4.594  0.4273 -0.1099 -0.0416
 4735SOL    HW115104   6.187   5.736   4.600  0.4462 -0.9806 -1.1498
 4735SOL    HW215105   6.063   5.811   4.525  0.2010  2.8717  2.7087
 4736SOL     OW15106   3.983   1.677   4.663 -0.3019  0.3704  0.9015
 4736SOL    HW115107   4.018   1.614   4.594  1.4359  0.5559  1.5682
 4736SOL    HW215108   4.018   1.769   4.645 -2.7842  1.2128 -0.0446
 4737SOL     OW15109   6.805   1.383   6.527 -0.5588 -0.7347 -0.7749
 4737SOL    HW115110   6.814   1.395   6.428  0.3257 -0.3971 -0.6601
 4737SOL    HW215111   6.717   1.339   6.547 -0.4695 -1.4032 -1.7557
 4738SOL     OW15112   0.704   6.145   0.561  0.4831 -0.0848 -0.5354
 4738SOL    HW115113   0.660   6.227   0.527  0.4540 -1.1470 -3.3555
 4738SOL    HW215114   0.798   6.167   0.590 -0.8478  1.6758  3.0806
 4739SOL     OW15115   5.548   0.291   3.126  0.0102  0.2401  0.0286
 4739SOL    HW115116   5.586   0.216   3.181  0.0179 -0.4495 -0.9062
 4739SOL    HW215117   5.623   0.345   3.087  0.1267 -1.5429 -2.4006
 4740SOL     OW15118   5.613   0.498   1.046 -0.6952 -0.5707  0.3545
 4740SOL    HW115119   5.519   0.466   1.040 -0.9080  0.2538 -1.2243
 4740SOL    HW215120   5.614   0.598   1.056 -0.0126 -0.3998 -1.1158
 4741SOL     OW15121   1.256   1.967   2.050  0.0305 -0.2829  0.3010
 4741SOL    HW115122   1.201   1.933   1.973 -0.5884 -1.5397  1.2581
 4741SOL    HW215123   1.338   2.011   2.015 -0.8906  0.3823 -1.1208
 4742SOL     OW15124   1.890   2.209   0.522 -0.1468 -0.0938  0.6768
 4742SOL    HW115125   1.953   2.207   0.600  0.5380  0.4666  0.1443
 4742SOL    HW215126   1.901   2.295   0.472 -0.0853 -0.7394 -0.4508
 4743SOL     OW15127   1.745   2.429   3.908  0.5375  0.1899  0.0099
 4743SOL    HW115128   1.756   2.472   3.818 -2.0124  0.4444 -0.2643
 4743SOL    HW215129   1.790   2.485   3.978  4.7650 -1.2606 -1.2476
 4744SOL     OW15130   4.750   0.493   2.364 -0.6473 -0.8907 -0.2878
 4744SOL    HW115131   4.781   0.533   2.450  0.9384  3.0634 -2.4242
 4744SOL    HW215132   4.829   0.466   2.309 -1.2376  1.2554 -2.3635
 4745SOL     OW15133   4.172   6.578   6.518  0.1284  0.7128 -0.6057
 4745SOL    HW115134   4.196   6.659   6.571  0.3003  0.0565  0.3605
 4745SOL    HW215135   4.161   6.500   6.580 -0.6419  0.1294 -1.4465
 4746SOL     OW15136   0.269   1.316   6.069 -0.1433 -0.1704 -0.5002
 4746SOL    HW115137   0.344   1.292   6.131 -0.3625 -1.0018 -0.5443
 4746SOL    HW215138   0.305   1.327   5.976  0.0715  0.3670 -0.3558
 4747SOL     OW15139   1.754   4.776   5.690 -0.5639  0.4325  0.0174
 4747SOL    HW115140   1.727   4.817   5.603 -1.2628 -0.1430 -0.0489
 4747SOL    HW215141   1.778   4.848   5.755 -1.1143  0.9170 -0.3065
 4748SOL     OW15142   1.509   6.613   2.490 -0.2052 -0.0231  0.2819
 4748SOL    HW115143   1.433   6.552   2.469 -0.6715  0.7132 -0.1863
 4748SOL    HW215144   1.477   6.707   2.496  0.4614  0.1650  1.2627
 4749SOL     OW15145   4.715   1.015   2.047  0.6978 -0.3420 -0.4435
 4749SOL    HW115146   4.712   1.057   2.138  0.6526 -1.2123 -0.0362
 4749SOL    HW215147   4.767   1.073   1.985  0.7651  0.2400  0.1480
 4750SOL     OW15148   4.831   5.645   6.062 -0.3618  0.2145 -0.0170
 4750SOL    HW115149   4.823   5.561   6.116 -1.6336  0.4502  0.1966
 4750SOL    HW215150   4.810   5.625   5.967 -3.3726  0.7061  0.4360
 4751SOL     OW15151   1.881   5.174   4.747 -0.4240 -0.2722  0.2723
 4751SOL    HW115152   1.894   5.078   4.770  1.1788  0.1558  1.2984
 4751SOL    HW215153   1.968   5.213   4.715 -0.4954  1.3547  1.9330
 4752SOL     OW15154   1.586   3.089   5.739  0.9371 -0.1470 -0.1694
 4752SOL    HW115155   1.651   3.136   5.679  0.8168  1.0495  0.6044
 4752SOL    HW215156   1.637   3.042   5.812  0.9515  1.0197  0.5980
 4753SOL     OW15157   1.415   3.875   3.422  0.0889 -0.4066 -0.3204
 4753SOL    HW115158   1.369   3.849   3.507 -0.5382  1.3685 -0.0754
 4753SOL    HW215159   1.357   3.938   3.370  0.9258 -0.6085 -1.5505
 4754SOL     OW15160   3.873   1.254   0.864  0.1562  0.3877 -0.3230
 4754SOL    HW115161   3.793   1.223   0.915  0.3810  0.6036  0.1721
 4754SOL    HW215162   3.894   1.348   0.888 -0.3931  0.8736 -1.6617
 4755SOL     OW15163   1.497   5.316   0.176  0.5170 -0.8528  0.4397
 4755SOL    HW115164   1.589   5.314   0.138  0.3754  1.1129 -0.1352
 4755SOL    HW215165   1.491   5.253   0.253  2.0012 -1.8350 -0.1927
 4756SOL     OW15166   6.265   6.041   0.503  0.0225  0.2140  0.5587
 4756SOL    HW115167   6.244   5.948   0.533 -1.2564  0.3229  0.0698
 4756SOL    HW215168   6.306   6.039   0.412 -0.2749  0.1421  0.4264
 4757SOL     OW15169   0.552   0.145   1.352 -0.0732  0.4587  0.1306
 4757SOL    HW115170   0.639   0.104   1.324 -0.2605  0.4625 -0.4753
 4757SOL    HW215171   0.476   0.089   1.318 -0.3175 -0.3668  1.9083
 4758SOL     OW15172   0.335   2.185   3.135  0.2435 -0.5978 -0.2727
 4758SOL    HW115173   0.394   2.135   3.072 -0.3472  1.1488 -2.2996
 4758SOL    HW215174   0.299   2.267   3.091 -0.4434  0.5853  2.2568
 4759SOL     OW15175   0.981   2.096   3.764 -0.3447 -0.2543  0.6044
 4759SOL    HW115176   0.897   2.046   3.783  0.7860 -1.4538  2.8664
 4759SOL    HW215177   0.999   2.161   3.838 -0.8532  2.3441 -1.4127
 4760SOL     OW15178   1.175   5.978   3.555  0.3947 -0.3327  0.1807
 4760SOL    HW115179   1.261   5.954   3.509 -0.8643 -0.8282 -2.0730
 4760SOL    HW215180   1.114   6.022   3.489 -0.7091  0.9725  2.0088
 4761SOL     OW15181   6.659   6.744   4.003  0.2799 -0.5251 -0.2226
 4761SOL    HW115182   6.660   6.840   4.032  0.8327 -0.9774  1.3265
 4761SOL    HW215183   6.598   6.734   3.925 -0.3058  0.9736  0.0120
 4762SOL     OW15184   6.086   4.154   3.896  0.2098  0.1637  0.1212
 4762SOL    HW115185   6.035   4.158   3.810  0.6113 -0.0630 -0.1294
 4762SOL    HW215186   6.136   4.240   3.909  1.2893 -0.3516 -0.5818
 4763SOL     OW15187   2.306   4.912   1.898  0.3963 -0.5468 -0.5387
 4763SOL    HW115188   2.300   4.949   1.991  1.2972 -1.9142  0.1072
 4763SOL    HW215189   2.389   4.945   1.855 -0.4470  0.7775 -1.2135
 4764SOL     OW15190   3.448   5.958   6.523 -0.6091  0.5613  0.1175
 4764SOL    HW115191   3.530   5.937   6.576 -0.2495  1.5716 -0.0136
 4764SOL    HW215192   3.380   6.000   6.583 -0.2487  1.5906 -0.1699
 4765SOL     OW15193   5.853   0.867   5.796  0.3094 -0.0485  0.0121
 4765SOL    HW115194   5.846   0.966   5.782 -1.9009 -0.2170 -0.3739
 4765SOL    HW215195   5.796   0.820   5.730  0.5540 -1.5631  0.8354
 4766SOL     OW15196   6.143   5.854   7.017  0.3552 -0.4383 -0.1118
 4766SOL    HW115197   6.220   5.794   7.037  1.0332 -0.2568 -1.9411
 4766SOL    HW215198   6.114   5.840   6.922  0.3829  1.9039 -0.5265
 4767SOL     OW15199   2.001   4.546   1.963  0.1766  0.0335  0.2052
 4767SOL    HW115200   2.052   4.489   2.028  0.1705 -1.0567 -0.7100
 4767SOL    HW215201   2.066   4.601   1.910  0.3683 -0.6875 -0.3374
 4768SOL     OW15202   4.279   0.153   6.830 -0.2542 -0.7233  0.2573
 4768SOL    HW115203   4.372   0.119   6.841  0.4089  1.2956  1.2477
 4768SOL    HW215204   4.278   0.252   6.838 -2.3379 -0.5785 -1.0074
 4769SOL     OW15205   3.159   3.004   3.570  0.7024 -0.0096 -0.0776
 4769SOL    HW115206   3.166   3.093   3.525  1.6348 -0.0834 -0.0937
 4769SOL    HW215207   3.110   2.941   3.509  0.5356  0.3338 -0.3067
 4770SOL     OW15208   2.225   3.064   3.217  0.4303  0.1092  0.5845
 4770SOL    HW115209   2.287   3.136   3.187 -0.7424  1.9591  2.3905
 4770SOL    HW215210   2.141   3.104   3.252 -0.7513 -2.2171  0.5976
 4771SOL     OW15211   3.983   3.226   6.866 -0.2392 -0.2097 -0.3715
 4771SOL    HW115212   3.961   3.319   6.836  0.0671  0.4924  1.4400
 4771SOL    HW215213   3.904   3.166   6.851 -1.5473  1.0459  1.1233
 4772SOL     OW15214   5.156   2.110   1.655  0.8088 -0.3875 -0.5437
 4772SOL    HW115215   5.137   2.182   1.722  2.0644  0.5017 -1.1015
 4772SOL    HW215216   5.204   2.035   1.700 -0.0595 -0.6719 -0.0651
 4773SOL     OW15217   4.751   3.732   5.365 -0.3652 -0.2039  0.2880
 4773SOL    HW115218   4.720   3.818   5.326  2.2206  0.5373 -0.3677
 4773SOL    HW215219   4.747   3.660   5.296  1.2417  0.3779 -0.4601
 4774SOL     OW15220   2.421   0.642   0.911  0.5010  0.2703  0.2627
 4774SOL    HW115221   2.516   0.652   0.881  0.2251  3.1111 -0.0076
 4774SOL    HW215222   2.418   0.633   1.010  1.0708  0.4353  0.3017
 4775SOL     OW15223   3.586   2.477   0.377 -0.6352  0.1405  0.1188
 4775SOL    HW115224   3.633   2.394   0.346  0.9223  1.5174 -1.3983
 4775SOL    HW215225   3.487   2.463   0.369 -0.3810 -1.1636 -1.3234
 4776SOL     OW15226   1.332   5.657   6.224  0.4887 -0.2719 -0.3893
 4776SOL    HW115227   1.423   5.696   6.236  0.4985 -0.6259  0.8235
 4776SOL    HW215228   1.331   5.598   6.143  0.1265  3.1793 -3.1123
 4777SOL     OW15229   4.872   3.980   1.273 -0.3048 -0.5363  0.3290
 4777SOL    HW115230   4.840   4.023   1.188 -0.9722  0.2546  0.9535
 4777SOL    HW215231   4.870   3.881   1.264 -2.2840 -0.5247  0.0594
 4778SOL     OW15232   0.704   0.004   4.633 -0.0066  0.1659  0.4308
 4778SOL    HW115233   0.636   0.035   4.700  1.9593 -2.0801  3.7466
 4778SOL    HW215234   0.795   0.036   4.660  0.6606  1.3058 -2.7202
 4779SOL     OW15235   4.148   6.382   1.020  0.4696 -0.6687 -0.1425
 4779SOL    HW115236   4.061   6.342   0.991 -0.1522 -0.4921  1.3848
 4779SOL    HW215237   4.158   6.373   1.119  3.7036 -3.6334 -0.5511
 4780SOL     OW15238   4.936   0.896   3.050  0.4181  0.2538  0.0999
 4780SOL    HW115239   5.012   0.920   3.109  0.3004  2.0549 -0.4186
 4780SOL    HW215240   4.852   0.939   3.084  0.6497  2.8173 -2.2220
 4781SOL     OW15241   0.882   0.333   5.033  0.0044 -0.1396 -0.2388
 4781SOL    HW115242   0.790   0.368   5.014  0.5208  0.6091 -1.4487
 4781SOL    HW215243   0.874   0.246   5.082 -1.3224  0.5754  0.9098
 4782SOL     OW15244   1.232   4.687   5.171 -0.0482 -0.5684 -0.6482
 4782SOL    HW115245   1.272   4.761   5.226  0.6529 -0.4948 -1.2337
 4782SOL    HW215246   1.139   4.669   5.201  0.5947 -1.1317  1.1719
 4783SOL     OW15247   0.967   4.980   6.370 -0.0656 -0.2376 -0.1877
 4783SOL    HW115248   1.024   5.062   6.378  0.4723 -0.5647 -0.6511
 4783SOL    HW215249   0.899   4.980   6.444 -0.2856  0.7872 -0.3793
 4784SOL     OW15250   4.215   1.510   1.400  0.1759 -0.7675  0.1076
 4784SOL    HW115251   4.218   1.545   1.307  1.2869 -1.4802 -0.1346
 4784SOL    HW215252   4.175   1.580   1.460 -0.7009 -0.3661 -0.9042
 4785SOL     OW15253   4.189   0.032   5.314  0.4625  0.4834 -0.4619
 4785SOL    HW115254   4.256   0.058   5.383 -0.9762  1.3992  0.6674
 4785SOL    HW215255   4.176   0.107   5.249  1.1696 -0.0377 -1.2192
 4786SOL     OW15256   0.599   1.684   4.497  0.2751 -0.2403 -0.2633
 4786SOL    HW115257   0.648   1.768   4.475 -0.6578  0.4996  0.3734
 4786SOL    HW215258   0.655   1.605   4.473  1.7914  0.5621  0.5020
 4787SOL     OW15259   4.425   0.564   0.750  0.3110 -0.1033 -0.2423
 4787SOL    HW115260   4.473   0.483   0.784  0.8564 -0.7424 -2.3984
 4787SOL    HW215261   4.397   0.621   0.828  1.7907 -1.2674  1.2238
 4788SOL     OW15262   4.803   4.131   4.074  0.3961 -0.7284  0.6858
 4788SOL    HW115263   4.787   4.107   4.170  3.2305 -0.5157  1.3194
 4788SOL    HW215264   4.803   4.231   4.065 -2.2844 -0.7414 -0.0912
 4789SOL     OW15265   3.759   4.035   3.927 -0.7253 -0.8574  0.1273
 4789SOL    HW115266   3.824   4.075   3.862 -2.1777  0.0670 -0.8047
 4789SOL    HW215267   3.777   3.937   3.936  0.8665 -0.5969 -0.0037
 4790SOL     OW15268   5.376   0.751   5.262 -0.2151  0.2682  0.0186
 4790SOL    HW115269   5.455   0.692   5.249 -1.0406 -1.4494  2.2275
 4790SOL    HW215270   5.310   0.737   5.188 -0.1248 -1.1555  0.1967
 4791SOL     OW15271   6.082   0.976   3.846 -0.3961  0.1737 -0.6142
 4791SOL    HW115272   6.163   0.982   3.905 -1.4294  0.4865  0.8174
 4791SOL    HW215273   6.000   0.971   3.902 -1.4383  0.5630 -2.0378
 4792SOL     OW15274   6.577   4.063   2.910  0.1430  0.2908 -0.5108
 4792SOL    HW115275   6.605   4.147   2.955 -0.2240  0.2150 -0.1380
 4792SOL    HW215276   6.564   4.080   2.812 -0.6226  0.8359 -0.3208
 4793SOL     OW15277   1.855   0.627   6.963 -0.2213 -0.5510  0.2906
 4793SOL    HW115278   1.887   0.713   6.923 -1.0682  0.0878  0.9390
 4793SOL    HW215279   1.769   0.600   6.918  0.3433 -1.3811 -0.3150
 4794SOL     OW15280   0.444   6.693   6.782  0.2760  0.2604  0.0021
 4794SOL    HW115281   0.384   6.767   6.814 -1.8276 -0.5599 -1.7795
 4794SOL    HW215282   0.409   6.606   6.815  0.1596 -0.2849 -1.4985
 4795SOL     OW15283   3.155   5.285   6.208  0.6351  0.1146  0.0597
 4795SOL    HW115284   3.077   5.347   6.209  0.9882  0.5571  0.1936
 4795SOL    HW215285   3.126   5.195   6.242 -0.0255  0.0176 -0.7201
 4796SOL     OW15286   6.881   6.848   4.445  0.0204  0.6297  0.4483
 4796SOL    HW115287   6.881   6.752   4.419  1.8194  0.7177 -0.0108
 4796SOL    HW215288   6.815   6.863   4.519  1.7839 -1.5563  2.6082
 4797SOL     OW15289   1.657   3.511   3.801 -0.5197  0.4318 -0.7912
 4797SOL    HW115290   1.659   3.531   3.899  0.1346  1.0376 -0.9181
 4797SOL    HW215291   1.751   3.495   3.769 -0.5204  1.9727 -1.6471
 4798SOL     OW15292   5.114   5.511   2.780 -0.1218  0.3025 -0.1820
 4798SOL    HW115293   5.149   5.419   2.797 -2.6704 -0.5792  0.7861
 4798SOL    HW215294   5.141   5.540   2.688  0.4672 -1.5462 -0.6489
 4799SOL     OW15295   5.062   5.107   5.687  0.5586  0.4609 -0.3719
 4799SOL    HW115296   5.049   5.082   5.591  0.5193  0.0739 -0.2686
 4799SOL    HW215297   4.978   5.090   5.738  1.2406 -1.5178  0.1817
 4800SOL     OW15298   0.971   1.874   4.579 -0.0351 -0.1792 -0.5248
 4800SOL    HW115299   0.939   1.894   4.672 -0.0439 -3.3691  0.2902
 4800SOL    HW215300   1.037   1.944   4.551 -0.0558  0.9088  1.8478
 4801SOL     OW15301   3.742   3.562   6.225  0.1892 -0.2234  0.1259
 4801SOL    HW115302   3.760   3.573   6.323  1.0064  0.2549 -0.0679
 4801SOL    HW215303   3.665   3.500   6.212 -0.8268  0.7629  1.1234
 4802SOL     OW15304   6.678   0.684   4.922 -1.0770 -0.1664 -0.0601
 4802SOL    HW115305   6.596   0.645   4.965 -1.3982 -1.2525 -1.5743
 4802SOL    HW215306   6.737   0.610   4.891 -0.7876  0.5758 -1.3279
 4803SOL     OW15307   6.389   1.861   0.981  0.2296 -0.0629  0.3554
 4803SOL    HW115308   6.343   1.788   0.930  1.4626 -0.0555 -0.8107
 4803SOL    HW215309   6.340   1.948   0.967  0.9603  0.0870 -1.4580
 4804SOL     OW15310   2.343   0.348   6.617  0.2868  0.1134 -0.0668
 4804SOL    HW115311   2.408   0.375   6.688 -1.1781  1.1772  0.9267
 4804SOL    HW215312   2.344   0.416   6.544 -0.5628  0.8212  0.5506
 4805SOL     OW15313   3.412   5.571   0.779  0.3599  0.1656  0.0023
 4805SOL    HW115314   3.444   5.663   0.757  1.9864 -0.5404 -0.8216
 4805SOL    HW215315   3.458   5.539   0.862 -0.5898  0.2660  0.5834
 4806SOL     OW15316   5.045   2.720   4.799 -0.1205 -0.0897  0.5497
 4806SOL    HW115317   4.955   2.679   4.785  0.0449 -0.4534  0.5346
 4806SOL    HW215318   5.111   2.649   4.823  0.0295  0.2554  1.1861
 4807SOL     OW15319   4.076   4.462   5.651 -0.0204  0.1319  0.6132
 4807SOL    HW115320   4.110   4.454   5.745  1.0818 -1.9962  0.0931
 4807SOL    HW215321   4.140   4.517   5.598  1.4533 -1.8564  0.2294
 4808SOL     OW15322   1.065   3.893   4.742 -0.3761 -0.4387 -0.1443
 4808SOL    HW115323   1.147   3.920   4.690  0.2049 -0.7494  0.5901
 4808SOL    HW215324   1.039   3.800   4.716  1.6843 -1.7955  2.1584
 4809SOL     OW15325   1.931   4.478   0.815  0.1627  0.1782  1.0860
 4809SOL    HW115326   1.890   4.397   0.858  0.6220 -0.8584 -0.3409
 4809SOL    HW215327   1.860   4.533   0.772  0.0783 -1.1270 -0.5833
 4810SOL     OW15328   0.174   3.186   5.063  0.5181  0.6642 -0.2985
 4810SOL    HW115329   0.109   3.165   4.989 -0.8068 -2.8198  1.6337
 4810SOL    HW215330   0.142   3.266   5.113 -1.1104  0.3459 -0.7662
 4811SOL     OW15331   2.214   0.465   2.171  0.1938 -0.9733 -0.0555
 4811SOL    HW115332   2.115   0.482   2.169  0.3804  1.1515  2.6088
 4811SOL    HW215333   2.263   0.552   2.159  1.7888 -2.0140 -1.4942
 4812SOL     OW15334   3.289   1.543   6.289  0.2472 -0.1004 -0.3870
 4812SOL    HW115335   3.208   1.484   6.286  0.3878 -0.2833 -0.6182
 4812SOL    HW215336   3.316   1.567   6.195 -0.2703  0.9633 -0.2730
 4813SOL     OW15337   4.742   2.393   2.735  0.0002 -0.0573 -0.0774
 4813SOL    HW115338   4.790   2.424   2.653  0.0936 -0.3660 -0.1409
 4813SOL    HW215339   4.753   2.294   2.745  0.1338  0.0043  0.4029
 4814SOL     OW15340   2.882   7.000   2.896  0.2069  0.6672 -0.3003
 4814SOL    HW115341   2.850   7.040   2.811 -0.6033 -0.7947 -0.7239
 4814SOL    HW215342   2.903   6.903   2.882  0.5800  0.5290  1.0269
 4815SOL     OW15343   4.291   0.853   3.607  0.3233 -0.0095  0.0872
 4815SOL    HW115344   4.235   0.870   3.526 -1.0128 -0.0045  0.9886
 4815SOL    HW215345   4.371   0.913   3.605 -0.1207  0.5731 -0.8104
 4816SOL     OW15346   2.491   2.942   5.735 -0.1460 -0.3707  0.4113
 4816SOL    HW115347   2.442   2.906   5.655 -0.4582 -0.8002  0.7918
 4816SOL    HW215348   2.549   2.871   5.773  0.8689  0.1613 -0.0890
 4817SOL     OW15349   4.937   3.250   1.982  0.4108 -0.8580 -0.6612
 4817SOL    HW115350   4.890   3.292   1.904 -0.2645 -1.5272 -0.6210
 4817SOL    HW215351   4.896   3.162   2.003  2.3898 -1.9885 -1.2965
 4818SOL     OW15352   6.812   5.842   2.536  0.0205 -0.3787 -0.2729
 4818SOL    HW115353   6.900   5.888   2.529  0.4724 -1.1056  0.4432
 4818SOL    HW215354   6.749   5.878   2.467  0.7107  0.5077 -0.4528
 4819SOL     OW15355   1.625   1.847   1.887  0.2659  0.6149 -0.3784
 4819SOL    HW115356   1.714   1.873   1.926 -0.6439  1.6655  1.1463
 4819SOL    HW215357   1.628   1.856   1.788  2.4090 -1.2044 -0.5470
 4820SOL     OW15358   2.893   3.377   4.763 -0.6520 -0.2299 -0.0882
 4820SOL    HW115359   2.911   3.449   4.830 -1.5442  0.9961 -1.0993
 4820SOL    HW215360   2.806   3.332   4.784 -1.0609  0.3299 -0.5327
 4821SOL     OW15361   6.194   2.556   4.448 -0.9465  0.0288 -0.0778
 4821SOL    HW115362   6.280   2.605   4.430  1.1373 -2.4522  2.2396
 4821SOL    HW215363   6.163   2.511   4.365  1.7125 -1.4085 -0.4090
 4822SOL     OW15364   4.562   5.986   6.342  0.4540 -0.3698 -0.1850
 4822SOL    HW115365   4.467   5.988   6.373  0.4058  1.0155 -0.3733
 4822SOL    HW215366   4.623   6.006   6.419  0.8207 -3.6757  0.5424
 4823SOL     OW15367   6.030   1.278   5.009  0.4591 -0.4951  0.2710
 4823SOL    HW115368   6.095   1.284   5.086  1.6000 -1.2380 -0.5982
 4823SOL    HW215369   6.052   1.197   4.954 -0.4682 -0.0757 -0.7337
 4824SOL     OW15370   0.092   6.126   5.587  0.2672  0.0754 -0.4352
 4824SOL    HW115371   0.069   6.219   5.617  2.1201 -0.0674  1.6605
 4824SOL    HW215372   0.159   6.130   5.514  0.3866  0.3933 -0.3092
 4825SOL     OW15373   6.185   0.452   2.884 -0.1081  0.0423  0.5459
 4825SOL    HW115374   6.189   0.552   2.880 -1.2558  0.0757 -1.5078
 4825SOL    HW215375   6.266   0.414   2.840 -0.7624  0.1315 -0.7853
 4826SOL     OW15376   0.260   3.242   4.078  0.0197 -0.2187 -0.2016
 4826SOL    HW115377   0.182   3.303   4.095 -0.1096 -0.2939 -0.5198
 4826SOL    HW215378   0.264   3.173   4.150  0.0522  0.0481  0.0555
 4827SOL     OW15379   4.092   1.321   0.516  0.1382 -0.1547  0.6953
 4827SOL    HW115380   4.057   1.409   0.547  0.9135  1.1845 -1.9676
 4827SOL    HW215381   4.169   1.335   0.453  0.4318 -2.7567  0.3380
 4828SOL     OW15382   3.258   6.646   6.666 -0.2482 -0.3495 -0.0422
 4828SOL    HW115383   3.345   6.655   6.618 -1.4069  0.8747 -2.0680
 4828SOL    HW215384   3.274   6.613   6.759  2.1711 -2.4148 -1.0641
 4829SOL     OW15385   5.913   2.442   3.836 -0.2233 -0.0688 -0.1833
 4829SOL    HW115386   5.820   2.458   3.869 -0.4703  1.2309 -1.3925
 4829SOL    HW215387   5.912   2.370   3.766 -0.3780  0.1876 -0.4451
 4830SOL     OW15388   2.322   5.597   2.724  0.7805 -0.4607 -0.1437
 4830SOL    HW115389   2.326   5.613   2.823  0.2893  0.6225 -0.2910
 4830SOL    HW215390   2.361   5.507   2.704  2.1282 -0.1513  0.9039
 4831SOL     OW15391   2.372   0.202   5.188 -0.3741 -0.3121  0.1312
 4831SOL    HW115392   2.442   0.253   5.238  0.0404 -0.1429 -0.6007
 4831SOL    HW215393   2.373   0.230   5.092 -0.0407 -1.7825 -0.3224
 4832SOL     OW15394   5.267   0.618   5.010  0.2685 -0.5978  0.3776
 4832SOL    HW115395   5.346   0.672   4.979  0.0706 -0.6432 -0.2214
 4832SOL    HW215396   5.188   0.679   5.019  0.0811 -0.7548 -0.1600
 4833SOL     OW15397   5.291   6.033   3.227  0.9440 -0.1921  0.1642
 4833SOL    HW115398   5.270   5.973   3.149  0.3781 -0.4988  0.5529
 4833SOL    HW215399   5.385   6.066   3.218  0.2660  1.4106 -1.7247
 4834SOL     OW15400   5.298   6.597   1.374  0.5235  0.7389  0.8455
 4834SOL    HW115401   5.207   6.633   1.393  0.4000  1.5839 -1.1037
 4834SOL    HW215402   5.332   6.549   1.455 -2.1372 -0.6754  1.2598
 4835SOL     OW15403   0.622   2.892   0.467  0.4404  0.2312 -0.0249
 4835SOL    HW115404   0.665   2.804   0.489  0.6271  0.2178 -0.4152
 4835SOL    HW215405   0.531   2.896   0.506  0.8861  0.3569  1.0394
 4836SOL     OW15406   4.888   4.622   3.043  0.0549  0.1642  0.6257
 4836SOL    HW115407   4.793   4.652   3.055  0.2553  0.6255  1.0915
 4836SOL    HW215408   4.896   4.573   2.956 -0.0736  2.3092 -0.6492
 4837SOL     OW15409   1.901   5.596   2.651  0.5866 -0.2370  0.6016
 4837SOL    HW115410   1.891   5.625   2.556  0.0343 -0.7840  0.4826
 4837SOL    HW215411   1.938   5.671   2.705  1.0202  0.0424 -0.0659
 4838SOL     OW15412   2.019   1.416   0.889 -0.7816 -0.0700 -0.5854
 4838SOL    HW115413   2.014   1.435   0.986  0.3512 -0.3580 -0.4538
 4838SOL    HW215414   2.025   1.502   0.838 -0.8038  0.0624 -0.3646
 4839SOL     OW15415   3.994   5.491   5.700  0.9106 -0.1355 -0.9339
 4839SOL    HW115416   3.948   5.530   5.780  0.6387 -0.7435 -0.7898
 4839SOL    HW215417   3.956   5.401   5.681  1.9593 -0.5854 -0.8990
 4840SOL     OW15418   4.701   1.474   3.925  0.2709  0.6301 -0.4543
 4840SOL    HW115419   4.630   1.494   3.857 -0.3617  1.9854  0.5559
 4840SOL    HW215420   4.664   1.413   3.995 -0.0380  1.5470  0.2178
 4841SOL     OW15421   4.957   1.732   2.570 -0.2179 -0.7196 -0.0726
 4841SOL    HW115422   4.860   1.750   2.584  0.4015  1.7694  1.8707
 4841SOL    HW215423   5.006   1.750   2.656  2.2588  0.7773 -1.6695
 4842SOL     OW15424   3.609   1.086   2.729  0.3493 -0.3283  0.2809
 4842SOL    HW115425   3.675   1.027   2.775 -0.9337 -1.9359  0.1799
 4842SOL    HW215426   3.533   1.106   2.792  0.7071  1.1421  0.2682
 4843SOL     OW15427   0.700   2.179   2.626 -0.1582 -0.6856 -0.5760
 4843SOL    HW115428   0.677   2.151   2.719 -0.3127 -0.7764 -0.6408
 4843SOL    HW215429   0.788   2.228   2.626  0.0408 -1.0400 -0.4415
 4844SOL     OW15430   2.722   1.851   1.837 -0.2515 -0.0076 -0.2278
 4844SOL    HW115431   2.645   1.897   1.793 -0.1375 -0.0736 -0.5011
 4844SOL    HW215432   2.807   1.895   1.809 -0.1162 -0.6089 -0.7841
 4845SOL     OW15433   1.299   0.873   4.338 -0.0447 -0.2287 -0.1236
 4845SOL    HW115434   1.227   0.829   4.390 -1.5255  1.1398 -0.9315
 4845SOL    HW215435   1.345   0.941   4.395  0.9789 -1.4287  0.5376
 4846SOL     OW15436   6.789   3.578   6.130  0.2872 -0.1887 -0.2213
 4846SOL    HW115437   6.813   3.659   6.076 -0.1836  1.0395  1.3313
 4846SOL    HW215438   6.694   3.552   6.111  0.0474  0.3861  0.1577
 4847SOL     OW15439   1.313   6.445   2.491 -0.0069  0.0924  0.2060
 4847SOL    HW115440   1.228   6.444   2.543  0.4345  0.6265  0.9446
 4847SOL    HW215441   1.304   6.382   2.413 -1.0678  0.1405  0.2707
 4848SOL     OW15442   6.769   0.053   1.776 -1.1038  0.0950 -0.5722
 4848SOL    HW115443   6.776  -0.013   1.701 -2.1719  0.3358 -0.9037
 4848SOL    HW215444   6.680   0.042   1.821 -0.7881  0.4860  0.1541
 4849SOL     OW15445   1.251   4.939   0.933  0.0841  0.2004  0.0630
 4849SOL    HW115446   1.186   5.015   0.943  0.5896  0.6814 -0.2262
 4849SOL    HW215447   1.344   4.975   0.935  0.3429 -0.4928  0.5274
 4850SOL     OW15448   6.059   3.066   4.866 -0.0800 -0.0203 -0.1049
 4850SOL    HW115449   5.965   3.099   4.854 -0.5947 -1.5894 -0.7467
 4850SOL    HW215450   6.083   3.008   4.788  0.2521 -2.2389  1.5726
 4851SOL     OW15451   4.400   6.577   3.171  0.1600 -0.2458 -0.5553
 4851SOL    HW115452   4.498   6.599   3.164  0.1242 -0.3842 -1.7486
 4851SOL    HW215453   4.369   6.593   3.265  1.0345  1.0053 -0.4521
 4852SOL     OW15454   6.391   0.118   4.619 -0.0676 -0.0198  0.1641
 4852SOL    HW115455   6.384   0.208   4.663  0.5547 -1.0701  2.5827
 4852SOL    HW215456   6.479   0.109   4.574 -0.4893  0.8747 -0.8838
 4853SOL     OW15457   6.974   5.146   6.862 -0.3522  0.5652  0.1984
 4853SOL    HW115458   6.979   5.114   6.957 -0.9337  0.2413  0.1244
 4853SOL    HW215459   7.066   5.145   6.822 -0.4482 -2.0965 -0.1334
 4854SOL     OW15460   1.698   1.259   0.613  0.3935  0.4136  0.4507
 4854SOL    HW115461   1.713   1.314   0.694  1.7737 -0.5437  0.8828
 4854SOL    HW215462   1.728   1.309   0.532  1.5651  0.3343  0.8266
 4855SOL     OW15463   2.321   2.261   2.183  0.0454  0.5291  0.2482
 4855SOL    HW115464   2.376   2.305   2.255 -1.8717  1.7077  1.0721
 4855SOL    HW215465   2.232   2.235   2.221 -0.1542 -0.9608 -1.1512
 4856SOL     OW15466   5.036   5.027   0.599  0.3380 -0.1436  0.1999
 4856SOL    HW115467   5.026   4.934   0.633 -1.1570 -0.5090 -1.1077
 4856SOL    HW215468   5.119   5.033   0.543  0.1507 -0.8595 -0.1736
 4857SOL     OW15469   5.575   2.996   3.696 -0.3605 -0.3934  0.4879
 4857SOL    HW115470   5.488   2.978   3.742  0.5220  0.9809  2.8805
 4857SOL    HW215471   5.594   3.095   3.698  0.9815 -0.5963 -0.5486
 4858SOL     OW15472   1.313   0.821   1.404  1.0278 -0.1780 -1.1829
 4858SOL    HW115473   1.387   0.756   1.422  0.5484 -0.8404 -1.5466
 4858SOL    HW215474   1.346   0.894   1.343  1.5055 -0.2085 -0.9654
 4859SOL     OW15475   1.225   5.508   0.483  0.4461  0.0678  0.1530
 4859SOL    HW115476   1.277   5.515   0.398  0.3099  1.7771  0.1773
 4859SOL    HW215477   1.278   5.548   0.557  0.1107 -0.4269  0.6682
 4860SOL     OW15478   1.028   5.593   1.776  0.5662  0.3635  0.3373
 4860SOL    HW115479   1.043   5.534   1.698  2.3005  1.1984  0.0009
 4860SOL    HW215480   1.021   5.538   1.860  1.8578 -0.3469 -0.0020
 4861SOL     OW15481   3.994   6.935   2.249  0.2972 -0.1749 -0.1977
 4861SOL    HW115482   4.060   7.009   2.254  1.6377 -1.2370 -1.3691
 4861SOL    HW215483   3.997   6.894   2.158 -4.0337  1.5464 -1.3658
 4862SOL     OW15484   3.713   6.252   4.661 -0.2168  0.2292  0.1967
 4862SOL    HW115485   3.681   6.161   4.633 -0.1349  0.1919  0.2256
 4862SOL    HW215486   3.669   6.277   4.747  0.0103  0.0757  0.3591
 4863SOL     OW15487   3.336   3.526   1.723  0.2320  0.1826  0.1711
 4863SOL    HW115488   3.268   3.599   1.727  0.3694  0.3745 -0.6460
 4863SOL    HW215489   3.303   3.455   1.661  0.5470  0.0305  0.1781
 4864SOL     OW15490   2.958   3.913   6.030  0.1096  0.1686  0.0309
 4864SOL    HW115491   3.028   3.898   6.100 -1.0690  0.0385  1.2138
 4864SOL    HW215492   2.884   3.848   6.042  0.1419 -0.2415 -1.7225
 4865SOL     OW15493   4.751   4.265   6.806  0.0055 -0.2853  0.3892
 4865SOL    HW115494   4.809   4.346   6.797  1.1737 -1.1142  0.2688
 4865SOL    HW215495   4.768   4.221   6.894 -3.2322  1.5250  2.1262
 4866SOL     OW15496   6.365   2.215   4.559 -0.0072  0.4423 -0.0812
 4866SOL    HW115497   6.361   2.145   4.487 -1.4222  0.1249  0.2767
 4866SOL    HW215498   6.416   2.179   4.638  1.7999  0.8925 -0.9853
 4867SOL     OW15499   6.961   2.054   2.014  0.5934 -0.0683  0.0278
 4867SOL    HW115500   6.942   2.020   2.106 -1.7028  1.0005  0.0148
 4867SOL    HW215501   6.921   1.992   1.947  0.1651  0.3847 -0.1443
 4868SOL     OW15502   1.272   5.577   4.851  0.2644  0.1590 -0.0381
 4868SOL    HW115503   1.224   5.559   4.765  0.4005 -0.4665  0.0097
 4868SOL    HW215504   1.239   5.514   4.922 -0.0213  0.8354  0.4344
 4869SOL     OW15505   0.550   4.229   0.697 -0.2873 -0.2318  0.0020
 4869SOL    HW115506   0.610   4.150   0.711  0.1792  0.2191  0.5834
 4869SOL    HW215507   0.605   4.308   0.671 -0.8045 -0.2122 -1.0734
 4870SOL     OW15508   4.845   6.653   1.397  0.1061 -0.3341  0.1056
 4870SOL    HW115509   4.859   6.750   1.416  1.0764 -0.5184  0.3940
 4870SOL    HW215510   4.786   6.614   1.467  1.2469 -0.3521  1.0841
 4871SOL     OW15511   1.722   6.861   2.997  0.2974 -0.0859  0.1792
 4871SOL    HW115512   1.792   6.894   3.059  0.8376 -1.7548  0.5053
 4871SOL    HW215513   1.765   6.827   2.913 -0.1854 -0.5191  0.1046
 4872SOL     OW15514   5.910   1.671   0.985 -0.4322  0.3803 -0.1029
 4872SOL    HW115515   5.831   1.609   0.980  0.4295 -0.8126  0.6254
 4872SOL    HW215516   5.951   1.665   1.075  1.0479  0.2715 -0.7532
 4873SOL     OW15517   2.657   2.477   6.450 -0.0382 -0.3240 -0.3035
 4873SOL    HW115518   2.637   2.485   6.548 -0.1626  1.1613 -0.4356
 4873SOL    HW215519   2.748   2.438   6.438  0.3195  0.2673  0.4204
 4874SOL     OW15520   5.014   2.077   2.762 -0.2781 -0.0030 -0.3984
 4874SOL    HW115521   5.096   2.130   2.739  0.0433  0.3730  1.4324
 4874SOL    HW215522   4.936   2.113   2.711  0.6720 -0.3423 -2.1353
 4875SOL     OW15523   5.510   6.989   2.861  0.4831 -0.3729  0.0394
 4875SOL    HW115524   5.464   7.075   2.884 -0.5858 -1.1269  0.8346
 4875SOL    HW215525   5.490   6.921   2.931  0.0628 -1.7266 -1.3334
 4876SOL     OW15526   1.148   1.871   2.570  0.3367 -0.4000  0.5607
 4876SOL    HW115527   1.229   1.829   2.528 -0.1831 -0.8549 -0.0086
 4876SOL    HW215528   1.164   1.883   2.668  0.5417 -1.8738  0.7331
 4877SOL     OW15529   4.420   0.246   1.950  0.0215  0.7025 -0.1842
 4877SOL    HW115530   4.351   0.317   1.961 -0.0114  0.9016 -1.5294
 4877SOL    HW215531   4.486   0.273   1.880  0.8676  0.0539  0.3353
 4878SOL     OW15532   0.361   2.500   4.947 -0.0630 -0.0986  0.0501
 4878SOL    HW115533   0.323   2.584   4.987 -0.8678 -1.0392  1.3619
 4878SOL    HW215534   0.351   2.503   4.848  1.2370  1.9661 -0.0747
 4879SOL     OW15535   2.183   0.315   0.123  0.2095  0.8540 -0.0507
 4879SOL    HW115536   2.118   0.334   0.048  1.2702  0.8003 -1.0096
 4879SOL    HW215537   2.215   0.401   0.161 -1.7202  0.9069  1.6383
 4880SOL     OW15538   4.360   4.585   5.542  0.0407  0.6568 -0.1552
 4880SOL    HW115539   4.413   4.560   5.624 -1.0805  0.4888  0.5394
 4880SOL    HW215540   4.408   4.553   5.461 -0.1650 -1.6700  0.5779
 4881SOL     OW15541   3.091   0.079   2.526  0.8331  0.3933  0.2073
 4881SOL    HW115542   3.012   0.095   2.585  0.5622  2.2191 -0.5587
 4881SOL    HW215543   3.173   0.072   2.582  0.7762  3.3780  0.8758
 4882SOL     OW15544   5.330   2.264   6.004 -0.0044  0.1305  0.4850
 4882SOL    HW115545   5.257   2.332   6.013 -0.4808 -0.2362 -0.4792
 4882SOL    HW215546   5.412   2.307   5.967 -0.6427 -0.0046 -1.1603
 4883SOL     OW15547   4.885   1.561   6.362 -0.6588 -0.2612  0.1148
 4883SOL    HW115548   4.853   1.580   6.455 -0.8848  1.1882 -0.2322
 4883SOL    HW215549   4.807   1.550   6.301 -0.5104 -0.0031 -0.1238
 4884SOL     OW15550   1.329   5.929   5.472 -0.0012  0.3658  0.7899
 4884SOL    HW115551   1.255   5.995   5.461  0.6061  0.9934  0.3657
 4884SOL    HW215552   1.294   5.836   5.460 -1.2014  0.4683  3.0235
 4885SOL     OW15553   6.026   1.456   0.527  0.5989 -0.3662 -0.4155
 4885SOL    HW115554   6.066   1.484   0.614  0.5565  0.6553 -0.7137
 4885SOL    HW215555   6.056   1.518   0.455  0.6763 -1.2313 -1.1517
 4886SOL     OW15556   1.207   0.188   4.962  0.5276  0.6036 -0.0739
 4886SOL    HW115557   1.113   0.218   4.977  0.2497  1.6423 -3.1032
 4886SOL    HW215558   1.267   0.230   5.030 -1.1098  0.0385  1.8306
 4887SOL     OW15559   0.681   4.234   1.589  0.0191 -0.0620 -0.0466
 4887SOL    HW115560   0.770   4.277   1.576  0.9759 -2.0421 -0.4755
 4887SOL    HW215561   0.673   4.204   1.684 -1.6826  3.1118  0.9500
 4888SOL     OW15562   4.522   4.351   0.260  0.2765  0.4930 -0.0312
 4888SOL    HW115563   4.560   4.432   0.305 -0.8924  1.0221  0.0547
 4888SOL    HW215564   4.523   4.274   0.324 -0.4258  0.9707  0.5689
 4889SOL     OW15565   5.882   0.181   3.103 -0.4401 -0.0613  0.1848
 4889SOL    HW115566   5.874   0.210   3.198  0.4547  0.2243  0.1840
 4889SOL    HW215567   5.896   0.083   3.098  0.0235 -0.0039  0.3743
 4890SOL     OW15568   4.827   6.699   2.116 -0.0972  0.2190  0.2166
 4890SOL    HW115569   4.774   6.622   2.150  0.2403  0.9716  2.6568
 4890SOL    HW215570   4.774   6.783   2.123  0.8294  0.7504  1.2090
 4891SOL     OW15571   2.352   6.992   6.021  0.7097  0.2062  0.3659
 4891SOL    HW115572   2.436   7.026   5.980  1.1018 -0.2262  0.8047
 4891SOL    HW215573   2.350   7.015   6.118  1.7465 -2.3606  1.0640
 4892SOL     OW15574   3.118   1.717   5.167 -0.1031 -0.1327  0.3771
 4892SOL    HW115575   3.068   1.803   5.160  2.9144  1.6194 -3.0326
 4892SOL    HW215576   3.206   1.733   5.213  0.9595 -1.0451 -1.2103
 4893SOL     OW15577   0.370   5.134   4.807  0.1822  0.5490 -0.1822
 4893SOL    HW115578   0.295   5.200   4.810  0.1567  0.4985  1.6994
 4893SOL    HW215579   0.356   5.070   4.731 -2.1683  0.0103  0.6080
 4894SOL     OW15580   2.055   3.203   4.130 -0.3025 -0.2173  0.2496
 4894SOL    HW115581   1.956   3.213   4.117  0.0273  2.1893 -1.0311
 4894SOL    HW215582   2.100   3.206   4.041  1.0747  1.0497  0.9503
 4895SOL     OW15583   0.897   6.968   1.005  0.0748  0.2057  0.5051
 4895SOL    HW115584   0.815   6.911   1.012  0.6980 -0.7099  0.5092
 4895SOL    HW215585   0.920   6.981   0.909  1.7798 -2.3278  0.4738
 4896SOL     OW15586   4.644   6.942   1.305 -0.4330  0.3918 -0.4172
 4896SOL    HW115587   4.576   6.885   1.260  0.6242 -1.9065  0.7052
 4896SOL    HW215588   4.627   6.944   1.403  0.4761  0.6839 -0.2493
 4897SOL     OW15589   4.844   0.513   0.439  0.0028 -0.5409  0.2456
 4897SOL    HW115590   4.749   0.511   0.407 -0.1288 -0.8279  0.6466
 4897SOL    HW215591   4.883   0.421   0.433  0.3326 -0.3762 -0.1422
 4898SOL     OW15592   4.969   1.079   2.834  0.2426  0.0655 -0.0844
 4898SOL    HW115593   5.017   1.025   2.765 -1.5922  0.8169 -2.0574
 4898SOL    HW215594   4.963   1.027   2.919  2.0792 -1.1193 -0.6307
 4899SOL     OW15595   0.439   5.970   3.793 -0.2024 -0.7752  0.3747
 4899SOL    HW115596   0.497   6.022   3.855  1.4826 -1.4068 -0.6119
 4899SOL    HW215597   0.347   6.010   3.792  0.3734  0.6518  1.4853
 4900SOL     OW15598   5.523   2.971   3.424  0.1880  0.4176  0.4339
 4900SOL    HW115599   5.524   2.970   3.524  0.8605  0.6173  0.4393
 4900SOL    HW215600   5.565   2.888   3.389  0.6472  0.6900  0.3290
 4901SOL     OW15601   2.804   1.359   6.936  0.4324 -0.4334  0.3317
 4901SOL    HW115602   2.787   1.430   6.868 -0.9362 -0.2636  0.8204
 4901SOL    HW215603   2.787   1.269   6.897 -2.3290 -0.2612  0.9183
 4902SOL     OW15604   0.464   1.402   2.593 -0.6015 -0.2600 -0.0398
 4902SOL    HW115605   0.404   1.417   2.515  0.3221 -1.9702 -1.1635
 4902SOL    HW215606   0.446   1.470   2.664 -1.8052  1.0447 -1.5342
 4903SOL     OW15607   0.645   4.314   1.343 -0.1600  0.6187 -0.0052
 4903SOL    HW115608   0.560   4.366   1.332 -0.8150 -0.5907 -1.0057
 4903SOL    HW215609   0.643   4.266   1.431 -0.2216  1.0853  0.2538
 4904SOL     OW15610   2.921   3.252   2.465 -0.0607  0.0288 -0.1485
 4904SOL    HW115611   2.943   3.170   2.517  1.6392  0.4021 -0.2148
 4904SOL    HW215612   2.900   3.327   2.528 -1.6146 -0.4118 -0.0877
 4905SOL     OW15613   5.063   4.474   3.373 -0.3978 -0.2706 -0.4460
 4905SOL    HW115614   5.077   4.456   3.471 -0.6814 -0.5591 -0.4571
 4905SOL    HW215615   5.149   4.462   3.324 -0.0310  0.8154 -0.0951
 4906SOL     OW15616   2.218   6.756   5.879 -0.2950 -0.1496 -0.5887
 4906SOL    HW115617   2.199   6.781   5.974  0.7255  0.7233 -0.5946
 4906SOL    HW215618   2.175   6.822   5.818  0.0102 -0.0517 -0.6979
 4907SOL     OW15619   6.239   5.021   0.701 -0.2626 -0.0882  0.3826
 4907SOL    HW115620   6.210   4.989   0.791  1.1203  0.2435  0.9777
 4907SOL    HW215621   6.337   5.004   0.690 -0.1020  1.2409 -0.4563
 4908SOL     OW15622   6.576   6.180   1.147  0.4761 -0.0784  0.2597
 4908SOL    HW115623   6.589   6.254   1.213 -2.1380 -1.1770  2.2130
 4908SOL    HW215624   6.528   6.215   1.067  0.6661  0.6341  0.4509
 4909SOL     OW15625   6.254   4.978   0.986  0.3119 -0.3397 -0.3624
 4909SOL    HW115626   6.353   4.973   0.988  0.2753 -0.9685  0.2857
 4909SOL    HW215627   6.216   4.886   0.973 -0.1825 -0.0938 -0.6951
 4910SOL     OW15628   2.920   4.884   6.029  0.2105 -0.1242  0.9866
 4910SOL    HW115629   3.018   4.894   6.011  0.1702  0.2968  0.9948
 4910SOL    HW215630   2.904   4.800   6.080  0.6226  0.0648  1.4304
 4911SOL     OW15631   4.027   1.775   1.335 -0.1668 -0.2046 -0.0198
 4911SOL    HW115632   4.064   1.804   1.247 -2.9133  0.3264 -1.1147
 4911SOL    HW215633   3.981   1.852   1.379 -0.6975 -1.0014  0.8619
 4912SOL     OW15634   3.980   3.663   6.175 -0.3468 -0.1680  0.7343
 4912SOL    HW115635   3.982   3.741   6.113  0.9377 -0.5497  0.2548
 4912SOL    HW215636   3.891   3.619   6.172 -0.8737  0.8919  0.5281
 4913SOL     OW15637   4.893   1.868   2.232  0.3476  0.0786  0.4555
 4913SOL    HW115638   4.837   1.844   2.311 -0.5166  0.5558  0.0045
 4913SOL    HW215639   4.961   1.936   2.259 -0.8621  1.3244  0.5173
 4914SOL     OW15640   5.147   0.657   2.771 -0.1065  0.8435 -0.5975
 4914SOL    HW115641   5.246   0.651   2.762 -0.0701  0.1349  0.2265
 4914SOL    HW215642   5.114   0.736   2.718  1.2512  3.1462  1.7538
 4915SOL     OW15643   4.999   1.972   1.183  0.2700 -0.4719 -0.0512
 4915SOL    HW115644   5.098   1.979   1.191  0.2608  1.4719 -1.1325
 4915SOL    HW215645   4.977   1.905   1.112  0.8166 -0.6386 -0.0721
 4916SOL     OW15646   2.442   3.775   0.784  0.2927 -0.0320 -0.6881
 4916SOL    HW115647   2.408   3.681   0.784  0.4479 -0.0933 -1.1512
 4916SOL    HW215648   2.366   3.838   0.798  0.3481 -0.2721  0.7858
 4917SOL     OW15649   0.551   5.170   5.812 -0.1788  0.4165  0.0161
 4917SOL    HW115650   0.624   5.172   5.743  1.1116 -0.7792  1.2840
 4917SOL    HW215651   0.561   5.250   5.872  0.6330 -0.1719  0.6892
 4918SOL     OW15652   5.937   6.772   5.313 -0.5277  0.2578  0.2937
 4918SOL    HW115653   6.021   6.718   5.304 -0.8625  0.0988 -2.9842
 4918SOL    HW215654   5.947   6.858   5.263 -2.9124 -0.6159 -1.8918
 4919SOL     OW15655   0.002   2.672   4.925  0.1067 -0.0247 -0.0989
 4919SOL    HW115656   0.085   2.712   4.962  0.7384  1.1987 -2.5851
 4919SOL    HW215657   0.018   2.643   4.831 -2.3827  0.6740 -0.8137
 4920SOL     OW15658   5.070   6.087   5.189 -0.0353  0.0274  0.0455
 4920SOL    HW115659   5.080   6.013   5.256  0.6862 -0.2079 -0.3151
 4920SOL    HW215660   5.141   6.079   5.119  0.9851  1.8993  0.8030
 4921SOL     OW15661   6.369   2.413   0.213  0.5228 -0.1268 -0.2954
 4921SOL    HW115662   6.438   2.410   0.140  0.7977  3.1787 -0.3349
 4921SOL    HW215663   6.290   2.466   0.181 -0.3922 -0.6354  1.0497
 4922SOL     OW15664   3.404   6.363   3.403 -0.3379  0.2789  0.0155
 4922SOL    HW115665   3.491   6.376   3.356 -0.4447 -0.0106 -0.2626
 4922SOL    HW215666   3.413   6.290   3.471 -0.2380  0.5627  0.3096
 4923SOL     OW15667   5.958   2.617   0.563 -0.3819 -0.9707  0.0351
 4923SOL    HW115668   6.051   2.653   0.562 -0.8176  0.1970 -0.8347
 4923SOL    HW215669   5.931   2.591   0.470 -0.4678 -2.5935  0.4813
 4924SOL     OW15670   0.717   5.502   5.717  0.2189 -0.1918  0.4431
 4924SOL    HW115671   0.805   5.454   5.722 -0.3994 -1.3232  1.3535
 4924SOL    HW215672   0.710   5.566   5.794 -0.1773 -0.9308  1.0443
 4925SOL     OW15673   6.778   1.863   3.334  0.4936 -0.4857 -0.2388
 4925SOL    HW115674   6.719   1.920   3.277 -1.8818 -2.5927 -0.0966
 4925SOL    HW215675   6.780   1.899   3.427 -1.0096 -0.5964 -0.1414
 4926SOL     OW15676   0.895   1.312   0.637 -0.0476  0.0248 -0.0087
 4926SOL    HW115677   0.989   1.287   0.659 -0.9815 -2.6498  1.4356
 4926SOL    HW215678   0.891   1.410   0.615  2.3695  1.3858  4.3653
 4927SOL     OW15679   5.196   4.393   1.756  0.7000  0.1139 -0.1719
 4927SOL    HW115680   5.256   4.354   1.686  1.4577  1.8054 -0.5280
 4927SOL    HW215681   5.103   4.359   1.744  1.5904 -2.8926  0.6341
 4928SOL     OW15682   2.801   3.482   2.156  0.3909  0.1508 -0.3550
 4928SOL    HW115683   2.859   3.505   2.235  1.9622  0.0572 -1.4437
 4928SOL    HW215684   2.705   3.501   2.179  0.8894  0.8860  1.2876
 4929SOL     OW15685   1.015   5.313   0.542 -0.2825 -0.7983 -0.0177
 4929SOL    HW115686   1.048   5.264   0.623  0.6477 -1.2991 -0.6905
 4929SOL    HW215687   1.084   5.378   0.511  0.6908 -2.7357 -2.1787
 4930SOL     OW15688   6.519   0.140   0.172 -0.6855  0.0541  0.4138
 4930SOL    HW115689   6.509   0.041   0.164 -2.2919 -0.0312  2.5589
 4930SOL    HW215690   6.600   0.162   0.226 -0.4235 -0.0655  0.0775
 4931SOL     OW15691   0.520   3.337   3.111 -0.0031  0.1366 -1.0507
 4931SOL    HW115692   0.597   3.278   3.085  0.9392  0.7526  0.2493
 4931SOL    HW215693   0.470   3.295   3.187  0.0637  0.5231 -0.7906
 4932SOL     OW15694   3.835   5.609   5.915  0.0729 -0.5073  0.1052
 4932SOL    HW115695   3.854   5.598   6.012  1.1430  1.7356  0.1884
 4932SOL    HW215696   3.764   5.679   5.902  1.3847  0.7062 -0.7796
 4933SOL     OW15697   6.879   5.831   5.019 -0.6433 -0.4189 -0.4065
 4933SOL    HW115698   6.851   5.824   4.924  0.3720  0.7325 -0.8224
 4933SOL    HW215699   6.801   5.812   5.079 -1.9296  1.1609 -1.4870
 4934SOL     OW15700   6.030   1.220   1.948  0.1909  0.8618 -0.7261
 4934SOL    HW115701   6.026   1.319   1.941 -0.5411  0.9997  1.0073
 4934SOL    HW215702   6.047   1.194   2.043  0.0767 -0.6804 -1.0971
 4935SOL     OW15703   4.345   5.341   6.667 -0.3189 -0.0978 -0.2881
 4935SOL    HW115704   4.335   5.423   6.611 -0.9888 -0.8638 -1.3159
 4935SOL    HW215705   4.428   5.349   6.723 -0.9701  1.7755  0.5126
 4936SOL     OW15706   4.276   3.797   0.812 -0.3587 -0.3648 -0.6040
 4936SOL    HW115707   4.349   3.729   0.827  2.1354  2.3945  0.8534
 4936SOL    HW215708   4.239   3.825   0.900  1.6627  3.0293 -0.6496
 4937SOL     OW15709   2.300   2.888   1.233 -0.1537 -0.3017  0.0617
 4937SOL    HW115710   2.276   2.971   1.282  1.5938  1.7937 -2.3584
 4937SOL    HW215711   2.367   2.836   1.286 -1.6074 -0.5009  1.8060
 4938SOL     OW15712   6.741   4.575   5.245 -0.2343 -0.5102 -0.0390
 4938SOL    HW115713   6.727   4.585   5.147  3.4755  0.2030 -0.6398
 4938SOL    HW215714   6.811   4.505   5.263 -0.3741 -0.2001  2.0493
 4939SOL     OW15715   3.238   0.396   2.252  0.1888 -0.3743  0.1799
 4939SOL    HW115716   3.216   0.343   2.170 -2.4345 -0.4142  0.8011
 4939SOL    HW215717   3.289   0.339   2.317 -2.2546 -2.1629  0.6839
 4940SOL     OW15718   0.351   6.365   3.451 -0.0599 -0.3156 -0.4123
 4940SOL    HW115719   0.344   6.340   3.547  0.6552 -0.3273 -0.3556
 4940SOL    HW215720   0.427   6.430   3.439 -0.4662  0.0820 -0.8894
 4941SOL     OW15721   0.605   0.004   0.225 -0.4388  0.3581  0.0634
 4941SOL    HW115722   0.700   0.019   0.195 -0.8641  0.1896 -1.4667
 4941SOL    HW215723   0.598  -0.086   0.268 -0.5560 -1.3310 -3.1404
 4942SOL     OW15724   0.634   5.695   4.400  0.5212  0.1247  0.3802
 4942SOL    HW115725   0.624   5.595   4.402  1.0294  0.0934  1.5417
 4942SOL    HW215726   0.543   5.736   4.390  0.3754 -0.4496 -0.9949
 4943SOL     OW15727   3.235   0.490   4.091 -0.5260  0.1443  0.6317
 4943SOL    HW115728   3.268   0.431   4.165 -1.2346  1.1216  1.7507
 4943SOL    HW215729   3.135   0.486   4.086 -0.4405 -2.1510 -2.1938
 4944SOL     OW15730   1.791   4.558   3.008 -0.6249 -0.2971 -0.5998
 4944SOL    HW115731   1.693   4.559   3.031 -0.1149  1.2319  1.9138
 4944SOL    HW215732   1.828   4.651   3.016  0.8888 -0.6824 -2.4333
 4945SOL     OW15733   4.312   6.639   3.432  0.6525 -0.2062  0.6436
 4945SOL    HW115734   4.224   6.686   3.442  0.0005 -1.6430  2.1116
 4945SOL    HW215735   4.383   6.692   3.480  0.8210  1.3854 -1.2318
 4946SOL     OW15736   5.969   1.467   4.820  0.3444  0.2983 -0.3761
 4946SOL    HW115737   5.965   1.393   4.887  1.2983 -0.9928 -1.6819
 4946SOL    HW215738   5.961   1.430   4.727 -2.2278  2.1488 -1.0118
 4947SOL     OW15739   5.674   2.373   1.014 -0.1623  0.0564 -0.0060
 4947SOL    HW115740   5.625   2.385   1.100 -0.6621  0.3092 -0.3238
 4947SOL    HW215741   5.610   2.381   0.938 -0.1446 -2.3263 -0.3435
 4948SOL     OW15742   0.664   2.552   2.458  0.1910  1.0483  0.4140
 4948SOL    HW115743   0.754   2.509   2.450 -0.3488  0.0937 -0.8074
 4948SOL    HW215744   0.641   2.598   2.373 -0.2102  1.8375  0.9391
 4949SOL     OW15745   5.382   4.059   0.075 -0.6694  0.1951  0.2269
 4949SOL    HW115746   5.436   3.981   0.108  0.5728  0.4829 -1.0700
 4949SOL    HW215747   5.287   4.030   0.063 -0.3995 -0.8836  0.5630
 4950SOL     OW15748   1.254   1.310   1.596  0.4366  0.2776 -0.0160
 4950SOL    HW115749   1.171   1.293   1.543  0.5234  0.5679 -0.2451
 4950SOL    HW215750   1.276   1.229   1.651 -0.6138  0.5628  0.8750
 4951SOL     OW15751   5.434   5.846   6.121  0.1545  0.0897  0.4978
 4951SOL    HW115752   5.478   5.836   6.032 -0.1207 -1.5852  0.5100
 4951SOL    HW215753   5.484   5.793   6.189  0.0529  0.9184  1.2451
 4952SOL     OW15754   6.941   5.301   3.585 -0.2497  0.0772  0.5735
 4952SOL    HW115755   6.971   5.216   3.542  1.3022  0.0949  1.5384
 4952SOL    HW215756   6.985   5.379   3.541  0.6893  0.1490  1.5739
 4953SOL     OW15757   4.795   4.685   5.579 -0.6245 -0.0954  0.6172
 4953SOL    HW115758   4.770   4.621   5.507 -0.3413 -0.8585  1.1800
 4953SOL    HW215759   4.830   4.769   5.538 -1.3743 -0.1359 -0.1359
 4954SOL     OW15760   4.355   5.434   2.165  0.2770  0.2518  0.1879
 4954SOL    HW115761   4.395   5.487   2.239 -0.8241  1.4680 -0.0475
 4954SOL    HW215762   4.420   5.428   2.089  0.4461  1.2018  0.2518
 4955SOL     OW15763   7.015   2.078   3.970 -0.9517 -0.0882  0.4966
 4955SOL    HW115764   6.968   1.992   3.949 -1.5856  0.2995  0.3232
 4955SOL    HW215765   7.062   2.069   4.058  1.3396 -1.5682 -0.7707
 4956SOL     OW15766   5.791   5.297   2.517  0.5892 -0.6735  0.1356
 4956SOL    HW115767   5.756   5.232   2.450 -0.2774  0.5830 -0.6655
 4956SOL    HW215768   5.741   5.286   2.603 -0.8844  0.1857 -0.5807
 4957SOL     OW15769   3.598   4.656   6.015  0.7895  0.1586 -0.2071
 4957SOL    HW115770   3.637   4.747   6.030  1.6198 -0.1099 -0.7055
 4957SOL    HW215771   3.632   4.619   5.929 -0.4966 -0.1349 -0.6231
 4958SOL     OW15772   4.745   3.349   6.962  0.5254  0.3828 -0.0322
 4958SOL    HW115773   4.745   3.306   7.052  1.8213 -0.3300 -0.3427
 4958SOL    HW215774   4.674   3.419   6.958 -1.0718 -1.1306  0.7806
 4959SOL     OW15775   6.776   2.326   5.883 -0.0611 -0.4474 -0.3257
 4959SOL    HW115776   6.778   2.343   5.785 -0.3333 -2.0700 -0.6386
 4959SOL    HW215777   6.768   2.413   5.932  1.8410  0.5461 -1.6443
 4960SOL     OW15778   0.681   6.208   4.211 -0.1531 -0.3568 -0.5520
 4960SOL    HW115779   0.761   6.189   4.269  1.8807  0.2694 -2.9587
 4960SOL    HW215780   0.619   6.270   4.260 -0.9420 -3.3945  2.6721
 4961SOL     OW15781   4.981   5.417   6.397 -0.1864  0.2206 -0.4152
 4961SOL    HW115782   4.951   5.325   6.371  0.8817  0.4543 -2.6844
 4961SOL    HW215783   5.076   5.430   6.370 -0.4125  2.1032 -0.3883
 4962SOL     OW15784   3.771   1.555   3.746 -0.4884  0.1248 -0.2864
 4962SOL    HW115785   3.840   1.485   3.762 -1.9853 -1.4216 -0.3190
 4962SOL    HW215786   3.815   1.637   3.710  1.1893 -1.2579 -1.5888
 4963SOL     OW15787   6.278   3.902   0.419  1.2688  0.1906 -0.0830
 4963SOL    HW115788   6.275   3.935   0.325  2.2698  1.0777  0.1727
 4963SOL    HW215789   6.366   3.927   0.460  0.9692 -0.4589  0.9886
 4964SOL     OW15790   4.885   4.851   3.574 -0.4031  0.1350  0.9586
 4964SOL    HW115791   4.896   4.781   3.503 -0.3209  0.6713  0.4298
 4964SOL    HW215792   4.788   4.871   3.587 -0.3516  1.7941 -0.7911
 4965SOL     OW15793   6.602   4.193   4.045 -0.2840 -0.4943  0.6970
 4965SOL    HW115794   6.700   4.192   4.022 -0.1412 -1.1645  1.3120
 4965SOL    HW215795   6.582   4.119   4.109 -1.1926 -0.3342  0.6077
 4966SOL     OW15796   3.007   5.107   1.878  0.1402  0.2297 -0.1854
 4966SOL    HW115797   2.936   5.166   1.914  0.3349  0.4308 -0.1318
 4966SOL    HW215798   3.060   5.156   1.808  0.4860  0.2189  0.0651
 4967SOL     OW15799   0.541   2.349   0.624 -0.1569 -0.5837 -0.5767
 4967SOL    HW115800   0.446   2.370   0.602 -0.4105 -0.7305  0.3173
 4967SOL    HW215801   0.582   2.428   0.671 -0.1677 -0.9112 -0.0062
 4968SOL     OW15802   3.190   1.564   1.716 -0.0956  0.1683 -0.2920
 4968SOL    HW115803   3.158   1.576   1.810 -1.0001 -1.4597 -0.3698
 4968SOL    HW215804   3.283   1.602   1.708  0.1392  0.0141  1.3450
 4969SOL     OW15805   4.003   4.989   1.076 -0.1692  0.6592 -0.2599
 4969SOL    HW115806   3.977   5.066   1.135 -0.3458  0.7602 -0.4664
 4969SOL    HW215807   3.941   4.912   1.093  0.2047  0.4499  0.1742
 4970SOL     OW15808   5.210   6.849   0.949 -0.0847 -0.0586  0.1830
 4970SOL    HW115809   5.195   6.753   0.973 -0.6123 -0.5297 -1.8594
 4970SOL    HW215810   5.123   6.890   0.921  0.0675  1.1527  1.3563
 4971SOL     OW15811   6.048   0.890   2.030 -0.0177  0.0147  0.6358
 4971SOL    HW115812   6.092   0.907   1.942  0.7032  0.0866  1.0027
 4971SOL    HW215813   6.115   0.900   2.104 -0.3993 -0.9538  1.1319
 4972SOL     OW15814   6.848   3.880   3.431  0.2280  0.1977  0.5171
 4972SOL    HW115815   6.756   3.845   3.448  0.6392 -0.2323  2.0586
 4972SOL    HW215816   6.852   3.977   3.455 -0.4776  0.9643 -2.1507
 4973SOL     OW15817   5.981   1.483   1.971 -0.1105 -0.1028 -0.3803
 4973SOL    HW115818   6.060   1.503   2.029 -0.9233  0.6483  0.5062
 4973SOL    HW215819   5.897   1.490   2.025 -0.7433 -1.8107 -1.0669
 4974SOL     OW15820   5.531   4.651   1.425  0.3313  0.4660  0.4300
 4974SOL    HW115821   5.625   4.622   1.445  0.3822 -0.0288 -0.4606
 4974SOL    HW215822   5.523   4.669   1.327 -0.5724  0.2566  0.4609
 4975SOL     OW15823   2.981   5.207   4.919 -0.1734 -0.1704  0.0060
 4975SOL    HW115824   2.937   5.245   4.838 -2.8814 -4.0645 -0.6376
 4975SOL    HW215825   2.924   5.225   4.999  1.6391  2.1848  0.8731
 4976SOL     OW15826   5.366   0.915   0.225 -0.1049  0.1137  0.3626
 4976SOL    HW115827   5.375   0.957   0.316  1.2542 -0.2230  0.4076
 4976SOL    HW215828   5.340   0.985   0.159  0.8565  0.7751  0.6666
 4977SOL     OW15829   5.166   4.322   4.242  0.1339 -0.5388  0.3841
 4977SOL    HW115830   5.220   4.351   4.163  0.0325  1.6786  1.0458
 4977SOL    HW215831   5.227   4.292   4.316  0.4720  1.1121  0.8133
 4978SOL     OW15832   1.514   4.305   4.712  0.2739 -0.0964  0.5823
 4978SOL    HW115833   1.493   4.222   4.762  0.5906  0.9063  2.4457
 4978SOL    HW215834   1.613   4.320   4.712  0.2190  0.2946  0.2617
 4979SOL     OW15835   3.066   6.816   1.166 -0.1568 -0.0986 -0.0053
 4979SOL    HW115836   3.080   6.717   1.160  0.4467 -0.1001  1.2012
 4979SOL    HW215837   3.105   6.859   1.084  1.1614 -0.7106  0.2669
 4980SOL     OW15838   4.060   5.886   1.391 -0.1561 -0.1644 -0.2831
 4980SOL    HW115839   3.978   5.942   1.402  0.2689  0.2789  0.8007
 4980SOL    HW215840   4.047   5.822   1.316 -2.6376 -2.0813  1.6121
 4981SOL     OW15841   5.425   0.159   5.325  0.6127  0.6087 -0.1737
 4981SOL    HW115842   5.374   0.183   5.408  0.3903 -0.4773  0.0249
 4981SOL    HW215843   5.520   0.138   5.349  0.3483 -0.5289 -0.0404
 4982SOL     OW15844   5.327   6.808   6.896  0.3215 -0.1479  0.1939
 4982SOL    HW115845   5.238   6.765   6.910  0.0829 -0.5065 -2.0362
 4982SOL    HW215846   5.386   6.789   6.974 -0.6059 -2.3984  0.4259
 4983SOL     OW15847   3.211   5.722   4.218  0.4642  0.5952 -0.6862
 4983SOL    HW115848   3.264   5.670   4.285  0.2385 -0.5351 -1.3534
 4983SOL    HW215849   3.113   5.711   4.236  0.4217  1.7807 -0.1177
 4984SOL     OW15850   4.416   5.035   1.715  0.4115  0.7965  0.0202
 4984SOL    HW115851   4.446   5.122   1.676  0.4390  0.8819  0.2305
 4984SOL    HW215852   4.316   5.035   1.723  0.2510  0.0620 -1.7478
 4985SOL     OW15853   5.902   6.125   4.924  0.3778 -0.1369  0.0855
 4985SOL    HW115854   5.812   6.121   4.967  0.4772 -0.1868  0.2924
 4985SOL    HW215855   5.903   6.196   4.854  0.7234  1.1227  1.3376
 4986SOL     OW15856   1.574   6.105   2.419  0.3881  0.6323  0.1386
 4986SOL    HW115857   1.546   6.158   2.339 -0.4100  1.5886  1.0277
 4986SOL    HW215858   1.518   6.131   2.498  0.1702 -1.3351  0.6875
 4987SOL     OW15859   4.365   2.756   5.349 -0.9271 -0.1384  0.2837
 4987SOL    HW115860   4.315   2.843   5.337 -0.8781 -0.2353 -0.7181
 4987SOL    HW215861   4.337   2.713   5.435 -0.3023  1.2892  1.2410
 4988SOL     OW15862   6.980   2.501   3.098 -0.8285  0.1814  0.3939
 4988SOL    HW115863   6.973   2.600   3.087  0.5334  0.2916  0.3347
 4988SOL    HW215864   7.030   2.480   3.182 -0.3230 -0.4256 -0.0485
 4989SOL     OW15865   4.374   1.713   1.713  0.5066 -0.5380  0.1601
 4989SOL    HW115866   4.422   1.800   1.729  1.0472 -0.9412  0.8084
 4989SOL    HW215867   4.371   1.661   1.799 -1.8278 -0.1859  0.3387
 4990SOL     OW15868   2.925   2.059   0.761  0.3364  0.3545 -0.3662
 4990SOL    HW115869   2.947   2.152   0.790 -0.0464  0.6339 -0.9487
 4990SOL    HW215870   2.856   2.020   0.822 -0.3554  0.8815 -0.7965
 4991SOL     OW15871   3.968   5.470   6.897 -0.0669  0.4098  0.0222
 4991SOL    HW115872   3.885   5.435   6.940  1.2111  0.5738  2.8443
 4991SOL    HW215873   4.013   5.396   6.848 -1.0716 -0.0737 -0.1997
 4992SOL     OW15874   1.524   2.304   1.497  0.4688  0.2747 -0.3642
 4992SOL    HW115875   1.568   2.394   1.503 -1.9916  1.5013  0.7872
 4992SOL    HW215876   1.463   2.302   1.418  1.5445 -0.9417 -1.2045
 4993SOL     OW15877   2.938   1.274   5.920  0.0242 -0.2894 -0.3047
 4993SOL    HW115878   2.894   1.351   5.967 -1.2591 -0.6437 -0.8829
 4993SOL    HW215879   2.976   1.211   5.989 -1.4513 -0.5829  0.2863
 4994SOL     OW15880   0.388   1.815   5.707 -0.0740 -0.6970  0.1693
 4994SOL    HW115881   0.444   1.760   5.769  2.0042  1.0380 -0.0651
 4994SOL    HW215882   0.335   1.881   5.760  1.0681  0.2286  0.1811
 4995SOL     OW15883   0.520   3.748   2.632  0.5145  0.4919 -0.5010
 4995SOL    HW115884   0.604   3.800   2.617  1.4349 -0.9345 -0.3862
 4995SOL    HW215885   0.456   3.765   2.556  0.1448  2.9492  0.2608
 4996SOL     OW15886   3.248   2.935   4.354 -0.3079 -0.1952  0.1727
 4996SOL    HW115887   3.345   2.954   4.369 -0.2674 -0.3004  0.0454
 4996SOL    HW215888   3.231   2.925   4.256 -0.5400  0.3223  0.1580
 4997SOL     OW15889   4.303   1.848   6.484  0.9443 -0.1420 -0.4134
 4997SOL    HW115890   4.240   1.895   6.423  2.5985 -0.4729 -2.4908
 4997SOL    HW215891   4.320   1.904   6.565 -2.8129 -0.5261  0.8717
 4998SOL     OW15892   0.673   4.649   5.992  0.7080 -0.2286  0.8491
 4998SOL    HW115893   0.746   4.581   5.992  2.4083  1.5003  2.2528
 4998SOL    HW215894   0.693   4.721   6.059 -0.1974  2.4694 -1.5341
 4999SOL     OW15895   4.742   0.782   6.342  0.8457 -0.3325  0.1634
 4999SOL    HW115896   4.832   0.768   6.300  0.7549  0.5713 -0.3420
 4999SOL    HW215897   4.743   0.867   6.394 -0.0338  0.2324 -0.7246
 5000SOL     OW15898   7.000   0.549   3.867  0.3700 -0.1850  0.9262
 5000SOL    HW115899   7.043   0.576   3.953  3.7302  0.0395 -0.6549
 5000SOL    HW215900   6.946   0.625   3.831 -2.3118 -0.7540  3.3891
 5001SOL     OW15901   0.031   3.541   1.778  0.1024  0.0046  0.5385
 5001SOL    HW115902  -0.038   3.560   1.849 -1.1368 -0.2951 -0.5428
 5001SOL    HW215903   0.038   3.442   1.764  0.1371  0.0751  0.0501
 5002SOL     OW15904   1.426   3.676   3.208  0.7097 -0.2407 -0.5523
 5002SOL    HW115905   1.504   3.739   3.204  0.8290 -0.4472 -1.7028
 5002SOL    HW215906   1.350   3.720   3.256  1.2696  0.2464 -0.0965
 5003SOL     OW15907   1.073   2.106   2.189  0.5330  0.4849  0.2420
 5003SOL    HW115908   0.994   2.129   2.132  0.8097  2.4880  0.5891
 5003SOL    HW215909   1.142   2.061   2.132  0.6157  2.0234 -0.9716
 5004SOL     OW15910   1.332   6.784   3.846 -1.2139  0.4648  0.2210
 5004SOL    HW115911   1.311   6.877   3.876 -0.9587  0.2931  0.9606
 5004SOL    HW215912   1.429   6.766   3.861 -1.1446  0.2656 -0.4423
 5005SOL     OW15913   6.170   4.878   4.539  0.1514 -0.2201  0.3096
 5005SOL    HW115914   6.213   4.801   4.492 -0.7018 -1.5603  1.6692
 5005SOL    HW215915   6.132   4.848   4.626  2.0519  2.2457  2.1671
 5006SOL     OW15916   0.034   0.259   4.397  0.3795 -0.3226 -0.1014
 5006SOL    HW115917  -0.024   0.283   4.319  0.0510 -1.0639 -0.0966
 5006SOL    HW215918   0.129   0.279   4.376  0.6518 -2.8306 -1.7169
 5007SOL     OW15919   2.190   2.686   2.307  0.5442  0.3063  0.8028
 5007SOL    HW115920   2.281   2.652   2.330 -0.3578 -2.0340  1.2141
 5007SOL    HW215921   2.126   2.609   2.300 -1.5072  1.8984  0.8968
 5008SOL     OW15922   1.782   1.932   5.267 -0.6005  0.2657  0.3746
 5008SOL    HW115923   1.740   1.910   5.179 -0.0310  0.4267  0.0553
 5008SOL    HW215924   1.881   1.935   5.257 -0.5589  0.9811  0.8612
 5009SOL     OW15925   5.259   4.709   6.035  0.2037 -0.7250 -0.1199
 5009SOL    HW115926   5.289   4.616   6.014  0.0572 -0.9399  0.6137
 5009SOL    HW215927   5.163   4.720   6.008  0.3238 -0.6658 -0.5438
 5010SOL     OW15928   6.314   4.387   0.938 -0.2426 -0.3641 -0.8100
 5010SOL    HW115929   6.278   4.406   1.030 -0.3307  1.2248 -1.1457
 5010SOL    HW215930   6.411   4.362   0.944  0.0030  0.6630 -0.3545
 5011SOL     OW15931   6.611   6.236   6.371 -0.0522  0.0524 -0.0447
 5011SOL    HW115932   6.612   6.335   6.379  0.8420  0.1766 -1.2827
 5011SOL    HW215933   6.664   6.209   6.290  0.8940 -1.4924  1.0293
 5012SOL     OW15934   3.210   6.016   2.628  0.1680  0.3193  0.3186
 5012SOL    HW115935   3.231   5.972   2.541  2.7436  1.6917  0.1392
 5012SOL    HW215936   3.292   6.017   2.685 -0.8702  1.3961  1.8723
 5013SOL     OW15937   3.262   1.607   3.803 -0.2815  0.0706 -0.2119
 5013SOL    HW115938   3.359   1.604   3.776  0.2829  0.7128  1.6334
 5013SOL    HW215939   3.238   1.522   3.849 -0.6879 -0.1912 -0.8892
 5014SOL     OW15940   2.280   0.554   1.438  0.2792  0.5378 -0.1594
 5014SOL    HW115941   2.275   0.462   1.477  0.8789  0.8749  0.7676
 5014SOL    HW215942   2.236   0.619   1.501  1.2057  1.0903 -0.0533
 5015SOL     OW15943   1.227   0.651   1.647 -0.0942  0.2877  0.1549
 5015SOL    HW115944   1.147   0.649   1.586  0.1225  0.8301 -0.1479
 5015SOL    HW215945   1.307   0.618   1.598  0.0818  0.7300  0.1464
 5016SOL     OW15946   6.763   0.932   5.929  0.0297  0.1782  0.1036
 5016SOL    HW115947   6.846   0.897   5.975 -0.8195 -1.3399  0.5529
 5016SOL    HW215948   6.785   0.954   5.834  1.0292  0.0848  0.2950
 5017SOL     OW15949   1.356   4.797   4.740 -0.0517  0.1451  0.7606
 5017SOL    HW115950   1.344   4.884   4.788 -0.0929  0.3368  0.4102
 5017SOL    HW215951   1.341   4.721   4.803 -0.9644  0.3881  0.8614
 5018SOL     OW15952   3.161   4.227   6.915 -0.1520 -0.0559 -0.0230
 5018SOL    HW115953   3.125   4.249   7.005  1.5675  0.6398  0.5428
 5018SOL    HW215954   3.261   4.219   6.920 -0.0402 -0.2033 -1.8175
 5019SOL     OW15955   6.353   2.100   1.830  0.1065  0.3197 -0.3015
 5019SOL    HW115956   6.281   2.149   1.879 -0.0176 -0.9324  0.7949
 5019SOL    HW215957   6.440   2.110   1.878  0.8242  2.1761 -1.8393
 5020SOL     OW15958   0.659   2.067   6.344 -0.0150  0.4589 -0.4170
 5020SOL    HW115959   0.590   1.995   6.352 -0.7506  1.1958  0.0161
 5020SOL    HW215960   0.743   2.029   6.305  0.7442 -1.4066  2.7282
 5021SOL     OW15961   0.785   2.592   6.732  0.3248 -0.6741 -0.5988
 5021SOL    HW115962   0.869   2.585   6.786  0.6490 -0.0251 -1.0037
 5021SOL    HW215963   0.742   2.680   6.750 -0.1779 -0.9370 -0.5221
 5022SOL     OW15964   6.161   4.400   3.975  0.0483 -0.0347 -0.1561
 5022SOL    HW115965   6.101   4.468   4.017  1.2232  1.8100 -1.2996
 5022SOL    HW215966   6.248   4.398   4.024  0.2408 -0.2588 -0.4998
 5023SOL     OW15967   1.406   1.030   4.533 -0.2718 -0.2291 -0.7438
 5023SOL    HW115968   1.386   1.111   4.588 -1.4571 -0.8043 -0.2911
 5023SOL    HW215969   1.455   0.963   4.588 -2.5214 -1.3055  0.0465
 5024SOL     OW15970   1.856   3.643   1.286  0.5190  0.6975  0.1787
 5024SOL    HW115971   1.795   3.688   1.220  2.5017  1.1535 -1.4837
 5024SOL    HW215972   1.843   3.683   1.376 -2.2081  0.1446  0.1185
 5025SOL     OW15973   0.229   4.596   3.110 -0.1680  0.6836 -0.1918
 5025SOL    HW115974   0.249   4.506   3.071  4.1149 -0.0019  2.8470
 5025SOL    HW215975   0.241   4.666   3.040  0.5602 -0.8511 -1.6726
 5026SOL     OW15976   5.418   5.314   0.500  0.0721 -0.5598 -0.3631
 5026SOL    HW115977   5.486   5.286   0.568  0.1817 -2.2150 -1.1018
 5026SOL    HW215978   5.464   5.357   0.422 -0.0051  0.8274  0.3262
 5027SOL     OW15979   3.113   0.623   5.905  0.1824 -0.0012  0.2646
 5027SOL    HW115980   3.053   0.543   5.912  0.2437 -0.0408  0.3392
 5027SOL    HW215981   3.182   0.607   5.834 -0.1668  0.2226 -0.1321
 5028SOL     OW15982   2.696   4.674   2.902  0.4812 -0.2671  0.0710
 5028SOL    HW115983   2.686   4.744   2.832 -0.1127 -0.1420  0.2775
 5028SOL    HW215984   2.623   4.606   2.892 -1.1684  1.0860  2.0965
 5029SOL     OW15985   0.590   5.577   2.151 -0.2275  0.0784 -0.2832
 5029SOL    HW115986   0.524   5.550   2.221 -0.9933 -0.5562 -1.2120
 5029SOL    HW215987   0.669   5.620   2.194 -1.5008  1.4211  0.8206
 5030SOL     OW15988   5.385   2.717   6.757 -0.8964  0.0559  0.2836
 5030SOL    HW115989   5.418   2.627   6.784 -0.9509 -1.5412 -4.0688
 5030SOL    HW215990   5.309   2.744   6.816 -0.3319 -2.3018  2.2679
 5031SOL     OW15991   4.249   0.837   2.836  0.5335  0.3122 -0.1977
 5031SOL    HW115992   4.222   0.790   2.752  1.9296  0.2452 -0.6336
 5031SOL    HW215993   4.321   0.903   2.816  1.4617 -0.2734  1.0694
 5032SOL     OW15994   1.675   0.862   0.044 -0.0361  0.3713 -0.0491
 5032SOL    HW115995   1.652   0.957   0.026  0.0308  0.3707 -0.1390
 5032SOL    HW215996   1.775   0.852   0.046  0.0052 -0.0650 -2.0419
 5033SOL     OW15997   2.938   5.718   6.613 -0.0071 -0.7416 -0.2033
 5033SOL    HW115998   2.852   5.720   6.563 -0.2693 -2.1925  0.1430
 5033SOL    HW215999   3.011   5.686   6.553  0.8390  2.6518 -1.1825
 5034SOL     OW16000   1.217   6.569   6.848 -0.0962 -0.1594 -0.1168
 5034SOL    HW116001   1.180   6.645   6.901  1.1118 -0.4017  1.1472
 5034SOL    HW216002   1.294   6.528   6.898 -1.6307 -3.1783  0.0018
 5035SOL     OW16003   2.532   4.556   5.009 -0.0058  0.0952  0.3356
 5035SOL    HW116004   2.513   4.464   5.043  0.0896  0.5895  1.7986
 5035SOL    HW216005   2.626   4.581   5.029  0.5728 -0.2036 -1.8263
 5036SOL     OW16006   2.407   5.239   6.972  0.7243  0.4721  0.3535
 5036SOL    HW116007   2.431   5.148   6.937  0.7559  0.5497  0.1782
 5036SOL    HW216008   2.484   5.301   6.959  0.6455  0.5650  0.3343
 5037SOL     OW16009   4.782   5.910   0.938  0.2510 -0.0471  0.2297
 5037SOL    HW116010   4.695   5.872   0.971  0.4235  0.2098  0.9981
 5037SOL    HW216011   4.765   6.000   0.898  0.0945 -0.2094 -0.0780
 5038SOL     OW16012   1.223   3.944   1.364 -0.2229 -0.5098 -0.2069
 5038SOL    HW116013   1.282   3.995   1.427 -0.3611 -1.5708  0.8109
 5038SOL    HW216014   1.262   3.947   1.272  0.4614  0.3039  0.0983
 5039SOL     OW16015   2.858   5.227   1.579 -0.0050  0.2299 -0.2906
 5039SOL    HW116016   2.933   5.278   1.536 -1.4293  1.5976 -1.2915
 5039SOL    HW216017   2.895   5.149   1.629  1.9510 -0.2492 -2.2883
 5040SOL     OW16018   2.056   0.201   0.670  0.0228  0.0044  0.4304
 5040SOL    HW116019   2.129   0.148   0.627 -0.9501  0.1616 -1.5221
 5040SOL    HW216020   2.092   0.248   0.751  1.8662 -0.5655 -0.0167
 5041SOL     OW16021   3.066   0.622   3.515 -0.4897 -0.0751 -0.3676
 5041SOL    HW116022   3.158   0.613   3.479 -0.1868  0.2228  0.3031
 5041SOL    HW216023   3.025   0.532   3.525 -0.6125 -0.1512 -1.5186
 5042SOL     OW16024   0.479   3.814   3.436 -0.2396  0.7438  0.3015
 5042SOL    HW116025   0.502   3.842   3.529  0.4070 -0.1389  0.4118
 5042SOL    HW216026   0.380   3.816   3.425 -0.5033 -1.4045  1.7544
 5043SOL     OW16027   5.237   0.323   2.196 -0.3162  0.0842  0.0603
 5043SOL    HW116028   5.326   0.289   2.223 -0.7735  0.8690  2.7968
 5043SOL    HW216029   5.172   0.313   2.271 -2.3294  0.4054 -1.5174
 5044SOL     OW16030   0.718   0.264   4.777 -0.1055  0.2637 -0.0675
 5044SOL    HW116031   0.809   0.285   4.739 -1.0991  0.5998 -2.4282
 5044SOL    HW216032   0.684   0.344   4.827  0.2309  0.7526 -0.5976
 5045SOL     OW16033   3.890   6.777   2.038  0.1654  0.3919 -0.1914
 5045SOL    HW116034   3.814   6.783   1.974  1.9978 -0.5374 -2.5927
 5045SOL    HW216035   3.918   6.682   2.048  2.1423  0.8606 -0.8251
 5046SOL     OW16036   1.421   0.596   2.405  0.2133 -0.2990  0.0258
 5046SOL    HW116037   1.458   0.613   2.496  1.5020 -2.1262 -0.0936
 5046SOL    HW216038   1.391   0.683   2.365  0.3442  0.6494  1.8569
 5047SOL     OW16039   1.356   3.305   5.305 -0.1069  0.0065 -0.2102
 5047SOL    HW116040   1.336   3.403   5.309 -2.6005 -0.4143 -0.3200
 5047SOL    HW216041   1.308   3.264   5.227 -0.9472 -1.6376  1.0973
 5048SOL     OW16042   3.708   6.907   0.896 -0.2801 -0.2718  0.6443
 5048SOL    HW116043   3.709   6.944   0.803 -1.5679 -0.1076  0.6704
 5048SOL    HW216044   3.756   6.820   0.899  0.3868  0.0657 -0.0146
 5049SOL     OW16045   4.796   2.581   6.459  0.0279 -0.2315 -0.4399
 5049SOL    HW116046   4.765   2.487   6.444  0.7845 -0.7051  0.8034
 5049SOL    HW216047   4.808   2.597   6.557  1.4300  0.6446 -0.7194
 5050SOL     OW16048   6.728   4.690   2.303 -0.2476 -0.2266  0.2131
 5050SOL    HW116049   6.708   4.597   2.332 -0.3610  0.6533  3.2406
 5050SOL    HW216050   6.827   4.701   2.292 -0.1179 -0.3813  1.1635
 5051SOL     OW16051   6.508   2.393   7.004 -0.1688 -0.1040 -0.2768
 5051SOL    HW116052   6.600   2.433   7.004 -0.4673  0.6096  0.2224
 5051SOL    HW216053   6.448   2.446   6.945 -0.9255  1.0879  1.4822
 5052SOL     OW16054   6.816   6.516   4.056 -0.0618  0.4955  0.4217
 5052SOL    HW116055   6.771   6.601   4.028 -1.9786 -0.2893  0.9140
 5052SOL    HW216056   6.852   6.469   3.975 -2.4020 -0.0357 -0.4039
 5053SOL     OW16057   3.348   5.426   6.327  0.5940 -0.4518  0.0619
 5053SOL    HW116058   3.427   5.370   6.351 -0.5493 -1.6101  1.2639
 5053SOL    HW216059   3.281   5.370   6.278  0.2368  0.3569 -0.3932
 5054SOL     OW16060   2.215   1.344   4.397  0.0203  0.0010 -0.1781
 5054SOL    HW116061   2.232   1.345   4.495 -0.6038  1.8816 -0.0497
 5054SOL    HW216062   2.293   1.302   4.350  0.1149 -1.3497  1.1386
 5055SOL     OW16063   4.060   5.835   1.743  0.3077 -0.6960 -0.0924
 5055SOL    HW116064   3.996   5.769   1.704  1.3622 -1.4144 -0.6560
 5055SOL    HW216065   4.032   5.858   1.836 -0.7253 -1.0430 -0.3067
 5056SOL     OW16066   1.484   4.228   4.436 -0.4295 -0.3997 -0.5240
 5056SOL    HW116067   1.413   4.187   4.379 -1.3418  0.7320 -0.2324
 5056SOL    HW216068   1.474   4.197   4.530  0.3134 -1.3011 -0.7346
 5057SOL     OW16069   2.093   3.749   6.001 -0.2436 -0.3699  0.0330
 5057SOL    HW116070   2.029   3.703   5.939 -1.2076 -3.0994  2.7712
 5057SOL    HW216071   2.180   3.699   6.001 -0.3219 -0.5167  0.9733
 5058SOL     OW16072   6.627   4.944   2.277  0.1286 -0.3169 -0.7238
 5058SOL    HW116073   6.653   4.848   2.291  0.4294 -0.3388 -1.4102
 5058SOL    HW216074   6.574   4.952   2.193  0.7580  0.2349 -1.0768
 5059SOL     OW16075   2.679   6.224   3.093 -0.3009 -0.5631 -0.0427
 5059SOL    HW116076   2.626   6.227   3.008 -0.3106 -1.1969 -0.0581
 5059SOL    HW216077   2.765   6.177   3.078 -0.5560 -1.2000  0.4365
 5060SOL     OW16078   6.054   3.966   4.399  0.5074 -0.2536 -0.5066
 5060SOL    HW116079   6.089   4.046   4.448 -0.0387 -0.1368 -0.3060
 5060SOL    HW216080   6.041   3.990   4.302 -0.6731  0.2345 -0.2460
 5061SOL     OW16081   1.080   3.719   2.309  0.1076 -0.1909  0.0939
 5061SOL    HW116082   1.010   3.745   2.375  1.4341  1.4280  0.9440
 5061SOL    HW216083   1.039   3.713   2.218 -1.4864 -1.1741  0.8272
 5062SOL     OW16084   6.547   4.272   2.684 -0.8025 -0.2910 -0.3086
 5062SOL    HW116085   6.641   4.267   2.718 -0.1372  0.1313 -1.9907
 5062SOL    HW216086   6.518   4.368   2.680 -1.9381 -0.5022  1.7666
 5063SOL     OW16087   3.473   1.203   4.260  0.0443 -0.5101 -0.0915
 5063SOL    HW116088   3.479   1.178   4.356  1.8708 -0.7275 -0.2278
 5063SOL    HW216089   3.559   1.181   4.214 -0.6576 -0.0665 -1.6986
 5064SOL     OW16090   3.863   0.885   2.774  0.2485  0.4761  0.2147
 5064SOL    HW116091   3.816   0.798   2.761  0.3443  0.4905 -0.2409
 5064SOL    HW216092   3.901   0.916   2.687  1.2181  0.3998  0.5996
 5065SOL     OW16093   2.595   1.668   0.914 -0.0626  0.0521 -0.3769
 5065SOL    HW116094   2.524   1.654   0.983 -0.4748  1.1743 -0.5538
 5065SOL    HW216095   2.660   1.736   0.947 -0.0606  0.3268 -0.9398
 5066SOL     OW16096   1.724   2.425   3.473  0.5252 -0.1535 -0.2310
 5066SOL    HW116097   1.749   2.357   3.541  2.1007  0.1440 -0.4719
 5066SOL    HW216098   1.745   2.516   3.508  1.9280 -0.0319 -1.3213
 5067SOL     OW16099   1.146   1.243   3.253 -0.1059 -0.1765  0.7002
 5067SOL    HW116100   1.123   1.264   3.158  1.1770  0.6839  0.5589
 5067SOL    HW216101   1.061   1.234   3.306 -0.8546 -1.1247 -0.5965
 5068SOL     OW16102   2.502   0.604   0.384 -0.1244  0.3272 -0.2925
 5068SOL    HW116103   2.461   0.560   0.464  0.1508 -0.9771 -0.8426
 5068SOL    HW216104   2.590   0.645   0.410  0.5140 -1.0669 -0.1387
 5069SOL     OW16105   0.919   4.236   0.749 -0.2274 -0.0661  0.2827
 5069SOL    HW116106   0.885   4.298   0.679  2.2871 -0.5603 -1.5239
 5069SOL    HW216107   0.948   4.288   0.830  0.3046  0.9478 -0.5435
 5070SOL     OW16108   6.809   5.848   6.764  0.4097 -0.0073  0.0916
 5070SOL    HW116109   6.888   5.820   6.819 -0.2905 -1.4183  0.4439
 5070SOL    HW216110   6.769   5.767   6.721 -0.9270  0.6681  0.0287
 5071SOL     OW16111   4.641   2.061   5.768 -0.3384 -0.2443 -0.0668
 5071SOL    HW116112   4.656   1.975   5.720 -1.2857 -0.4877  0.0564
 5071SOL    HW216113   4.653   2.047   5.866 -0.4907 -0.2354 -0.0464
 5072SOL     OW16114   4.705   1.694   5.870  0.5121  0.4496 -0.6797
 5072SOL    HW116115   4.796   1.680   5.908  0.2481  0.5412  0.0039
 5072SOL    HW216116   4.644   1.622   5.902  0.0118  1.1518 -0.0136
 5073SOL     OW16117   4.948   3.388   3.588 -0.0781 -0.0886  0.1645
 5073SOL    HW116118   4.891   3.307   3.571 -0.5268  0.3629 -0.5277
 5073SOL    HW216119   4.948   3.447   3.507  1.0845  0.1069  0.2902
 5074SOL     OW16120   2.379   4.435   1.343 -0.3847  0.2165  0.4719
 5074SOL    HW116121   2.395   4.533   1.327  2.6485 -0.2911 -0.1194
 5074SOL    HW216122   2.331   4.396   1.265 -1.5253  1.1590  0.6643
 5075SOL     OW16123   0.667   4.458   0.600 -0.0427  0.2793  0.3552
 5075SOL    HW116124   0.744   4.425   0.545 -1.5196  0.2208 -1.8503
 5075SOL    HW216125   0.684   4.551   0.630  1.7373 -0.4422  1.7017
 5076SOL     OW16126   1.966   6.756   0.049  0.4307 -0.0947 -0.2511
 5076SOL    HW116127   1.931   6.848   0.031  1.2216  0.1966 -0.3843
 5076SOL    HW216128   1.890   6.693   0.063 -0.1384  0.4045 -1.0292
 5077SOL     OW16129   2.274   5.235   4.968 -0.0736  0.1458 -0.5434
 5077SOL    HW116130   2.280   5.171   4.891  0.1668 -1.0510  0.4365
 5077SOL    HW216131   2.240   5.323   4.935 -2.0961 -0.9623 -1.6740
 5078SOL     OW16132   0.104   2.042   4.506  0.3266 -0.0944 -0.1277
 5078SOL    HW116133   0.039   2.018   4.434  0.1743 -0.0328 -0.0124
 5078SOL    HW216134   0.075   2.128   4.549  0.4794 -0.0721 -0.0707
 5079SOL     OW16135   5.082   1.236   6.861 -0.0061  0.1252  0.2344
 5079SOL    HW116136   5.123   1.173   6.926 -1.5907 -0.2648  0.8936
 5079SOL    HW216137   5.110   1.330   6.883  0.0732 -0.0779  1.0201
 5080SOL     OW16138   6.149   0.062   0.038 -0.1229 -0.4250 -0.2616
 5080SOL    HW116139   6.223   0.020  -0.014  0.6378  3.0225 -2.2848
 5080SOL    HW216140   6.062   0.047  -0.009 -0.0971 -1.0225 -0.1218
 5081SOL     OW16141   1.674   6.253   0.034  0.1067  0.0961 -0.2936
 5081SOL    HW116142   1.763   6.207   0.033 -1.0823 -2.5387  1.6279
 5081SOL    HW216143   1.614   6.211  -0.033  0.3851  2.2275 -1.9651
 5082SOL     OW16144   4.039   6.009   5.059  0.3681  0.2078 -0.0518
 5082SOL    HW116145   4.036   5.993   5.158 -2.0628  1.6921  0.2220
 5082SOL    HW216146   4.051   5.922   5.011 -0.8441 -0.8958  1.5296
 5083SOL     OW16147   2.241   5.318   0.800 -0.5302 -0.0045 -0.3302
 5083SOL    HW116148   2.240   5.259   0.880 -0.7039  0.8917  0.3505
 5083SOL    HW216149   2.149   5.324   0.762 -1.3000  2.3956  1.6002
 5084SOL     OW16150   1.828   6.416   2.928  0.0017 -0.2686 -0.1084
 5084SOL    HW116151   1.761   6.370   2.870 -2.9785  2.2452  1.0389
 5084SOL    HW216152   1.830   6.372   3.018 -0.0542 -0.4008 -0.1722
 5085SOL     OW16153   4.848   1.582   1.263 -0.3473  0.3692  0.1410
 5085SOL    HW116154   4.763   1.598   1.214 -1.0170  0.7806  1.4067
 5085SOL    HW216155   4.883   1.490   1.240 -0.7118  0.4893 -0.9536
 5086SOL     OW16156   3.585   6.125   5.691  0.6290 -0.4141  0.1250
 5086SOL    HW116157   3.508   6.177   5.728 -0.8508 -1.7613 -0.8913
 5086SOL    HW216158   3.573   6.028   5.714  1.1082 -0.8865 -1.4917
 5087SOL     OW16159   3.205   5.213   1.753 -0.9460 -0.2777  0.6551
 5087SOL    HW116160   3.180   5.258   1.668  0.9831 -0.9164 -0.3095
 5087SOL    HW216161   3.243   5.123   1.733  0.5680 -0.0011  2.0709
 5088SOL     OW16162   6.184   2.440   5.874 -0.0926  0.2812 -0.4596
 5088SOL    HW116163   6.218   2.414   5.965  0.3992 -1.4007 -1.0912
 5088SOL    HW216164   6.102   2.497   5.884 -0.1269  0.0118  1.0273
 5089SOL     OW16165   6.143   5.482   2.859 -0.6135  0.5155  0.0955
 5089SOL    HW116166   6.179   5.456   2.949 -0.7608  1.6184  0.4905
 5089SOL    HW216167   6.054   5.439   2.845 -0.1775 -0.4021  0.0739
 5090SOL     OW16168   5.089   0.628   3.576 -0.2096  0.2107  0.1402
 5090SOL    HW116169   5.044   0.571   3.645 -1.0950 -0.9880 -1.3477
 5090SOL    HW216170   5.130   0.569   3.506  1.0643  1.3750 -0.1239
 5091SOL     OW16171   6.784   4.675   4.441  0.4791  0.7546 -0.6672
 5091SOL    HW116172   6.784   4.584   4.400  0.6666  0.9114 -1.0156
 5091SOL    HW216173   6.692   4.695   4.476  0.9115 -0.3752  1.2438
 5092SOL     OW16174   3.073   4.028   2.307  0.4446 -0.0201  0.3036
 5092SOL    HW116175   3.082   4.115   2.259  0.6532  0.3980  1.0807
 5092SOL    HW216176   3.059   3.954   2.240 -2.2066  0.8848 -0.2604
 5093SOL     OW16177   0.576   6.792   1.457 -0.5052 -0.0958 -0.1159
 5093SOL    HW116178   0.622   6.721   1.403  1.0469  0.2325  0.7049
 5093SOL    HW216179   0.636   6.821   1.531 -1.6383  1.1561  0.3490
 5094SOL     OW16180   5.213   5.542   0.314  0.0618 -0.1102 -0.0893
 5094SOL    HW116181   5.218   5.642   0.316 -0.8572 -0.0668  1.5114
 5094SOL    HW216182   5.177   5.508   0.401  2.0050 -1.9559  0.0809
 5095SOL     OW16183   0.150   0.389   6.841  0.0679 -0.4149 -0.5198
 5095SOL    HW116184   0.174   0.340   6.924  0.5436  0.6683  0.0104
 5095SOL    HW216185   0.128   0.324   6.768 -2.4972 -1.3911  1.0179
 5096SOL     OW16186   6.251   6.837   2.295 -0.0762 -0.0409 -0.4668
 5096SOL    HW116187   6.297   6.918   2.259  1.5791 -0.6183  0.2406
 5096SOL    HW216188   6.182   6.865   2.362  2.2097  0.7797  1.6880
 5097SOL     OW16189   4.731   4.601   4.728 -0.6021  0.0326  0.2436
 5097SOL    HW116190   4.638   4.569   4.708 -0.8147  0.5499  0.3743
 5097SOL    HW216191   4.785   4.526   4.766 -1.0162 -0.2294  0.3239
 5098SOL     OW16192   1.073   4.083   6.079  0.5807  0.7978 -0.1325
 5098SOL    HW116193   1.026   4.112   5.996  2.1119  0.1548 -1.2509
 5098SOL    HW216194   1.025   4.121   6.159 -0.9415  1.3830 -1.2736
 5099SOL     OW16195   6.779   2.144   5.309 -0.2787 -0.0810  0.1903
 5099SOL    HW116196   6.703   2.202   5.337  0.4207  1.0322 -0.1648
 5099SOL    HW216197   6.865   2.187   5.334  0.3384  0.2202 -2.2483
 5100SOL     OW16198   3.438   5.511   0.093 -0.1608  0.4877  0.6477
 5100SOL    HW116199   3.391   5.426   0.069 -0.0984  0.7424 -0.4022
 5100SOL    HW216200   3.450   5.515   0.192  0.6870 -1.1863  0.6491
 5101SOL     OW16201   4.055   0.718   5.696  0.4487  0.0535 -0.5054
 5101SOL    HW116202   4.062   0.621   5.672 -0.4377 -0.0328 -0.4772
 5101SOL    HW216203   3.959   0.746   5.691  0.6450  0.8254 -0.1057
 5102SOL     OW16204   3.819   1.013   1.917 -0.1830 -0.3482 -0.4792
 5102SOL    HW116205   3.781   1.071   1.846 -0.7913  0.9872  0.8923
 5102SOL    HW216206   3.746   0.984   1.979  0.6650  0.4229  0.9204
 5103SOL     OW16207   3.243   0.128   3.074  0.0944  0.2582 -0.4230
 5103SOL    HW116208   3.161   0.183   3.056 -0.2405 -0.3737 -0.8850
 5103SOL    HW216209   3.320   0.166   3.023  1.1910  3.3588  3.1095
 5104SOL     OW16210   2.567   0.792   2.743 -0.0718 -0.0214 -0.0020
 5104SOL    HW116211   2.585   0.797   2.645 -1.0673  0.4813 -0.1732
 5104SOL    HW216212   2.527   0.703   2.766  2.5245 -1.1850  0.3964
 5105SOL     OW16213   0.716   2.759   2.727 -0.1020 -0.0538  0.3540
 5105SOL    HW116214   0.780   2.795   2.660  0.7784 -0.1141  1.1494
 5105SOL    HW216215   0.625   2.797   2.709  0.6265  1.9737  0.6974
 5106SOL     OW16216   3.416   5.755   4.987 -0.3475  0.0157  0.0069
 5106SOL    HW116217   3.383   5.827   5.048 -0.7191  0.7562 -1.0202
 5106SOL    HW216218   3.514   5.768   4.970 -0.3713  0.1619 -0.0193
 5107SOL     OW16219   3.593   5.960   3.081 -0.0878  0.2079  0.3484
 5107SOL    HW116220   3.619   5.890   3.014  0.8040 -1.2353  2.1332
 5107SOL    HW216221   3.652   5.954   3.161 -0.3928  2.6366  0.8485
 5108SOL     OW16222   1.890   3.843   2.051  0.1678 -0.4664 -0.2649
 5108SOL    HW116223   1.969   3.824   1.994 -0.1610  1.5350 -1.4542
 5108SOL    HW216224   1.807   3.839   1.996 -0.4991 -1.5497  0.7550
 5109SOL     OW16225   6.446   1.821   3.348 -0.5932 -0.0366 -0.7106
 5109SOL    HW116226   6.425   1.739   3.295 -1.4908  0.6231 -1.4182
 5109SOL    HW216227   6.387   1.825   3.429 -0.8176  0.0824 -0.8757
 5110SOL     OW16228   5.347   2.888   5.799 -0.2935  0.2330 -0.0482
 5110SOL    HW116229   5.267   2.830   5.786 -1.8966  2.5954 -1.5743
 5110SOL    HW216230   5.319   2.975   5.839  1.1665  1.7372 -2.0688
 5111SOL     OW16231   6.998   1.398   0.839 -0.3456  0.1287 -0.0518
 5111SOL    HW116232   6.917   1.449   0.866  0.1104  0.7095  0.2286
 5111SOL    HW216233   6.970   1.319   0.784 -1.0156  1.1169 -1.1835
 5112SOL     OW16234   1.490   5.691   4.228  0.2372  0.1679 -0.3700
 5112SOL    HW116235   1.485   5.598   4.192 -0.7922  0.6737 -1.6367
 5112SOL    HW216236   1.405   5.713   4.276  0.2561  0.6234 -0.5369
 5113SOL     OW16237   0.304   5.589   2.007  0.1274 -0.6778  0.7026
 5113SOL    HW116238   0.382   5.570   2.065  0.0617 -0.3457  0.9015
 5113SOL    HW216239   0.322   5.671   1.952  0.6750 -1.6670 -0.6275
 5114SOL     OW16240   1.503   1.708   3.601  0.2965  0.0221  0.6659
 5114SOL    HW116241   1.456   1.793   3.579 -0.5544 -0.3695  0.9030
 5114SOL    HW216242   1.583   1.698   3.543 -0.2907  0.3864 -0.2340
 5115SOL     OW16243   0.501   6.124   0.885  0.6380 -0.3728  0.1846
 5115SOL    HW116244   0.497   6.060   0.808 -0.3932  1.6693 -1.5849
 5115SOL    HW216245   0.413   6.169   0.896  1.1164  0.2357  1.8421
 5116SOL     OW16246   6.866   6.956   5.415  0.0917 -0.2489  0.2297
 5116SOL    HW116247   6.957   6.944   5.455 -0.8391  0.4926  2.7968
 5116SOL    HW216248   6.824   6.867   5.401  0.5709 -0.5550  0.6937
 5117SOL     OW16249   3.063   1.094   1.600  0.3972 -0.0264  0.3118
 5117SOL    HW116250   2.973   1.103   1.643  0.6553 -0.0942  0.8648
 5117SOL    HW216251   3.114   1.019   1.642 -0.0467 -1.3296 -1.3533
 5118SOL     OW16252   6.953   4.918   0.498  0.1349  0.2319 -0.4347
 5118SOL    HW116253   6.870   4.967   0.471 -0.1644  0.7780  1.3357
 5118SOL    HW216254   6.933   4.820   0.505 -0.1735  0.2771 -0.6798
 5119SOL     OW16255   6.211   6.768   4.854  0.1768 -0.5758 -0.0445
 5119SOL    HW116256   6.232   6.861   4.886 -0.1068 -0.5723  0.1423
 5119SOL    HW216257   6.166   6.718   4.928 -0.2170 -0.6656 -0.3441
 5120SOL     OW16258   2.714   5.158   5.028  0.3333  0.6235 -0.3172
 5120SOL    HW116259   2.713   5.169   4.928 -1.4944 -0.0704 -0.4113
 5120SOL    HW216260   2.716   5.061   5.051  0.2417  0.7700  0.3183
 5121SOL     OW16261   5.498   1.732   4.445 -0.3382 -0.3974  0.0557
 5121SOL    HW116262   5.584   1.744   4.397 -0.2092 -2.3464 -0.2724
 5121SOL    HW216263   5.477   1.814   4.498  2.0263 -0.1119  0.6356
 5122SOL     OW16264   2.258   3.018   0.321  0.2397 -0.8163 -0.3754
 5122SOL    HW116265   2.176   3.065   0.288  1.1861  1.5025  0.3655
 5122SOL    HW216266   2.339   3.054   0.274  1.2174 -0.1316  1.7203
 5123SOL     OW16267   0.803   2.741   1.298  0.1225 -0.0381  0.3732
 5123SOL    HW116268   0.869   2.816   1.300 -1.7580  1.8278 -1.9495
 5123SOL    HW216269   0.735   2.755   1.370 -0.4592  0.7633 -0.3162
 5124SOL     OW16270   6.749   3.533   0.922 -0.4450 -0.2971  0.1523
 5124SOL    HW116271   6.715   3.611   0.975 -0.9302  0.5441 -1.3380
 5124SOL    HW216272   6.688   3.517   0.844  0.3479 -1.3744 -0.2633
 5125SOL     OW16273   3.395   2.101   2.161  0.2408 -0.1409 -0.8342
 5125SOL    HW116274   3.464   2.145   2.103  0.4358 -0.8142 -1.1169
 5125SOL    HW216275   3.304   2.135   2.135  0.5119  1.6550  0.3270
 5126SOL     OW16276   6.301   6.045   4.496  0.9936  0.4347  0.1663
 5126SOL    HW116277   6.221   6.042   4.556  1.9003  0.1323  1.3843
 5126SOL    HW216278   6.342   6.136   4.500  0.5545  0.6768 -0.6791
 5127SOL     OW16279   3.273   2.429   0.990  0.3156 -0.5097  0.0182
 5127SOL    HW116280   3.273   2.440   1.090 -0.6521  0.0834 -0.0259
 5127SOL    HW216281   3.284   2.333   0.967  4.0030 -0.3559  0.5809
 5128SOL     OW16282   3.081   6.380   3.036  0.0246  0.3853 -0.2763
 5128SOL    HW116283   3.047   6.286   3.030 -0.8022  0.3718  2.8833
 5128SOL    HW216284   3.010   6.443   3.006  0.1245  0.0555 -1.2230
 5129SOL     OW16285   1.887   5.653   3.949 -0.0619 -0.0749  0.0270
 5129SOL    HW116286   1.806   5.706   3.974  0.3707 -0.2413  1.9399
 5129SOL    HW216287   1.964   5.680   4.007  0.7495 -1.2748 -0.4414
 5130SOL     OW16288   6.012   4.496   1.289  0.0307 -0.1537  0.6273
 5130SOL    HW116289   5.949   4.535   1.221 -1.6416  0.3647  2.3933
 5130SOL    HW216290   5.962   4.432   1.347  0.8965  0.8964  2.6266
 5131SOL     OW16291   4.644   4.339   4.540  0.1283 -0.6115  0.2861
 5131SOL    HW116292   4.670   4.269   4.607 -0.0688 -0.7773  0.1871
 5131SOL    HW216293   4.566   4.391   4.574 -0.6275 -1.3702 -0.2720
 5132SOL     OW16294   3.920   3.191   3.824 -0.0360  0.2197  0.8627
 5132SOL    HW116295   3.905   3.105   3.873  0.1520  0.9619  2.2826
 5132SOL    HW216296   3.967   3.256   3.884  0.6012  1.0319 -0.4736
 5133SOL     OW16297   0.340   4.976   6.090  0.1785 -0.2961 -0.0660
 5133SOL    HW116298   0.397   4.960   6.009  2.2011  1.2426  0.9743
 5133SOL    HW216299   0.265   4.910   6.090  1.9185 -2.4611 -1.5189
 5134SOL     OW16300   5.633   5.009   1.565  1.2701 -0.1323 -0.1491
 5134SOL    HW116301   5.586   5.000   1.477 -0.9364  0.4590  0.9039
 5134SOL    HW216302   5.731   5.012   1.550  1.0427 -1.6318 -2.4624
 5135SOL     OW16303   1.677   4.158   1.822 -0.3911  0.4622  0.3541
 5135SOL    HW116304   1.590   4.204   1.840 -0.0894  1.2241 -0.0800
 5135SOL    HW216305   1.747   4.227   1.801  0.0160 -0.2078 -0.5446
 5136SOL     OW16306   2.300   1.084   0.688 -0.1420  0.4677  0.1008
 5136SOL    HW116307   2.220   1.051   0.738  0.0340 -0.0063  0.0816
 5136SOL    HW216308   2.287   1.180   0.663 -0.6961  0.4014  0.1105
 5137SOL     OW16309   5.460   4.186   5.185  0.7034  0.2270  0.2314
 5137SOL    HW116310   5.388   4.149   5.243  0.8524  1.4602  1.2436
 5137SOL    HW216311   5.462   4.137   5.098 -2.0646  0.8389 -0.2685
 5138SOL     OW16312   4.206   0.552   3.932 -0.8638  0.5027 -0.4608
 5138SOL    HW116313   4.227   0.566   3.835 -1.1628 -1.1819 -0.7866
 5138SOL    HW216314   4.248   0.626   3.985  0.1656  0.8995 -1.7608
 5139SOL     OW16315   6.460   6.139   0.678  0.0979  0.2376  0.5876
 5139SOL    HW116316   6.388   6.115   0.613  0.2205 -2.0209  1.1973
 5139SOL    HW216317   6.546   6.151   0.629  0.0009 -0.5134  0.2105
 5140SOL     OW16318   3.687   2.240   5.330 -0.7878 -0.2506  0.2407
 5140SOL    HW116319   3.592   2.267   5.320 -1.0505 -0.9714  0.6859
 5140SOL    HW216320   3.746   2.320   5.321 -1.5076  0.3925  1.0929
 5141SOL     OW16321   1.567   2.823   4.239 -0.0966 -0.3477 -0.1517
 5141SOL    HW116322   1.637   2.880   4.282  0.9959 -0.8423 -1.1959
 5141SOL    HW216323   1.506   2.785   4.309  1.0819 -0.4355  0.8606
 5142SOL     OW16324   1.023   0.895   0.134  0.2941  0.4519  0.6981
 5142SOL    HW116325   1.092   0.946   0.187  2.0122 -0.7440 -0.2877
 5142SOL    HW216326   1.027   0.798   0.159 -0.3222  0.2096 -0.1113
 5143SOL     OW16327   2.495   1.638   0.662 -0.0072 -0.1225 -0.2231
 5143SOL    HW116328   2.547   1.646   0.747 -0.1287  0.9977 -0.2332
 5143SOL    HW216329   2.548   1.587   0.595 -1.2355 -4.0523  1.5272
 5144SOL     OW16330   6.598   3.263   4.112 -0.9191 -0.4038 -0.4958
 5144SOL    HW116331   6.527   3.275   4.182  0.8555  0.5680  1.2419
 5144SOL    HW216332   6.615   3.351   4.067  0.2519 -0.2365  0.2270
 5145SOL     OW16333   4.133   5.020   1.790 -0.0784 -0.1029  0.4352
 5145SOL    HW116334   4.049   4.969   1.771 -0.6526  0.3163  1.7196
 5145SOL    HW216335   4.168   4.994   1.880 -0.4077  1.7303  1.1380
 5146SOL     OW16336   4.236   1.248   5.297  0.2612  0.3853 -0.8545
 5146SOL    HW116337   4.306   1.210   5.356  0.3695  3.4856  1.2535
 5146SOL    HW216338   4.275   1.321   5.241 -0.6849  0.1716 -1.8255
 5147SOL     OW16339   1.828   2.777   6.845 -0.9909  0.3372 -0.0502
 5147SOL    HW116340   1.837   2.677   6.848 -1.2677  0.2457 -1.4800
 5147SOL    HW216341   1.898   2.819   6.902 -1.7084 -0.6955  1.6599
 5148SOL     OW16342   0.096   4.860   1.223  0.2503 -0.4156  0.1550
 5148SOL    HW116343   0.189   4.876   1.190  0.8455 -1.3214  1.3124
 5148SOL    HW216344   0.078   4.918   1.302  0.4620 -1.4315  0.9757
 5149SOL     OW16345   6.978   6.657   5.661 -0.1761  0.5778 -0.1728
 5149SOL    HW116346   6.889   6.700   5.672 -1.0079 -1.0125 -0.4359
 5149SOL    HW216347   7.050   6.725   5.679 -1.4079  2.0034 -0.4298
 5150SOL     OW16348   5.952   6.505   2.426  0.2881 -0.1514  0.1192
 5150SOL    HW116349   5.915   6.584   2.376 -3.7719 -1.4897  0.5876
 5150SOL    HW216350   6.028   6.465   2.374 -1.8233  0.2358 -3.6379
 5151SOL     OW16351   0.712   1.800   1.892  0.0173 -0.3339  0.1703
 5151SOL    HW116352   0.703   1.703   1.914  2.0301 -0.4961  0.4397
 5151SOL    HW216353   0.645   1.852   1.944  0.1320 -1.4076  1.4418
 5152SOL     OW16354   0.317   3.378   0.175 -0.2090 -0.0831  0.4848
 5152SOL    HW116355   0.297   3.458   0.118 -0.8289 -0.0934  0.6839
 5152SOL    HW216356   0.360   3.408   0.261  0.4984 -0.0492  0.1311
 5153SOL     OW16357   2.991   5.075   5.421  0.2130  0.2341  0.0783
 5153SOL    HW116358   2.907   5.030   5.392 -0.3424 -0.3733  2.3777
 5153SOL    HW216359   2.977   5.174   5.424  1.2298  0.7176 -4.3499
 5154SOL     OW16360   1.635   6.492   0.645  0.6903  0.8575 -0.3503
 5154SOL    HW116361   1.608   6.588   0.638  0.5182  0.7510 -1.4309
 5154SOL    HW216362   1.649   6.467   0.741  2.6550  2.4815 -0.1413
 5155SOL     OW16363   4.980   0.180   4.254 -0.7667 -0.1217  0.1628
 5155SOL    HW116364   4.893   0.140   4.284  0.5968 -3.0725  0.6189
 5155SOL    HW216365   5.038   0.195   4.334  0.3411 -1.4363 -0.3553
 5156SOL     OW16366   3.071   1.716   5.502 -0.6352 -0.0772 -0.0225
 5156SOL    HW116367   3.130   1.766   5.439  0.7454 -1.6520 -0.0670
 5156SOL    HW216368   3.124   1.642   5.545 -2.1639 -0.5084  1.2081
 5157SOL     OW16369   1.091   3.220   6.854  0.1223 -0.7804  0.2568
 5157SOL    HW116370   1.184   3.193   6.881  0.4160  0.3763  0.4715
 5157SOL    HW216371   1.082   3.216   6.755  0.7660  0.1529  0.1443
 5158SOL     OW16372   1.321   1.229   4.352 -0.7082  0.1641  0.2356
 5158SOL    HW116373   1.323   1.131   4.372 -1.2644  0.1079  0.0512
 5158SOL    HW216374   1.369   1.279   4.424  0.6311 -0.3331 -0.2886
 5159SOL     OW16375   1.870   5.802   1.240  0.8354 -0.4631  0.0219
 5159SOL    HW116376   1.880   5.740   1.163 -3.9667 -0.3206 -1.0599
 5159SOL    HW216377   1.841   5.751   1.321 -2.2073  0.0005 -0.6291
 5160SOL     OW16378   6.436   6.929   3.760  0.8133  0.1562  0.0293
 5160SOL    HW116379   6.428   6.832   3.740  1.9548 -0.0574  0.5398
 5160SOL    HW216380   6.408   6.946   3.854  0.6093  0.3240 -0.0612
 5161SOL     OW16381   0.075   3.572   6.790 -0.7236 -0.0320 -0.2677
 5161SOL    HW116382   0.087   3.510   6.868 -0.0742  1.5232  0.9042
 5161SOL    HW216383  -0.010   3.623   6.801 -1.4716 -0.9530 -1.4466
 5162SOL     OW16384   0.412   1.919   6.869 -0.1722  0.0813 -0.1754
 5162SOL    HW116385   0.496   1.868   6.887 -0.1606  0.2871  0.3798
 5162SOL    HW216386   0.402   1.991   6.937 -0.5313  0.3929 -0.5555
 5163SOL     OW16387   5.884   2.603   5.862  0.1105  0.1390  0.2956
 5163SOL    HW116388   5.838   2.670   5.804  0.4450  0.3608  0.2872
 5163SOL    HW216389   5.815   2.546   5.907 -0.1522  0.0073 -0.2621
 5164SOL     OW16390   0.184   1.935   3.603 -0.0562 -0.0350 -0.1013
 5164SOL    HW116391   0.228   1.925   3.513  0.3573 -0.7935  0.1765
 5164SOL    HW216392   0.091   1.899   3.599  0.2523 -0.8519 -0.0090
 5165SOL     OW16393   5.411   6.502   4.711 -0.0946 -0.0252  0.1426
 5165SOL    HW116394   5.454   6.536   4.795 -1.3144 -1.4683  1.4405
 5165SOL    HW216395   5.350   6.572   4.674 -1.2335 -0.0882  1.7643
 5166SOL     OW16396   1.710   6.484   6.704  0.0442  0.4405  0.3765
 5166SOL    HW116397   1.777   6.524   6.642  2.5886  0.1870  2.7243
 5166SOL    HW216398   1.743   6.395   6.736 -1.5094  0.2119  1.5110
 5167SOL     OW16399   0.514   1.499   0.215  0.0293  0.2589  0.0288
 5167SOL    HW116400   0.484   1.416   0.261  0.4613  0.6493  1.0420
 5167SOL    HW216401   0.565   1.556   0.279  0.9556  0.6565 -1.0396
 5168SOL     OW16402   5.137   1.939   4.083 -0.4933  0.3057 -0.0774
 5168SOL    HW116403   5.217   1.913   4.138 -1.2771 -0.9350  0.5212
 5168SOL    HW216404   5.152   1.911   3.988  1.3307  3.4249 -0.8599
 5169SOL     OW16405   4.337   5.381   7.002  0.7484  0.0595 -0.0037
 5169SOL    HW116406   4.409   5.345   7.061 -0.0455  0.3992  1.2160
 5169SOL    HW216407   4.327   5.323   6.921  3.4793  0.9152 -1.0577
 5170SOL     OW16408   0.473   6.003   1.534 -0.7542  0.4005  0.4578
 5170SOL    HW116409   0.450   5.910   1.507 -0.0375  0.4448 -0.3525
 5170SOL    HW216410   0.443   6.067   1.464  0.9861  0.5336 -0.2216
 5171SOL     OW16411   1.948   2.685   6.356 -0.1281  0.2186  0.1109
 5171SOL    HW116412   2.013   2.616   6.324 -1.1542 -0.9425  0.4639
 5171SOL    HW216413   1.899   2.650   6.436 -0.0182  1.7323  0.8852
 5172SOL     OW16414   6.770   3.184   6.217  0.1142  0.3108 -0.6019
 5172SOL    HW116415   6.697   3.245   6.246  1.1654  0.2989  2.4036
 5172SOL    HW216416   6.771   3.103   6.276  0.0990 -1.6709 -3.1314
 5173SOL     OW16417   4.330   0.042   6.479  0.5504  0.6289  0.3522
 5173SOL    HW116418   4.379   0.126   6.456  1.6423 -0.1451 -0.2559
 5173SOL    HW216419   4.264   0.022   6.407  0.8045  0.5922  0.1232
 5174SOL     OW16420   4.296   4.606   5.896 -0.5125 -0.2792 -0.1791
 5174SOL    HW116421   4.282   4.518   5.850 -2.6961 -0.0954  0.0068
 5174SOL    HW216422   4.282   4.681   5.832  0.1860 -0.0462 -0.0684
 5175SOL     OW16423   2.457   5.324   0.607  0.4049  0.1434  0.6333
 5175SOL    HW116424   2.546   5.307   0.648 -0.3889 -1.2017  1.9079
 5175SOL    HW216425   2.389   5.339   0.679 -0.1743  2.7579 -0.3135
 5176SOL     OW16426   4.417   4.119   6.449  0.2541  0.2793 -0.2754
 5176SOL    HW116427   4.323   4.112   6.485 -0.3129  2.0929 -1.2871
 5176SOL    HW216428   4.425   4.063   6.367  0.2840 -0.4689  0.2315
 5177SOL     OW16429   6.262   5.396   0.332  0.1122  0.3021  0.1542
 5177SOL    HW116430   6.358   5.390   0.360  0.1121 -1.2797 -0.1079
 5177SOL    HW216431   6.219   5.474   0.378  1.0431 -0.0502  1.7125
 5178SOL     OW16432   3.495   4.982   6.472  0.0091  0.2784 -0.2366
 5178SOL    HW116433   3.592   5.009   6.476  0.5747 -1.4103 -1.3518
 5178SOL    HW216434   3.486   4.888   6.506 -1.3960  0.7101  0.6417
 5179SOL     OW16435   1.789   4.359   0.015  0.4831  0.2532  0.2065
 5179SOL    HW116436   1.860   4.382   0.081  0.3924 -0.4421  0.5596
 5179SOL    HW216437   1.821   4.376  -0.078  0.9989  0.2251  0.3805
 5180SOL     OW16438   5.087   6.061   4.302 -0.3051 -0.6100 -0.0858
 5180SOL    HW116439   5.069   6.011   4.387 -1.2652  0.8120  0.5853
 5180SOL    HW216440   5.095   5.996   4.227 -0.1732 -1.8542  0.9534
 5181SOL     OW16441   6.137   5.366   1.249  0.5022  0.3417 -0.4497
 5181SOL    HW116442   6.059   5.403   1.197  0.6444 -0.2337 -1.0908
 5181SOL    HW216443   6.154   5.423   1.329 -1.0625  0.0527  0.1225
 5182SOL     OW16444   2.116   6.616   0.955 -0.0421  0.5916  0.2074
 5182SOL    HW116445   2.172   6.537   0.928  0.2902  0.3192  1.6460
 5182SOL    HW216446   2.019   6.592   0.946  0.0211  0.8336 -1.6147
 5183SOL     OW16447   0.949   4.644   0.404  0.0566 -0.0924 -0.0313
 5183SOL    HW116448   0.944   4.732   0.450 -2.6837 -0.1778 -0.0128
 5183SOL    HW216449   0.935   4.656   0.306 -0.9105 -0.5165  0.0391
 5184SOL     OW16450   2.109   2.593   1.205  0.0680  0.2919 -0.0786
 5184SOL    HW116451   2.137   2.626   1.296 -1.9624  1.0511  0.3338
 5184SOL    HW216452   2.059   2.665   1.158 -0.3174 -0.6408 -1.1346
 5185SOL     OW16453   0.085   5.879   2.547  0.0192  0.3722  0.2206
 5185SOL    HW116454   0.162   5.920   2.596  0.0653  0.3013  0.2078
 5185SOL    HW216455   0.111   5.865   2.451  0.1607 -0.0985  0.3242
 5186SOL     OW16456   0.191   4.132   1.507 -0.0531 -0.0745 -0.4063
 5186SOL    HW116457   0.127   4.108   1.580  0.7267 -0.9093  0.0121
 5186SOL    HW216458   0.258   4.197   1.542  1.4470 -1.8638  0.2026
 5187SOL     OW16459   2.384   5.528   1.847  0.7461 -0.2246  0.1594
 5187SOL    HW116460   2.373   5.439   1.891 -3.6402  0.6410  1.2746
 5187SOL    HW216461   2.347   5.524   1.754  1.3872  0.2051 -0.1159
 5188SOL     OW16462   1.302   1.994   6.814 -0.4692 -0.1587 -0.3723
 5188SOL    HW116463   1.283   1.943   6.730 -0.6909 -1.0313  0.1937
 5188SOL    HW216464   1.221   1.995   6.872 -0.3363  0.4854 -0.1854
 5189SOL     OW16465   3.619   6.553   5.101  0.0825 -0.1947  0.1852
 5189SOL    HW116466   3.588   6.647   5.110 -1.6326 -0.6915 -0.1318
 5189SOL    HW216467   3.606   6.505   5.188  1.7379  0.0455  0.6001
 5190SOL     OW16468   4.200   2.100   1.572 -0.2910 -0.1935 -0.1145
 5190SOL    HW116469   4.147   2.184   1.560  0.7790  0.6965  1.2376
 5190SOL    HW216470   4.192   2.069   1.666 -1.7400 -2.3902 -0.8693
 5191SOL     OW16471   3.514   3.257   2.873  0.1295  0.4530 -0.7198
 5191SOL    HW116472   3.568   3.199   2.812  0.2713  0.2321 -0.3879
 5191SOL    HW216473   3.434   3.206   2.905  0.8816  0.0137  0.5200
 5192SOL     OW16474   4.035   4.128   6.750 -0.0151  0.9752 -0.2873
 5192SOL    HW116475   4.084   4.128   6.837  0.8160 -1.7213 -0.6507
 5192SOL    HW216476   3.941   4.156   6.765  0.4515  1.8531  1.2257
 5193SOL     OW16477   3.119   5.256   2.158 -0.2831 -0.1124  0.2713
 5193SOL    HW116478   3.045   5.189   2.158 -0.0736 -0.4158 -2.3295
 5193SOL    HW216479   3.206   5.210   2.173 -0.2174 -0.3207 -0.7373
 5194SOL     OW16480   5.579   1.735   5.411  0.0116  0.1394  0.2168
 5194SOL    HW116481   5.627   1.743   5.498 -1.5004  0.7688  1.0253
 5194SOL    HW216482   5.645   1.717   5.338  1.3175 -0.2722  1.4597
 5195SOL     OW16483   1.386   1.772   6.248  0.5344 -0.5315 -0.5505
 5195SOL    HW116484   1.385   1.872   6.249 -1.5547 -0.5021 -0.9248
 5195SOL    HW216485   1.419   1.739   6.336 -0.1982  0.5106  0.1405
 5196SOL     OW16486   4.944   0.310   1.742  0.0734  0.1523  0.2097
 5196SOL    HW116487   4.925   0.402   1.776 -0.5208  0.2007 -0.2345
 5196SOL    HW216488   4.987   0.316   1.653 -0.5579  0.0006 -0.1147
 5197SOL     OW16489   6.298   2.809   3.008  0.1004 -0.0344  0.5945
 5197SOL    HW116490   6.369   2.796   2.938  0.5461  1.3780  0.7659
 5197SOL    HW216491   6.209   2.820   2.964  0.2720  0.1224  0.2835
 5198SOL     OW16492   5.392   2.781   4.419  0.8108 -0.0357  0.4710
 5198SOL    HW116493   5.353   2.689   4.427  0.3792  0.0839 -0.1528
 5198SOL    HW216494   5.332   2.846   4.465  0.5530  0.0761 -0.0203
 5199SOL     OW16495   4.752   1.355   1.470  0.2026  0.4968  0.9767
 5199SOL    HW116496   4.815   1.407   1.527  0.5782 -1.2020  2.1750
 5199SOL    HW216497   4.658   1.371   1.503  0.1254  1.6988  0.2546
 5200SOL     OW16498   6.773   6.861   0.326  0.3540  0.3062 -0.0477
 5200SOL    HW116499   6.683   6.863   0.283  1.3706  1.4731 -2.3267
 5200SOL    HW216500   6.786   6.774   0.374 -1.0970 -0.8503 -1.6528
 5201SOL     OW16501   5.778   5.733   6.058 -0.5081 -0.9299  0.2869
 5201SOL    HW116502   5.714   5.759   6.131  1.8191  0.3186  2.0206
 5201SOL    HW216503   5.727   5.698   5.980 -3.4367  2.0227  0.6883
 5202SOL     OW16504   0.941   5.571   6.294 -0.2053  0.3051 -0.1548
 5202SOL    HW116505   0.891   5.631   6.357  0.1696  2.3627 -1.6932
 5202SOL    HW216506   1.039   5.585   6.305 -0.1347  1.1942 -1.5500
 5203SOL     OW16507   0.001   1.774   1.287 -0.6723  1.0189  0.2815
 5203SOL    HW116508   0.039   1.698   1.233 -1.5814 -0.1072  1.1622
 5203SOL    HW216509   0.072   1.841   1.305  0.9476 -0.9699  1.8076
 5204SOL     OW16510   1.879   1.547   0.155  0.3739 -0.4113  0.7732
 5204SOL    HW116511   1.846   1.522   0.064 -0.3293  0.2687  0.8291
 5204SOL    HW216512   1.819   1.617   0.194  0.9727 -0.3155  1.5466
 5205SOL     OW16513   1.756   2.124   1.234 -0.3518 -0.1277  1.1213
 5205SOL    HW116514   1.700   2.065   1.175 -2.4868  0.2490  2.6376
 5205SOL    HW216515   1.741   2.099   1.329  1.5188  0.5457  1.6318
 5206SOL     OW16516   2.581   0.987   5.302  0.0536 -0.0700 -0.2887
 5206SOL    HW116517   2.534   0.926   5.239  1.7681 -0.3076 -1.4101
 5206SOL    HW216518   2.680   0.981   5.287  0.4282  0.8608  1.5403
 5207SOL     OW16519   6.499   3.655   5.844 -0.0023  0.1519  0.0361
 5207SOL    HW116520   6.517   3.745   5.885 -0.2249  0.7106 -1.0633
 5207SOL    HW216521   6.402   3.632   5.857  0.1258 -0.0816  0.6008
 5208SOL     OW16522   6.782   3.357   0.679 -0.2313 -0.0344 -0.0211
 5208SOL    HW116523   6.728   3.441   0.667  0.6466  0.2950 -2.0305
 5208SOL    HW216524   6.720   3.279   0.682 -0.9220  0.3590 -2.0666
 5209SOL     OW16525   2.511   0.298   3.910 -0.4545  0.3289 -0.8734
 5209SOL    HW116526   2.437   0.364   3.920  0.4248  1.1516  0.4556
 5209SOL    HW216527   2.476   0.206   3.928 -1.2283  0.6560 -0.6586
 5210SOL     OW16528   2.519   1.241   3.213  0.0985 -0.0905 -0.2107
 5210SOL    HW116529   2.461   1.173   3.168 -1.4975  1.0197  0.0737
 5210SOL    HW216530   2.462   1.305   3.265  1.2419  2.7871 -2.1837
 5211SOL     OW16531   0.336   1.044   0.059 -0.2453 -0.7969  0.0789
 5211SOL    HW116532   0.426   1.067   0.095 -1.1948  1.1553  1.4209
 5211SOL    HW216533   0.319   1.097  -0.024 -0.3750 -0.6878  0.1737
 5212SOL     OW16534   3.089   0.692   2.175 -0.0430 -0.2414  0.0861
 5212SOL    HW116535   3.172   0.687   2.231  0.5546  0.9894 -0.6343
 5212SOL    HW216536   3.048   0.783   2.184 -2.5251 -1.4148  2.0234
 5213SOL     OW16537   0.880   1.276   3.378  0.2190  0.8839  0.0714
 5213SOL    HW116538   0.882   1.263   3.477  2.1646 -1.1208 -0.1334
 5213SOL    HW216539   0.802   1.226   3.339  0.7540 -0.2618  0.4270
 5214SOL     OW16540   4.001   4.925   2.830 -0.4824 -0.4208 -0.6833
 5214SOL    HW116541   3.918   4.977   2.848  0.0778  0.0896  0.4971
 5214SOL    HW216542   4.059   4.924   2.911  0.3593 -1.3522 -1.2673
 5215SOL     OW16543   0.065   2.922   3.792  1.1627  0.0821 -0.4828
 5215SOL    HW116544   0.068   2.915   3.692  1.0496  1.4688 -0.6106
 5215SOL    HW216545   0.134   2.989   3.822 -0.2475  1.2897  0.1661
 5216SOL     OW16546   6.047   2.021   3.353 -0.3005  0.2642 -0.1569
 5216SOL    HW116547   5.999   2.108   3.345  1.7758  1.5536  0.5542
 5216SOL    HW216548   5.981   1.946   3.350 -2.3638  1.9196  1.2095
 5217SOL     OW16549   5.191   1.203   2.166  0.0477  0.2517  0.1896
 5217SOL    HW116550   5.185   1.237   2.072 -2.4509 -0.6602 -0.0761
 5217SOL    HW216551   5.175   1.104   2.167 -3.2080  0.6354  1.7056
 5218SOL     OW16552   0.877   5.491   6.045 -0.0442  0.0226 -0.7272
 5218SOL    HW116553   0.958   5.514   5.991 -1.4813  4.0727 -1.5716
 5218SOL    HW216554   0.899   5.497   6.142  1.1864 -1.3795 -0.8937
 5219SOL     OW16555   4.097   3.675   2.901  0.0561 -0.7539  0.0714
 5219SOL    HW116556   4.075   3.602   2.837 -0.1834 -2.0592  1.5942
 5219SOL    HW216557   4.149   3.638   2.978 -2.0562  0.1700  2.0539
 5220SOL     OW16558   0.349   3.585   4.146 -0.0227 -0.1512 -0.2896
 5220SOL    HW116559   0.334   3.536   4.232 -0.1951  0.0022 -0.2313
 5220SOL    HW216560   0.266   3.634   4.121  0.6667  1.5708  0.5749
 5221SOL     OW16561   4.638   3.903   1.417  0.1298 -0.2045 -0.1706
 5221SOL    HW116562   4.612   3.979   1.476 -0.2538 -0.6335  0.2285
 5221SOL    HW216563   4.727   3.921   1.376 -0.7674  1.2980 -1.5736
 5222SOL     OW16564   1.674   5.981   6.842 -0.3585 -0.1998 -0.2236
 5222SOL    HW116565   1.631   5.895   6.814  0.3438 -0.5284 -0.3302
 5222SOL    HW216566   1.733   5.965   6.921  0.1247  0.0863 -0.5141
 5223SOL     OW16567   3.376   6.202   4.846 -0.5525 -0.0734 -0.2076
 5223SOL    HW116568   3.306   6.261   4.806 -0.8772 -0.4243 -0.1594
 5223SOL    HW216569   3.377   6.114   4.798 -0.6796 -0.3547  0.2972
 5224SOL     OW16570   3.810   1.858   2.297  0.0492 -0.1505  0.1679
 5224SOL    HW116571   3.806   1.958   2.300 -2.7783 -0.1969 -0.1540
 5224SOL    HW216572   3.725   1.821   2.260 -0.0078 -2.7813  2.5791
 5225SOL     OW16573   6.380   0.961   5.705 -0.4242  0.3146  0.1809
 5225SOL    HW116574   6.435   1.000   5.779  1.0375 -3.1068  1.1435
 5225SOL    HW216575   6.331   0.881   5.740  0.5493 -1.6309 -2.5644
 5226SOL     OW16576   1.421   5.930   2.011  0.8670  0.3168  0.0011
 5226SOL    HW116577   1.369   6.007   2.046  0.5571  0.2151 -0.2382
 5226SOL    HW216578   1.461   5.879   2.088  1.5099  1.0114  0.1438
 5227SOL     OW16579   3.232   1.151   0.512  0.3417  0.2959  0.2707
 5227SOL    HW116580   3.264   1.087   0.442  0.1712 -0.9309  1.2768
 5227SOL    HW216581   3.272   1.242   0.495  2.9445 -0.7329  0.4360
 5228SOL     OW16582   0.988   0.834   6.886 -0.6139 -0.2157 -0.4670
 5228SOL    HW116583   0.950   0.903   6.824 -0.4943 -0.1530 -0.4700
 5228SOL    HW216584   0.979   0.867   6.981 -0.6251 -0.2298 -0.4632
 5229SOL     OW16585   5.805   5.788   0.620 -0.4933  0.6491  0.1409
 5229SOL    HW116586   5.881   5.846   0.592 -0.1660  0.7394  1.1898
 5229SOL    HW216587   5.812   5.699   0.573  0.4499  0.5318  0.4843
 5230SOL     OW16588   1.352   5.469   6.022 -0.7879 -0.9246  0.4304
 5230SOL    HW116589   1.367   5.441   5.928 -0.4640 -1.6192  0.6808
 5230SOL    HW216590   1.258   5.450   6.048 -0.5638 -1.8332  0.6060
 5231SOL     OW16591   2.422   3.644   0.488 -0.7789 -0.2282 -0.2568
 5231SOL    HW116592   2.517   3.613   0.488 -0.6597  0.1300 -0.2322
 5231SOL    HW216593   2.420   3.744   0.481 -1.1289 -0.1731  0.4905
 5232SOL     OW16594   5.273   4.412   6.062 -0.1178  0.3836  0.3376
 5232SOL    HW116595   5.354   4.357   6.042  0.0753  0.5982  0.5237
 5232SOL    HW216596   5.259   4.415   6.161 -0.9241 -0.4706  0.2633
 5233SOL     OW16597   3.323   5.516   5.043 -0.0129  0.1890  0.6108
 5233SOL    HW116598   3.363   5.607   5.037  0.2214 -0.0009 -1.7820
 5233SOL    HW216599   3.238   5.520   5.095  1.4363  1.1854  3.0420
 5234SOL     OW16600   1.418   2.962   2.005  0.3899  0.2530  0.2532
 5234SOL    HW116601   1.382   2.963   2.098  1.4275  2.2695  0.6967
 5234SOL    HW216602   1.434   2.867   1.976 -0.0001 -0.4161  2.0963
 5235SOL     OW16603   1.052   6.318   0.974 -0.2916  0.5079  0.1340
 5235SOL    HW116604   1.032   6.231   0.930 -1.5754  0.6068  0.4869
 5235SOL    HW216605   0.967   6.370   0.986  0.3658  1.5282  0.5180
 5236SOL     OW16606   4.527   5.662   3.645 -0.3298 -0.3169  0.4212
 5236SOL    HW116607   4.530   5.660   3.545 -0.8058 -0.3734  0.4059
 5236SOL    HW216608   4.621   5.663   3.681 -0.0678 -2.8955  0.0318
 5237SOL     OW16609   3.957   6.578   2.539  0.2431  0.4672 -0.1622
 5237SOL    HW116610   3.983   6.670   2.569  0.7710  0.4243 -0.4804
 5237SOL    HW216611   3.897   6.585   2.460 -0.2432  0.5500  0.2073
 5238SOL     OW16612   2.395   5.634   3.374 -0.9376  0.0956  0.8562
 5238SOL    HW116613   2.366   5.702   3.307  0.2483  1.2977  1.5179
 5238SOL    HW216614   2.482   5.594   3.345 -2.9055 -3.2826 -0.9830
 5239SOL     OW16615   4.067   2.625   5.943  0.3476  0.1852 -0.0837
 5239SOL    HW116616   4.012   2.667   5.871  1.6015 -1.1449 -1.9106
 5239SOL    HW216617   4.090   2.694   6.012 -1.7848  1.2437 -0.3482
 5240SOL     OW16618   5.281   5.913   4.873  0.2517  0.0349 -0.0405
 5240SOL    HW116619   5.326   5.921   4.783 -0.8139  0.1033 -0.5814
 5240SOL    HW216620   5.199   5.856   4.864 -0.8323  1.4447  0.5070
 5241SOL     OW16621   4.309   5.194   3.587 -0.1566 -0.1807  0.3927
 5241SOL    HW116622   4.395   5.197   3.638 -0.2653  0.8481  0.5353
 5241SOL    HW216623   4.292   5.284   3.546 -0.1460 -0.9356 -1.3554
 5242SOL     OW16624   5.365   6.163   6.149  0.0676 -0.6166 -0.5093
 5242SOL    HW116625   5.274   6.173   6.107  0.2326  0.2616 -0.6752
 5242SOL    HW216626   5.370   6.075   6.197 -0.4226 -1.2671 -1.6019
 5243SOL     OW16627   0.367   4.850   3.711 -0.2898  0.4491  0.7396
 5243SOL    HW116628   0.288   4.824   3.767  0.5400 -1.4349  1.1319
 5243SOL    HW216629   0.420   4.920   3.759 -0.7969  0.4677  1.2803
 5244SOL     OW16630   5.513   4.101   3.459 -0.2451  0.2292 -0.0270
 5244SOL    HW116631   5.421   4.142   3.464 -0.0229  0.5934  1.5772
 5244SOL    HW216632   5.530   4.071   3.365 -1.5578  1.1881 -0.6203
 5245SOL     OW16633   0.693   6.844   1.687 -0.1944  0.4490 -0.1124
 5245SOL    HW116634   0.760   6.770   1.691 -0.4312  0.2262 -0.2315
 5245SOL    HW216635   0.639   6.844   1.771 -0.3075  0.3791 -0.1851
 5246SOL     OW16636   0.560   2.740   2.063 -0.4413 -0.0996 -0.0737
 5246SOL    HW116637   0.634   2.700   2.010 -0.8286 -0.7085 -0.1613
 5246SOL    HW216638   0.560   2.839   2.052 -1.1807 -0.2861 -2.0937
 5247SOL     OW16639   4.020   2.860   1.132  0.5691  0.3409 -0.5775
 5247SOL    HW116640   4.080   2.897   1.061  0.0473  1.3463 -0.5261
 5247SOL    HW216641   4.060   2.880   1.222  1.1276 -0.7492 -0.5732
 5248SOL     OW16642   4.504   5.962   6.967  0.2474 -0.1246 -0.2379
 5248SOL    HW116643   4.553   5.883   6.932  2.2004  0.7246  0.4202
 5248SOL    HW216644   4.484   6.026   6.893 -1.3909 -1.2016 -0.7801
 5249SOL     OW16645   6.940   3.085   4.387  0.2440  0.1269 -0.3504
 5249SOL    HW116646   7.006   3.050   4.454 -0.5407 -1.2033 -0.2473
 5249SOL    HW216647   6.872   3.015   4.367 -0.5201  1.1003 -1.2795
 5250SOL     OW16648   0.476   3.707   6.897 -0.0206  0.4441 -0.7228
 5250SOL    HW116649   0.549   3.773   6.914 -1.5758  1.5141  2.6098
 5250SOL    HW216650   0.496   3.622   6.946 -1.5271  1.2222  1.3637
 5251SOL     OW16651   4.231   0.764   2.518  0.2212  0.6240 -0.0428
 5251SOL    HW116652   4.169   0.686   2.529 -0.7348  1.3103 -0.4351
 5251SOL    HW216653   4.250   0.778   2.421 -0.3175  1.4016 -0.0485
 5252SOL     OW16654   3.160   6.716   3.424 -0.3377  0.4758  0.2518
 5252SOL    HW116655   3.183   6.770   3.343  0.5769  1.5214  1.1899
 5252SOL    HW216656   3.083   6.655   3.402 -0.6876  1.3754 -1.1325
 5253SOL     OW16657   3.633   4.583   0.188  0.1822 -0.5863  0.5507
 5253SOL    HW116658   3.600   4.677   0.178  0.2191 -0.5884  0.3966
 5253SOL    HW216659   3.556   4.520   0.188  0.2546 -0.8458 -2.6087
 5254SOL     OW16660   2.375   3.199   6.937  0.0226 -0.4749  0.4179
 5254SOL    HW116661   2.364   3.138   6.858 -0.5886  0.5275 -0.2987
 5254SOL    HW216662   2.287   3.241   6.958  0.1461 -0.8601  1.7627
 5255SOL     OW16663   3.946   0.526   3.867  0.3641  0.0454 -0.1719
 5255SOL    HW116664   4.035   0.555   3.901  1.0602  0.9455 -2.6288
 5255SOL    HW216665   3.957   0.444   3.811 -0.5070 -0.3186  0.1675
 5256SOL     OW16666   3.484   6.872   6.477 -0.2456 -0.0025 -0.0364
 5256SOL    HW116667   3.519   6.786   6.514 -1.8753 -1.0277 -0.7211
 5256SOL    HW216668   3.448   6.928   6.552  1.0812  0.2391  0.4468
 5257SOL     OW16669   5.937   3.674   6.969 -0.4373 -0.4129 -0.2335
 5257SOL    HW116670   5.972   3.621   7.047 -1.8049  1.1857  1.5837
 5257SOL    HW216671   5.998   3.752   6.953  0.4008 -1.2924 -1.4939
 5258SOL     OW16672   6.120   1.611   2.847 -0.0872  0.7778 -0.2301
 5258SOL    HW116673   6.176   1.631   2.767  1.9040 -0.0443  0.9010
 5258SOL    HW216674   6.164   1.541   2.902 -1.9123  0.6017  1.1007
 5259SOL     OW16675   3.526   4.117   2.952 -0.0674 -0.1580 -0.4322
 5259SOL    HW116676   3.626   4.126   2.942 -0.1708  0.0821 -1.3314
 5259SOL    HW216677   3.504   4.095   3.047  0.8330 -0.0497 -0.1889
 5260SOL     OW16678   3.114   2.034   3.025 -0.2923 -0.2565  0.2962
 5260SOL    HW116679   3.204   2.072   3.048 -1.4019  1.5247  2.0168
 5260SOL    HW216680   3.097   2.046   2.927  0.0994  2.3376  0.4663
 5261SOL     OW16681   6.294   1.831   6.575  0.6955  0.8436  0.0022
 5261SOL    HW116682   6.261   1.892   6.503  0.9365  0.2836 -0.5919
 5261SOL    HW216683   6.215   1.791   6.623  0.5336  0.7331 -0.3586
 5262SOL     OW16684   4.360   1.105   2.430 -0.2308 -0.3312  0.2489
 5262SOL    HW116685   4.428   1.172   2.460 -0.3149 -0.0818 -0.1005
 5262SOL    HW216686   4.394   1.013   2.447 -0.3516 -0.2003  1.2608
 5263SOL     OW16687   5.020   2.227   6.401  0.0666 -0.5258  0.4831
 5263SOL    HW116688   5.024   2.321   6.366 -0.7355 -0.2772  1.0388
 5263SOL    HW216689   5.095   2.214   6.467 -0.8447  0.2914  1.7279
 5264SOL     OW16690   5.413   2.519   3.584 -0.2325  0.1227  0.0194
 5264SOL    HW116691   5.403   2.583   3.508  1.0958  1.1259  0.6484
 5264SOL    HW216692   5.439   2.569   3.666  2.0560 -1.3019  0.2545
 5265SOL     OW16693   6.500   0.913   4.985  0.6766 -0.4566 -0.3164
 5265SOL    HW116694   6.497   1.002   5.032  0.6198  0.0053 -1.1817
 5265SOL    HW216695   6.582   0.908   4.929 -0.1121 -0.2919 -1.5233
 5266SOL     OW16696   1.591   5.980   6.069  0.0451 -0.2481  0.3356
 5266SOL    HW116697   1.604   5.898   6.125  0.3012 -1.0093 -0.8002
 5266SOL    HW216698   1.518   6.036   6.108 -0.3430 -1.1646  0.9662
 5267SOL     OW16699   1.125   4.508   4.435 -0.1507 -0.2648 -0.1065
 5267SOL    HW116700   1.135   4.424   4.489  0.1641  0.0524  0.3340
 5267SOL    HW216701   1.124   4.587   4.496  2.3667  0.2814 -0.6866
 5268SOL     OW16702   0.546   5.199   6.586  0.3673 -0.2690 -0.3714
 5268SOL    HW116703   0.483   5.251   6.529  0.0571 -0.2445 -0.0107
 5268SOL    HW216704   0.587   5.260   6.654 -2.6835 -1.0571  2.4475
 5269SOL     OW16705   5.670   2.132   6.140  0.6119  0.6038  0.1059
 5269SOL    HW116706   5.593   2.156   6.198  0.9487  0.0714  0.7816
 5269SOL    HW216707   5.717   2.053   6.178  1.9335  1.3695  0.0954
 5270SOL     OW16708   2.122   2.730   5.083  0.2722  0.3606  0.0195
 5270SOL    HW116709   2.168   2.750   5.170 -0.9073 -0.3060  0.8310
 5270SOL    HW216710   2.101   2.632   5.078 -0.1019  0.4759 -0.8007
 5271SOL     OW16711   0.789   1.125   1.929 -0.0658  0.8374 -0.8479
 5271SOL    HW116712   0.754   1.084   1.844 -0.5601 -2.3949  0.7687
 5271SOL    HW216713   0.716   1.175   1.975 -1.1191 -1.1851 -0.2137
 5272SOL     OW16714   3.632   6.625   1.460  0.3452  0.0338  0.3850
 5272SOL    HW116715   3.679   6.658   1.378  3.9184 -2.5988  1.1091
 5272SOL    HW216716   3.621   6.700   1.525 -1.7026  1.9540 -1.9699
 5273SOL     OW16717   3.724   5.398   6.997  0.8371  0.3252 -0.4398
 5273SOL    HW116718   3.700   5.303   6.980  0.3323 -0.0202  1.8868
 5273SOL    HW216719   3.647   5.457   6.972  0.9910  0.1115 -1.4702
 5274SOL     OW16720   0.693   2.426   1.480 -0.4722 -0.3576 -0.0220
 5274SOL    HW116721   0.739   2.346   1.520 -0.9296  0.0466  1.3842
 5274SOL    HW216722   0.735   2.510   1.515  0.5691  0.0747 -2.1457
 5275SOL     OW16723   4.033   4.862   2.153 -0.4017  0.2538  0.0234
 5275SOL    HW116724   4.109   4.918   2.120 -0.3749  0.7937  0.9549
 5275SOL    HW216725   3.971   4.842   2.078  0.3173  0.3679 -0.6087
 5276SOL     OW16726   5.184   5.445   0.561 -0.5088 -0.1141 -0.3689
 5276SOL    HW116727   5.189   5.499   0.645 -1.8061 -0.8587  0.1977
 5276SOL    HW216728   5.271   5.397   0.547  0.5686  1.8284 -0.7251
 5277SOL     OW16729   0.771   6.276   3.335  0.1125 -0.0628 -0.0146
 5277SOL    HW116730   0.743   6.254   3.429  1.7329 -1.0458  0.2907
 5277SOL    HW216731   0.735   6.206   3.273 -2.1590  1.3550 -0.3845
 5278SOL     OW16732   6.023   3.000   6.458 -0.3624  0.0556 -0.2896
 5278SOL    HW116733   5.955   2.993   6.531  0.9147  0.1457  0.9698
 5278SOL    HW216734   5.982   3.040   6.377 -2.0135 -0.6961  0.1370
 5279SOL     OW16735   1.952   3.664   1.649  0.1371  0.4923 -0.0245
 5279SOL    HW116736   1.886   3.643   1.720  0.8721 -0.5677  0.3717
 5279SOL    HW216737   1.917   3.737   1.591 -0.6533  1.0831  1.1657
 5280SOL     OW16738   6.828   4.072   4.296 -0.1741  0.1772  0.0969
 5280SOL    HW116739   6.848   4.119   4.382  0.2652 -1.1125  0.7228
 5280SOL    HW216740   6.911   4.070   4.240 -0.4339  0.9273 -0.3286
 5281SOL     OW16741   0.366   2.497   0.984 -0.5086 -0.2561  0.1677
 5281SOL    HW116742   0.436   2.430   0.962 -1.3277 -1.1961  0.3404
 5281SOL    HW216743   0.384   2.535   1.075  0.2834  0.2070 -0.1722
 5282SOL     OW16744   5.078   2.207   6.908  0.1289  0.1934 -0.7698
 5282SOL    HW116745   5.104   2.303   6.902 -0.3130  0.3740 -0.0043
 5282SOL    HW216746   5.139   2.160   6.972 -1.8773  0.8409  1.8181
 5283SOL     OW16747   0.781   0.906   6.641  0.1263  0.1777  0.3751
 5283SOL    HW116748   0.815   0.820   6.604 -0.2628 -0.3218  1.1361
 5283SOL    HW216749   0.681   0.908   6.633  0.1986  0.9421 -0.4237
 5284SOL     OW16750   4.590   5.887   4.572 -0.0259  0.1640  0.5370
 5284SOL    HW116751   4.499   5.902   4.609 -0.1964  0.5409 -0.0244
 5284SOL    HW216752   4.659   5.909   4.641 -0.3638 -0.5346  1.1034
 5285SOL     OW16753   5.019   4.235   6.300  0.3367 -0.1667  0.4028
 5285SOL    HW116754   4.995   4.324   6.337  0.3401  0.2409 -0.5431
 5285SOL    HW216755   5.114   4.236   6.268  0.0740 -0.2391 -0.3948
 5286SOL     OW16756   3.533   2.536   0.003 -0.1262 -0.1633 -0.0174
 5286SOL    HW116757   3.476   2.560   0.082 -0.2373 -2.2376  0.5716
 5286SOL    HW216758   3.600   2.609  -0.012 -2.1652  1.8164 -0.0495
 5287SOL     OW16759   0.862   7.012   1.548 -0.0088 -0.2485 -0.0297
 5287SOL    HW116760   0.860   6.934   1.486  2.2613 -0.2460 -0.2027
 5287SOL    HW216761   0.812   6.990   1.632  0.1850 -1.6974 -0.2729
 5288SOL     OW16762   3.072   5.593   2.361 -0.2794  0.0255 -0.2633
 5288SOL    HW116763   3.108   5.686   2.374  2.3244 -0.8203 -0.9123
 5288SOL    HW216764   3.026   5.563   2.444 -0.8306  1.7340  0.0908
 5289SOL     OW16765   0.747   0.671   6.997  0.2980  0.1348  0.0819
 5289SOL    HW116766   0.840   0.659   7.031  0.2223  1.0458  0.6364
 5289SOL    HW216767   0.718   0.765   7.010 -2.0716 -0.8676  3.5372
 5290SOL     OW16768   6.534   5.886   6.898  0.0078  0.3411 -0.0143
 5290SOL    HW116769   6.630   5.875   6.871  0.5863  2.7371  0.8325
 5290SOL    HW216770   6.496   5.966   6.852 -0.6301  1.2414  1.9760
 5291SOL     OW16771   1.218   0.053   2.854  0.0191  0.4443 -0.1908
 5291SOL    HW116772   1.174   0.141   2.876 -0.8027 -0.3268  1.4562
 5291SOL    HW216773   1.314   0.057   2.881  0.0992  0.9757 -0.5286
 5292SOL     OW16774   2.380   3.739   5.317 -0.0486 -0.2619  0.1181
 5292SOL    HW116775   2.462   3.695   5.353  0.6734 -0.2939 -1.4830
 5292SOL    HW216776   2.403   3.829   5.280 -1.1751  0.7213  1.6718
 5293SOL     OW16777   4.988   1.965   0.493 -0.7554  0.3819 -0.4373
 5293SOL    HW116778   4.934   1.887   0.525  0.2506 -0.6072 -1.0540
 5293SOL    HW216779   5.003   1.956   0.394  1.6583 -0.1316 -0.0799
 5294SOL     OW16780   6.023   2.664   6.768 -0.5834  0.0094 -0.2860
 5294SOL    HW116781   6.106   2.703   6.808 -0.6654 -0.1196  0.0145
 5294SOL    HW216782   5.963   2.737   6.736 -0.9016  0.1494  0.6016
 5295SOL     OW16783   2.091   4.869   3.014 -0.1239 -0.0559 -0.2307
 5295SOL    HW116784   2.133   4.948   2.971  1.4698 -0.8008 -0.1281
 5295SOL    HW216785   2.123   4.785   2.970 -1.6406 -0.6757 -0.2298
 5296SOL     OW16786   1.325   4.293   5.412 -0.0741  1.0463 -0.4725
 5296SOL    HW116787   1.314   4.392   5.401 -1.4401  1.1130  1.0555
 5296SOL    HW216788   1.241   4.247   5.386  0.2176  0.3696 -0.2448
 5297SOL     OW16789   6.433   1.905   6.293  0.7898  0.2391  0.0564
 5297SOL    HW116790   6.447   1.808   6.315 -0.3096  0.2985  1.1445
 5297SOL    HW216791   6.495   1.961   6.348 -0.1754  0.2551  1.1507
 5298SOL     OW16792   5.517   1.816   5.872 -0.0785 -0.0036  0.5252
 5298SOL    HW116793   5.558   1.907   5.877  2.6857 -0.8701 -2.3644
 5298SOL    HW216794   5.430   1.821   5.824  0.9691  0.9914 -1.3904
 5299SOL     OW16795   2.604   5.453   4.762 -0.1495 -0.5472 -0.0856
 5299SOL    HW116796   2.514   5.409   4.753 -0.9937  0.8504  1.2170
 5299SOL    HW216797   2.605   5.512   4.842  1.4875  0.5667 -0.8706
 5300SOL     OW16798   6.975   6.865   2.103  0.3444 -1.0505  0.2706
 5300SOL    HW116799   7.023   6.843   2.188  0.5266  1.0482  0.7720
 5300SOL    HW216800   7.039   6.861   2.027  0.4696 -1.6969  0.3973
 5301SOL     OW16801   3.070   0.454   6.970 -0.0398 -0.1441  0.2541
 5301SOL    HW116802   3.010   0.511   7.026 -0.0939  2.2168 -2.0130
 5301SOL    HW216803   3.030   0.443   6.879  1.6512 -0.8707 -0.4354
 5302SOL     OW16804   3.987   6.354   5.616  0.6735 -0.5533 -0.5249
 5302SOL    HW116805   3.924   6.338   5.540 -1.1303  1.6929  0.3827
 5302SOL    HW216806   3.940   6.338   5.702  2.0138 -0.8601  0.1800
 5303SOL     OW16807   4.569   1.522   1.191 -0.3977  0.0065 -0.3837
 5303SOL    HW116808   4.564   1.428   1.160 -0.0296  0.2060 -1.0535
 5303SOL    HW216809   4.509   1.579   1.135  2.0059  0.7856 -2.3576
 5304SOL     OW16810   6.815   1.166   1.349  0.8509  0.0586 -0.4129
 5304SOL    HW116811   6.808   1.196   1.445  1.0715  0.9721 -0.6697
 5304SOL    HW216812   6.723   1.158   1.310  0.7923  1.4805 -0.6401
 5305SOL     OW16813   5.606   6.316   6.959 -0.3398 -0.4213 -0.3754
 5305SOL    HW116814   5.637   6.232   6.915  2.3193  0.5278 -0.4590
 5305SOL    HW216815   5.556   6.373   6.893  1.3739 -0.1570 -1.4890
 5306SOL     OW16816   2.132   3.310   5.043  0.2523  0.0176 -0.3336
 5306SOL    HW116817   2.189   3.268   5.114  0.2963  0.7432  0.0700
 5306SOL    HW216818   2.190   3.340   4.967  0.9378  3.4270  1.3198
 5307SOL     OW16819   6.822   6.847   6.725 -0.3355 -0.5347  0.4834
 5307SOL    HW116820   6.798   6.912   6.653 -1.1596 -0.3195  0.9426
 5307SOL    HW216821   6.825   6.755   6.687  0.3914 -0.2904 -0.0737
 5308SOL     OW16822   0.502   4.004   1.666  0.1009  0.7935 -0.3847
 5308SOL    HW116823   0.592   3.961   1.666  0.1703  0.9371 -0.5590
 5308SOL    HW216824   0.504   4.086   1.609 -0.0861  0.9130 -0.2226
 5309SOL     OW16825   4.947   2.726   2.341  0.1392  0.8520 -0.3231
 5309SOL    HW116826   4.891   2.774   2.274 -0.0037  1.3318  0.1291
 5309SOL    HW216827   5.038   2.767   2.343  0.4743  0.1473 -0.9766
 5310SOL     OW16828   6.106   6.356   0.236  0.3450  0.4699  0.2012
 5310SOL    HW116829   6.012   6.322   0.222  0.6797  0.0947 -1.2163
 5310SOL    HW216830   6.166   6.317   0.167  1.0476  2.8182 -0.6069
 5311SOL     OW16831   2.888   4.304   6.809  0.3682 -0.3187  0.3787
 5311SOL    HW116832   2.974   4.351   6.790  0.6144 -0.2657  1.5831
 5311SOL    HW216833   2.906   4.219   6.859 -0.2164 -0.7896 -0.1744
 5312SOL     OW16834   5.731   2.951   6.083 -0.3366  0.6025 -0.6426
 5312SOL    HW116835   5.730   2.980   5.987  0.0106 -0.9526 -1.1476
 5312SOL    HW216836   5.679   2.866   6.092 -2.6133  2.0740  1.0384
 5313SOL     OW16837   0.707   2.411   3.025  0.3013  0.5307 -0.3081
 5313SOL    HW116838   0.696   2.458   2.937 -2.7706 -0.9753 -0.8551
 5313SOL    HW216839   0.647   2.453   3.093  0.9072  0.2040  0.4458
 5314SOL     OW16840   3.023   1.733   2.991  0.1929 -0.5147 -0.2028
 5314SOL    HW116841   3.063   1.706   2.904 -0.7078  1.3022 -1.2339
 5314SOL    HW216842   2.999   1.830   2.988  2.0765  0.1951  2.8031
 5315SOL     OW16843   4.110   6.905   1.068  0.5182 -0.7837 -0.4683
 5315SOL    HW116844   4.102   6.813   1.029 -0.1948 -0.8037 -0.2755
 5315SOL    HW216845   4.135   6.898   1.164 -1.5237 -0.8498  0.0950
 5316SOL     OW16846   6.550   0.601   3.522 -0.4564 -0.6125 -0.1728
 5316SOL    HW116847   6.601   0.529   3.569  0.0971  0.5853  1.1317
 5316SOL    HW216848   6.459   0.567   3.496 -0.9912 -1.2108  2.2490
 5317SOL     OW16849   1.493   6.644   5.903 -0.1325 -0.2742  0.2199
 5317SOL    HW116850   1.395   6.648   5.925 -0.3334 -1.5185 -0.3721
 5317SOL    HW216851   1.506   6.661   5.806  0.2924  0.2894  0.3699
 5318SOL     OW16852   0.257   5.620   3.528 -0.1669 -0.2295 -0.0970
 5318SOL    HW116853   0.280   5.710   3.492 -0.9557 -0.5913 -1.5843
 5318SOL    HW216854   0.244   5.556   3.452 -2.3425 -0.9330  0.7958
 5319SOL     OW16855   6.420   0.635   0.736 -0.1348  0.6193  0.1059
 5319SOL    HW116856   6.488   0.569   0.706 -0.1370  1.4277 -1.8517
 5319SOL    HW216857   6.379   0.680   0.656 -3.4827 -0.2977  1.1290
 5320SOL     OW16858   6.274   2.809   1.850 -0.4272 -0.2983  0.1901
 5320SOL    HW116859   6.210   2.796   1.926  1.1574 -1.7286  1.3412
 5320SOL    HW216860   6.340   2.880   1.875  0.4591 -1.1944  0.4010
 5321SOL     OW16861   1.157   3.103   1.316  0.1437  0.6008 -0.7325
 5321SOL    HW116862   1.210   3.065   1.391  0.2038 -0.5574 -1.3488
 5321SOL    HW216863   1.197   3.191   1.288  0.2736  0.9132  0.3955
 5322SOL     OW16864   2.230   3.087   6.737  0.0431  0.0242 -0.4446
 5322SOL    HW116865   2.240   3.000   6.690 -0.0481  0.9254 -2.2264
 5322SOL    HW216866   2.135   3.099   6.766 -0.2339  0.0593 -1.3321
 5323SOL     OW16867   1.195   0.420   0.369  0.4061  0.0046 -0.0110
 5323SOL    HW116868   1.238   0.499   0.326 -2.2297  0.7859 -1.4649
 5323SOL    HW216869   1.206   0.426   0.468  2.5982  0.6829 -0.2447
 5324SOL     OW16870   0.784   6.648   2.286  0.5114 -0.3660 -0.6474
 5324SOL    HW116871   0.793   6.557   2.328 -0.6809 -0.0405  0.3547
 5324SOL    HW216872   0.693   6.657   2.245  1.0049  0.0094 -1.7064
 5325SOL     OW16873   6.642   1.974   3.060  0.4582  0.3885 -0.1347
 5325SOL    HW116874   6.595   2.061   3.046  1.2950  0.8530 -0.1423
 5325SOL    HW216875   6.726   1.973   3.006 -0.8263 -1.5042 -2.2924
 5326SOL     OW16876   6.588   2.720   6.548  0.1780  0.3526 -0.6025
 5326SOL    HW116877   6.622   2.647   6.489  2.2736  0.5125  0.2932
 5326SOL    HW216878   6.489   2.725   6.542  0.1891 -0.8511 -2.6468
 5327SOL     OW16879   3.714   4.737   1.621  0.0503  0.0112  0.4562
 5327SOL    HW116880   3.798   4.686   1.603 -0.6789 -1.1928  0.4063
 5327SOL    HW216881   3.657   4.687   1.686 -0.6172  0.8312  0.5243
 5328SOL     OW16882   1.954   2.862   6.569  0.0007  0.4788 -0.1153
 5328SOL    HW116883   2.043   2.844   6.611 -0.2285  0.6935  0.4724
 5328SOL    HW216884   1.942   2.803   6.489  0.5831  0.3048 -0.0772
 5329SOL     OW16885   3.137   6.444   3.650 -0.3988  0.0500 -0.2392
 5329SOL    HW116886   3.152   6.493   3.564  1.6567 -0.1943 -0.0578
 5329SOL    HW216887   3.071   6.370   3.635 -0.3356  0.2279 -1.5254
 5330SOL     OW16888   6.313   6.128   4.875  0.1158  0.2135 -0.2065
 5330SOL    HW116889   6.268   6.075   4.947 -0.3069  0.9850  0.1088
 5330SOL    HW216890   6.409   6.143   4.899 -0.5840  2.5414  1.4286
 5331SOL     OW16891   6.077   6.391   1.787 -0.1750 -0.1936  0.0236
 5331SOL    HW116892   6.169   6.363   1.815 -0.5831  0.1601  1.8176
 5331SOL    HW216893   6.023   6.414   1.868 -2.2632 -1.5736 -0.9008
 5332SOL     OW16894   0.090   4.842   3.764 -0.3781  0.6332  0.1350
 5332SOL    HW116895   0.032   4.763   3.744 -1.0458  0.0060  3.7866
 5332SOL    HW216896   0.034   4.916   3.802  0.5375  2.1445 -1.3185
 5333SOL     OW16897   1.483   2.554   4.652  0.0828  0.3625 -0.2029
 5333SOL    HW116898   1.517   2.471   4.696  0.8878  1.0694  0.5453
 5333SOL    HW216899   1.428   2.607   4.717  0.3238  0.8512 -0.3891
 5334SOL     OW16900   4.759   6.017   0.553  0.2311  0.1639  0.0617
 5334SOL    HW116901   4.777   6.042   0.648  0.3796  0.4486 -0.0400
 5334SOL    HW216902   4.696   6.084   0.512  1.2994  0.8796 -0.4655
 5335SOL     OW16903   5.787   5.573   0.827 -0.1808 -0.4878  0.3159
 5335SOL    HW116904   5.722   5.534   0.893 -0.1052 -0.5605  0.3476
 5335SOL    HW216905   5.828   5.656   0.865 -1.2357  0.3013 -0.2334
 5336SOL     OW16906   0.405   3.973   4.508 -0.0592 -0.1556 -0.0364
 5336SOL    HW116907   0.358   3.898   4.554  1.4990 -2.0056 -1.2606
 5336SOL    HW216908   0.354   4.058   4.520 -1.5216 -1.2474  2.0191
 5337SOL     OW16909   5.182   3.548   6.861  0.0886  0.3289  0.4014
 5337SOL    HW116910   5.120   3.520   6.935  0.2974  1.1580  0.8984
 5337SOL    HW216911   5.232   3.629   6.889 -1.8110  2.3539 -1.6964
 5338SOL     OW16912   1.494   3.581   2.937 -0.1404  0.2384  0.1906
 5338SOL    HW116913   1.445   3.627   3.011  0.9354  1.7902 -0.0127
 5338SOL    HW216914   1.592   3.584   2.955  0.2033  1.2784 -1.6054
 5339SOL     OW16915   6.956   3.336   2.592  0.1657 -0.2307  0.1803
 5339SOL    HW116916   6.888   3.271   2.626 -0.2751 -0.3677 -0.9219
 5339SOL    HW216917   6.947   3.422   2.641  0.2473 -0.7374  1.1227
 5340SOL     OW16918   6.141   6.853   1.379 -0.0644 -0.0958  0.2133
 5340SOL    HW116919   6.230   6.896   1.393  1.0411 -1.3673 -2.2981
 5340SOL    HW216920   6.102   6.885   1.292 -0.1256 -2.5321 -0.7327
 5341SOL     OW16921   4.369   2.894   6.964  0.2044 -0.8731  0.4019
 5341SOL    HW116922   4.321   2.812   6.933 -0.9804 -0.9662  2.3397
 5341SOL    HW216923   4.395   2.884   7.060  1.6044  0.3506  0.1954
 5342SOL     OW16924   2.758   4.018   0.020 -0.3554 -0.0970  0.3043
 5342SOL    HW116925   2.783   3.962  -0.059  0.0444  1.3133 -0.6058
 5342SOL    HW216926   2.830   4.011   0.089  1.1738  1.5068 -1.0213
 5343SOL     OW16927   1.126   5.351   2.548 -0.3991  0.4974 -0.1178
 5343SOL    HW116928   1.209   5.406   2.550 -1.2451  1.8198  0.2097
 5343SOL    HW216929   1.082   5.353   2.638 -0.3280 -0.9478 -0.0220
 5344SOL     OW16930   4.509   4.392   6.986 -0.0666 -0.0904  0.0026
 5344SOL    HW116931   4.454   4.381   7.068 -0.0336 -3.0554 -0.2845
 5344SOL    HW216932   4.606   4.398   7.011 -0.1506  0.3103  0.2383
 5345SOL     OW16933   6.929   5.861   5.503  0.6766  0.3033 -0.1110
 5345SOL    HW116934   6.965   5.939   5.555 -2.0084  2.1436 -0.8334
 5345SOL    HW216935   6.830   5.856   5.515  0.3010 -0.7927 -2.9896
 5346SOL     OW16936   1.163   0.863   4.592 -0.5494  0.5467  0.1058
 5346SOL    HW116937   1.147   0.772   4.629 -1.7192  0.3783 -0.7870
 5346SOL    HW216938   1.224   0.913   4.654  0.3129 -0.9009  0.4824
 5347SOL     OW16939   5.368   2.467   2.909  0.0477 -0.1899 -0.5225
 5347SOL    HW116940   5.273   2.497   2.925  0.7453  1.0015  1.9238
 5347SOL    HW216941   5.404   2.513   2.829 -0.8753  0.8151 -0.3974
 5348SOL     OW16942   1.633   4.890   2.772 -0.0854  0.0938 -0.0578
 5348SOL    HW116943   1.713   4.889   2.831  0.0860 -1.1934 -0.2899
 5348SOL    HW216944   1.617   4.983   2.739  1.5025  0.3108 -0.2694
 5349SOL     OW16945   4.371   5.192   1.108  0.5276 -0.3266  0.2416
 5349SOL    HW116946   4.346   5.288   1.095  2.0529  0.2217  1.1677
 5349SOL    HW216947   4.422   5.160   1.028  1.6067  0.1945  0.7080
 5350SOL     OW16948   6.567   0.983   1.134  0.0820 -0.6581 -0.1729
 5350SOL    HW116949   6.647   0.925   1.118 -0.4987 -0.8841 -2.6454
 5350SOL    HW216950   6.550   1.040   1.053 -2.7251 -1.2270 -0.0961
 5351SOL     OW16951   0.355   0.495   2.296  0.7602 -0.2545 -0.5487
 5351SOL    HW116952   0.272   0.505   2.242  1.0241 -1.0214 -1.1125
 5351SOL    HW216953   0.344   0.421   2.362  0.6490  0.2965  0.0695
 5352SOL     OW16954   0.712   1.533   2.181  0.2273  0.4469 -0.0165
 5352SOL    HW116955   0.735   1.542   2.084  2.1176  1.8736  0.5022
 5352SOL    HW216956   0.740   1.616   2.230 -2.1027  0.4130  1.5227
 5353SOL     OW16957   4.055   2.682   5.374 -0.0177 -0.4557 -0.2883
 5353SOL    HW116958   4.038   2.768   5.326 -1.0163 -0.4009  0.1530
 5353SOL    HW216959   4.094   2.615   5.309 -0.2716 -0.0225 -0.8933
 5354SOL     OW16960   5.609   1.414   1.808 -0.2997  0.6481 -0.3327
 5354SOL    HW116961   5.669   1.349   1.761 -1.2261 -1.7111  1.5534
 5354SOL    HW216962   5.662   1.464   1.877 -0.1514 -0.2551  0.2239
 5355SOL     OW16963   6.048   2.082   4.928  0.8466  0.4738 -0.0539
 5355SOL    HW116964   6.118   2.138   4.884  0.4406  0.8349 -0.2415
 5355SOL    HW216965   6.085   1.991   4.946  1.1651  0.4563 -0.7474
 5356SOL     OW16966   4.851   4.274   3.190 -0.0852 -0.0893  0.1756
 5356SOL    HW116967   4.767   4.301   3.143 -0.2759  0.0781  0.6125
 5356SOL    HW216968   4.883   4.349   3.248 -0.0745 -0.4466  0.6342
 5357SOL     OW16969   6.978   2.924   6.080 -0.3165 -0.5968 -0.2020
 5357SOL    HW116970   7.036   3.005   6.091 -0.2019 -0.6186 -0.6368
 5357SOL    HW216971   6.898   2.948   6.025 -0.1416 -0.8411 -0.5711
 5358SOL     OW16972   2.314   6.473   0.207 -0.4459 -0.4851  0.0047
 5358SOL    HW116973   2.278   6.380   0.217  1.2222 -1.1947 -0.2410
 5358SOL    HW216974   2.359   6.482   0.118  0.0014  0.3406  0.3029
 5359SOL     OW16975   6.270   6.317   3.576 -0.5365 -0.2228 -0.1698
 5359SOL    HW116976   6.231   6.231   3.544  0.2258 -0.5229 -0.3023
 5359SOL    HW216977   6.361   6.329   3.537 -0.1645  0.0930  0.7761
 5360SOL     OW16978   2.690   1.773   6.703 -0.1055  0.2605  0.3013
 5360SOL    HW116979   2.628   1.840   6.744  0.1078  0.9813 -0.5272
 5360SOL    HW216980   2.773   1.819   6.672  1.0017 -0.7282  1.6461
 5361SOL     OW16981   4.367   3.289   0.423 -0.6921 -0.1440 -0.0909
 5361SOL    HW116982   4.310   3.366   0.452 -0.3746 -0.0508  0.2901
 5361SOL    HW216983   4.335   3.206   0.467 -1.2405 -0.2958 -0.7532
 5362SOL     OW16984   4.223   4.237   1.650  0.8159  0.4273  0.5104
 5362SOL    HW116985   4.292   4.253   1.721  0.2420  3.6868  0.4482
 5362SOL    HW216986   4.132   4.248   1.690  0.4715  1.5689 -0.5639
 5363SOL     OW16987   5.203   5.843   2.998 -0.1262 -0.5118 -0.3559
 5363SOL    HW116988   5.168   5.750   2.985 -1.2712 -0.0818 -0.4444
 5363SOL    HW216989   5.136   5.897   3.050  0.6661  0.1803 -0.0362
 5364SOL     OW16990   3.756   4.600   0.593  0.4457  0.1196  0.2749
 5364SOL    HW116991   3.678   4.661   0.601  0.1589 -0.3476  1.2034
 5364SOL    HW216992   3.737   4.514   0.642  0.9599 -0.5974 -0.7370
 5365SOL     OW16993   1.833   2.536   4.837  0.8195  0.1594  0.2351
 5365SOL    HW116994   1.914   2.560   4.783 -0.0532  2.8254  0.0074
 5365SOL    HW216995   1.753   2.534   4.777  0.6079 -2.3102  0.4886
 5366SOL     OW16996   5.509   1.759   6.857  0.1428 -0.2879  0.2781
 5366SOL    HW116997   5.599   1.798   6.839 -0.2075  0.4695  0.1492
 5366SOL    HW216998   5.517   1.687   6.926  0.7834  0.0697  0.5856
 5367SOL     OW16999   2.920   6.742   6.058  0.3166 -0.0003  0.2937
 5367SOL    HW117000   2.883   6.650   6.069 -1.1976  0.2705 -1.9234
 5367SOL    HW217001   3.002   6.739   6.001 -0.4011  0.1150 -0.7660
 5368SOL     OW17002   1.989   1.270   6.706 -0.2665 -0.3622 -0.3634
 5368SOL    HW117003   2.088   1.273   6.694 -0.1811 -0.0678  0.3502
 5368SOL    HW217004   1.953   1.363   6.710 -0.2039 -0.3872  2.0626
 5369SOL     OW17005   1.154   2.636   3.660  0.2730  0.1775 -0.3123
 5369SOL    HW117006   1.163   2.678   3.570 -0.0949  1.3845  0.1892
 5369SOL    HW217007   1.057   2.627   3.683  0.3617 -0.2387 -0.0888
 5370SOL     OW17008   3.271   5.866   3.962  0.3705  0.5038  0.6092
 5370SOL    HW117009   3.291   5.951   4.012  3.1944  0.4872 -0.3321
 5370SOL    HW217010   3.268   5.790   4.027  2.7357  0.6686  1.0337
 5371SOL     OW17011   5.897   4.733   2.838 -0.0266 -0.0153  0.1026
 5371SOL    HW117012   5.826   4.669   2.808 -1.9520  1.7685  0.5926
 5371SOL    HW217013   5.962   4.686   2.897 -0.2771 -1.9127 -1.0617
 5372SOL     OW17014   4.607   0.193   1.290 -1.0148  0.0722 -0.3909
 5372SOL    HW117015   4.634   0.213   1.384 -3.1092  0.6163  0.1395
 5372SOL    HW217016   4.630   0.099   1.267  0.1530  0.1463  0.4069
 5373SOL     OW17017   6.993   4.772   2.551  0.0157  0.0350  0.5850
 5373SOL    HW117018   7.085   4.732   2.551 -0.4206 -0.9892  0.6265
 5373SOL    HW217019   6.928   4.705   2.587 -1.1414 -0.1553 -1.7379
 5374SOL     OW17020   5.116   5.905   0.791  0.3724  0.3163 -0.1172
 5374SOL    HW117021   5.025   5.886   0.753  1.8218 -2.2563 -2.7295
 5374SOL    HW217022   5.133   6.004   0.787 -1.7530  0.7171 -0.8540
 5375SOL     OW17023   0.775   3.382   4.727 -0.4749  0.5464  0.5845
 5375SOL    HW117024   0.852   3.401   4.788 -0.2609  0.0073  0.4916
 5375SOL    HW217025   0.806   3.384   4.632 -1.2599  3.6274  0.3108
 5376SOL     OW17026   1.072   4.030   6.608 -0.3963  0.7134  0.2529
 5376SOL    HW117027   1.138   4.105   6.623  0.1080  0.1655  0.8795
 5376SOL    HW217028   1.026   4.010   6.694 -0.4441  0.2283  0.1146
 5377SOL     OW17029   4.856   3.785   0.840 -0.2042  0.6917  0.7691
 5377SOL    HW117030   4.939   3.735   0.866 -0.9949  0.1879  2.4777
 5377SOL    HW217031   4.797   3.797   0.921 -1.7469  1.1385 -0.3680
 5378SOL     OW17032   5.377   1.166   3.785 -0.8793  0.4035 -0.3642
 5378SOL    HW117033   5.338   1.240   3.840 -0.9580 -0.2492  0.4582
 5378SOL    HW217034   5.447   1.205   3.724  1.0426  0.8249  1.9328
 5379SOL     OW17035   3.891   4.889   5.748  0.1621  0.0033  0.3155
 5379SOL    HW117036   3.886   4.791   5.731  0.4169  0.1578 -0.7750
 5379SOL    HW217037   3.976   4.925   5.708 -0.2513  0.7660  0.1014
 5380SOL     OW17038   5.337   3.282   1.055  0.1701 -0.0749 -0.0350
 5380SOL    HW117039   5.427   3.318   1.080 -0.1418  0.6894  0.0037
 5380SOL    HW217040   5.348   3.213   0.983  0.7843 -0.0283  0.0051
 5381SOL     OW17041   2.830   1.012   4.397  0.1693  0.2189 -0.0230
 5381SOL    HW117042   2.730   1.007   4.401  0.2431 -0.7831  1.8011
 5381SOL    HW217043   2.866   0.924   4.363  0.4681  0.0913  0.6192
 5382SOL     OW17044   1.646   4.781   0.993 -0.3331 -0.0213 -0.0539
 5382SOL    HW117045   1.597   4.854   1.042 -1.1765 -1.4503  1.3064
 5382SOL    HW217046   1.582   4.707   0.973  0.2686  0.0011 -2.3330
 5383SOL     OW17047   3.510   5.742   0.507  0.3812 -0.2283  0.1445
 5383SOL    HW117048   3.453   5.815   0.544  0.5510 -0.4113  0.7829
 5383SOL    HW217049   3.590   5.781   0.462  0.1760  0.0010 -0.0170
 5384SOL     OW17050   6.318   0.523   6.705  0.5170  0.3420 -0.4364
 5384SOL    HW117051   6.312   0.425   6.689  4.8047 -0.0754 -0.7795
 5384SOL    HW217052   6.305   0.542   6.802 -2.7785 -0.1088 -0.6789
 5385SOL     OW17053   3.775   5.167   1.184  0.6949  0.4378 -1.0562
 5385SOL    HW117054   3.848   5.195   1.247  1.5543 -3.6670  0.1283
 5385SOL    HW217055   3.687   5.174   1.231  0.7252  1.9994 -1.1944
 5386SOL     OW17056   2.777   6.218   1.142  0.3077 -0.1418  0.0612
 5386SOL    HW117057   2.722   6.145   1.182 -1.4404  1.4001  0.5997
 5386SOL    HW217058   2.749   6.232   1.047 -0.9283  1.2229  0.5864
 5387SOL     OW17059   6.205   2.453   0.892  0.2533  0.5294  0.3517
 5387SOL    HW117060   6.295   2.412   0.906 -0.2565 -0.1132  2.1293
 5387SOL    HW217061   6.150   2.394   0.832  0.7968  0.6073 -0.2309
 5388SOL     OW17062   5.507   5.944   5.585 -0.0154  0.5226  0.1292
 5388SOL    HW117063   5.451   5.881   5.531  0.3755  1.0991 -0.9809
 5388SOL    HW217064   5.456   6.028   5.602 -0.7668 -0.2872  2.1351
 5389SOL     OW17065   6.600   2.748   4.831 -0.1811 -0.3575  0.0025
 5389SOL    HW117066   6.680   2.763   4.889  1.0039  1.9368 -2.0284
 5389SOL    HW217067   6.573   2.652   4.836  3.1255 -1.4021  0.3536
 5390SOL     OW17068   0.004   4.255   3.383 -0.2182  0.1710 -0.0563
 5390SOL    HW117069  -0.040   4.216   3.303 -1.1519 -0.1567  0.5985
 5390SOL    HW217070   0.015   4.354   3.371 -1.1414  0.2597 -0.2419
 5391SOL     OW17071   1.176   2.836   0.387  0.0474  0.8769 -0.0748
 5391SOL    HW117072   1.083   2.860   0.417  0.5463  0.2472  2.1878
 5391SOL    HW217073   1.173   2.754   0.330 -0.7856  0.8102  0.0549
 5392SOL     OW17074   6.380   6.697   3.327 -0.5913 -0.0299  0.0669
 5392SOL    HW117075   6.368   6.792   3.298  0.5990  0.1980  0.2497
 5392SOL    HW217076   6.352   6.635   3.253 -0.4497  0.4828 -0.4228
 5393SOL     OW17077   6.935   1.313   0.497  0.2425 -0.2710  0.5755
 5393SOL    HW117078   6.925   1.221   0.458 -1.6058  0.1139  0.0742
 5393SOL    HW217079   6.888   1.318   0.585  0.3236  0.2153  0.5941
 5394SOL     OW17080   0.660   3.993   4.738  0.1568  0.2377 -0.2976
 5394SOL    HW117081   0.640   3.931   4.663 -1.2600  0.0928  0.1640
 5394SOL    HW217082   0.590   4.065   4.741  0.5836  0.6356  0.4686
 5395SOL     OW17083   0.639   1.857   2.468 -0.5259  0.0889 -0.4593
 5395SOL    HW117084   0.722   1.897   2.507 -1.9328  1.6525  1.0827
 5395SOL    HW217085   0.650   1.850   2.369  1.4985  0.0688 -0.2823
 5396SOL     OW17086   6.914   6.434   2.645 -0.1103  0.1695 -0.4760
 5396SOL    HW117087   6.821   6.408   2.673 -0.0702 -0.6148 -1.0434
 5396SOL    HW217088   6.979   6.364   2.675  0.5279  1.4426  1.2483
 5397SOL     OW17089   1.033   3.816   4.058  0.5174 -0.2187  0.2500
 5397SOL    HW117090   1.012   3.905   4.018 -0.7900 -1.0858 -1.0879
 5397SOL    HW217091   1.074   3.829   4.148 -1.4255  1.7114  0.9397
 5398SOL     OW17092   5.818   3.119   5.298  0.0437 -0.5421 -0.0511
 5398SOL    HW117093   5.776   3.105   5.209  0.6005 -0.6190 -0.3056
 5398SOL    HW217094   5.824   3.217   5.318 -0.3623 -0.5357  0.0399
 5399SOL     OW17095   1.286   5.820   1.201 -0.1120  0.3572 -0.3648
 5399SOL    HW117096   1.318   5.914   1.193  0.6393  0.0491 -1.2399
 5399SOL    HW217097   1.243   5.806   1.289 -0.0131  1.4606 -0.1372
 5400SOL     OW17098   5.475   2.722   6.490 -0.0700 -0.0413  0.0318
 5400SOL    HW117099   5.405   2.728   6.561 -0.1026 -0.9316  0.0978
 5400SOL    HW217100   5.554   2.776   6.516 -0.6939  0.8971  0.0044
 5401SOL     OW17101   1.930   3.555   2.597  0.6200  0.0718  0.7081
 5401SOL    HW117102   1.907   3.524   2.504  0.5344  1.0132  0.4090
 5401SOL    HW217103   1.952   3.475   2.653 -0.5635 -0.6363  0.2254
 5402SOL     OW17104   6.026   6.811   4.657  0.1506 -0.0673 -0.1514
 5402SOL    HW117105   5.946   6.755   4.636 -0.1652  0.7003 -1.0892
 5402SOL    HW217106   6.076   6.771   4.734 -0.3348 -1.3404 -0.4760
 5403SOL     OW17107   6.459   0.745   2.179  0.8485 -0.3434 -0.0221
 5403SOL    HW117108   6.492   0.740   2.085  1.0007 -0.2401  0.0251
 5403SOL    HW217109   6.516   0.687   2.238  2.1294  1.2598  0.3901
 5404SOL     OW17110   1.153   1.200   5.333 -0.2247 -0.0974  0.1450
 5404SOL    HW117111   1.109   1.200   5.243  1.7030 -1.5847 -0.8727
 5404SOL    HW217112   1.232   1.260   5.331  1.0683 -1.7405  0.1470
 5405SOL     OW17113   2.293   0.602   3.628 -0.1074 -0.0377  0.2244
 5405SOL    HW117114   2.373   0.610   3.569  0.9403 -1.2014  1.4229
 5405SOL    HW217115   2.234   0.528   3.595  1.4054 -1.9607  1.5717
 5406SOL     OW17116   6.201   0.117   2.243 -0.0732  0.2765 -0.6906
 5406SOL    HW117117   6.172   0.208   2.272  1.2351  1.4113 -2.7002
 5406SOL    HW217118   6.296   0.120   2.212  1.1848 -2.5220  2.2926
 5407SOL     OW17119   3.719   5.856   3.962  0.2035 -0.1993 -0.1870
 5407SOL    HW117120   3.647   5.828   4.026  0.2632  0.3077  0.1163
 5407SOL    HW217121   3.704   5.952   3.936 -0.5499 -0.7458 -1.9363
 5408SOL     OW17122   0.746   0.964   3.363 -0.3321 -0.1503 -0.6325
 5408SOL    HW117123   0.673   0.951   3.430  0.7386 -1.4645  0.3435
 5408SOL    HW217124   0.727   1.045   3.308 -0.6315  1.7588  2.0890
 5409SOL     OW17125   6.154   0.147   2.956 -0.1460  0.2502 -0.7016
 5409SOL    HW117126   6.099   0.127   3.037 -2.2435 -1.0373 -2.3598
 5409SOL    HW217127   6.145   0.244   2.933  1.0224  0.8028  0.9070
 5410SOL     OW17128   4.448   4.103   0.104  0.1808  0.3405 -0.8962
 5410SOL    HW117129   4.423   4.167   0.177  2.3686  0.7726 -0.4445
 5410SOL    HW217130   4.452   4.152   0.017 -0.3659  0.3045 -0.9416
 5411SOL     OW17131   6.372   4.512   1.688  0.1400  0.1163 -0.0729
 5411SOL    HW117132   6.413   4.458   1.614  1.1481  2.1382 -1.0856
 5411SOL    HW217133   6.293   4.562   1.652  0.7479  1.2602  0.1132
 5412SOL     OW17134   1.220   6.918   3.628 -0.3981  0.4125  0.3753
 5412SOL    HW117135   1.292   6.935   3.560 -1.2102  0.5534 -0.4755
 5412SOL    HW217136   1.258   6.865   3.704  0.8508  1.3861  0.4565
 5413SOL     OW17137   3.304   1.709   3.429  0.0145  0.1130  0.1656
 5413SOL    HW117138   3.254   1.701   3.342 -0.2809 -0.5455  0.3915
 5413SOL    HW217139   3.239   1.716   3.504  0.2708  1.4131  0.2771
 5414SOL     OW17140   4.699   2.512   4.963 -0.0297  0.1415 -0.3724
 5414SOL    HW117141   4.715   2.609   4.978 -0.2346 -0.0262  1.1369
 5414SOL    HW217142   4.614   2.500   4.911 -1.6463  0.7383  1.9724
 5415SOL     OW17143   3.558   6.811   2.944 -0.1226 -0.2125  0.6377
 5415SOL    HW117144   3.546   6.723   2.988  3.1944 -1.4335 -0.5195
 5415SOL    HW217145   3.562   6.798   2.845 -0.2353  1.3219  0.4131
 5416SOL     OW17146   1.171   2.655   3.077  0.2626  0.1268  0.0624
 5416SOL    HW117147   1.264   2.643   3.111  0.4140  1.4417  0.1465
 5416SOL    HW217148   1.138   2.746   3.100  0.0446  0.7832 -2.5513
 5417SOL     OW17149   4.259   3.343   6.436 -0.3165 -0.0533  0.3098
 5417SOL    HW117150   4.230   3.352   6.531 -1.3886 -1.2872  0.1231
 5417SOL    HW217151   4.247   3.430   6.389  0.4862  0.6494  1.3469
 5418SOL     OW17152   1.257   2.146   2.672 -0.4086 -0.2615  0.5103
 5418SOL    HW117153   1.221   2.138   2.579 -0.0647  1.7864  0.1555
 5418SOL    HW217154   1.275   2.242   2.692  1.6203 -0.8778  1.8963
 5419SOL     OW17155   0.381   6.658   3.744 -0.3842 -0.3305 -0.0695
 5419SOL    HW117156   0.324   6.679   3.664  0.0017  1.6316  0.1260
 5419SOL    HW217157   0.434   6.576   3.725 -1.1438 -0.5574 -1.3830
 5420SOL     OW17158   5.631   3.870   2.093 -0.2537 -0.4638 -0.3540
 5420SOL    HW117159   5.596   3.784   2.055 -2.0253 -0.3592  0.8936
 5420SOL    HW217160   5.606   3.946   2.032 -1.9123 -0.4487  0.2813
 5421SOL     OW17161   6.952   2.845   3.169  0.1325  0.0430 -0.4159
 5421SOL    HW117162   7.051   2.857   3.171  0.1156  0.1852 -0.4200
 5421SOL    HW217163   6.907   2.934   3.169  0.0071 -0.0181 -0.5461
 5422SOL     OW17164   5.044   4.505   6.445  0.1017 -0.0001 -0.0978
 5422SOL    HW117165   5.138   4.508   6.478  0.0693 -0.0921  0.0029
 5422SOL    HW217166   5.006   4.597   6.444  0.4840  0.1587 -0.9757
 5423SOL     OW17167   0.791   3.923   0.139 -0.0208 -0.4186 -0.0859
 5423SOL    HW117168   0.748   3.981   0.209  0.1247  0.4712 -0.7093
 5423SOL    HW217169   0.884   3.953   0.123 -0.9553  1.4461 -2.8003
 5424SOL     OW17170   2.775   5.847   0.067  0.6254  0.9670 -0.2350
 5424SOL    HW117171   2.738   5.906   0.139 -0.5561 -0.1062  0.0876
 5424SOL    HW217172   2.771   5.895  -0.021 -0.3032  1.3896  0.0233
 5425SOL     OW17173   2.693   2.241   4.701  0.0642  0.0369 -0.0377
 5425SOL    HW117174   2.642   2.164   4.741  0.6652 -0.6125 -0.4836
 5425SOL    HW217175   2.780   2.207   4.665 -1.2772  0.0994 -3.8242
 5426SOL     OW17176   0.751   0.864   2.309 -0.1939 -0.2783 -0.2035
 5426SOL    HW117177   0.701   0.777   2.306 -0.9560  0.1261  0.5587
 5426SOL    HW217178   0.836   0.851   2.360  0.6690 -1.0448 -1.7682
 5427SOL     OW17179   0.089   3.720   1.026 -0.1064 -0.0444 -0.0439
 5427SOL    HW117180   0.146   3.732   0.945 -1.8843  0.4907 -1.2692
 5427SOL    HW217181   0.055   3.626   1.030  0.3280 -0.1887  0.3330
 5428SOL     OW17182   6.606   1.719   2.392 -0.0107  0.6941  0.2215
 5428SOL    HW117183   6.623   1.806   2.437 -3.1664  1.1362  0.8038
 5428SOL    HW217184   6.571   1.735   2.299  2.1291 -0.1052 -0.7949
 5429SOL     OW17185   1.344   2.894   2.267  0.1678  0.5052  0.1841
 5429SOL    HW117186   1.340   2.933   2.359  0.2537 -0.3095  0.5434
 5429SOL    HW217187   1.251   2.888   2.230 -0.3318 -2.2191  1.5668
 5430SOL     OW17188   4.790   1.003   5.967  0.4256 -0.2949 -0.4914
 5430SOL    HW117189   4.795   0.959   5.877  1.9520 -0.1596 -0.4962
 5430SOL    HW217190   4.879   0.995   6.013 -0.1138  0.3087  0.6892
 5431SOL     OW17191   0.663   5.155   0.783 -0.5460  0.2742  0.4637
 5431SOL    HW117192   0.651   5.207   0.868 -2.7583 -0.2707  0.5464
 5431SOL    HW217193   0.631   5.209   0.706  0.8015  0.4921  0.0343
 5432SOL     OW17194   6.799   2.697   4.021  0.6807  0.7325  0.6015
 5432SOL    HW117195   6.773   2.643   4.101 -0.8798  0.7798  0.1661
 5432SOL    HW217196   6.870   2.762   4.046  1.1513 -0.1346  1.6239
 5433SOL     OW17197   2.648   0.404   6.528  0.5394  0.6045  0.3042
 5433SOL    HW117198   2.604   0.440   6.610 -0.6976 -0.2582  0.0520
 5433SOL    HW217199   2.694   0.317   6.549  0.4411  0.5110  0.1397
 5434SOL     OW17200   2.743   6.510   5.990 -0.4317 -0.3078 -0.5993
 5434SOL    HW117201   2.734   6.453   6.072 -0.5715  0.6815  0.0905
 5434SOL    HW217202   2.653   6.540   5.960 -0.8801 -3.7459 -3.4453
 5435SOL     OW17203   3.856   3.245   0.233  0.2465  0.2604  0.1648
 5435SOL    HW117204   3.900   3.181   0.295 -2.3800 -1.0239  0.8379
 5435SOL    HW217205   3.791   3.301   0.283  1.1590  2.2644 -0.7536
 5436SOL     OW17206   6.619   3.081   6.878 -0.5521  0.0363  0.1246
 5436SOL    HW117207   6.623   3.078   6.978  0.6912  0.1397  0.0947
 5436SOL    HW217208   6.658   2.997   6.841  3.9770  2.0265 -0.2839
 5437SOL     OW17209   5.613   5.505   5.909  0.1377  0.0050 -0.4631
 5437SOL    HW117210   5.639   5.551   5.824  0.9614 -0.4174 -0.4440
 5437SOL    HW217211   5.518   5.475   5.902 -0.1357  0.9173 -0.8142
 5438SOL     OW17212   2.494   0.997   2.068 -0.0215 -0.1130  0.0582
 5438SOL    HW117213   2.562   1.022   2.137 -0.2828  0.8467 -0.0274
 5438SOL    HW217214   2.414   1.056   2.077 -0.4917 -0.6682 -0.4016
 5439SOL     OW17215   6.165   2.639   3.399  0.0236 -0.1728 -0.2190
 5439SOL    HW117216   6.172   2.678   3.308  1.1465 -0.0869 -0.1131
 5439SOL    HW217217   6.174   2.539   3.393 -1.5824 -0.3217 -0.3620
 5440SOL     OW17218   6.866   5.352   0.729 -0.2722 -0.3070 -0.0823
 5440SOL    HW117219   6.805   5.278   0.701  0.5774 -0.7059 -0.9304
 5440SOL    HW217220   6.899   5.400   0.647 -0.9628  1.1465  0.4608
 5441SOL     OW17221   2.675   4.757   1.193 -0.9540  0.4537 -0.0417
 5441SOL    HW117222   2.697   4.845   1.233 -0.1236  1.4340 -2.4628
 5441SOL    HW217223   2.711   4.684   1.251  1.2964  1.8198  0.3900
 5442SOL     OW17224   0.547   4.505   5.803  0.5231  0.3726 -0.1122
 5442SOL    HW117225   0.568   4.535   5.710  2.0920 -0.8734 -0.1849
 5442SOL    HW217226   0.577   4.575   5.868 -1.8078  1.8915 -0.5193
 5443SOL     OW17227   0.885   5.234   5.450 -0.0048  0.5098  0.1032
 5443SOL    HW117228   0.915   5.292   5.375  0.8439  0.8068  0.6532
 5443SOL    HW217229   0.786   5.240   5.460 -0.1763  0.1522 -1.2349
 5444SOL     OW17230   0.029   3.929   2.480 -0.3791 -0.5368 -0.0651
 5444SOL    HW117231   0.024   3.990   2.401  3.6226 -0.0401 -0.1191
 5444SOL    HW217232   0.000   3.837   2.453 -0.4362 -0.0679 -1.7069
 5445SOL     OW17233   2.706   5.639   1.533  0.6234  0.1660 -0.4350
 5445SOL    HW117234   2.690   5.645   1.631 -0.8584  2.1048 -0.7404
 5445SOL    HW217235   2.626   5.598   1.489  0.1840  1.6280 -1.0567
 5446SOL     OW17236   0.497   4.455   5.464  0.0778 -0.6322 -0.0049
 5446SOL    HW117237   0.481   4.463   5.366  1.8245  2.1977 -0.1696
 5446SOL    HW217238   0.571   4.390   5.481  0.4960 -0.3332 -0.6638
 5447SOL     OW17239   4.825   3.186   0.709 -0.1707 -0.0553  0.5125
 5447SOL    HW117240   4.754   3.125   0.672 -0.9033  1.0967 -0.0305
 5447SOL    HW217241   4.847   3.158   0.802 -1.4812 -0.3368  0.7670
 5448SOL     OW17242   0.789   6.314   6.774  0.2807 -0.0319  0.7025
 5448SOL    HW117243   0.847   6.335   6.695  0.4174 -1.5828  0.3637
 5448SOL    HW217244   0.829   6.354   6.856  1.2154 -0.0887  0.2899
 5449SOL     OW17245   4.753   0.498   4.875 -0.2327  0.5691  0.4004
 5449SOL    HW117246   4.825   0.481   4.808  1.2675 -1.0992  2.3050
 5449SOL    HW217247   4.664   0.494   4.830  0.7187  0.2494 -1.5887
 5450SOL     OW17248   1.365   3.045   0.195 -0.0948  0.0189 -0.4772
 5450SOL    HW117249   1.456   3.047   0.238  0.5920 -0.7133 -1.8023
 5450SOL    HW217250   1.309   2.975   0.239 -0.5939  1.5129  1.3697
 5451SOL     OW17251   5.244   1.540   0.906  0.0596 -0.2645 -0.2439
 5451SOL    HW117252   5.156   1.520   0.950 -0.2447 -1.4503 -1.3369
 5451SOL    HW217253   5.235   1.530   0.807  1.4819 -0.6069 -0.3585
 5452SOL     OW17254   1.449   4.593   0.935 -0.4191  0.4235  0.4630
 5452SOL    HW117255   1.392   4.625   0.860 -0.3327 -0.6398 -0.0610
 5452SOL    HW217256   1.421   4.501   0.963  1.4713 -0.4350 -0.2880
 5453SOL     OW17257   3.743   1.573   6.361 -0.4455  0.1592 -1.0979
 5453SOL    HW117258   3.726   1.475   6.358  1.2491 -0.2182  0.0300
 5453SOL    HW217259   3.719   1.608   6.452  1.0241  0.3170 -0.7403
 5454SOL     OW17260   0.350   5.960   5.072  0.2034  0.0048 -0.6463
 5454SOL    HW117261   0.328   6.007   4.987 -0.6527 -1.8591 -1.4976
 5454SOL    HW217262   0.272   5.907   5.103 -0.0229  1.7089  2.1234
 5455SOL     OW17263   3.936   0.488   2.134 -0.0552  0.2295 -0.0007
 5455SOL    HW117264   3.928   0.434   2.218  0.3193  0.6204  0.2908
 5455SOL    HW217265   3.957   0.583   2.158 -1.4598  0.6787 -0.4742
 5456SOL     OW17266   0.009   6.114   0.132  0.0590 -0.0500  0.2021
 5456SOL    HW117267   0.001   6.169   0.049 -2.1900 -0.5256  0.0268
 5456SOL    HW217268  -0.047   6.155   0.204 -0.0687 -1.0223  0.6766
 5457SOL     OW17269   3.724   5.445   2.351 -0.0253  0.0855 -0.2077
 5457SOL    HW117270   3.781   5.416   2.427 -1.3189 -0.8366  0.4473
 5457SOL    HW217271   3.628   5.429   2.373 -0.7139  2.9204 -0.6813
 5458SOL     OW17272   0.563   2.822   3.425 -0.2329  0.1564 -0.5188
 5458SOL    HW117273   0.591   2.731   3.457  2.1127  0.7435 -0.6787
 5458SOL    HW217274   0.470   2.841   3.455 -0.2120 -1.6674  0.8836
 5459SOL     OW17275   5.032   6.214   4.019  0.4674  0.4956  0.3970
 5459SOL    HW117276   4.933   6.212   4.032  0.4404  0.3510  0.1601
 5459SOL    HW217277   5.069   6.122   4.031  0.8473  0.8784  2.6449
 5460SOL     OW17278   6.834   4.489   1.230  0.0467 -0.2625  0.8023
 5460SOL    HW117279   6.806   4.576   1.188 -0.6292 -0.6230  0.4906
 5460SOL    HW217280   6.753   4.438   1.258  0.4307 -0.9376  0.6948
 5461SOL     OW17281   1.886   2.930   4.591 -0.2708  0.1072 -0.2743
 5461SOL    HW117282   1.896   3.025   4.621  0.6046 -0.6203  1.9661
 5461SOL    HW217283   1.975   2.894   4.564 -0.0095 -0.8850  1.7174
 5462SOL     OW17284   2.783   4.705   2.614 -0.0694  0.0167 -0.0069
 5462SOL    HW117285   2.796   4.627   2.676  0.6146 -0.1301 -0.3216
 5462SOL    HW217286   2.865   4.763   2.616 -0.0833  0.0655 -0.6974
 5463SOL     OW17287   2.606   2.446   2.605  0.3457 -0.1278 -0.0237
 5463SOL    HW117288   2.668   2.372   2.630 -1.8060 -1.9528  0.2620
 5463SOL    HW217289   2.587   2.502   2.686  2.1739  0.9431 -0.2949
 5464SOL     OW17290   6.041   2.632   3.030  0.1959  0.1119 -0.1352
 5464SOL    HW117291   5.978   2.707   3.053  0.6790  0.0439  1.5650
 5464SOL    HW217292   6.059   2.633   2.932 -0.8794  1.3710 -0.3576
 5465SOL     OW17293   3.204   1.350   5.602  0.2354 -0.4993 -0.2593
 5465SOL    HW117294   3.104   1.362   5.603  0.4575  2.9342  2.7726
 5465SOL    HW217295   3.228   1.268   5.654 -0.9824 -1.2568 -0.8445
 5466SOL     OW17296   3.050   1.851   0.401  0.2536 -0.7280 -0.0544
 5466SOL    HW117297   3.101   1.937   0.405 -1.0005  0.1180 -1.4460
 5466SOL    HW217298   3.031   1.819   0.494  0.2722  0.7640  0.4831
 5467SOL     OW17299   2.014   4.911   1.338  0.7877 -0.2872  0.1806
 5467SOL    HW117300   2.031   4.825   1.386  2.0501 -0.7617 -1.0274
 5467SOL    HW217301   1.990   4.891   1.243 -0.7709  0.6551  0.3580
 5468SOL     OW17302   0.970   2.901   1.726  0.1032 -0.4052  0.1030
 5468SOL    HW117303   1.009   2.992   1.736  1.2782 -0.9775  1.0342
 5468SOL    HW217304   1.019   2.852   1.653 -0.2984 -0.4103 -0.1659
 5469SOL     OW17305   1.430   6.171   0.965 -0.0025  0.3081  0.0122
 5469SOL    HW117306   1.481   6.108   0.906 -2.1312 -1.2332 -0.2629
 5469SOL    HW217307   1.412   6.127   1.053 -0.9367  0.7770  0.0671
 5470SOL     OW17308   6.545   4.701   3.141 -0.1173 -0.6565  0.3544
 5470SOL    HW117309   6.535   4.793   3.102  0.9656  0.2859  2.1737
 5470SOL    HW217310   6.642   4.676   3.142 -0.3547 -1.5881  0.4151
 5471SOL     OW17311   5.610   1.351   3.903 -0.4945 -0.9157  0.4586
 5471SOL    HW117312   5.689   1.410   3.887 -0.5205 -0.6756  1.1694
 5471SOL    HW217313   5.599   1.288   3.826 -1.4492  1.0655 -1.1544
 5472SOL     OW17314   0.641   2.681   4.454 -0.0359  0.2100 -0.2252
 5472SOL    HW117315   0.722   2.738   4.454 -0.2205  0.4969  0.7907
 5472SOL    HW217316   0.638   2.626   4.370  0.8812  0.6343 -0.5438
 5473SOL     OW17317   1.449   4.603   5.483  0.1835 -0.1017  0.5995
 5473SOL    HW117318   1.542   4.576   5.459 -0.4627 -0.6094 -1.5611
 5473SOL    HW217319   1.426   4.688   5.436 -0.4408  0.0345  1.1409
 5474SOL     OW17320   0.933   0.329   3.722  0.3708 -0.0990  0.0605
 5474SOL    HW117321   0.846   0.321   3.771 -1.5300 -0.4241 -3.0969
 5474SOL    HW217322   0.995   0.256   3.752  0.0005  0.6726  3.0177
 5475SOL     OW17323   3.035   1.116   1.902  0.5952 -0.0157 -0.3855
 5475SOL    HW117324   2.962   1.158   1.847  0.8007 -0.6074 -1.1239
 5475SOL    HW217325   3.052   1.023   1.870  1.5620  0.0503 -0.1006
 5476SOL     OW17326   0.652   0.918   5.991 -0.2127 -0.2077  0.4605
 5476SOL    HW117327   0.594   0.883   6.065  0.9355  0.3661  1.6764
 5476SOL    HW217328   0.650   1.018   5.991  1.4869 -0.1382  1.1682
 5477SOL     OW17329   3.079   6.770   1.455 -0.4478  0.4679 -0.6511
 5477SOL    HW117330   2.982   6.746   1.448 -0.8143  1.5223  0.3953
 5477SOL    HW217331   3.094   6.860   1.415  0.0718  0.3773 -0.6656
 5478SOL     OW17332   1.312   2.699   6.413  0.0469 -0.4736 -0.9337
 5478SOL    HW117333   1.299   2.601   6.407  1.0645 -0.6414 -0.7135
 5478SOL    HW217334   1.268   2.744   6.336 -2.9513 -0.7877  0.4507
 5479SOL     OW17335   0.643   0.685   0.574  1.1426  0.0236  0.0743
 5479SOL    HW117336   0.552   0.659   0.545  0.2885  2.0338  0.7538
 5479SOL    HW217337   0.705   0.607   0.565 -0.4662 -1.1830 -1.0408
 5480SOL     OW17338   6.970   0.543   1.526  0.4169  0.2054 -0.1491
 5480SOL    HW117339   6.936   0.628   1.566  0.6232 -0.1524  0.8314
 5480SOL    HW217340   6.974   0.551   1.427 -1.2170  0.7359 -0.1985
 5481SOL     OW17341   4.854   6.287   4.730  0.0323 -0.0544  0.0005
 5481SOL    HW117342   4.945   6.287   4.770 -0.5349  1.3258  1.3549
 5481SOL    HW217343   4.797   6.220   4.778  0.9879 -3.0496 -2.6502
 5482SOL     OW17344   2.739   4.761   2.342  0.3960  0.0248 -0.0636
 5482SOL    HW117345   2.770   4.794   2.432  1.0718  0.3082 -0.3971
 5482SOL    HW217346   2.814   4.767   2.276 -0.4617  1.0981 -0.9855
 5483SOL     OW17347   3.979   1.312   3.244  0.0915  0.3252  0.4154
 5483SOL    HW117348   3.888   1.271   3.240  0.2516 -0.1760  1.3805
 5483SOL    HW217349   3.974   1.408   3.219 -0.5697  0.1151 -0.2958
 5484SOL     OW17350   2.286   4.456   2.706  0.0482 -0.1844 -0.1815
 5484SOL    HW117351   2.218   4.392   2.741  0.6829 -1.4175 -1.1150
 5484SOL    HW217352   2.293   4.446   2.607  0.4099  1.1147 -0.3080
 5485SOL     OW17353   4.609   1.556   3.023  0.1470 -0.4368 -0.1172
 5485SOL    HW117354   4.708   1.539   3.025  0.0689 -1.0630 -1.2210
 5485SOL    HW217355   4.587   1.623   2.953 -0.2951 -0.8840 -0.4151
 5486SOL     OW17356   0.956   2.771   5.838 -0.3901  0.4553  0.2365
 5486SOL    HW117357   1.031   2.709   5.861 -0.6010  0.6600  1.5572
 5486SOL    HW217358   0.993   2.857   5.803  0.1063  1.1032  2.2049
 5487SOL     OW17359   4.956   6.804   4.494 -0.1123 -0.3283 -0.6073
 5487SOL    HW117360   4.981   6.714   4.459 -2.0594 -0.4443 -1.8505
 5487SOL    HW217361   4.862   6.802   4.527 -0.4833  1.4407 -1.4362
 5488SOL     OW17362   0.718   1.113   0.909  0.1715 -0.3031 -0.8843
 5488SOL    HW117363   0.705   1.030   0.856  0.6883  0.0714 -1.6092
 5488SOL    HW217364   0.699   1.193   0.852  0.5189  0.1009 -0.4424
 5489SOL     OW17365   2.520   0.427   6.787  0.5830 -0.6448  0.1346
 5489SOL    HW117366   2.565   0.393   6.869 -0.2733 -0.1281  0.8463
 5489SOL    HW217367   2.497   0.524   6.800  0.0913 -0.6626 -0.5561
 5490SOL     OW17368   6.833   4.123   3.538 -0.3075 -0.2022  0.1505
 5490SOL    HW117369   6.918   4.172   3.519 -0.1552  0.1339  1.5679
 5490SOL    HW217370   6.783   4.169   3.611 -0.9087 -1.3031  0.4631
 5491SOL     OW17371   1.901   6.494   6.155  0.0947  0.2167 -0.3487
 5491SOL    HW117372   1.870   6.454   6.069 -0.7442 -0.8613  0.4177
 5491SOL    HW217373   1.844   6.573   6.178  0.3294  0.5159 -0.7728
 5492SOL     OW17374   5.205   4.073   5.789 -0.0812 -0.1192 -0.1754
 5492SOL    HW117375   5.111   4.066   5.756 -0.0639 -2.0491  0.0752
 5492SOL    HW217376   5.206   4.077   5.889  0.0914  0.1950 -0.1887
 5493SOL     OW17377   0.226   3.710   6.440 -0.5096 -0.3906  0.1166
 5493SOL    HW117378   0.171   3.628   6.425 -2.6066  0.8602  0.6812
 5493SOL    HW217379   0.249   3.752   6.352 -0.0558 -1.1513 -0.1368
 5494SOL     OW17380   4.683   0.304   5.175  0.1743 -0.2325  0.1206
 5494SOL    HW117381   4.701   0.316   5.272 -2.0240  0.4189  0.5265
 5494SOL    HW217382   4.629   0.382   5.142 -0.3151 -1.1206 -1.2756
 5495SOL     OW17383   4.085   6.581   2.809  0.2125  0.5240 -0.8686
 5495SOL    HW117384   4.016   6.644   2.774 -0.6516  0.1430  0.0944
 5495SOL    HW217385   4.155   6.633   2.859 -0.7470  0.7108  0.3277
 5496SOL     OW17386   6.110   0.431   3.262  0.3103  0.0169 -0.2454
 5496SOL    HW117387   6.029   0.490   3.265  0.1913 -0.0907 -1.1920
 5496SOL    HW217388   6.166   0.455   3.183  1.0700 -0.1006  0.2411
 5497SOL     OW17389   5.960   2.439   5.174 -0.2365 -0.4467 -0.9171
 5497SOL    HW117390   5.968   2.478   5.266 -2.6643  1.5610 -1.4414
 5497SOL    HW217391   5.977   2.340   5.178 -0.7065 -0.4893  1.7536
 5498SOL     OW17392   4.374   1.084   2.766 -0.2619 -0.6111  0.2283
 5498SOL    HW117393   4.385   1.162   2.827  0.7011  0.0954 -0.8014
 5498SOL    HW217394   4.322   1.112   2.685  0.0866 -1.0381 -0.1502
 5499SOL     OW17395   6.510   3.407   4.430 -0.0009 -0.1504  0.0609
 5499SOL    HW117396   6.589   3.466   4.412 -0.6755  0.4074 -1.2364
 5499SOL    HW217397   6.455   3.448   4.503  1.0725 -0.7255  1.2168
 5500SOL     OW17398   1.717   1.104   2.834 -0.5558 -0.3541 -0.0234
 5500SOL    HW117399   1.631   1.110   2.884 -0.3352  0.8057  0.2574
 5500SOL    HW217400   1.791   1.084   2.897 -0.4376 -0.0211 -0.0536
 5501SOL     OW17401   0.644   4.277   4.558  0.2189  0.1037 -0.0052
 5501SOL    HW117402   0.671   4.275   4.654  0.1489 -0.1132  0.0110
 5501SOL    HW217403   0.566   4.339   4.546  1.5010  1.7549 -0.2580
 5502SOL     OW17404   6.439   1.291   2.074  0.4109  0.5125  0.3973
 5502SOL    HW117405   6.443   1.349   2.155  0.6012  2.2143 -0.7589
 5502SOL    HW217406   6.397   1.342   1.999 -0.0813 -1.1271 -0.4934
 5503SOL     OW17407   3.313   5.914   6.805  0.4649 -0.0433 -0.0279
 5503SOL    HW117408   3.325   5.911   6.904 -1.7945 -0.4576  0.2871
 5503SOL    HW217409   3.316   5.821   6.769  0.0105 -0.0192 -0.1411
 5504SOL     OW17410   2.129   3.778   4.194  0.6863  0.1564 -0.5055
 5504SOL    HW117411   2.130   3.702   4.128  0.5285 -0.8083  0.5667
 5504SOL    HW217412   2.124   3.741   4.286  3.4015  1.4003  0.2179
 5505SOL     OW17413   4.843   5.187   6.272  0.5768  0.4079  0.4754
 5505SOL    HW117414   4.910   5.136   6.217  1.6708 -0.3637  2.4023
 5505SOL    HW217415   4.832   5.142   6.360 -0.8821  1.7647  1.0293
 5506SOL     OW17416   4.668   2.198   4.754 -0.0520  0.3768 -0.1734
 5506SOL    HW117417   4.606   2.134   4.709  0.5006 -1.7976  1.9238
 5506SOL    HW217418   4.617   2.252   4.820 -0.0610 -0.0391  0.1679
 5507SOL     OW17419   1.976   3.774   0.650 -0.0598 -0.4624 -0.3735
 5507SOL    HW117420   2.054   3.712   0.660  0.9582  0.7959 -0.2887
 5507SOL    HW217421   1.891   3.723   0.663  0.6958 -2.0407 -1.2723
 5508SOL     OW17422   4.993   5.034   6.118  0.0940  0.2292 -0.6866
 5508SOL    HW117423   4.994   4.938   6.093  1.4525 -0.0627  0.3408
 5508SOL    HW217424   5.001   5.091   6.036 -2.7858 -0.4155 -1.5156
 5509SOL     OW17425   3.375   1.931   1.032  0.0598  0.5477 -0.4502
 5509SOL    HW117426   3.388   1.834   1.052  1.2043  1.1913  2.3929
 5509SOL    HW217427   3.446   1.962   0.969 -0.0868 -0.3636 -1.0787
 5510SOL     OW17428   1.891   1.847   2.008  0.3385  0.2477 -0.5175
 5510SOL    HW117429   1.985   1.863   1.980  0.1685 -0.0690 -1.2992
 5510SOL    HW217430   1.888   1.826   2.106  0.8765  2.0027 -0.0812
 5511SOL     OW17431   3.074   1.400   1.539 -0.4391  0.2095 -0.5370
 5511SOL    HW117432   3.099   1.460   1.616 -3.5236 -0.0248  0.7897
 5511SOL    HW217433   3.078   1.305   1.569 -0.8150  0.0704 -0.9263
 5512SOL     OW17434   0.323   0.375   2.767 -0.1394  0.0642 -0.9305
 5512SOL    HW117435   0.242   0.421   2.730 -0.4527  0.1508 -0.1526
 5512SOL    HW217436   0.367   0.434   2.834 -0.2788 -0.5782 -0.2647
 5513SOL     OW17437   6.754   3.360   2.350 -0.3156  0.2890  0.2212
 5513SOL    HW117438   6.723   3.264   2.346 -0.4683  0.3273  0.4615
 5513SOL    HW217439   6.847   3.363   2.388 -0.7641  0.3282  1.3475
 5514SOL     OW17440   5.806   0.527   4.656  0.4180  0.5784  0.6772
 5514SOL    HW117441   5.737   0.494   4.720  0.3454  1.8943  1.2978
 5514SOL    HW217442   5.768   0.602   4.601  0.3551 -0.7419 -1.2002
 5515SOL     OW17443   4.003   4.281   0.658  0.1430 -0.4485 -0.6571
 5515SOL    HW117444   3.993   4.181   0.652  1.9938 -0.7073 -0.1327
 5515SOL    HW217445   3.916   4.321   0.685 -0.9124 -1.8129 -1.8543
 5516SOL     OW17446   4.627   4.266   1.164  0.4437 -0.2477 -0.1240
 5516SOL    HW117447   4.532   4.295   1.175 -0.2562 -1.8851 -1.3994
 5516SOL    HW217448   4.678   4.284   1.248 -1.0964  0.2886  0.7246
 5517SOL     OW17449   5.547   2.027   0.726 -1.0670 -0.3866  0.3197
 5517SOL    HW117450   5.494   2.011   0.810  1.9221 -1.6650  2.1275
 5517SOL    HW217451   5.596   1.943   0.702  1.0855  1.0484 -0.5162
 5518SOL     OW17452   2.763   1.964   4.133  0.8828 -0.3384  0.0404
 5518SOL    HW117453   2.783   1.884   4.190  3.3194  0.5545  0.5888
 5518SOL    HW217454   2.838   2.030   4.142 -1.1639  2.1744 -0.1392
 5519SOL     OW17455   1.630   1.427   1.102  0.0506 -0.3567 -0.6640
 5519SOL    HW117456   1.595   1.462   1.189  0.2393 -1.7829  0.0155
 5519SOL    HW217457   1.672   1.338   1.117  0.0827 -0.6302 -2.2359
 5520SOL     OW17458   1.868   5.263   3.020  0.3168  0.1212  0.1815
 5520SOL    HW117459   1.896   5.197   3.090 -0.0220  1.0919  1.2709
 5520SOL    HW217460   1.949   5.298   2.973  0.4551 -1.5843 -0.9327
 5521SOL     OW17461   2.403   1.097   4.247  0.2981  0.0409 -0.3542
 5521SOL    HW117462   2.308   1.093   4.215  0.1379 -0.2080  0.1273
 5521SOL    HW217463   2.465   1.101   4.169 -0.0791 -0.5146 -0.6913
 5522SOL     OW17464   1.618   4.734   3.559  0.1437 -0.1682  0.2961
 5522SOL    HW117465   1.627   4.641   3.594  0.7929 -0.4683 -0.6412
 5522SOL    HW217466   1.633   4.734   3.460  0.3526  0.9625  0.3178
 5523SOL     OW17467   6.582   4.969   2.561  0.1395 -0.4795 -0.3597
 5523SOL    HW117468   6.592   4.878   2.601 -2.1273 -1.3801 -1.6221
 5523SOL    HW217469   6.624   4.970   2.470 -1.6711 -1.0212 -1.2618
 5524SOL     OW17470   5.860   3.377   5.374 -0.6372  0.0701  0.1026
 5524SOL    HW117471   5.774   3.427   5.374 -1.1483 -0.7407 -1.7589
 5524SOL    HW217472   5.929   3.429   5.323  0.1612  0.9159  1.9329
 5525SOL     OW17473   1.025   5.907   6.990  0.0632 -0.6305 -0.1876
 5525SOL    HW117474   1.116   5.912   6.949 -0.3614 -1.5597 -1.2881
 5525SOL    HW217475   0.972   5.835   6.945 -0.8682 -0.8227  1.1451
 5526SOL     OW17476   4.397   6.203   2.185  0.0500  0.2190 -0.1485
 5526SOL    HW117477   4.351   6.124   2.226 -2.1553 -0.2297 -3.1122
 5526SOL    HW217478   4.462   6.171   2.115  0.3136  0.9980 -0.2669
 5527SOL     OW17479   4.388   0.088   2.157  0.2241  0.4019  0.5627
 5527SOL    HW117480   4.477   0.111   2.197  0.7652  1.6941 -1.2372
 5527SOL    HW217481   4.380   0.131   2.067 -1.6106 -0.9856 -0.0009
 5528SOL     OW17482   6.089   4.895   4.792  0.3209  0.0890 -0.0873
 5528SOL    HW117483   6.100   4.813   4.850 -0.4779 -0.9351 -1.3259
 5528SOL    HW217484   6.025   4.958   4.835 -0.4982 -0.7974  0.0452
 5529SOL     OW17485   5.844   2.363   2.558 -0.4397 -0.5258  0.4475
 5529SOL    HW117486   5.865   2.266   2.546  0.4723 -0.4569  1.3523
 5529SOL    HW217487   5.751   2.381   2.526 -0.2805 -1.4950 -0.6532
 5530SOL     OW17488   6.035   3.506   3.232  0.2274  0.6393 -0.9230
 5530SOL    HW117489   6.039   3.454   3.146  0.8519 -1.0691  0.0811
 5530SOL    HW217490   6.098   3.465   3.298 -0.6488  1.5847  0.5403
 5531SOL     OW17491   1.690   3.778   3.138  0.1557  0.3138  0.0643
 5531SOL    HW117492   1.723   3.790   3.232  0.3217  2.3035 -0.2076
 5531SOL    HW217493   1.767   3.760   3.077  0.0832 -0.6581  0.2501
 5532SOL     OW17494   6.409   6.417   0.441  0.5436  0.4220  0.4111
 5532SOL    HW117495   6.466   6.365   0.504 -0.0052 -0.9459 -0.1692
 5532SOL    HW217496   6.444   6.405   0.348  0.4668  1.1981  0.2783
 5533SOL     OW17497   6.158   3.189   0.032 -0.2222  0.1093 -0.1723
 5533SOL    HW117498   6.234   3.139   0.074 -1.0868 -0.3263  0.9344
 5533SOL    HW217499   6.080   3.127   0.019 -0.8623  0.8636 -0.0113
 5534SOL     OW17500   5.293   0.654   4.114 -0.3553  0.6277 -0.2306
 5534SOL    HW117501   5.343   0.622   4.033 -1.1997 -0.0729 -0.4934
 5534SOL    HW217502   5.283   0.578   4.179  0.6402  1.2716  0.7232
 5535SOL     OW17503   0.263   3.757   4.617  0.5815  0.6494  0.4472
 5535SOL    HW117504   0.199   3.765   4.541  1.1168  4.4113  0.2046
 5535SOL    HW217505   0.218   3.783   4.702  1.1146  0.8089  0.6877
 5536SOL     OW17506   1.875   0.598   4.756  0.2132 -0.2106  0.2148
 5536SOL    HW117507   1.860   0.525   4.822  0.4613 -0.6443 -0.2045
 5536SOL    HW217508   1.958   0.648   4.780  0.7935 -0.9228 -0.2566
 5537SOL     OW17509   0.914   4.509   5.862  0.0590  0.2057 -0.5659
 5537SOL    HW117510   0.914   4.409   5.869 -1.0174  0.1404 -1.3061
 5537SOL    HW217511   1.003   4.544   5.891  1.1561 -1.1014 -2.1780
 5538SOL     OW17512   5.542   4.211   5.883 -0.2925 -0.1122 -0.2312
 5538SOL    HW117513   5.601   4.291   5.895  0.3903 -0.9876  2.9441
 5538SOL    HW217514   5.554   4.175   5.790  1.6076  1.6910 -0.7615
 5539SOL     OW17515   0.270   6.201   1.928 -0.0651 -0.0163 -0.3303
 5539SOL    HW117516   0.177   6.182   1.899  0.3594 -2.1513 -0.4624
 5539SOL    HW217517   0.290   6.150   2.012  0.4569  1.8162  0.7323
 5540SOL     OW17518   0.368   1.953   2.511  0.0517 -0.1036 -0.0837
 5540SOL    HW117519   0.458   1.909   2.507  0.4595  0.4800  1.6199
 5540SOL    HW217520   0.359   2.002   2.598 -0.7104  2.4708 -1.5120
 5541SOL     OW17521   5.394   6.708   6.038  0.1118  0.1234 -0.5668
 5541SOL    HW117522   5.373   6.763   6.119  3.6889 -0.5854  1.0346
 5541SOL    HW217523   5.378   6.763   5.956 -3.0625  1.0654  0.5328
 5542SOL     OW17524   5.012   2.532   2.947 -0.1570  0.0212 -0.7686
 5542SOL    HW117525   4.978   2.543   2.853 -0.4878 -0.4875 -0.7144
 5542SOL    HW217526   5.014   2.621   2.992 -0.8901  0.1401 -0.9555
 5543SOL     OW17527   4.670   4.635   2.750 -0.2186  0.5537 -0.5685
 5543SOL    HW117528   4.635   4.712   2.696 -0.7205 -1.4749 -3.3603
 5543SOL    HW217529   4.770   4.645   2.759 -0.3863  1.9937 -0.0230
 5544SOL     OW17530   2.751   5.601   4.983 -0.1654  0.1301  0.3092
 5544SOL    HW117531   2.672   5.647   5.023  0.3295  1.8061 -0.5603
 5544SOL    HW217532   2.824   5.595   5.051 -1.0072 -1.5183  1.1502
 5545SOL     OW17533   0.289   3.043   4.267 -0.7909  0.5473 -0.0046
 5545SOL    HW117534   0.233   2.960   4.266 -1.3443  0.9056 -1.0852
 5545SOL    HW217535   0.361   3.034   4.336 -1.5726 -0.3288  0.7362
 5546SOL     OW17536   0.083   4.772   1.559  0.1485  0.1646 -0.1172
 5546SOL    HW117537   0.120   4.825   1.484 -1.6986  0.7579 -0.6655
 5546SOL    HW217538  -0.013   4.796   1.573 -0.2692 -1.7677  0.7557
 5547SOL     OW17539   3.213   5.380   1.956 -1.0583  0.6337  0.2336
 5547SOL    HW117540   3.166   5.345   2.037 -0.2629  0.3906  0.6001
 5547SOL    HW217541   3.238   5.304   1.896 -0.3396  0.6650  0.4816
 5548SOL     OW17542   2.856   2.644   6.197 -0.3365  0.3718  0.5597
 5548SOL    HW117543   2.866   2.551   6.232 -0.4665 -0.2845 -1.0746
 5548SOL    HW217544   2.825   2.704   6.270  0.5474 -0.6910  1.8507
 5549SOL     OW17545   5.619   5.297   2.002 -0.6590 -0.2472  0.6437
 5549SOL    HW117546   5.697   5.237   2.024  0.6066  1.3294  0.6101
 5549SOL    HW217547   5.587   5.276   1.909  2.1632  1.4594 -0.8930
 5550SOL     OW17548   1.451   0.945   5.764 -0.0326  0.4675  0.5260
 5550SOL    HW117549   1.409   0.908   5.847  0.7584 -0.1495  0.6601
 5550SOL    HW217550   1.485   0.870   5.708  0.9777  0.9446  0.4679
 5551SOL     OW17551   2.832   3.892   5.379  0.8958 -0.0571 -0.2139
 5551SOL    HW117552   2.869   3.981   5.354  1.4552 -0.7079 -1.7953
 5551SOL    HW217553   2.845   3.877   5.477  0.9820  1.4960  0.0363
 5552SOL     OW17554   6.963   6.672   4.815 -0.2964  0.0967 -0.0592
 5552SOL    HW117555   6.941   6.767   4.795  0.4198 -0.0929 -1.9065
 5552SOL    HW217556   6.879   6.618   4.817 -0.4653  0.1891 -2.4249
 5553SOL     OW17557   1.563   1.663   2.738 -0.2544 -0.0542  0.0761
 5553SOL    HW117558   1.572   1.566   2.762 -1.4350 -0.3285 -0.5418
 5553SOL    HW217559   1.554   1.717   2.822  0.0188 -0.5158  0.4080
 5554SOL     OW17560   5.528   6.987   2.396 -0.2731  0.2183  0.1464
 5554SOL    HW117561   5.575   6.929   2.330  1.5648  2.3347 -0.5474
 5554SOL    HW217562   5.561   6.966   2.488  0.2968  0.0588 -0.0866
 5555SOL     OW17563   3.923   5.831   4.675  0.1187 -0.2234 -0.3255
 5555SOL    HW117564   3.913   5.746   4.623  0.1287 -0.2246 -0.3255
 5555SOL    HW217565   3.966   5.812   4.763 -0.0071 -0.2395 -0.2673
 5556SOL     OW17566   1.327   3.043   4.534 -0.5748 -0.1156 -0.4777
 5556SOL    HW117567   1.380   3.009   4.611  0.7532 -1.7030 -2.0106
 5556SOL    HW217568   1.237   2.999   4.533 -0.3731 -0.5427 -0.1714
 5557SOL     OW17569   2.156   0.963   3.227  0.2898  0.8865  0.1668
 5557SOL    HW117570   2.094   0.916   3.164 -0.6266  1.2201  0.7952
 5557SOL    HW217571   2.187   0.899   3.297  0.2545  0.8348  0.1352
 5558SOL     OW17572   1.694   1.925   1.632 -0.1577 -0.0042  0.3405
 5558SOL    HW117573   1.659   1.833   1.614  1.1698 -0.2204 -1.4846
 5558SOL    HW217574   1.783   1.935   1.587 -0.4601  2.3046  0.1806
 5559SOL     OW17575   1.467   5.041   1.738  0.1578  0.0594 -0.0091
 5559SOL    HW117576   1.544   5.093   1.774 -0.1657 -0.0607  0.8823
 5559SOL    HW217577   1.479   4.944   1.761  0.2695 -0.1229 -0.8048
 5560SOL     OW17578   2.696   4.705   3.353  0.1804  0.0839 -0.1642
 5560SOL    HW117579   2.615   4.710   3.295 -1.0299  0.5961  1.4969
 5560SOL    HW217580   2.672   4.665   3.441  2.5948 -3.6441 -0.9633
 5561SOL     OW17581   0.756   3.018   4.617 -0.6117 -0.6782 -0.4983
 5561SOL    HW117582   0.698   3.095   4.642 -0.2137  0.2118 -2.1118
 5561SOL    HW217583   0.771   2.959   4.696  1.0944  2.2361  1.5227
 5562SOL     OW17584   0.659   0.630   0.291 -0.1230 -0.2191  0.3851
 5562SOL    HW117585   0.702   0.715   0.321 -0.4350 -0.1246  0.5769
 5562SOL    HW217586   0.560   0.643   0.288 -0.1134 -0.2778 -0.5263
 5563SOL     OW17587   1.072   1.261   4.688 -0.0521  0.1582  0.4147
 5563SOL    HW117588   1.053   1.273   4.591  1.1897 -2.9228 -0.3109
 5563SOL    HW217589   0.986   1.249   4.738 -0.6211 -0.0423 -0.5957
 5564SOL     OW17590   1.479   1.826   2.917  0.1728 -0.2151 -0.2243
 5564SOL    HW117591   1.481   1.919   2.880 -0.1189 -0.4484 -0.8356
 5564SOL    HW217592   1.401   1.817   2.980 -0.2757 -0.2738 -0.7815
 5565SOL     OW17593   5.968   0.949   3.327 -0.2499  0.1694  0.0132
 5565SOL    HW117594   6.062   0.915   3.317 -0.5764 -0.2207 -2.0550
 5565SOL    HW217595   5.905   0.871   3.332 -0.7325  0.3839 -1.8735
 5566SOL     OW17596   0.327   3.469   0.715 -0.0658  0.3917  0.3972
 5566SOL    HW117597   0.332   3.384   0.766 -1.2639  0.0020 -0.1130
 5566SOL    HW217598   0.331   3.546   0.779 -3.5524 -0.0769  1.3718
 5567SOL     OW17599   4.665   4.941   4.054 -0.0484  0.2263  0.1119
 5567SOL    HW117600   4.724   4.889   3.993 -0.2571  1.1739 -0.9469
 5567SOL    HW217601   4.713   5.024   4.084  0.1355 -0.3453  1.4441
 5568SOL     OW17602   5.199   6.834   0.329  0.1783  0.0677 -0.1649
 5568SOL    HW117603   5.248   6.920   0.313 -0.7088  0.6400  0.1262
 5568SOL    HW217604   5.125   6.850   0.394 -0.1978 -0.8534 -0.3563
 5569SOL     OW17605   6.717   4.581   6.573  0.6784 -0.5079 -0.0194
 5569SOL    HW117606   6.768   4.663   6.546  0.4335 -0.3643 -0.0415
 5569SOL    HW217607   6.764   4.500   6.536  0.5092 -0.3344 -0.6324
 5570SOL     OW17608   3.975   1.445   5.055  0.3401  0.4540 -0.0174
 5570SOL    HW117609   4.047   1.404   4.999 -0.3300 -0.7506 -0.0115
 5570SOL    HW217610   3.987   1.545   5.055 -0.3950  0.6644 -3.4327
 5571SOL     OW17611   6.809   3.760   6.734 -0.4590 -0.3004  0.0939
 5571SOL    HW117612   6.805   3.782   6.832  0.6599 -0.4263  0.1829
 5571SOL    HW217613   6.788   3.663   6.721  2.4750 -1.0999  0.5966
 5572SOL     OW17614   6.780   4.079   4.794  0.5324  0.2772  0.0999
 5572SOL    HW117615   6.724   4.018   4.739 -0.1509  1.0753 -0.1106
 5572SOL    HW217616   6.778   4.049   4.890 -0.7759  0.6392  0.2115
 5573SOL     OW17617   5.930   2.163   5.153 -0.2438  0.3698 -0.7892
 5573SOL    HW117618   5.923   2.117   5.064  0.1969 -1.3446  0.0232
 5573SOL    HW217619   5.845   2.151   5.203  0.9652 -2.7080  0.8150
 5574SOL     OW17620   0.559   3.349   2.467  0.1494 -0.8101  0.3378
 5574SOL    HW117621   0.489   3.286   2.433 -1.4233  1.1441 -0.3309
 5574SOL    HW217622   0.515   3.420   2.522  2.1023 -1.3657  2.7631
 5575SOL     OW17623   3.438   6.860   4.593  0.5017 -0.8857 -0.2765
 5575SOL    HW117624   3.481   6.949   4.609 -0.6734 -0.5731  1.4315
 5575SOL    HW217625   3.388   6.862   4.506 -2.4305  1.4062  1.2894
 5576SOL     OW17626   0.186   1.644   3.465 -0.0989 -0.4985 -0.3954
 5576SOL    HW117627   0.095   1.662   3.504  1.2104  3.2167  1.4073
 5576SOL    HW217628   0.198   1.700   3.383  0.9540  0.0160  0.0948
 5577SOL     OW17629   2.472   3.840   1.649  0.5056 -0.2619 -0.8071
 5577SOL    HW117630   2.485   3.939   1.656  1.0166 -0.3910  0.3297
 5577SOL    HW217631   2.380   3.816   1.680  0.2350 -0.1120 -1.4765
 5578SOL     OW17632   2.051   4.463   5.001 -0.3935 -0.2742 -0.2076
 5578SOL    HW117633   2.132   4.410   4.975  0.9756  0.4593  2.2182
 5578SOL    HW217634   2.078   4.556   5.027 -1.7295 -0.4353  2.0727
 5579SOL     OW17635   4.988   1.791   1.857  0.1178  0.1429  0.2207
 5579SOL    HW117636   4.933   1.750   1.784  1.2474 -3.1727  1.0777
 5579SOL    HW217637   5.063   1.844   1.816  0.2381 -0.9381 -1.0198
 5580SOL     OW17638   6.683   0.548   5.826 -0.1014 -0.3293  0.2662
 5580SOL    HW117639   6.722   0.479   5.887  1.2579  0.4377  0.3310
 5580SOL    HW217640   6.621   0.607   5.879  1.0582  0.3249  0.9530
 5581SOL     OW17641   4.689   6.819   4.627  0.3230 -0.3337 -0.7885
 5581SOL    HW117642   4.628   6.894   4.601 -0.6024 -0.6410  0.3850
 5581SOL    HW217643   4.669   6.740   4.569 -1.1587 -0.7628  0.2413
 5582SOL     OW17644   5.095   0.577   0.734 -0.2696 -0.1067  0.1080
 5582SOL    HW117645   5.066   0.664   0.695  1.2925 -0.0076 -0.8957
 5582SOL    HW217646   5.034   0.504   0.701 -1.3018  0.5064  0.5932
 5583SOL     OW17647   4.093   0.151   6.631  0.4751 -0.1664 -0.0661
 5583SOL    HW117648   4.164   0.152   6.701  0.5804 -0.3527 -0.1695
 5583SOL    HW217649   4.120   0.211   6.555  0.7160 -0.5536 -0.2934
 5584SOL     OW17650   1.741   2.632   5.080  0.4823  0.6857  0.3608
 5584SOL    HW117651   1.774   2.587   4.997  0.1681  0.4219  0.3745
 5584SOL    HW217652   1.803   2.705   5.106  0.9396  0.3350  0.2650
 5585SOL     OW17653   5.676   5.554   5.657  0.8354  0.2087  0.0862
 5585SOL    HW117654   5.726   5.596   5.582 -0.2030 -0.2251 -0.8784
 5585SOL    HW217655   5.581   5.540   5.630  0.4454 -0.0076  1.4711
 5586SOL     OW17656   0.847   1.328   2.526  0.2645 -0.5336  0.1094
 5586SOL    HW117657   0.793   1.325   2.442 -1.5459 -1.4097  1.2387
 5586SOL    HW217658   0.828   1.414   2.575  1.0746 -0.1652 -0.2097
 5587SOL     OW17659   0.129   1.667   5.338  0.1398 -0.6276  0.3323
 5587SOL    HW117660   0.122   1.702   5.432 -0.0130  0.8029 -0.1767
 5587SOL    HW217661   0.093   1.574   5.334 -0.3257 -0.5205  1.5966
 5588SOL     OW17662   5.363   3.278   6.987 -0.2868  0.3375 -0.1794
 5588SOL    HW117663   5.404   3.315   6.903 -0.6641  1.7049  0.2060
 5588SOL    HW217664   5.277   3.231   6.964  0.8480 -1.5182 -0.8409
 5589SOL     OW17665   4.268   4.831   3.671  0.1035 -0.0146  0.0279
 5589SOL    HW117666   4.177   4.827   3.712  0.1992 -0.0259  0.2420
 5589SOL    HW217667   4.285   4.748   3.618  0.7118 -0.9031  1.5332
 5590SOL     OW17668   3.695   6.577   6.850  0.0907  0.5266 -0.3099
 5590SOL    HW117669   3.675   6.599   6.946 -1.2483  0.3987 -0.5411
 5590SOL    HW217670   3.750   6.494   6.846  1.3691  1.2967  0.3894
 5591SOL     OW17671   3.569   6.523   5.895  0.3507  0.0573 -0.4456
 5591SOL    HW117672   3.653   6.557   5.854  0.2385  1.4605  0.4284
 5591SOL    HW217673   3.492   6.579   5.866  0.0660  0.1913  0.5225
 5592SOL     OW17674   4.682   1.171   6.668  0.2767 -0.2597 -0.1124
 5592SOL    HW117675   4.742   1.247   6.643  0.6229  0.1098  1.7065
 5592SOL    HW217676   4.716   1.129   6.753 -0.9831 -1.2461 -0.0744
 5593SOL     OW17677   5.982   5.669   4.172 -0.9781 -0.5125  0.0490
 5593SOL    HW117678   6.008   5.734   4.101 -0.2628 -1.9856 -1.1068
 5593SOL    HW217679   6.049   5.673   4.246 -0.2031 -0.8101 -0.6147
 5594SOL     OW17680   6.621   6.905   6.896 -0.6794 -0.2021  0.4658
 5594SOL    HW117681   6.642   6.998   6.927 -2.1645 -0.3977  2.2030
 5594SOL    HW217682   6.695   6.872   6.838 -0.7761  2.5854 -1.4222
 5595SOL     OW17683   1.938   3.699   0.162 -0.2887 -0.3187 -0.0460
 5595SOL    HW117684   2.019   3.730   0.112 -1.2748 -1.3418 -2.4414
 5595SOL    HW217685   1.967   3.645   0.241  1.3471  1.6351  0.7836
 5596SOL     OW17686   3.624   0.771   2.044 -0.4684  0.4479 -0.3739
 5596SOL    HW117687   3.526   0.786   2.036 -0.7074  0.9810  2.5670
 5596SOL    HW217688   3.642   0.674   2.062 -0.6700  0.7012  1.2813
 5597SOL     OW17689   6.172   4.456   4.707 -0.2943  0.3212 -0.2796
 5597SOL    HW117690   6.238   4.384   4.731  1.3706  0.3799 -4.0353
 5597SOL    HW217691   6.185   4.534   4.768 -0.3579 -1.4584  2.2053
 5598SOL     OW17692   3.120   4.214   5.718 -0.7094 -0.2397  0.4814
 5598SOL    HW117693   3.055   4.227   5.793  0.6712  1.0096  1.5052
 5598SOL    HW217694   3.089   4.264   5.638 -2.1878 -1.5664  0.1620
 5599SOL     OW17695   0.571   2.256   0.933  0.5516  0.5628  0.1015
 5599SOL    HW117696   0.666   2.243   0.903  1.1569  2.5808  0.9667
 5599SOL    HW217697   0.509   2.221   0.864  1.9135  0.2843 -1.0294
 5600SOL     OW17698   1.974   6.502   3.953  0.1317  0.5362  0.2935
 5600SOL    HW117699   1.958   6.408   3.982 -1.4766  0.2585 -1.2950
 5600SOL    HW217700   1.943   6.512   3.858  1.0721  2.4619  0.1576
 5601SOL     OW17701   3.981   6.785   5.049  0.2402 -0.1403  0.2941
 5601SOL    HW117702   4.062   6.732   5.074  1.9506  2.9826  1.9211
 5601SOL    HW217703   3.945   6.831   5.130 -2.9020 -0.9418 -0.5137
 5602SOL     OW17704   2.684   6.788   0.677 -0.2276 -0.1557  0.1325
 5602SOL    HW117705   2.731   6.737   0.605 -2.0634 -2.5402  0.4900
 5602SOL    HW217706   2.742   6.793   0.758  0.4107 -0.7888 -0.2690
 5603SOL     OW17707   3.783   6.605   2.337 -0.3545  0.0803  0.0738
 5603SOL    HW117708   3.688   6.597   2.308 -0.4321 -0.0574  0.3595
 5603SOL    HW217709   3.842   6.558   2.272 -0.5118 -0.1019  0.0629
 5604SOL     OW17710   0.112   2.342   0.925  0.0992 -0.1906 -0.0826
 5604SOL    HW117711   0.134   2.244   0.930 -0.0335 -0.3016 -1.3970
 5604SOL    HW217712   0.186   2.395   0.967 -0.3970 -0.8895  1.7936
 5605SOL     OW17713   0.924   6.513   6.214 -0.2754 -0.1476  0.0808
 5605SOL    HW117714   0.976   6.572   6.275  0.0721  0.6770 -0.9691
 5605SOL    HW217715   0.980   6.433   6.190 -0.4976 -0.5883  0.9844
 5606SOL     OW17716   4.571   2.220   6.706 -0.1529 -0.0189  0.0057
 5606SOL    HW117717   4.608   2.172   6.785  0.3868  1.3287  0.6087
 5606SOL    HW217718   4.485   2.178   6.679  0.6139 -1.7281  0.0665
 5607SOL     OW17719   4.349   2.140   3.320  0.4469 -0.7476  0.1966
 5607SOL    HW117720   4.444   2.164   3.301  0.3208  0.5414  1.0614
 5607SOL    HW217721   4.345   2.080   3.399  0.5382 -0.8001  0.1614
 5608SOL     OW17722   3.994   3.235   4.980 -0.5268 -0.7582 -0.5914
 5608SOL    HW117723   3.947   3.159   4.936 -0.3634 -0.1243 -1.8958
 5608SOL    HW217724   4.022   3.302   4.911 -0.4856  0.3944  0.5013
 5609SOL     OW17725   0.208   6.910   5.739  0.4054  0.1025 -0.0918
 5609SOL    HW117726   0.302   6.921   5.771  0.5302 -1.4479  0.1754
 5609SOL    HW217727   0.167   6.831   5.785 -0.2266 -0.7092 -1.9512
 5610SOL     OW17728   0.920   6.443   5.244 -0.4017 -0.0801 -0.1566
 5610SOL    HW117729   0.876   6.518   5.195 -2.6119  0.8786  3.0020
 5610SOL    HW217730   0.857   6.365   5.249 -0.2675 -0.1194  1.1707
 5611SOL     OW17731   0.746   4.112   4.102  0.0594 -0.2936 -0.4408
 5611SOL    HW117732   0.762   4.151   4.193  1.1837  1.6507 -1.3927
 5611SOL    HW217733   0.648   4.100   4.088 -0.2092  0.5351  0.5805
 5612SOL     OW17734   0.104   2.230   0.021  0.1972 -0.0894 -0.1016
 5612SOL    HW117735   0.090   2.132   0.035  0.9346 -0.3068 -0.8173
 5612SOL    HW217736   0.053   2.281   0.090 -1.0779 -0.9384 -0.3898
 5613SOL     OW17737   1.755   1.286   1.407  0.2428  0.1340  0.6143
 5613SOL    HW117738   1.765   1.249   1.315  1.2302  0.7545  0.4592
 5613SOL    HW217739   1.662   1.321   1.420  0.4275  1.1083 -0.5511
 5614SOL     OW17740   4.445   2.657   0.899 -0.3351 -0.3785 -0.5221
 5614SOL    HW117741   4.354   2.689   0.874 -0.2204  0.1419 -0.2930
 5614SOL    HW217742   4.438   2.598   0.980 -0.4557 -0.2647 -0.4492
 5615SOL     OW17743   3.518   3.527   2.214 -0.1888  0.1564 -0.3731
 5615SOL    HW117744   3.576   3.607   2.225  0.3989 -0.2539 -0.3977
 5615SOL    HW217745   3.533   3.487   2.123 -1.6186  0.8951 -0.9563
 5616SOL     OW17746   2.871   5.588   2.935 -0.4652  0.0691 -0.0216
 5616SOL    HW117747   2.891   5.493   2.913 -2.1704  0.3203 -3.2040
 5616SOL    HW217748   2.906   5.648   2.863 -0.5654  1.7569  1.2490
 5617SOL     OW17749   5.665   6.649   0.774  1.0182 -0.0902 -0.2127
 5617SOL    HW117750   5.721   6.570   0.751  1.8897  1.2660 -3.1744
 5617SOL    HW217751   5.582   6.650   0.718 -0.9236 -0.7762  2.4300
 5618SOL     OW17752   5.418   4.975   4.333  0.3293  0.2018 -0.0488
 5618SOL    HW117753   5.506   4.993   4.377  1.1128 -0.3599 -1.3167
 5618SOL    HW217754   5.348   5.035   4.371  1.9398  2.9977 -1.2478
 5619SOL     OW17755   3.006   3.802   4.022  0.4726  0.1214 -0.1764
 5619SOL    HW117756   2.930   3.763   3.970 -0.4733  1.0476  0.4689
 5619SOL    HW217757   3.019   3.751   4.107 -0.3839  0.8400  0.3940
 5620SOL     OW17758   6.215   0.458   7.015 -0.2398 -0.7871 -0.0800
 5620SOL    HW117759   6.137   0.396   7.015  1.1298 -2.7325 -2.5185
 5620SOL    HW217760   6.282   0.428   7.082  0.2048 -1.7247 -0.9175
 5621SOL     OW17761   2.014   5.500   6.247 -0.1211 -0.1736 -0.3903
 5621SOL    HW117762   2.012   5.492   6.347 -0.5132  0.9267 -0.2909
 5621SOL    HW217763   2.014   5.409   6.206 -3.4380 -0.7535  0.5742
 5622SOL     OW17764   4.713   5.585   1.192  0.4568 -0.0168  0.2387
 5622SOL    HW117765   4.751   5.498   1.224  1.0929  0.8393  1.8767
 5622SOL    HW217766   4.631   5.607   1.244 -0.8102 -0.4991 -1.4393
 5623SOL     OW17767   4.975   2.657   2.671  0.1132  0.1991 -0.4574
 5623SOL    HW117768   4.971   2.744   2.621 -0.0677  0.4059 -0.0913
 5623SOL    HW217769   4.908   2.594   2.632  0.0518  0.3191 -0.5486
 5624SOL     OW17770   1.941   3.930   5.258 -0.2728  0.3364 -0.0187
 5624SOL    HW117771   2.040   3.939   5.246 -0.3351  0.2537 -0.6211
 5624SOL    HW217772   1.912   3.838   5.234 -0.5548  0.4889 -0.2765
 5625SOL     OW17773   6.847   0.369   0.054  0.6711  0.1807  0.4391
 5625SOL    HW117774   6.824   0.287   0.002  2.2024  0.6128 -1.0186
 5625SOL    HW217775   6.818   0.358   0.149 -1.1845 -1.1072 -0.2230
 5626SOL     OW17776   0.473   4.017   4.170 -0.4041 -0.4074 -0.0151
 5626SOL    HW117777   0.399   3.965   4.212  0.0737 -2.9291 -2.0028
 5626SOL    HW217778   0.553   4.016   4.231 -0.9168 -0.6366  0.6682
 5627SOL     OW17779   1.416   4.402   6.330  0.1619  0.0761 -0.4038
 5627SOL    HW117780   1.344   4.456   6.288 -0.1851  0.2204  0.3716
 5627SOL    HW217781   1.484   4.377   6.260 -0.3085  0.4643 -1.0059
 5628SOL     OW17782   0.523   0.010   3.315 -0.5155  0.3017  0.0917
 5628SOL    HW117783   0.434   0.055   3.313  0.3516  2.1532  0.9135
 5628SOL    HW217784   0.594   0.077   3.336  1.1544 -1.0337 -1.0511
 5629SOL     OW17785   3.072   1.401   6.698  0.4213  0.6044 -0.2715
 5629SOL    HW117786   2.972   1.413   6.697  0.4143  0.9982  1.6687
 5629SOL    HW217787   3.094   1.304   6.686 -0.3043  0.2367  1.1667
 5630SOL     OW17788   2.983   3.255   6.678  0.4049 -0.0213  0.0578
 5630SOL    HW117789   2.906   3.207   6.721  0.7660 -1.0458 -0.3923
 5630SOL    HW217790   2.954   3.292   6.589  0.8041 -1.7547 -0.8380
 5631SOL     OW17791   6.189   2.259   1.983  0.2874 -0.0257  0.0960
 5631SOL    HW117792   6.091   2.243   1.992  0.4690 -1.6343 -0.3925
 5631SOL    HW217793   6.208   2.357   1.984 -1.6864  0.5409 -3.1242
 5632SOL     OW17794   3.084   4.377   5.274  0.3664 -0.2505  0.3471
 5632SOL    HW117795   3.106   4.311   5.202  0.7305 -0.4538  0.6455
 5632SOL    HW217796   3.004   4.431   5.246  1.2167  0.4908 -0.7431
 5633SOL     OW17797   4.152   1.619   4.184 -0.6804 -0.4749  0.7311
 5633SOL    HW117798   4.146   1.656   4.091 -3.8792 -2.0300  0.1953
 5633SOL    HW217799   4.248   1.600   4.206  0.3364  1.4772 -1.5506
 5634SOL     OW17800   6.625   2.583   3.018  0.0495  0.2119 -0.1816
 5634SOL    HW117801   6.641   2.486   2.995 -2.4070 -0.1113 -0.8018
 5634SOL    HW217802   6.679   2.607   3.099 -0.1513 -2.0242  0.7013
 5635SOL     OW17803   1.812   3.174   3.904  0.0481  0.0013 -0.3918
 5635SOL    HW117804   1.805   3.076   3.923  1.0285  0.1369  0.8110
 5635SOL    HW217805   1.776   3.225   3.982 -0.1735  0.6105 -0.8875
 5636SOL     OW17806   6.112   5.094   5.114 -0.1013  0.0915 -0.3233
 5636SOL    HW117807   6.161   5.010   5.134  0.1187  0.1672 -0.5455
 5636SOL    HW217808   6.147   5.134   5.029  0.2262  0.7400  0.1119
 5637SOL     OW17809   0.828   2.179   0.855  0.1333 -0.2466  0.2583
 5637SOL    HW117810   0.814   2.137   0.765  0.0462 -0.5088  0.3914
 5637SOL    HW217811   0.909   2.139   0.898  0.1083 -0.2041  0.3452
 5638SOL     OW17812   0.451   2.438   2.629 -0.0345  0.2276 -0.1545
 5638SOL    HW117813   0.371   2.495   2.616  0.9260  1.6814  0.1040
 5638SOL    HW217814   0.526   2.471   2.572  0.6269 -0.6173  0.1966
 5639SOL     OW17815   5.367   3.779   6.858  0.2893 -0.0959  0.0654
 5639SOL    HW117816   5.414   3.759   6.945  0.1381 -0.5481  0.0454
 5639SOL    HW217817   5.386   3.874   6.831  0.3422  0.0485  0.5905
 5640SOL     OW17818   5.207   3.953   3.376 -0.2561 -0.3102  0.1314
 5640SOL    HW117819   5.282   3.903   3.419  0.0600 -1.4674 -1.6757
 5640SOL    HW217820   5.181   3.908   3.291 -1.9485  0.9848 -0.0937
 5641SOL     OW17821   6.545   6.985   6.332 -0.1375  0.4319  0.0705
 5641SOL    HW117822   6.494   6.913   6.286  0.6453 -0.7338  0.9777
 5641SOL    HW217823   6.641   6.981   6.304 -0.1379  1.3176 -0.0887
 5642SOL     OW17824   1.255   1.026   4.085 -0.5114  0.2711 -0.6145
 5642SOL    HW117825   1.161   1.052   4.109 -1.3153 -3.9800  1.8577
 5642SOL    HW217826   1.299   0.983   4.164  1.0733 -3.8997 -3.3835
 5643SOL     OW17827   1.239   1.267   3.592 -1.0575 -0.2309 -0.5942
 5643SOL    HW117828   1.306   1.341   3.595  1.3242 -2.2766 -0.2045
 5643SOL    HW217829   1.191   1.262   3.680 -1.0600  0.6700 -0.5380
 5644SOL     OW17830   2.479   1.126   4.996 -0.4053  0.0522  0.3804
 5644SOL    HW117831   2.420   1.046   5.010  0.1882 -0.6147 -0.8148
 5644SOL    HW217832   2.424   1.209   4.998 -1.1084 -0.4221  1.1132
 5645SOL     OW17833   5.696   0.181   5.220  1.0263 -0.0701 -0.2412
 5645SOL    HW117834   5.770   0.226   5.170  0.9950 -2.4977 -2.6717
 5645SOL    HW217835   5.608   0.218   5.190  1.1066  1.1493  0.9201
 5646SOL     OW17836   2.899   3.737   2.505  0.5623 -0.5910 -0.2335
 5646SOL    HW117837   2.890   3.808   2.436  0.7240 -1.4132 -1.1090
 5646SOL    HW217838   2.962   3.768   2.577  1.4895 -0.2798 -1.1614
 5647SOL     OW17839   2.260   4.072   7.010  0.3109 -0.7834 -0.3234
 5647SOL    HW117840   2.326   4.116   6.949  1.8021 -0.5300  1.3823
 5647SOL    HW217841   2.168   4.103   6.987  0.8369 -0.4900 -2.2304
 5648SOL     OW17842   6.373   6.012   4.234 -0.0970  0.2346  0.0392
 5648SOL    HW117843   6.336   5.990   4.324  1.5266 -0.2016  0.6348
 5648SOL    HW217844   6.354   5.937   4.171 -2.2131  1.0145 -0.3316
 5649SOL     OW17845   5.225   4.881   2.567  0.3126 -0.4116 -0.0999
 5649SOL    HW117846   5.216   4.933   2.482 -0.2103 -0.0035  0.1999
 5649SOL    HW217847   5.145   4.821   2.578 -0.7271  1.1444  1.1731
 5650SOL     OW17848   6.310   5.162   5.883 -0.6396  0.3710 -0.2418
 5650SOL    HW117849   6.246   5.218   5.935 -2.4682 -1.2982 -0.5691
 5650SOL    HW217850   6.404   5.195   5.898 -1.1538  0.5944  3.3068
 5651SOL     OW17851   5.662   0.133   4.862 -0.2926 -0.1319 -0.2807
 5651SOL    HW117852   5.673   0.120   4.763 -1.0149 -2.8627 -0.0863
 5651SOL    HW217853   5.748   0.110   4.908  0.1566  1.4947 -0.2573
 5652SOL     OW17854   3.706   5.999   6.620 -0.3502 -0.4417  0.2930
 5652SOL    HW117855   3.692   6.057   6.701 -2.3633  0.6209 -0.7372
 5652SOL    HW217856   3.701   6.055   6.538  1.3833 -1.5522 -0.6353
 5653SOL     OW17857   0.808   6.705   4.009  0.2677  0.3545 -0.3609
 5653SOL    HW117858   0.855   6.618   3.995  3.5531  1.9984 -0.7026
 5653SOL    HW217859   0.734   6.715   3.942  0.7150 -1.5706 -1.2045
 5654SOL     OW17860   5.537   6.290   3.846 -0.0421  0.0878  1.1661
 5654SOL    HW117861   5.469   6.264   3.915  0.1324 -1.5425  0.7821
 5654SOL    HW217862   5.573   6.207   3.803  0.9724  1.0066  0.1881
 5655SOL     OW17863   2.166   6.320   1.088 -0.2339 -0.1990 -0.3332
 5655SOL    HW117864   2.172   6.273   1.176  1.6075  0.5670  0.0063
 5655SOL    HW217865   2.091   6.283   1.035 -0.4923 -1.6581  0.9948
 5656SOL     OW17866   4.949   4.511   6.004  0.2204 -1.0254 -0.2264
 5656SOL    HW117867   5.039   4.470   6.017 -0.3467 -2.7858 -1.4853
 5656SOL    HW217868   4.922   4.502   5.908 -1.8575 -1.7692  0.3732
 5657SOL     OW17869   2.575   1.003   1.090  0.0010 -0.0824 -0.4008
 5657SOL    HW117870   2.613   1.058   1.164 -0.6145 -0.7274  0.4051
 5657SOL    HW217871   2.531   1.063   1.023 -1.2811  0.4012  0.8154
 5658SOL     OW17872   3.387   2.086   3.071  0.0955 -0.2337 -0.0597
 5658SOL    HW117873   3.406   1.988   3.067 -2.0234 -0.6557 -1.4106
 5658SOL    HW217874   3.401   2.119   3.165 -0.2930 -2.0757  0.6916
 5659SOL     OW17875   2.353   2.539   4.771  0.3449 -0.0259 -0.2276
 5659SOL    HW117876   2.447   2.512   4.748  0.0841 -0.6686 -0.5582
 5659SOL    HW217877   2.355   2.625   4.823  1.0614  0.4093 -0.9464
 5660SOL     OW17878   4.259   6.379   4.539  0.1348 -0.5938 -0.7732
 5660SOL    HW117879   4.162   6.357   4.527 -0.6866  1.7002  0.8126
 5660SOL    HW217880   4.282   6.458   4.482  0.2570  0.6358  0.8961
 5661SOL     OW17881   4.818   6.978   4.007  0.1891 -0.0663 -0.0109
 5661SOL    HW117882   4.771   7.060   3.973 -1.5453 -0.4870  1.2327
 5661SOL    HW217883   4.785   6.898   3.957 -0.5240 -0.3762  0.9324
 5662SOL     OW17884   6.839   2.725   0.581  0.1033  0.1437  0.2693
 5662SOL    HW117885   6.891   2.734   0.496  0.8498  1.3514  0.8263
 5662SOL    HW217886   6.748   2.691   0.560 -0.6025  2.7463 -1.3502
 5663SOL     OW17887   4.664   2.783   4.997  0.0999  0.0392 -0.0117
 5663SOL    HW117888   4.575   2.758   5.034 -1.4031  2.6829 -1.5961
 5663SOL    HW217889   4.717   2.830   5.068 -0.0298 -0.8823  0.7174
 5664SOL     OW17890   6.609   3.439   3.333  0.5474  0.1841 -0.7205
 5664SOL    HW117891   6.671   3.463   3.259  1.0778 -2.7875 -1.3650
 5664SOL    HW217892   6.650   3.367   3.389 -1.5027 -0.4712  0.0334
 5665SOL     OW17893   1.078   6.068   3.810  0.3499 -0.0097  0.1350
 5665SOL    HW117894   1.122   6.025   3.731  2.7041  3.3184 -0.6243
 5665SOL    HW217895   0.999   6.121   3.779  0.0072 -0.3665  0.3856
 5666SOL     OW17896   2.553   1.828   5.278  0.2647  0.0577  0.0814
 5666SOL    HW117897   2.562   1.737   5.320 -0.1533  0.3367  0.7933
 5666SOL    HW217898   2.614   1.834   5.199  0.3644 -0.8106  0.0820
 5667SOL     OW17899   6.890   3.639   4.675  0.4680 -0.0526  0.7015
 5667SOL    HW117900   6.826   3.612   4.747 -0.3206  0.2972  0.1468
 5667SOL    HW217901   6.855   3.610   4.586 -0.5228  2.7978  0.0369
 5668SOL     OW17902   2.416   2.632   2.437  0.2427 -0.6355 -0.0895
 5668SOL    HW117903   2.465   2.553   2.401  1.9400  0.6254 -0.6804
 5668SOL    HW217904   2.440   2.646   2.533  0.5259 -0.4089 -0.1925
 5669SOL     OW17905   0.554   3.117   3.964 -0.2512  0.3293  0.4108
 5669SOL    HW117906   0.616   3.180   4.010 -0.2702  1.0063 -0.4700
 5669SOL    HW217907   0.504   3.166   3.892 -0.8838 -0.4988  0.2742
 5670SOL     OW17908   6.031   2.663   6.094  0.1706  0.3752  0.1673
 5670SOL    HW117909   5.967   2.623   6.028  0.6586 -0.9692  0.4714
 5670SOL    HW217910   6.016   2.762   6.099  1.0152  0.7697 -2.9454
 5671SOL     OW17911   1.699   5.815   4.108 -0.1148 -0.3991 -0.0922
 5671SOL    HW117912   1.640   5.765   4.171  0.5996 -0.4879  0.5156
 5671SOL    HW217913   1.760   5.874   4.160 -0.9212  1.1180 -0.7775
 5672SOL     OW17914   3.304   4.456   0.578  0.5153 -0.0539 -0.1618
 5672SOL    HW117915   3.285   4.412   0.666 -2.7476 -2.3630 -1.7705
 5672SOL    HW217916   3.249   4.539   0.571  0.4214 -0.1143 -0.1574
 5673SOL     OW17917   2.703   6.527   1.312 -0.1587  0.6705  0.3544
 5673SOL    HW117918   2.758   6.471   1.373  0.4818  0.2510 -0.5905
 5673SOL    HW217919   2.610   6.490   1.307  0.5320 -1.0053 -1.1022
 5674SOL     OW17920   0.938   3.466   4.915 -0.5775  0.0118 -0.1268
 5674SOL    HW117921   1.029   3.437   4.945 -0.3641  0.6995 -0.0894
 5674SOL    HW217922   0.879   3.480   4.994 -0.8074 -0.7116 -0.1645
 5675SOL     OW17923   5.168   1.493   0.581  0.0832 -0.4721 -0.2442
 5675SOL    HW117924   5.246   1.553   0.560 -0.1490  0.0851  0.4365
 5675SOL    HW217925   5.183   1.403   0.540  1.9337 -0.9592  1.3540
 5676SOL     OW17926   1.248   4.929   2.556 -0.3628  1.0389  0.2904
 5676SOL    HW117927   1.268   5.022   2.526  0.1381  0.8208 -0.0635
 5676SOL    HW217928   1.156   4.925   2.594 -0.0723  1.8720  1.1121
 5677SOL     OW17929   3.712   0.722   1.414  0.1906 -0.4847 -0.1330
 5677SOL    HW117930   3.730   0.793   1.482  0.8548 -1.9512  1.2821
 5677SOL    HW217931   3.791   0.660   1.410 -1.1268 -2.2267  0.0576
 5678SOL     OW17932   6.528   3.215   0.691  0.6398  0.2706 -0.0487
 5678SOL    HW117933   6.544   3.117   0.683  0.7976  0.2886  0.0201
 5678SOL    HW217934   6.487   3.235   0.780  1.3264  0.3441  0.2668
 5679SOL     OW17935   2.777   1.695   2.340  0.1081 -0.1134  0.5810
 5679SOL    HW117936   2.827   1.619   2.299 -0.8257 -1.2663  1.4861
 5679SOL    HW217937   2.742   1.755   2.269 -0.2049 -1.2327 -0.2414
 5680SOL     OW17938   0.043   3.202   4.764 -0.1604  0.4027  0.1026
 5680SOL    HW117939  -0.017   3.135   4.720  2.7489 -1.8542 -0.6894
 5680SOL    HW217940   0.078   3.265   4.696 -1.4403  1.6663  0.5546
 5681SOL     OW17941   3.180   2.591   5.413  0.2600  0.6717  0.4084
 5681SOL    HW117942   3.081   2.587   5.430  0.2956 -1.1434  0.3950
 5681SOL    HW217943   3.201   2.539   5.330  1.1331  1.8779 -0.1591
 5682SOL     OW17944   3.044   0.099   4.713  0.3633 -0.0147  0.0732
 5682SOL    HW117945   3.126   0.093   4.770  0.7806  2.1666 -0.2369
 5682SOL    HW217946   3.070   0.096   4.617  0.0508  0.3673 -0.0255
 5683SOL     OW17947   5.258   2.750   2.344 -0.1305 -0.0300  0.6502
 5683SOL    HW117948   5.290   2.680   2.280  0.5663 -1.1602  2.1831
 5683SOL    HW217949   5.305   2.739   2.432 -2.6419  0.0402  2.1026
 5684SOL     OW17950   4.329   4.326   5.784 -0.0209 -0.1904  0.0164
 5684SOL    HW117951   4.302   4.245   5.733  0.7167 -0.4148 -0.0284
 5684SOL    HW217952   4.428   4.338   5.778  0.0881 -0.2028  1.3603
 5685SOL     OW17953   5.017   1.585   3.670  0.0659  0.3580 -0.0950
 5685SOL    HW117954   4.952   1.545   3.606  1.4850 -3.1089  0.4605
 5685SOL    HW217955   4.977   1.586   3.762  0.1287  0.0036 -0.0657
 5686SOL     OW17956   1.802   4.672   0.546  0.2587 -0.0643 -0.4660
 5686SOL    HW117957   1.832   4.766   0.565  0.1355 -0.2339  0.6199
 5686SOL    HW217958   1.811   4.654   0.448  0.1701  1.1179 -0.7152
 5687SOL     OW17959   5.757   2.897   1.219  0.2752  0.6681 -0.0190
 5687SOL    HW117960   5.745   2.976   1.280  1.1269  1.7257 -1.1591
 5687SOL    HW217961   5.837   2.844   1.249  0.2583  0.7668  0.2033
 5688SOL     OW17962   5.458   0.279   0.716 -0.0766  0.0845 -0.1345
 5688SOL    HW117963   5.411   0.367   0.704  0.0631  0.4662  1.8837
 5688SOL    HW217964   5.409   0.224   0.784 -0.1693 -1.4400 -1.3775
 5689SOL     OW17965   0.470   0.249   5.964 -0.0905 -0.2401  0.0425
 5689SOL    HW117966   0.566   0.224   5.961  0.1734  0.5236  1.4273
 5689SOL    HW217967   0.448   0.305   5.884  0.8299  0.2622  0.1240
 5690SOL     OW17968   6.699   2.005   1.331 -0.4817  0.1780 -0.3868
 5690SOL    HW117969   6.633   1.930   1.335 -0.8238  0.4355 -1.0226
 5690SOL    HW217970   6.784   1.977   1.375 -1.7288  0.6070  2.4802
 5691SOL     OW17971   4.558   6.473   5.207  0.0398 -0.0481  0.6376
 5691SOL    HW117972   4.566   6.566   5.173 -2.4425  0.2658  0.7602
 5691SOL    HW217973   4.501   6.419   5.144  0.5791 -1.2013  1.1037
 5692SOL     OW17974   4.199   1.286   2.282 -0.2280  0.3984  1.0971
 5692SOL    HW117975   4.229   1.305   2.189 -0.8807  1.3223  1.0563
 5692SOL    HW217976   4.266   1.229   2.328 -0.8353 -1.7779 -0.5671
 5693SOL     OW17977   3.377   5.228   5.037 -0.2736  0.7256  0.1373
 5693SOL    HW117978   3.355   5.326   5.038  2.1700  1.4585 -2.9012
 5693SOL    HW217979   3.326   5.184   4.962 -1.5533 -0.4677  1.6437
 5694SOL     OW17980   4.546   1.687   1.932  0.6015 -0.3169 -0.5213
 5694SOL    HW117981   4.620   1.753   1.923  0.8410 -0.4716  0.2892
 5694SOL    HW217982   4.473   1.725   1.988  0.5762 -0.5947 -0.3606
 5695SOL     OW17983   1.394   0.674   6.446 -0.0825 -0.0329 -0.6446
 5695SOL    HW117984   1.452   0.755   6.451 -0.7673  0.3959  0.7685
 5695SOL    HW217985   1.340   0.666   6.530  0.2069 -2.1374 -0.6022
 5696SOL     OW17986   1.736   6.227   3.790 -0.2246  0.1908 -0.2733
 5696SOL    HW117987   1.673   6.264   3.859  0.2238  0.7199 -0.1401
 5696SOL    HW217988   1.683   6.185   3.716 -0.7268  0.2862  0.0276
 5697SOL     OW17989   4.780   2.786   3.506  0.1148 -0.2796 -0.4968
 5697SOL    HW117990   4.757   2.839   3.425  1.4751 -0.0729 -0.7745
 5697SOL    HW217991   4.747   2.692   3.496 -1.7459  0.3135 -0.2766
 5698SOL     OW17992   0.752   5.692   5.503  0.3932  0.2548 -0.4508
 5698SOL    HW117993   0.677   5.717   5.442  0.6773 -2.2944 -2.0025
 5698SOL    HW217994   0.722   5.622   5.568  1.4411 -1.0935 -1.3499
 5699SOL     OW17995   0.118   5.820   5.051  0.4507  0.0237 -0.6734
 5699SOL    HW117996   0.121   5.760   5.131 -0.1428  0.7624 -0.0795
 5699SOL    HW217997   0.023   5.830   5.022  0.4639  1.1657 -0.3740
 5700SOL     OW17998   5.819   5.831   0.933 -0.0546  0.3786 -0.0363
 5700SOL    HW117999   5.734   5.827   0.881  0.1733 -2.0034 -0.2985
 5700SOL    HW218000   5.799   5.833   1.031 -0.4336 -1.7465 -0.0420
 5701SOL     OW18001   4.629   5.848   6.104  0.0780  0.3652 -0.0672
 5701SOL    HW118002   4.623   5.880   6.198 -1.0814 -1.6547  0.5982
 5701SOL    HW218003   4.714   5.797   6.092  2.4118  4.0872 -1.3821
 5702SOL     OW18004   3.792   3.640   4.401 -0.4871 -0.6687 -0.4716
 5702SOL    HW118005   3.856   3.693   4.345 -1.2099 -0.0596 -0.7373
 5702SOL    HW218006   3.841   3.600   4.479  0.3923 -0.9481 -1.1440
 5703SOL     OW18007   6.384   3.835   1.141  0.0893  0.0099  0.0470
 5703SOL    HW118008   6.415   3.802   1.052  0.4838  0.6440 -0.0624
 5703SOL    HW218009   6.319   3.910   1.127  1.7448  1.5468  0.2666
 5704SOL     OW18010   4.824   1.771   0.607  0.6463 -0.5079 -0.4057
 5704SOL    HW118011   4.814   1.714   0.689 -0.8167 -0.7913 -0.7639
 5704SOL    HW218012   4.879   1.723   0.539  1.5150 -0.4451  0.2311
 5705SOL     OW18013   3.561   5.649   3.816 -0.2748 -0.3892  0.3119
 5705SOL    HW118014   3.484   5.710   3.796  0.8195  0.2214 -2.6434
 5705SOL    HW218015   3.639   5.702   3.849  0.1928 -0.3408 -0.8091
 5706SOL     OW18016   4.108   1.749   1.941 -0.0209 -0.0575  0.0102
 5706SOL    HW118017   4.042   1.788   1.877 -1.3729 -1.3915  0.5333
 5706SOL    HW218018   4.182   1.815   1.956 -0.9100  1.2512 -1.0456
 5707SOL     OW18019   4.498   0.502   3.482  0.0542 -0.2211 -0.5623
 5707SOL    HW118020   4.443   0.514   3.399 -0.7654 -0.7137 -0.0988
 5707SOL    HW218021   4.590   0.470   3.456 -0.4565 -1.2024 -1.2428
 5708SOL     OW18022   3.029   3.459   3.852 -0.0612 -0.2778 -0.3713
 5708SOL    HW118023   3.001   3.552   3.826 -0.2083 -0.0584  0.5425
 5708SOL    HW218024   3.129   3.456   3.860 -0.0755 -0.1215 -0.1217
 5709SOL     OW18025   0.673   1.126   6.348  0.1619 -0.5648  0.0125
 5709SOL    HW118026   0.730   1.194   6.303 -1.2334  0.0106 -0.9565
 5709SOL    HW218027   0.731   1.059   6.394  1.5784  1.0986  0.7611
 5710SOL     OW18028   5.289   3.470   2.573  0.1160 -0.2174  0.2729
 5710SOL    HW118029   5.273   3.523   2.489 -0.5509  0.6329  0.9120
 5710SOL    HW218030   5.305   3.533   2.649 -0.6072 -0.9325  1.0380
 5711SOL     OW18031   2.769   4.227   0.265 -0.5686  0.1015  0.5008
 5711SOL    HW118032   2.736   4.271   0.348 -0.2652 -1.1794  1.3407
 5711SOL    HW218033   2.801   4.134   0.287 -1.3147 -0.6034 -1.1967
 5712SOL     OW18034   4.723   0.517   4.376 -0.1706 -0.1283 -0.0192
 5712SOL    HW118035   4.726   0.617   4.377 -0.3306 -0.1280  0.8650
 5712SOL    HW218036   4.773   0.483   4.296  0.9654  0.6154  0.3580
 5713SOL     OW18037   0.136   4.860   3.475  0.2395  0.3280 -0.4475
 5713SOL    HW118038   0.082   4.784   3.512  0.9938  0.3817  0.8096
 5713SOL    HW218039   0.220   4.871   3.528  0.6696  1.3489 -1.2983
 5714SOL     OW18040   3.857   0.292   1.730  0.3104  0.2215  0.0443
 5714SOL    HW118041   3.824   0.316   1.821  2.2855  0.1782  0.7953
 5714SOL    HW218042   3.949   0.327   1.717 -0.0823  0.6151 -2.1250
 5715SOL     OW18043   1.186   6.792   0.002 -0.3563 -0.4351  0.4880
 5715SOL    HW118044   1.258   6.859  -0.017 -0.0271 -1.4147 -2.0610
 5715SOL    HW218045   1.136   6.820   0.084  2.8945  0.2594  2.4227
 5716SOL     OW18046   0.356   2.110   4.627 -0.6245  0.0325  1.1418
 5716SOL    HW118047   0.333   2.135   4.721 -1.3453 -0.7148  1.1704
 5716SOL    HW218048   0.284   2.053   4.588 -1.1497  1.6737 -0.4446
 5717SOL     OW18049   1.389   3.187   5.900 -0.6713  0.0259  0.8529
 5717SOL    HW118050   1.428   3.263   5.952 -0.6494  0.8953 -0.3926
 5717SOL    HW218051   1.456   3.156   5.832 -0.4996 -1.4315  1.6466
 5718SOL     OW18052   4.464   6.534   5.640 -0.2290 -0.2415  0.0946
 5718SOL    HW118053   4.436   6.618   5.595  1.6808 -1.0243 -2.8175
 5718SOL    HW218054   4.539   6.553   5.704  2.3716  0.0549 -2.8083
 5719SOL     OW18055   4.880   2.675   6.725 -0.2590  0.1443  0.0958
 5719SOL    HW118056   4.932   2.602   6.770 -0.6221 -0.5516 -0.5912
 5719SOL    HW218057   4.833   2.730   6.795  2.1287  1.3979  0.8062
 5720SOL     OW18058   2.853   3.909   5.671  0.0417 -0.5330 -0.2827
 5720SOL    HW118059   2.828   4.005   5.680  1.1316 -0.2112 -0.5627
 5720SOL    HW218060   2.921   3.885   5.740  0.1468 -0.9734 -0.5348
 5721SOL     OW18061   6.704   0.308   4.767 -0.7498  0.4192  0.5791
 5721SOL    HW118062   6.744   0.260   4.689 -2.1073 -0.7617  0.5650
 5721SOL    HW218063   6.763   0.298   4.847  0.0979  0.6951  0.0054
 5722SOL     OW18064   3.710   6.347   3.017 -0.2365 -0.1481  0.2328
 5722SOL    HW118065   3.761   6.273   2.972 -2.5214 -1.8295  0.2508
 5722SOL    HW218066   3.693   6.322   3.112 -0.1153  0.9216  0.5472
 5723SOL     OW18067   1.179   0.563   0.873  0.0711 -0.8487  0.1088
 5723SOL    HW118068   1.101   0.500   0.866 -2.5323  2.0495  1.0356
 5723SOL    HW218069   1.225   0.548   0.961 -0.8866 -1.0689  0.5916
 5724SOL     OW18070   3.721   0.164   0.235  0.3484 -0.2132  0.5517
 5724SOL    HW118071   3.759   0.240   0.288  0.2699  1.2397 -1.3984
 5724SOL    HW218072   3.628   0.186   0.206  0.5967 -0.7162 -0.6868
 5725SOL     OW18073   4.745   0.389   3.743  0.1450 -0.1803  0.2302
 5725SOL    HW118074   4.821   0.436   3.786  0.6745 -0.9507  0.1582
 5725SOL    HW218075   4.757   0.390   3.643 -0.5927  0.7797  0.1338
 5726SOL     OW18076   3.937   2.341   6.606  0.6272 -0.0250 -0.2743
 5726SOL    HW118077   3.880   2.387   6.675  0.2578  0.8570 -1.1424
 5726SOL    HW218078   3.877   2.295   6.540  0.9245  0.2838 -0.7682
 5727SOL     OW18079   2.796   0.866   2.880 -0.0117  0.0615 -0.2631
 5727SOL    HW118080   2.699   0.854   2.858  0.3322  1.4357 -2.9647
 5727SOL    HW218081   2.811   0.957   2.919  0.0783 -0.5923  1.3014
 5728SOL     OW18082   0.594   6.531   5.613  0.7679 -0.3431  0.1034
 5728SOL    HW118083   0.609   6.547   5.710  0.0463 -0.9693  0.3283
 5728SOL    HW218084   0.682   6.517   5.567  1.0167 -2.2663  1.0649
 5729SOL     OW18085   6.828   4.642   3.116  0.0398  0.9114  0.2508
 5729SOL    HW118086   6.861   4.736   3.113  1.4798  0.4398  0.2389
 5729SOL    HW218087   6.885   4.586   3.055 -1.1454  0.1330 -0.1641
 5730SOL     OW18088   6.902   5.744   4.496  0.3772  0.1181  0.5680
 5730SOL    HW118089   6.901   5.783   4.588  1.1267 -0.3884  0.7991
 5730SOL    HW218090   6.988   5.767   4.451 -0.2366  0.8869 -0.2463
 5731SOL     OW18091   1.914   3.209   4.642  0.5071 -0.4459 -0.5712
 5731SOL    HW118092   2.009   3.184   4.620  0.1011 -1.8875 -0.7696
 5731SOL    HW218093   1.894   3.299   4.603  2.1196  0.4076  0.4231
 5732SOL     OW18094   5.149   3.814   2.075  0.0549 -0.5824  0.1389
 5732SOL    HW118095   5.055   3.807   2.110  0.1268  0.1915  0.5154
 5732SOL    HW218096   5.185   3.723   2.058  0.3810 -1.1334  3.1446
 5733SOL     OW18097   3.328   2.652   0.840  0.4411  0.2651 -0.0887
 5733SOL    HW118098   3.320   2.739   0.889  0.1683  0.6651 -0.8328
 5733SOL    HW218099   3.308   2.577   0.903 -1.9513  0.8515 -0.0389
 5734SOL     OW18100   3.311   1.419   6.536 -0.1372 -0.3049 -0.1915
 5734SOL    HW118101   3.225   1.424   6.586  0.3282  1.0224  0.5339
 5734SOL    HW218102   3.315   1.491   6.467  1.4108  1.4207  1.5581
 5735SOL     OW18103   6.555   6.590   6.053 -0.3915 -0.4218  0.3871
 5735SOL    HW118104   6.648   6.582   6.091 -0.7134 -0.1062  1.2566
 5735SOL    HW218105   6.526   6.685   6.055 -0.5595 -0.4538 -0.3268
 5736SOL     OW18106   6.022   3.312   0.853 -0.1959  0.6084 -0.2649
 5736SOL    HW118107   5.935   3.273   0.880 -0.0750  0.0635 -0.6397
 5736SOL    HW218108   6.015   3.346   0.759  1.1301 -3.3227 -2.0049
 5737SOL     OW18109   3.372   0.095   6.683  0.5868  0.1727 -0.4451
 5737SOL    HW118110   3.414   0.152   6.613  0.0677  3.3365  1.6050
 5737SOL    HW218111   3.435   0.082   6.759 -0.3046  0.4930  0.3752
 5738SOL     OW18112   6.829   1.088   3.707 -0.1035  0.1038 -0.8633
 5738SOL    HW118113   6.778   1.003   3.688  1.7730 -0.7804 -2.1863
 5738SOL    HW218114   6.913   1.090   3.653  0.6258  2.1633  0.2356
 5739SOL     OW18115   0.361   4.690   3.357  0.6768 -0.4282 -0.7452
 5739SOL    HW118116   0.331   4.635   3.279 -0.7623 -0.4715 -0.1878
 5739SOL    HW218117   0.287   4.752   3.385  1.2223 -0.3069  0.4895
 5740SOL     OW18118   4.953   2.067   0.232 -0.1456 -0.1487 -0.8022
 5740SOL    HW118119   4.915   1.999   0.169 -1.6088 -0.0937 -0.0216
 5740SOL    HW218120   4.933   2.159   0.199 -2.2604 -0.1067  0.4501
 5741SOL     OW18121   5.958   3.925   5.900 -0.2530  0.1637 -0.1284
 5741SOL    HW118122   6.045   3.892   5.861  0.5601  0.5890  1.2533
 5741SOL    HW218123   5.884   3.906   5.836  0.5950 -1.7549 -0.6223
 5742SOL     OW18124   2.242   0.854   0.221  0.3290 -0.5155 -0.0668
 5742SOL    HW118125   2.327   0.898   0.250  1.0092 -0.9763 -1.2467
 5742SOL    HW218126   2.212   0.894   0.134  0.7050 -2.0045 -0.9186
 5743SOL     OW18127   1.855   3.371   6.086 -0.6716 -0.4204  0.1805
 5743SOL    HW118128   1.869   3.381   5.987 -0.3040  1.1663  0.3646
 5743SOL    HW218129   1.857   3.274   6.110  1.8950 -0.7271 -0.9862
 5744SOL     OW18130   3.697   2.233   0.308  0.0381  0.4302  0.2584
 5744SOL    HW118131   3.726   2.203   0.217 -1.4137 -0.8427  0.1802
 5744SOL    HW218132   3.630   2.169   0.345 -1.1425  2.1723  1.2702
 5745SOL     OW18133   1.601   4.775   6.103  0.3369 -0.2216 -0.2712
 5745SOL    HW118134   1.601   4.681   6.139 -1.3883 -0.3393 -0.5140
 5745SOL    HW218135   1.533   4.829   6.152 -0.0639  0.3800 -1.4693
 5746SOL     OW18136   1.546   1.722   0.128  0.2965 -0.1713 -0.7793
 5746SOL    HW118137   1.573   1.717   0.032 -0.3413 -0.9578 -0.9300
 5746SOL    HW218138   1.455   1.763   0.135  1.6229  2.9639 -0.2377
 5747SOL     OW18139   6.378   1.095   2.436 -0.8328 -0.3801  0.3252
 5747SOL    HW118140   6.420   1.153   2.367  0.6610 -0.3428  1.2247
 5747SOL    HW218141   6.304   1.144   2.482  1.6107  1.6538  2.4025
 5748SOL     OW18142   4.305   0.845   3.271 -0.0210 -0.6091  0.0566
 5748SOL    HW118143   4.226   0.807   3.319 -0.0958  0.6154  0.9331
 5748SOL    HW218144   4.274   0.896   3.191 -0.1744  0.2103  0.6227
 5749SOL     OW18145   5.115   0.931   4.631  0.3708 -0.2414 -0.3212
 5749SOL    HW118146   5.167   0.940   4.717  0.4266 -2.2496 -0.1113
 5749SOL    HW218147   5.090   1.023   4.599 -0.6917  0.5511  2.4626
 5750SOL     OW18148   3.827   3.842   5.643 -0.1141 -0.2500  0.1990
 5750SOL    HW118149   3.815   3.748   5.611 -0.0334  0.6193 -2.5650
 5750SOL    HW218150   3.738   3.882   5.663 -0.2087 -0.5730  0.4474
 5751SOL     OW18151   5.517   3.040   2.815 -0.2857  0.3620  0.1480
 5751SOL    HW118152   5.524   2.984   2.897 -0.8500 -0.6541 -0.4723
 5751SOL    HW218153   5.543   3.135   2.836  0.8502 -0.1528  1.1834
 5752SOL     OW18154   4.150   5.093   4.695 -0.0800 -0.5501 -0.0177
 5752SOL    HW118155   4.089   5.021   4.662 -1.5581  0.6712 -0.0836
 5752SOL    HW218156   4.166   5.159   4.621  1.3565 -0.8352  0.0050
 5753SOL     OW18157   5.007   3.910   4.086  0.1504  0.2652  0.4719
 5753SOL    HW118158   5.055   3.947   4.165  1.4969  1.5594 -0.8730
 5753SOL    HW218159   4.947   3.980   4.048  0.0261 -0.1100 -0.0301
 5754SOL     OW18160   2.049   6.622   4.739  0.3302  0.3980 -0.1092
 5754SOL    HW118161   2.026   6.706   4.691  0.3763  1.0606  0.9858
 5754SOL    HW218162   2.079   6.644   4.832 -1.8073 -0.9491  0.9822
 5755SOL     OW18163   3.383   4.020   6.348 -0.6424 -0.0297 -0.1984
 5755SOL    HW118164   3.445   3.986   6.277  0.1552  1.1132 -0.0704
 5755SOL    HW218165   3.297   4.048   6.306 -1.7297 -2.9751 -0.2124
 5756SOL     OW18166   5.702   6.168   1.824  0.0493  0.2059 -0.1996
 5756SOL    HW118167   5.716   6.071   1.845 -0.7788 -1.0970 -4.5498
 5756SOL    HW218168   5.778   6.200   1.767 -1.1651  1.1934 -1.2931
 5757SOL     OW18169   3.538   4.207   0.300 -0.2112  0.4058 -0.0805
 5757SOL    HW118170   3.579   4.169   0.383 -1.2269  0.2992  0.3875
 5757SOL    HW218171   3.577   4.162   0.220 -0.3258 -0.5872  0.4094
 5758SOL     OW18172   3.148   0.432   1.322 -0.2359 -0.0019 -0.0954
 5758SOL    HW118173   3.193   0.455   1.408  0.6958 -1.3334 -0.2013
 5758SOL    HW218174   3.050   0.455   1.328 -0.1422  0.0855  1.2417
 5759SOL     OW18175   0.273   3.783   2.807  0.8936  0.2831  0.1211
 5759SOL    HW118176   0.260   3.779   2.906 -0.5756 -1.1255 -0.0834
 5759SOL    HW218177   0.336   3.711   2.778  1.3153  0.6871  0.0330
 5760SOL     OW18178   1.659   0.744   6.235 -0.3986  0.3250  0.0191
 5760SOL    HW118179   1.696   0.666   6.287 -0.7793  0.3832  0.3793
 5760SOL    HW218180   1.721   0.822   6.245 -0.4643  0.3344  0.3894
 5761SOL     OW18181   0.300   2.032   5.957  0.1357  0.3980  0.1121
 5761SOL    HW118182   0.211   2.077   5.963 -0.4910 -0.7701 -0.1462
 5761SOL    HW218183   0.363   2.090   5.905 -1.1974  0.1939 -1.8625
 5762SOL     OW18184   4.665   3.614   1.713 -0.1503 -0.2345 -0.3506
 5762SOL    HW118185   4.566   3.622   1.727 -0.4647 -1.4469 -1.6834
 5762SOL    HW218186   4.684   3.543   1.645  1.6621 -0.2009  0.0655
 5763SOL     OW18187   0.992   3.070   1.074 -0.0246 -0.1911 -0.8017
 5763SOL    HW118188   0.920   3.015   1.031  0.6544 -0.4098 -1.6883
 5763SOL    HW218189   1.016   3.030   1.162 -2.4542  1.0811  0.5424
 5764SOL     OW18190   2.517   2.782   1.737  0.6459 -0.5860  0.3797
 5764SOL    HW118191   2.603   2.829   1.758  0.2163  1.3075 -1.6965
 5764SOL    HW218192   2.533   2.715   1.664  0.4167 -0.4210  0.1763
 5765SOL     OW18193   3.650   5.957   5.284  0.3727 -0.2963 -0.1842
 5765SOL    HW118194   3.704   6.025   5.334  2.1340 -2.3471  0.8406
 5765SOL    HW218195   3.573   6.003   5.239  1.5356  2.3737  0.3342
 5766SOL     OW18196   3.399   6.011   0.441  0.0026  0.0768  0.3796
 5766SOL    HW118197   3.397   5.950   0.362 -0.6400  2.1818 -1.3199
 5766SOL    HW218198   3.494   6.034   0.464  0.1692  0.9673 -1.0738
 5767SOL     OW18199   0.826   1.585   0.538 -0.3273  0.0826  0.5730
 5767SOL    HW118200   0.840   1.682   0.515 -0.1850 -0.0653  0.0305
 5767SOL    HW218201   0.729   1.563   0.528 -0.0334 -0.3886 -1.5159
 5768SOL     OW18202   2.868   5.821   2.478 -0.5002 -0.2414  0.0279
 5768SOL    HW118203   2.784   5.780   2.441 -0.8762  1.1290 -0.7069
 5768SOL    HW218204   2.886   5.908   2.432 -0.9394  1.5454  2.9635
 5769SOL     OW18205   3.395   5.929   4.753 -0.3570 -0.3892  0.7070
 5769SOL    HW118206   3.347   5.846   4.783 -1.1780  0.1967  1.0517
 5769SOL    HW218207   3.487   5.905   4.721 -0.6637 -1.4524  0.6042
 5770SOL     OW18208   0.413   6.034   1.261 -0.5017 -0.0789 -0.0927
 5770SOL    HW118209   0.485   6.100   1.242 -0.4682 -0.5117 -1.6233
 5770SOL    HW218210   0.448   5.942   1.249 -0.7604 -0.3742  1.2555
 5771SOL     OW18211   4.308   7.015   0.436  0.6886 -0.1363 -0.3000
 5771SOL    HW118212   4.211   7.040   0.434  0.3685 -1.2862  0.0165
 5771SOL    HW218213   4.335   6.979   0.347  0.6000 -0.6021 -0.1410
 5772SOL     OW18214   3.669   2.747   1.605  0.1882  0.4051  0.3713
 5772SOL    HW118215   3.648   2.663   1.656 -0.5801 -0.4403 -1.2694
 5772SOL    HW218216   3.587   2.803   1.598  0.5565  1.0433  0.9413
 5773SOL     OW18217   1.440   0.497   5.838  0.0208  0.0742  0.0522
 5773SOL    HW118218   1.440   0.478   5.936 -0.0336 -0.9438 -0.1357
 5773SOL    HW218219   1.404   0.418   5.789  0.0276  0.5839 -0.7934
 5774SOL     OW18220   5.542   3.430   2.289  0.2305 -0.0010  0.2447
 5774SOL    HW118221   5.486   3.380   2.356 -0.3341 -2.9020 -2.1863
 5774SOL    HW218222   5.638   3.429   2.319  0.0601 -1.6377  0.8374
 5775SOL     OW18223   6.001   0.694   4.385 -0.3355 -0.2358  0.2026
 5775SOL    HW118224   5.922   0.745   4.350  0.0941 -0.9717 -1.9628
 5775SOL    HW218225   5.970   0.608   4.425 -1.0665  1.5352  3.8783
 5776SOL     OW18226   3.801   5.850   0.350 -0.4536 -0.6619  0.4900
 5776SOL    HW118227   3.769   5.776   0.291  2.2710 -1.9650  0.4905
 5776SOL    HW218228   3.852   5.916   0.295 -1.2252  0.2084  0.8032
 5777SOL     OW18229   6.923   2.097   1.071 -0.3360  0.1486  0.3753
 5777SOL    HW118230   7.022   2.103   1.056 -0.0467  1.6927  2.4285
 5777SOL    HW218231   6.895   2.001   1.070  1.4945 -0.4485  1.4081
 5778SOL     OW18232   2.860   5.957   3.904 -0.9652 -0.0650  0.5501
 5778SOL    HW118233   2.930   5.981   3.971 -1.4155  1.3539  0.5419
 5778SOL    HW218234   2.853   6.029   3.835  0.2817 -1.9902 -1.7373
 5779SOL     OW18235   6.837   4.056   0.734  0.4154 -0.0907 -0.4439
 5779SOL    HW118236   6.909   4.100   0.787  0.4965  0.4235 -0.9620
 5779SOL    HW218237   6.833   3.959   0.755  0.5410  0.0816  0.3838
 5780SOL     OW18238   6.352   6.063   3.284  0.0314  0.1009 -1.0045
 5780SOL    HW118239   6.330   6.008   3.365 -1.4404  1.7350 -0.2155
 5780SOL    HW218240   6.341   6.007   3.202  1.1032 -1.4658 -0.1378
 5781SOL     OW18241   6.902   4.028   0.480  0.4382  0.3075  0.0771
 5781SOL    HW118242   6.894   4.035   0.579 -0.0107  0.0980  0.0587
 5781SOL    HW218243   6.976   4.088   0.448  1.5157 -0.6708  0.6712
 5782SOL     OW18244   1.312   6.208   2.272  0.8032 -0.0032 -0.3588
 5782SOL    HW118245   1.306   6.234   2.175  0.7492 -0.3699 -0.4575
 5782SOL    HW218246   1.228   6.159   2.298  0.2072  1.3015  0.2498
 5783SOL     OW18247   3.851   5.537   3.025  0.2507 -0.9406 -0.3085
 5783SOL    HW118248   3.770   5.543   3.083  0.3776 -2.1847  0.0217
 5783SOL    HW218249   3.823   5.513   2.932  0.0586  0.9339 -0.7687
 5784SOL     OW18250   0.103   6.780   4.036  0.1399  0.0769  0.3059
 5784SOL    HW118251   0.126   6.686   4.011  1.0231  0.5050 -0.5984
 5784SOL    HW218252   0.095   6.835   3.953 -2.1259  0.4508  0.6958
 5785SOL     OW18253   2.143   3.074   3.676 -0.0225 -1.0032 -0.2221
 5785SOL    HW118254   2.215   3.062   3.608  0.5087  1.0326 -0.0920
 5785SOL    HW218255   2.054   3.055   3.634  0.1344  1.6206 -2.0317
 5786SOL     OW18256   4.696   1.515   6.783 -0.5301 -0.6474  0.0822
 5786SOL    HW118257   4.724   1.609   6.764 -1.2028 -0.4195  0.1837
 5786SOL    HW218258   4.762   1.472   6.845  1.0977 -1.0386 -1.8305
 5787SOL     OW18259   1.152   5.837   4.899 -0.0929  0.5587 -0.1228
 5787SOL    HW118260   1.179   5.760   4.840  0.7028  0.5100  0.2822
 5787SOL    HW218261   1.170   5.813   4.994 -0.6115  0.9408  0.0732
 5788SOL     OW18262   6.747   3.073   2.942  0.7476  0.3302  0.2797
 5788SOL    HW118263   6.704   2.983   2.952 -0.9028  1.1852  1.4567
 5788SOL    HW218264   6.749   3.119   3.031  1.0414  1.6955 -0.3998
 5789SOL     OW18265   1.557   0.300   0.631 -0.4295 -0.0719  0.0100
 5789SOL    HW118266   1.530   0.210   0.596 -1.6344  1.1094 -2.3305
 5789SOL    HW218267   1.640   0.331   0.585 -0.0346  0.0401  0.7834
 5790SOL     OW18268   0.263   5.572   0.391 -0.2630  0.0178 -0.7526
 5790SOL    HW118269   0.323   5.496   0.417  1.4490  1.7215  0.6000
 5790SOL    HW218270   0.208   5.598   0.470  0.9086  1.6763 -0.4467
 5791SOL     OW18271   3.965   5.208   2.003 -0.2838  0.0137 -0.1374
 5791SOL    HW118272   3.972   5.233   1.907  1.6514  0.9789  0.2107
 5791SOL    HW218273   4.029   5.134   2.023 -0.2526  0.2088  0.5112
 5792SOL     OW18274   0.935   2.997   5.374  0.2629 -0.1481  0.5181
 5792SOL    HW118275   0.902   2.917   5.424 -1.5861  0.1254 -0.1691
 5792SOL    HW218276   0.967   3.066   5.438 -0.6423 -0.4037  1.2702
 5793SOL     OW18277   1.355   0.463   3.230 -0.2069  0.5875  0.1747
 5793SOL    HW118278   1.423   0.441   3.160  1.4650  2.1063  1.2437
 5793SOL    HW218279   1.377   0.413   3.315 -0.9831  0.3869  0.2670
 5794SOL     OW18280   5.391   3.498   3.790  0.0689 -0.0365  0.1416
 5794SOL    HW118281   5.415   3.445   3.871  0.3864  0.4859  0.3945
 5794SOL    HW218282   5.319   3.450   3.739  2.1889 -2.1284 -1.1120
 5795SOL     OW18283   3.808   6.905   3.051 -0.0195  0.1524 -0.3414
 5795SOL    HW118284   3.726   6.864   3.010 -0.2142  0.5293 -0.3439
 5795SOL    HW218285   3.877   6.835   3.067 -0.1309 -0.0803 -0.8575
 5796SOL     OW18286   6.050   0.990   2.639  0.5278  1.3613 -0.0395
 5796SOL    HW118287   6.055   0.946   2.729 -0.1990  1.7203  0.1851
 5796SOL    HW218288   6.055   0.920   2.568  3.0533  1.2135  0.1940
 5797SOL     OW18289   6.284   0.574   1.897  0.2686  0.1171 -0.4603
 5797SOL    HW118290   6.320   0.544   1.809 -0.2259 -0.9053 -0.3383
 5797SOL    HW218291   6.317   0.666   1.918  3.3077 -0.9314 -0.0988
 5798SOL     OW18292   0.897   1.395   4.213 -0.2255 -0.1754 -0.0275
 5798SOL    HW118293   0.880   1.328   4.141 -0.3299 -0.2920  0.1040
 5798SOL    HW218294   0.949   1.472   4.176  1.1518 -0.9886  0.1305
 5799SOL     OW18295   6.910   2.371   0.206  0.1669  0.6380 -0.1898
 5799SOL    HW118296   6.830   2.431   0.216  0.8420  1.5019  0.1198
 5799SOL    HW218297   6.954   2.359   0.295  2.9749  3.8488 -0.9383
 5800SOL     OW18298   1.828   0.607   1.333 -0.1829 -0.7133  0.2460
 5800SOL    HW118299   1.855   0.702   1.350  0.1029 -0.6897 -0.3413
 5800SOL    HW218300   1.905   0.557   1.294 -1.0983 -0.5215 -1.9469
 5801SOL     OW18301   0.928   4.732   2.091  0.2823 -0.1377 -0.4848
 5801SOL    HW118302   0.999   4.745   2.159 -0.5159 -1.4283  0.6426
 5801SOL    HW218303   0.960   4.669   2.020  0.1284 -1.0983  0.2780
 5802SOL     OW18304   0.891   1.144   5.922  0.1277 -0.2147  0.3369
 5802SOL    HW118305   0.803   1.152   5.970  0.7414 -1.2160  1.6805
 5802SOL    HW218306   0.942   1.066   5.958  2.4838  1.5704  1.1149
 5803SOL     OW18307   0.998   0.033   2.119  0.3279  1.0745 -0.4616
 5803SOL    HW118308   0.986   0.047   2.020 -2.0452  1.6332 -0.1595
 5803SOL    HW218309   0.976  -0.061   2.143  3.4569  0.1739 -0.7405
 5804SOL     OW18310   4.616   2.584   3.203  0.4622 -0.3918 -0.4921
 5804SOL    HW118311   4.522   2.553   3.213 -0.8200  2.7790 -1.3614
 5804SOL    HW218312   4.649   2.562   3.111  0.2499 -0.7504 -0.4815
 5805SOL     OW18313   5.878   6.096   6.279 -0.2458 -0.4063  0.3957
 5805SOL    HW118314   5.896   6.065   6.186 -0.9888 -0.3653  0.2303
 5805SOL    HW218315   5.949   6.161   6.307 -1.2199  1.3656 -1.0045
 5806SOL     OW18316   5.459   3.111   1.420 -0.1476  0.2045  0.0039
 5806SOL    HW118317   5.411   3.110   1.508 -0.3963 -1.3558 -0.1179
 5806SOL    HW218318   5.394   3.096   1.346  0.4275 -1.6546 -0.1830
 5807SOL     OW18319   1.275   4.202   3.270  0.4543  0.4710  0.1419
 5807SOL    HW118320   1.271   4.299   3.247 -0.7415  0.3345 -0.2923
 5807SOL    HW218321   1.328   4.153   3.201 -1.4213  0.3786 -1.3084
 5808SOL     OW18322   2.214   2.839   6.644 -0.5683  0.3963 -0.4417
 5808SOL    HW118323   2.242   2.790   6.726  0.5431  0.1759 -0.9270
 5808SOL    HW218324   2.232   2.782   6.563  0.1650  1.3450 -0.9714
 5809SOL     OW18325   4.307   5.449   1.043  0.2091  0.2541 -0.2267
 5809SOL    HW118326   4.226   5.451   0.984  0.4620 -0.8230 -0.6352
 5809SOL    HW218327   4.387   5.475   0.989  0.3416 -0.0917 -0.2013
 5810SOL     OW18328   5.065   6.531   0.255  0.0053  0.2068 -0.5248
 5810SOL    HW118329   5.160   6.540   0.284 -0.3486  0.2852  0.6725
 5810SOL    HW218330   5.040   6.609   0.198  0.7144  0.0793 -1.0180
 5811SOL     OW18331   2.156   6.826   0.521  0.2874 -0.4229 -0.2800
 5811SOL    HW118332   2.168   6.759   0.448  0.7652 -0.7614  0.1072
 5811SOL    HW218333   2.219   6.807   0.596  0.2804  0.3281 -0.0670
 5812SOL     OW18334   0.733   0.365   1.652 -0.2662 -0.1125 -0.1631
 5812SOL    HW118335   0.753   0.424   1.731  0.1042  0.4618 -0.6742
 5812SOL    HW218336   0.819   0.342   1.605 -0.3247 -1.6628  0.4327
 5813SOL     OW18337   2.167   4.843   5.624 -0.4994  0.4891  0.1286
 5813SOL    HW118338   2.132   4.902   5.551 -1.3284  1.5480  1.3579
 5813SOL    HW218339   2.124   4.753   5.617 -1.7538  1.0625  0.2260
 5814SOL     OW18340   2.099   2.327   5.785  0.5351  0.4802 -0.0624
 5814SOL    HW118341   2.138   2.242   5.820 -0.9294  0.1851  0.9877
 5814SOL    HW218342   2.049   2.373   5.859 -1.0472  0.8223 -1.2906
 5815SOL     OW18343   4.778   6.355   2.121 -0.1539 -0.4725 -0.2772
 5815SOL    HW118344   4.858   6.366   2.062 -0.8292 -0.9386 -1.3032
 5815SOL    HW218345   4.767   6.259   2.145  0.0128 -0.3105  0.4787
 5816SOL     OW18346   6.260   0.198   6.166 -0.1829 -0.3998  0.4271
 5816SOL    HW118347   6.220   0.108   6.146 -1.6330  0.3260 -0.0899
 5816SOL    HW218348   6.195   0.252   6.221 -0.0122  0.8911 -0.5886
 5817SOL     OW18349   4.876   3.872   3.386  0.1512 -0.0849 -0.3052
 5817SOL    HW118350   4.932   3.952   3.408  0.1504 -0.2937  0.4589
 5817SOL    HW218351   4.822   3.846   3.466 -1.9692  0.8359 -1.3359
 5818SOL     OW18352   0.651   3.104   2.859  0.1883  0.2131  0.2461
 5818SOL    HW118353   0.714   3.130   2.932 -0.2238  0.8790  0.3754
 5818SOL    HW218354   0.663   3.167   2.782  1.2063 -0.9787 -0.6064
 5819SOL     OW18355   4.444   4.543   6.748 -1.2597  0.5698 -0.2537
 5819SOL    HW118356   4.359   4.520   6.700 -0.7734 -1.3387 -0.2991
 5819SOL    HW218357   4.460   4.477   6.821 -1.0294  2.3410  1.3608
 5820SOL     OW18358   1.644   5.634   6.305  0.3599  0.0454 -0.1748
 5820SOL    HW118359   1.686   5.574   6.237 -0.8683  0.3499 -1.2344
 5820SOL    HW218360   1.689   5.723   6.303 -0.0657  0.2556 -1.0526
 5821SOL     OW18361   5.929   6.266   3.511  0.0338 -0.0736  0.1319
 5821SOL    HW118362   5.940   6.364   3.495 -1.5029  0.1303  0.1203
 5821SOL    HW218363   6.014   6.218   3.489  0.3029  1.0588 -1.4558
 5822SOL     OW18364   2.099   4.458   5.866  0.0360  0.2595  0.0143
 5822SOL    HW118365   2.149   4.372   5.856 -1.2979 -0.4504 -0.7180
 5822SOL    HW218366   2.028   4.448   5.936  0.7395  1.1991  0.8954
 5823SOL     OW18367   3.285   5.155   3.482  0.3373  0.6213  0.4204
 5823SOL    HW118368   3.304   5.172   3.385  1.2354  0.5517  0.5800
 5823SOL    HW218369   3.369   5.130   3.529 -0.0156  1.0562  1.3117
 5824SOL     OW18370   1.526   1.590   6.535 -0.5388  0.4760 -0.2150
 5824SOL    HW118371   1.599   1.608   6.469 -0.1847  0.5982  0.2123
 5824SOL    HW218372   1.516   1.491   6.547  0.2553  0.4759  0.5024
 5825SOL     OW18373   1.554   5.528   2.350 -0.2487 -0.0473  0.5655
 5825SOL    HW118374   1.471   5.484   2.316 -0.1944  0.5963 -0.4668
 5825SOL    HW218375   1.628   5.514   2.285  0.1003  0.4708  0.8413
 5826SOL     OW18376   0.951   6.259   1.747 -0.0118  0.0239  0.1025
 5826SOL    HW118377   0.960   6.306   1.835  0.0313 -0.5780  0.4314
 5826SOL    HW218378   0.868   6.202   1.749  0.4288 -0.6284  0.0619
 5827SOL     OW18379   3.237   3.434   0.662 -0.8014 -0.2792  0.0466
 5827SOL    HW118380   3.164   3.487   0.619 -0.3057 -0.1043 -0.5861
 5827SOL    HW218381   3.274   3.368   0.596 -1.0745 -1.0800  0.6700
 5828SOL     OW18382   5.051   4.714   0.256 -0.1877  0.3662  0.6666
 5828SOL    HW118383   4.980   4.644   0.247 -1.5194  1.7102  0.3846
 5828SOL    HW218384   5.021   4.798   0.211  2.3093  0.4885 -0.9899
 5829SOL     OW18385   4.257   5.275   5.723  0.0571 -0.2655  0.2513
 5829SOL    HW118386   4.190   5.276   5.649  0.4953 -1.2721 -0.1725
 5829SOL    HW218387   4.210   5.277   5.811 -0.6004 -2.0720 -0.0166
 5830SOL     OW18388   6.158   5.409   4.609  0.2334  0.4423  0.3867
 5830SOL    HW118389   6.238   5.360   4.573  1.4011  0.9204  2.1899
 5830SOL    HW218390   6.177   5.507   4.610 -0.1732  0.5237  1.2765
 5831SOL     OW18391   4.310   2.429   0.533  0.5100 -0.3661  0.1283
 5831SOL    HW118392   4.251   2.421   0.612 -0.4096  1.5170 -0.3165
 5831SOL    HW218393   4.310   2.524   0.500  3.9617 -0.1849  0.2515
 5832SOL     OW18394   2.013   4.430   4.615  0.3351 -0.0183  0.2737
 5832SOL    HW118395   2.085   4.480   4.663 -0.6519 -0.1487  1.9654
 5832SOL    HW218396   2.055   4.357   4.561  1.6276  1.3005 -0.6086
 5833SOL     OW18397   0.688   0.788   1.040  0.2620  0.2718 -0.0298
 5833SOL    HW118398   0.691   0.702   1.089  0.7426  1.1251  1.4955
 5833SOL    HW218399   0.776   0.804   0.995 -0.4926 -0.9805 -2.1072
 5834SOL     OW18400   5.785   5.819   6.778  0.0594  0.2491 -0.1721
 5834SOL    HW118401   5.857   5.864   6.726 -0.1625 -0.0641 -0.7559
 5834SOL    HW218402   5.826   5.753   6.842  0.2853 -0.0754 -0.6433
 5835SOL     OW18403   4.718   2.766   3.907  0.3229  0.0483 -0.5488
 5835SOL    HW118404   4.814   2.744   3.924  0.3916 -0.4300 -1.4576
 5835SOL    HW218405   4.686   2.834   3.972  0.8029 -1.0215  0.8541
 5836SOL     OW18406   1.335   3.166   0.727  0.9040  0.2582  0.3823
 5836SOL    HW118407   1.252   3.149   0.674 -0.4353  0.1519  2.3889
 5836SOL    HW218408   1.311   3.213   0.812  3.0073  0.8174  0.7150
 5837SOL     OW18409   3.376   3.997   4.582 -0.1830  0.1249  0.2970
 5837SOL    HW118410   3.400   4.075   4.640 -0.0676 -0.7102  1.4148
 5837SOL    HW218411   3.296   3.951   4.620  1.1383 -1.6647  1.0101
 5838SOL     OW18412   0.673   4.771   6.430 -0.2850 -0.3765  0.0192
 5838SOL    HW118413   0.716   4.682   6.420  0.1701 -0.1705  0.1000
 5838SOL    HW218414   0.630   4.798   6.343 -0.2241 -0.5702 -0.0703
 5839SOL     OW18415   1.505   3.985   5.802  0.6262 -0.4270  0.0199
 5839SOL    HW118416   1.503   4.019   5.896  2.0687  0.8810 -0.3821
 5839SOL    HW218417   1.423   4.016   5.754  0.1920 -0.5600  0.6663
 5840SOL     OW18418   3.358   1.517   2.025  0.1699  0.0877 -0.1433
 5840SOL    HW118419   3.373   1.584   2.097 -1.7533 -0.6913  1.0772
 5840SOL    HW218420   3.349   1.563   1.937  0.5293  1.2529  0.4144
 5841SOL     OW18421   6.784   3.876   0.318 -0.3111  0.2175 -0.5937
 5841SOL    HW118422   6.840   3.944   0.365 -1.4598  1.6507 -1.2242
 5841SOL    HW218423   6.787   3.790   0.370  2.5599  0.1451 -0.7097
 5842SOL     OW18424   2.269   0.012   0.376  0.2783 -0.7538 -0.1967
 5842SOL    HW118425   2.210  -0.046   0.433 -2.4369  0.5697 -1.4944
 5842SOL    HW218426   2.291   0.096   0.427  0.2037 -0.8089 -0.0716
 5843SOL     OW18427   3.845   6.262   5.833  0.4929 -0.6911  0.1563
 5843SOL    HW118428   3.880   6.172   5.809 -0.8556 -1.1160 -0.2936
 5843SOL    HW218429   3.899   6.300   5.909  2.7927 -0.6965 -1.3721
 5844SOL     OW18430   0.634   0.131   1.047  0.2604 -0.2301  0.0496
 5844SOL    HW118431   0.545   0.173   1.065  0.0343 -0.8115  0.3452
 5844SOL    HW218432   0.697   0.154   1.121 -0.1285 -1.1257  0.6783
 5845SOL     OW18433   4.793   4.571   0.658 -0.5942 -0.0040 -0.4160
 5845SOL    HW118434   4.784   4.619   0.745 -0.0782 -1.3022  0.3772
 5845SOL    HW218435   4.771   4.474   0.670 -0.8892 -0.1334 -1.8188
 5846SOL     OW18436   5.111   4.457   3.681 -0.1202  0.0917  0.1800
 5846SOL    HW118437   5.063   4.485   3.765 -0.1469  0.1224  0.1546
 5846SOL    HW218438   5.196   4.410   3.705 -0.1291  0.0981  0.2246
 5847SOL     OW18439   1.073   1.838   6.123 -0.0100  0.2499 -0.5943
 5847SOL    HW118440   1.155   1.891   6.101  2.4183 -2.9839  0.0275
 5847SOL    HW218441   1.037   1.796   6.039  1.7062 -1.8533 -0.3660
 5848SOL     OW18442   6.526   4.978   0.984 -0.2896  0.2818  0.1311
 5848SOL    HW118443   6.558   4.939   1.070 -1.8689  0.2290  0.7274
 5848SOL    HW218444   6.533   5.078   0.989  1.1667  0.2181 -0.3340
 5849SOL     OW18445   3.608   2.480   1.109 -0.7026  0.3426  0.0119
 5849SOL    HW118446   3.667   2.506   1.033 -0.8688  2.5885  0.5747
 5849SOL    HW218447   3.549   2.557   1.134 -1.4415 -0.6916  1.7030
 5850SOL     OW18448   3.821   2.170   4.146  0.1553 -0.1427  0.0367
 5850SOL    HW118449   3.754   2.238   4.177  0.3109 -0.5276  1.2862
 5850SOL    HW218450   3.774   2.085   4.123 -0.2421  0.8115 -3.1057
 5851SOL     OW18451   5.453   4.131   6.380  0.3850  0.4262  0.5877
 5851SOL    HW118452   5.497   4.114   6.292  2.0374  0.1913  1.4009
 5851SOL    HW218453   5.434   4.043   6.425 -1.2746  0.5107  0.1215
 5852SOL     OW18454   2.478   1.618   6.764  0.0415  0.2031  0.0494
 5852SOL    HW118455   2.551   1.687   6.759 -0.1137  0.2994 -1.1066
 5852SOL    HW218456   2.489   1.552   6.690 -0.8496  0.0182  0.0715
 5853SOL     OW18457   6.407   2.808   5.212  0.1115 -0.2030 -0.1490
 5853SOL    HW118458   6.377   2.866   5.136  0.1354  0.4334  0.3181
 5853SOL    HW218459   6.421   2.864   5.293 -0.7697 -0.9934  0.5792
 5854SOL     OW18460   4.664   2.437   1.896  0.7886  0.0765  0.1352
 5854SOL    HW118461   4.661   2.430   1.797  1.3491  1.6580 -0.0220
 5854SOL    HW218462   4.581   2.395   1.935  0.1849  0.1444 -1.0340
 5855SOL     OW18463   5.711   1.388   4.168 -0.1083 -0.2312 -0.2292
 5855SOL    HW118464   5.655   1.340   4.101  0.7563 -0.4596 -0.8075
 5855SOL    HW218465   5.692   1.352   4.259 -1.3726  0.1536 -0.3129
 5856SOL     OW18466   1.292   3.210   1.950  0.0868 -1.0688  0.1405
 5856SOL    HW118467   1.357   3.263   1.896 -0.1655 -1.0154 -0.1114
 5856SOL    HW218468   1.332   3.121   1.973  0.3522 -0.9315  0.2190
 5857SOL     OW18469   6.832   4.174   2.759 -0.2653  0.4570  0.2491
 5857SOL    HW118470   6.918   4.128   2.783 -0.7427 -0.5655  0.0303
 5857SOL    HW218471   6.793   4.216   2.841  0.0865  0.3197  0.4895
 5858SOL     OW18472   3.761   4.129   5.487  1.1047  0.0872 -0.0378
 5858SOL    HW118473   3.700   4.050   5.479 -0.4997  1.2095  0.6812
 5858SOL    HW218474   3.798   4.151   5.397 -0.7929  0.3059 -0.8111
 5859SOL     OW18475   0.359   4.305   5.868 -0.4693  0.0537 -1.0572
 5859SOL    HW118476   0.358   4.234   5.797  1.6947 -0.2810 -0.8416
 5859SOL    HW218477   0.418   4.381   5.838  0.6285 -0.1757  0.4209
 5860SOL     OW18478   1.356   4.592   0.673 -0.0305 -0.2732 -0.1745
 5860SOL    HW118479   1.288   4.663   0.689  0.3603 -0.0682  0.6615
 5860SOL    HW218480   1.311   4.511   0.634 -0.6528  0.0643 -0.1681
 5861SOL     OW18481   1.240   3.801   0.155  0.4363 -0.2903  0.1562
 5861SOL    HW118482   1.299   3.807   0.074 -0.0643  1.5788 -0.1124
 5861SOL    HW218483   1.295   3.771   0.233  1.4411  0.0818 -0.3869
 5862SOL     OW18484   5.890   4.490   6.981  0.3905 -0.5552  0.7778
 5862SOL    HW118485   5.840   4.559   7.034  0.2560 -0.8598  1.0569
 5862SOL    HW218486   5.935   4.426   7.044  0.1657 -0.9687  0.5231
 5863SOL     OW18487   5.238   1.228   0.543 -0.1520 -0.5356  0.0189
 5863SOL    HW118488   5.302   1.162   0.584  0.5613  0.0277 -0.1612
 5863SOL    HW218489   5.176   1.180   0.481  0.2774 -1.0647 -0.0109
 5864SOL     OW18490   2.599   4.582   5.638  0.0235  0.3384 -0.2873
 5864SOL    HW118491   2.674   4.573   5.572  0.6129 -0.1757  0.4358
 5864SOL    HW218492   2.525   4.636   5.597  1.3015  1.9729 -0.5766
 5865SOL     OW18493   6.434   2.969   2.759  0.5092  0.1019  0.0344
 5865SOL    HW118494   6.525   2.938   2.787  0.7819  0.7756 -0.0941
 5865SOL    HW218495   6.408   2.922   2.675  0.9453  0.2654 -0.1940
 5866SOL     OW18496   1.239   6.116   0.353 -0.5481  0.8726  0.3946
 5866SOL    HW118497   1.177   6.054   0.401 -0.5413  0.8947  0.4324
 5866SOL    HW218498   1.312   6.145   0.416 -0.0713  0.2552  0.1408
 5867SOL     OW18499   4.715   1.097   0.745  0.1036 -0.3555  0.0995
 5867SOL    HW118500   4.760   1.078   0.658  0.4889 -1.2273  0.4747
 5867SOL    HW218501   4.617   1.080   0.735 -0.1306  1.2252 -0.6235
 5868SOL     OW18502   6.414   0.210   0.502 -0.1799 -0.2572  0.1216
 5868SOL    HW118503   6.377   0.197   0.411  1.3290 -0.2798 -0.5119
 5868SOL    HW218504   6.455   0.125   0.535 -0.7230 -0.2560  0.8377
 5869SOL     OW18505   0.232   2.145   6.704 -0.1329  0.0604 -0.1796
 5869SOL    HW118506   0.183   2.060   6.724 -0.1051  0.2077  0.5734
 5869SOL    HW218507   0.172   2.223   6.721 -0.7432  0.1844 -2.5764
 5870SOL     OW18508   1.208   5.424   5.605  0.5671 -0.3043  0.0156
 5870SOL    HW118509   1.206   5.354   5.534 -1.0583 -0.8516  0.5478
 5870SOL    HW218510   1.267   5.395   5.680 -0.3471 -1.2865  0.3798
 5871SOL     OW18511   2.596   6.990   6.928 -0.0029  0.6466  0.2060
 5871SOL    HW118512   2.508   6.985   6.976 -0.0258 -0.3835  0.0830
 5871SOL    HW218513   2.668   6.952   6.987  0.0255 -0.3092 -0.4203
 5872SOL     OW18514   5.973   3.747   3.928  0.0525 -0.5351  0.0618
 5872SOL    HW118515   6.066   3.718   3.948  0.6361  1.0111 -0.2777
 5872SOL    HW218516   5.946   3.714   3.837 -0.1724 -1.9521  0.6270
 5873SOL     OW18517   3.902   4.436   5.365 -0.2961 -0.2563  0.4000
 5873SOL    HW118518   3.938   4.347   5.337  1.0625  0.1399  0.8175
 5873SOL    HW218519   3.961   4.508   5.331 -1.0900  0.4697  0.5236
 5874SOL     OW18520   1.401   2.571   3.203  0.5646 -0.4559  0.8549
 5874SOL    HW118521   1.470   2.573   3.130 -1.6885 -1.2616 -1.4316
 5874SOL    HW218522   1.427   2.503   3.272  0.9068 -2.5855 -1.2493
 5875SOL     OW18523   0.572   6.533   3.484 -0.6583  0.0902 -0.1698
 5875SOL    HW118524   0.663   6.539   3.444 -0.5964 -0.7822 -0.1667
 5875SOL    HW218525   0.516   6.609   3.449 -0.3379 -0.1375 -1.2166
 5876SOL     OW18526   5.181   3.957   1.083 -0.0927  0.1606 -0.3681
 5876SOL    HW118527   5.163   3.985   0.988 -0.6732  0.2864 -0.2248
 5876SOL    HW218528   5.280   3.957   1.099  0.0147  0.0589 -0.9963
 5877SOL     OW18529   5.448   3.055   5.562  0.0366  0.5441  0.1608
 5877SOL    HW118530   5.444   2.960   5.593 -1.0695  0.8446  0.9907
 5877SOL    HW218531   5.527   3.101   5.602 -0.1231  0.3059  0.7521
 5878SOL     OW18532   6.153   4.129   0.852 -0.0863 -0.0472 -0.1497
 5878SOL    HW118533   6.118   4.212   0.896 -0.1243 -0.2952  0.2961
 5878SOL    HW218534   6.136   4.134   0.754 -2.8628 -0.8477  0.1946
 5879SOL     OW18535   6.230   4.483   2.475 -0.2755 -0.5078 -0.2729
 5879SOL    HW118536   6.298   4.498   2.403 -0.3276 -1.7178 -0.5978
 5879SOL    HW218537   6.165   4.558   2.476  0.5316  0.2087 -0.5698
 5880SOL     OW18538   3.779   1.687   1.474  0.4759  0.1624  0.0527
 5880SOL    HW118539   3.835   1.605   1.467  0.7174  0.3712 -0.4586
 5880SOL    HW218540   3.686   1.667   1.441  0.8915  0.4390 -1.3267
 5881SOL     OW18541   0.531   3.268   1.127  0.0022 -0.2360  0.0824
 5881SOL    HW118542   0.561   3.179   1.159 -0.9610 -0.5637  0.1043
 5881SOL    HW218543   0.598   3.338   1.154  0.8441 -0.9595 -0.0785
 5882SOL     OW18544   3.345   1.091   4.017  0.2804 -0.3512 -0.0978
 5882SOL    HW118545   3.388   1.082   4.107  1.6385  0.6970 -0.6230
 5882SOL    HW218546   3.305   1.182   4.007  0.5013 -0.3129 -0.7006
 5883SOL     OW18547   6.060   5.719   1.292 -0.2655  0.4544  0.3346
 5883SOL    HW118548   5.991   5.763   1.349  0.3819  1.4084  0.4045
 5883SOL    HW218549   6.119   5.662   1.348 -0.5120  0.2655  0.3992
 5884SOL     OW18550   3.738   1.224   2.112 -0.0345  0.4649  0.0245
 5884SOL    HW118551   3.752   1.134   2.153 -1.4693  0.0152 -0.4083
 5884SOL    HW218552   3.759   1.295   2.179  0.8604 -0.1885  0.4520
 5885SOL     OW18553   3.296   5.875   0.191  0.1165 -0.0651  0.0721
 5885SOL    HW118554   3.235   5.800   0.214 -0.6430  0.6359  0.4222
 5885SOL    HW218555   3.363   5.845   0.123 -0.4682 -0.9238 -0.1385
 5886SOL     OW18556   4.688   0.844   0.307  0.1123 -0.6862 -0.4300
 5886SOL    HW118557   4.651   0.810   0.394 -0.7493 -0.5153 -0.7188
 5886SOL    HW218558   4.634   0.807   0.232 -0.5921  0.9722 -0.7787
 5887SOL     OW18559   0.857   1.186   4.055 -0.2608  0.6491 -0.5561
 5887SOL    HW118560   0.821   1.136   3.976 -0.2647  0.8059 -0.6552
 5887SOL    HW218561   0.861   1.126   4.134  0.1452  0.3683 -0.7877
 5888SOL     OW18562   2.666   0.154   1.070  0.3003  0.1696  0.1531
 5888SOL    HW118563   2.707   0.214   1.001  0.2662  0.9526  0.8004
 5888SOL    HW218564   2.731   0.138   1.143  1.4775 -3.1322 -1.4432
 5889SOL     OW18565   6.840   3.067   3.279  0.5561  0.1148 -0.0790
 5889SOL    HW118566   6.901   3.142   3.253 -0.8806  1.3720  0.0305
 5889SOL    HW218567   6.814   3.077   3.375 -1.1529  0.6284 -0.5540
 5890SOL     OW18568   2.627   3.197   5.764  0.4773 -0.0393  0.3772
 5890SOL    HW118569   2.717   3.165   5.736  0.4169 -0.0291  0.1726
 5890SOL    HW218570   2.562   3.121   5.760  0.3682  0.0713  0.0435
 5891SOL     OW18571   2.737   6.289   6.589  0.2759 -0.1617 -0.2686
 5891SOL    HW118572   2.782   6.223   6.649  1.6176  1.0496  0.1167
 5891SOL    HW218573   2.797   6.310   6.512  1.1815  2.7070  1.0918
 5892SOL     OW18574   5.383   2.474   3.901  0.5699  0.5346 -0.2225
 5892SOL    HW118575   5.389   2.394   3.841  1.3841  0.8837 -0.6085
 5892SOL    HW218576   5.325   2.543   3.858 -0.0606  0.2075  0.0714
 5893SOL     OW18577   0.742   2.635   5.091 -0.0415  1.1090  0.3849
 5893SOL    HW118578   0.725   2.646   4.993  0.4152  3.6411  0.5155
 5893SOL    HW218579   0.838   2.652   5.110 -0.5327  2.8707  1.4935
 5894SOL     OW18580   6.820   6.619   0.433 -0.1612  0.2387 -0.2260
 5894SOL    HW118581   6.898   6.566   0.399 -1.4472 -2.1605  0.3462
 5894SOL    HW218582   6.802   6.594   0.528 -0.3967  2.3108  0.3314
 5895SOL     OW18583   0.177   4.553   0.310 -0.0929  0.5489 -0.4412
 5895SOL    HW118584   0.156   4.635   0.257 -1.1805  0.0703 -0.7724
 5895SOL    HW218585   0.194   4.476   0.248  1.4587  0.6258 -0.1497
 5896SOL     OW18586   4.421   4.552   2.756 -1.1136  0.0156 -0.4410
 5896SOL    HW118587   4.516   4.562   2.783 -0.8419 -2.0671 -0.4915
 5896SOL    HW218588   4.363   4.550   2.837 -0.7597 -1.7453 -0.1883
 5897SOL     OW18589   5.795   1.111   2.780 -0.0181  0.2873  0.0877
 5897SOL    HW118590   5.720   1.092   2.716 -1.9931  1.8968  1.7764
 5897SOL    HW218591   5.879   1.069   2.746 -1.2979 -0.2363 -2.7215
 5898SOL     OW18592   3.054   6.424   4.087 -0.1309  0.2232 -0.2545
 5898SOL    HW118593   3.094   6.400   4.176  0.0816 -1.3201 -0.7328
 5898SOL    HW218594   3.116   6.395   4.014 -0.0913  1.8717 -0.9279
 5899SOL     OW18595   0.509   3.743   0.221  0.4644 -0.6488 -0.2219
 5899SOL    HW118596   0.553   3.729   0.311 -0.8418  0.5757  0.6455
 5899SOL    HW218597   0.558   3.814   0.171 -1.6777  2.4028  1.6904
 5900SOL     OW18598   3.605   1.422   1.087  0.1690 -0.5484 -0.4555
 5900SOL    HW118599   3.603   1.322   1.080 -2.4911 -0.6490  0.7146
 5900SOL    HW218600   3.665   1.449   1.162 -0.7874 -1.4281  0.6634
 5901SOL     OW18601   0.350   4.407   2.227  0.0834  0.0680 -0.0859
 5901SOL    HW118602   0.318   4.321   2.269  1.1579  0.2818  1.2556
 5901SOL    HW218603   0.345   4.399   2.128 -0.1463 -1.4374  0.0117
 5902SOL     OW18604   6.263   0.458   4.550 -0.0955 -0.1386 -0.3532
 5902SOL    HW118605   6.299   0.402   4.624 -0.8864  1.0946  1.0351
 5902SOL    HW218606   6.164   0.446   4.544 -0.1090  0.1840 -0.8403
 5903SOL     OW18607   3.372   0.716   5.338 -0.1880  0.3891 -0.3589
 5903SOL    HW118608   3.370   0.815   5.349 -2.9296  0.1866  1.9248
 5903SOL    HW218609   3.456   0.680   5.378 -0.2908  1.6078  1.0467
 5904SOL     OW18610   6.011   6.987   1.168 -0.3334 -0.5228 -0.2635
 5904SOL    HW118611   5.912   7.000   1.171 -0.5988 -2.3540  1.8136
 5904SOL    HW218612   6.035   6.935   1.086 -1.4975 -2.4690  0.5619
 5905SOL     OW18613   3.659   6.875   1.609  0.5512  0.5903 -0.4606
 5905SOL    HW118614   3.568   6.914   1.596  0.0672 -0.1781  0.4726
 5905SOL    HW218615   3.727   6.948   1.608 -0.3642  1.5477  1.6278
 5906SOL     OW18616   5.663   1.455   6.390 -0.0903  0.3793  0.2426
 5906SOL    HW118617   5.653   1.365   6.433  0.0092  0.2961  0.0921
 5906SOL    HW218618   5.616   1.523   6.446 -1.2171  0.0452 -0.2538
 5907SOL     OW18619   5.380   3.692   1.054 -0.2759 -0.1586 -0.5227
 5907SOL    HW118620   5.368   3.637   1.136 -0.9295 -0.7145 -0.9728
 5907SOL    HW218621   5.415   3.782   1.078 -1.2423 -0.0228  0.4614
 5908SOL     OW18622   1.635   3.924   1.967  0.0607 -0.1793 -0.2603
 5908SOL    HW118623   1.634   4.004   1.907  1.8029 -1.2790 -1.8692
 5908SOL    HW218624   1.582   3.944   2.050  0.1051  2.4638 -0.7756
 5909SOL     OW18625   1.734   5.667   3.644 -0.1659 -0.2483 -0.2637
 5909SOL    HW118626   1.682   5.641   3.563 -0.0435  1.4321 -0.9126
 5909SOL    HW218627   1.832   5.666   3.622 -0.1256  0.0857 -0.1103
 5910SOL     OW18628   5.193   2.993   2.179 -0.6740  0.3750 -0.3694
 5910SOL    HW118629   5.102   3.018   2.211 -1.1919 -1.6251 -0.1112
 5910SOL    HW218630   5.233   2.927   2.243  0.1563 -0.2182 -1.4727
 5911SOL     OW18631   3.846   4.875   2.371 -0.5053  0.5705  0.4169
 5911SOL    HW118632   3.915   4.869   2.300  0.7637  0.9082  1.5764
 5911SOL    HW218633   3.756   4.890   2.330  0.2651  1.2423 -1.0669
 5912SOL     OW18634   4.710   3.811   6.401  0.2156 -0.0428 -0.1300
 5912SOL    HW118635   4.767   3.892   6.385 -1.9175  1.4900 -0.4860
 5912SOL    HW218636   4.652   3.795   6.321 -0.3983 -1.0805  0.4905
 5913SOL     OW18637   5.476   6.551   6.780  0.0215  0.3464  0.1351
 5913SOL    HW118638   5.376   6.551   6.789 -0.2395  1.9240 -2.0142
 5913SOL    HW218639   5.501   6.510   6.693  1.1976  0.7721  0.2611
 5914SOL     OW18640   5.881   3.775   4.738  0.2909 -0.3799 -0.3436
 5914SOL    HW118641   5.936   3.770   4.821  0.0043 -0.3978 -0.1531
 5914SOL    HW218642   5.869   3.684   4.700 -2.2545 -0.8539  1.3642
 5915SOL     OW18643   0.290   3.803   0.379  0.0338  0.0022  0.0662
 5915SOL    HW118644   0.373   3.799   0.324  0.5299 -0.8805  0.8544
 5915SOL    HW218645   0.211   3.783   0.321  0.1968  2.0643 -0.9734
 5916SOL     OW18646   1.992   1.478   1.459  0.2327  0.5293  0.0368
 5916SOL    HW118647   1.903   1.439   1.482  0.2734  0.1905 -0.3875
 5916SOL    HW218648   2.064   1.414   1.484  0.4203  1.1362  1.1497
 5917SOL     OW18649   6.173   4.039   3.617 -0.9489 -0.7208 -0.5476
 5917SOL    HW118650   6.209   3.946   3.607 -0.2073 -0.5063  0.0009
 5917SOL    HW218651   6.113   4.042   3.697  0.4006 -0.3463  0.4780
 5918SOL     OW18652   5.472   6.554   3.847  0.6510 -0.0942  0.3407
 5918SOL    HW118653   5.556   6.605   3.866  0.9305  0.0436 -1.2023
 5918SOL    HW218654   5.483   6.459   3.876  1.2622 -0.0295  0.3281
 5919SOL     OW18655   0.529   4.984   0.992  0.0894 -0.2158  0.5911
 5919SOL    HW118656   0.451   4.925   0.970 -0.4056 -0.8805  3.6309
 5919SOL    HW218657   0.566   5.023   0.908 -0.5140 -3.6379 -1.4810
 5920SOL     OW18658   4.368   3.841   0.554  0.4053  0.1173 -0.4056
 5920SOL    HW118659   4.319   3.825   0.640  0.7172  0.9312 -0.0670
 5920SOL    HW218660   4.465   3.819   0.566  0.6608  1.3174 -0.2061
 5921SOL     OW18661   1.251   1.167   6.303 -0.6304  0.1593  0.8102
 5921SOL    HW118662   1.345   1.201   6.298 -0.4212 -0.6146 -0.8464
 5921SOL    HW218663   1.196   1.209   6.230 -0.6263 -2.1586 -0.6013
 5922SOL     OW18664   4.744   6.248   6.817 -0.1311 -0.1918  0.7517
 5922SOL    HW118665   4.733   6.235   6.916  0.2050 -0.4259  0.7610
 5922SOL    HW218666   4.703   6.335   6.790  0.1834  0.0908  1.1723
 5923SOL     OW18667   3.524   2.062   0.844 -0.0957  0.0839 -0.0227
 5923SOL    HW118668   3.466   2.002   0.789  0.7458  0.9733 -1.9920
 5923SOL    HW218669   3.541   2.147   0.794  1.8140  0.3972  1.0650
 5924SOL     OW18670   6.562   4.103   0.280 -0.6805 -0.0125 -0.4331
 5924SOL    HW118671   6.603   4.013   0.299  0.8713  1.0549  1.6329
 5924SOL    HW218672   6.585   4.166   0.353 -2.1271  1.9917 -1.6181
 5925SOL     OW18673   3.653   0.630   6.929  0.7094 -0.3200  0.2666
 5925SOL    HW118674   3.621   0.722   6.951  1.3093  0.1433 -0.6829
 5925SOL    HW218675   3.627   0.567   7.001 -2.3228 -0.0014 -0.4058
 5926SOL     OW18676   0.323   6.218   4.491  0.1414 -0.4041 -0.1738
 5926SOL    HW118677   0.403   6.178   4.536  0.2664 -0.0978 -0.1223
 5926SOL    HW218678   0.352   6.268   4.409 -0.3413 -3.6003 -2.5261
 5927SOL     OW18679   1.620   0.693   5.952  0.1449  0.4014 -0.4918
 5927SOL    HW118680   1.615   0.726   6.047 -0.4521  0.5331 -0.5664
 5927SOL    HW218681   1.542   0.634   5.932  1.4369 -1.4779 -0.2285
 5928SOL     OW18682   4.605   2.638   3.693 -0.1501 -0.4570 -0.2080
 5928SOL    HW118683   4.630   2.720   3.642  0.2149 -0.5152 -0.1244
 5928SOL    HW218684   4.625   2.652   3.790 -0.0057 -0.6724 -0.2045
 5929SOL     OW18685   0.364   1.629   1.556 -0.3145 -0.3331  0.1026
 5929SOL    HW118686   0.378   1.725   1.582  2.2555  0.0843 -2.3546
 5929SOL    HW218687   0.267   1.607   1.562 -1.1733  2.7860 -0.4259
 5930SOL     OW18688   0.289   3.562   3.661  0.6558  0.7336  0.1704
 5930SOL    HW118689   0.348   3.513   3.724 -0.4750 -0.9989 -0.0408
 5930SOL    HW218690   0.194   3.530   3.673  0.4090  0.3250 -2.3916
 5931SOL     OW18691   2.166   1.442   2.004  0.0176  1.1750  0.4099
 5931SOL    HW118692   2.094   1.385   2.043  0.4156 -0.8079 -1.5432
 5931SOL    HW218693   2.131   1.534   1.989 -1.9361  0.4142  0.0315
 5932SOL     OW18694   2.588   1.065   0.091  0.3899  0.4250  0.5176
 5932SOL    HW118695   2.555   1.008   0.167  2.1310  0.2133  1.1528
 5932SOL    HW218696   2.545   1.034   0.007  2.6519 -3.3025  0.4745
 5933SOL     OW18697   1.504   0.818   0.346 -0.0822  0.2438 -0.4359
 5933SOL    HW118698   1.558   0.749   0.297 -0.4886  1.0996 -2.1928
 5933SOL    HW218699   1.540   0.909   0.325 -1.0720  0.7138 -0.1709
 5934SOL     OW18700   0.429   5.141   4.135 -0.0138 -0.5914 -0.4814
 5934SOL    HW118701   0.386   5.223   4.096 -1.0971 -1.1174 -0.4414
 5934SOL    HW218702   0.456   5.159   4.230  1.2498  0.2146 -0.9654
 5935SOL     OW18703   5.516   1.174   1.605 -0.1274  0.4478  0.0718
 5935SOL    HW118704   5.584   1.140   1.669 -0.2558 -1.0538 -0.5491
 5935SOL    HW218705   5.458   1.241   1.651 -0.1520 -0.5092  1.5055
 5936SOL     OW18706   5.310   2.681   3.410 -0.5789  0.1799  0.1209
 5936SOL    HW118707   5.220   2.693   3.451 -1.8686 -4.6245 -0.6380
 5936SOL    HW218708   5.301   2.637   3.320  2.4999 -1.1177  0.2989
 5937SOL     OW18709   3.802   5.059   3.647 -0.0370  0.6218 -0.3088
 5937SOL    HW118710   3.900   5.078   3.651 -0.1019  1.0969 -0.8229
 5937SOL    HW218711   3.782   4.975   3.697  0.2251  2.0042  2.2723
 5938SOL     OW18712   2.178   6.470   5.921  0.1867  0.1877  0.1358
 5938SOL    HW118713   2.192   6.561   5.882  0.7329  0.4661  0.9732
 5938SOL    HW218714   2.081   6.459   5.944 -0.1808 -0.0345 -1.3907
 5939SOL     OW18715   2.710   4.072   1.697  0.2750  0.2487 -0.0427
 5939SOL    HW118716   2.616   4.105   1.704  0.1418  0.4870 -2.2973
 5939SOL    HW218717   2.711   3.981   1.656  0.8473 -1.4843  3.4291
 5940SOL     OW18718   5.062   0.764   5.071  0.0390 -0.6794  0.3722
 5940SOL    HW118719   4.984   0.730   5.122  1.2878  0.1412  3.0142
 5940SOL    HW218720   5.047   0.859   5.044  0.5378 -0.1297  1.9346
 5941SOL     OW18721   1.926   0.012   2.426  0.2587 -0.6051 -0.4108
 5941SOL    HW118722   1.990  -0.007   2.352  0.2281  0.4160 -0.7210
 5941SOL    HW218723   1.968  -0.011   2.514  0.2747 -1.8687 -0.7337
 5942SOL     OW18724   5.569   1.117   4.183  0.6845  0.0123 -0.3046
 5942SOL    HW118725   5.478   1.150   4.162 -0.6416 -1.0879  2.9832
 5942SOL    HW218726   5.599   1.052   4.113 -0.5597  1.1331 -1.9443
 5943SOL     OW18727   6.500   5.352   4.883  0.4390 -0.0225  0.3001
 5943SOL    HW118728   6.556   5.419   4.931  3.1313 -1.2924 -0.9008
 5943SOL    HW218729   6.543   5.262   4.886 -1.6942 -1.1567 -0.4793
 5944SOL     OW18730   4.438   6.169   4.567 -0.2181  0.0793 -0.7038
 5944SOL    HW118731   4.400   6.088   4.612 -0.7863  1.7210  2.0138
 5944SOL    HW218732   4.365   6.235   4.551  0.8576  1.9240  1.5071
 5945SOL     OW18733   2.576   5.237   1.827 -0.0470 -0.6385  0.1648
 5945SOL    HW118734   2.569   5.139   1.809  0.7454 -0.7756  0.5457
 5945SOL    HW218735   2.503   5.265   1.890  0.1167 -1.1251  0.5813
 5946SOL     OW18736   2.906   5.794   5.183 -0.0121 -0.0458  0.3303
 5946SOL    HW118737   2.971   5.723   5.156  1.8753  1.1201  1.5476
 5946SOL    HW218738   2.854   5.762   5.263  0.4375 -0.2721  0.5375
 5947SOL     OW18739   2.523   0.155   0.638 -0.3220 -0.0065  0.0608
 5947SOL    HW118740   2.466   0.209   0.575  0.4107  0.1162 -0.5030
 5947SOL    HW218741   2.478   0.067   0.655  0.0115 -0.5277 -1.5614
 5948SOL     OW18742   6.661   3.176   1.350  0.1111  0.1576  0.6968
 5948SOL    HW118743   6.581   3.136   1.394 -0.0381  0.2602  0.5193
 5948SOL    HW218744   6.636   3.264   1.308 -0.1144 -0.6458 -0.9177
 5949SOL     OW18745   5.690   3.746   5.009  0.6451  0.1464  0.2251
 5949SOL    HW118746   5.747   3.665   4.994 -0.1617 -0.2279 -0.9959
 5949SOL    HW218747   5.744   3.828   4.993  1.4153 -0.1313  1.2635
 5950SOL     OW18748   0.719   0.327   3.884 -0.0921  0.0119 -0.1919
 5950SOL    HW118749   0.667   0.401   3.842  0.3427 -0.1077 -0.9577
 5950SOL    HW218750   0.667   0.242   3.876  0.6114 -0.3076 -1.8573
 5951SOL     OW18751   3.675   3.830   5.153  0.0134 -0.2011  0.3235
 5951SOL    HW118752   3.633   3.859   5.238  0.9485  0.5819  0.5373
 5951SOL    HW218753   3.761   3.782   5.172  0.6337  0.6701 -0.1801
 5952SOL     OW18754   3.757   4.208   6.811 -0.4472  0.3497  0.5327
 5952SOL    HW118755   3.776   4.272   6.885  0.4187  0.2796  0.3786
 5952SOL    HW218756   3.697   4.251   6.743 -3.6421 -0.4660  2.6050
 5953SOL     OW18757   5.765   5.884   2.372 -0.2924 -0.7374  1.0091
 5953SOL    HW118758   5.816   5.964   2.404 -0.8116 -0.3285  0.8270
 5953SOL    HW218759   5.716   5.843   2.449 -1.4846  0.2060  0.7957
 5954SOL     OW18760   4.309   0.817   0.448 -0.4543  0.3803  0.5846
 5954SOL    HW118761   4.398   0.781   0.477 -0.2577 -1.1911 -1.6528
 5954SOL    HW218762   4.246   0.741   0.432 -1.4408  1.3135 -0.1377
 5955SOL     OW18763   4.533   0.872   2.489  0.3150  0.0368 -0.1750
 5955SOL    HW118764   4.619   0.896   2.534 -1.1124  0.3173  2.6546
 5955SOL    HW218765   4.470   0.835   2.557 -1.9666  0.2544 -2.0621
 5956SOL     OW18766   4.266   6.828   6.923  0.1144  0.0519  0.6076
 5956SOL    HW118767   4.221   6.898   6.978 -0.0712  2.5979 -2.5255
 5956SOL    HW218768   4.362   6.819   6.952  0.3241  2.1248  0.6627
 5957SOL     OW18769   5.215   4.005   5.060 -0.4402 -0.3116  0.0509
 5957SOL    HW118770   5.281   4.042   5.125  0.5178  0.5503 -1.3445
 5957SOL    HW218771   5.197   4.073   4.988 -1.6629 -1.1239 -0.4455
 5958SOL     OW18772   5.670   1.459   5.290 -0.0038  0.1189 -0.6039
 5958SOL    HW118773   5.579   1.461   5.247 -0.0381  1.1002 -0.5024
 5958SOL    HW218774   5.659   1.449   5.389 -0.0451  1.2845 -0.4831
 5959SOL     OW18775   0.919   3.867   3.449  0.0677 -0.1849  0.2932
 5959SOL    HW118776   1.005   3.917   3.452 -0.5647  1.1328 -1.6834
 5959SOL    HW218777   0.853   3.917   3.393 -0.6812 -3.1043 -1.6622
 5960SOL     OW18778   2.816   2.346   0.259 -0.0856 -0.2087 -1.0238
 5960SOL    HW118779   2.792   2.416   0.192  1.7864  0.8126 -0.6895
 5960SOL    HW218780   2.808   2.255   0.217 -0.1394  0.3413 -2.2325
 5961SOL     OW18781   5.595   5.435   1.294  0.0059 -0.3926  0.0258
 5961SOL    HW118782   5.602   5.400   1.388  0.0667 -1.1415 -0.2579
 5961SOL    HW218783   5.560   5.363   1.234  2.5366 -0.7978 -1.0543
 5962SOL     OW18784   3.447   0.819   6.954  0.1368 -0.4478  0.4228
 5962SOL    HW118785   3.396   0.738   6.984 -1.8476 -0.0738 -1.6635
 5962SOL    HW218786   3.386   0.898   6.950  1.3531  0.5007 -0.3024
 5963SOL     OW18787   0.061   1.950   0.029 -0.8705 -0.0694 -0.1510
 5963SOL    HW118788   0.094   1.913   0.116 -0.8639 -1.0772 -0.5696
 5963SOL    HW218789  -0.016   1.894  -0.004 -2.0659  1.3673  0.0861
 5964SOL     OW18790   1.981   4.910   2.037 -0.1203  0.1485  0.1428
 5964SOL    HW118791   1.886   4.941   2.031 -0.4873 -0.8293  0.5919
 5964SOL    HW218792   2.035   4.952   1.964 -0.8223  0.9684  0.0834
 5965SOL     OW18793   3.566   4.909   2.252 -0.0659 -0.2962  0.4498
 5965SOL    HW118794   3.576   4.843   2.177  0.2389  0.1683  0.0757
 5965SOL    HW218795   3.594   5.000   2.220  0.7812 -0.2280  1.3414
 5966SOL     OW18796   3.568   0.265   5.149 -0.2703 -0.7909 -0.5541
 5966SOL    HW118797   3.604   0.177   5.119  1.1129 -0.0544 -1.1472
 5966SOL    HW218798   3.588   0.335   5.080  0.1706  0.3315  0.6641
 5967SOL     OW18799   1.559   0.959   2.062  0.8118 -0.0225  0.4495
 5967SOL    HW118800   1.514   0.928   1.978 -0.2979  0.8465  0.6937
 5967SOL    HW218801   1.583   1.056   2.053  0.1566  0.2320  1.3377
 5968SOL     OW18802   5.139   4.856   2.982 -0.5727  0.4822  0.2237
 5968SOL    HW118803   5.208   4.790   2.955 -1.0038  0.2594 -0.3605
 5968SOL    HW218804   5.096   4.827   3.068 -0.3359  0.3242  0.2880
 5969SOL     OW18805   0.396   6.438   1.898 -0.0231 -0.0029  0.4656
 5969SOL    HW118806   0.495   6.432   1.895 -0.1056 -1.0744 -1.2736
 5969SOL    HW218807   0.357   6.346   1.906 -0.8926  0.4544  2.1677
 5970SOL     OW18808   1.993   0.478   5.493 -0.3099  0.1534  0.4072
 5970SOL    HW118809   1.929   0.434   5.556  0.5059 -3.7119 -1.1687
 5970SOL    HW218810   2.086   0.444   5.510  0.2535  0.5602 -1.5259
 5971SOL     OW18811   4.043   2.555   1.209  0.0439  0.1458  0.0949
 5971SOL    HW118812   3.984   2.634   1.225  1.5069  1.5258 -1.0153
 5971SOL    HW218813   4.077   2.520   1.297 -0.4516  0.8581  0.5785
 5972SOL     OW18814   0.523   5.753   3.270  0.0468  0.3859 -0.1536
 5972SOL    HW118815   0.598   5.687   3.281 -0.6744 -0.2348  1.4771
 5972SOL    HW218816   0.491   5.751   3.175  1.0174 -0.5218 -0.4902
 5973SOL     OW18817   0.855   0.441   0.572 -0.1742  0.2054  0.2504
 5973SOL    HW118818   0.921   0.515   0.567  1.7588 -1.3582  1.1019
 5973SOL    HW218819   0.853   0.392   0.485  2.2773 -1.6392  1.0850
 5974SOL     OW18820   5.877   2.385   0.696  0.5667 -0.1529 -0.9726
 5974SOL    HW118821   5.902   2.477   0.666  1.3546 -0.4455 -1.2658
 5974SOL    HW218822   5.779   2.380   0.712  0.6880  1.1455  0.4790
 5975SOL     OW18823   1.945   6.197   0.119 -0.3957 -0.0138  0.6596
 5975SOL    HW118824   2.039   6.165   0.106 -1.1609 -1.6674 -1.5122
 5975SOL    HW218825   1.943   6.297   0.118  1.1503  0.0712 -1.5413
 5976SOL     OW18826   4.977   4.823   3.199  0.0525 -0.3091  0.2410
 5976SOL    HW118827   4.906   4.894   3.198  0.4817  0.1379  0.8210
 5976SOL    HW218828   4.939   4.737   3.164 -0.0775  0.5582 -1.8740
 5977SOL     OW18829   4.863   6.315   3.641 -0.3280 -0.1419  0.0160
 5977SOL    HW118830   4.908   6.401   3.665 -1.0266  0.2369  0.0092
 5977SOL    HW218831   4.811   6.281   3.720 -2.2195  0.8436 -0.7357
 5978SOL     OW18832   3.789   5.566   6.511 -0.2102  0.4488 -0.0469
 5978SOL    HW118833   3.780   5.644   6.449 -0.6747  0.7739  0.4250
 5978SOL    HW218834   3.884   5.561   6.544 -0.0431  0.4758 -0.5080
 5979SOL     OW18835   6.199   6.358   0.987  0.0844  0.2032  0.2550
 5979SOL    HW118836   6.192   6.415   0.906 -0.6784  0.5974  0.5883
 5979SOL    HW218837   6.284   6.305   0.984 -0.5538 -0.8196 -1.4685
 5980SOL     OW18838   0.128   2.734   4.338 -1.0448 -0.6217  0.0183
 5980SOL    HW118839   0.074   2.656   4.371 -2.3135  0.1614 -0.1367
 5980SOL    HW218840   0.131   2.804   4.409 -0.2757 -0.6265 -0.0065
 5981SOL     OW18841   6.287   0.905   5.128 -0.0734 -0.0590  0.5833
 5981SOL    HW118842   6.203   0.948   5.096 -0.0271  1.2327  2.1071
 5981SOL    HW218843   6.355   0.905   5.055 -0.0332  2.6176  0.5421
 5982SOL     OW18844   0.714   1.769   4.763  0.1856 -0.3659  0.3148
 5982SOL    HW118845   0.623   1.737   4.789  0.3467  0.5241  2.1429
 5982SOL    HW218846   0.706   1.851   4.707 -0.1507 -0.3323  0.4069
 5983SOL     OW18847   4.322   6.706   0.748  0.0664 -0.1262  0.0724
 5983SOL    HW118848   4.362   6.786   0.704  0.0037  0.7589  1.5288
 5983SOL    HW218849   4.379   6.626   0.732 -0.2356  0.0290 -2.0008
 5984SOL     OW18850   2.199   5.666   5.872 -0.0767  0.5836  0.0015
 5984SOL    HW118851   2.201   5.570   5.846 -0.1184  0.9242 -1.3213
 5984SOL    HW218852   2.104   5.698   5.877 -0.0173  0.9295 -1.0183
 5985SOL     OW18853   4.036   0.115   0.432  0.2706  0.0169 -0.2017
 5985SOL    HW118854   3.996   0.045   0.373  0.9854 -0.4558 -0.1332
 5985SOL    HW218855   3.997   0.204   0.408 -1.3333 -0.5015  0.3231
 5986SOL     OW18856   3.111   6.536   1.159 -0.3891  0.0449 -0.3521
 5986SOL    HW118857   3.067   6.446   1.157  0.7917 -0.6275  1.4570
 5986SOL    HW218858   3.209   6.524   1.179 -0.4772  1.7907  1.3628
 5987SOL     OW18859   2.018   1.477   1.163  0.3337 -0.1919  0.0869
 5987SOL    HW118860   2.072   1.560   1.148  0.3628 -0.4229 -1.2456
 5987SOL    HW218861   1.971   1.483   1.251  0.8465  0.9524  0.2987
 5988SOL     OW18862   1.912   5.114   2.743  0.1180  0.2583  0.4970
 5988SOL    HW118863   1.866   5.158   2.820  1.5220  0.2754  1.3774
 5988SOL    HW218864   1.934   5.019   2.768  2.3341  0.8296  0.9428
 5989SOL     OW18865   2.303   2.007   3.033 -0.0647  0.0093 -0.5091
 5989SOL    HW118866   2.266   1.988   3.125  2.6506 -1.9054  0.3310
 5989SOL    HW218867   2.254   1.952   2.966 -1.6958  0.9846 -0.1724
 5990SOL     OW18868   5.254   1.861   5.778 -0.0970  0.0934  0.0742
 5990SOL    HW118869   5.197   1.800   5.722 -1.8948  1.0365  0.8131
 5990SOL    HW218870   5.260   1.950   5.734  2.0192 -0.3661 -0.6879
 5991SOL     OW18871   6.240   2.363   3.417 -0.1605 -0.2181  0.7408
 5991SOL    HW118872   6.223   2.288   3.353 -1.6650  0.0264  0.8086
 5991SOL    HW218873   6.181   2.352   3.497  0.9638  0.0323  1.6222
 5992SOL     OW18874   6.374   3.632   2.591  0.1068  0.3740  0.0686
 5992SOL    HW118875   6.282   3.593   2.587 -0.1360  0.6389  2.0721
 5992SOL    HW218876   6.420   3.618   2.504 -1.3102 -1.0493 -0.4945
 5993SOL     OW18877   1.549   3.586   5.235  0.3297  0.2956  0.0095
 5993SOL    HW118878   1.614   3.511   5.243  0.2776  0.3032  0.5792
 5993SOL    HW218879   1.519   3.613   5.326 -0.3939  0.3628 -0.2432
 5994SOL     OW18880   6.390   6.969   5.367  0.3462  0.2315  0.1705
 5994SOL    HW118881   6.428   7.060   5.381 -2.2622  1.6002 -1.0062
 5994SOL    HW218882   6.304   6.961   5.417  0.5915 -1.6771  0.3622
 5995SOL     OW18883   6.896   3.944   5.400 -0.2747 -0.0948  0.3406
 5995SOL    HW118884   6.887   3.876   5.328  2.1223 -0.7978  0.6443
 5995SOL    HW218885   6.838   3.918   5.478  0.4719 -1.7285  0.3858
 5996SOL     OW18886   1.598   6.457   3.156  0.1464  0.0188  0.0457
 5996SOL    HW118887   1.586   6.484   3.060 -1.0096 -0.5741  0.0039
 5996SOL    HW218888   1.625   6.537   3.209 -0.5776  0.6731 -0.5429
 5997SOL     OW18889   6.116   2.895   4.673 -0.6315  0.5457 -0.5056
 5997SOL    HW118890   6.202   2.844   4.663 -0.4293  0.7469  0.1403
 5997SOL    HW218891   6.044   2.849   4.621 -0.5328 -0.6118  0.3237
 5998SOL     OW18892   6.782   6.688   1.218  0.1714  0.0712 -0.5087
 5998SOL    HW118893   6.766   6.785   1.236  1.6039  0.4607 -1.1424
 5998SOL    HW218894   6.808   6.643   1.303  0.4854  0.4718 -0.3853
 5999SOL     OW18895   5.977   5.856   0.252 -0.2472 -0.6410  0.3460
 5999SOL    HW118896   5.878   5.854   0.239 -0.2185  1.5313 -0.6317
 5999SOL    HW218897   6.022   5.851   0.163  0.4393  0.5017  0.6127
 6000SOL     OW18898   6.519   5.698   0.489 -0.0802  0.6081 -0.3752
 6000SOL    HW118899   6.440   5.744   0.449 -1.1525  0.3835  1.3744
 6000SOL    HW218900   6.558   5.757   0.561 -1.3429 -1.0142  1.7560
 6001SOL     OW18901   5.813   5.239   4.349  0.3491  0.7447 -0.0687
 6001SOL    HW118902   5.910   5.230   4.371 -0.0782 -0.7279  1.5090
 6001SOL    HW218903   5.771   5.305   4.411 -0.3776 -1.5874  2.0885
 6002SOL     OW18904   1.454   0.364   0.892  0.6929  0.3206  0.1172
 6002SOL    HW118905   1.493   0.334   0.805  1.3459  0.9712  0.1726
 6002SOL    HW218906   1.475   0.461   0.905 -0.9519  0.7056  0.1492
 6003SOL     OW18907   4.808   6.925   6.335  0.9402  0.2676  0.2276
 6003SOL    HW118908   4.827   6.987   6.258  1.1345  0.9274  0.7909
 6003SOL    HW218909   4.721   6.951   6.377  0.5887 -0.4118 -0.0760
 6004SOL     OW18910   1.441   1.553   4.813  0.2501 -0.2046  0.9034
 6004SOL    HW118911   1.360   1.527   4.761  0.0960  0.0767  1.0006
 6004SOL    HW218912   1.513   1.484   4.800  0.7039  0.5290 -0.7612
 6005SOL     OW18913   0.259   2.903   3.076  0.2899 -0.1359 -0.6791
 6005SOL    HW118914   0.206   2.841   3.018  0.3362 -0.7951 -0.0351
 6005SOL    HW218915   0.351   2.912   3.038  0.2801 -0.4579 -0.7872
 6006SOL     OW18916   2.907   2.220   4.945 -0.2882  0.0897 -0.3962
 6006SOL    HW118917   2.967   2.300   4.945 -3.6806  2.9088 -0.0170
 6006SOL    HW218918   2.913   2.174   4.856  0.0389  2.2564 -1.5773
 6007SOL     OW18919   1.121   3.942   0.555  0.2148  0.1708  0.6091
 6007SOL    HW118920   1.135   4.028   0.506 -0.3810  1.0892  1.9845
 6007SOL    HW218921   1.181   3.939   0.635  2.1656 -1.8949 -0.7873
 6008SOL     OW18922   3.272   2.845   1.028 -0.1980 -0.1654  0.5260
 6008SOL    HW118923   3.191   2.901   1.010  0.4133  0.9642  1.1497
 6008SOL    HW218924   3.259   2.795   1.113  0.6412  1.8236  1.8885
 6009SOL     OW18925   6.086   2.794   2.088  0.2881 -0.6280  0.2612
 6009SOL    HW118926   6.027   2.780   2.168 -0.1433 -0.0890  0.0398
 6009SOL    HW218927   6.043   2.753   2.007 -1.2742  2.3060 -0.5171
 6010SOL     OW18928   6.799   4.180   2.468  0.2966 -0.1127  0.0642
 6010SOL    HW118929   6.797   4.157   2.565  1.2232  1.1868  0.4193
 6010SOL    HW218930   6.764   4.272   2.454 -1.5387 -0.9270 -1.0871
 6011SOL     OW18931   1.136   6.957   1.237  0.9385 -0.1775 -0.2393
 6011SOL    HW118932   1.079   6.907   1.302  0.5757  1.1049  0.4730
 6011SOL    HW218933   1.093   6.957   1.147  1.3254 -1.7679 -0.4406
 6012SOL     OW18934   3.470   0.509   1.147  0.5141  0.9635  0.2626
 6012SOL    HW118935   3.409   0.581   1.115  0.5861  0.8478 -0.1409
 6012SOL    HW218936   3.418   0.426   1.165  0.5625  0.8220 -0.2155
 6013SOL     OW18937   0.380   4.798   1.158  0.2087 -0.1345 -0.7004
 6013SOL    HW118938   0.421   4.848   1.081  1.0976  0.4518  0.1358
 6013SOL    HW218939   0.392   4.700   1.144  0.4455 -0.0306 -1.2610
 6014SOL     OW18940   3.155   4.996   1.320  0.0701  0.0250  0.2277
 6014SOL    HW118941   3.143   4.925   1.251  1.6586  0.8930 -1.0149
 6014SOL    HW218942   3.086   5.067   1.308 -0.3337 -0.3640  0.2422
 6015SOL     OW18943   3.948   0.278   5.519 -0.4835 -0.2523  0.3511
 6015SOL    HW118944   3.899   0.288   5.432  0.4386 -1.1987 -0.3149
 6015SOL    HW218945   3.950   0.181   5.544  0.6941 -0.1860  0.5506
 6016SOL     OW18946   5.338   3.291   4.619 -0.3983  0.1234 -0.4061
 6016SOL    HW118947   5.422   3.336   4.648 -0.8349  1.0109 -0.4978
 6016SOL    HW218948   5.293   3.251   4.698 -2.1426  3.4456  0.4648
 6017SOL     OW18949   3.867   4.627   5.701 -0.2853  0.2906  0.6000
 6017SOL    HW118950   3.789   4.565   5.698  0.2462 -0.3836  0.2317
 6017SOL    HW218951   3.948   4.580   5.666 -0.1291  1.5897 -0.9032
 6018SOL     OW18952   4.631   1.046   4.194  0.1291  0.3094 -0.8651
 6018SOL    HW118953   4.659   1.028   4.289  1.3937  2.2472 -0.8323
 6018SOL    HW218954   4.656   0.967   4.137  0.7578 -0.2313  0.1289
 6019SOL     OW18955   1.646   4.566   1.769  0.3956 -0.2005  0.4642
 6019SOL    HW118956   1.633   4.513   1.853  1.2064 -1.5634 -0.2403
 6019SOL    HW218957   1.707   4.516   1.707 -0.4020  0.6574 -1.0550
 6020SOL     OW18958   6.782   3.414   3.687  0.0358  0.2949  0.1987
 6020SOL    HW118959   6.688   3.426   3.719 -0.1825  1.8955 -0.9446
 6020SOL    HW218960   6.784   3.344   3.615 -0.3887  0.7021 -0.2121
 6021SOL     OW18961   1.656   1.742   4.776  0.0980 -0.0800  0.0348
 6021SOL    HW118962   1.640   1.808   4.702 -0.1060 -0.4655 -0.2609
 6021SOL    HW218963   1.593   1.666   4.768  0.0889 -0.1348  0.5983
 6022SOL     OW18964   0.961   0.298   4.643  0.2459 -0.0484 -0.0417
 6022SOL    HW118965   1.012   0.383   4.657 -0.2102  0.2730 -0.2985
 6022SOL    HW218966   0.960   0.275   4.546 -0.3177  0.0944 -0.0750
 6023SOL     OW18967   4.337   1.454   5.115 -0.2345  0.0267 -0.2355
 6023SOL    HW118968   4.282   1.526   5.073  0.0721  0.9431  0.8808
 6023SOL    HW218969   4.433   1.466   5.090 -0.3910 -1.0615 -1.4773
 6024SOL     OW18970   1.099   0.097   3.812 -0.1144  0.1245  0.0945
 6024SOL    HW118971   1.027   0.038   3.846 -2.6369  1.5317 -2.3369
 6024SOL    HW218972   1.152   0.049   3.742  1.0024 -0.7200  1.4742
 6025SOL     OW18973   6.819   4.577   2.717  0.2356 -0.5831 -0.5542
 6025SOL    HW118974   6.869   4.546   2.797  0.3917 -2.1461 -1.2215
 6025SOL    HW218975   6.765   4.658   2.740  0.6482 -0.7302  0.9875
 6026SOL     OW18976   1.919   5.275   2.082 -0.4061 -0.4260  0.6312
 6026SOL    HW118977   1.852   5.244   2.149 -0.4493 -2.0054 -0.0868
 6026SOL    HW218978   1.898   5.236   1.993  1.4564 -1.0177  0.3904
 6027SOL     OW18979   1.822   5.961   0.742 -0.1984 -0.4855  0.1529
 6027SOL    HW118980   1.814   5.884   0.678  1.9929 -0.9097  0.3347
 6027SOL    HW218981   1.773   5.939   0.826 -3.1355  0.0781 -1.2697
 6028SOL     OW18982   3.119   5.353   3.106  0.2668  0.0694 -0.1299
 6028SOL    HW118983   3.056   5.362   3.029 -1.8791  0.2566  1.5495
 6028SOL    HW218984   3.068   5.323   3.187  2.6629 -1.4354  0.9347
 6029SOL     OW18985   1.149   3.304   2.261 -0.3764 -0.1171  0.4905
 6029SOL    HW118986   1.194   3.255   2.187  0.0697  0.9575  0.0173
 6029SOL    HW218987   1.060   3.263   2.279  1.0080 -2.7485  1.9234
 6030SOL     OW18988   3.609   2.105   2.566 -0.0784 -0.0009  0.0078
 6030SOL    HW118989   3.603   2.135   2.661 -0.0967  0.7817 -0.2284
 6030SOL    HW218990   3.609   2.005   2.562  2.0963 -0.0944  0.9600
 6031SOL     OW18991   5.222   5.319   1.768  0.1308  0.3405  0.5788
 6031SOL    HW118992   5.190   5.411   1.746 -1.8262 -0.5215 -0.4972
 6031SOL    HW218993   5.316   5.308   1.737  0.4835  2.0439  0.9738
 6032SOL     OW18994   2.475   1.169   0.874  0.7504  0.0917  0.6058
 6032SOL    HW118995   2.425   1.123   0.800 -0.4183 -0.6087  1.7825
 6032SOL    HW218996   2.442   1.264   0.882  1.6387  0.5041 -0.4354
 6033SOL     OW18997   5.324   3.515   0.425 -0.2188  0.1541 -0.5005
 6033SOL    HW118998   5.366   3.465   0.349 -0.7682  0.4646 -1.0063
 6033SOL    HW218999   5.367   3.486   0.511  0.2276 -0.3830 -0.8993
 6034SOL     OW19000   2.229   5.947   4.797 -0.2737 -0.0368 -0.6300
 6034SOL    HW119001   2.253   6.030   4.746  0.0565  0.4654  0.3113
 6034SOL    HW219002   2.157   5.969   4.863  0.5417 -0.2329  0.3513
 6035SOL     OW19003   4.039   3.774   4.192  0.5806  0.9377  0.4925
 6035SOL    HW119004   4.088   3.687   4.199 -2.5258 -1.0222 -0.0710
 6035SOL    HW219005   4.014   3.791   4.096  0.3184  1.9489  0.7286
 6036SOL     OW19006   6.749   6.333   5.812 -0.2077 -0.5613 -0.1862
 6036SOL    HW119007   6.741   6.241   5.775 -0.5590 -0.2607 -0.8961
 6036SOL    HW219008   6.828   6.379   5.772 -1.6558  0.4259 -2.1354
 6037SOL     OW19009   0.589   1.515   5.394 -0.0218  0.1889  0.0529
 6037SOL    HW119010   0.533   1.597   5.390 -0.5083 -0.1391  0.1095
 6037SOL    HW219011   0.622   1.493   5.302  0.2290  0.5238  0.0591
 6038SOL     OW19012   4.521   0.321   3.234  0.1388  0.2144 -0.4559
 6038SOL    HW119013   4.549   0.294   3.327 -0.2802 -0.1311 -0.4247
 6038SOL    HW219014   4.441   0.381   3.240 -0.4733 -0.5630 -0.6190
 6039SOL     OW19015   6.271   4.044   3.265  0.5684 -0.5285  0.5953
 6039SOL    HW119016   6.295   4.014   3.357 -2.3017  0.6206  1.7991
 6039SOL    HW219017   6.288   4.142   3.256  1.5396 -0.7617 -0.4098
 6040SOL     OW19018   0.433   1.762   0.431 -0.4070 -0.3055  0.4572
 6040SOL    HW119019   0.363   1.778   0.362  0.8569  1.6404 -0.4716
 6040SOL    HW219020   0.407   1.808   0.516  0.1228  1.2100 -0.1700
 6041SOL     OW19021   0.032   2.699   5.932  0.3987  0.1004  0.3327
 6041SOL    HW119022  -0.032   2.633   5.972  1.0932 -0.6576  0.2101
 6041SOL    HW219023   0.012   2.790   5.968 -1.7145  0.1636 -0.8369
 6042SOL     OW19024   3.234   6.045   3.469 -0.3474 -0.6115  0.2041
 6042SOL    HW119025   3.179   5.977   3.518 -1.6213  0.1021 -0.2006
 6042SOL    HW219026   3.253   6.012   3.377  0.1349 -0.9710  0.4278
 6043SOL     OW19027   1.008   2.699   5.101  0.2984 -0.2951 -0.1497
 6043SOL    HW119028   1.006   2.796   5.122  1.3241 -0.3653  0.3514
 6043SOL    HW219029   1.098   2.661   5.125 -0.7716 -1.8319  1.8241
 6044SOL     OW19030   4.509   0.841   2.104 -0.2411  0.2497 -0.4833
 6044SOL    HW119031   4.599   0.884   2.104 -0.5032  0.8251 -1.9337
 6044SOL    HW219032   4.440   0.906   2.072 -1.2085 -0.1515  0.7019
 6045SOL     OW19033   6.728   4.253   3.749 -0.3845 -0.4073 -0.3347
 6045SOL    HW119034   6.648   4.194   3.751  0.2347 -1.3426 -1.7102
 6045SOL    HW219035   6.780   4.242   3.834 -0.9509 -0.8524 -0.0403
 6046SOL     OW19036   5.705   5.661   4.226  0.5781 -0.0972 -0.2698
 6046SOL    HW119037   5.712   5.659   4.326  1.4318  0.0726 -0.3134
 6046SOL    HW219038   5.796   5.648   4.187  0.3273  0.3418 -1.0173
 6047SOL     OW19039   0.530   5.781   5.370 -0.4374 -0.1247 -0.1606
 6047SOL    HW119040   0.462   5.841   5.412 -0.4781 -0.2227 -0.0865
 6047SOL    HW219041   0.493   5.689   5.361 -0.0210 -0.3820  0.6444
 6048SOL     OW19042   5.580   2.040   2.083  0.2784  0.3976  0.3402
 6048SOL    HW119043   5.604   2.058   2.178  1.2775  0.6449  0.0567
 6048SOL    HW219044   5.482   2.057   2.069  0.5703  2.7498  0.7594
 6049SOL     OW19045   4.172   5.309   2.710 -0.6539 -0.6836  0.1193
 6049SOL    HW119046   4.128   5.299   2.800 -2.5762 -0.4215 -0.7421
 6049SOL    HW219047   4.177   5.219   2.666 -0.6842 -0.6512  0.0503
 6050SOL     OW19048   6.717   6.272   4.101  0.3492 -0.1619 -0.1485
 6050SOL    HW119049   6.702   6.250   4.005  0.9120  2.2601 -0.8419
 6050SOL    HW219050   6.745   6.367   4.110 -1.5665  0.2629  2.5998
 6051SOL     OW19051   1.899   4.803   1.099  0.4896  0.0062  0.5829
 6051SOL    HW119052   1.959   4.804   1.019  0.7721  0.1606  0.7935
 6051SOL    HW219053   1.804   4.789   1.070  0.2722  2.2717  0.0087
 6052SOL     OW19054   0.613   0.025   3.021 -0.1808  0.4492  0.7043
 6052SOL    HW119055   0.605  -0.027   3.107 -2.1025 -0.3877  0.0679
 6052SOL    HW219056   0.667  -0.028   2.956 -3.2363 -1.5938 -0.4140
 6053SOL     OW19057   1.249   2.328   5.244 -0.2069 -0.4497 -0.1210
 6053SOL    HW119058   1.187   2.254   5.218 -0.2056 -0.1764 -0.9360
 6053SOL    HW219059   1.277   2.316   5.339 -0.5663 -1.2382 -0.1039
 6054SOL     OW19060   0.035   3.221   2.067 -0.6632 -0.1562 -0.3528
 6054SOL    HW119061  -0.046   3.176   2.106 -0.7194  0.2182 -0.0259
 6054SOL    HW219062   0.030   3.319   2.084  0.6326 -0.3012  1.1168
 6055SOL     OW19063   3.949   3.014   2.005  0.2245  0.0746 -0.3005
 6055SOL    HW119064   3.995   3.001   1.917  1.2282 -1.6292  0.4168
 6055SOL    HW219065   3.850   3.002   1.993  0.0529  2.3003 -1.5950
 6056SOL     OW19066   3.956   1.179   6.674 -0.5020  0.6390 -0.0947
 6056SOL    HW119067   3.953   1.264   6.621 -0.7313  0.8439  0.2413
 6056SOL    HW219068   4.019   1.115   6.631  0.8575  1.5459  0.5104
 6057SOL     OW19069   5.710   3.668   1.870  0.5493  0.0953 -0.2421
 6057SOL    HW119070   5.621   3.652   1.914 -0.2935  0.5589 -1.6961
 6057SOL    HW219071   5.777   3.603   1.906 -0.5263 -0.6751  0.4490
 6058SOL     OW19072   1.130   1.833   1.808 -0.1238  0.0020  0.0681
 6058SOL    HW119073   1.192   1.756   1.825  0.5127 -0.2714 -2.9572
 6058SOL    HW219074   1.179   1.906   1.761 -1.5705  0.7235 -0.3885
 6059SOL     OW19075   2.400   0.824   1.593 -0.0548  0.5915 -0.0532
 6059SOL    HW119076   2.307   0.817   1.557 -0.8603  0.3589  1.9357
 6059SOL    HW219077   2.401   0.889   1.669  1.3810  0.4130  0.1131
 6060SOL     OW19078   6.495   4.814   4.814  0.3176  0.2626 -0.0708
 6060SOL    HW119079   6.488   4.906   4.774  0.9432 -0.3166 -1.5881
 6060SOL    HW219080   6.553   4.818   4.895  2.1117  0.8768 -1.3297
 6061SOL     OW19081   0.021   2.132   1.639  0.1958  0.9055 -0.1577
 6061SOL    HW119082  -0.074   2.165   1.645 -0.5268 -1.2245  0.9509
 6061SOL    HW219083   0.053   2.141   1.544  0.0988  4.6405  0.0107
 6062SOL     OW19084   6.860   1.133   2.829  0.0622  0.2440 -0.2057
 6062SOL    HW119085   6.885   1.055   2.772  0.5572 -1.0464  1.6653
 6062SOL    HW219086   6.788   1.186   2.785 -0.2844 -1.2805 -1.5263
 6063SOL     OW19087   3.571   5.594   5.765  0.1739 -0.0490 -0.1204
 6063SOL    HW119088   3.545   5.601   5.861 -0.1553 -0.0303 -0.2102
 6063SOL    HW219089   3.581   5.685   5.727  1.8220 -0.0239  0.2960
 6064SOL     OW19090   4.492   5.277   2.890 -0.6823  0.2401 -0.6236
 6064SOL    HW119091   4.565   5.313   2.948 -1.2617  3.6198 -1.7337
 6064SOL    HW219092   4.438   5.353   2.854 -1.9073 -1.8342 -3.5633
 6065SOL     OW19093   0.047   1.355   1.363 -0.1724  0.2786  0.2030
 6065SOL    HW119094   0.090   1.393   1.281  0.0801  1.1941  0.7517
 6065SOL    HW219095  -0.021   1.286   1.336 -0.3735  0.8524 -0.7891
 6066SOL     OW19096   3.546   7.017   1.996 -0.4032 -0.4814  0.4634
 6066SOL    HW119097   3.541   7.029   1.897 -1.1703 -2.4253  0.2179
 6066SOL    HW219098   3.458   7.039   2.037 -0.8063 -1.9040  0.4031
 6067SOL     OW19099   6.077   5.046   6.255  0.3029  0.2228 -0.1403
 6067SOL    HW119100   6.100   4.950   6.242 -0.0481  0.3168 -1.6908
 6067SOL    HW219101   6.059   5.064   6.352  0.6345 -1.1959  0.2049
 6068SOL     OW19102   5.908   6.245   1.662 -0.0366  0.1164  0.4771
 6068SOL    HW119103   5.974   6.292   1.721 -0.3882  0.7628  0.3609
 6068SOL    HW219104   5.903   6.293   1.574  0.2662 -0.6687  0.0245
 6069SOL     OW19105   4.477   4.967   0.256  0.3349  0.2921  0.1687
 6069SOL    HW119106   4.386   4.984   0.219 -0.1977 -1.9305  0.2955
 6069SOL    HW219107   4.469   4.933   0.350  1.4081  1.4291  0.6998
 6070SOL     OW19108   4.091   6.922   4.711  0.5196 -0.0189 -0.4391
 6070SOL    HW119109   4.055   6.834   4.741  0.1132 -0.0411 -0.9787
 6070SOL    HW219110   4.131   6.970   4.789  1.1085 -0.8512 -0.2112
 6071SOL     OW19111   5.220   5.808   3.551 -0.0400 -0.0823 -0.0842
 6071SOL    HW119112   5.130   5.852   3.545 -0.2771 -0.5972 -0.3221
 6071SOL    HW219113   5.242   5.764   3.464  0.9722  1.0484 -0.4304
 6072SOL     OW19114   6.904   6.129   0.838 -0.4695  0.5511 -0.4590
 6072SOL    HW119115   6.956   6.108   0.921  0.3382 -0.7629 -1.2569
 6072SOL    HW219116   6.817   6.079   0.840 -0.6326  0.8450 -0.2149
 6073SOL     OW19117   3.071   0.447   1.984 -0.2769 -0.4157 -0.4731
 6073SOL    HW119118   2.973   0.429   1.993 -0.2156 -1.2862 -1.4227
 6073SOL    HW219119   3.089   0.542   2.009 -1.5473  0.1309 -1.4731
 6074SOL     OW19120   3.089   2.068   2.405  0.3671 -0.2012 -0.0833
 6074SOL    HW119121   3.186   2.045   2.400  0.2328 -0.6852 -0.7223
 6074SOL    HW219122   3.038   1.989   2.441  0.0804 -0.3955 -0.8747
 6075SOL     OW19123   0.217   2.231   0.443 -0.1543 -0.2477 -0.2453
 6075SOL    HW119124   0.240   2.325   0.467 -0.0677  0.5275 -3.0606
 6075SOL    HW219125   0.296   2.187   0.399 -0.2549 -1.6095  0.8543
 6076SOL     OW19126   2.159   3.849   5.471 -0.0136  0.1484  0.5677
 6076SOL    HW119127   2.149   3.924   5.405 -0.5736 -0.6276 -0.2528
 6076SOL    HW219128   2.229   3.786   5.438 -0.4533 -0.3606  0.6054
 6077SOL     OW19129   4.721   3.123   6.012 -0.0897 -0.3706  0.3072
 6077SOL    HW119130   4.747   3.137   6.107  2.3869  0.1468 -0.3673
 6077SOL    HW219131   4.628   3.157   5.997  0.1322  1.1959  2.1254
 6078SOL     OW19132   4.604   4.333   3.373 -0.0520 -0.0449 -0.7235
 6078SOL    HW119133   4.634   4.239   3.357 -0.1253  0.0066 -1.1662
 6078SOL    HW219134   4.642   4.366   3.459  1.5640  0.1856 -1.5012
 6079SOL     OW19135   0.220   5.694   1.138 -0.2661 -0.1221 -0.6402
 6079SOL    HW119136   0.159   5.750   1.194  0.0219  0.5789 -1.0114
 6079SOL    HW219137   0.302   5.672   1.190 -0.6126 -0.6460 -0.3122
 6080SOL     OW19138   4.577   6.228   5.913 -0.6924 -0.2950  0.0304
 6080SOL    HW119139   4.582   6.324   5.885 -0.5321 -0.3835 -0.2490
 6080SOL    HW219140   4.667   6.186   5.904 -0.6581 -0.3508  0.5919
 6081SOL     OW19141   7.011   0.465   0.441 -0.2666 -0.2334 -0.2762
 6081SOL    HW119142   7.064   0.549   0.440 -0.0656 -0.3100  1.4479
 6081SOL    HW219143   7.009   0.428   0.534 -0.1020 -2.2943 -1.0506
 6082SOL     OW19144   1.605   6.840   0.432 -0.3559  0.4065  0.7349
 6082SOL    HW119145   1.565   6.802   0.348  0.9543 -0.0818  0.3081
 6082SOL    HW219146   1.703   6.853   0.419 -0.5577  2.9011  1.2771
 6083SOL     OW19147   3.182   4.882   2.317  0.1721  0.5724  0.4948
 6083SOL    HW119148   3.260   4.821   2.332 -0.7440 -0.3692  1.7012
 6083SOL    HW219149   3.153   4.878   2.222  1.0537  0.2738  0.2327
 6084SOL     OW19150   2.172   0.276   2.412 -0.0080 -0.0760  0.5637
 6084SOL    HW119151   2.204   0.326   2.331  1.4295 -2.4769 -0.4354
 6084SOL    HW219152   2.191   0.179   2.401 -0.0948 -0.5343  3.6843
 6085SOL     OW19153   1.743   0.092   2.057 -0.2983  0.0390  0.2655
 6085SOL    HW119154   1.822   0.039   2.028 -0.2571  1.1828 -1.9200
 6085SOL    HW219155   1.662   0.059   2.008 -0.3043  1.7774 -0.9744
 6086SOL     OW19156   1.540   1.784   0.545  0.0946 -0.2401  0.6563
 6086SOL    HW119157   1.562   1.814   0.452 -1.7392  1.2602  0.6390
 6086SOL    HW219158   1.546   1.861   0.608 -2.1438 -0.3668  1.1132
 6087SOL     OW19159   1.810   1.428   3.411 -0.3890  0.1590 -0.8686
 6087SOL    HW119160   1.857   1.369   3.345  4.1750  2.0239  0.3172
 6087SOL    HW219161   1.819   1.388   3.503 -2.8073 -0.2360 -0.7343
 6088SOL     OW19162   3.503   1.474   2.481 -0.6917  0.7641 -0.0670
 6088SOL    HW119163   3.466   1.382   2.496 -0.6623  0.5841 -1.0420
 6088SOL    HW219164   3.601   1.473   2.502 -0.2044 -0.0041 -2.1146
 6089SOL     OW19165   0.606   0.496   1.977 -0.0493 -0.5460 -0.2254
 6089SOL    HW119166   0.705   0.506   1.976  0.0275 -1.2744 -0.2184
 6089SOL    HW219167   0.579   0.427   2.044 -0.2824 -2.9678 -2.6125
 6090SOL     OW19168   5.395   2.261   4.779 -0.0587  0.2752  0.2973
 6090SOL    HW119169   5.412   2.356   4.754  0.7448  0.4847  1.5674
 6090SOL    HW219170   5.343   2.216   4.706  0.0686  1.5137 -0.5828
 6091SOL     OW19171   3.177   0.185   3.537 -0.2508 -0.0366 -0.6814
 6091SOL    HW119172   3.264   0.233   3.529  0.0512  0.2901  2.8725
 6091SOL    HW219173   3.193   0.091   3.566 -1.0163  0.3911  1.3204
 6092SOL     OW19174   3.282   0.085   6.031 -0.4508 -0.2214  0.0623
 6092SOL    HW119175   3.374   0.118   6.010 -0.3596 -0.1298  0.6005
 6092SOL    HW219176   3.229   0.078   5.946 -0.1792  0.4181 -0.1654
 6093SOL     OW19177   2.393   5.280   3.758 -0.1518  0.5626  0.2465
 6093SOL    HW119178   2.485   5.241   3.764 -0.8419 -1.0097  1.1481
 6093SOL    HW219179   2.383   5.352   3.828  0.2415  0.4350  0.4381
 6094SOL     OW19180   5.819   5.145   6.636  0.8076 -0.2291 -0.0885
 6094SOL    HW119181   5.824   5.166   6.734  1.7469  0.3192 -0.2473
 6094SOL    HW219182   5.911   5.123   6.602  0.1511 -3.1900 -0.2615
 6095SOL     OW19183   4.672   5.240   1.703 -0.4328 -0.4620 -0.0420
 6095SOL    HW119184   4.682   5.339   1.698 -0.8375 -0.4436 -0.5932
 6095SOL    HW219185   4.671   5.211   1.799  1.0210 -0.0846  0.0974
 6096SOL     OW19186   6.494   5.000   3.752 -0.3094  0.1177  0.1434
 6096SOL    HW119187   6.416   5.060   3.774 -1.4575 -0.7722 -1.2561
 6096SOL    HW219188   6.573   5.056   3.729 -0.8299  1.0735  0.5956
 6097SOL     OW19189   3.310   0.580   5.098  0.2304  0.1755  0.4293
 6097SOL    HW119190   3.296   0.657   5.036  0.1294  0.2928  0.5961
 6097SOL    HW219191   3.327   0.615   5.191 -1.7548 -0.0201  0.9128
 6098SOL     OW19192   0.173   1.587   5.073  0.2550  0.1247  0.4739
 6098SOL    HW119193   0.095   1.587   5.010  0.6728  0.6105 -0.0650
 6098SOL    HW219194   0.147   1.632   5.158 -0.5380 -1.1865  0.9590
 6099SOL     OW19195   4.078   4.542   6.855  0.3189  0.2879  0.0834
 6099SOL    HW119196   4.018   4.498   6.922  1.0949 -2.4918 -0.8943
 6099SOL    HW219197   4.148   4.595   6.902 -0.3561  0.0422  1.3904
 6100SOL     OW19198   6.985   2.964   0.159  0.0522 -0.7797  0.3447
 6100SOL    HW119199   7.072   3.013   0.155 -0.1536 -0.4143  0.2512
 6100SOL    HW219200   6.991   2.890   0.226 -0.0839  0.2832  1.5579
 6101SOL     OW19201   4.901   0.729   1.809  0.1697  0.5424  0.4170
 6101SOL    HW119202   4.834   0.764   1.743  0.4921 -1.1459 -0.8664
 6101SOL    HW219203   4.975   0.796   1.818 -0.1745  1.0729 -0.4900
 6102SOL     OW19204   6.766   1.561   2.565 -0.0604  0.0535  0.7811
 6102SOL    HW119205   6.746   1.610   2.650 -1.4537  0.0313  0.4885
 6102SOL    HW219206   6.709   1.596   2.492 -0.2788 -1.2513  0.3060
 6103SOL     OW19207   5.564   0.436   1.731 -0.1704 -0.1539  0.1153
 6103SOL    HW119208   5.580   0.391   1.643  1.4366  0.7685 -0.0925
 6103SOL    HW219209   5.635   0.410   1.796 -0.9174 -0.2308  0.9313
 6104SOL     OW19210   4.592   4.357   2.211 -0.1389 -0.0363  0.4913
 6104SOL    HW119211   4.518   4.327   2.272  0.4971 -0.4153  1.0955
 6104SOL    HW219212   4.569   4.333   2.117 -1.5147  1.3086  0.4500
 6105SOL     OW19213   4.532   0.913   1.122  0.1336  0.2616  0.0036
 6105SOL    HW119214   4.506   0.947   1.212 -0.1260  0.7414 -0.2518
 6105SOL    HW219215   4.620   0.952   1.096  1.3582 -1.6340  1.0213
 6106SOL     OW19216   2.579   6.344   6.149 -0.0406 -0.2450  0.5153
 6106SOL    HW119217   2.520   6.406   6.097 -0.1673  1.7097  2.8254
 6106SOL    HW219218   2.533   6.256   6.161 -0.0543 -0.7565 -2.4467
 6107SOL     OW19219   3.254   6.880   3.829 -1.0753  0.1683 -1.0405
 6107SOL    HW119220   3.207   6.796   3.856 -1.1152  0.1532 -1.1574
 6107SOL    HW219221   3.285   6.872   3.734  1.0146 -0.6496 -0.3511
 6108SOL     OW19222   5.460   1.297   0.085 -0.2272 -0.2744 -0.0476
 6108SOL    HW119223   5.408   1.307  -0.000 -1.3925 -0.8722  0.5678
 6108SOL    HW219224   5.535   1.232   0.070 -0.4113 -0.3612 -0.6243
 6109SOL     OW19225   1.067   1.865   3.628  0.0611 -0.2739 -0.0822
 6109SOL    HW119226   1.032   1.952   3.662  0.2971 -0.0062 -0.5272
 6109SOL    HW219227   1.003   1.826   3.562 -0.8756 -1.2638  1.3461
 6110SOL     OW19228   4.814   3.391   1.773  0.5790  0.2689 -0.1755
 6110SOL    HW119229   4.779   3.316   1.716  2.4331  0.5918 -1.8767
 6110SOL    HW219230   4.760   3.473   1.756  0.6605  0.1713 -0.9599
 6111SOL     OW19231   5.474   6.049   0.187 -0.5657  0.2327 -0.3092
 6111SOL    HW119232   5.418   6.016   0.111  1.9910 -0.1426 -2.1863
 6111SOL    HW219233   5.471   6.149   0.189 -1.2170  0.2181 -0.4602
 6112SOL     OW19234   6.995   0.028   5.853  0.3982  0.0132 -0.3723
 6112SOL    HW119235   7.092   0.016   5.835  0.3779 -1.2586  0.2416
 6112SOL    HW219236   6.974  -0.001   5.946 -0.4961  0.7680 -0.3115
 6113SOL     OW19237   0.813   1.038   3.809  0.1649 -0.3394  0.0677
 6113SOL    HW119238   0.746   1.027   3.735  0.5700  0.7938 -0.4919
 6113SOL    HW219239   0.904   1.017   3.774  0.1982 -1.2169  0.6501
 6114SOL     OW19240   5.607   1.618   6.581  0.0593 -0.2217  0.0810
 6114SOL    HW119241   5.684   1.579   6.631  1.2188 -0.9173 -2.1202
 6114SOL    HW219242   5.550   1.672   6.643  2.4313  0.5046  1.7359
 6115SOL     OW19243   0.355   4.337   1.611  0.2057 -0.1638  0.0616
 6115SOL    HW119244   0.378   4.332   1.708  3.5148  1.0616 -0.5295
 6115SOL    HW219245   0.331   4.430   1.586 -0.8574 -0.5160 -0.2663
 6116SOL     OW19246   6.313   1.461   6.199  0.3036 -0.3277  0.0772
 6116SOL    HW119247   6.317   1.470   6.099 -1.3628 -1.4338 -0.1243
 6116SOL    HW219248   6.219   1.471   6.230  0.7291 -0.4718  1.5014
 6117SOL     OW19249   0.484   4.855   2.201  0.0146  0.1455 -0.0093
 6117SOL    HW119250   0.525   4.846   2.110  1.9710 -1.0047  0.9007
 6117SOL    HW219251   0.409   4.789   2.210 -0.6233  0.7241 -0.9923
 6118SOL     OW19252   3.988   0.028   5.622  0.4651 -0.2062  0.1005
 6118SOL    HW119253   4.070  -0.024   5.599 -1.4846 -2.2623 -2.9212
 6118SOL    HW219254   3.962   0.008   5.716  1.8364 -1.7751  0.2022
 6119SOL     OW19255   6.877   4.804   4.930  0.6018  0.0608  0.0927
 6119SOL    HW119256   6.853   4.884   4.983  1.8842  0.3568  0.2755
 6119SOL    HW219257   6.843   4.722   4.975  1.0584  0.3630  1.0146
 6120SOL     OW19258   6.753   4.734   1.194  0.5411  0.1665  0.6539
 6120SOL    HW119259   6.657   4.707   1.188  0.6154  0.0060  0.0486
 6120SOL    HW219260   6.782   4.771   1.105  1.5263 -1.4535  0.2502
 6121SOL     OW19261   3.005   1.141   4.104 -0.0240 -0.0938  0.0420
 6121SOL    HW119262   2.968   1.139   4.011  0.6090 -1.4437 -0.2051
 6121SOL    HW219263   3.091   1.193   4.104  0.2536 -0.5426 -0.2514
 6122SOL     OW19264   1.224   5.753   6.698  0.1209 -0.4541 -0.1826
 6122SOL    HW119265   1.300   5.810   6.669 -1.1233  1.6544  0.4467
 6122SOL    HW219266   1.231   5.735   6.796 -0.0343 -0.4875 -0.1774
 6123SOL     OW19267   2.359   5.847   5.759  0.1922 -0.4908 -0.1249
 6123SOL    HW119268   2.399   5.825   5.670  0.2996 -0.7842 -0.0054
 6123SOL    HW219269   2.295   5.775   5.785 -1.2266  0.4706 -0.7920
 6124SOL     OW19270   2.117   0.246   1.349  0.4372 -0.0863  0.3065
 6124SOL    HW119271   2.157   0.204   1.267  0.0211 -0.2248  0.1752
 6124SOL    HW219272   2.024   0.213   1.361  0.1487  0.7122  0.2668
 6125SOL     OW19273   4.988   2.790   3.090  0.4694 -0.5626 -0.1283
 6125SOL    HW119274   4.918   2.843   3.042 -0.0306 -1.0420  0.0610
 6125SOL    HW219275   5.005   2.830   3.179  1.5604  0.4636 -0.7643
 6126SOL     OW19276   5.229   6.687   1.803 -0.1413  0.2595 -0.1839
 6126SOL    HW119277   5.261   6.648   1.890  1.3285  0.1116 -0.7467
 6126SOL    HW219278   5.188   6.615   1.748  0.1730  0.0488 -0.1496
 6127SOL     OW19279   6.904   4.608   6.095  0.4846  0.2952  0.0245
 6127SOL    HW119280   6.899   4.510   6.076  0.5042  0.4218 -0.6733
 6127SOL    HW219281   6.953   4.623   6.181  2.0592 -0.2246 -0.7395
 6128SOL     OW19282   1.597   1.875   5.958  0.0956  0.3153 -0.0664
 6128SOL    HW119283   1.513   1.916   5.923  0.7301  0.5772 -1.3595
 6128SOL    HW219284   1.575   1.792   6.009 -1.2504  2.2836  2.8414
 6129SOL     OW19285   3.029   6.292   1.124  0.2521  0.3849 -0.6711
 6129SOL    HW119286   3.107   6.233   1.141  0.0095  0.2737  0.1043
 6129SOL    HW219287   2.944   6.241   1.143 -0.0851  0.0663 -2.7765
 6130SOL     OW19288   1.047   3.094   3.988 -0.2887 -0.0243  0.0482
 6130SOL    HW119289   1.041   3.031   4.065 -0.1216  1.4320  1.3029
 6130SOL    HW219290   1.039   3.043   3.902 -3.0024 -1.4286  1.0149
 6131SOL     OW19291   5.622   0.400   2.531  0.5585  0.0249  0.2636
 6131SOL    HW119292   5.552   0.349   2.482  0.5689 -1.0729  1.3507
 6131SOL    HW219293   5.710   0.391   2.485  0.2905  0.1904 -0.2864
 6132SOL     OW19294   4.998   2.666   3.888  0.2880 -0.0791 -0.7142
 6132SOL    HW119295   4.950   2.582   3.863  0.4812  0.1085 -1.7734
 6132SOL    HW219296   5.019   2.664   3.986  1.6711 -1.9915 -0.9750
 6133SOL     OW19297   6.824   4.811   6.817 -0.2234  0.6265 -0.1135
 6133SOL    HW119298   6.755   4.784   6.885  1.6907  1.7719  2.4799
 6133SOL    HW219299   6.894   4.740   6.811 -1.1033 -0.1376 -2.0833
 6134SOL     OW19300   4.215   6.182   0.415  0.0710 -0.8954 -0.1226
 6134SOL    HW119301   4.127   6.229   0.419  0.2473 -0.6217  1.0477
 6134SOL    HW219302   4.282   6.233   0.470  0.3191 -2.3844  1.0112
 6135SOL     OW19303   0.210   0.193   3.401 -0.2720 -0.2387  0.1126
 6135SOL    HW119304   0.121   0.169   3.438 -0.7028  1.3192  0.1716
 6135SOL    HW219305   0.213   0.173   3.303 -1.0201  0.5116 -0.0758
 6136SOL     OW19306   5.877   6.118   1.172 -0.4711  0.3674 -0.2037
 6136SOL    HW119307   5.957   6.066   1.142 -1.1941 -0.0482 -1.4926
 6136SOL    HW219308   5.803   6.054   1.195 -0.1455  0.6971  1.9545
 6137SOL     OW19309   0.075   5.190   0.800  0.3176 -0.4046 -0.1623
 6137SOL    HW119310   0.002   5.251   0.769 -0.8600 -1.2529  0.8216
 6137SOL    HW219311   0.161   5.240   0.806 -0.1360  0.5716 -1.5446
 6138SOL     OW19312   2.944   2.181   4.115  0.0843  0.2005  0.2233
 6138SOL    HW119313   2.869   2.227   4.066  0.5509  2.8023  1.7378
 6138SOL    HW219314   3.012   2.148   4.049 -1.1705  0.0383 -1.0415
 6139SOL     OW19315   2.386   4.716   1.365  0.3535  0.0034  0.2340
 6139SOL    HW119316   2.458   4.723   1.297 -0.3417  0.1778 -0.5005
 6139SOL    HW219317   2.397   4.789   1.433  0.9888 -0.1103  0.2602
 6140SOL     OW19318   1.544   2.138   5.381 -0.1365  0.0412 -0.5886
 6140SOL    HW119319   1.577   2.224   5.342  1.2666 -0.0466  0.3369
 6140SOL    HW219320   1.554   2.065   5.313 -1.2993  0.5767 -1.3645
 6141SOL     OW19321   3.313   1.247   4.667  0.8027  0.3983  0.3544
 6141SOL    HW119322   3.216   1.271   4.655  0.3047 -2.2764 -1.8681
 6141SOL    HW219323   3.328   1.214   4.760 -1.1450 -1.8416 -0.0347
 6142SOL     OW19324   1.476   6.370   6.546 -0.8493 -0.5288 -0.0941
 6142SOL    HW119325   1.545   6.419   6.600  0.7605 -0.4486 -2.0757
 6142SOL    HW219326   1.387   6.378   6.590  0.0544  0.9644  1.6049
 6143SOL     OW19327   6.936   5.621   2.971  0.4771 -0.0068  0.7270
 6143SOL    HW119328   6.908   5.714   2.945  3.6549  0.6046 -0.9546
 6143SOL    HW219329   6.997   5.625   3.050  0.3794 -0.7138  0.8431
 6144SOL     OW19330   6.700   4.786   1.911  0.5938 -0.7375  0.4489
 6144SOL    HW119331   6.623   4.723   1.919 -1.0694  1.1467  0.0943
 6144SOL    HW219332   6.775   4.755   1.970 -0.5959 -2.3772  1.1693
 6145SOL     OW19333   6.641   3.199   5.854 -0.4830 -0.5447 -0.0606
 6145SOL    HW119334   6.662   3.257   5.775  1.0344 -1.2673 -0.2210
 6145SOL    HW219335   6.557   3.232   5.898 -1.1283  0.1216 -1.7110
 6146SOL     OW19336   1.264   4.227   1.607 -0.2908  0.1673  0.0952
 6146SOL    HW119337   1.312   4.291   1.667 -0.7308  0.7298 -0.1452
 6146SOL    HW219338   1.252   4.139   1.654  1.0676 -0.0241  0.1174
 6147SOL     OW19339   6.093   4.881   5.713 -0.3357  0.3946 -0.4350
 6147SOL    HW119340   6.033   4.845   5.785  1.1168 -0.3396  0.4579
 6147SOL    HW219341   6.057   4.968   5.679 -1.7087  0.1387  0.2938
 6148SOL     OW19342   1.135   2.879   6.251  0.7336  0.6440 -0.0949
 6148SOL    HW119343   1.153   2.946   6.180  2.3579 -0.4370 -0.7601
 6148SOL    HW219344   1.043   2.840   6.237  0.5338  1.3505 -0.8188
 6149SOL     OW19345   0.105   5.407   5.420  0.5491  0.3185  0.1744
 6149SOL    HW119346   0.103   5.501   5.457 -0.5557  0.1562  0.5742
 6149SOL    HW219347   0.138   5.409   5.326  2.8613  0.8201  0.9210
 6150SOL     OW19348   0.314   4.977   1.503  0.9900 -0.0426 -0.1233
 6150SOL    HW119349   0.349   5.054   1.448  0.1270  0.6383  0.2523
 6150SOL    HW219350   0.260   5.013   1.579  0.5207 -1.0285  0.0229
 6151SOL     OW19351   6.135   1.207   0.670 -0.0191 -0.2801 -0.1837
 6151SOL    HW119352   6.137   1.247   0.578  1.6696 -1.5596 -0.7648
 6151SOL    HW219353   6.197   1.128   0.673  0.8738  0.4123  2.3613
 6152SOL     OW19354   0.908   1.416   5.759 -0.2998  0.8468  0.3824
 6152SOL    HW119355   1.002   1.450   5.769  0.3236 -0.7304  0.1860
 6152SOL    HW219356   0.892   1.344   5.826 -0.8936  0.1370 -0.4940
 6153SOL     OW19357   5.149   2.465   5.974  0.1653  0.1086  0.0217
 6153SOL    HW119358   5.193   2.526   5.909 -1.1568  0.4034 -0.6413
 6153SOL    HW219359   5.149   2.507   6.065  0.7305  0.3549 -0.0915
 6154SOL     OW19360   5.485   6.665   3.598  0.0150 -0.3690 -0.6562
 6154SOL    HW119361   5.474   6.607   3.679 -0.2602 -0.4144 -0.7280
 6154SOL    HW219362   5.426   6.745   3.606 -1.2636 -1.1886 -1.5692
 6155SOL     OW19363   0.465   6.366   4.294 -0.3035 -0.1634  0.0015
 6155SOL    HW119364   0.392   6.405   4.236  0.4085  0.9510 -0.1682
 6155SOL    HW219365   0.490   6.432   4.365  0.8778 -0.3211 -0.2467
 6156SOL     OW19366   1.895   3.312   5.249  0.3362 -0.4868 -0.4807
 6156SOL    HW119367   1.817   3.259   5.218 -0.3477  0.5604 -0.6143
 6156SOL    HW219368   1.973   3.297   5.189  0.5571 -2.2838  0.2054
 6157SOL     OW19369   3.650   5.979   4.339  0.0768  0.0170 -0.3805
 6157SOL    HW119370   3.600   5.915   4.280 -1.0802 -0.3602  0.9498
 6157SOL    HW219371   3.635   5.955   4.435  0.7772  1.4465  0.1203
 6158SOL     OW19372   0.687   6.859   4.197 -0.1428  0.4700  0.1392
 6158SOL    HW119373   0.743   6.803   4.135  1.2612 -0.3818  2.0438
 6158SOL    HW219374   0.595   6.867   4.161  0.5471 -0.1558 -1.9235
 6159SOL     OW19375   3.064   0.360   3.836  0.1782  0.3081  0.1171
 6159SOL    HW119376   3.052   0.352   3.737 -0.3438 -0.2771  0.2192
 6159SOL    HW219377   3.019   0.443   3.868 -0.1128  0.2266 -0.0722
 6160SOL     OW19378   3.423   2.166   1.820  0.1598  0.3811  0.1142
 6160SOL    HW119379   3.442   2.206   1.730  1.2763  2.2302  1.0927
 6160SOL    HW219380   3.495   2.193   1.883 -0.9519 -0.3260  1.7367
 6161SOL     OW19381   1.980   0.176   5.196  0.0330  0.5193  0.4957
 6161SOL    HW119382   2.007   0.268   5.168  0.8060  0.1663  0.0528
 6161SOL    HW219383   1.907   0.143   5.136 -0.5265  0.9863  0.9044
 6162SOL     OW19384   1.776   2.372   3.120  0.2165 -1.4778 -0.0160
 6162SOL    HW119385   1.821   2.397   3.034  1.4019 -0.7306  0.7849
 6162SOL    HW219386   1.695   2.430   3.134  2.0838  1.0480  1.0819
 6163SOL     OW19387   3.149   6.703   1.718  0.1705 -0.3305  0.0498
 6163SOL    HW119388   3.113   6.720   1.627 -0.6437 -0.9620  0.2361
 6163SOL    HW219389   3.086   6.642   1.768 -0.3842  1.4823  1.6792
 6164SOL     OW19390   2.991   4.722   1.365 -0.2016  0.4200  0.1604
 6164SOL    HW119391   2.956   4.815   1.362 -0.3185  0.3748 -2.3356
 6164SOL    HW219392   2.975   4.682   1.455 -4.7498  1.1046 -0.1111
 6165SOL     OW19393   2.996   6.983   0.531 -0.4654 -0.7591 -0.1440
 6165SOL    HW119394   3.054   6.908   0.500  0.0951 -1.0247  1.5065
 6165SOL    HW219395   2.973   6.971   0.627  0.4004  1.6363  0.4452
 6166SOL     OW19396   0.987   0.562   5.655  0.1131  0.2693  0.0478
 6166SOL    HW119397   0.924   0.638   5.637 -1.2240 -0.6370  0.7352
 6166SOL    HW219398   1.074   0.598   5.686  0.5199  1.6335 -2.3870
 6167SOL     OW19399   1.034   3.821   1.055 -0.1092 -0.2889 -0.1132
 6167SOL    HW119400   0.956   3.854   1.001 -0.0505  0.2706  0.1328
 6167SOL    HW219401   1.081   3.748   1.005  0.4702  0.7989 -1.2264
 6168SOL     OW19402   6.202   6.565   6.531 -0.1066  0.0367  0.3278
 6168SOL    HW119403   6.124   6.618   6.564  0.4976  0.6928  0.7375
 6168SOL    HW219404   6.250   6.616   6.459 -0.3028 -0.5520 -0.2294
 6169SOL     OW19405   5.645   2.858   0.704  0.1254  0.4410  0.2110
 6169SOL    HW119406   5.658   2.793   0.779  1.0522 -0.1568 -0.4501
 6169SOL    HW219407   5.557   2.840   0.659  0.1038  0.0308  0.4128
 6170SOL     OW19408   0.120   4.269   5.982 -0.1426 -0.5174  0.2554
 6170SOL    HW119409   0.064   4.350   5.967 -1.6323 -1.7111 -0.9982
 6170SOL    HW219410   0.215   4.288   5.957 -0.5858  0.6622 -0.5909
 6171SOL     OW19411   6.442   6.166   6.832 -0.3907 -0.0305  0.0501
 6171SOL    HW119412   6.531   6.208   6.813  0.1762 -0.7005  1.1293
 6171SOL    HW219413   6.381   6.181   6.754  0.8247 -0.0112 -0.9338
 6172SOL     OW19414   5.604   0.130   6.856  0.0796  0.2349  0.0419
 6172SOL    HW119415   5.506   0.110   6.851 -0.1171  0.9995  0.6604
 6172SOL    HW219416   5.621   0.222   6.820  0.3790  0.6372  1.1603
 6173SOL     OW19417   5.985   6.368   4.747 -0.1358  0.5017  0.4486
 6173SOL    HW119418   5.999   6.441   4.679 -0.7619  2.6519  2.5007
 6173SOL    HW219419   5.906   6.390   4.803 -0.4485 -1.9164  1.0569
 6174SOL     OW19420   5.355   1.858   4.787 -1.0368 -0.7372 -0.0547
 6174SOL    HW119421   5.412   1.899   4.716 -1.2603 -1.9290 -0.9471
 6174SOL    HW219422   5.296   1.928   4.827 -1.9257 -0.2713 -2.0342
 6175SOL     OW19423   6.385   0.873   6.171  0.5229  0.4718  0.9575
 6175SOL    HW119424   6.381   0.946   6.240  0.4744  0.3659  1.0656
 6175SOL    HW219425   6.294   0.835   6.157  0.5899  0.2764  1.0646
 6176SOL     OW19426   0.483   0.391   6.682  0.4265 -0.6816  0.3758
 6176SOL    HW119427   0.458   0.482   6.715  2.9203  0.7063 -1.2639
 6176SOL    HW219428   0.428   0.322   6.729 -0.8992  1.5807  2.3406
 6177SOL     OW19429   4.796   5.776   0.088  0.1314  0.3157 -0.3558
 6177SOL    HW119430   4.697   5.776   0.076  0.1560 -2.0378 -1.0802
 6177SOL    HW219431   4.818   5.779   0.186 -0.7664 -1.1793 -0.0723
 6178SOL     OW19432   2.721   2.504   5.611  0.8003  0.0517  0.6743
 6178SOL    HW119433   2.678   2.415   5.620 -0.8317  0.3811 -2.5327
 6178SOL    HW219434   2.672   2.571   5.666 -2.3530  0.1921 -2.0345
 6179SOL     OW19435   1.629   1.975   1.018  0.0438  0.3860 -0.2762
 6179SOL    HW119436   1.647   2.018   0.929 -0.9168  0.1594 -0.5914
 6179SOL    HW219437   1.583   1.888   1.005  2.8086 -1.2768  0.3162
 6180SOL     OW19438   0.684   6.833   4.457 -0.3018  0.3418  0.4160
 6180SOL    HW119439   0.685   6.859   4.360  2.7317 -1.6254 -0.2105
 6180SOL    HW219440   0.691   6.915   4.513  1.4113  1.3651 -1.1853
 6181SOL     OW19441   0.946   6.458   3.923  0.5274  0.0880  0.2958
 6181SOL    HW119442   0.873   6.424   3.862 -0.2628  0.1400  1.1912
 6181SOL    HW219443   1.019   6.498   3.868  0.2010 -0.5836 -0.6575
 6182SOL     OW19444   2.995   4.376   5.541  0.5854 -0.2132  0.1131
 6182SOL    HW119445   3.054   4.384   5.460 -2.2320  0.7343 -2.0086
 6182SOL    HW219446   2.938   4.458   5.549 -1.6110 -1.7398  1.0675
 6183SOL     OW19447   1.121   6.406   0.614  0.2197 -0.0129 -0.2554
 6183SOL    HW119448   1.155   6.493   0.578  0.4227  1.1258  2.4200
 6183SOL    HW219449   1.186   6.370   0.680  0.0986 -2.2230 -1.2558
 6184SOL     OW19450   5.546   0.314   4.424 -0.0229  0.2401 -0.4308
 6184SOL    HW119451   5.504   0.394   4.466  1.1678  0.1275  1.0615
 6184SOL    HW219452   5.588   0.340   4.337 -0.1134  1.1106 -0.2265
 6185SOL     OW19453   4.683   1.963   3.936 -0.7283  0.0309  0.0418
 6185SOL    HW119454   4.615   2.018   3.985 -1.1976 -1.2307  0.8473
 6185SOL    HW219455   4.741   1.915   4.002  0.4700  0.5007 -0.6434
 6186SOL     OW19456   5.445   1.333   1.359  0.0328  0.4451 -0.2271
 6186SOL    HW119457   5.482   1.276   1.432 -1.9498 -0.9624 -0.2327
 6186SOL    HW219458   5.517   1.393   1.323  2.0014 -1.4799  0.3037
 6187SOL     OW19459   5.459   2.039   6.463 -0.1945 -0.3086 -0.3505
 6187SOL    HW119460   5.455   2.109   6.391 -0.2966  0.0990  0.0475
 6187SOL    HW219461   5.424   1.953   6.427 -2.8041  0.5269 -0.0578
 6188SOL     OW19462   3.839   0.226   6.212 -0.2753 -0.4227 -0.2089
 6188SOL    HW119463   3.794   0.148   6.169  0.6747 -1.1848  0.1413
 6188SOL    HW219464   3.771   0.282   6.258 -1.0127 -0.8769 -0.7148
 6189SOL     OW19465   1.140   4.662   5.978 -0.5096 -0.2852 -0.2242
 6189SOL    HW119466   1.072   4.735   5.971 -0.5245 -0.4379 -2.1368
 6189SOL    HW219467   1.227   4.693   5.938 -0.3612 -1.1305 -0.5716
 6190SOL     OW19468   2.888   6.066   2.362 -0.1025  0.1474  0.8685
 6190SOL    HW119469   2.979   6.042   2.330 -0.2400  0.2366  0.4003
 6190SOL    HW219470   2.895   6.129   2.439  0.2261  0.3328  0.6870
 6191SOL     OW19471   0.112   1.919   5.209  0.2673  0.1591  0.5696
 6191SOL    HW119472   0.132   1.829   5.248 -2.1900 -0.1430  1.2825
 6191SOL    HW219473   0.146   1.990   5.271  0.0354 -0.3037  1.2377
 6192SOL     OW19474   3.334   1.329   3.012  0.3549  0.3152  0.7439
 6192SOL    HW119475   3.354   1.426   3.005 -1.7814  0.8140  0.6662
 6192SOL    HW219476   3.351   1.298   3.106 -0.4660  1.1785  1.1992
 6193SOL     OW19477   0.973   6.343   2.055  0.4702 -0.4460  0.6160
 6193SOL    HW119478   1.031   6.388   2.122  0.2021 -0.1438  0.6444
 6193SOL    HW219479   0.999   6.246   2.048  1.5944 -0.1192 -0.0410
 6194SOL     OW19480   2.332   5.017   6.354 -0.8668 -0.0484  0.3714
 6194SOL    HW119481   2.403   5.003   6.285  1.0594 -1.7812  2.5544
 6194SOL    HW219482   2.322   5.114   6.373  2.9085  0.2147  1.8255
 6195SOL     OW19483   1.436   3.269   2.614  0.2205 -0.5846 -0.2835
 6195SOL    HW119484   1.453   3.363   2.581 -1.0466 -1.0851 -2.5861
 6195SOL    HW219485   1.445   3.267   2.713 -1.5321  2.4084  0.0709
 6196SOL     OW19486   2.472   6.201   5.478  0.0194 -0.1307 -0.2849
 6196SOL    HW119487   2.453   6.178   5.383 -1.4875 -0.6663  0.1151
 6196SOL    HW219488   2.540   6.137   5.515 -0.3200 -0.7118 -0.6455
 6197SOL     OW19489   6.447   5.451   5.326 -0.1849 -0.0120 -0.1246
 6197SOL    HW119490   6.383   5.518   5.365 -0.7124 -1.0629  0.8836
 6197SOL    HW219491   6.429   5.362   5.366  2.1005 -0.2896  0.3889
 6198SOL     OW19492   3.965   3.233   1.742  0.4222 -0.2233  0.2207
 6198SOL    HW119493   4.043   3.251   1.802  0.8731 -1.3317  0.0004
 6198SOL    HW219494   3.881   3.262   1.787  0.9069  0.4585  0.7031
 6199SOL     OW19495   6.897   4.202   4.559 -0.2166  0.4073  0.3332
 6199SOL    HW119496   6.849   4.154   4.632  0.5668 -0.3116  0.3910
 6199SOL    HW219497   6.995   4.180   4.562  0.2000  2.1185  0.4376
 6200SOL     OW19498   1.663   4.727   4.769 -0.0745  0.0295  0.0554
 6200SOL    HW119499   1.566   4.751   4.776  0.3653  2.3517 -0.8160
 6200SOL    HW219500   1.681   4.685   4.680  0.0459  1.7434 -0.7832
 6201SOL     OW19501   5.783   6.409   3.920  0.4679  0.0186 -0.1797
 6201SOL    HW119502   5.693   6.372   3.899 -0.1772  0.5215  1.5386
 6201SOL    HW219503   5.775   6.505   3.947  1.3494 -0.2300  1.0702
 6202SOL     OW19504   6.775   4.750   1.644  0.0211  0.3747 -0.4610
 6202SOL    HW119505   6.803   4.655   1.631 -0.8435  0.0408 -0.0068
 6202SOL    HW219506   6.755   4.766   1.741 -0.4921  0.8320 -0.6353
 6203SOL     OW19507   4.802   3.561   0.550  0.0908  0.5040  0.2652
 6203SOL    HW119508   4.896   3.571   0.516 -0.0893 -1.8054 -1.1301
 6203SOL    HW219509   4.805   3.526   0.644  0.5970  1.7622  0.7377
 6204SOL     OW19510   0.634   1.910   0.707 -0.6323 -0.0626  0.1420
 6204SOL    HW119511   0.537   1.922   0.726 -1.4575 -1.5424 -2.6317
 6204SOL    HW219512   0.666   1.826   0.751 -1.7053 -1.7600 -2.1604
 6205SOL     OW19513   5.362   3.691   4.137  0.2032  0.0646 -0.2918
 6205SOL    HW119514   5.392   3.776   4.180  2.8421 -0.0365 -1.6996
 6205SOL    HW219515   5.314   3.713   4.052 -1.4496  0.1595  0.6312
 6206SOL     OW19516   5.908   4.951   2.627  0.2583 -0.2101  0.4027
 6206SOL    HW119517   5.809   4.952   2.611  0.2025  2.0761  0.5181
 6206SOL    HW219518   5.928   4.916   2.718 -0.6713  1.5664  1.3317
 6207SOL     OW19519   6.955   2.313   4.128  0.1868  0.0905  0.5701
 6207SOL    HW119520   6.980   2.244   4.059 -0.4533  0.1293  0.2873
 6207SOL    HW219521   6.865   2.291   4.165 -0.7579  1.6278 -0.6768
 6208SOL     OW19522   3.485   4.697   5.629 -0.3887 -0.2615 -0.2019
 6208SOL    HW119523   3.554   4.669   5.563 -0.5276 -0.4958 -0.2498
 6208SOL    HW219524   3.407   4.634   5.625 -0.5314 -0.0996 -0.0310
 6209SOL     OW19525   0.563   0.174   4.400 -0.0646  0.2805 -0.5290
 6209SOL    HW119526   0.652   0.127   4.407 -0.8655 -1.2245  0.0098
 6209SOL    HW219527   0.498   0.116   4.351 -1.5393  0.1131  1.5026
 6210SOL     OW19528   4.224   5.129   3.173 -0.2937  0.3764 -0.2405
 6210SOL    HW119529   4.242   5.227   3.160 -0.3251  0.5927  1.1744
 6210SOL    HW219530   4.223   5.083   3.084 -0.4597  1.6885 -0.9434
 6211SOL     OW19531   6.866   2.345   6.901 -0.2595 -0.0900 -0.5084
 6211SOL    HW119532   6.881   2.254   6.864 -0.0490 -0.2388 -0.0626
 6211SOL    HW219533   6.887   2.346   6.999 -2.5100 -0.1460  0.0307
 6212SOL     OW19534   3.971   2.075   0.372  0.3087  0.0505 -0.2299
 6212SOL    HW119535   3.892   2.013   0.363  0.7658 -0.3151 -2.2688
 6212SOL    HW219536   3.943   2.156   0.424 -1.2082 -0.4097 -0.2571
 6213SOL     OW19537   5.276   1.024   4.838  0.5318  0.3913  0.2995
 6213SOL    HW119538   5.247   1.093   4.905  0.5418  0.3897  0.3056
 6213SOL    HW219539   5.291   0.937   4.885  2.3458  0.8455  0.6130
 6214SOL     OW19540   3.431   3.277   5.168 -0.3657  0.6906  0.6416
 6214SOL    HW119541   3.457   3.369   5.198  0.1227  0.8010 -0.0928
 6214SOL    HW219542   3.458   3.264   5.072  0.5576 -0.6035  1.0548
 6215SOL     OW19543   3.355   2.853   5.682  0.1466  0.1449  0.8086
 6215SOL    HW119544   3.417   2.930   5.697  0.8377  0.0097 -1.0175
 6215SOL    HW219545   3.359   2.826   5.586 -1.5067 -0.9648  1.0056
 6216SOL     OW19546   5.898   5.379   4.961 -0.0026 -0.1406  0.5393
 6216SOL    HW119547   5.936   5.310   5.023  2.4156  1.8274  1.3769
 6216SOL    HW219548   5.872   5.460   5.013 -0.1621  0.6609 -0.7531
 6217SOL     OW19549   3.761   2.120   2.272 -0.2272  0.2841 -0.1420
 6217SOL    HW119550   3.724   2.152   2.185 -0.8906 -0.8108 -0.2766
 6217SOL    HW219551   3.689   2.125   2.342 -0.4739 -1.2393 -0.2570
 6218SOL     OW19552   3.293   3.847   3.643 -0.3550  0.3351 -0.0931
 6218SOL    HW119553   3.240   3.930   3.660  1.4002  1.5443 -0.2930
 6218SOL    HW219554   3.314   3.803   3.731 -1.8354 -0.2984 -0.0245
 6219SOL     OW19555   3.166   3.426   6.758  0.4189 -0.1599  0.7519
 6219SOL    HW119556   3.085   3.374   6.729 -1.3509  2.0611  1.4097
 6219SOL    HW219557   3.248   3.373   6.738 -1.0915 -1.9249 -1.2762
 6220SOL     OW19558   6.509   6.361   3.473  0.3852 -0.6198 -0.5555
 6220SOL    HW119559   6.503   6.333   3.378 -1.1689  1.8329 -1.2733
 6220SOL    HW219560   6.577   6.434   3.482 -0.3408  0.0127 -0.0424
 6221SOL     OW19561   1.622   0.389   4.373  0.0823  0.2290  0.1183
 6221SOL    HW119562   1.566   0.472   4.378 -0.2322  0.1064 -1.0588
 6221SOL    HW219563   1.615   0.339   4.459  1.9669  2.4576  1.7176
 6222SOL     OW19564   1.286   0.230   6.245  0.4536  0.9958 -0.3099
 6222SOL    HW119565   1.218   0.233   6.172  0.1228 -0.6599 -0.1180
 6222SOL    HW219566   1.363   0.173   6.217 -0.1539 -0.5336  0.9565
 6223SOL     OW19567   5.514   4.585   0.974 -0.1526 -0.5475 -0.1216
 6223SOL    HW119568   5.577   4.662   0.974 -0.2149 -0.4803 -0.9499
 6223SOL    HW219569   5.534   4.524   1.051 -0.3024  0.4521  0.7275
 6224SOL     OW19570   4.971   5.486   3.454 -0.0128 -0.4397 -0.3162
 6224SOL    HW119571   5.022   5.409   3.414  2.5905  0.4864  0.9356
 6224SOL    HW219572   4.925   5.537   3.381 -0.2734 -2.1016 -1.3761
 6225SOL     OW19573   1.349   1.419   0.202  0.1857  0.1556 -0.6151
 6225SOL    HW119574   1.367   1.320   0.201 -0.2064 -0.0450  2.4697
 6225SOL    HW219575   1.431   1.467   0.233  0.0824  0.7055 -1.1963
 6226SOL     OW19576   4.536   2.850   5.692 -0.4568  0.1162 -0.0357
 6226SOL    HW119577   4.560   2.842   5.595 -3.5955  0.7704 -0.9739
 6226SOL    HW219578   4.573   2.936   5.729 -0.0978  0.3598 -0.9361
 6227SOL     OW19579   6.797   6.531   3.445 -0.0821 -0.0264  0.1716
 6227SOL    HW119580   6.889   6.500   3.421 -0.1583  0.1714 -0.4050
 6227SOL    HW219581   6.773   6.609   3.387 -0.7005 -0.2186  0.1655
 6228SOL     OW19582   4.790   5.515   0.020 -0.6937 -0.2070  0.0133
 6228SOL    HW119583   4.815   5.611   0.013 -0.3687 -0.3340 -0.7034
 6228SOL    HW219584   4.803   5.483   0.114  0.9953 -0.0275 -0.1374
 6229SOL     OW19585   3.274   3.056   2.712 -0.0472  0.4809 -0.2157
 6229SOL    HW119586   3.306   3.060   2.807  0.6626  1.4746 -0.4774
 6229SOL    HW219587   3.330   2.991   2.661 -0.3702  0.0145  0.0148
 6230SOL     OW19588   0.050   3.512   4.835 -0.0005 -0.1047 -0.1585
 6230SOL    HW119589   0.018   3.417   4.832  0.9580 -0.4312 -0.8747
 6230SOL    HW219590  -0.017   3.571   4.791 -2.3489  0.1589  3.3514
 6231SOL     OW19591   4.873   1.855   0.064 -0.2522 -0.1718 -0.1399
 6231SOL    HW119592   4.774   1.861   0.074 -0.4181  2.6964 -2.1823
 6231SOL    HW219593   4.896   1.855  -0.034  1.7832  0.2875  0.2985
 6232SOL     OW19594   3.411   0.633   2.725  1.0289  0.1129  0.4014
 6232SOL    HW119595   3.431   0.618   2.821  0.0286 -1.7273  0.3762
 6232SOL    HW219596   3.485   0.596   2.669 -0.2778 -2.8962  0.4229
 6233SOL     OW19597   6.862   5.268   2.718 -0.1229  0.3255 -0.5816
 6233SOL    HW119598   6.918   5.346   2.746  1.6527 -0.9476 -0.4911
 6233SOL    HW219599   6.888   5.239   2.626 -0.9704 -0.0006 -0.7294
 6234SOL     OW19600   6.168   5.087   4.163 -0.9099 -0.4939  0.5862
 6234SOL    HW119601   6.266   5.100   4.151 -1.2903  2.2099 -0.4875
 6234SOL    HW219602   6.143   5.102   4.258 -0.2420 -1.8768  1.0035
 6235SOL     OW19603   3.792   5.488   1.870 -0.1559  0.4175 -0.0103
 6235SOL    HW119604   3.707   5.437   1.860  0.3117 -0.1237 -1.4771
 6235SOL    HW219605   3.803   5.517   1.965 -2.0138  0.5810  0.1852
 6236SOL     OW19606   4.480   4.756   6.077 -0.4382  0.0153 -0.1911
 6236SOL    HW119607   4.417   4.697   6.026  2.8986 -1.8990 -2.5331
 6236SOL    HW219608   4.475   4.849   6.043 -0.3851 -0.6255 -2.0620
 6237SOL     OW19609   5.805   0.307   1.208  0.3844 -0.1820 -0.5681
 6237SOL    HW119610   5.736   0.371   1.174  1.4753  1.1934 -0.2653
 6237SOL    HW219611   5.848   0.345   1.290  1.1878 -1.2351 -0.4842
 6238SOL     OW19612   3.360   0.586   2.078 -0.7837  0.7755  0.1148
 6238SOL    HW119613   3.453   0.554   2.059 -0.1606  2.7805 -0.4351
 6238SOL    HW219614   3.315   0.521   2.139  0.4629 -0.9801 -0.7216
 6239SOL     OW19615   3.114   1.819   0.802 -0.4405 -0.0226 -0.2781
 6239SOL    HW119616   3.201   1.862   0.778 -1.1234  0.4451 -2.1025
 6239SOL    HW219617   3.041   1.887   0.799 -0.9684 -0.5174  0.7088
 6240SOL     OW19618   0.969   5.389   5.229 -0.6324 -0.1249  0.0405
 6240SOL    HW119619   0.968   5.481   5.266  0.2590  0.5498 -1.5061
 6240SOL    HW219620   0.915   5.386   5.145  0.7443 -0.5370 -0.8762
 6241SOL     OW19621   2.145   0.632   5.728 -0.0051  0.1982 -0.5160
 6241SOL    HW119622   2.180   0.548   5.770  0.7564  0.5438 -0.4644
 6241SOL    HW219623   2.048   0.619   5.706 -0.3156 -0.1370  0.9587
 6242SOL     OW19624   0.018   4.910   7.009 -0.0018 -0.0623 -0.1654
 6242SOL    HW119625  -0.056   4.908   6.942 -1.6725 -0.7361  1.5898
 6242SOL    HW219626   0.007   4.835   7.074  1.8308  0.2586  0.5921
 6243SOL     OW19627   1.602   2.453   6.847  0.2436  0.2503  0.1848
 6243SOL    HW119628   1.563   2.362   6.833  0.0206 -0.1369  2.8597
 6243SOL    HW219629   1.611   2.499   6.759 -2.3045 -1.2544 -0.9598
 6244SOL     OW19630   1.394   1.247   2.400  0.0882  0.4939 -0.1425
 6244SOL    HW119631   1.361   1.153   2.400 -0.4726  0.6859 -0.5357
 6244SOL    HW219632   1.329   1.305   2.351 -0.0676  1.2645  0.9439
 6245SOL     OW19633   1.056   5.119   4.179  0.4667 -0.4070  0.5251
 6245SOL    HW119634   1.040   5.030   4.136  0.4309  0.0176 -0.3826
 6245SOL    HW219635   1.135   5.114   4.239  1.2407 -0.7488 -0.4919
 6246SOL     OW19636   3.758   0.407   5.996 -0.7372  0.3372  0.4235
 6246SOL    HW119637   3.743   0.482   6.060 -0.8294 -0.0882  0.9090
 6246SOL    HW219638   3.781   0.324   6.047 -1.3001 -0.1282 -0.0677
 6247SOL     OW19639   3.768   6.019   2.406  0.4640 -0.3283 -0.4515
 6247SOL    HW119640   3.845   6.040   2.345  0.3875  1.1084 -0.0802
 6247SOL    HW219641   3.741   5.923   2.393  1.5941 -0.5484 -1.3785
 6248SOL     OW19642   2.700   6.175   0.871  0.6899 -0.1604  0.1640
 6248SOL    HW119643   2.786   6.190   0.822  0.3950  1.6966  0.1322
 6248SOL    HW219644   2.678   6.077   0.873  3.2171 -0.7697  0.9095
 6249SOL     OW19645   3.298   5.617   4.733 -0.2613 -0.4378 -0.5096
 6249SOL    HW119646   3.234   5.596   4.807 -1.3088  1.0694 -0.9229
 6249SOL    HW219647   3.384   5.568   4.748  0.8540  2.2241  3.5395
 6250SOL     OW19648   0.812   3.116   6.050  0.5100  0.0308  0.2895
 6250SOL    HW119649   0.785   3.031   6.005 -1.2119  1.6789 -2.0446
 6250SOL    HW219650   0.905   3.140   6.022  0.8090 -0.7825  0.5426
 6251SOL     OW19651   0.227   0.158   0.040 -0.0630 -0.6493  0.0813
 6251SOL    HW119652   0.221   0.241   0.096  0.7491  0.1735 -1.0089
 6251SOL    HW219653   0.143   0.106   0.048 -1.2689  1.1286 -0.5213
 6252SOL     OW19654   3.040   2.022   3.872 -0.0653  0.0832  0.4589
 6252SOL    HW119655   3.007   1.928   3.858  1.0701 -0.1872 -0.6193
 6252SOL    HW219656   3.004   2.081   3.801  0.0880  0.2238  0.4971
 6253SOL     OW19657   6.651   1.985   4.396 -0.4537 -0.0092 -0.1982
 6253SOL    HW119658   6.688   2.002   4.488 -0.5716  2.5767 -0.5360
 6253SOL    HW219659   6.562   2.031   4.388 -0.3647 -0.0528 -1.6392
 6254SOL     OW19660   5.571   1.494   5.551 -0.7011 -0.3445 -0.6567
 6254SOL    HW119661   5.552   1.580   5.504 -0.9279 -0.2049 -0.3095
 6254SOL    HW219662   5.541   1.500   5.646 -0.0756 -0.5605 -0.4398
 6255SOL     OW19663   6.425   4.016   5.743  0.4382  0.1404 -0.1861
 6255SOL    HW119664   6.495   4.081   5.715  0.3954  0.1153 -0.3512
 6255SOL    HW219665   6.454   3.970   5.827  0.6850  0.0240 -0.3350
 6256SOL     OW19666   0.564   1.399   3.546 -0.2914 -0.5098  0.2526
 6256SOL    HW119667   0.508   1.410   3.629 -0.3336 -0.8922  0.2800
 6256SOL    HW219668   0.637   1.333   3.565 -1.1196 -1.6651 -0.4032
 6257SOL     OW19669   5.197   1.886   2.527 -0.2674 -0.2024 -0.9112
 6257SOL    HW119670   5.195   1.912   2.624 -2.3544  0.3916 -1.0696
 6257SOL    HW219671   5.141   1.804   2.514 -2.0235  1.1192 -1.9555
 6258SOL     OW19672   0.668   1.374   0.814  0.3961  0.5017  0.4400
 6258SOL    HW119673   0.754   1.350   0.769  0.9418  1.1873  1.0806
 6258SOL    HW219674   0.591   1.347   0.756  1.0046 -1.0326  0.2954
 6259SOL     OW19675   3.293   4.776   0.289  0.3524  0.7132  0.1461
 6259SOL    HW119676   3.238   4.771   0.205  0.3131  0.3249  0.1923
 6259SOL    HW219677   3.390   4.784   0.265  0.4012 -0.0693  0.0571
 6260SOL     OW19678   6.931   0.943   2.669 -0.2276 -0.1471 -0.6027
 6260SOL    HW119679   7.015   0.967   2.621  0.6965 -1.5580  0.2529
 6260SOL    HW219680   6.882   0.873   2.618  0.3866 -1.1156  0.0988
 6261SOL     OW19681   4.447   5.646   1.247 -0.9588  0.1904 -0.0024
 6261SOL    HW119682   4.404   5.556   1.249  0.9759 -0.7485  0.5690
 6261SOL    HW219683   4.431   5.693   1.334  0.0057 -0.5722  0.5992
 6262SOL     OW19684   5.324   4.262   3.750 -0.2137  0.2618 -0.5127
 6262SOL    HW119685   5.324   4.228   3.656  0.8780 -1.7220  0.1334
 6262SOL    HW219686   5.402   4.223   3.799 -2.4506 -1.3184  2.0639
 6263SOL     OW19687   2.314   1.905   2.312  0.2993  0.0133  0.7064
 6263SOL    HW119688   2.274   1.937   2.398 -0.0069  1.1264  0.1707
 6263SOL    HW219689   2.396   1.958   2.291 -0.9347  1.4048 -0.8449
 6264SOL     OW19690   5.387   2.964   4.877  0.2042  0.0185  0.5619
 6264SOL    HW119691   5.341   2.993   4.962  0.7296  0.6563  0.6368
 6264SOL    HW219692   5.320   2.959   4.803  0.1345  1.7338  0.4774
 6265SOL     OW19693   6.121   0.755   4.639 -0.0277  0.1024 -0.3762
 6265SOL    HW119694   6.106   0.670   4.691 -0.9898  0.6482  0.2675
 6265SOL    HW219695   6.083   0.744   4.547 -2.6411  0.7019  0.5386
 6266SOL     OW19696   5.330   4.011   4.751 -0.0393  0.1223 -0.2409
 6266SOL    HW119697   5.323   4.110   4.762 -1.5577  0.1717 -1.4180
 6266SOL    HW219698   5.357   3.990   4.657 -1.9305 -0.6099 -0.6558
 6267SOL     OW19699   4.150   6.572   1.387  0.3077 -0.2156 -0.0565
 6267SOL    HW119700   4.172   6.659   1.342  0.5206  0.2289  0.8871
 6267SOL    HW219701   4.195   6.569   1.476 -1.9151 -0.0996  1.1132
 6268SOL     OW19702   3.414   3.818   2.813  0.3616  0.2612 -0.1605
 6268SOL    HW119703   3.456   3.897   2.858 -0.3222  0.7580 -0.3864
 6268SOL    HW219704   3.418   3.740   2.875 -2.0686  1.3406  1.5483
 6269SOL     OW19705   0.878   2.727   6.486 -0.0559  0.3183 -0.6554
 6269SOL    HW119706   0.862   2.690   6.578 -0.9106  2.1007 -0.0500
 6269SOL    HW219707   0.864   2.654   6.418  0.5153 -1.0093  0.5940
 6270SOL     OW19708   6.829   0.729   0.351  0.3065 -0.4177 -0.1711
 6270SOL    HW119709   6.810   0.786   0.271 -0.9409  0.8365  0.9458
 6270SOL    HW219710   6.928   0.727   0.368  0.4640  0.6052 -0.8354
 6271SOL     OW19711   0.308   5.371   4.028 -0.6279  0.3382 -0.3267
 6271SOL    HW119712   0.252   5.418   4.096 -0.7492  0.0708 -0.2416
 6271SOL    HW219713   0.300   5.418   3.940 -0.1649  0.9155 -0.0681
 6272SOL     OW19714   2.939   0.009   5.074  0.3895  0.3342 -0.6531
 6272SOL    HW119715   2.964  -0.081   5.038  0.8877  0.1722  0.0654
 6272SOL    HW219716   2.869   0.050   5.016  0.1051 -0.5457 -0.9523
 6273SOL     OW19717   4.988   1.099   5.360 -0.2055 -0.0331  0.1631
 6273SOL    HW119718   5.087   1.096   5.371 -0.2270 -0.2930  0.2665
 6273SOL    HW219719   4.949   1.008   5.373 -0.1835 -0.4993 -2.3944
 6274SOL     OW19720   5.421   3.443   6.768  0.7129 -0.0843  0.2250
 6274SOL    HW119721   5.439   3.522   6.709 -1.6211 -0.9152 -1.7858
 6274SOL    HW219722   5.327   3.447   6.801  0.1596 -2.4885 -0.8366
 6275SOL     OW19723   4.170   0.032   0.087 -0.1734 -0.0499 -0.4314
 6275SOL    HW119724   4.179   0.064  -0.007  2.1188  1.7700  0.2867
 6275SOL    HW219725   4.084   0.064   0.125  0.2480  1.9465 -1.0179
 6276SOL     OW19726   6.296   0.498   3.491 -0.3231 -0.8423 -0.1493
 6276SOL    HW119727   6.245   0.500   3.404 -1.3025 -1.9209  0.3763
 6276SOL    HW219728   6.242   0.450   3.560  0.8163 -0.7442  0.8362
 6277SOL     OW19729   2.761   6.002   5.693 -0.3185 -0.2020  0.9782
 6277SOL    HW119730   2.736   6.082   5.748  0.1381 -0.6650  1.8805
 6277SOL    HW219731   2.778   5.924   5.753 -3.0898 -1.6784  0.0168
 6278SOL     OW19732   0.867   5.038   2.455 -0.4033  0.2378  0.6419
 6278SOL    HW119733   0.895   5.053   2.361 -0.0836  2.7152  1.0724
 6278SOL    HW219734   0.796   4.967   2.458 -0.7449  0.4289 -1.4893
 6279SOL     OW19735   2.632   0.242   6.305 -0.0434 -0.2114  0.1699
 6279SOL    HW119736   2.703   0.235   6.235  1.3373 -1.5813  1.6318
 6279SOL    HW219737   2.635   0.333   6.346  0.5089 -0.0827 -0.1419
 6280SOL     OW19738   4.524   6.874   4.835 -0.0179 -0.5071  0.2362
 6280SOL    HW119739   4.595   6.844   4.772 -0.2078  2.0983 -1.3354
 6280SOL    HW219740   4.533   6.971   4.853 -1.1483 -0.7704  2.7812
 6281SOL     OW19741   0.844   2.675   0.533 -0.4704 -0.4661 -0.9251
 6281SOL    HW119742   0.932   2.628   0.539  0.7110  1.6589 -0.1652
 6281SOL    HW219743   0.781   2.636   0.600  0.9980  0.0127  0.8265
 6282SOL     OW19744   0.101   4.038   3.024 -0.5082  0.0811  0.3460
 6282SOL    HW119745   0.049   3.980   2.960  0.2917 -0.2514 -0.0183
 6282SOL    HW219746   0.114   3.989   3.110  1.4448 -0.9314 -0.4674
 6283SOL     OW19747   6.476   1.358   1.559 -0.2135  0.2631 -0.3188
 6283SOL    HW119748   6.510   1.440   1.513 -2.0475  1.1034 -0.2342
 6283SOL    HW219749   6.474   1.282   1.494  2.0768  0.0654 -0.2460
 6284SOL     OW19750   4.168   5.341   4.811  0.8681 -0.9057 -0.0575
 6284SOL    HW119751   4.179   5.336   4.911 -1.5377  1.9897  0.4818
 6284SOL    HW219752   4.131   5.254   4.777 -2.8045 -0.5249  2.3921
 6285SOL     OW19753   0.699   3.318   1.773  0.0031  0.6641  0.4235
 6285SOL    HW119754   0.674   3.225   1.799  0.6320  0.3888  0.0682
 6285SOL    HW219755   0.624   3.359   1.720 -0.1903  0.2890  0.4057
 6286SOL     OW19756   6.622   6.148   1.538 -0.1509  0.2255  0.4424
 6286SOL    HW119757   6.714   6.168   1.505  0.7822 -0.9826  2.1582
 6286SOL    HW219758   6.556   6.206   1.491  1.1949 -0.4847 -2.5595
 6287SOL     OW19759   4.395   6.380   1.514 -0.0988 -0.3850 -0.2305
 6287SOL    HW119760   4.456   6.356   1.590  0.2937 -0.6752 -0.6281
 6287SOL    HW219761   4.320   6.314   1.510 -0.6636  0.1985  0.4986
 6288SOL     OW19762   4.487   2.007   4.673  0.4758 -0.0389  0.4215
 6288SOL    HW119763   4.482   1.970   4.580  0.8264 -1.4689  0.9423
 6288SOL    HW219764   4.463   1.935   4.739  0.0083  1.0134  1.4367
 6289SOL     OW19765   3.445   2.839   2.585  0.0442  0.0101  0.3987
 6289SOL    HW119766   3.545   2.840   2.584  0.1140 -2.2287  0.9205
 6289SOL    HW219767   3.412   2.746   2.568 -1.9496  0.5909  0.8228
 6290SOL     OW19768   3.203   2.180   5.813 -0.1522 -0.1671 -0.3623
 6290SOL    HW119769   3.199   2.089   5.772 -0.0570 -0.5919  0.5497
 6290SOL    HW219770   3.221   2.248   5.742  1.0496 -0.9943 -0.8843
 6291SOL     OW19771   2.340   2.654   6.463  0.3565  0.0484  0.5813
 6291SOL    HW119772   2.388   2.623   6.381 -0.7053  0.6620 -0.2908
 6291SOL    HW219773   2.292   2.577   6.504 -0.2779  0.0211 -0.1945
 6292SOL     OW19774   3.277   0.816   4.344 -0.6343 -0.1160 -0.3986
 6292SOL    HW119775   3.312   0.747   4.408 -0.0377 -0.5017 -1.1248
 6292SOL    HW219776   3.326   0.902   4.359 -1.7782  0.3422  0.8984
 6293SOL     OW19777   6.537   4.653   6.777 -0.0928 -0.5926  0.3338
 6293SOL    HW119778   6.471   4.726   6.758 -0.6453 -0.6329  1.8840
 6293SOL    HW219779   6.607   4.652   6.707 -1.1978  0.1113 -0.8236
 6294SOL     OW19780   6.091   0.711   6.332  0.2168 -0.2312  0.6747
 6294SOL    HW119781   6.098   0.675   6.239  0.0877 -0.3934  0.7297
 6294SOL    HW219782   6.180   0.751   6.358  0.9868 -2.2594  1.3434
 6295SOL     OW19783   0.792   3.127   3.261 -0.4877 -0.5054 -0.0988
 6295SOL    HW119784   0.754   3.193   3.325  3.7822  0.6420  1.6041
 6295SOL    HW219785   0.791   3.166   3.168 -0.8079  0.6534  0.3801
 6296SOL     OW19786   0.228   3.058   2.224  0.6572 -0.3130  0.5135
 6296SOL    HW119787   0.164   3.085   2.152  0.4282  0.5360  1.0134
 6296SOL    HW219788   0.179   3.012   2.298  0.7441 -0.3479  0.5497
 6297SOL     OW19789   3.613   6.179   0.912  0.1596  0.6172  0.1761
 6297SOL    HW119790   3.572   6.235   0.840 -0.8056 -1.5285 -1.0203
 6297SOL    HW219791   3.665   6.105   0.871  1.0610  0.3455  1.7208
 6298SOL     OW19792   3.127   6.228   5.635  0.0299 -0.0619  0.0010
 6298SOL    HW119793   3.070   6.291   5.686 -0.7065  0.3808 -1.3314
 6298SOL    HW219794   3.210   6.208   5.688  1.4758  3.8742 -0.4990
 6299SOL     OW19795   1.089   1.020   1.887  0.4418  0.2052 -0.0453
 6299SOL    HW119796   1.036   1.059   1.963 -0.1987 -0.3797 -0.1802
 6299SOL    HW219797   1.043   0.938   1.853 -0.1914  1.3583 -2.1608
 6300SOL     OW19798   4.151   1.260   3.033  0.5712  0.1088 -0.1076
 6300SOL    HW119799   4.113   1.277   3.124 -0.9508  1.2121 -0.9066
 6300SOL    HW219800   4.098   1.189   2.987  0.8493  0.1009 -0.4192
 6301SOL     OW19801   3.449   3.834   3.145  0.3822 -0.0700  0.1498
 6301SOL    HW119802   3.407   3.743   3.141 -2.8287  1.3322 -2.8897
 6301SOL    HW219803   3.432   3.874   3.235 -1.4592 -1.0860  0.3078
 6302SOL     OW19804   6.454   1.040   5.958 -0.8093 -0.6973  0.3648
 6302SOL    HW119805   6.541   1.086   5.977 -1.1882  0.4645 -0.6442
 6302SOL    HW219806   6.442   0.965   6.024  0.3345 -0.0597  1.3509
 6303SOL     OW19807   4.532   5.200   4.687 -0.2838 -0.9011 -0.4612
 6303SOL    HW119808   4.615   5.254   4.671 -1.4590  1.0868 -0.1008
 6303SOL    HW219809   4.518   5.138   4.609  2.5059 -2.6951  0.2983
 6304SOL     OW19810   2.639   0.238   0.270 -0.6959 -0.2193 -0.9367
 6304SOL    HW119811   2.728   0.193   0.280 -0.7711 -0.3715 -0.9544
 6304SOL    HW219812   2.639   0.294   0.188 -0.3514  0.3965 -0.5286
 6305SOL     OW19813   5.166   5.724   1.021 -0.9741 -0.0770  0.6823
 6305SOL    HW119814   5.153   5.801   0.959 -2.2421 -0.3320  0.6145
 6305SOL    HW219815   5.113   5.739   1.105 -0.3244 -0.3487  1.1539
 6306SOL     OW19816   3.957   0.978   0.269 -0.4499 -0.0811 -0.3994
 6306SOL    HW119817   3.980   0.921   0.190 -1.5498 -0.5641 -0.3772
 6306SOL    HW219818   3.867   0.954   0.304 -0.8494  1.5012 -0.2417
 6307SOL     OW19819   3.409   2.776   5.428  0.2194  0.2913 -0.0937
 6307SOL    HW119820   3.473   2.730   5.366  1.0037 -1.3527  1.8322
 6307SOL    HW219821   3.333   2.714   5.449 -0.1210  0.8901  0.4699
 6308SOL     OW19822   4.964   6.634   6.139 -0.0449 -0.0403 -0.2756
 6308SOL    HW119823   5.050   6.601   6.177  0.3703  0.1219 -1.0386
 6308SOL    HW219824   4.967   6.625   6.039 -0.7762  0.2940 -0.3327
 6309SOL     OW19825   5.214   2.010   0.637  0.2479 -0.1700 -0.2538
 6309SOL    HW119826   5.289   2.059   0.592  0.1833 -0.6184 -0.8759
 6309SOL    HW219827   5.139   1.999   0.572 -0.5974  0.7895  0.5499
 6310SOL     OW19828   0.918   2.163   1.531 -0.3583 -0.2368  0.0722
 6310SOL    HW119829   0.952   2.076   1.565  0.0796 -0.6797 -1.4142
 6310SOL    HW219830   0.994   2.218   1.497 -0.3436  1.6304  2.7712
 6311SOL     OW19831   5.066   3.830   6.847 -0.1607  0.0499  0.3729
 6311SOL    HW119832   5.125   3.795   6.774 -1.2962 -0.2422 -0.4465
 6311SOL    HW219833   5.121   3.871   6.919  1.0411 -0.5040 -0.2109
 6312SOL     OW19834   4.547   1.222   5.621 -0.5929  0.0103 -1.2341
 6312SOL    HW119835   4.509   1.315   5.619 -0.4123  0.0779 -1.5814
 6312SOL    HW219836   4.633   1.223   5.671 -2.1710 -0.5768  1.7035
 6313SOL     OW19837   4.275   4.443   0.598 -0.0042  0.1674 -0.3064
 6313SOL    HW119838   4.224   4.457   0.512  0.7680 -0.1328 -0.8259
 6313SOL    HW219839   4.223   4.381   0.656  0.2112 -0.9398 -1.2525
 6314SOL     OW19840   1.847   2.285   4.202  0.4789  0.2710 -0.1355
 6314SOL    HW119841   1.896   2.275   4.289 -0.1754  0.4527  0.2609
 6314SOL    HW219842   1.802   2.374   4.199 -0.3380 -0.1345 -0.2229
 6315SOL     OW19843   5.923   5.989   6.016 -0.4269  0.0419  0.4925
 6315SOL    HW119844   5.891   5.895   6.030 -0.4006  0.1921  1.6645
 6315SOL    HW219845   5.846   6.046   5.985 -0.2759 -0.5013 -0.9916
 6316SOL     OW19846   0.055   5.944   4.204  0.0043  0.2190  0.5334
 6316SOL    HW119847   0.075   6.027   4.256 -1.1008  0.6805  0.2431
 6316SOL    HW219848  -0.023   5.960   4.145 -1.4715 -1.5891  1.8813
 6317SOL     OW19849   0.705   3.866   5.426  0.7805  0.6272  0.1927
 6317SOL    HW119850   0.731   3.900   5.336  0.8463  1.7884  0.6425
 6317SOL    HW219851   0.629   3.801   5.416  1.5756 -0.1878 -0.7988
 6318SOL     OW19852   1.062   6.994   6.306  0.1434  0.5266 -0.8176
 6318SOL    HW119853   0.966   6.996   6.279  0.9538  2.1831 -4.0521
 6318SOL    HW219854   1.120   7.012   6.227  3.1876 -0.4121  1.0071
 6319SOL     OW19855   5.555   0.743   4.107 -0.3736 -0.2251 -0.1979
 6319SOL    HW119856   5.580   0.813   4.040 -1.1585 -0.3299 -0.6013
 6319SOL    HW219857   5.456   0.741   4.119 -0.1784  0.8201  2.0773
 6320SOL     OW19858   0.461   4.425   6.378 -0.1296 -0.3366 -0.1057
 6320SOL    HW119859   0.432   4.381   6.293 -0.4176  0.1583 -0.2726
 6320SOL    HW219860   0.383   4.472   6.419  0.1415 -0.0817  0.1253
 6321SOL     OW19861   4.826   5.985   4.112  0.3156 -0.2615 -0.0339
 6321SOL    HW119862   4.813   6.073   4.156 -0.1841  0.7670 -2.1342
 6321SOL    HW219863   4.806   5.912   4.177  0.7302  1.1470  1.7386
 6322SOL     OW19864   3.133   3.230   2.261  0.2620 -0.3140  0.2286
 6322SOL    HW119865   3.058   3.226   2.326 -1.8256 -1.5022 -2.0753
 6322SOL    HW219866   3.194   3.306   2.284 -0.7170 -0.2874  3.0943
 6323SOL     OW19867   2.182   0.061   7.011 -0.1206  0.2157  0.0981
 6323SOL    HW119868   2.219   0.139   7.061  2.5373 -0.4240 -0.7060
 6323SOL    HW219869   2.167   0.085   6.915 -2.5681  0.6470  0.5301
 6324SOL     OW19870   6.131   1.690   0.024 -0.3586 -0.3239 -0.3130
 6324SOL    HW119871   6.164   1.781   0.002  0.7086 -0.6261 -0.0346
 6324SOL    HW219872   6.180   1.655   0.104  0.3224 -1.7146 -1.2958
 6325SOL     OW19873   2.068   0.987   0.399 -0.4343 -0.2842 -0.1459
 6325SOL    HW119874   2.020   0.933   0.469 -0.2867 -0.9467 -0.5548
 6325SOL    HW219875   2.133   0.929   0.350  1.3446  0.7568  0.8797
 6326SOL     OW19876   6.172   0.199   4.290  0.3311  0.0125  0.0215
 6326SOL    HW119877   6.073   0.215   4.285  0.5262  1.8853  1.3725
 6326SOL    HW219878   6.191   0.126   4.356 -0.0807  0.7212  0.9417
 6327SOL     OW19879   1.454   6.132   6.889 -0.4996 -0.7223  0.9088
 6327SOL    HW119880   1.529   6.070   6.870  1.2236  1.3470  0.5320
 6327SOL    HW219881   1.370   6.098   6.846  0.6765 -2.0696 -0.4136
 6328SOL     OW19882   4.178   0.680   5.372  0.0107 -0.2689 -0.1756
 6328SOL    HW119883   4.102   0.618   5.392 -0.6453  1.0609  1.7427
 6328SOL    HW219884   4.260   0.650   5.421 -0.0098 -0.2195 -0.1110
 6329SOL     OW19885   6.588   5.736   1.740  0.1584  0.5948 -0.1781
 6329SOL    HW119886   6.604   5.722   1.838 -1.4969 -0.4867 -0.0203
 6329SOL    HW219887   6.509   5.796   1.728  0.3476  0.7136 -0.8641
 6330SOL     OW19888   1.749   3.254   5.594  0.5070  0.3587 -0.1621
 6330SOL    HW119889   1.772   3.200   5.513  1.1022  0.8286 -0.3137
 6330SOL    HW219890   1.677   3.320   5.571 -0.3957 -0.5257  0.0874
 6331SOL     OW19891   2.129   2.346   2.604 -0.1190  0.6150  0.1965
 6331SOL    HW119892   2.112   2.435   2.645 -1.2392  0.8183 -0.6690
 6331SOL    HW219893   2.218   2.312   2.634  0.4807  2.1725  0.2828
 6332SOL     OW19894   5.593   2.883   5.248 -0.4200 -0.1829  0.2330
 6332SOL    HW119895   5.576   2.823   5.326  0.6706 -1.8249 -0.7394
 6332SOL    HW219896   5.655   2.838   5.184  0.3540  1.9516 -0.6070
 6333SOL     OW19897   3.018   5.484   4.679  0.0339 -0.6349 -0.2052
 6333SOL    HW119898   2.943   5.427   4.710 -0.7806 -0.3042 -1.4937
 6333SOL    HW219899   3.008   5.576   4.716 -1.2289 -0.0949 -1.7555
 6334SOL     OW19900   4.730   0.734   3.024 -0.6175 -0.4176 -0.2832
 6334SOL    HW119901   4.672   0.774   3.095 -0.5558  0.8535 -0.9211
 6334SOL    HW219902   4.815   0.786   3.017 -1.2318  0.4316 -2.2560
 6335SOL     OW19903   0.442   2.587   2.939  0.4913 -1.0889 -0.2133
 6335SOL    HW119904   0.401   2.642   2.866 -2.4182 -2.3118  0.3450
 6335SOL    HW219905   0.502   2.644   2.994 -1.1941  1.1677 -0.5685
 6336SOL     OW19906   1.542   0.762   5.192 -0.3384  0.1772 -0.3465
 6336SOL    HW119907   1.464   0.800   5.143  0.0775 -1.1081 -2.1023
 6336SOL    HW219908   1.571   0.826   5.263 -1.4588  1.7714 -1.2587
 6337SOL     OW19909   2.512   2.823   0.058 -0.0865  0.3644 -0.4236
 6337SOL    HW119910   2.415   2.848   0.051  0.2435  1.9585  0.2458
 6337SOL    HW219911   2.568   2.899   0.027  0.9849 -0.1598  0.1802
 6338SOL     OW19912   6.826   5.620   0.985  0.1495  0.1980 -0.4180
 6338SOL    HW119913   6.739   5.668   0.994 -0.1515 -0.6380  1.5251
 6338SOL    HW219914   6.810   5.521   0.986  1.1983  0.0055  1.3500
 6339SOL     OW19915   3.160   5.241   6.573  0.0443 -0.3186 -0.1154
 6339SOL    HW119916   3.184   5.162   6.517  2.6528  1.2348 -1.3630
 6339SOL    HW219917   3.067   5.270   6.552 -1.5477 -3.7619  1.3787
 6340SOL     OW19918   4.811   3.087   4.741  0.1582  0.5408  0.4719
 6340SOL    HW119919   4.867   3.104   4.822 -1.8028 -2.3933  2.6485
 6340SOL    HW219920   4.728   3.143   4.746  0.8221  1.6487 -0.4827
 6341SOL     OW19921   5.131   6.138   5.570 -0.0089  0.3144 -0.5666
 6341SOL    HW119922   5.113   6.044   5.600 -2.6873  1.4785  2.0365
 6341SOL    HW219923   5.225   6.163   5.593  0.4497 -1.4168 -0.4360
 6342SOL     OW19924   2.202   0.831   6.788  0.1954 -0.1948 -0.3422
 6342SOL    HW119925   2.253   0.787   6.714 -0.6049  0.2950 -1.2084
 6342SOL    HW219926   2.212   0.777   6.872  1.2112 -0.6972 -0.7669
 6343SOL     OW19927   5.897   2.734   0.797  0.0223 -0.0977 -0.6174
 6343SOL    HW119928   5.861   2.679   0.873 -0.3339  1.2504  0.2340
 6343SOL    HW219929   5.917   2.675   0.719 -0.4293 -1.4039  0.2255
 6344SOL     OW19930   0.740   3.127   4.230  0.3105 -0.3272  0.6373
 6344SOL    HW119931   0.686   3.186   4.291  0.0642  0.2990 -0.1753
 6344SOL    HW219932   0.784   3.183   4.159 -0.4398 -1.1868 -0.5314
 6345SOL     OW19933   6.708   6.369   4.450  0.1694 -0.5056 -0.0539
 6345SOL    HW119934   6.758   6.356   4.535  1.8113 -1.3934 -1.0976
 6345SOL    HW219935   6.625   6.313   4.451 -0.2555  0.1103  1.2535
 6346SOL     OW19936   5.443   4.895   0.125  0.4819 -0.3483  0.3543
 6346SOL    HW119937   5.390   4.979   0.133 -0.0709 -0.7741  1.3692
 6346SOL    HW219938   5.501   4.884   0.206  0.2358 -1.1508  0.4301
 6347SOL     OW19939   2.169   5.726   4.937 -0.7159  0.0906 -0.9361
 6347SOL    HW119940   2.211   5.799   4.882  0.6321  0.8453  0.9661
 6347SOL    HW219941   2.173   5.751   5.034  0.3779 -2.7558 -0.1277
 6348SOL     OW19942   2.737   4.963   0.078 -0.1475  0.1787  0.6218
 6348SOL    HW119943   2.686   5.026   0.137 -2.2472  0.2746 -1.1627
 6348SOL    HW219944   2.766   5.011  -0.005  0.2144 -0.6447  0.2627
 6349SOL     OW19945   3.411   0.245   2.418  0.3825  0.5686 -0.1909
 6349SOL    HW119946   3.462   0.279   2.497 -1.9276  2.0153  0.7603
 6349SOL    HW219947   3.384   0.150   2.434  1.4406  0.2702 -0.0693
 6350SOL     OW19948   2.330   2.266   2.971 -0.1789 -0.2365  0.3941
 6350SOL    HW119949   2.304   2.172   2.994 -0.4316 -0.4568 -0.7269
 6350SOL    HW219950   2.302   2.327   3.045 -1.1507 -0.8755  0.5725
 6351SOL     OW19951   2.671   2.158   5.387 -0.3616  0.5315  0.4574
 6351SOL    HW119952   2.728   2.076   5.387 -1.8598 -0.5556  1.5958
 6351SOL    HW219953   2.692   2.212   5.306  0.9103 -0.7940 -0.1507
 6352SOL     OW19954   5.389   1.313   6.820 -0.4384  0.1548 -0.3447
 6352SOL    HW119955   5.329   1.343   6.745  1.7280  0.8669 -1.9075
 6352SOL    HW219956   5.478   1.287   6.782  0.1399 -1.2417  1.8363
 6353SOL     OW19957   2.896   4.802   2.127  0.6420 -0.4746  0.2319
 6353SOL    HW119958   2.988   4.834   2.108  1.3025 -2.5061 -0.1318
 6353SOL    HW219959   2.870   4.732   2.062 -1.9547  1.3717 -0.9086
 6354SOL     OW19960   2.303   4.879   5.863  0.1273  0.1152 -0.5034
 6354SOL    HW119961   2.259   4.868   5.774 -0.2765 -0.7450 -0.2103
 6354SOL    HW219962   2.342   4.970   5.870 -1.4297  0.8347 -0.8534
 6355SOL     OW19963   3.423   4.193   6.861  0.1335  0.9023  0.3808
 6355SOL    HW119964   3.514   4.212   6.899  0.6660  1.1396 -0.9447
 6355SOL    HW219965   3.433   4.155   6.769 -1.1159  1.4137  0.0104
 6356SOL     OW19966   6.674   1.292   0.235 -0.1121 -0.3418  0.2685
 6356SOL    HW119967   6.705   1.231   0.308 -0.6414 -1.9846 -0.8414
 6356SOL    HW219968   6.692   1.387   0.262  2.2872 -1.0131  1.3294
 6357SOL     OW19969   5.708   0.333   0.832  0.1458  0.1883 -0.2433
 6357SOL    HW119970   5.625   0.293   0.794 -0.1294  2.4509 -2.2818
 6357SOL    HW219971   5.683   0.401   0.902  0.2068  1.0310 -1.0142
 6358SOL     OW19972   2.873   1.472   6.397  0.3683  0.1997 -0.3956
 6358SOL    HW119973   2.855   1.374   6.397  0.9421 -0.1219  4.0430
 6358SOL    HW219974   2.958   1.491   6.348  0.6353 -1.5957 -0.6807
 6359SOL     OW19975   3.448   2.214   1.519 -0.5642 -0.2850  0.0003
 6359SOL    HW119976   3.459   2.115   1.531 -0.5428 -0.6403 -2.4085
 6359SOL    HW219977   3.496   2.243   1.436  0.3982  1.9858  1.2679
 6360SOL     OW19978   1.515   0.683   2.652  0.3692 -0.0772  0.5029
 6360SOL    HW119979   1.458   0.603   2.670  2.1700 -1.1371  1.8450
 6360SOL    HW219980   1.459   0.766   2.656 -1.5722 -1.2405 -1.0822
 6361SOL     OW19981   6.254   0.044   4.860 -0.1031  0.5786  0.4212
 6361SOL    HW119982   6.324   0.073   4.795 -0.6904  0.2570 -0.3730
 6361SOL    HW219983   6.297   0.006   4.942  0.6387  0.6165  0.0526
 6362SOL     OW19984   5.733   0.190   6.027 -0.3083 -0.3814  0.3522
 6362SOL    HW119985   5.677   0.272   6.015 -0.4295 -0.3837  0.9047
 6362SOL    HW219986   5.767   0.186   6.121  0.3434 -0.5576  0.1148
 6363SOL     OW19987   0.358   2.430   3.745 -0.4783 -0.2307  0.2157
 6363SOL    HW119988   0.324   2.519   3.715 -3.4126 -1.6620 -1.0673
 6363SOL    HW219989   0.415   2.390   3.673 -1.9174 -0.7723 -0.6512
 6364SOL     OW19990   0.849   1.791   1.393  0.3756  0.1616 -0.6868
 6364SOL    HW119991   0.941   1.783   1.431  0.0222  0.0326  0.1647
 6364SOL    HW219992   0.846   1.867   1.328  1.2114 -0.1711 -1.1143
 6365SOL     OW19993   1.257   1.400   1.336 -0.3240 -0.6874 -0.6677
 6365SOL    HW119994   1.236   1.476   1.397  0.8438 -0.3324 -0.6812
 6365SOL    HW219995   1.188   1.329   1.346 -0.0426 -0.7418  1.2408
 6366SOL     OW19996   6.311   4.950   5.467 -0.0892 -0.1577 -0.5802
 6366SOL    HW119997   6.385   4.996   5.516 -0.1142 -0.8480  0.1239
 6366SOL    HW219998   6.231   5.009   5.465  1.0993  1.5670 -3.2865
 6367SOL     OW19999   4.041   5.756   4.916  0.3230 -0.1175  0.1701
 6367SOL    HW120000   4.112   5.700   4.873 -0.8404 -1.0969 -0.5357
 6367SOL    HW220001   4.020   5.718   5.006  0.5642  0.0732  0.3091
 6368SOL     OW20002   2.208   2.367   1.075  0.3736  0.6386  0.2755
 6368SOL    HW120003   2.225   2.379   0.977  0.0634  2.1360  0.3769
 6368SOL    HW220004   2.150   2.442   1.108 -2.9112 -1.9209  0.8255
 6369SOL     OW20005   3.591   5.895   3.542  0.0632 -0.3602 -0.5047
 6369SOL    HW120006   3.530   5.815   3.534  0.1771 -0.3050 -2.4767
 6369SOL    HW220007   3.608   5.914   3.639 -0.7122 -2.1503  0.0394
 6370SOL     OW20008   6.784   3.914   2.962 -0.1902  0.3402  0.4144
 6370SOL    HW120009   6.698   3.965   2.957  0.3320  1.2644  0.7073
 6370SOL    HW220010   6.841   3.951   3.036 -0.2285 -1.3463  1.3405
 6371SOL     OW20011   4.750   0.131   2.014  0.2596 -0.2004 -0.0750
 6371SOL    HW120012   4.850   0.132   2.014  0.2565  0.3513 -0.1326
 6371SOL    HW220013   4.716   0.207   2.070 -0.1312  1.8784 -2.8669
 6372SOL     OW20014   6.020   2.914   6.110 -0.3546  0.0260 -0.2784
 6372SOL    HW120015   6.083   2.991   6.111  1.0532 -1.0381  2.2212
 6372SOL    HW220016   5.926   2.947   6.116  0.1090  1.5594 -1.0200
 6373SOL     OW20017   5.828   0.826   6.265  0.6600  0.6482 -0.0368
 6373SOL    HW120018   5.876   0.861   6.185 -1.6808 -0.0942 -1.8978
 6373SOL    HW220019   5.894   0.790   6.332  2.6562  0.2541 -2.1068
 6374SOL     OW20020   5.038   1.637   4.600  0.0259 -1.2459  0.4084
 6374SOL    HW120021   4.971   1.563   4.594  0.5431 -1.7418  0.6405
 6374SOL    HW220022   5.025   1.700   4.524  0.2483 -2.1378 -0.3795
 6375SOL     OW20023   0.276   3.719   2.032  0.7166 -0.5007  0.5150
 6375SOL    HW120024   0.223   3.788   1.983  2.2850  1.4951  1.4518
 6375SOL    HW220025   0.346   3.682   1.972  3.5359  2.9276  1.3357
 6376SOL     OW20026   3.520   2.497   1.671  0.3324 -0.1139 -0.3054
 6376SOL    HW120027   3.422   2.479   1.678  0.1488  0.8649 -0.1308
 6376SOL    HW220028   3.567   2.458   1.750  0.0966 -0.6830 -0.4461
 6377SOL     OW20029   0.222   3.041   1.609 -0.6620  0.0366 -0.4000
 6377SOL    HW120030   0.192   2.977   1.539  1.0264 -0.9656 -0.2568
 6377SOL    HW220031   0.229   3.133   1.569  3.3173 -0.9982 -2.5843
 6378SOL     OW20032   1.877   4.824   0.123  0.0631  0.5342  0.1542
 6378SOL    HW120033   1.844   4.832   0.029  1.9612  1.2689 -0.4997
 6378SOL    HW220034   1.837   4.742   0.165 -0.9078  0.2499 -1.2284
 6379SOL     OW20035   4.825   4.763   0.452 -0.3738  0.2917 -0.5350
 6379SOL    HW120036   4.816   4.703   0.531  0.3183  0.5892 -0.2231
 6379SOL    HW220037   4.920   4.764   0.421 -0.6434  0.1600 -1.3879
 6380SOL     OW20038   2.671   0.988   6.017 -0.0820  0.1796  0.1974
 6380SOL    HW120039   2.754   1.041   6.033 -0.1983  0.7233 -0.9553
 6380SOL    HW220040   2.644   0.995   5.921 -1.1265 -0.4865  0.4237
 6381SOL     OW20041   1.709   2.603   6.617 -0.0543 -0.1973 -0.2660
 6381SOL    HW120042   1.773   2.672   6.651  0.0054  0.1334 -1.0335
 6381SOL    HW220043   1.664   2.637   6.534  0.2468 -1.2292 -0.8699
 6382SOL     OW20044   4.361   3.159   1.131  0.4631  0.4937 -0.3037
 6382SOL    HW120045   4.312   3.162   1.218  0.0336  0.6492 -0.5523
 6382SOL    HW220046   4.300   3.127   1.059  0.4526  1.5717 -0.7956
 6383SOL     OW20047   1.558   5.353   5.139 -0.8638 -0.3472  0.1657
 6383SOL    HW120048   1.643   5.387   5.098 -0.7245  0.0533  0.7825
 6383SOL    HW220049   1.493   5.428   5.147 -1.6255 -0.8343 -1.1412
 6384SOL     OW20050   0.550   5.314   3.777 -0.1059 -0.3867 -0.1161
 6384SOL    HW120051   0.574   5.270   3.691  0.2938  0.1198 -0.2743
 6384SOL    HW220052   0.464   5.363   3.767 -0.4117 -0.9029 -0.0198
 6385SOL     OW20053   5.716   1.909   0.967  0.3444  0.4331  0.4079
 6385SOL    HW120054   5.715   1.991   0.909 -0.9099 -0.3043 -0.6532
 6385SOL    HW220055   5.754   1.832   0.916 -0.5239 -0.1613  0.6268
 6386SOL     OW20056   0.555   1.828   2.725  0.2784 -0.2293 -0.2554
 6386SOL    HW120057   0.574   1.847   2.629  0.0981  0.1803 -0.2090
 6386SOL    HW220058   0.641   1.810   2.774  0.2547 -2.4176 -0.9055
 6387SOL     OW20059   0.441   4.861   4.510  0.2204 -0.4233 -0.4403
 6387SOL    HW120060   0.507   4.910   4.568  0.4606 -1.4832  0.2181
 6387SOL    HW220061   0.490   4.817   4.435  0.3143 -1.3630  0.1526
 6388SOL     OW20062   1.379   1.602   5.855 -0.0785 -0.3582  0.1944
 6388SOL    HW120063   1.377   1.640   5.763 -0.5395  1.2500  0.8315
 6388SOL    HW220064   1.458   1.637   5.905  0.7512 -2.0237  0.1207
 6389SOL     OW20065   4.220   5.322   6.172 -0.2256 -0.2298  0.3206
 6389SOL    HW120066   4.213   5.268   6.088 -1.0428  1.2541 -0.6233
 6389SOL    HW220067   4.128   5.347   6.202  0.1418  1.3434  0.2231
 6390SOL     OW20068   0.288   0.743   6.125  0.1666 -0.1468  0.9190
 6390SOL    HW120069   0.202   0.740   6.176 -0.2109  1.8992  0.4852
 6390SOL    HW220070   0.340   0.823   6.152  0.9954 -0.2499 -0.2780
 6391SOL     OW20071   0.998   0.279   5.618 -0.2818 -0.2425  0.5071
 6391SOL    HW120072   0.899   0.270   5.603 -0.3963  0.8345  0.5420
 6391SOL    HW220073   1.021   0.376   5.628  1.0561 -0.2924 -1.5062
 6392SOL     OW20074   4.961   0.021   3.181  0.2173  0.0502 -0.4864
 6392SOL    HW120075   4.891   0.038   3.250 -0.0645  0.1350 -0.7913
 6392SOL    HW220076   4.943  -0.066   3.136 -0.0517  0.3601 -0.9923
 6393SOL     OW20077   6.663   5.054   3.342  0.1495 -0.2981  0.0509
 6393SOL    HW120078   6.716   5.070   3.259  0.5305 -0.9474  0.1615
 6393SOL    HW220079   6.669   5.135   3.401 -1.7071  0.9633 -1.3724
 6394SOL     OW20080   2.775   6.855   0.958  0.0941 -0.0698 -0.4178
 6394SOL    HW120081   2.708   6.901   1.016 -1.0327 -1.3183 -0.6629
 6394SOL    HW220082   2.782   6.759   0.985 -0.5466 -0.7246 -2.3903
 6395SOL     OW20083   1.639   6.280   2.770  0.2408 -0.3917  0.7453
 6395SOL    HW120084   1.572   6.288   2.696  0.9311 -0.6673  0.0697
 6395SOL    HW220085   1.671   6.186   2.775  1.4846 -0.0167  0.2193
 6396SOL     OW20086   5.896   4.759   0.376  0.0712  0.2318  0.5757
 6396SOL    HW120087   5.962   4.759   0.451  0.1886 -0.4552  0.4756
 6396SOL    HW220088   5.912   4.839   0.318 -0.2072  0.9291  1.4357
 6397SOL     OW20089   2.020   4.141   0.361 -0.1166 -0.0263  0.3061
 6397SOL    HW120090   2.102   4.149   0.304 -0.4010 -0.5077 -0.1803
 6397SOL    HW220091   1.997   4.044   0.372 -0.9938  0.1242 -0.1057
 6398SOL     OW20092   3.503   4.219   6.050  0.0497 -0.1024  0.3426
 6398SOL    HW120093   3.560   4.263   6.118  0.8137 -2.7973  1.5828
 6398SOL    HW220094   3.455   4.289   5.996  2.6662  2.1920  0.7831
 6399SOL     OW20095   4.489   4.343   6.180 -0.7022  0.2408 -0.3726
 6399SOL    HW120096   4.574   4.391   6.158  0.5643 -0.8607  1.7898
 6399SOL    HW220097   4.440   4.322   6.095  1.9987 -0.5585 -1.8659
 6400SOL     OW20098   6.074   2.418   2.706 -0.4165 -0.5281 -0.1114
 6400SOL    HW120099   5.993   2.398   2.651  0.3405  0.4603 -1.6680
 6400SOL    HW220100   6.130   2.335   2.715  0.0756 -0.4452 -1.9823
 6401SOL     OW20101   2.247   2.360   4.224  0.2284 -0.3968 -0.1202
 6401SOL    HW120102   2.292   2.346   4.312 -0.2222  0.5105  0.2679
 6401SOL    HW220103   2.270   2.284   4.162  5.6178  1.8109 -1.3701
 6402SOL     OW20104   0.415   2.452   1.376  0.3993  0.1643 -0.4692
 6402SOL    HW120105   0.504   2.438   1.419 -0.1656  1.0410  1.0567
 6402SOL    HW220106   0.383   2.546   1.393  0.3988  0.8134 -3.3666
 6403SOL     OW20107   6.739   4.139   6.620  0.3770 -0.1694  0.4649
 6403SOL    HW120108   6.785   4.064   6.574 -0.4036 -0.9622  0.9466
 6403SOL    HW220109   6.688   4.104   6.698  0.2039  0.9005  0.8484
 6404SOL     OW20110   1.321   5.000   2.867  0.5014  0.0556  0.0271
 6404SOL    HW120111   1.242   4.997   2.806  0.0335 -0.5255  0.6456
 6404SOL    HW220112   1.405   5.008   2.813 -0.0804  4.0460 -0.5925
 6405SOL     OW20113   3.104   5.389   1.514  0.1417  0.0512  0.0584
 6405SOL    HW120114   3.027   5.425   1.463 -0.1781  0.5130  0.8536
 6405SOL    HW220115   3.116   5.441   1.599  1.3415  0.0116 -0.0623
 6406SOL     OW20116   4.678   3.015   1.424 -0.4597 -0.5546  0.7400
 6406SOL    HW120117   4.653   3.047   1.333  3.2835 -2.7508 -1.3346
 6406SOL    HW220118   4.616   2.942   1.452 -2.0866  0.6233  0.3339
 6407SOL     OW20119   0.447   2.217   3.550  0.1646  0.1630  0.4535
 6407SOL    HW120120   0.352   2.186   3.555  0.7145 -1.7514 -0.0131
 6407SOL    HW220121   0.466   2.255   3.460 -0.2015  0.6857  0.5985
 6408SOL     OW20122   2.052   5.284   6.098  0.3299 -0.2762  0.0138
 6408SOL    HW120123   1.967   5.235   6.077  1.6005 -2.5168 -0.2286
 6408SOL    HW220124   2.129   5.222   6.089  1.7860  0.8852  2.9756
 6409SOL     OW20125   2.138   5.904   1.581  0.4777 -0.1448  0.1181
 6409SOL    HW120126   2.221   5.946   1.619 -0.0832  1.1275 -0.0174
 6409SOL    HW220127   2.115   5.823   1.635  2.9039 -1.7314 -1.0501
 6410SOL     OW20128   2.934   0.969   0.651 -0.2639 -0.2519 -0.0282
 6410SOL    HW120129   2.981   1.037   0.707 -1.5131 -0.4593  1.3507
 6410SOL    HW220130   2.850   1.009   0.613 -0.9931 -0.9721  0.7728
 6411SOL     OW20131   1.421   6.756   2.841 -0.0207 -0.7328  0.1016
 6411SOL    HW120132   1.490   6.816   2.800 -0.3798 -0.2885  0.1440
 6411SOL    HW220133   1.334   6.767   2.792 -0.8101  0.7310  1.7129
 6412SOL     OW20134   5.707   1.340   0.849  0.0503  0.7020  0.2043
 6412SOL    HW120135   5.768   1.263   0.827 -1.7840 -0.4301 -1.2124
 6412SOL    HW220136   5.658   1.367   0.766  0.2324  3.0754  0.8137
 6413SOL     OW20137   5.366   6.331   3.333  0.2148  0.3439 -0.2469
 6413SOL    HW120138   5.329   6.301   3.420 -0.5645 -0.2717 -0.7763
 6413SOL    HW220139   5.465   6.319   3.332 -0.1257 -3.7761 -0.9537
 6414SOL     OW20140   2.366   0.582   2.410 -0.0036 -0.3767  0.0335
 6414SOL    HW120141   2.426   0.587   2.330  2.1226 -0.4571  1.5258
 6414SOL    HW220142   2.304   0.660   2.411  0.7101  0.2218 -1.1083
 6415SOL     OW20143   2.946   2.082   4.696  0.2212  0.2644  0.0748
 6415SOL    HW120144   3.041   2.059   4.678  0.0705 -2.3779  2.0744
 6415SOL    HW220145   2.888   2.041   4.625  0.3980 -0.3796  0.3006
 6416SOL     OW20146   1.815   3.792   0.953  0.2931 -0.4112  0.5094
 6416SOL    HW120147   1.736   3.786   1.014  1.7166  0.1182  2.4996
 6416SOL    HW220148   1.887   3.846   0.997  1.8329 -0.9836 -1.1834
 6417SOL     OW20149   6.250   0.156   3.338  0.4432 -0.1109 -0.1051
 6417SOL    HW120150   6.299   0.225   3.285  0.2804  0.2657  0.2370
 6417SOL    HW220151   6.257   0.176   3.435 -1.0074  0.3711 -0.0795
 6418SOL     OW20152   1.807   4.882   4.495 -0.7195  0.2277  0.3886
 6418SOL    HW120153   1.841   4.873   4.401 -1.0363 -0.1609  0.3072
 6418SOL    HW220154   1.779   4.792   4.529 -0.5858  0.3609  0.8659
 6419SOL     OW20155   3.161   6.996   0.985 -0.2894  0.4301 -0.3095
 6419SOL    HW120156   3.243   6.965   0.937  0.3665 -0.0483  1.0703
 6419SOL    HW220157   3.084   7.002   0.920  0.6148  0.0519 -1.4432
 6420SOL     OW20158   1.889   1.408   2.266 -0.0264  0.3341 -0.2689
 6420SOL    HW120159   1.889   1.506   2.247 -1.3525  0.3885 -0.0428
 6420SOL    HW220160   1.801   1.381   2.304  0.5657 -0.8298  0.3316
 6421SOL     OW20161   3.246   0.201   4.863 -0.4245 -0.3061  0.2519
 6421SOL    HW120162   3.219   0.239   4.951 -1.7978 -0.4541 -0.0669
 6421SOL    HW220163   3.288   0.272   4.807 -1.0951  0.2306  0.4138
 6422SOL     OW20164   0.022   0.798   0.627  0.1952 -0.5085 -0.7689
 6422SOL    HW120165   0.091   0.784   0.698 -0.4787  1.3201  0.3305
 6422SOL    HW220166   0.062   0.781   0.537  1.9958  0.1404 -0.1374
 6423SOL     OW20167   7.010   5.494   2.738  0.0754  0.0349 -0.3003
 6423SOL    HW120168   6.987   5.537   2.825  0.7521 -1.4346  0.6561
 6423SOL    HW220169   7.109   5.481   2.732 -0.1234 -1.9273 -0.2180
 6424SOL     OW20170   5.221   2.563   6.985 -0.7622 -0.9949 -0.1359
 6424SOL    HW120171   5.257   2.626   7.054  0.6587 -0.9422 -0.8904
 6424SOL    HW220172   5.294   2.538   6.922 -1.8501 -1.6613 -1.1624
 6425SOL     OW20173   6.283   6.810   4.373 -0.1454  0.1115 -0.3414
 6425SOL    HW120174   6.379   6.794   4.348 -0.3639  0.4064 -1.4209
 6425SOL    HW220175   6.277   6.825   4.471  0.8069 -0.7330 -0.1288
 6426SOL     OW20176   6.183   2.934   0.925  0.0173  0.0462  0.2088
 6426SOL    HW120177   6.213   2.850   0.880 -0.6616 -0.6672  1.0370
 6426SOL    HW220178   6.089   2.922   0.958 -0.4116  1.4492 -0.4437
 6427SOL     OW20179   3.881   2.063   5.210  0.1348 -0.3458 -0.0243
 6427SOL    HW120180   3.901   2.119   5.129  0.9714  2.4005  1.9700
 6427SOL    HW220181   3.801   2.100   5.257 -0.2793 -1.8529  0.5100
 6428SOL     OW20182   2.720   1.785   3.174 -0.5955  0.1532  0.1459
 6428SOL    HW120183   2.637   1.762   3.124 -0.4378  1.8405 -0.9953
 6428SOL    HW220184   2.793   1.806   3.109  0.4632 -0.4344  1.1292
 6429SOL     OW20185   2.517   2.673   0.886  0.0486  0.1295  0.3588
 6429SOL    HW120186   2.476   2.676   0.795 -1.5787  0.7300  1.0914
 6429SOL    HW220187   2.516   2.579   0.920 -2.5332  0.3868  1.1398
 6430SOL     OW20188   2.622   3.418   5.580 -0.6968 -0.3542  0.1900
 6430SOL    HW120189   2.642   3.385   5.488  1.5483 -0.6943  0.7427
 6430SOL    HW220190   2.620   3.341   5.644  0.6421  0.1139  0.8521
 6431SOL     OW20191   7.017   5.423   0.497  0.1392  0.2272  0.0815
 6431SOL    HW120192   6.946   5.484   0.463  1.9262  0.7643 -2.9825
 6431SOL    HW220193   7.092   5.477   0.534  0.8012 -0.1572 -0.6782
 6432SOL     OW20194   4.646   1.819   5.618 -0.0958  0.5267  0.5448
 6432SOL    HW120195   4.640   1.747   5.688  0.8307 -0.3377 -0.2312
 6432SOL    HW220196   4.570   1.811   5.555  0.1126  0.0877  0.3442
 6433SOL     OW20197   0.108   3.474   3.017  0.0657  0.2429  0.3171
 6433SOL    HW120198   0.062   3.559   2.992  0.2783  0.3991  0.4554
 6433SOL    HW220199   0.203   3.493   3.038  0.4707 -0.2264 -0.9690
 6434SOL     OW20200   2.939   6.709   2.922  0.0463  0.1191  0.6451
 6434SOL    HW120201   2.986   6.707   2.834  0.9951 -0.0118  1.1453
 6434SOL    HW220202   3.005   6.729   2.995 -0.6855 -0.0058  1.3543
 6435SOL     OW20203   6.040   2.161   0.782 -0.6338  0.2568  0.4608
 6435SOL    HW120204   6.089   2.103   0.718 -0.9788 -1.3873  1.6110
 6435SOL    HW220205   5.977   2.221   0.733 -0.2481 -0.3168 -0.7560
 6436SOL     OW20206   4.945   2.877   5.702  0.3851 -0.1253  0.0662
 6436SOL    HW120207   4.938   2.945   5.630  1.2768  0.1114  0.1978
 6436SOL    HW220208   4.893   2.907   5.782  0.1451  0.0323 -0.1475
 6437SOL     OW20209   2.431   0.272   1.180  0.4179 -0.4169  0.9973
 6437SOL    HW120210   2.509   0.221   1.144  0.6211  0.2870  0.4138
 6437SOL    HW220211   2.446   0.290   1.277  0.8736 -0.4874  0.9443
 6438SOL     OW20212   0.893   3.383   4.469 -0.1334 -0.2572 -0.3356
 6438SOL    HW120213   0.955   3.460   4.485  0.4572 -0.1885 -2.5458
 6438SOL    HW220214   0.938   3.318   4.407 -1.2863 -1.5371  0.1330
 6439SOL     OW20215   4.537   4.827   1.940 -0.2698  0.5425  0.2450
 6439SOL    HW120216   4.505   4.737   1.968 -1.5172  0.5649 -1.0191
 6439SOL    HW220217   4.539   4.888   2.020 -0.9655 -0.1582  0.8134
 6440SOL     OW20218   2.697   0.398   4.754  0.3437  0.0617  0.2133
 6440SOL    HW120219   2.690   0.423   4.657  0.5256 -1.5950 -0.2490
 6440SOL    HW220220   2.617   0.433   4.803 -0.6090 -0.5343 -0.8717
 6441SOL     OW20221   3.286   3.219   3.781 -0.0737 -0.3022 -0.1387
 6441SOL    HW120222   3.299   3.122   3.765  1.5875 -0.3405  1.1111
 6441SOL    HW220223   3.335   3.272   3.712  2.0352 -0.4276  1.1655
 6442SOL     OW20224   1.078   6.544   1.345 -0.1652 -0.1757 -0.2016
 6442SOL    HW120225   1.130   6.463   1.317 -0.2878 -0.3954  0.2009
 6442SOL    HW220226   0.996   6.516   1.393 -0.9610  0.1535 -1.3238
 6443SOL     OW20227   0.765   2.181   3.259  0.3253 -0.1847  0.0357
 6443SOL    HW120228   0.848   2.236   3.266  0.7737 -0.8386 -0.0320
 6443SOL    HW220229   0.685   2.241   3.260  0.7284  0.3656  1.5451
 6444SOL     OW20230   2.155   3.807   0.007  0.0950 -0.1156 -0.2982
 6444SOL    HW120231   2.164   3.907   0.011  0.2705 -0.1857  2.1842
 6444SOL    HW220232   2.245   3.765   0.008 -0.0054 -0.3271  0.7948
 6445SOL     OW20233   5.026   0.296   6.199 -0.2663  0.5519  0.2238
 6445SOL    HW120234   5.011   0.367   6.130  1.6859  1.6593  0.8728
 6445SOL    HW220235   5.063   0.214   6.155  0.5967  1.1147 -0.1185
 6446SOL     OW20236   0.129   6.969   3.817  0.1845 -0.1477 -0.1268
 6446SOL    HW120237   0.038   6.986   3.780 -0.6346 -3.9645 -0.2967
 6446SOL    HW220238   0.193   6.949   3.743  0.8614  1.0490  0.0954
 6447SOL     OW20239   6.759   3.701   1.255 -0.2598 -0.3382 -0.5061
 6447SOL    HW120240   6.739   3.613   1.298 -1.0119  0.3099  0.5332
 6447SOL    HW220241   6.849   3.734   1.285 -0.9581  0.3129  0.9923
 6448SOL     OW20242   3.129   4.047   4.103 -0.3438  0.2434 -0.0320
 6448SOL    HW120243   3.131   3.996   4.189  0.6909  0.0712 -0.1443
 6448SOL    HW220244   3.078   3.995   4.035  2.4874 -1.7818 -0.7944
 6449SOL     OW20245   3.710   4.967   0.823 -0.3222 -0.6379 -0.4649
 6449SOL    HW120246   3.610   4.956   0.819 -0.3900 -0.5478  0.6973
 6449SOL    HW220247   3.754   4.878   0.813 -0.5652 -0.8357  0.1651
 6450SOL     OW20248   6.872   4.398   0.986  0.7975  0.3101 -0.1679
 6450SOL    HW120249   6.829   4.413   1.075 -0.0072 -1.0275 -0.3130
 6450SOL    HW220250   6.857   4.478   0.928  0.1714  0.6429  0.4434
 6451SOL     OW20251   0.147   1.640   1.109  0.0361 -0.4536 -0.3117
 6451SOL    HW120252   0.095   1.663   1.026 -0.6927 -1.8074 -0.2528
 6451SOL    HW220253   0.236   1.603   1.083  0.1551 -0.0742 -0.4584
 6452SOL     OW20254   3.569   1.436   5.886  0.5027  0.3843  0.2275
 6452SOL    HW120255   3.589   1.519   5.938  1.1313 -0.2837  1.0982
 6452SOL    HW220256   3.625   1.361   5.921 -0.4919 -0.5584 -0.1425
 6453SOL     OW20257   1.548   0.278   4.637 -0.1106 -0.1665 -0.1328
 6453SOL    HW120258   1.462   0.295   4.684  1.9852  3.3850  2.9965
 6453SOL    HW220259   1.596   0.203   4.682  0.2904  0.8061  1.1108
 6454SOL     OW20260   2.925   3.530   4.560 -0.1548 -0.5630  0.0820
 6454SOL    HW120261   2.927   3.472   4.478  1.3159 -1.1210  0.4879
 6454SOL    HW220262   2.898   3.475   4.639  0.6455 -0.5701  0.3598
 6455SOL     OW20263   3.726   2.473   5.754  0.7715 -0.3374  0.0696
 6455SOL    HW120264   3.649   2.497   5.696 -0.0655 -2.9328 -0.0423
 6455SOL    HW220265   3.745   2.548   5.817 -0.6662  1.0762 -1.0947
 6456SOL     OW20266   5.216   6.464   6.849  0.1716 -0.5680 -0.9339
 6456SOL    HW120267   5.163   6.545   6.874  0.9527 -0.3919  0.1971
 6456SOL    HW220268   5.183   6.384   6.899  0.8217 -0.5026 -0.3928
 6457SOL     OW20269   0.807   4.484   1.212  0.0226  0.7227 -0.1185
 6457SOL    HW120270   0.754   4.407   1.246 -0.4964  1.0222 -0.2478
 6457SOL    HW220271   0.770   4.569   1.248 -0.1928  1.0076 -0.9824
 6458SOL     OW20272   2.892   3.676   1.696 -0.1513  0.2209 -0.1453
 6458SOL    HW120273   2.796   3.650   1.699 -0.0087 -0.4084 -0.7518
 6458SOL    HW220274   2.941   3.630   1.771 -0.2857  0.3908  0.0479
 6459SOL     OW20275   5.850   0.383   5.427  0.0384  0.1875 -0.4101
 6459SOL    HW120276   5.873   0.299   5.377  0.9929 -0.5721  1.2478
 6459SOL    HW220277   5.920   0.452   5.410 -0.4353  0.4768 -1.2923
 6460SOL     OW20278   4.465   3.809   6.253 -0.2107 -0.1421  0.0673
 6460SOL    HW120279   4.441   3.788   6.348 -0.2073 -0.9578 -0.1109
 6460SOL    HW220280   4.397   3.872   6.215 -1.1394 -1.1086  0.0946
 6461SOL     OW20281   5.572   6.329   0.932  0.6519  0.3433  0.1373
 6461SOL    HW120282   5.652   6.273   0.908  1.1289  0.7847  0.6743
 6461SOL    HW220283   5.553   6.393   0.858 -0.4558 -1.1196 -0.8950
 6462SOL     OW20284   1.605   3.722   4.237  0.0795 -0.4011  0.2619
 6462SOL    HW120285   1.535   3.772   4.287  1.8587  3.0916 -0.4349
 6462SOL    HW220286   1.680   3.699   4.299  0.3336 -0.0292  0.0931
 6463SOL     OW20287   2.600   5.068   1.168  0.5326  0.1524 -0.1479
 6463SOL    HW120288   2.680   5.031   1.122  0.0481  1.5152 -2.2100
 6463SOL    HW220289   2.538   5.108   1.101 -1.9305 -0.8888  1.3861
 6464SOL     OW20290   4.383   3.834   5.457 -0.3277  0.1921 -0.2824
 6464SOL    HW120291   4.462   3.845   5.518 -1.0585  1.9060  0.4169
 6464SOL    HW220292   4.303   3.809   5.511  0.1325 -4.1183 -1.2474
 6465SOL     OW20293   5.177   4.464   0.927  0.6043 -0.2028 -0.3602
 6465SOL    HW120294   5.136   4.425   1.010  0.9506 -1.5955 -0.8181
 6465SOL    HW220295   5.176   4.564   0.934 -2.3053 -0.1513 -0.0763
 6466SOL     OW20296   2.493   5.387   2.175  0.3549 -0.1768  0.2598
 6466SOL    HW120297   2.440   5.356   2.096 -1.1594  0.8960  0.8171
 6466SOL    HW220298   2.567   5.447   2.144 -0.1504  0.1333 -0.3532
 6467SOL     OW20299   5.790   1.385   2.718 -0.3976 -0.4064  0.9205
 6467SOL    HW120300   5.809   1.289   2.739 -0.9981 -0.3727  1.6614
 6467SOL    HW220301   5.697   1.394   2.683  0.2623 -0.3290 -0.9546
 6468SOL     OW20302   5.338   2.347   3.328 -0.7725  0.2766  0.2470
 6468SOL    HW120303   5.253   2.390   3.358 -0.4519 -0.8621  3.1228
 6468SOL    HW220304   5.334   2.249   3.347  0.9973  0.1133 -0.0625
 6469SOL     OW20305   4.254   3.365   6.721  0.0965 -0.1817 -0.1367
 6469SOL    HW120306   4.297   3.382   6.809  0.5709  2.3662 -0.7928
 6469SOL    HW220307   4.154   3.369   6.731  0.1499 -0.0088  0.3127
 6470SOL     OW20308   6.389   2.079   2.536  0.0792  0.3597 -0.0627
 6470SOL    HW120309   6.455   2.004   2.533 -0.6727 -0.2790 -1.5324
 6470SOL    HW220310   6.337   2.081   2.450 -1.0170  1.5760  0.6002
 6471SOL     OW20311   2.024   4.032   4.167  0.1204 -0.4158 -0.2514
 6471SOL    HW120312   1.942   4.016   4.223 -0.3825  0.6006 -0.6712
 6471SOL    HW220313   2.078   3.949   4.163  0.2309 -0.5087  1.8412
 6472SOL     OW20314   1.264   6.611   4.248  0.5582  0.1689 -0.2909
 6472SOL    HW120315   1.308   6.695   4.278  1.0779  0.6826 -2.3646
 6472SOL    HW220316   1.184   6.633   4.193  0.4438 -0.6961 -0.4823
 6473SOL     OW20317   3.368   0.573   1.783 -0.1099  0.0242 -0.0562
 6473SOL    HW120318   3.463   0.544   1.794 -0.6390 -1.6483  0.3400
 6473SOL    HW220319   3.343   0.632   1.860  0.8838  1.3538 -0.7004
 6474SOL     OW20320   4.312   5.016   4.917  0.4774  0.5099  0.1556
 6474SOL    HW120321   4.411   5.035   4.912  0.2891  1.9727  1.3496
 6474SOL    HW220322   4.270   5.037   4.828  1.4729 -1.9003 -0.9704
 6475SOL     OW20323   1.086   2.249   3.977  0.1225  0.5569  0.2730
 6475SOL    HW120324   1.150   2.301   4.034  0.5414  0.6779 -0.3075
 6475SOL    HW220325   1.088   2.153   4.003 -0.3953  0.7602  1.1141
 6476SOL     OW20326   2.177   2.216   6.414  0.0750  0.9438  0.8205
 6476SOL    HW120327   2.227   2.133   6.436 -1.3510 -0.7318 -1.6428
 6476SOL    HW220328   2.177   2.230   6.314 -1.2343  2.8972  1.0215
 6477SOL     OW20329   1.815   6.018   5.712 -0.2692 -0.1068 -0.0252
 6477SOL    HW120330   1.833   6.010   5.810 -3.4471 -1.0672  0.5838
 6477SOL    HW220331   1.756   6.097   5.696 -1.0652 -0.8734 -0.9428
 6478SOL     OW20332   5.119   4.110   2.607  0.1190 -0.0831 -0.2852
 6478SOL    HW120333   5.117   4.044   2.532  1.5828  1.3844 -1.7052
 6478SOL    HW220334   5.166   4.069   2.686 -2.0817 -1.9051  0.1864
 6479SOL     OW20335   2.029   5.948   3.880  0.1192 -0.0805  0.2318
 6479SOL    HW120336   2.037   6.030   3.936 -0.3095 -0.0474  0.2417
 6479SOL    HW220337   1.935   5.938   3.847  0.4406  0.1086 -0.7906
 6480SOL     OW20338   1.581   5.150   2.760 -0.0578  0.1436  0.2049
 6480SOL    HW120339   1.522   5.218   2.718  3.1079  2.3435 -1.0791
 6480SOL    HW220340   1.594   5.173   2.857  1.5992  2.0002 -0.3846
 6481SOL     OW20341   6.380   2.993   5.409  0.1224 -0.0035 -0.0691
 6481SOL    HW120342   6.287   3.026   5.398  0.0644 -0.1838 -0.1283
 6481SOL    HW220343   6.414   3.018   5.500  0.0262  0.0855 -0.0578
 6482SOL     OW20344   1.929   0.807   0.134  0.2270 -0.0205 -0.1958
 6482SOL    HW120345   1.941   0.788   0.231 -0.0283  0.6698 -0.0227
 6482SOL    HW220346   1.927   0.721   0.083  0.3038 -0.3894  0.4141
 6483SOL     OW20347   3.344   1.450   5.067 -0.2363  0.1341  0.3289
 6483SOL    HW120348   3.333   1.462   5.165  0.3722  1.9967  0.2072
 6483SOL    HW220349   3.329   1.537   5.021 -0.7381 -0.7545 -1.2735
 6484SOL     OW20350   2.482   6.498   4.766  0.2008  0.2349 -0.1082
 6484SOL    HW120351   2.403   6.492   4.705  3.1008 -1.7909 -4.1476
 6484SOL    HW220352   2.512   6.406   4.790  1.3632  0.9475  1.3205
 6485SOL     OW20353   5.530   3.292   2.049  0.0177  0.2101  0.2296
 6485SOL    HW120354   5.620   3.291   2.007  0.1263 -2.1454  0.4116
 6485SOL    HW220355   5.528   3.360   2.122  1.2808  1.0267 -0.4619
 6486SOL     OW20356   3.864   3.355   1.427  0.1037 -0.5502 -0.1722
 6486SOL    HW120357   3.802   3.359   1.349 -0.2067 -2.3390 -0.0598
 6486SOL    HW220358   3.813   3.370   1.511 -0.1230 -1.5406 -0.1172
 6487SOL     OW20359   4.181   4.572   1.279  0.1010  0.5084  0.0085
 6487SOL    HW120360   4.121   4.647   1.308 -0.0804  0.6408 -0.6883
 6487SOL    HW220361   4.177   4.563   1.179  2.6378  1.7082 -0.2707
 6488SOL     OW20362   0.948   1.973   6.321 -0.2570  0.2172 -0.1699
 6488SOL    HW120363   1.000   2.026   6.388 -1.0871 -0.2423  0.8659
 6488SOL    HW220364   1.010   1.916   6.267  0.3026 -0.5094  1.2031
 6489SOL     OW20365   6.128   2.347   6.848  0.3559 -0.3181 -0.1197
 6489SOL    HW120366   6.158   2.443   6.843 -0.2427 -0.0217  1.3986
 6489SOL    HW220367   6.054   2.332   6.783  2.1303 -0.4567 -2.2240
 6490SOL     OW20368   6.329   2.103   6.174  0.5062 -0.2429  0.3036
 6490SOL    HW120369   6.395   2.099   6.099 -0.3527  0.2151 -0.4904
 6490SOL    HW220370   6.338   2.020   6.230 -0.4343 -1.7643 -1.6711
 6491SOL     OW20371   2.728   5.363   1.116 -0.1849  0.0887  0.3629
 6491SOL    HW120372   2.705   5.448   1.068 -0.3868  0.3689  0.9469
 6491SOL    HW220373   2.827   5.355   1.123 -0.1578  0.1295  0.0522
 6492SOL     OW20374   1.124   6.595   2.715 -0.1400  0.3788 -0.0767
 6492SOL    HW120375   1.072   6.621   2.634 -1.5847  0.2608  0.7909
 6492SOL    HW220376   1.151   6.677   2.765  0.8495  0.4582 -0.7025
 6493SOL     OW20377   5.940   6.922   0.409 -0.5658  0.4817 -0.0994
 6493SOL    HW120378   6.000   6.857   0.455 -0.4973  0.3190 -0.4186
 6493SOL    HW220379   5.846   6.912   0.443 -0.3281  1.0811  0.7725
 6494SOL     OW20380   6.626   0.374   4.338 -0.5406  0.0957 -0.1716
 6494SOL    HW120381   6.565   0.452   4.351 -1.7242 -0.6787 -0.8660
 6494SOL    HW220382   6.623   0.344   4.243 -0.0939 -0.7702  0.0735
 6495SOL     OW20383   0.731   0.239   5.552  0.2824 -0.6193 -0.0665
 6495SOL    HW120384   0.657   0.294   5.514  1.9444  0.5411 -1.8581
 6495SOL    HW220385   0.701   0.144   5.564 -1.9950  0.1653  1.0541
 6496SOL     OW20386   4.336   1.484   0.399 -0.4463 -0.4579 -0.1607
 6496SOL    HW120387   4.311   1.546   0.325  0.5619 -1.2111 -1.1657
 6496SOL    HW220388   4.364   1.537   0.479 -2.0814  0.3693 -0.0944
 6497SOL     OW20389   2.859   4.762   3.652  0.1283  0.3443  0.1174
 6497SOL    HW120390   2.826   4.730   3.563 -0.9505  3.1057 -0.6057
 6497SOL    HW220391   2.786   4.752   3.720  1.0179 -1.9491  0.8203
 6498SOL     OW20392   1.160   2.719   3.401  0.6477 -0.0652  0.4590
 6498SOL    HW120393   1.187   2.758   3.313 -0.5603  1.9781  0.9245
 6498SOL    HW220394   1.117   2.630   3.385  0.1509  0.4050 -1.0735
 6499SOL     OW20395   5.374   6.569   2.955 -0.9307 -0.0341  0.2861
 6499SOL    HW120396   5.406   6.657   2.991  0.8300 -0.9537  1.0856
 6499SOL    HW220397   5.308   6.529   3.019  0.5162 -0.6350  1.4581
 6500SOL     OW20398   0.539   6.709   0.862 -0.5377  0.0103  0.1101
 6500SOL    HW120399   0.489   6.773   0.804 -0.3340 -0.0873 -0.1726
 6500SOL    HW220400   0.551   6.622   0.814 -1.6336 -0.5720  0.8434
 6501SOL     OW20401   5.495   5.400   0.249 -0.4976  0.3992 -0.1784
 6501SOL    HW120402   5.477   5.498   0.261  2.3885  1.6480 -3.8822
 6501SOL    HW220403   5.423   5.359   0.194  0.0898  1.5280 -1.9006
 6502SOL     OW20404   6.416   3.360   0.363  0.2488 -0.0728 -0.1988
 6502SOL    HW120405   6.328   3.316   0.344  0.8166 -1.5021  0.3469
 6502SOL    HW220406   6.402   3.436   0.426 -0.6272 -0.1123 -0.3332
 6503SOL     OW20407   1.410   5.733   2.898 -0.0833  0.5445 -0.1010
 6503SOL    HW120408   1.365   5.755   2.811 -2.3900  1.5293  1.2634
 6503SOL    HW220409   1.421   5.634   2.905 -0.2606  0.4186 -1.3177
 6504SOL     OW20410   2.263   0.958   4.992 -0.0817  0.2316 -0.0162
 6504SOL    HW120411   2.207   0.997   5.065 -0.3597 -1.8745  0.9688
 6504SOL    HW220412   2.236   0.997   4.904 -1.6152  0.8309  0.6974
 6505SOL     OW20413   0.136   0.272   2.464  0.3446 -0.3935 -0.0986
 6505SOL    HW120414   0.076   0.239   2.390 -1.1077 -1.2021  1.3589
 6505SOL    HW220415   0.091   0.348   2.511  1.6856  0.7506 -0.6074
 6506SOL     OW20416   6.137   1.025   1.522 -0.3590 -0.0518  0.1285
 6506SOL    HW120417   6.160   0.928   1.522 -0.3438 -0.0604 -0.9252
 6506SOL    HW220418   6.038   1.036   1.508 -0.3070  0.0906 -0.1338
 6507SOL     OW20419   3.468   6.568   2.725  0.9157 -0.1733  0.2233
 6507SOL    HW120420   3.469   6.490   2.662  0.4739 -0.7235  0.8805
 6507SOL    HW220421   3.465   6.534   2.820  0.3394  0.6415  0.5090
 6508SOL     OW20422   3.559   3.830   5.920  0.2273 -0.0653  0.1888
 6508SOL    HW120423   3.554   3.732   5.939 -1.4606  0.4070  2.6701
 6508SOL    HW220424   3.567   3.844   5.821  0.2621 -2.6797 -0.2488
 6509SOL     OW20425   0.021   0.248   3.093 -0.0115 -0.8345 -0.0103
 6509SOL    HW120426   0.117   0.240   3.120  0.2477  3.5792  1.0836
 6509SOL    HW220427   0.015   0.293   3.004 -1.0807 -0.4740  0.2325
 6510SOL     OW20428   3.112   3.174   0.086 -0.6445  0.3502  0.5487
 6510SOL    HW120429   3.072   3.255   0.044 -3.3772 -1.0967  0.0754
 6510SOL    HW220430   3.190   3.143   0.032  0.1031  2.3283  0.4497
 6511SOL     OW20431   2.569   2.511   5.882 -0.2202  0.2556 -0.1593
 6511SOL    HW120432   2.630   2.434   5.901  1.2425  1.5811  0.7248
 6511SOL    HW220433   2.488   2.477   5.833  0.7672 -1.6986 -0.5739
 6512SOL     OW20434   5.114   0.919   0.463  0.0973  0.2893 -0.9826
 6512SOL    HW120435   5.094   0.860   0.385 -0.7945 -0.6533 -0.0730
 6512SOL    HW220436   5.082   0.875   0.547  2.9340  0.2928  0.1892
 6513SOL     OW20437   3.634   0.524   2.143  0.1074  0.0224  0.3654
 6513SOL    HW120438   3.604   0.510   2.238  1.2808  0.5373  0.8227
 6513SOL    HW220439   3.711   0.463   2.124 -1.1040 -1.2095 -0.7662
 6514SOL     OW20440   4.319   5.897   5.628 -0.5199  0.0955 -0.2357
 6514SOL    HW120441   4.374   5.976   5.654 -0.3289 -0.3470  0.7457
 6514SOL    HW220442   4.241   5.887   5.690 -0.3049 -0.7288 -0.0776
 6515SOL     OW20443   5.348   4.280   4.440  0.1720  0.3413 -0.1494
 6515SOL    HW120444   5.425   4.227   4.406 -0.1365 -0.8621  0.9579
 6515SOL    HW220445   5.377   4.374   4.459  0.8711  0.4392 -1.5472
 6516SOL     OW20446   3.933   1.992   2.818  0.5328  0.6535  0.0702
 6516SOL    HW120447   3.984   1.911   2.847  2.5085  1.1493 -1.7830
 6516SOL    HW220448   3.838   1.983   2.847  0.7436 -2.1872  0.1870
 6517SOL     OW20449   6.011   3.166   0.524 -0.1603 -0.2864  0.1200
 6517SOL    HW120450   6.093   3.147   0.578 -0.0744  0.2610  0.1847
 6517SOL    HW220451   5.949   3.088   0.530  0.2516 -0.6070  0.2628
 6518SOL     OW20452   6.943   0.306   6.299  0.4294 -0.1125 -0.0097
 6518SOL    HW120453   6.913   0.380   6.359 -0.9455  0.0465 -0.8491
 6518SOL    HW220454   7.029   0.332   6.255  0.2897  0.7111  0.1916
 6519SOL     OW20455   1.066   3.133   3.598 -0.5622 -0.1282  0.1946
 6519SOL    HW120456   0.990   3.194   3.620 -0.9745 -0.3929 -0.4597
 6519SOL    HW220457   1.067   3.056   3.662  0.1937  0.7443  1.2683
 6520SOL     OW20458   5.161   5.555   2.509  0.6885  0.6387 -0.2658
 6520SOL    HW120459   5.068   5.564   2.473  0.6458  2.3955  0.1694
 6520SOL    HW220460   5.225   5.605   2.449  1.1380  0.6224  0.1949
 6521SOL     OW20461   2.766   6.667   4.297 -0.2194 -0.0807 -0.2162
 6521SOL    HW120462   2.763   6.593   4.230 -0.3678  1.2961 -1.8130
 6521SOL    HW220463   2.837   6.732   4.270 -1.2176  1.2144  0.1929
 6522SOL     OW20464   0.130   3.911   1.923  0.0111 -0.3424 -0.4923
 6522SOL    HW120465   0.136   3.919   1.823  1.7799 -0.7915 -0.4398
 6522SOL    HW220466   0.170   3.992   1.965 -0.4781 -0.2839 -0.1277
 6523SOL     OW20467   1.516   5.470   6.752  0.0237 -0.1754  0.1725
 6523SOL    HW120468   1.494   5.478   6.655  1.0692  0.1434 -0.0521
 6523SOL    HW220469   1.600   5.417   6.763  1.1976  1.7033  0.7220
 6524SOL     OW20470   4.816   5.807   2.421  0.2185  0.9628 -0.2296
 6524SOL    HW120471   4.718   5.826   2.412 -0.1177 -1.2742 -2.1542
 6524SOL    HW220472   4.868   5.887   2.392 -1.1062  0.5141 -4.3900
 6525SOL     OW20473   2.083   2.524   4.085  0.1897  0.1521 -0.1839
 6525SOL    HW120474   2.066   2.466   4.006  1.1521  0.3941 -0.5880
 6525SOL    HW220475   2.144   2.476   4.149 -0.8103 -0.1588  0.5628
 6526SOL     OW20476   6.922   2.121   4.832  0.0747  0.0844 -0.2093
 6526SOL    HW120477   6.891   2.203   4.879 -1.9959 -0.4323 -0.5654
 6526SOL    HW220478   6.947   2.051   4.899 -0.7155  0.1196  0.1396
 6527SOL     OW20479   1.522   4.297   6.982 -0.3128  0.1742  0.1753
 6527SOL    HW120480   1.471   4.277   7.065 -0.2602 -1.8955 -0.2358
 6527SOL    HW220481   1.619   4.306   7.004 -0.1178 -1.6455  0.2231
 6528SOL     OW20482   0.228   6.120   4.909  0.3307 -0.8581  0.5732
 6528SOL    HW120483   0.274   6.200   4.872 -0.3712 -0.5100  0.4229
 6528SOL    HW220484   0.154   6.093   4.848  2.8059 -3.9138 -1.3625
 6529SOL     OW20485   0.748   5.705   0.371  0.8450 -0.1304  0.2795
 6529SOL    HW120486   0.741   5.803   0.357 -2.0326 -0.3773 -0.5412
 6529SOL    HW220487   0.827   5.685   0.429  0.3546  2.8067  2.1274
 6530SOL     OW20488   4.574   1.247   2.507  0.6479 -0.5152  0.3714
 6530SOL    HW120489   4.564   1.304   2.588  0.1126  0.5814 -0.4319
 6530SOL    HW220490   4.671   1.241   2.482  0.6902  0.3023  0.3049
 6531SOL     OW20491   1.668   3.997   4.576 -0.4112 -0.3341  0.3524
 6531SOL    HW120492   1.719   3.980   4.660  1.9227 -1.0694 -1.1017
 6531SOL    HW220493   1.570   3.980   4.592  0.1371 -1.9039  2.5242
 6532SOL     OW20494   2.516   1.929   1.645  0.4517 -0.1712 -0.5214
 6532SOL    HW120495   2.463   1.935   1.560  2.2743 -0.3697 -1.7492
 6532SOL    HW220496   2.509   1.836   1.682  0.3867 -0.3519 -0.9789
 6533SOL     OW20497   2.243   3.168   5.257  0.0999 -0.2377 -0.2034
 6533SOL    HW120498   2.319   3.103   5.245  0.7758  0.4554  0.2429
 6533SOL    HW220499   2.171   3.125   5.312  0.7789 -0.4477  0.5543
 6534SOL     OW20500   0.317   1.214   1.378  0.1839 -0.1232  0.7270
 6534SOL    HW120501   0.220   1.227   1.357  0.1369  0.0380  1.0342
 6534SOL    HW220502   0.362   1.303   1.384  0.1061 -0.1385  1.7045
 6535SOL     OW20503   0.189   5.279   6.082 -0.0154 -0.0870 -0.0822
 6535SOL    HW120504   0.144   5.275   6.171  0.0669  1.3242  0.0481
 6535SOL    HW220505   0.265   5.214   6.081 -1.3199 -1.6599  0.0935
 6536SOL     OW20506   5.521   1.003   0.501 -0.2960  0.1400  0.9234
 6536SOL    HW120507   5.496   1.012   0.598  0.6865  2.1419  1.0286
 6536SOL    HW220508   5.490   1.084   0.451 -0.0620 -0.5066 -0.2977
 6537SOL     OW20509   4.951   3.390   2.591 -0.3691 -0.2372  0.2456
 6537SOL    HW120510   5.046   3.420   2.593  0.4700 -2.2115 -3.1824
 6537SOL    HW220511   4.892   3.469   2.572  0.9098  0.5267 -0.7054
 6538SOL     OW20512   3.785   3.541   0.557 -0.5956  0.1542  0.4877
 6538SOL    HW120513   3.686   3.543   0.563 -0.6864 -0.6301 -0.3963
 6538SOL    HW220514   3.821   3.635   0.553 -1.4941  0.4608 -1.5431
 6539SOL     OW20515   1.697   1.454   1.837 -1.2197  0.4780  0.0507
 6539SOL    HW120516   1.699   1.535   1.896  1.0456 -1.1848  2.4857
 6539SOL    HW220517   1.622   1.463   1.771 -0.8032  4.6928 -0.1078
 6540SOL     OW20518   0.381   1.378   3.747  0.3388  0.1165  0.3641
 6540SOL    HW120519   0.318   1.425   3.808 -0.7988 -1.2955  0.3316
 6540SOL    HW220520   0.395   1.284   3.778 -0.3888 -0.7002 -1.5530
 6541SOL     OW20521   2.862   0.577   0.651 -0.5781  0.1104  0.7648
 6541SOL    HW120522   2.798   0.650   0.676 -2.6244 -1.4260  0.2224
 6541SOL    HW220523   2.870   0.512   0.727  1.3877  0.9085  1.3210
 6542SOL     OW20524   4.583   3.396   6.133  0.5018  0.2703  0.0522
 6542SOL    HW120525   4.628   3.345   6.207 -1.2180 -0.8334  0.3978
 6542SOL    HW220526   4.494   3.355   6.115 -0.1197  2.0231 -1.0074
 6543SOL     OW20527   3.618   1.160   3.798 -0.4624  0.8374 -0.2742
 6543SOL    HW120528   3.534   1.119   3.832  0.3404  0.7171  1.6662
 6543SOL    HW220529   3.623   1.256   3.827 -0.0059  0.8998 -0.5446
 6544SOL     OW20530   5.377   0.978   1.252  0.0081  0.2935 -0.5800
 6544SOL    HW120531   5.472   1.001   1.272  0.3067 -0.8134 -0.6678
 6544SOL    HW220532   5.324   1.062   1.240  0.8873  0.9231 -0.1414
 6545SOL     OW20533   2.203   3.881   2.150  0.3719 -0.2677  0.0079
 6545SOL    HW120534   2.197   3.814   2.224  0.2226 -1.8270 -1.3578
 6545SOL    HW220535   2.200   3.834   2.062 -0.9355  1.6282 -1.0349
 6546SOL     OW20536   4.650   1.987   0.508 -0.6596 -0.2134 -0.6348
 6546SOL    HW120537   4.582   2.004   0.580 -0.9398  0.7410 -1.1080
 6546SOL    HW220538   4.723   1.929   0.544  0.4863  2.2010  1.2269
 6547SOL     OW20539   2.328   1.674   0.397 -0.3890 -0.4770 -0.0432
 6547SOL    HW120540   2.268   1.729   0.454 -0.4289  0.3484 -0.8483
 6547SOL    HW220541   2.423   1.704   0.410 -0.5207  0.5826 -1.3060
 6548SOL     OW20542   5.396   0.059   3.785  0.2660 -0.3652  0.0086
 6548SOL    HW120543   5.486   0.043   3.743  1.4340  0.2122  2.1078
 6548SOL    HW220544   5.334  -0.016   3.761  0.0001  0.9867 -4.5394
 6549SOL     OW20545   5.788   1.845   1.645 -0.4917 -0.0251 -0.5104
 6549SOL    HW120546   5.839   1.770   1.688 -0.2068 -0.6321 -1.8258
 6549SOL    HW220547   5.727   1.887   1.711  1.3713  0.4157  1.0156
 6550SOL     OW20548   2.588   0.445   3.254  0.2018 -0.5067 -0.0115
 6550SOL    HW120549   2.664   0.502   3.223 -0.0988  1.1845  2.1553
 6550SOL    HW220550   2.544   0.404   3.174  1.8148  0.4687 -1.4999
 6551SOL     OW20551   2.722   0.109   2.651  0.2537 -0.0764  0.3380
 6551SOL    HW120552   2.699   0.012   2.648  0.8863 -0.3219  2.2455
 6551SOL    HW220553   2.677   0.156   2.574 -0.7193 -1.7117 -0.1488
 6552SOL     OW20554   3.899   1.848   3.166 -0.5524  0.0357 -0.0070
 6552SOL    HW120555   3.960   1.841   3.087 -0.3573  2.2851 -0.1001
 6552SOL    HW220556   3.860   1.940   3.171 -1.8614 -0.5495  1.5903
 6553SOL     OW20557   0.424   0.630   5.777 -0.0342  0.2020 -0.1618
 6553SOL    HW120558   0.514   0.611   5.816 -0.0199  0.6833  0.0389
 6553SOL    HW220559   0.407   0.728   5.777 -0.4842  0.1273 -0.3703
 6554SOL     OW20560   0.694   1.988   4.124  0.1840  0.9628 -0.1423
 6554SOL    HW120561   0.667   1.991   4.220  1.0305  0.2898  0.1262
 6554SOL    HW220562   0.684   2.080   4.084  2.8439  2.0766  1.4526
 6555SOL     OW20563   2.660   2.015   3.667  0.3190  0.6982  0.0001
 6555SOL    HW120564   2.637   1.965   3.584 -1.2015  2.5466 -0.7854
 6555SOL    HW220565   2.593   1.993   3.738  0.6331  0.3892  0.2057
 6556SOL     OW20566   6.469   1.798   3.907  0.0492 -0.1749  0.6501
 6556SOL    HW120567   6.491   1.892   3.882 -0.4602 -0.6352 -1.7720
 6556SOL    HW220568   6.508   1.778   3.997  3.4882  1.1936 -0.3592
 6557SOL     OW20569   2.026   2.479   2.316  0.4367  0.3174  0.2300
 6557SOL    HW120570   1.949   2.458   2.256 -0.1280  1.4820  0.5300
 6557SOL    HW220571   2.050   2.398   2.370  0.2612 -0.4246 -0.7800
 6558SOL     OW20572   1.381   3.963   6.249  0.2233 -0.4662  0.6290
 6558SOL    HW120573   1.368   4.054   6.211  1.0448 -1.0610 -1.2152
 6558SOL    HW220574   1.315   3.900   6.208 -0.0245 -0.8135  1.5302
 6559SOL     OW20575   5.954   0.319   0.059 -0.0334 -0.3922  0.2967
 6559SOL    HW120576   5.872   0.356   0.102 -0.9337 -2.0171  0.0400
 6559SOL    HW220577   5.929   0.244  -0.002  1.5629 -0.3258 -0.5050
 6560SOL     OW20578   0.873   3.947   6.433  0.0514  0.1880 -0.1382
 6560SOL    HW120579   0.868   3.849   6.451  0.6145  0.4647  1.7928
 6560SOL    HW220580   0.946   3.987   6.488 -2.4067  2.2227  1.9342
 6561SOL     OW20581   4.491   0.568   2.587 -0.1130 -0.2368 -0.3428
 6561SOL    HW120582   4.427   0.603   2.519 -2.0580 -2.3796  0.2713
 6561SOL    HW220583   4.446   0.499   2.644  2.3884 -0.9133  0.9898
 6562SOL     OW20584   5.775   1.364   5.926  0.3170  0.0820 -0.2430
 6562SOL    HW120585   5.833   1.427   5.977  0.8617 -0.4707 -0.1606
 6562SOL    HW220586   5.683   1.401   5.920  0.4560  0.5516  0.4148
 6563SOL     OW20587   6.771   6.440   4.784 -0.3513 -0.5054  0.5008
 6563SOL    HW120588   6.754   6.401   4.875 -0.3076 -0.4476  0.5339
 6563SOL    HW220589   6.684   6.467   4.743 -0.3585 -0.3818  0.5931
 6564SOL     OW20590   1.526   4.819   6.962 -0.3227  0.8911 -0.0902
 6564SOL    HW120591   1.522   4.908   7.008  0.9530  0.7453  0.3414
 6564SOL    HW220592   1.618   4.804   6.926 -0.0713 -0.9053  1.1775
 6565SOL     OW20593   6.831   3.701   5.245  0.3451  0.1095 -0.6034
 6565SOL    HW120594   6.768   3.650   5.187 -0.1699  0.3344 -0.2498
 6565SOL    HW220595   6.839   3.656   5.334 -0.6668  0.9966 -0.0315
 6566SOL     OW20596   0.696   3.324   3.426 -0.3290 -0.0348 -0.0660
 6566SOL    HW120597   0.742   3.315   3.514  0.7293 -0.2867 -0.6323
 6566SOL    HW220598   0.682   3.421   3.406  2.6673  0.2543 -1.2156
 6567SOL     OW20599   1.090   6.023   2.649  0.2843  0.2790  0.4423
 6567SOL    HW120600   1.167   5.975   2.610  0.9457  1.0229  0.7999
 6567SOL    HW220601   1.089   6.118   2.616 -0.6709  0.1900  0.1752
 6568SOL     OW20602   5.966   4.550   4.102 -0.4242 -0.3858 -0.5640
 6568SOL    HW120603   5.989   4.617   4.032  1.1108 -0.9132 -0.6020
 6568SOL    HW220604   5.879   4.574   4.144  0.1339  1.6874 -0.4906
 6569SOL     OW20605   2.768   1.070   2.142  0.3806 -0.1195 -0.2625
 6569SOL    HW120606   2.805   1.131   2.071  1.9628  1.8895  2.0951
 6569SOL    HW220607   2.734   1.125   2.219  0.2623 -2.1916  1.2501
 6570SOL     OW20608   2.740   2.315   3.969 -0.5546  0.2825  0.0603
 6570SOL    HW120609   2.704   2.357   4.053 -2.4790 -2.3001  0.6476
 6570SOL    HW220610   2.665   2.289   3.909  0.7137  0.5014 -1.7125
 6571SOL     OW20611   2.102   3.588   3.769  0.0963  0.0361 -0.0390
 6571SOL    HW120612   2.082   3.685   3.785  1.6938  0.3552  0.2098
 6571SOL    HW220613   2.149   3.550   3.849 -0.8050 -1.0589  0.0014
 6572SOL     OW20614   0.850   6.345   2.322 -0.4969 -0.3858 -0.3425
 6572SOL    HW120615   0.853   6.300   2.233  1.0394 -0.8299 -0.0943
 6572SOL    HW220616   0.766   6.318   2.370 -2.2404  1.2531 -2.3107
 6573SOL     OW20617   3.524   5.798   2.823  0.3427 -0.5801 -0.1283
 6573SOL    HW120618   3.500   5.886   2.783 -0.5545 -1.5600 -1.8627
 6573SOL    HW220619   3.452   5.768   2.885  0.0847 -0.6415 -0.4592
 6574SOL     OW20620   4.491   1.523   3.259  0.6185  0.0880  0.0516
 6574SOL    HW120621   4.521   1.431   3.285  2.0019  0.5347  0.0883
 6574SOL    HW220622   4.551   1.559   3.188  0.0135  0.9350 -0.0536
 6575SOL     OW20623   2.623   5.850   3.786  0.4573 -0.1643 -0.4176
 6575SOL    HW120624   2.589   5.756   3.789  2.8682 -1.1037  1.8685
 6575SOL    HW220625   2.697   5.860   3.853 -0.7296  3.7955  0.5646
 6576SOL     OW20626   2.245   4.945   2.167 -0.0521  0.3002 -0.0238
 6576SOL    HW120627   2.201   5.034   2.184  0.2304  0.7071 -1.3607
 6576SOL    HW220628   2.175   4.873   2.166 -0.4373  0.6727 -0.1857
 6577SOL     OW20629   0.189   6.448   5.107  0.1608 -0.3969  0.2622
 6577SOL    HW120630   0.246   6.467   5.186  2.1391 -1.3880 -0.8573
 6577SOL    HW220631   0.155   6.535   5.069 -0.3460  0.1152  1.8130
 6578SOL     OW20632   0.539   1.466   6.517  0.4634 -0.0514  0.3571
 6578SOL    HW120633   0.506   1.538   6.456 -0.7119 -2.0603 -1.5629
 6578SOL    HW220634   0.502   1.479   6.608 -0.6128  1.1643 -0.2271
 6579SOL     OW20635   3.737   4.056   2.228 -0.1630  0.0721  0.4377
 6579SOL    HW120636   3.682   3.975   2.250  0.8615 -0.8035 -0.1177
 6579SOL    HW220637   3.679   4.125   2.186 -0.6307 -1.3439 -1.3842
 6580SOL     OW20638   1.785   0.422   5.683 -0.3338 -0.2730  0.6256
 6580SOL    HW120639   1.822   0.332   5.706 -0.6525 -0.8250 -0.9173
 6580SOL    HW220640   1.698   0.411   5.636  0.4928  0.7362 -1.2259
 6581SOL     OW20641   5.374   2.120   3.938  0.3058  0.3480 -0.0335
 6581SOL    HW120642   5.426   2.172   3.870 -0.7019  1.7558  0.2389
 6581SOL    HW220643   5.278   2.147   3.935 -0.0045 -0.5560  1.0279
 6582SOL     OW20644   1.624   6.965   3.923 -0.0492  0.0559  0.1944
 6582SOL    HW120645   1.688   6.961   3.999  0.0871  0.0448  0.0809
 6582SOL    HW220646   1.634   6.883   3.866 -0.6606 -0.2839  0.5678
 6583SOL     OW20647   5.855   2.095   4.181 -0.2931  0.1135  0.2269
 6583SOL    HW120648   5.778   2.071   4.240 -0.6570 -0.1016 -0.3303
 6583SOL    HW220649   5.842   2.187   4.144 -0.3125  0.0487  0.0744
 6584SOL     OW20650   1.423   6.277   5.525 -0.0104  0.1732 -0.0065
 6584SOL    HW120651   1.458   6.366   5.552 -2.1548  0.8469  0.7142
 6584SOL    HW220652   1.445   6.209   5.596  0.9980  0.2678 -0.2201
 6585SOL     OW20653   1.886   6.914   0.448  0.6119  0.0619  0.3051
 6585SOL    HW120654   1.895   7.010   0.422  1.2717  0.3224  1.4078
 6585SOL    HW220655   1.965   6.887   0.504  1.5243 -1.7110 -1.6824
 6586SOL     OW20656   5.305   4.541   6.518 -0.4080 -0.8291  0.0470
 6586SOL    HW120657   5.360   4.623   6.505  0.0102 -1.0411  0.4753
 6586SOL    HW220658   5.322   4.502   6.608 -1.6030 -0.6461  0.3693
 6587SOL     OW20659   4.295   2.850   6.322  0.4603  0.6584 -0.1227
 6587SOL    HW120660   4.239   2.847   6.239 -0.6358 -1.6477  0.6047
 6587SOL    HW220661   4.297   2.943   6.357 -0.5941  1.3316 -1.7152
 6588SOL     OW20662   3.144   3.236   3.469  0.0649 -0.0146  0.1824
 6588SOL    HW120663   3.063   3.277   3.428  0.1184  0.6098  0.6858
 6588SOL    HW220664   3.149   3.261   3.566  1.1969  0.4890  0.0107
 6589SOL     OW20665   0.425   1.022   0.745  0.6224 -0.2795 -0.5843
 6589SOL    HW120666   0.390   0.975   0.825  0.6804 -0.3394 -0.5942
 6589SOL    HW220667   0.520   0.997   0.730  0.9447  0.5773 -0.0349
 6590SOL     OW20668   5.709   5.051   0.090  0.2071 -0.4718  0.6626
 6590SOL    HW120669   5.775   4.976   0.091  0.6323 -0.2549 -2.2704
 6590SOL    HW220670   5.620   5.016   0.060 -0.0189 -0.0723  0.8631
 6591SOL     OW20671   4.072   3.187   3.211  0.0276  0.7268 -0.2804
 6591SOL    HW120672   4.063   3.106   3.154  3.6313  0.9881 -1.4823
 6591SOL    HW220673   4.007   3.181   3.287 -0.7575 -2.5929 -1.0303
 6592SOL     OW20674   5.663   3.280   3.699  0.0085  0.0027  0.4230
 6592SOL    HW120675   5.634   3.332   3.779 -0.0045 -1.2916  1.2792
 6592SOL    HW220676   5.762   3.268   3.702 -0.0433 -0.4056  0.4607
 6593SOL     OW20677   5.362   5.252   3.868 -0.5828 -0.5947  0.2904
 6593SOL    HW120678   5.273   5.294   3.850 -0.4160 -0.3695 -0.0104
 6593SOL    HW220679   5.352   5.182   3.938 -0.6491  0.7594  1.6697
 6594SOL     OW20680   0.786   4.269   4.781  0.0000 -0.0571 -0.1264
 6594SOL    HW120681   0.801   4.312   4.870 -1.0199 -0.8773  0.4567
 6594SOL    HW220682   0.796   4.170   4.789 -1.4355 -0.2602 -0.6216
 6595SOL     OW20683   5.389   3.810   1.532 -0.6953  0.0984  0.0036
 6595SOL    HW120684   5.335   3.737   1.575 -0.6457 -0.5370 -0.9618
 6595SOL    HW220685   5.327   3.875   1.489 -0.7969  1.4659  2.1024
 6596SOL     OW20686   5.860   1.851   4.060  0.5710  0.1368 -0.0338
 6596SOL    HW120687   5.853   1.938   4.109 -1.1184  0.3886 -0.6652
 6596SOL    HW220688   5.889   1.868   3.966  0.0005  0.0547 -0.2284
 6597SOL     OW20689   6.233   6.338   5.755 -0.1667  0.1310  0.0049
 6597SOL    HW120690   6.182   6.286   5.822 -2.6964  0.4291 -1.5650
 6597SOL    HW220691   6.322   6.363   5.793 -1.7084  0.8870  3.4805
 6598SOL     OW20692   6.532   4.197   4.572  0.1429  0.8245  0.2879
 6598SOL    HW120693   6.490   4.208   4.482  0.0089 -3.1533 -0.3034
 6598SOL    HW220694   6.593   4.118   4.572  1.6897  1.8419  3.2177
 6599SOL     OW20695   1.283   0.966   5.268  0.0197  0.3978  0.3508
 6599SOL    HW120696   1.316   0.891   5.325 -2.3043 -1.1075 -0.1426
 6599SOL    HW220697   1.237   1.034   5.326 -1.6764 -0.7590  0.4531
 6600SOL     OW20698   3.350   0.731   1.558 -0.8818 -0.0089 -0.4252
 6600SOL    HW120699   3.359   0.658   1.626  2.0978  2.6486  2.3829
 6600SOL    HW220700   3.390   0.701   1.472  0.1363 -1.7496  0.5900
 6601SOL     OW20701   2.187   1.368   4.930 -0.3673  0.4432  0.0256
 6601SOL    HW120702   2.112   1.302   4.927  0.4972 -0.6304  0.8855
 6601SOL    HW220703   2.231   1.373   4.840 -0.7815  0.2620 -0.1884
 6602SOL     OW20704   4.679   6.616   1.619 -0.7608  0.1330 -0.1365
 6602SOL    HW120705   4.588   6.657   1.616 -2.2394 -2.9621 -1.6445
 6602SOL    HW220706   4.674   6.526   1.662  1.9584  0.5314  1.2330
 6603SOL     OW20707   5.859   5.583   5.401  0.0095 -0.6047 -0.5512
 6603SOL    HW120708   5.794   5.575   5.326 -1.1169 -0.8405  0.4274
 6603SOL    HW220709   5.889   5.491   5.429 -0.4025 -0.5833 -0.0199
 6604SOL     OW20710   1.037   6.304   4.176  0.0847  0.3273  0.4329
 6604SOL    HW120711   1.045   6.346   4.086 -0.9633  1.1100  0.6944
 6604SOL    HW220712   1.128   6.272   4.205  0.9672  2.4602  0.2427
 6605SOL     OW20713   0.978   5.603   1.130  0.3915  0.3033 -0.2183
 6605SOL    HW120714   0.909   5.652   1.077 -0.7461 -0.4297  0.5528
 6605SOL    HW220715   1.052   5.573   1.069  1.3232  3.1882 -0.6945
 6606SOL     OW20716   0.188   6.017   4.634  0.6098 -0.3207 -0.4323
 6606SOL    HW120717   0.169   5.927   4.596  0.4154 -0.4710  0.0122
 6606SOL    HW220718   0.186   6.085   4.561 -1.2718 -0.3800 -0.4949
 6607SOL     OW20719   5.028   4.507   3.940  0.0113 -0.4863  0.0251
 6607SOL    HW120720   5.125   4.492   3.960 -0.2914 -0.5171  1.5960
 6607SOL    HW220721   4.973   4.476   4.018 -1.1446  1.2636 -0.0492
 6608SOL     OW20722   2.904   0.699   4.640  0.1165 -0.0642 -0.0358
 6608SOL    HW120723   2.868   0.782   4.683  2.0656 -0.0360  1.7514
 6608SOL    HW220724   2.868   0.690   4.547 -0.7971  2.3195  0.0254
 6609SOL     OW20725   5.031   2.784   0.078 -0.4548  0.3177  0.5440
 6609SOL    HW120726   4.991   2.702   0.120  0.2981 -0.7425 -0.7376
 6609SOL    HW220727   4.964   2.858   0.080 -1.3193 -0.4520  1.3222
 6610SOL     OW20728   2.105   5.291   3.718  0.4579 -0.5086 -0.6138
 6610SOL    HW120729   2.101   5.391   3.705 -1.2504 -0.5167 -0.3746
 6610SOL    HW220730   2.199   5.264   3.738  0.6302  1.3527  1.5535
 6611SOL     OW20731   6.242   6.164   5.328 -0.3430 -0.3195 -0.1806
 6611SOL    HW120732   6.157   6.179   5.278  0.5579  0.7297 -1.4617
 6611SOL    HW220733   6.266   6.067   5.323 -0.7954 -0.4018 -0.9191
 6612SOL     OW20734   5.229   3.481   5.349 -0.1644  0.0118 -0.1549
 6612SOL    HW120735   5.164   3.511   5.279  1.4912  0.2744 -1.6682
 6612SOL    HW220736   5.270   3.562   5.392 -0.1019 -0.1448  0.0796
 6613SOL     OW20737   4.327   7.009   4.328 -0.0388 -0.6006  0.0156
 6613SOL    HW120738   4.238   7.046   4.355 -0.1047  0.0448 -1.0527
 6613SOL    HW220739   4.317   6.959   4.242  1.0363  1.4515 -1.3759
 6614SOL     OW20740   6.825   1.515   3.570  0.4065 -0.1268  0.6808
 6614SOL    HW120741   6.779   1.501   3.658  1.7683  0.6641  1.5393
 6614SOL    HW220742   6.876   1.432   3.547  0.5649 -0.1053  0.9481
 6615SOL     OW20743   5.880   6.863   1.431  0.0463 -0.1087 -0.1338
 6615SOL    HW120744   5.857   6.961   1.437  1.1418  0.0720  2.6278
 6615SOL    HW220745   5.979   6.853   1.422 -0.1240 -1.0173 -1.3139
 6616SOL     OW20746   6.150   1.667   0.397  0.0959  0.2903 -0.0624
 6616SOL    HW120747   6.214   1.678   0.320  0.9592 -0.3378  0.5427
 6616SOL    HW220748   6.181   1.723   0.474  0.6456 -0.9851  0.6685
 6617SOL     OW20749   0.977   2.294   0.587 -0.1294  0.1820 -0.3110
 6617SOL    HW120750   1.026   2.295   0.500 -1.1150 -1.4806 -0.9335
 6617SOL    HW220751   0.899   2.232   0.581 -1.5569  1.7346  1.0785
 6618SOL     OW20752   3.787   2.488   1.535 -0.2293 -0.4333  0.0996
 6618SOL    HW120753   3.812   2.585   1.530 -1.6454  0.1261  2.1953
 6618SOL    HW220754   3.698   2.479   1.579  0.2447 -2.7530  0.7504
 6619SOL     OW20755   0.474   4.371   0.949 -0.1026 -0.4625  0.0600
 6619SOL    HW120756   0.468   4.295   0.885 -1.7557  1.1842 -1.8909
 6619SOL    HW220757   0.381   4.400   0.975  0.3637  2.1356 -0.8904
 6620SOL     OW20758   0.127   4.133   4.752 -0.2677  0.2473 -0.9027
 6620SOL    HW120759   0.119   4.177   4.841 -0.7507  1.5422 -1.5654
 6620SOL    HW220760   0.100   4.037   4.760 -1.4778  0.6474  0.1003
 6621SOL     OW20761   3.766   6.799   5.846 -0.0326  0.1974 -0.0032
 6621SOL    HW120762   3.765   6.723   5.781  0.2168  1.2308 -1.2574
 6621SOL    HW220763   3.861   6.826   5.864 -0.0795 -0.3743  1.1648
 6622SOL     OW20764   0.598   6.487   1.081  0.1554  0.1944  0.2626
 6622SOL    HW120765   0.528   6.544   1.038  0.7013  0.3323 -0.4630
 6622SOL    HW220766   0.677   6.479   1.020 -0.0395 -1.6326  0.1834
 6623SOL     OW20767   6.117   3.848   2.314  0.3413  0.0228  0.4984
 6623SOL    HW120768   6.019   3.871   2.314  0.8326  2.5149  1.3342
 6623SOL    HW220769   6.160   3.889   2.394  1.7556 -2.8325  1.3006
 6624SOL     OW20770   1.364   2.156   0.362 -0.9106 -0.1223 -0.4531
 6624SOL    HW120771   1.431   2.165   0.289 -0.6364 -1.3981 -0.3968
 6624SOL    HW220772   1.398   2.201   0.444 -0.4247 -0.1638 -0.6249
 6625SOL     OW20773   0.452   0.629   3.532 -0.0281 -0.6352 -0.1293
 6625SOL    HW120774   0.353   0.640   3.540 -0.6898 -3.9368 -1.8084
 6625SOL    HW220775   0.490   0.601   3.620 -0.8218 -0.6862  0.2037
 6626SOL     OW20776   1.142   1.793   5.399 -0.0058  0.2111  0.6199
 6626SOL    HW120777   1.230   1.769   5.358 -0.2365  1.7816 -0.8970
 6626SOL    HW220778   1.157   1.836   5.487  0.7722  0.6389  0.2901
 6627SOL     OW20779   5.627   5.006   5.731 -0.3179  0.4818  0.8364
 6627SOL    HW120780   5.656   5.011   5.827  0.5186 -2.0927  0.7997
 6627SOL    HW220781   5.706   5.023   5.672 -0.3370 -0.0821  0.6428
 6628SOL     OW20782   2.242   2.937   2.972  0.2741 -0.5584 -0.0431
 6628SOL    HW120783   2.166   3.001   2.958 -1.2141 -1.8924  1.4631
 6628SOL    HW220784   2.264   2.932   3.069  0.1939 -2.4633 -0.0876
 6629SOL     OW20785   6.568   3.363   6.958 -0.4380  0.1501  0.0820
 6629SOL    HW120786   6.500   3.418   6.910 -0.9732  0.5851  1.3140
 6629SOL    HW220787   6.568   3.270   6.921 -0.4858  0.5984 -1.0797
 6630SOL     OW20788   6.561   4.242   0.953 -0.1970 -0.1026 -0.6433
 6630SOL    HW120789   6.637   4.192   0.995 -0.6321  0.0002  0.2936
 6630SOL    HW220790   6.516   4.183   0.886  2.3247  0.6975 -3.2503
 6631SOL     OW20791   2.335   1.656   6.985 -0.0194  0.2651 -0.0394
 6631SOL    HW120792   2.368   1.638   6.892 -1.3273 -0.7283 -0.3338
 6631SOL    HW220793   2.414   1.664   7.046  0.8592  0.7092 -1.1739
 6632SOL     OW20794   2.203   2.555   0.773  0.1841 -0.5745 -0.3323
 6632SOL    HW120795   2.190   2.640   0.724  0.5731 -0.3798 -0.1014
 6632SOL    HW220796   2.114   2.515   0.796  0.0040 -0.2350 -0.4446
 6633SOL     OW20797   6.267   6.789   0.730 -0.0000 -0.5006 -0.2332
 6633SOL    HW120798   6.182   6.829   0.696 -0.1377 -0.0019  0.6673
 6633SOL    HW220799   6.322   6.861   0.773 -0.2918 -1.2625  1.5104
 6634SOL     OW20800   1.189   0.801   6.695  0.3579 -0.4669 -0.7726
 6634SOL    HW120801   1.249   0.878   6.674  0.7522 -0.2905  0.9077
 6634SOL    HW220802   1.142   0.818   6.781 -0.4954 -1.5641 -1.0034
 6635SOL     OW20803   5.741   1.286   0.227  0.7406 -0.2921 -0.3361
 6635SOL    HW120804   5.787   1.256   0.311  1.7211  1.2110 -0.3042
 6635SOL    HW220805   5.701   1.207   0.181 -0.1526 -1.1046  1.7368
 6636SOL     OW20806   3.524   3.587   4.794  0.0083 -0.2759  0.1807
 6636SOL    HW120807   3.430   3.557   4.810  0.0341  0.6441  2.4556
 6636SOL    HW220808   3.534   3.682   4.825  1.6280 -0.2766 -0.2729
 6637SOL     OW20809   1.943   2.229   3.266 -0.7129 -0.2996 -0.4437
 6637SOL    HW120810   1.889   2.290   3.208 -0.6475  0.4134  0.2315
 6637SOL    HW220811   2.019   2.279   3.306 -0.3565 -0.9533 -0.2807
 6638SOL     OW20812   2.419   3.933   5.788  0.7416 -0.2989  0.2437
 6638SOL    HW120813   2.472   3.885   5.717 -1.0339 -2.4798  0.2726
 6638SOL    HW220814   2.458   3.911   5.878  1.6943  0.7227  0.0946
 6639SOL     OW20815   2.684   5.311   0.809  0.2931  0.0348  0.3259
 6639SOL    HW120816   2.734   5.229   0.835  1.7031  1.1476  1.2610
 6639SOL    HW220817   2.748   5.387   0.797 -0.9496  0.9527 -0.7569
 6640SOL     OW20818   2.803   1.203   3.289  0.4369  0.1942 -0.1757
 6640SOL    HW120819   2.703   1.214   3.290  0.3562 -0.4905 -0.2680
 6640SOL    HW220820   2.831   1.162   3.202  0.9168  1.3892 -0.5990
 6641SOL     OW20821   3.612   5.081   5.143  0.1443  0.3755 -0.2064
 6641SOL    HW120822   3.618   5.022   5.223  0.6949  0.9077  0.1558
 6641SOL    HW220823   3.523   5.128   5.142 -0.6201 -1.0377 -0.9272
 6642SOL     OW20824   2.099   3.231   2.154  0.1770  0.1244  0.4651
 6642SOL    HW120825   2.135   3.146   2.117  0.7949  0.3542  0.5350
 6642SOL    HW220826   2.170   3.301   2.154  0.1711  0.1559  2.0042
 6643SOL     OW20827   2.724   4.374   6.048  0.0248 -0.0753  0.1694
 6643SOL    HW120828   2.663   4.417   5.982  1.7052  1.0738 -0.7024
 6643SOL    HW220829   2.670   4.336   6.123 -1.7637  0.5439 -0.7410
 6644SOL     OW20830   4.897   3.148   2.748 -0.8220  0.2832  0.0392
 6644SOL    HW120831   4.888   3.240   2.709 -1.5672  0.1942 -0.0247
 6644SOL    HW220832   4.988   3.137   2.788 -0.0217  0.3887 -1.6490
 6645SOL     OW20833   1.889   4.803   4.976  0.0189 -0.3164 -0.4181
 6645SOL    HW120834   1.933   4.886   4.941 -0.2221 -0.4421 -1.0472
 6645SOL    HW220835   1.807   4.784   4.922 -1.1828  0.2697  1.1496
 6646SOL     OW20836   0.565   3.445   1.458  0.0049  0.0236 -0.5308
 6646SOL    HW120837   0.465   3.436   1.451  0.0814  0.5952 -3.4207
 6646SOL    HW220838   0.588   3.541   1.474  0.1091 -0.2776  1.3571
 6647SOL     OW20839   2.483   4.054   0.778 -0.3501  0.3139 -0.2073
 6647SOL    HW120840   2.417   4.090   0.712  0.7348  2.2157 -0.3249
 6647SOL    HW220841   2.481   3.954   0.775  0.5503  0.2318 -4.1254
 6648SOL     OW20842   4.592   2.103   5.255 -0.3489  0.0241  0.4764
 6648SOL    HW120843   4.534   2.124   5.177 -0.4691 -0.9002  0.3062
 6648SOL    HW220844   4.645   2.184   5.281 -1.7205  0.8873  0.6483
 6649SOL     OW20845   6.894   6.880   1.608  0.4211  0.0749 -0.4493
 6649SOL    HW120846   6.900   6.804   1.672 -0.3107  0.5868  0.2419
 6649SOL    HW220847   6.975   6.880   1.549  1.8753  0.4414  1.4330
 6650SOL     OW20848   6.215   3.075   3.070  0.6326  0.3750 -0.2666
 6650SOL    HW120849   6.257   2.988   3.043  0.2399  0.5278 -1.4549
 6650SOL    HW220850   6.235   3.144   3.000 -0.3939  0.8112 -0.1438
 6651SOL     OW20851   2.924   2.842   1.256  0.0961 -0.4797 -0.5190
 6651SOL    HW120852   2.968   2.753   1.258 -0.7048 -1.0094  3.5298
 6651SOL    HW220853   2.962   2.900   1.328 -0.4176  1.9854 -2.0897
 6652SOL     OW20854   2.518   3.211   6.191  0.3037  0.2033 -0.0632
 6652SOL    HW120855   2.488   3.276   6.261  3.5820  1.8876 -0.0455
 6652SOL    HW220856   2.448   3.203   6.121 -0.7190  2.8949  0.5225
 6653SOL     OW20857   3.804   3.657   3.398  0.4208  0.1148  0.0808
 6653SOL    HW120858   3.836   3.693   3.310  0.1196 -0.4237 -0.2621
 6653SOL    HW220859   3.823   3.559   3.402  0.7915  0.2145  0.7889
 6654SOL     OW20860   3.175   1.872   1.575  0.2965 -0.5354  0.2376
 6654SOL    HW120861   3.140   1.779   1.575 -0.5637 -0.2247 -0.0541
 6654SOL    HW220862   3.114   1.930   1.520  0.7699  0.2101  0.4924
 6655SOL     OW20863   1.098   2.024   0.662 -0.1170  0.0609 -0.1264
 6655SOL    HW120864   1.099   2.123   0.651 -0.7719  0.1726  0.7405
 6655SOL    HW220865   1.177   1.996   0.717 -1.0269  0.3433  1.3791
 6656SOL     OW20866   5.449   1.760   1.413 -0.4329 -0.1440 -0.0863
 6656SOL    HW120867   5.524   1.824   1.428  0.0778 -0.3716 -1.5538
 6656SOL    HW220868   5.453   1.687   1.482 -1.1690  1.4926  1.7570
 6657SOL     OW20869   4.724   2.372   0.765  0.2674  0.2934 -0.2711
 6657SOL    HW120870   4.775   2.302   0.716  0.9874  1.0920 -0.6785
 6657SOL    HW220871   4.672   2.427   0.699 -1.2147 -0.5553  0.1373
 6658SOL     OW20872   3.977   3.985   0.178 -0.3547 -0.3136 -0.0846
 6658SOL    HW120873   3.965   4.001   0.276 -1.7524  1.5877 -0.5031
 6658SOL    HW220874   3.960   3.889   0.157 -0.3895 -0.6761  1.4698
 6659SOL     OW20875   6.207   5.452   4.050  0.0224  0.0972 -0.4832
 6659SOL    HW120876   6.108   5.441   4.064  0.1809  0.0032  0.6500
 6659SOL    HW220877   6.256   5.407   4.124  0.8633  1.8456  0.0636
 6660SOL     OW20878   6.833   5.757   6.168  0.1729 -0.2075  0.2683
 6660SOL    HW120879   6.837   5.855   6.147 -1.3544 -0.4195 -1.3011
 6660SOL    HW220880   6.862   5.742   6.262  2.7025  1.4541 -0.1415
 6661SOL     OW20881   3.367   1.134   2.836  0.1511 -0.8443  0.5970
 6661SOL    HW120882   3.355   1.197   2.913  2.0944  1.2035 -0.6329
 6661SOL    HW220883   3.325   1.175   2.754 -0.1826 -2.0725  0.1361
 6662SOL     OW20884   3.964   3.695   0.140 -0.3415  0.9084 -0.7369
 6662SOL    HW120885   3.983   3.598   0.159 -1.6680  0.6826 -0.4649
 6662SOL    HW220886   3.865   3.709   0.133 -0.3433  2.6754  1.5945
 6663SOL     OW20887   1.301   4.367   1.369  0.0719  0.7377  0.3398
 6663SOL    HW120888   1.299   4.288   1.429  0.5196  0.4158 -0.0579
 6663SOL    HW220889   1.207   4.392   1.344 -0.0518 -0.6065 -0.7229
 6664SOL     OW20890   6.517   2.970   4.522  0.0315  0.6506 -0.0494
 6664SOL    HW120891   6.533   2.903   4.450 -0.4731 -0.0431  0.4742
 6664SOL    HW220892   6.471   2.926   4.600  1.1111  1.2391  0.9577
 6665SOL     OW20893   1.377   5.676   0.964 -0.0612  0.1672 -0.2387
 6665SOL    HW120894   1.468   5.635   0.968  0.4526  1.3104  0.4879
 6665SOL    HW220895   1.363   5.731   1.046 -1.6901 -0.5368 -0.0148
 6666SOL     OW20896   2.824   3.866   6.819  0.5561 -0.2628  0.0780
 6666SOL    HW120897   2.891   3.879   6.747  1.0665 -0.7297  0.4637
 6666SOL    HW220898   2.741   3.826   6.781  1.5787 -2.5017  0.0627
 6667SOL     OW20899   1.839   6.666   2.790  0.1777  0.0165  0.5293
 6667SOL    HW120900   1.836   6.661   2.690  0.9183  0.3385  0.4891
 6667SOL    HW220901   1.792   6.586   2.828 -1.1258  0.4726 -0.0633
 6668SOL     OW20902   5.190   0.575   0.989 -0.8461 -0.0863 -0.6017
 6668SOL    HW120903   5.104   0.591   1.035 -0.4395  1.0324 -0.2142
 6668SOL    HW220904   5.174   0.563   0.891 -1.3289  1.1990 -0.6886
 6669SOL     OW20905   0.874   2.296   4.194 -0.5337 -0.1198 -0.7245
 6669SOL    HW120906   0.915   2.205   4.207 -0.5442 -0.0778 -0.3908
 6669SOL    HW220907   0.809   2.292   4.118  0.3673 -0.0948 -1.5186
 6670SOL     OW20908   4.190   6.157   2.766 -0.0202 -0.2215 -0.4897
 6670SOL    HW120909   4.096   6.181   2.743  0.5955  2.1866 -0.7703
 6670SOL    HW220910   4.248   6.237   2.755  1.5937 -0.8449  2.4400
 6671SOL     OW20911   4.823   6.483   5.261 -0.1881  0.3178 -0.4193
 6671SOL    HW120912   4.725   6.483   5.277  0.1085  1.3107  1.7218
 6671SOL    HW220913   4.864   6.402   5.304 -0.0957 -0.3066 -1.6497
 6672SOL     OW20914   0.895   1.652   2.524  0.6146  0.1046 -0.7136
 6672SOL    HW120915   0.806   1.636   2.567 -0.7731  0.8314 -3.1656
 6672SOL    HW220916   0.924   1.746   2.542  1.3499 -0.3752  0.7875
 6673SOL     OW20917   3.195   0.323   5.136 -0.2344  0.4104 -0.2515
 6673SOL    HW120918   3.222   0.418   5.124 -0.1190  0.2836 -1.0580
 6673SOL    HW220919   3.114   0.319   5.195 -0.4055  1.0310 -0.4324
 6674SOL     OW20920   0.772   1.758   6.216 -0.4700 -0.2842 -0.1798
 6674SOL    HW120921   0.825   1.841   6.233  1.4356 -1.1897 -1.4195
 6674SOL    HW220922   0.737   1.760   6.123 -0.8674 -0.6546 -0.0411
 6675SOL     OW20923   0.486   3.926   1.943 -0.0928  0.3611  0.1799
 6675SOL    HW120924   0.426   3.974   2.008 -0.3376  0.9504 -0.4711
 6675SOL    HW220925   0.477   3.967   1.853  0.6575 -0.1029 -0.1160
 6676SOL     OW20926   1.346   4.190   6.031  0.3180  0.0990 -0.1406
 6676SOL    HW120927   1.257   4.147   6.045 -0.6546  2.4590  1.4568
 6676SOL    HW220928   1.334   4.284   6.000  2.2844  0.3771 -0.2072
 6677SOL     OW20929   2.712   5.038   4.713  0.0945 -0.6841 -0.2888
 6677SOL    HW120930   2.661   5.013   4.630  0.9508 -1.9441 -0.4605
 6677SOL    HW220931   2.777   4.966   4.735  2.1078  1.0354 -0.2949
 6678SOL     OW20932   1.074   3.347   1.506  0.3764  0.3337 -0.2739
 6678SOL    HW120933   1.015   3.295   1.445  0.6410  0.8756 -1.0098
 6678SOL    HW220934   1.018   3.406   1.564 -0.0536 -1.8934  1.7229
 6679SOL     OW20935   5.921   3.747   5.301  0.3572 -0.0890 -0.0485
 6679SOL    HW120936   5.873   3.660   5.302  0.6281 -0.2487 -0.4730
 6679SOL    HW220937   5.865   3.816   5.254 -1.1156  0.7359  2.6928
 6680SOL     OW20938   6.300   0.378   1.010  0.2014  0.1623  0.0916
 6680SOL    HW120939   6.294   0.366   0.911  0.2668  1.3506 -0.0725
 6680SOL    HW220940   6.242   0.310   1.056  0.1395 -0.3659 -0.7608
 6681SOL     OW20941   5.288   2.586   5.703  0.2619 -0.1003  0.7115
 6681SOL    HW120942   5.303   2.487   5.705  0.4573 -0.1242 -0.8071
 6681SOL    HW220943   5.191   2.605   5.689  0.3699 -0.0895 -0.0192
 6682SOL     OW20944   4.255   4.843   5.372 -0.2719 -0.4183 -0.5777
 6682SOL    HW120945   4.245   4.849   5.273  1.3432 -1.6470 -0.8632
 6682SOL    HW220946   4.341   4.887   5.400 -0.3927 -0.6358  0.1836
 6683SOL     OW20947   4.158   0.777   4.321  0.4082  0.5826 -0.3546
 6683SOL    HW120948   4.187   0.697   4.374  0.9179  1.4376  0.6953
 6683SOL    HW220949   4.064   0.801   4.345  0.5733  0.8539  0.0242
 6684SOL     OW20950   5.251   2.213   2.704 -0.3615 -0.1892 -0.5646
 6684SOL    HW120951   5.257   2.176   2.797  1.9472  0.2986 -0.4466
 6684SOL    HW220952   5.337   2.259   2.681 -1.4571  1.1116 -2.3764
 6685SOL     OW20953   6.460   5.375   1.797  0.7669 -0.1161 -0.3279
 6685SOL    HW120954   6.400   5.305   1.834  1.8270 -0.6887  0.3392
 6685SOL    HW220955   6.432   5.465   1.832  0.1136 -0.3347 -0.2763
 6686SOL     OW20956   4.126   5.737   5.795 -0.5186  0.1586  0.5445
 6686SOL    HW120957   4.210   5.715   5.844  1.9574 -0.3145 -3.5316
 6686SOL    HW220958   4.091   5.656   5.749 -1.6605  0.9686 -0.0759
 6687SOL     OW20959   5.494   1.964   4.571  0.3457 -0.4706  0.0914
 6687SOL    HW120960   5.468   2.024   4.496  1.0676 -1.4283 -0.9608
 6687SOL    HW220961   5.546   2.016   4.639 -0.9981  0.5827  0.3551
 6688SOL     OW20962   6.753   4.908   5.630  0.0369 -0.0739  0.1998
 6688SOL    HW120963   6.824   4.948   5.572  1.2294  2.5545  3.2148
 6688SOL    HW220964   6.739   4.965   5.711 -1.8365 -3.2749  2.3710
 6689SOL     OW20965   3.662   0.598   1.779  0.1755 -0.0625  0.5228
 6689SOL    HW120966   3.734   0.651   1.825  0.0783 -0.9550  1.7583
 6689SOL    HW220967   3.697   0.508   1.754 -0.2022 -0.1067  0.1390
 6690SOL     OW20968   1.335   5.496   2.187  0.8305  0.1662 -0.1753
 6690SOL    HW120969   1.322   5.589   2.150  0.7991 -0.0162 -0.6353
 6690SOL    HW220970   1.354   5.433   2.111 -2.4191 -0.8284 -0.3345
 6691SOL     OW20971   0.984   0.626   0.227 -0.4715 -0.8845  0.1121
 6691SOL    HW120972   0.916   0.553   0.230 -1.9143  0.4379  1.0626
 6691SOL    HW220973   1.013   0.648   0.321 -0.9784  0.5633 -0.0499
 6692SOL     OW20974   3.065   1.358   2.806 -0.2199 -0.4267 -0.0341
 6692SOL    HW120975   3.162   1.383   2.810  0.4217 -2.7284  0.8371
 6692SOL    HW220976   3.024   1.394   2.722  1.4440  0.3625 -0.5498
 6693SOL     OW20977   5.495   3.619   1.356  0.2008 -0.2814  0.0437
 6693SOL    HW120978   5.454   3.700   1.399 -0.7840  0.5969 -2.3345
 6693SOL    HW220979   5.449   3.537   1.388 -2.2395  0.5328 -1.0949
 6694SOL     OW20980   3.172   5.195   5.924  0.4339 -0.0853 -0.5979
 6694SOL    HW120981   3.224   5.209   6.009  0.0543  1.2608 -0.5738
 6694SOL    HW220982   3.190   5.102   5.890 -0.0661 -0.9882  1.4041
 6695SOL     OW20983   1.917   1.995   4.701 -0.0629 -0.2254 -0.0220
 6695SOL    HW120984   1.897   1.898   4.717 -1.2984  0.3014  1.9346
 6695SOL    HW220985   1.990   2.024   4.764 -1.3529  0.6512  1.1202
 6696SOL     OW20986   6.817   1.854   5.503 -0.1898  0.1863 -0.9057
 6696SOL    HW120987   6.836   1.924   5.434  0.3194  1.1413  0.1812
 6696SOL    HW220988   6.890   1.786   5.503  0.6814  1.0941 -0.1930
 6697SOL     OW20989   5.999   6.796   3.411 -0.0558 -0.0399 -0.2760
 6697SOL    HW120990   5.962   6.721   3.355 -1.0106 -0.5671  1.0128
 6697SOL    HW220991   6.062   6.758   3.479 -0.2542  0.3760  0.1410
 6698SOL     OW20992   1.682   5.253   6.792  0.2142 -0.5347  0.1587
 6698SOL    HW120993   1.625   5.171   6.794  0.3767 -0.6442  0.3595
 6698SOL    HW220994   1.741   5.252   6.711 -0.9824  0.2047 -0.7447
 6699SOL     OW20995   4.811   2.284   2.337  0.9960  0.1398 -0.1288
 6699SOL    HW120996   4.783   2.366   2.288  1.6868  0.9439  0.7816
 6699SOL    HW220997   4.853   2.220   2.273  1.4937  0.9827 -0.6624
 6700SOL     OW20998   5.642   5.701   2.554 -0.3130 -0.1394  0.0886
 6700SOL    HW120999   5.591   5.617   2.571 -0.6741  0.1465  0.4363
 6700SOL    HW221000   5.649   5.754   2.638 -2.6498  1.5773 -0.6984
 6701SOL     OW21001   0.032   3.567   1.472  0.2430 -0.4092 -0.4012
 6701SOL    HW121002  -0.010   3.488   1.427  0.7090  0.0364 -1.6834
 6701SOL    HW221003   0.000   3.574   1.566 -1.7688 -0.6735 -1.0217
 6702SOL     OW21004   0.436   6.329   2.492  0.8573 -0.3513  0.0208
 6702SOL    HW121005   0.489   6.270   2.431 -0.1862 -1.9073  0.5457
 6702SOL    HW221006   0.383   6.394   2.438  0.9256 -0.8552 -0.6617
 6703SOL     OW21007   0.138   1.509   1.662  0.2360  0.0738  0.0074
 6703SOL    HW121008   0.157   1.436   1.727  0.4608  0.5497  0.4941
 6703SOL    HW221009   0.050   1.494   1.618  1.7573 -2.3411 -2.4956
 6704SOL     OW21010   3.967   1.803   5.152  0.1590  0.2521 -1.0602
 6704SOL    HW121011   3.885   1.749   5.172  0.4972 -0.1783 -0.8349
 6704SOL    HW221012   3.946   1.900   5.162 -0.0249  0.0991  0.1386
 6705SOL     OW21013   1.505   0.589   6.778  0.3119 -0.2404  0.6701
 6705SOL    HW121014   1.550   0.509   6.737 -0.5135 -0.3613 -0.0310
 6705SOL    HW221015   1.414   0.600   6.738  0.1529  0.6589  1.2541
 6706SOL     OW21016   4.862   1.236   6.334 -0.7892  0.3177  0.2812
 6706SOL    HW121017   4.898   1.263   6.423 -0.4256  0.2155  0.1659
 6706SOL    HW221018   4.923   1.267   6.261  0.8736 -2.6968  0.2301
 6707SOL     OW21019   1.358   5.879   3.140 -0.4325  0.5356  0.7477
 6707SOL    HW121020   1.402   5.807   3.087  0.4402  1.6332 -0.0601
 6707SOL    HW221021   1.301   5.934   3.079  0.8865  2.0525  0.8264
 6708SOL     OW21022   6.359   0.137   3.629  0.5450 -0.7907 -0.0279
 6708SOL    HW121023   6.344   0.054   3.683  0.8716 -0.0945  1.1657
 6708SOL    HW221024   6.456   0.148   3.610  0.4668 -0.8554 -0.4617
 6709SOL     OW21025   5.495   5.532   1.838 -0.3406  0.3794  0.1633
 6709SOL    HW121026   5.579   5.555   1.888  0.0088  2.5831 -1.3323
 6709SOL    HW221027   5.418   5.530   1.902  0.6544 -0.6935  1.3952
 6710SOL     OW21028   6.773   1.813   5.788  0.1230  0.0559 -0.3740
 6710SOL    HW121029   6.857   1.795   5.839 -1.4301  0.6910  2.6589
 6710SOL    HW221030   6.789   1.798   5.690  3.1870 -1.7204  0.2760
 6711SOL     OW21031   5.963   4.788   5.910  0.5918 -0.0547 -0.3889
 6711SOL    HW121032   5.883   4.828   5.954 -0.3666 -2.5910  0.3600
 6711SOL    HW221033   6.027   4.757   5.980  1.3321  0.1950 -0.9401
 6712SOL     OW21034   5.407   3.280   0.274 -0.3925 -0.4630  0.0777
 6712SOL    HW121035   5.495   3.249   0.239 -0.5662 -0.9620  0.0739
 6712SOL    HW221036   5.336   3.266   0.205 -0.4419  0.1328  0.0012
 6713SOL     OW21037   1.996   5.505   4.597  0.2692 -0.1044 -0.6201
 6713SOL    HW121038   1.922   5.542   4.540 -1.0534 -1.5169  0.1051
 6713SOL    HW221039   2.058   5.451   4.540  0.2386  0.3336 -1.0798
 6714SOL     OW21040   4.190   1.613   2.677 -0.0584  0.0192 -0.5585
 6714SOL    HW121041   4.149   1.703   2.664  1.4331  0.8734  0.3377
 6714SOL    HW221042   4.210   1.572   2.588 -1.3656  0.2606 -0.9809
 6715SOL     OW21043   3.696   6.448   2.014 -0.6870 -0.0336  0.4314
 6715SOL    HW121044   3.646   6.477   2.097 -1.1202  1.6076 -0.3579
 6715SOL    HW221045   3.793   6.439   2.035 -0.7702  0.5074  1.0845
 6716SOL     OW21046   3.925   4.680   6.249 -0.4635 -0.5268  0.0692
 6716SOL    HW121047   3.873   4.765   6.253  2.0617  1.0951  2.2943
 6716SOL    HW221048   3.963   4.668   6.157  1.0968  2.1542  0.2616
 6717SOL     OW21049   6.674   3.874   2.080 -0.0648 -0.8054  0.0965
 6717SOL    HW121050   6.683   3.824   2.166  0.7814 -0.3001  0.3199
 6717SOL    HW221051   6.585   3.921   2.078 -0.1908 -1.0118  0.5948
 6718SOL     OW21052   3.892   6.688   1.318 -0.0004  0.2639 -0.0425
 6718SOL    HW121053   3.963   6.624   1.347  0.6572  0.8345 -0.3622
 6718SOL    HW221054   3.906   6.776   1.364 -0.7620  0.2476  0.2248
 6719SOL     OW21055   5.047   6.108   1.850 -0.2834  0.1256 -0.0349
 6719SOL    HW121056   5.016   6.189   1.900  0.0632  0.4987 -0.4298
 6719SOL    HW221057   5.134   6.076   1.889  0.2237  0.6885 -0.6900
 6720SOL     OW21058   4.377   1.181   6.264  0.5661  0.0630 -0.3989
 6720SOL    HW121059   4.442   1.164   6.189 -0.2252  0.4217 -1.1930
 6720SOL    HW221060   4.349   1.277   6.262 -0.8203 -0.3200 -0.7903
 6721SOL     OW21061   4.683   1.807   2.894  0.4386  0.1608  0.2607
 6721SOL    HW121062   4.676   1.868   2.815  1.9437  0.4477  0.3101
 6721SOL    HW221063   4.736   1.726   2.868 -0.3848 -0.4886  0.5691
 6722SOL     OW21064   1.357   4.648   0.080  0.0176  0.2042 -0.0576
 6722SOL    HW121065   1.437   4.703   0.055 -0.2436 -0.2587 -2.1352
 6722SOL    HW221066   1.347   4.647   0.179  1.7452  1.4459  0.1847
 6723SOL     OW21067   2.569   4.979   1.760 -0.5933 -0.0059 -0.0634
 6723SOL    HW121068   2.575   4.985   1.660 -2.4720 -1.1478 -0.2961
 6723SOL    HW221069   2.596   4.887   1.789 -1.9911 -0.3352  0.2506
 6724SOL     OW21070   5.647   3.833   3.659 -0.3001 -0.2030  0.2586
 6724SOL    HW121071   5.604   3.893   3.591  1.2113  1.5266  0.7553
 6724SOL    HW221072   5.607   3.851   3.749 -0.7979 -0.9558  0.1977
 6725SOL     OW21073   1.939   4.597   1.284 -0.2563  0.2654 -0.0658
 6725SOL    HW121074   1.880   4.669   1.246 -1.3337 -0.0316  0.9765
 6725SOL    HW221075   1.991   4.633   1.361 -2.2632 -0.4739  1.7511
 6726SOL     OW21076   0.847   1.726   3.454  0.3472 -0.6592  0.0764
 6726SOL    HW121077   0.865   1.661   3.380  0.7983 -1.8556  1.2128
 6726SOL    HW221078   0.751   1.755   3.449  0.1619 -1.3287 -0.5033
 6727SOL     OW21079   2.471   3.907   0.426  0.0365 -0.3025 -0.2889
 6727SOL    HW121080   2.485   3.919   0.327  1.0557  2.1259  0.0553
 6727SOL    HW221081   2.452   3.996   0.467 -1.0552 -1.3663  1.6413
 6728SOL     OW21082   6.802   1.343   3.247  0.4057 -0.5911 -0.4969
 6728SOL    HW121083   6.890   1.333   3.199  0.4141  3.4057 -1.6471
 6728SOL    HW221084   6.813   1.315   3.342  2.4981 -1.5300 -0.9498
 6729SOL     OW21085   1.706   2.028   6.970  0.4777  0.2469  0.5052
 6729SOL    HW121086   1.779   1.967   6.940  0.5973  0.6201  0.0071
 6729SOL    HW221087   1.730   2.122   6.944  0.2506  0.4891  1.1668
 6730SOL     OW21088   4.448   3.618   5.322  0.0461 -0.0286 -0.0871
 6730SOL    HW121089   4.435   3.712   5.351 -1.9618  0.4010 -2.0624
 6730SOL    HW221090   4.533   3.611   5.270 -0.3899  1.0343 -0.9970
 6731SOL     OW21091   2.692   6.182   2.019  0.3406  0.3099  0.0500
 6731SOL    HW121092   2.684   6.140   2.110 -0.1674  2.1715  0.9081
 6731SOL    HW221093   2.786   6.174   1.987  0.7632  0.4991  1.1962
 6732SOL     OW21094   2.241   2.426   3.167  0.0645  0.2689  0.2432
 6732SOL    HW121095   2.247   2.524   3.185 -0.7966  0.2401  0.7065
 6732SOL    HW221096   2.225   2.377   3.253  0.8006 -0.3121  0.0618
 6733SOL     OW21097   6.572   0.153   6.631 -0.1088 -0.1635 -0.1901
 6733SOL    HW121098   6.524   0.174   6.716  0.6633  1.9836 -0.2330
 6733SOL    HW221099   6.510   0.166   6.554  0.0951  1.1798 -0.1477
 6734SOL     OW21100   3.169   2.300   1.478  0.1800 -0.0376  0.1349
 6734SOL    HW121101   3.110   2.312   1.558  0.0400 -0.3751  0.0814
 6734SOL    HW221102   3.261   2.332   1.501  0.2622 -0.5871  0.5953
 6735SOL     OW21103   2.755   2.425   1.068 -0.4706  0.4631 -0.2066
 6735SOL    HW121104   2.764   2.338   1.116  0.7556  0.0737 -1.0854
 6735SOL    HW221105   2.668   2.468   1.092 -0.5029 -0.3647  1.2725
 6736SOL     OW21106   4.085   3.673   1.862 -0.0140 -0.1703 -0.0660
 6736SOL    HW121107   4.010   3.698   1.800 -0.6728 -0.1986  0.7061
 6736SOL    HW221108   4.172   3.700   1.821 -0.4839  0.4254 -0.6992
 6737SOL     OW21109   5.002   6.782   0.128  0.2305 -0.5489  0.3116
 6737SOL    HW121110   5.067   6.851   0.161 -0.4157  0.2223 -0.0062
 6737SOL    HW221111   4.910   6.821   0.126 -0.0555 -1.2368 -0.4331
 6738SOL     OW21112   3.674   4.537   6.409 -0.4252  0.4614 -0.2964
 6738SOL    HW121113   3.583   4.562   6.376 -1.9419 -1.2628  2.2128
 6738SOL    HW221114   3.739   4.609   6.386 -2.6731  2.3813 -1.0652
 6739SOL     OW21115   1.383   0.757   4.045  0.2614  0.4044 -0.3303
 6739SOL    HW121116   1.336   0.845   4.052 -0.2364  0.1042  0.1679
 6739SOL    HW221117   1.475   0.771   4.007  0.3455  1.1894  0.1495
 6740SOL     OW21118   4.138   2.426   1.435  0.4897  0.5335  0.3469
 6740SOL    HW121119   4.075   2.380   1.498 -0.4311  0.4123 -0.6261
 6740SOL    HW221120   4.211   2.471   1.487  0.2204 -0.2489  1.4367
 6741SOL     OW21121   4.774   0.564   1.998  0.1149  0.2034 -0.1052
 6741SOL    HW121122   4.816   0.622   1.929  2.2616 -1.6197 -0.4600
 6741SOL    HW221123   4.674   0.568   1.990  0.2577  0.0510 -3.3398
 6742SOL     OW21124   5.080   0.891   1.045 -0.1111 -0.5643  0.2378
 6742SOL    HW121125   5.075   0.943   0.960 -0.9594 -0.2654  0.4584
 6742SOL    HW221126   5.021   0.810   1.039  0.5334 -1.0383  0.2126
 6743SOL     OW21127   4.937   5.869   3.556 -0.1361  0.0338  0.7974
 6743SOL    HW121128   4.863   5.872   3.488  0.1282 -1.1828  0.4212
 6743SOL    HW221129   4.944   5.957   3.602 -0.9018  0.6053 -0.1433
 6744SOL     OW21130   2.245   2.749   6.911 -0.3154  0.1000 -0.1362
 6744SOL    HW121131   2.313   2.684   6.944 -1.2439 -1.1064 -0.5266
 6744SOL    HW221132   2.192   2.784   6.989 -1.4488 -1.5268 -0.1286
 6745SOL     OW21133   5.404   4.293   1.604 -0.1863 -0.2227 -0.2697
 6745SOL    HW121134   5.450   4.266   1.520  0.7455 -1.7983  0.6841
 6745SOL    HW221135   5.402   4.215   1.667 -1.9531  0.5464  0.7072
 6746SOL     OW21136   0.292   3.113   2.635 -0.2084  0.4848  0.4178
 6746SOL    HW121137   0.272   3.187   2.699 -0.6562  1.1087 -0.4172
 6746SOL    HW221138   0.295   3.149   2.542  0.0853 -0.4595  0.0449
 6747SOL     OW21139   1.947   1.227   6.034 -0.2437 -0.4110  0.6545
 6747SOL    HW121140   1.949   1.279   5.949 -0.2834 -1.0625  0.2461
 6747SOL    HW221141   1.975   1.132   6.017  1.5373 -0.1088  1.7059
 6748SOL     OW21142   3.879   0.724   3.603 -0.4130 -0.0507 -0.5169
 6748SOL    HW121143   3.964   0.772   3.580  0.3364 -0.6771  0.8323
 6748SOL    HW221144   3.857   0.659   3.530  2.1780 -2.3449  0.5523
 6749SOL     OW21145   6.449   5.792   5.713  0.6851 -0.3441  0.4964
 6749SOL    HW121146   6.378   5.861   5.704  1.5951  0.7867  1.6523
 6749SOL    HW221147   6.414   5.713   5.763 -1.0614 -1.8436 -2.7386
 6750SOL     OW21148   4.330   5.384   2.484  0.1462 -0.0151  0.0738
 6750SOL    HW121149   4.257   5.381   2.552 -0.1458  1.3296 -0.1576
 6750SOL    HW221150   4.382   5.469   2.494  0.2677  0.0830 -1.1977
 6751SOL     OW21151   6.451   3.257   5.335  0.1172 -0.7335  0.0968
 6751SOL    HW121152   6.455   3.158   5.339  0.7908 -0.6830  1.5697
 6751SOL    HW221153   6.526   3.295   5.390 -0.1263  0.5917 -0.4462
 6752SOL     OW21154   5.794   3.609   0.786  0.0970  0.0868  0.1802
 6752SOL    HW121155   5.870   3.592   0.850 -0.8630  0.6521  1.5252
 6752SOL    HW221156   5.707   3.594   0.833 -0.6509 -0.3013 -1.2659
 6753SOL     OW21157   6.916   6.190   4.783 -0.7137 -0.8721  0.0980
 6753SOL    HW121158   6.938   6.198   4.880  1.1262 -0.3232 -0.3386
 6753SOL    HW221159   6.890   6.280   4.747  0.9951 -0.5631 -0.4377
 6754SOL     OW21160   2.673   5.884   3.487 -0.1459 -0.1972 -0.2238
 6754SOL    HW121161   2.617   5.858   3.566 -0.1484 -0.2681 -0.2497
 6754SOL    HW221162   2.615   5.927   3.418 -0.5516 -2.1892 -1.1786
 6755SOL     OW21163   4.755   6.885   1.041  0.7920  0.0450 -0.2571
 6755SOL    HW121164   4.791   6.792   1.031 -1.3254 -1.0275  1.3584
 6755SOL    HW221165   4.759   6.912   1.137  0.8834  1.4215 -0.6377
 6756SOL     OW21166   1.736   7.013   6.814  0.7832  0.4341  0.1494
 6756SOL    HW121167   1.726   6.918   6.782  1.9246  0.1101  0.7150
 6756SOL    HW221168   1.813   7.019   6.878 -0.1839  1.4670  1.2589
 6757SOL     OW21169   6.537   4.071   5.441 -0.7560  0.2471  0.4680
 6757SOL    HW121170   6.597   4.094   5.364 -1.2541 -1.3567 -0.4527
 6757SOL    HW221171   6.577   4.106   5.526  1.2724 -0.3756 -0.1576
 6758SOL     OW21172   1.333   0.883   2.670 -0.3492  0.0089 -0.4062
 6758SOL    HW121173   1.341   0.980   2.693 -0.6860  0.0953 -0.6573
 6758SOL    HW221174   1.270   0.839   2.734 -1.0299  0.1807 -0.9505
 6759SOL     OW21175   5.402   0.937   1.744 -0.0485 -0.2701  0.1287
 6759SOL    HW121176   5.363   0.865   1.687 -0.8223  0.6705 -0.5687
 6759SOL    HW221177   5.475   0.983   1.694 -0.1328 -0.0181  0.2349
 6760SOL     OW21178   0.262   2.504   5.929 -0.3076 -0.4303  0.1904
 6760SOL    HW121179   0.181   2.555   5.900 -0.4480 -1.0528 -0.5394
 6760SOL    HW221180   0.303   2.548   6.009 -0.7485  0.4968 -0.0897
 6761SOL     OW21181   3.889   1.914   4.322 -0.0970  0.0859 -0.3882
 6761SOL    HW121182   3.801   1.958   4.340 -0.4335 -0.6133 -0.2712
 6761SOL    HW221183   3.890   1.825   4.367  1.1736  0.6240  0.7063
 6762SOL     OW21184   4.409   2.270   5.872  0.0133  0.1457 -0.6930
 6762SOL    HW121185   4.347   2.345   5.845  0.9479  1.0206 -0.4824
 6762SOL    HW221186   4.499   2.308   5.895  0.3426 -0.9911 -0.0163
 6763SOL     OW21187   5.558   4.362   1.141  0.2160  0.0804 -0.5907
 6763SOL    HW121188   5.651   4.368   1.175 -0.0970  0.1440  0.2661
 6763SOL    HW221189   5.499   4.320   1.210 -0.3828 -0.0115 -1.1415
 6764SOL     OW21190   4.940   3.557   4.147 -0.0679 -0.3586  0.3458
 6764SOL    HW121191   4.994   3.587   4.069  0.1435 -0.5668  0.4091
 6764SOL    HW221192   4.843   3.558   4.124 -0.2698  2.3931  1.0069
 6765SOL     OW21193   4.690   0.533   6.559  0.0714  0.2146 -0.4310
 6765SOL    HW121194   4.741   0.497   6.481 -0.0047  0.1233 -0.4396
 6765SOL    HW221195   4.668   0.629   6.544 -1.0222 -0.1209 -1.0824
 6766SOL     OW21196   2.087   6.824   5.570  0.7587  0.0443  0.0211
 6766SOL    HW121197   2.084   6.728   5.542  0.2142 -0.4661  1.7071
 6766SOL    HW221198   2.181   6.857   5.569  1.0177 -0.6911  0.0264
 6767SOL     OW21199   6.204   2.129   0.988 -0.5541 -0.2244 -0.1677
 6767SOL    HW121200   6.138   2.150   0.916 -1.3100 -0.3170  0.4871
 6767SOL    HW221201   6.289   2.180   0.971 -0.7886 -0.1022 -1.0173
 6768SOL     OW21202   4.362   0.024   5.858 -0.1560  0.0237 -0.2437
 6768SOL    HW121203   4.290   0.090   5.838 -1.6803 -1.7555 -0.9174
 6768SOL    HW221204   4.340  -0.024   5.943 -0.4325 -1.3723 -1.0818
 6769SOL     OW21205   1.424   3.759   5.449  0.1373  0.3513  0.0108
 6769SOL    HW121206   1.502   3.821   5.456 -1.0316  1.8002  0.6119
 6769SOL    HW221207   1.396   3.729   5.540 -0.3680  0.2873 -0.1627
 6770SOL     OW21208   5.769   2.021   3.317  0.3536 -0.0285  0.7997
 6770SOL    HW121209   5.775   2.117   3.289 -0.9877  0.1586  1.0915
 6770SOL    HW221210   5.771   1.963   3.236 -1.6261  0.4110  0.3831
 6771SOL     OW21211   0.069   0.063   1.791 -0.8237  0.2929 -0.1986
 6771SOL    HW121212   0.106   0.131   1.728 -0.4072  0.6957  0.4657
 6771SOL    HW221213  -0.031   0.069   1.792 -0.7645  1.5404  0.5395
 6772SOL     OW21214   3.339   0.777   2.346 -0.0099 -0.6197  0.4128
 6772SOL    HW121215   3.367   0.859   2.296  1.2529 -1.2148  0.1153
 6772SOL    HW221216   3.306   0.804   2.437 -4.3283  0.7208 -1.2777
 6773SOL     OW21217   4.002   1.753   0.472 -0.1576  0.0295  0.2513
 6773SOL    HW121218   4.075   1.814   0.502 -0.7543  0.5069  0.7471
 6773SOL    HW221219   3.936   1.804   0.417  0.2563 -0.5589 -0.8205
 6774SOL     OW21220   2.538   5.382   5.079 -0.1139  0.2952  0.0533
 6774SOL    HW121221   2.447   5.386   5.038  0.8842 -1.1656 -2.4959
 6774SOL    HW221222   2.578   5.292   5.064  2.6473  1.5715 -0.9403
 6775SOL     OW21223   0.445   4.120   5.701 -0.0730 -0.3351  0.0306
 6775SOL    HW121224   0.514   4.048   5.714 -0.0958 -0.2959  0.3800
 6775SOL    HW221225   0.406   4.112   5.610  0.2904 -0.4504 -0.1173
 6776SOL     OW21226   2.891   2.677   1.719 -0.1689 -0.4141 -0.2845
 6776SOL    HW121227   2.923   2.600   1.773 -0.7206 -0.7410 -0.4208
 6776SOL    HW221228   2.856   2.645   1.632  0.2832  0.0668 -0.6546
 6777SOL     OW21229   0.692   1.935   3.200  0.7536 -0.1424  0.9277
 6777SOL    HW121230   0.747   2.014   3.227 -0.7768  0.9195  1.0861
 6777SOL    HW221231   0.652   1.893   3.282  0.3816 -0.1844  0.7248
 6778SOL     OW21232   0.863   4.623   4.646  0.9007 -0.2231 -0.4360
 6778SOL    HW121233   0.888   4.637   4.742 -1.0453  2.1849 -0.1814
 6778SOL    HW221234   0.805   4.542   4.637  0.0897  0.2233  0.6437
 6779SOL     OW21235   6.439   2.313   0.998 -0.0161 -0.2542  0.0254
 6779SOL    HW121236   6.456   2.387   1.063 -0.2057 -0.1750 -0.0140
 6779SOL    HW221237   6.491   2.232   1.025 -0.3697 -0.3336  0.4723
 6780SOL     OW21238   6.236   3.701   3.946 -0.3184  0.5027  0.5547
 6780SOL    HW121239   6.301   3.777   3.949  0.1606  0.1264 -0.2433
 6780SOL    HW221240   6.224   3.664   4.038  2.4246 -0.9500  0.4281
 6781SOL     OW21241   2.596   3.621   1.661 -0.2635  0.7424  0.2197
 6781SOL    HW121242   2.530   3.570   1.716 -0.7334  0.8006 -0.2716
 6781SOL    HW221243   2.560   3.713   1.644  0.6639  1.3100  1.2640
 6782SOL     OW21244   5.463   4.174   3.187  0.0645 -0.0312 -0.4035
 6782SOL    HW121245   5.395   4.225   3.241  0.1273 -0.0998 -0.2581
 6782SOL    HW221246   5.518   4.238   3.134 -0.8878 -0.0492 -1.4381
 6783SOL     OW21247   3.899   6.686   0.234  0.3162 -0.2549 -0.0300
 6783SOL    HW121248   3.930   6.697   0.139  0.1137  0.2738 -0.0356
 6783SOL    HW221249   3.963   6.732   0.296  1.7699 -2.5737  0.3142
 6784SOL     OW21250   6.727   6.126   5.378 -0.4622 -0.3179  0.6067
 6784SOL    HW121251   6.735   6.138   5.477  0.1108 -2.2113  0.8399
 6784SOL    HW221252   6.810   6.083   5.343  0.0948  1.9175 -1.0291
 6785SOL     OW21253   1.473   5.248   1.028  0.1103  0.3400  0.3288
 6785SOL    HW121254   1.403   5.277   0.962 -0.7761 -0.1125  1.0522
 6785SOL    HW221255   1.538   5.323   1.042  0.6793  0.2551 -1.4876
 6786SOL     OW21256   5.876   4.638   1.097  0.6783 -0.0163  0.1257
 6786SOL    HW121257   5.890   4.698   1.176 -0.7435 -1.0557  1.2084
 6786SOL    HW221258   5.801   4.674   1.041 -0.9128 -1.2623  1.3548
 6787SOL     OW21259   1.363   2.112   3.375 -0.0433  0.0607 -0.5827
 6787SOL    HW121260   1.379   2.036   3.313  1.2073  0.0991 -0.3289
 6787SOL    HW221261   1.346   2.077   3.467  0.1701  0.0795 -0.5367
 6788SOL     OW21262   4.735   5.477   4.979  0.0446 -0.1574 -0.3605
 6788SOL    HW121263   4.736   5.575   4.999  0.1725 -0.3725  0.7713
 6788SOL    HW221264   4.658   5.456   4.920 -0.4633  0.5076  0.0538
 6789SOL     OW21265   6.470   5.322   2.380 -0.0919  0.1381  0.2210
 6789SOL    HW121266   6.407   5.304   2.456  0.0943 -1.7240 -0.0180
 6789SOL    HW221267   6.442   5.269   2.300 -0.2681  2.0347 -1.0652
 6790SOL     OW21268   0.028   6.827   1.377  0.2653  0.1083 -0.0534
 6790SOL    HW121269   0.006   6.925   1.370  0.5821  0.3947  2.1473
 6790SOL    HW221270   0.127   6.816   1.376  0.2264 -0.4092 -2.0839
 6791SOL     OW21271   6.273   4.586   4.470 -0.3135  0.1412 -0.3022
 6791SOL    HW121272   6.215   4.565   4.549 -2.4919  1.0203 -1.5936
 6791SOL    HW221273   6.238   4.539   4.389 -0.6379  2.4756 -1.5894
 6792SOL     OW21274   1.426   0.292   2.916 -0.3265  0.1856 -0.1532
 6792SOL    HW121275   1.468   0.202   2.928 -1.4452 -0.4663 -0.9142
 6792SOL    HW221276   1.449   0.328   2.826  1.0319  1.1982  0.5572
 6793SOL     OW21277   0.114   6.716   5.047  0.3782  0.0705  0.0339
 6793SOL    HW121278   0.087   6.687   4.955  0.1538  0.0682  0.1000
 6793SOL    HW221279   0.207   6.752   5.045 -0.1931  1.5889 -0.5010
 6794SOL     OW21280   6.923   1.444   0.047  0.4857  0.0704 -0.9700
 6794SOL    HW121281   6.992   1.435  -0.025 -0.6675 -0.2878 -2.0590
 6794SOL    HW221282   6.929   1.364   0.107  1.4313  0.3537 -0.6597
 6795SOL     OW21283   2.970   5.174   1.268  0.1401  0.1854 -0.1926
 6795SOL    HW121284   2.901   5.118   1.222  1.4240 -0.4140 -1.4207
 6795SOL    HW221285   2.999   5.248   1.208  1.6646 -0.4621 -0.3005
 6796SOL     OW21286   5.823   5.602   1.553 -0.0420 -0.0693 -0.1473
 6796SOL    HW121287   5.727   5.592   1.527 -0.6385  1.2644  1.3793
 6796SOL    HW221288   5.859   5.688   1.515 -0.3320  0.8758  1.6302
 6797SOL     OW21289   1.748   6.906   3.530  0.5344  0.1055 -0.1575
 6797SOL    HW121290   1.831   6.932   3.480  1.0431 -1.0069  0.0688
 6797SOL    HW221291   1.766   6.909   3.628  0.9536 -2.0146 -0.1237
 6798SOL     OW21292   2.275   6.710   0.737 -0.2363  0.6304  0.0151
 6798SOL    HW121293   2.348   6.642   0.751  0.3796  0.7612 -2.2307
 6798SOL    HW221294   2.215   6.710   0.817  0.1609 -2.0484  0.4244
 6799SOL     OW21295   2.072   5.845   0.793  0.7382  0.2333  0.2665
 6799SOL    HW121296   2.001   5.914   0.781  3.0822  2.6283 -0.8599
 6799SOL    HW221297   2.143   5.880   0.854  2.8197 -0.4089 -1.6203
 6800SOL     OW21298   4.765   2.802   4.749 -0.7223 -0.0918  0.3061
 6800SOL    HW121299   4.784   2.899   4.735 -0.4644 -0.0589  0.8613
 6800SOL    HW221300   4.730   2.787   4.841  1.2191 -0.7961  0.9776
 6801SOL     OW21301   6.774   0.957   6.728  0.0414  0.3781  0.4121
 6801SOL    HW121302   6.852   1.020   6.731 -0.5158  1.1099  0.0377
 6801SOL    HW221303   6.805   0.867   6.698  0.7224  0.7044  0.1026
 6802SOL     OW21304   2.000   2.312   4.425  0.1015  0.1156 -0.1671
 6802SOL    HW121305   2.049   2.283   4.508 -0.5070  1.1221  0.5576
 6802SOL    HW221306   2.052   2.383   4.379  0.2026 -0.1060 -0.4011
 6803SOL     OW21307   1.764   1.429   4.359 -0.2353 -0.2968  0.2401
 6803SOL    HW121308   1.690   1.389   4.304 -0.3806 -0.2092  0.3715
 6803SOL    HW221309   1.832   1.359   4.379 -0.1625 -0.3223 -0.0845
 6804SOL     OW21310   3.426   1.293   1.410  0.4733  0.2386 -0.3962
 6804SOL    HW121311   3.475   1.305   1.497  0.1938  0.7261 -0.3062
 6804SOL    HW221312   3.475   1.226   1.354  0.8680  0.2081 -0.0233
 6805SOL     OW21313   6.565   6.229   2.576  0.6476  0.7790  0.6603
 6805SOL    HW121314   6.605   6.265   2.491  1.5345 -0.8493  0.3664
 6805SOL    HW221315   6.468   6.257   2.580  0.6346  1.0455 -0.7888
 6806SOL     OW21316   5.409   4.836   1.718 -0.2675 -0.5673  0.2269
 6806SOL    HW121317   5.493   4.884   1.693 -0.1547  0.2850  2.0543
 6806SOL    HW221318   5.413   4.742   1.686  0.4880  0.0176 -1.4874
 6807SOL     OW21319   2.124   0.113   3.011  0.3263 -0.0011 -0.3610
 6807SOL    HW121320   2.077   0.139   2.927  2.3803  1.6263 -1.1048
 6807SOL    HW221321   2.095   0.174   3.085 -0.7921 -0.8383 -0.0857
 6808SOL     OW21322   2.174   3.493   1.638 -0.1635 -0.3311 -0.4614
 6808SOL    HW121323   2.085   3.536   1.652  1.0316  2.0796  0.2144
 6808SOL    HW221324   2.222   3.485   1.725  1.1568  0.4909 -1.0842
 6809SOL     OW21325   6.922   0.148   5.245 -0.2786  0.4127  0.2992
 6809SOL    HW121326   6.899   0.080   5.314  0.0979  0.0420  0.0724
 6809SOL    HW221327   7.010   0.124   5.203 -0.1042  1.0814  0.2637
 6810SOL     OW21328   1.527   2.800   2.871  0.2634 -0.1940 -0.3608
 6810SOL    HW121329   1.570   2.868   2.813 -0.0126  0.2939 -0.0017
 6810SOL    HW221330   1.433   2.828   2.892  0.2157 -0.5781 -0.0413
 6811SOL     OW21331   3.166   1.617   2.291  0.3028 -0.0906  0.3067
 6811SOL    HW121332   3.128   1.649   2.205  0.6832 -1.0522 -0.2307
 6811SOL    HW221333   3.264   1.637   2.294  0.2694  0.0365  0.5622
 6812SOL     OW21334   2.494   1.062   1.777  0.0754 -0.4590  0.0765
 6812SOL    HW121335   2.416   1.110   1.818 -1.2056 -2.8001  0.5771
 6812SOL    HW221336   2.569   1.057   1.843  0.6292  1.6475 -0.3393
 6813SOL     OW21337   0.500   3.621   1.919  0.3985  0.5689 -0.3843
 6813SOL    HW121338   0.541   3.712   1.926  1.0577  0.2619 -0.1995
 6813SOL    HW221339   0.549   3.557   1.978 -0.3683  0.1936 -0.1341
 6814SOL     OW21340   2.379   6.506   2.939 -0.1253 -0.0530  1.1536
 6814SOL    HW121341   2.283   6.482   2.925 -0.2889  1.1315  0.0613
 6814SOL    HW221342   2.404   6.583   2.879  1.9409 -1.3636  0.2194
 6815SOL     OW21343   2.829   5.899   4.464 -0.1182 -0.0583 -0.3898
 6815SOL    HW121344   2.875   5.976   4.508  0.5348  1.3182 -3.2152
 6815SOL    HW221345   2.896   5.826   4.449  0.9609  1.3581 -3.1659
 6816SOL     OW21346   4.036   6.847   0.631  0.2266 -0.3833 -0.3723
 6816SOL    HW121347   3.971   6.920   0.607  0.5430 -0.4616 -1.5060
 6816SOL    HW221348   4.114   6.887   0.679  0.1421 -0.0564 -0.5035
 6817SOL     OW21349   0.023   5.134   2.865 -0.6303  0.0603 -0.1638
 6817SOL    HW121350  -0.055   5.188   2.834  0.1197  0.5124 -1.3207
 6817SOL    HW221351   0.027   5.048   2.814  0.2289  0.5146 -0.8943
 6818SOL     OW21352   2.020   0.446   2.937  0.2310 -0.0946  0.3877
 6818SOL    HW121353   2.084   0.517   2.964  1.2355 -1.3565  1.4920
 6818SOL    HW221354   2.058   0.394   2.860 -1.1507  1.4110 -1.4126
 6819SOL     OW21355   5.096   3.635   2.792  0.2258 -0.1157  0.2369
 6819SOL    HW121356   5.187   3.673   2.808 -0.1566  0.7957  0.3214
 6819SOL    HW221357   5.031   3.710   2.776 -0.4706 -0.7616 -0.0127
 6820SOL     OW21358   0.198   0.687   0.799 -0.0662  0.1810 -0.5943
 6820SOL    HW121359   0.295   0.699   0.776  0.1080  1.0928  0.5255
 6820SOL    HW221360   0.186   0.605   0.854  0.1850  0.4483 -0.1348
 6821SOL     OW21361   2.943   1.395   5.676 -0.4032 -0.0302 -0.4842
 6821SOL    HW121362   2.874   1.465   5.692  1.8360  2.1022  0.4509
 6821SOL    HW221363   2.944   1.332   5.754  0.1688  1.2589  0.5878
 6822SOL     OW21364   0.650   5.239   3.533 -0.1223  0.4692  0.0173
 6822SOL    HW121365   0.669   5.141   3.537  2.1864  0.9046  1.9809
 6822SOL    HW221366   0.716   5.284   3.473 -0.8453  0.9184 -0.4653
 6823SOL     OW21367   5.686   4.812   6.958  0.3609  0.0082  0.4363
 6823SOL    HW121368   5.688   4.751   7.037  0.6248 -1.5751 -0.7521
 6823SOL    HW221369   5.592   4.823   6.926  0.1015  1.5666  1.6071
 6824SOL     OW21370   1.800   5.200   3.724 -0.1888 -0.3199  0.5513
 6824SOL    HW121371   1.828   5.117   3.772 -0.9346 -0.6818  0.3674
 6824SOL    HW221372   1.862   5.217   3.647  0.0732 -0.5962  0.7005
 6825SOL     OW21373   4.090   5.062   0.828  0.2055 -0.0047 -0.0790
 6825SOL    HW121374   4.170   5.003   0.817  0.3690 -0.0705  1.2380
 6825SOL    HW221375   4.062   5.062   0.924 -0.9393  0.5898 -0.3964
 6826SOL     OW21376   6.573   5.239   5.826 -0.4102 -0.2973  0.8352
 6826SOL    HW121377   6.597   5.309   5.893 -0.1373 -1.3708  1.8973
 6826SOL    HW221378   6.617   5.153   5.851  0.1281 -0.5955 -1.0381
 6827SOL     OW21379   4.678   5.340   6.132 -0.5104  0.0558 -0.0496
 6827SOL    HW121380   4.641   5.422   6.175 -0.7778 -0.2720  0.3525
 6827SOL    HW221381   4.728   5.286   6.200 -2.7228 -1.5421  0.4262
 6828SOL     OW21382   5.208   2.130   1.388 -0.3221 -0.7652  0.0956
 6828SOL    HW121383   5.170   2.144   1.479 -0.5645 -0.1727 -0.0940
 6828SOL    HW221384   5.214   2.032   1.369 -0.2213 -0.8898  0.7666
 6829SOL     OW21385   2.618   4.444   6.744 -0.1694  0.6067 -0.3920
 6829SOL    HW121386   2.688   4.396   6.798  0.1569  1.1320 -0.3427
 6829SOL    HW221387   2.560   4.498   6.805 -0.4074  0.4403 -0.4693
 6830SOL     OW21388   0.633   1.141   4.245  1.0111  0.1747  0.2560
 6830SOL    HW121389   0.707   1.081   4.276  0.1611 -0.6786  0.7089
 6830SOL    HW221390   0.663   1.193   4.165  2.0288 -0.2862  0.3240
 6831SOL     OW21391   4.533   1.252   4.053 -0.3334  0.0421  0.3273
 6831SOL    HW121392   4.433   1.253   4.052 -0.6823 -3.3865 -4.5827
 6831SOL    HW221393   4.565   1.167   4.096  0.1078 -0.8379 -1.6144
 6832SOL     OW21394   0.988   2.068   4.239 -0.4543  0.0124 -0.0459
 6832SOL    HW121395   1.030   2.010   4.168  0.4040  0.2720  0.2384
 6832SOL    HW221396   1.037   2.055   4.325 -1.7728 -0.6379  0.6315
 6833SOL     OW21397   2.582   0.165   1.452  0.5490  0.0294  0.1126
 6833SOL    HW121398   2.611   0.070   1.464  0.3674 -0.2216 -1.2068
 6833SOL    HW221399   2.657   0.227   1.476  0.5568 -0.4170  1.3010
 6834SOL     OW21400   4.260   2.625   6.928  0.2305 -0.2356  1.0203
 6834SOL    HW121401   4.305   2.556   6.872 -0.7011  0.1342 -0.2440
 6834SOL    HW221402   4.279   2.608   7.025  1.1158 -1.4486  0.6516
 6835SOL     OW21403   5.648   0.599   6.278  0.0374 -0.6347  0.0035
 6835SOL    HW121404   5.698   0.681   6.249 -0.5843 -0.2622 -0.0179
 6835SOL    HW221405   5.659   0.527   6.209 -1.7461  0.3636 -1.4105
 6836SOL     OW21406   4.255   0.999   0.834  0.6125 -0.1537  0.3984
 6836SOL    HW121407   4.156   0.986   0.823  0.5793 -0.2529  0.7735
 6836SOL    HW221408   4.294   1.032   0.749  0.0218  1.2946  0.6594
 6837SOL     OW21409   4.101   0.096   1.822  0.1957 -0.1781  0.2488
 6837SOL    HW121410   4.082   0.000   1.842  0.6688 -0.0881  1.1801
 6837SOL    HW221411   4.032   0.131   1.758  0.1315 -1.1832 -0.2503
 6838SOL     OW21412   3.891   5.074   5.418 -0.1734  0.2157  0.8773
 6838SOL    HW121413   3.884   5.144   5.347 -0.2663 -0.4388  0.2360
 6838SOL    HW221414   3.917   4.987   5.377  0.4751 -0.0104  1.7433
 6839SOL     OW21415   6.379   0.626   4.778 -0.2636 -0.1019 -0.2707
 6839SOL    HW121416   6.442   0.671   4.716 -1.5828  0.7873 -1.0131
 6839SOL    HW221417   6.285   0.654   4.757 -0.7868 -0.0512  1.8840
 6840SOL     OW21418   2.445   1.479   5.486  0.0307  0.1454 -0.0123
 6840SOL    HW121419   2.348   1.460   5.474 -0.2754  0.4637  1.6914
 6840SOL    HW221420   2.499   1.418   5.427 -1.1683 -0.4744 -0.4971
 6841SOL     OW21421   0.295   0.202   3.119 -0.1067 -0.1183 -0.3808
 6841SOL    HW121422   0.288   0.112   3.076  0.3984  0.2945 -1.3666
 6841SOL    HW221423   0.391   0.230   3.122 -0.2248  0.2443  0.2293
 6842SOL     OW21424   4.794   4.902   1.770 -0.3930 -0.6452 -0.2501
 6842SOL    HW121425   4.862   4.971   1.792 -0.3868 -0.1467 -1.6835
 6842SOL    HW221426   4.835   4.811   1.776  0.2729 -0.3750 -0.6032
 6843SOL     OW21427   1.862   4.822   4.168 -0.3644 -0.0372 -0.0876
 6843SOL    HW121428   1.871   4.723   4.173 -2.2488 -0.2842 -0.9343
 6843SOL    HW221429   1.879   4.852   4.074  0.3381  0.4852  0.1926
 6844SOL     OW21430   5.707   2.575   4.372  0.3915  0.3883  0.3346
 6844SOL    HW121431   5.651   2.657   4.384  1.1845  1.1300 -0.8481
 6844SOL    HW221432   5.722   2.531   4.461 -1.3129  0.6535  0.7882
 6845SOL     OW21433   6.134   3.663   1.534 -0.3348  0.3452  0.1490
 6845SOL    HW121434   6.195   3.583   1.531  0.1683  0.6336  1.6604
 6845SOL    HW221435   6.051   3.640   1.584 -1.3198  0.0912 -1.5181
 6846SOL     OW21436   4.168   6.257   5.334 -0.1918  0.3573  0.1351
 6846SOL    HW121437   4.183   6.158   5.340 -0.9226  0.1305 -1.3930
 6846SOL    HW221438   4.252   6.305   5.359 -0.1372 -0.5977  2.0014
 6847SOL     OW21439   6.058   0.639   5.342  0.7734  0.0584 -0.2635
 6847SOL    HW121440   6.059   0.733   5.374 -0.1180  0.1119 -0.3744
 6847SOL    HW221441   6.150   0.613   5.310  1.5252  0.2304  1.6288
 6848SOL     OW21442   2.985   5.635   1.408  0.1620 -0.0599  0.1028
 6848SOL    HW121443   3.023   5.726   1.425  0.6357 -0.3179  0.4658
 6848SOL    HW221444   2.895   5.627   1.450 -0.2693  0.5336 -0.6913
 6849SOL     OW21445   6.960   2.854   2.785  0.1780 -0.2269  0.3542
 6849SOL    HW121446   6.893   2.797   2.738  0.6396 -1.7609  1.4809
 6849SOL    HW221447   6.967   2.943   2.738 -1.1058 -0.7942 -0.9958
 6850SOL     OW21448   4.470   4.552   4.196  0.4740  0.2785  0.4554
 6850SOL    HW121449   4.434   4.599   4.116  0.7916 -1.0729 -0.5237
 6850SOL    HW221450   4.436   4.596   4.279  0.8053  2.2311 -0.3841
 6851SOL     OW21451   2.872   4.819   0.245 -0.7235  0.2417 -0.0747
 6851SOL    HW121452   2.904   4.884   0.313  0.0424 -0.7781  0.5654
 6851SOL    HW221453   2.826   4.868   0.171 -0.4368  1.4709  0.5391
 6852SOL     OW21454   5.027   0.630   6.460  0.3190 -0.2354  0.5076
 6852SOL    HW121455   5.025   0.683   6.375 -1.6283 -0.0618  0.6183
 6852SOL    HW221456   5.122   0.614   6.487  0.9687  1.0819 -0.8418
 6853SOL     OW21457   0.748   3.696   6.475 -0.6847  0.2450  0.5606
 6853SOL    HW121458   0.690   3.642   6.537  0.0516 -1.1950  0.0510
 6853SOL    HW221459   0.833   3.646   6.457 -0.9151  0.5441 -1.6894
 6854SOL     OW21460   6.059   6.919   2.464  0.2774  0.1094 -0.2648
 6854SOL    HW121461   6.070   6.871   2.551  1.9724  0.6419 -0.1420
 6854SOL    HW221462   6.059   7.017   2.480 -1.1986  0.1936 -0.7068
 6855SOL     OW21463   1.762   0.043   5.120  0.5617 -0.0891 -0.3419
 6855SOL    HW121464   1.796  -0.024   5.187 -3.0634  0.1253  2.0126
 6855SOL    HW221465   1.715  -0.005   5.046 -0.6267 -0.2287  0.4856
 6856SOL     OW21466   0.862   5.994   2.789 -0.2104  0.1749  0.5693
 6856SOL    HW121467   0.950   6.009   2.744 -0.2941 -1.7544 -0.3154
 6856SOL    HW221468   0.810   5.924   2.740 -2.9265  2.2716  0.1866
 6857SOL     OW21469   0.822   6.807   0.772  0.2268  0.0450 -0.0729
 6857SOL    HW121470   0.729   6.842   0.758  0.4934  0.3728 -1.1983
 6857SOL    HW221471   0.866   6.796   0.683  1.3851  0.2298  0.4647
 6858SOL     OW21472   0.806   5.724   4.592 -0.1154  0.2175 -0.0442
 6858SOL    HW121473   0.721   5.719   4.539 -0.3097  2.3418 -0.0244
 6858SOL    HW221474   0.882   5.748   4.532  0.0213  0.7177  0.3216
 6859SOL     OW21475   1.647   1.082   0.326 -0.2396 -0.1390  0.1838
 6859SOL    HW121476   1.686   1.171   0.349  0.1350 -0.7290  1.9789
 6859SOL    HW221477   1.720   1.015   0.319 -0.6424 -0.5987  0.3132
 6860SOL     OW21478   2.163   5.457   3.137 -0.2240 -0.3624  0.5260
 6860SOL    HW121479   2.218   5.534   3.104 -0.7917 -0.5577 -0.9567
 6860SOL    HW221480   2.196   5.429   3.227  1.7004 -0.0577 -0.0262
 6861SOL     OW21481   6.811   4.746   3.965  0.0631 -0.0430  0.4124
 6861SOL    HW121482   6.813   4.715   4.060 -0.5051  1.1518  0.8225
 6861SOL    HW221483   6.867   4.828   3.955  1.3557 -0.9918 -0.6191
 6862SOL     OW21484   0.872   5.943   3.249 -0.0614  0.0353  0.5350
 6862SOL    HW121485   0.773   5.940   3.253 -0.0405 -1.1539  0.5265
 6862SOL    HW221486   0.903   5.909   3.160  0.3297  1.4577  0.1000
 6863SOL     OW21487   0.903   1.556   1.614  0.0998 -0.2638  0.3179
 6863SOL    HW121488   0.850   1.525   1.535  1.1076 -1.2354 -0.0217
 6863SOL    HW221489   0.885   1.652   1.631  0.2082  0.0995 -1.4087
 6864SOL     OW21490   4.339   1.859   2.035 -0.0697 -0.3663  0.0935
 6864SOL    HW121491   4.385   1.944   2.010 -0.7382 -0.5394 -1.9042
 6864SOL    HW221492   4.300   1.868   2.126  0.0772  1.3867  0.0199
 6865SOL     OW21493   2.057   5.440   4.124  0.0375  0.1977 -0.3092
 6865SOL    HW121494   1.984   5.487   4.075 -0.6423  0.3688  0.8382
 6865SOL    HW221495   2.135   5.426   4.062 -0.2119  1.7238 -1.0049
 6866SOL     OW21496   0.708   6.802   6.367  0.3267  0.0710  0.1524
 6866SOL    HW121497   0.704   6.866   6.444  0.6438  0.0942  0.1489
 6866SOL    HW221498   0.715   6.709   6.401 -3.6785 -0.3661  0.2937
 6867SOL     OW21499   1.127   0.928   5.737 -0.3368  0.0616  0.0743
 6867SOL    HW121500   1.182   0.907   5.818 -0.1724  0.8853  0.1771
 6867SOL    HW221501   1.161   1.012   5.694 -0.7385 -0.0959 -0.5666
 6868SOL     OW21502   1.080   5.526   4.645 -0.0655  0.5519 -0.0206
 6868SOL    HW121503   1.053   5.545   4.551  1.7753  1.6757 -0.3660
 6868SOL    HW221504   0.998   5.525   4.703 -1.9200 -4.4084 -2.1317
 6869SOL     OW21505   1.285   0.193   1.036 -0.5594 -0.0031  0.1700
 6869SOL    HW121506   1.326   0.104   1.013 -0.4154  0.4013 -1.1947
 6869SOL    HW221507   1.339   0.266   0.995 -1.2212  0.6778  0.4912
 6870SOL     OW21508   2.544   4.589   0.283  0.1837 -0.0628  0.1734
 6870SOL    HW121509   2.485   4.510   0.302 -0.5488  0.0564 -1.4175
 6870SOL    HW221510   2.488   4.667   0.256  1.0190  0.1751 -0.9763
 6871SOL     OW21511   1.073   6.083   1.405  0.1847 -0.2355 -0.5749
 6871SOL    HW121512   0.973   6.077   1.397  0.1267  1.0120 -1.0629
 6871SOL    HW221513   1.103   6.026   1.481 -0.9357 -0.4295 -0.2463
 6872SOL     OW21514   3.906   3.543   5.845  0.3948  0.0586  0.5547
 6872SOL    HW121515   3.966   3.617   5.814  1.1977 -0.6635  0.3349
 6872SOL    HW221516   3.826   3.538   5.785  1.2562 -0.4416 -0.5895
 6873SOL     OW21517   6.105   1.971   5.244  0.3860 -0.0356 -0.1283
 6873SOL    HW121518   6.058   2.059   5.240  0.7636  0.1449 -0.6756
 6873SOL    HW221519   6.083   1.926   5.330  1.7005  1.4440  1.0419
 6874SOL     OW21520   0.526   1.907   5.286  0.0797  0.0703 -0.5861
 6874SOL    HW121521   0.619   1.913   5.322  0.2079 -0.1359 -0.8882
 6874SOL    HW221522   0.475   1.837   5.336  0.1837 -0.0463 -0.6466
 6875SOL     OW21523   1.914   0.405   0.549 -0.0645 -0.7769  0.2577
 6875SOL    HW121524   1.936   0.469   0.623  5.3943 -0.0782 -1.5072
 6875SOL    HW221525   1.955   0.316   0.568 -0.7898 -1.3674 -0.8105
 6876SOL     OW21526   5.285   1.632   2.363  0.2165 -0.2805  0.3873
 6876SOL    HW121527   5.358   1.697   2.340 -0.9224  1.5086  1.5755
 6876SOL    HW221528   5.296   1.604   2.459 -0.9623  0.4936  0.7681
 6877SOL     OW21529   5.621   3.481   4.472  0.0308  0.1786 -0.0888
 6877SOL    HW121530   5.692   3.417   4.443  3.1994  2.5855  1.7134
 6877SOL    HW221531   5.605   3.471   4.570 -0.1734  1.3846  0.0253
 6878SOL     OW21532   2.479   5.068   4.829 -0.3651 -0.1244  0.1044
 6878SOL    HW121533   2.515   5.085   4.921  0.3004  0.8387 -0.3116
 6878SOL    HW221534   2.554   5.042   4.768 -0.4594  1.1128 -0.5830
 6879SOL     OW21535   2.922   4.922   1.662  0.2978 -0.1912 -0.2434
 6879SOL    HW121536   2.999   4.861   1.682  0.9779  0.3231 -1.2186
 6879SOL    HW221537   2.843   4.894   1.717  0.7194 -1.6782 -0.3441
 6880SOL     OW21538   5.277   2.103   4.311 -0.4400  0.0682  0.2286
 6880SOL    HW121539   5.336   2.163   4.256 -0.2002  0.2857  0.7180
 6880SOL    HW221540   5.183   2.137   4.309 -0.5420 -0.2265 -0.4772
 6881SOL     OW21541   5.081   5.137   3.032 -0.1449 -0.1324 -0.1467
 6881SOL    HW121542   5.123   5.047   3.023  0.5555 -0.1083  2.2363
 6881SOL    HW221543   5.014   5.150   2.959 -1.6781 -3.3653  0.5051
 6882SOL     OW21544   0.749   5.297   4.568  0.2267  0.3258 -0.6129
 6882SOL    HW121545   0.693   5.315   4.487 -0.7922  0.7293  0.1456
 6882SOL    HW221546   0.767   5.199   4.576 -2.5675 -0.2145  0.4401
 6883SOL     OW21547   2.993   0.787   6.175  0.1100  0.0636 -0.9883
 6883SOL    HW121548   3.027   0.706   6.126 -1.7022 -0.7793 -0.9315
 6883SOL    HW221549   2.954   0.759   6.263  2.2744  1.4192  0.5109
 6884SOL     OW21550   1.305   6.319   3.376 -0.5026 -0.9572 -0.2455
 6884SOL    HW121551   1.342   6.233   3.343 -0.3986 -0.4685 -1.4348
 6884SOL    HW221552   1.312   6.389   3.305 -1.6421 -0.2589  0.2873
 6885SOL     OW21553   1.229   1.011   3.546 -0.2492 -0.0659  0.9363
 6885SOL    HW121554   1.234   1.110   3.561  1.1385  0.1205 -0.5124
 6885SOL    HW221555   1.151   0.990   3.488  0.7720  0.4976 -0.7229
 6886SOL     OW21556   3.052   2.988   0.873  0.6692 -0.6005 -0.7301
 6886SOL    HW121557   2.963   2.986   0.919  0.1077 -0.0872 -1.7533
 6886SOL    HW221558   3.049   2.928   0.793  0.3004  1.4516 -2.3528
 6887SOL     OW21559   5.090   1.790   0.764 -0.0329  0.1745 -0.0231
 6887SOL    HW121560   5.113   1.716   0.701  0.2826 -0.1337  0.4439
 6887SOL    HW221561   5.109   1.878   0.721  0.1737 -0.0331 -0.3596
 6888SOL     OW21562   0.928   6.028   0.836 -0.0673  0.0870 -0.5322
 6888SOL    HW121563   0.959   6.056   0.745 -1.4350 -0.8600 -1.3195
 6888SOL    HW221564   0.984   5.952   0.869  1.3082  1.3029  0.0449
 6889SOL     OW21565   1.831   1.998   5.999 -0.4263  0.4490  0.0390
 6889SOL    HW121566   1.835   2.088   6.043  0.4059  0.8180 -0.7610
 6889SOL    HW221567   1.736   1.972   5.986 -0.7004  1.7408 -0.7561
 6890SOL     OW21568   6.974   6.770   0.122 -0.2010  0.0920  0.3824
 6890SOL    HW121569   7.051   6.709   0.145  0.1529 -0.2477 -1.5730
 6890SOL    HW221570   6.909   6.770   0.198  1.2694 -0.3144  1.7181
 6891SOL     OW21571   3.870   1.095   3.873  0.3619  0.1125  0.1049
 6891SOL    HW121572   3.900   1.175   3.926  1.5169  1.2458 -2.1437
 6891SOL    HW221573   3.778   1.111   3.838  0.4966  0.3369 -0.1414
 6892SOL     OW21574   5.378   3.733   2.863 -0.2315 -0.4501  0.6145
 6892SOL    HW121575   5.380   3.808   2.930 -3.5714  0.5903 -0.2512
 6892SOL    HW221576   5.354   3.647   2.909  1.0609 -0.4844  1.2437
 6893SOL     OW21577   5.846   1.396   0.014  0.3810  0.3760 -0.0730
 6893SOL    HW121578   5.941   1.386  -0.017  0.7023  2.0672  0.2730
 6893SOL    HW221579   5.831   1.338   0.094  1.1896  0.2698  0.0105
 6894SOL     OW21580   4.495   6.899   0.622 -0.8572  0.3854 -0.2524
 6894SOL    HW121581   4.579   6.864   0.580  0.5296  0.6393  2.1064
 6894SOL    HW221582   4.429   6.923   0.551  0.3711 -1.4757 -2.1288
 6895SOL     OW21583   1.999   1.727   1.593  0.2276  0.1590 -0.1357
 6895SOL    HW121584   1.974   1.643   1.546  0.3225  0.0361  0.0307
 6895SOL    HW221585   2.099   1.729   1.607  0.3046  0.5981 -0.7107
 6896SOL     OW21586   5.252   1.330   4.822  0.4482 -0.1953  0.0105
 6896SOL    HW121587   5.229   1.238   4.792 -4.8362  0.4927  0.9654
 6896SOL    HW221588   5.273   1.387   4.743  1.5606 -1.6623 -0.7963
 6897SOL     OW21589   2.268   5.229   1.689  0.1549 -0.5428  0.4866
 6897SOL    HW121590   2.212   5.156   1.649  0.6243 -1.1686  0.9466
 6897SOL    HW221591   2.326   5.269   1.619 -1.5913  0.8523 -0.2589
 6898SOL     OW21592   2.444   6.403   1.292  0.2431 -0.7518  0.3620
 6898SOL    HW121593   2.465   6.339   1.218  0.1804 -1.3229  0.8311
 6898SOL    HW221594   2.354   6.443   1.277  1.0213  0.6422 -0.9147
 6899SOL     OW21595   1.822   6.512   1.356  0.1361 -0.3073  0.2795
 6899SOL    HW121596   1.813   6.609   1.333 -1.2426 -0.4142  0.2909
 6899SOL    HW221597   1.859   6.463   1.277  0.5954  0.1738  0.1864
 6900SOL     OW21598   1.546   3.502   4.101  0.4406 -0.5576 -0.1740
 6900SOL    HW121599   1.579   3.588   4.140  2.1065 -2.5060  3.0671
 6900SOL    HW221600   1.459   3.477   4.144 -1.5501  0.6677 -3.0870
 6901SOL     OW21601   4.570   5.596   4.628 -0.3344 -0.6233  0.0820
 6901SOL    HW121602   4.644   5.646   4.583 -0.9245  0.6737  0.4835
 6901SOL    HW221603   4.491   5.592   4.567  0.3660 -2.9344 -0.7665
 6902SOL     OW21604   6.893   5.704   6.445 -0.4095  0.3781 -0.1580
 6902SOL    HW121605   6.852   5.688   6.535 -0.0454  0.1809 -0.0263
 6902SOL    HW221606   6.966   5.638   6.430 -0.5193  0.3651 -0.6319
 6903SOL     OW21607   0.518   6.708   2.178  0.4935 -0.1266  0.7501
 6903SOL    HW121608   0.469   6.622   2.193 -0.0287  0.0208 -0.0757
 6903SOL    HW221609   0.452   6.782   2.160  0.9528  0.3765  1.0791
 6904SOL     OW21610   0.072   4.559   1.214  0.1890 -0.9801  0.1049
 6904SOL    HW121611   0.091   4.655   1.231  1.0333 -1.0047 -0.6464
 6904SOL    HW221612  -0.024   4.540   1.234  0.1917 -0.1522  0.9720
 6905SOL     OW21613   2.522   1.935   5.638  0.1252 -0.1304  0.0418
 6905SOL    HW121614   2.488   1.981   5.556 -0.1770 -0.5143 -0.0517
 6905SOL    HW221615   2.505   1.992   5.718 -0.4540 -0.1727 -0.0466
 6906SOL     OW21616   2.382   6.064   3.030 -0.1259 -0.4333  0.2975
 6906SOL    HW121617   2.296   6.108   3.059 -1.2337 -1.4579 -1.2556
 6906SOL    HW221618   2.417   6.111   2.949  0.2747 -0.6016  0.3737
 6907SOL     OW21619   4.379   0.917   4.385 -0.7055 -0.5494 -0.5567
 6907SOL    HW121620   4.303   0.874   4.336 -2.2412  0.3984  0.8635
 6907SOL    HW221621   4.367   0.904   4.484  0.2459  0.7708 -0.2335
 6908SOL     OW21622   4.777   6.072   5.486 -0.2837 -0.2390  0.4173
 6908SOL    HW121623   4.802   5.981   5.520  1.1101  0.2171  0.6502
 6908SOL    HW221624   4.757   6.067   5.388 -4.3207 -1.5729  1.1103
 6909SOL     OW21625   5.135   3.682   0.936 -0.3626  0.2201 -0.5427
 6909SOL    HW121626   5.221   3.661   0.983 -2.8488 -1.1430  3.9805
 6909SOL    HW221627   5.121   3.781   0.936  1.2718  0.4977 -1.7058
 6910SOL     OW21628   4.135   4.113   7.003 -0.5216 -0.4435 -0.1723
 6910SOL    HW121629   4.087   4.063   7.075 -0.1249 -0.8655 -0.2024
 6910SOL    HW221630   4.215   4.062   6.974 -0.0017  0.3002 -0.0686
 6911SOL     OW21631   0.969   1.097   2.596 -0.0389 -0.6300 -0.4642
 6911SOL    HW121632   0.930   1.186   2.575 -1.8594 -1.3254 -0.2854
 6911SOL    HW221633   0.989   1.048   2.511  3.7436  0.9693 -0.6712
 6912SOL     OW21634   1.817   3.576   3.498 -0.6345 -0.1221  0.0763
 6912SOL    HW121635   1.914   3.598   3.502 -0.5595 -0.5328  0.7298
 6912SOL    HW221636   1.796   3.505   3.566 -1.6149  0.7881  0.7578
 6913SOL     OW21637   5.589   5.850   0.777 -0.4125  0.3803 -0.2191
 6913SOL    HW121638   5.509   5.818   0.727 -0.3582  0.6909 -0.5129
 6913SOL    HW221639   5.672   5.831   0.723 -0.3486  0.6751 -0.2253
 6914SOL     OW21640   3.365   5.340   1.406  0.0961 -0.4350  0.4417
 6914SOL    HW121641   3.372   5.413   1.474 -0.4876  0.9487 -0.9262
 6914SOL    HW221642   3.269   5.317   1.392 -0.0021  1.0992 -1.7239
 6915SOL     OW21643   1.078   4.686   3.468 -0.3589 -0.1304  0.8618
 6915SOL    HW121644   1.164   4.638   3.484 -0.4050 -0.9672 -1.0352
 6915SOL    HW221645   1.096   4.784   3.460  0.2893 -0.2027  1.3534
 6916SOL     OW21646   0.196   0.863   6.367 -0.1720 -0.0513  0.7030
 6916SOL    HW121647   0.289   0.899   6.354  0.6663 -2.8617 -2.9992
 6916SOL    HW221648   0.198   0.790   6.435  0.3635 -0.0586  0.6874
 6917SOL     OW21649   2.900   5.321   0.481 -0.5406 -0.3164 -0.1821
 6917SOL    HW121650   2.896   5.222   0.466 -0.3376 -0.6247  1.6119
 6917SOL    HW221651   2.888   5.341   0.578  1.2473  1.2983 -0.2366
 6918SOL     OW21652   6.385   4.434   3.592  0.4623 -0.2131  0.5121
 6918SOL    HW121653   6.479   4.469   3.597 -0.1187  1.5770 -0.4156
 6918SOL    HW221654   6.326   4.489   3.651 -0.4184  0.2098 -0.7228
 6919SOL     OW21655   2.449   2.306   3.478  0.0869  0.4267  0.0056
 6919SOL    HW121656   2.373   2.364   3.450  0.4746  0.7783 -0.3319
 6919SOL    HW221657   2.423   2.210   3.469 -0.7480  0.5362  1.0913
 6920SOL     OW21658   1.306   2.280   1.198 -0.3605 -0.4228  0.1311
 6920SOL    HW121659   1.286   2.371   1.163 -0.7262 -0.4679  0.2126
 6920SOL    HW221660   1.343   2.223   1.125  1.8210  0.3722  0.5383
 6921SOL     OW21661   2.702   6.681   4.916  0.3662 -0.4568  0.4214
 6921SOL    HW121662   2.627   6.616   4.925  0.7484 -0.8899  0.4825
 6921SOL    HW221663   2.674   6.756   4.855  0.4224 -1.4292 -0.8519
 6922SOL     OW21664   0.103   0.978   5.740  0.0582 -0.6665  0.5250
 6922SOL    HW121665   0.028   1.034   5.705  0.1334 -0.1443  1.1794
 6922SOL    HW221666   0.170   0.964   5.667  0.4436  0.7987  0.5490
 6923SOL     OW21667   0.123   4.009   6.076  0.2208 -0.3324  0.0836
 6923SOL    HW121668   0.196   3.968   6.131  1.2266 -0.1218 -1.0486
 6923SOL    HW221669   0.158   4.091   6.030 -0.4065 -0.7876 -1.2674
 6924SOL     OW21670   3.588   6.454   4.071 -0.1161  0.2237  0.1149
 6924SOL    HW121671   3.560   6.510   3.992  0.6483  2.3295  1.2695
 6924SOL    HW221672   3.557   6.360   4.057 -0.5628  0.6593 -2.3940
 6925SOL     OW21673   4.686   0.158   6.106  0.5434 -0.2325  0.1859
 6925SOL    HW121674   4.669   0.092   6.032  1.3540 -0.5747  0.2895
 6925SOL    HW221675   4.647   0.246   6.082 -0.8968 -0.8438  0.2053
 6926SOL     OW21676   3.302   3.098   6.178 -0.3422  0.4563 -0.3236
 6926SOL    HW121677   3.295   3.187   6.133  2.7458 -0.2041 -2.4135
 6926SOL    HW221678   3.226   3.040   6.150 -0.4333  1.2752 -1.8538
 6927SOL     OW21679   2.331   4.716   6.277 -0.2299  0.7531 -0.4773
 6927SOL    HW121680   2.390   4.796   6.268  0.8455 -0.0579 -0.8573
 6927SOL    HW221681   2.301   4.686   6.187 -0.4561  0.6020 -0.3527
 6928SOL     OW21682   5.041   6.703   2.825 -0.9298 -0.1254  0.1383
 6928SOL    HW121683   5.016   6.627   2.764 -0.9929  1.5420 -2.0354
 6928SOL    HW221684   5.086   6.775   2.772 -0.8309  1.3603  2.1275
 6929SOL     OW21685   5.121   5.720   3.787  0.1648  0.1231  0.0400
 6929SOL    HW121686   5.177   5.731   3.705  0.9070  3.3180  0.8392
 6929SOL    HW221687   5.025   5.733   3.764  0.5089  2.7773 -0.1563
 6930SOL     OW21688   0.799   5.105   5.683 -0.5465  0.3588  0.1143
 6930SOL    HW121689   0.824   5.137   5.775 -0.5419 -2.1168  1.0647
 6930SOL    HW221690   0.863   5.143   5.616  0.8182  0.4916  1.4290
 6931SOL     OW21691   5.355   4.029   6.757  0.3097 -0.2351  0.6103
 6931SOL    HW121692   5.430   4.076   6.712  0.5345 -0.5111  0.6944
 6931SOL    HW221693   5.302   4.094   6.812 -0.0247  0.1226 -0.1251
 6932SOL     OW21694   6.264   0.764   0.517 -0.3772 -0.7867 -0.1726
 6932SOL    HW121695   6.167   0.770   0.540  0.2982 -1.7634  3.4856
 6932SOL    HW221696   6.280   0.681   0.464 -1.4801 -0.7052 -0.6730
 6933SOL     OW21697   5.779   6.979   0.827  0.2378  0.3669 -0.0513
 6933SOL    HW121698   5.726   7.012   0.905 -1.8109 -3.2666  0.3014
 6933SOL    HW221699   5.834   6.901   0.854  1.8074  0.8581 -1.6509
 6934SOL     OW21700   5.194   5.202   3.465  0.6313  0.2533 -0.5456
 6934SOL    HW121701   5.154   5.250   3.387  0.2135  1.7174  0.5264
 6934SOL    HW221702   5.269   5.257   3.503  0.9564 -0.5292 -0.0336
 6935SOL     OW21703   5.946   0.068   4.132  0.2577  0.6643 -0.0501
 6935SOL    HW121704   5.998   0.137   4.082  0.5814  0.4081 -0.0682
 6935SOL    HW221705   5.855   0.058   4.091  1.2667 -1.1613 -2.0667
 6936SOL     OW21706   0.915   6.651   4.501  0.6651  0.0093 -0.3624
 6936SOL    HW121707   0.826   6.698   4.506 -0.0053 -1.2057 -0.5362
 6936SOL    HW221708   0.926   6.612   4.410  1.3123 -0.0050 -0.2798
 6937SOL     OW21709   5.617   6.351   0.649  0.4608  0.1329  0.5440
 6937SOL    HW121710   5.589   6.258   0.629  2.6621 -0.1819 -1.5409
 6937SOL    HW221711   5.715   6.353   0.667  0.4072  2.0048  0.8269
 6938SOL     OW21712   0.091   5.653   3.189 -0.2605  0.2065 -0.2820
 6938SOL    HW121713   0.046   5.613   3.268 -1.0581  0.8051 -0.4152
 6938SOL    HW221714   0.172   5.704   3.218 -0.7693  0.7534  0.2028
 6939SOL     OW21715   1.634   4.340   6.534  0.2852  0.1394  0.1308
 6939SOL    HW121716   1.584   4.373   6.453 -0.8709 -2.6874 -0.4043
 6939SOL    HW221717   1.672   4.250   6.516 -1.0136 -1.1242  3.1158
 6940SOL     OW21718   1.235   0.553   3.011  0.0794 -0.4769 -0.4175
 6940SOL    HW121719   1.273   0.506   3.090 -2.4759  0.2252  1.3659
 6940SOL    HW221720   1.266   0.648   3.011 -2.0406  0.3058  1.4710
 6941SOL     OW21721   2.736   1.581   0.508 -0.4627  0.1175  0.1089
 6941SOL    HW121722   2.828   1.591   0.546 -0.6217 -0.3327  0.6195
 6941SOL    HW221723   2.716   1.484   0.492 -0.7008  0.2435 -0.3604
 6942SOL     OW21724   5.366   1.314   4.383 -0.8967 -0.2335 -0.5353
 6942SOL    HW121725   5.330   1.275   4.298 -0.2916 -2.3251  0.0976
 6942SOL    HW221726   5.462   1.290   4.392 -0.8820  0.2106  0.6143
 6943SOL     OW21727   0.715   3.507   1.101  0.7579  0.0951 -0.5369
 6943SOL    HW121728   0.658   3.565   1.043  0.0791  1.7325  1.6646
 6943SOL    HW221729   0.791   3.561   1.137  0.5310 -0.5581  0.9867
 6944SOL     OW21730   6.659   6.565   2.339 -0.2347  0.4658 -0.0767
 6944SOL    HW121731   6.758   6.569   2.352 -0.0649 -0.4122 -1.0433
 6944SOL    HW221732   6.633   6.478   2.298 -1.1082  1.6336 -2.2059
 6945SOL     OW21733   4.079   0.061   4.489 -0.2438 -0.1154 -0.0535
 6945SOL    HW121734   3.985   0.048   4.456 -0.8590 -0.4969  1.7556
 6945SOL    HW221735   4.094   0.006   4.570  1.0470  1.1443  0.6098
 6946SOL     OW21736   1.884   2.233   2.584  0.0274  0.0788 -0.6159
 6946SOL    HW121737   1.973   2.281   2.584  0.2527 -0.3209  0.1189
 6946SOL    HW221738   1.811   2.299   2.603  0.3227  0.1649  0.2508
 6947SOL     OW21739   6.313   1.840   5.918  0.4629 -0.7662  0.4171
 6947SOL    HW121740   6.396   1.884   5.953  0.0402  0.0298  0.4526
 6947SOL    HW221741   6.255   1.813   5.996  0.4046 -0.7497  0.3797
 6948SOL     OW21742   1.463   1.340   3.846 -0.0342 -0.1494  0.9531
 6948SOL    HW121743   1.465   1.373   3.752 -1.1921 -0.7201  0.7029
 6948SOL    HW221744   1.498   1.411   3.908  0.0657  0.4979  0.1675
 6949SOL     OW21745   0.395   2.687   4.593  0.3021  0.1118  0.0174
 6949SOL    HW121746   0.389   2.767   4.653  0.8531  0.8818 -0.9327
 6949SOL    HW221747   0.491   2.660   4.583  0.3300  0.6982 -1.4158
 6950SOL     OW21748   0.004   3.794   1.296  0.0904 -0.0985 -0.1223
 6950SOL    HW121749   0.036   3.723   1.359 -0.0181 -0.8113 -0.8537
 6950SOL    HW221750   0.013   3.762   1.202  0.2155  0.9395 -0.4750
 6951SOL     OW21751   3.968   5.845   3.402 -0.4368 -0.2151  0.4055
 6951SOL    HW121752   3.994   5.772   3.465  0.1135 -0.6874 -0.3615
 6951SOL    HW221753   3.870   5.839   3.384 -0.6078 -0.0541  1.2366
 6952SOL     OW21754   6.899   1.645   3.165 -0.1907 -0.4752  0.1212
 6952SOL    HW121755   6.954   1.566   3.193 -0.6839 -0.8348  0.0901
 6952SOL    HW221756   6.892   1.709   3.241  1.1070  0.0658 -0.1791
 6953SOL     OW21757   5.367   0.435   3.256 -0.0638 -0.3291  0.2557
 6953SOL    HW121758   5.396   0.531   3.249 -0.8392 -0.0023  1.3119
 6953SOL    HW221759   5.429   0.378   3.202  1.4598  0.5492  0.9936
 6954SOL     OW21760   1.184   5.401   1.297  0.2185  0.0546 -0.4253
 6954SOL    HW121761   1.152   5.438   1.210 -1.2088  0.0748  0.0741
 6954SOL    HW221762   1.204   5.304   1.287 -0.1532  0.0060 -0.7271
 6955SOL     OW21763   2.653   2.452   0.478  0.2733  0.1538  0.0576
 6955SOL    HW121764   2.714   2.518   0.521 -0.7800  0.5689  0.9370
 6955SOL    HW221765   2.708   2.379   0.436  1.3557 -0.5422  2.4842
 6956SOL     OW21766   3.572   5.510   4.266 -0.3752  0.7095 -0.0050
 6956SOL    HW121767   3.598   5.425   4.311 -1.1979 -0.7595 -2.1208
 6956SOL    HW221768   3.505   5.491   4.194 -0.3312  3.1103 -0.7903
 6957SOL     OW21769   4.394   5.213   6.368 -0.1149 -0.0390 -0.0312
 6957SOL    HW121770   4.360   5.251   6.454  0.0082  0.3085 -0.1361
 6957SOL    HW221771   4.338   5.246   6.292  0.1363  0.1185 -0.1478
 6958SOL     OW21772   4.408   2.305   3.899 -0.4185 -0.7734 -0.0958
 6958SOL    HW121773   4.364   2.227   3.945  1.2326 -0.9240  1.3071
 6958SOL    HW221774   4.468   2.352   3.963  0.2770  0.3603 -1.5356
 6959SOL     OW21775   1.605   0.626   3.392 -0.4705  0.3054  0.5036
 6959SOL    HW121776   1.689   0.616   3.446 -0.4948 -0.0114  0.4877
 6959SOL    HW221777   1.559   0.537   3.387 -0.0862  0.1538 -0.6616
 6960SOL     OW21778   6.375   6.452   2.080  1.0261 -0.0266 -0.2382
 6960SOL    HW121779   6.292   6.508   2.080  1.6720  0.9672 -0.0915
 6960SOL    HW221780   6.451   6.506   2.043  1.0077 -1.8839 -3.3163
 6961SOL     OW21781   6.271   4.662   4.860  1.1942  0.2089  0.5324
 6961SOL    HW121782   6.351   4.708   4.820  1.6386 -1.3896 -0.5499
 6961SOL    HW221783   6.292   4.633   4.953  0.3526  3.4720  1.8827
 6962SOL     OW21784   2.508   6.902   1.916  0.1577 -0.2020  0.2912
 6962SOL    HW121785   2.585   6.869   1.972 -0.1176  1.1256  1.5192
 6962SOL    HW221786   2.454   6.967   1.970 -1.8854 -1.1499 -0.5228
 6963SOL     OW21787   6.961   4.505   0.038  0.3399 -0.2759  0.5054
 6963SOL    HW121788   6.979   4.522  -0.059 -1.1193  2.2467  0.5774
 6963SOL    HW221789   6.900   4.427   0.048 -2.5542  1.6298 -1.0001
 6964SOL     OW21790   2.084   2.473   6.294  0.6124  0.6366  0.0239
 6964SOL    HW121791   2.135   2.403   6.244  0.6102  1.4418 -1.1242
 6964SOL    HW221792   2.023   2.428   6.360  0.5032 -0.4488 -0.7811
 6965SOL     OW21793   5.815   1.633   4.517  0.2145 -0.1317 -0.1425
 6965SOL    HW121794   5.772   1.655   4.429  1.8553  0.9655 -0.7126
 6965SOL    HW221795   5.790   1.703   4.584  0.2669 -0.0703 -0.1863
 6966SOL     OW21796   4.897   4.480   0.247  0.4423 -0.3978 -0.5400
 6966SOL    HW121797   4.923   4.401   0.303  0.4226 -0.0364 -0.0173
 6966SOL    HW221798   4.810   4.517   0.280  0.9732  0.4852 -0.1157
 6967SOL     OW21799   2.453   0.555   4.783 -0.3003 -0.4230  0.3197
 6967SOL    HW121800   2.406   0.542   4.696 -0.1386 -4.9606  0.6631
 6967SOL    HW221801   2.386   0.556   4.858 -0.2421 -1.6005  0.4179
 6968SOL     OW21802   3.819   5.574   0.862  0.1423 -0.0339 -0.3091
 6968SOL    HW121803   3.808   5.481   0.828  2.4474 -0.4118 -0.2327
 6968SOL    HW221804   3.862   5.630   0.791  1.4674  0.1713  0.6120
 6969SOL     OW21805   2.096   0.233   3.681 -0.5288  0.0038  0.5984
 6969SOL    HW121806   2.000   0.210   3.664  0.4805 -2.3810 -2.9792
 6969SOL    HW221807   2.136   0.164   3.742 -0.9593  0.8971  1.9427
 6970SOL     OW21808   0.658   5.295   6.831  0.0931  0.4026  0.4328
 6970SOL    HW121809   0.666   5.201   6.865  0.9223 -0.0231 -0.8521
 6970SOL    HW221810   0.741   5.345   6.853  0.6516  0.1138 -0.9104
 6971SOL     OW21811   0.658   4.558   0.913  0.3204 -0.2636  0.1943
 6971SOL    HW121812   0.589   4.486   0.925  0.5233 -0.3063  1.2060
 6971SOL    HW221813   0.717   4.561   0.994 -0.5782  1.9990  0.8421
 6972SOL     OW21814   3.460   4.980   3.650 -0.0528 -0.0389  0.3934
 6972SOL    HW121815   3.518   5.010   3.725  1.7869 -2.6473  0.1509
 6972SOL    HW221816   3.389   4.919   3.685 -1.4668  1.5207  0.3987
 6973SOL     OW21817   6.653   3.244   0.374  0.4117  0.2518 -0.0932
 6973SOL    HW121818   6.576   3.307   0.376 -0.1814 -0.4569 -0.1791
 6973SOL    HW221819   6.691   3.234   0.466  2.3350  2.8996 -0.4992
 6974SOL     OW21820   4.080   3.718   3.268  0.1500 -0.2905 -0.3743
 6974SOL    HW121821   4.122   3.632   3.236 -0.2442 -0.0605 -1.5627
 6974SOL    HW221822   4.114   3.739   3.359  2.1157 -0.4833 -1.0037
 6975SOL     OW21823   6.870   3.727   4.256 -0.2411 -0.0822 -0.2709
 6975SOL    HW121824   6.934   3.729   4.179  0.1243 -0.9996 -0.0035
 6975SOL    HW221825   6.776   3.728   4.222 -0.0862  0.4518 -0.6935
 6976SOL     OW21826   5.275   2.397   4.144 -0.4520 -0.5952  0.7783
 6976SOL    HW121827   5.221   2.317   4.118 -1.6527  0.5810 -0.5583
 6976SOL    HW221828   5.317   2.437   4.062 -2.9187  2.2329  0.7142
 6977SOL     OW21829   1.699   1.696   1.153 -0.2587 -0.2968 -0.6864
 6977SOL    HW121830   1.768   1.766   1.133  1.2155 -1.8371 -1.2075
 6977SOL    HW221831   1.739   1.605   1.141 -2.8056 -1.2875 -2.4850
 6978SOL     OW21832   5.778   3.963   4.560 -0.6641  0.5434 -0.0800
 6978SOL    HW121833   5.810   3.876   4.597  1.1245  1.5608  0.9025
 6978SOL    HW221834   5.813   3.974   4.467 -0.5033  0.4226 -0.0342
 6979SOL     OW21835   1.291   6.341   0.823  0.5320 -0.3273 -0.4569
 6979SOL    HW121836   1.357   6.285   0.873 -2.0230 -1.1029  2.3294
 6979SOL    HW221837   1.207   6.349   0.876 -0.7554  2.7556 -2.6592
 6980SOL     OW21838   2.867   1.521   4.377 -0.2988  0.2448 -0.0770
 6980SOL    HW121839   2.951   1.529   4.430  0.8797 -0.8537 -1.7046
 6980SOL    HW221840   2.863   1.431   4.333 -1.8804  0.6176 -0.7639
 6981SOL     OW21841   6.719   5.013   4.252  0.1763 -0.3439  0.3912
 6981SOL    HW121842   6.650   4.952   4.214 -0.1565  0.6867 -0.7051
 6981SOL    HW221843   6.809   4.971   4.243  0.0586 -0.3264 -1.1500
 6982SOL     OW21844   5.048   5.266   0.176 -0.2403 -0.7695 -0.3472
 6982SOL    HW121845   4.971   5.312   0.219 -0.7488 -0.4123 -1.5746
 6982SOL    HW221846   5.106   5.333   0.129 -1.6186 -1.3595 -3.1383
 6983SOL     OW21847   6.625   3.765   4.106  0.1448 -0.2084  0.3848
 6983SOL    HW121848   6.668   3.755   4.016 -0.2957 -3.1468  0.4015
 6983SOL    HW221849   6.571   3.849   4.107  1.3683  0.6838 -1.5577
 6984SOL     OW21850   2.095   2.011   2.659 -0.5251  0.2076  0.2057
 6984SOL    HW121851   2.005   2.053   2.665 -0.3742  0.8523 -1.6282
 6984SOL    HW221852   2.165   2.082   2.655  0.0160 -0.2791  0.7881
 6985SOL     OW21853   4.847   3.180   6.247 -0.2672  0.2395 -0.3585
 6985SOL    HW121854   4.893   3.256   6.202 -0.6237  1.4674  1.2566
 6985SOL    HW221855   4.773   3.215   6.305 -0.7442 -1.3806  0.0721
 6986SOL     OW21856   6.541   4.549   4.311  0.2026  0.4857  0.1328
 6986SOL    HW121857   6.636   4.544   4.339  1.2405  4.5821 -1.8337
 6986SOL    HW221858   6.492   4.613   4.371 -0.6938  0.2013 -0.2791
 6987SOL     OW21859   0.904   2.782   4.030 -0.1991  0.2008  0.1097
 6987SOL    HW121860   0.818   2.817   4.066 -1.0649  0.2031 -1.8743
 6987SOL    HW221861   0.899   2.682   4.022 -1.2449  0.4129 -2.8702
 6988SOL     OW21862   6.530   2.470   5.581 -0.6401 -0.0250  0.5087
 6988SOL    HW121863   6.479   2.435   5.659 -0.7850 -0.8814  0.0364
 6988SOL    HW221864   6.522   2.570   5.578 -1.9200 -0.1089  0.6901
 6989SOL     OW21865   3.243   5.463   4.316  0.8227 -0.0821 -0.0510
 6989SOL    HW121866   3.241   5.461   4.416  1.4688 -0.5653 -0.0387
 6989SOL    HW221867   3.172   5.403   4.280 -1.0967  1.9922  0.0751
 6990SOL     OW21868   0.574   5.169   2.650 -0.2178  0.3232  0.0334
 6990SOL    HW121869   0.484   5.191   2.688  0.6843  0.5507  2.2311
 6990SOL    HW221870   0.564   5.112   2.569 -2.3601  1.4799 -0.5967
 6991SOL     OW21871   3.188   1.001   0.995  0.3940  0.2377  0.1009
 6991SOL    HW121872   3.172   1.046   0.908  0.9740 -0.8742 -0.6028
 6991SOL    HW221873   3.118   1.029   1.061  0.6232  1.9819 -0.3549
 6992SOL     OW21874   4.889   5.641   2.706  1.0439  0.1446  0.3044
 6992SOL    HW121875   4.901   5.617   2.609  0.5929 -0.3729  0.3729
 6992SOL    HW221876   4.967   5.608   2.758  1.9532  1.6149 -0.0807
 6993SOL     OW21877   5.654   6.738   6.869 -0.1791 -0.2495 -0.1503
 6993SOL    HW121878   5.583   6.674   6.838  0.0916 -1.4658  1.5895
 6993SOL    HW221879   5.735   6.686   6.898  0.5865  0.9929 -0.0035
 6994SOL     OW21880   2.237   4.024   3.848  0.0750 -0.4175  1.0764
 6994SOL    HW121881   2.159   3.963   3.837 -0.1232 -0.2388  1.5031
 6994SOL    HW221882   2.315   3.972   3.883  0.6341 -0.9429 -0.8045
 6995SOL     OW21883   1.220   0.592   5.103 -0.0955 -0.4479  0.4209
 6995SOL    HW121884   1.158   0.579   5.180 -1.1486 -2.3367 -0.6346
 6995SOL    HW221885   1.302   0.537   5.116  0.7458  0.9435  1.1644
 6996SOL     OW21886   4.911   2.923   1.256 -0.4495 -0.2244  0.1960
 6996SOL    HW121887   4.816   2.915   1.288 -0.5291  0.4386  0.1292
 6996SOL    HW221888   4.957   2.996   1.306 -0.0005 -0.4762  0.1523
 6997SOL     OW21889   6.629   3.820   0.023  0.4422  0.4575 -0.4654
 6997SOL    HW121890   6.633   3.720   0.027  0.5138  0.4597 -0.4729
 6997SOL    HW221891   6.691   3.859   0.090  0.6405  0.4950 -0.6674
 6998SOL     OW21892   0.169   2.516   1.627  0.0679  0.4670 -0.2707
 6998SOL    HW121893   0.180   2.462   1.544 -1.1031 -1.4722  0.7465
 6998SOL    HW221894   0.249   2.574   1.641  0.2559  0.8702 -2.7445
 6999SOL     OW21895   4.361   2.126   1.920 -0.0937 -0.8265 -0.1339
 6999SOL    HW121896   4.262   2.141   1.924  0.0087 -0.2575  0.5296
 6999SOL    HW221897   4.387   2.095   1.829 -0.5674  1.3958 -1.0959
 7000SOL     OW21898   0.984   2.915   6.680  0.1138 -0.1455  0.2049
 7000SOL    HW121899   0.956   3.010   6.696 -0.5819 -0.3058 -0.0366
 7000SOL    HW221900   0.968   2.892   6.584 -2.2657 -1.3210  0.8043
 7001SOL     OW21901   6.328   1.396   0.853 -0.1286  0.2363 -0.1327
 7001SOL    HW121902   6.247   1.365   0.902  1.2111 -0.3757  1.8063
 7001SOL    HW221903   6.321   1.369   0.757 -1.1267 -2.0190  0.4966
 7002SOL     OW21904   1.823   6.617   5.400  0.2119 -0.0151  0.2689
 7002SOL    HW121905   1.904   6.566   5.427  0.6776  1.4294  1.7628
 7002SOL    HW221906   1.794   6.587   5.309  2.3784 -0.5950 -0.2954
 7003SOL     OW21907   5.297   5.578   2.057  0.1570 -0.6028 -0.4105
 7003SOL    HW121908   5.222   5.644   2.060 -1.0130 -1.9271  0.7988
 7003SOL    HW221909   5.262   5.486   2.073  2.0271 -1.2705  0.1712
 7004SOL     OW21910   5.566   2.678   0.906  0.4006  0.4497  0.2726
 7004SOL    HW121911   5.648   2.659   0.960  0.8135 -0.1713 -0.5544
 7004SOL    HW221912   5.488   2.633   0.948  0.1799  2.1838  1.8597
 7005SOL     OW21913   1.595   3.991   2.282  0.0275 -0.5673  0.6686
 7005SOL    HW121914   1.666   4.022   2.219 -0.5166 -1.6413 -0.5033
 7005SOL    HW221915   1.638   3.960   2.367  0.9141 -0.6688  0.2016
 7006SOL     OW21916   1.119   3.637   2.807  0.3779  0.2450 -0.2109
 7006SOL    HW121917   1.160   3.684   2.729 -0.2178  0.8596 -0.1650
 7006SOL    HW221918   1.145   3.541   2.806  0.0169  0.1452 -1.4186
 7007SOL     OW21919   2.099   5.331   2.890  0.2532  0.0205  0.1462
 7007SOL    HW121920   2.109   5.383   2.805  1.0259 -2.3915 -1.3636
 7007SOL    HW221921   2.143   5.380   2.965  1.2859  1.3219 -1.2435
 7008SOL     OW21922   6.145   1.898   5.723  0.1153  0.2492  0.5046
 7008SOL    HW121923   6.232   1.936   5.691 -0.2595 -0.4907 -1.4900
 7008SOL    HW221924   6.153   1.875   5.820  1.4716  2.0642  0.8815
 7009SOL     OW21925   5.776   4.372   4.421  0.5033  0.5280  0.3443
 7009SOL    HW121926   5.721   4.387   4.339  0.5640 -1.7522 -0.1689
 7009SOL    HW221927   5.870   4.399   4.403 -0.1338  3.5385  0.9208
 7010SOL     OW21928   2.650   4.104   6.747  0.5210 -0.7389 -0.3099
 7010SOL    HW121929   2.697   4.168   6.685  0.2590  1.4376  1.6207
 7010SOL    HW221930   2.718   4.059   6.805  0.5532 -0.8318 -0.4182
 7011SOL     OW21931   6.549   6.245   3.219 -0.0995  0.6565 -0.3310
 7011SOL    HW121932   6.543   6.314   3.147 -1.2422 -2.1774 -3.2201
 7011SOL    HW221933   6.466   6.189   3.218  1.9234 -2.5934 -0.2353
 7012SOL     OW21934   6.214   6.000   1.540 -0.6790 -0.4627  0.1976
 7012SOL    HW121935   6.182   6.069   1.475  0.6033  0.8657  0.9061
 7012SOL    HW221936   6.141   5.979   1.605 -1.1359  0.1353 -0.1067
 7013SOL     OW21937   0.334   5.292   1.767 -0.3878 -0.4787  0.0504
 7013SOL    HW121938   0.331   5.336   1.857  0.5398 -2.6312  1.2141
 7013SOL    HW221939   0.242   5.290   1.728 -0.3431  3.3347 -0.5906
 7014SOL     OW21940   4.570   4.402   4.913 -0.6890  0.6092  0.1132
 7014SOL    HW121941   4.488   4.459   4.925 -0.9896  0.0204  1.0465
 7014SOL    HW221942   4.633   4.419   4.989 -1.2209 -0.9827  0.9529
 7015SOL     OW21943   1.800   4.466   1.544  0.2787 -0.3050 -0.1197
 7015SOL    HW121944   1.887   4.432   1.508  0.9043  0.6662  0.4190
 7015SOL    HW221945   1.781   4.556   1.507  1.0490  0.8226  2.0433
 7016SOL     OW21946   1.571   3.105   0.384 -0.0511 -0.7577  0.4378
 7016SOL    HW121947   1.479   3.144   0.390  0.6381  0.7293  1.9944
 7016SOL    HW221948   1.626   3.137   0.461  1.5521 -2.2531 -0.0315
 7017SOL     OW21949   1.581   4.898   3.784 -0.3686 -0.3116 -0.1581
 7017SOL    HW121950   1.590   4.818   3.843  1.0585 -0.6217 -0.7657
 7017SOL    HW221951   1.611   4.875   3.691  3.9636  1.8628  0.4659
 7018SOL     OW21952   0.811   2.378   6.077 -0.3589 -0.0529  0.0971
 7018SOL    HW121953   0.888   2.434   6.108 -0.8662  1.2017 -0.8465
 7018SOL    HW221954   0.731   2.398   6.133 -0.1307 -1.0759  0.8267
 7019SOL     OW21955   0.441   0.893   5.786  0.0095  0.1529  0.4283
 7019SOL    HW121956   0.503   0.887   5.865  0.2913  1.5655  0.3363
 7019SOL    HW221957   0.477   0.958   5.720 -0.7808 -0.2083 -0.3825
 7020SOL     OW21958   4.476   6.564   0.410 -0.2218 -0.3572 -0.1662
 7020SOL    HW121959   4.456   6.538   0.504 -0.0028  1.3127  0.3645
 7020SOL    HW221960   4.391   6.584   0.362 -0.2281  0.8011  0.2998
 7021SOL     OW21961   2.737   3.197   0.554  0.1828  0.0952 -0.1252
 7021SOL    HW121962   2.706   3.107   0.522 -2.0905  0.6142  0.4705
 7021SOL    HW221963   2.674   3.232   0.622  1.1015  2.1189 -0.2399
 7022SOL     OW21964   0.372   1.232   6.553 -0.0210 -0.3812  0.1358
 7022SOL    HW121965   0.294   1.227   6.490  0.2191 -0.4683 -0.1533
 7022SOL    HW221966   0.416   1.322   6.544 -0.7250  0.0738  1.0578
 7023SOL     OW21967   0.218   4.320   6.665  0.1387 -0.4767 -0.0239
 7023SOL    HW121968   0.121   4.326   6.689  0.1526 -0.9017  0.1609
 7023SOL    HW221969   0.242   4.223   6.652  0.0953 -0.2841 -1.9021
 7024SOL     OW21970   5.933   5.180   3.350  0.1084  0.1526  0.3189
 7024SOL    HW121971   5.911   5.134   3.264  1.2151  1.9670 -1.0089
 7024SOL    HW221972   5.980   5.117   3.411 -0.9117 -1.2416 -0.2668
 7025SOL     OW21973   1.999   4.630   5.652  0.2755  0.7014  0.4811
 7025SOL    HW121974   2.005   4.570   5.732 -1.4390  0.9095  0.8113
 7025SOL    HW221975   1.904   4.657   5.639  0.3695 -0.0120 -2.1512
 7026SOL     OW21976   4.158   6.412   6.305 -0.1240  0.1543  0.4703
 7026SOL    HW121977   4.065   6.402   6.270 -0.3620  1.6525  0.6163
 7026SOL    HW221978   4.156   6.456   6.395  0.7860  2.6137 -0.5984
 7027SOL     OW21979   0.027   3.792   5.851 -0.2619 -0.3962 -0.8216
 7027SOL    HW121980   0.102   3.772   5.914 -1.5673 -5.0334 -0.3763
 7027SOL    HW221981   0.050   3.873   5.797  4.5010 -0.8892  0.0105
 7028SOL     OW21982   4.788   3.455   6.371 -0.5684  0.1230 -0.1966
 7028SOL    HW121983   4.820   3.448   6.277  0.9072  0.3943  0.2564
 7028SOL    HW221984   4.832   3.533   6.416 -0.7927 -0.3411  0.8797
 7029SOL     OW21985   5.428   2.609   5.443 -0.5484  0.3581 -0.6649
 7029SOL    HW121986   5.377   2.613   5.529  0.2718  0.0357 -0.1454
 7029SOL    HW221987   5.523   2.635   5.460 -0.3451  0.1446 -1.4465
 7030SOL     OW21988   5.350   0.500   1.992 -0.6627 -0.3848 -0.0167
 7030SOL    HW121989   5.312   0.473   1.904 -0.9831  1.1384 -0.3725
 7030SOL    HW221990   5.303   0.450   2.065 -1.4102 -0.5767 -0.6152
 7031SOL     OW21991   0.661   0.577   5.967 -0.0575 -0.4389 -0.3307
 7031SOL    HW121992   0.719   0.500   5.944 -0.8916 -0.6949 -1.7231
 7031SOL    HW221993   0.717   0.655   5.994  0.9282 -0.7201 -1.4897
 7032SOL     OW21994   0.120   3.821   6.667  0.1053  0.0319  0.3856
 7032SOL    HW121995   0.147   3.747   6.605  0.2114  0.1904  0.2427
 7032SOL    HW221996   0.035   3.862   6.634 -0.3422 -0.4934  0.8570
 7033SOL     OW21997   1.230   1.993   1.614 -0.1548 -0.0092  0.2699
 7033SOL    HW121998   1.265   2.084   1.592  1.2946 -0.4170  0.7529
 7033SOL    HW221999   1.217   1.942   1.529 -1.9853  0.9554 -0.0861
 7034SOL     OW22000   6.418   3.262   2.198  0.5292 -0.7521  0.6228
 7034SOL    HW122001   6.393   3.355   2.171  2.1072 -0.7345 -1.0064
 7034SOL    HW222002   6.353   3.197   2.158  0.3275 -0.4517  0.4591
 7035SOL     OW22003   3.222   6.259   2.503 -0.0133 -0.1996 -0.2162
 7035SOL    HW122004   3.232   6.245   2.405  1.8621 -0.0247 -0.0852
 7035SOL    HW222005   3.226   6.170   2.550 -1.3010 -0.3226 -0.2934
 7036SOL     OW22006   1.818   5.365   0.543 -0.5228 -0.5890  0.1326
 7036SOL    HW122007   1.763   5.302   0.488  1.6231 -1.3356 -1.3150
 7036SOL    HW222008   1.871   5.424   0.481 -0.5238  0.8678  1.4662
 7037SOL     OW22009   4.972   4.410   4.482 -0.4144 -0.2294  0.5050
 7037SOL    HW122010   4.931   4.422   4.391 -1.1916 -0.1268  0.8613
 7037SOL    HW222011   4.901   4.416   4.552  0.0524 -1.0772  1.0755
 7038SOL     OW22012   2.967   2.697   0.320  0.3740 -0.4434  0.0225
 7038SOL    HW122013   3.011   2.616   0.283  2.0679  0.8078 -0.8271
 7038SOL    HW222014   3.018   2.779   0.293 -0.4714  0.8280  2.0092
 7039SOL     OW22015   3.536   5.782   4.147 -0.2617 -0.3740 -0.0512
 7039SOL    HW122016   3.440   5.771   4.173 -0.7732 -0.9226 -1.9884
 7039SOL    HW222017   3.584   5.694   4.156  0.5044  0.2133  2.3514
 7040SOL     OW22018   0.549   5.048   3.883 -0.1655 -0.0599  0.2176
 7040SOL    HW122019   0.491   5.044   3.964  0.4901 -0.3846  0.6841
 7040SOL    HW222020   0.561   5.144   3.855  1.7466  0.3186  2.1118
 7041SOL     OW22021   0.811   6.070   4.429 -0.2946  0.4320  0.5340
 7041SOL    HW122022   0.814   5.991   4.368 -0.7642 -0.7888  2.0337
 7041SOL    HW222023   0.888   6.066   4.493 -0.2377  1.2752  0.5288
 7042SOL     OW22024   2.291   0.436   3.937 -0.7658 -0.3213 -0.5613
 7042SOL    HW122025   2.201   0.435   3.979 -1.6714  1.8518 -2.2613
 7042SOL    HW222026   2.293   0.503   3.863  2.2336 -0.3667 -0.6593
 7043SOL     OW22027   6.674   6.296   6.806  0.2290  0.1777  0.5006
 7043SOL    HW122028   6.730   6.222   6.766  0.7119  0.8628 -0.1139
 7043SOL    HW222029   6.709   6.319   6.896  1.8842  1.5813 -0.4475
 7044SOL     OW22030   5.566   1.344   0.605  0.0151 -0.2929  0.1495
 7044SOL    HW122031   5.619   1.419   0.566  1.8446 -1.7261 -0.2833
 7044SOL    HW222032   5.495   1.315   0.541  0.5584 -0.1949 -0.4990
 7045SOL     OW22033   5.904   3.172   6.255  0.1085 -0.2192  0.2657
 7045SOL    HW122034   5.884   3.266   6.229  1.2027 -0.2547 -0.7556
 7045SOL    HW222035   5.825   3.114   6.234 -0.5614  0.4510  0.8829
 7046SOL     OW22036   2.164   3.139   4.509 -0.0815 -0.1007  0.1633
 7046SOL    HW122037   2.207   3.089   4.585 -0.1026  0.7492  0.7482
 7046SOL    HW222038   2.196   3.101   4.423  2.9491  1.2941  0.5310
 7047SOL     OW22039   1.659   6.727   3.327  0.0638  0.5852  0.1818
 7047SOL    HW122040   1.673   6.802   3.392  0.8014  0.6082  0.0008
 7047SOL    HW222041   1.586   6.751   3.263 -1.3699  0.1695  1.5914
 7048SOL     OW22042   1.407   5.815   2.269 -0.4988  0.7589  0.2609
 7048SOL    HW122043   1.471   5.750   2.312  0.0288  1.3852  0.4382
 7048SOL    HW222044   1.355   5.862   2.340 -2.0931 -0.6377  0.0917
 7049SOL     OW22045   4.051   1.788   2.949 -0.9008  0.3849  0.2686
 7049SOL    HW122046   4.094   1.698   2.955  0.4798  1.0287  0.5200
 7049SOL    HW222047   4.120   1.858   2.967 -2.1617  1.4595  1.1046
 7050SOL     OW22048   4.680   6.922   2.430 -0.2939  0.5908  0.1155
 7050SOL    HW122049   4.708   7.005   2.478 -0.8039  1.4655 -1.0593
 7050SOL    HW222050   4.587   6.897   2.459  0.3623 -0.3868  1.4935
 7051SOL     OW22051   0.009   5.770   6.946  0.3951  0.4482 -0.4677
 7051SOL    HW122052  -0.007   5.741   7.040  1.0892  0.5230 -0.3214
 7051SOL    HW222053   0.088   5.721   6.909  0.2068  0.5166 -0.9672
 7052SOL     OW22054   0.491   1.459   4.732 -0.1844  0.0884  0.1389
 7052SOL    HW122055   0.582   1.466   4.691  0.0886  0.2746  0.7672
 7052SOL    HW222056   0.423   1.493   4.667  0.2398  0.3736 -0.1638
 7053SOL     OW22057   2.553   7.010   2.364 -0.5808 -0.5074 -0.0342
 7053SOL    HW122058   2.570   7.102   2.328 -2.6498 -0.9154 -2.4296
 7053SOL    HW222059   2.608   6.944   2.313  1.6545 -0.6004  2.3486
 7054SOL     OW22060   5.918   1.022   3.081 -0.4631 -0.1503  0.3580
 7054SOL    HW122061   5.959   1.016   3.172 -3.1109  2.1786  1.8615
 7054SOL    HW222062   5.847   1.092   3.080 -0.4029  0.1272 -3.6371
 7055SOL     OW22063   6.607   1.795   4.724  0.0624 -0.5909  0.2750
 7055SOL    HW122064   6.653   1.733   4.661  0.8452 -0.2115  0.4545
 7055SOL    HW222065   6.562   1.742   4.796 -1.6515 -1.0723 -1.1085
 7056SOL     OW22066   6.714   5.333   1.845  0.0925 -0.5979 -0.0499
 7056SOL    HW122067   6.624   5.343   1.803  0.7694 -0.5075 -1.5156
 7056SOL    HW222068   6.722   5.241   1.886  0.1298 -1.4657 -1.9146
 7057SOL     OW22069   1.754   5.834   6.563 -0.6621  0.2040 -0.2816
 7057SOL    HW122070   1.739   5.856   6.466 -0.9883  0.4322 -0.1811
 7057SOL    HW222071   1.818   5.900   6.602 -1.5107  0.8921 -0.0231
 7058SOL     OW22072   6.404   6.949   1.894  0.4693  0.3480  0.6738
 7058SOL    HW122073   6.412   6.896   1.810 -0.6908  1.2698 -0.0383
 7058SOL    HW222074   6.309   6.975   1.908  0.7917  0.9860  1.7966
 7059SOL     OW22075   1.178   1.865   1.408 -0.3490 -0.4660 -0.0092
 7059SOL    HW122076   1.211   1.862   1.314  1.9326  1.2313  0.6297
 7059SOL    HW222077   1.169   1.771   1.443  1.0299 -1.0866 -1.2023
 7060SOL     OW22078   6.898   0.059   3.762  0.1367  0.1701  0.1047
 7060SOL    HW122079   6.919   0.102   3.674  0.8422 -1.9499 -0.8219
 7060SOL    HW222080   6.878   0.130   3.830  0.9716  1.9198 -1.3972
 7061SOL     OW22081   6.121   4.337   3.507 -0.3212 -0.2317 -0.1156
 7061SOL    HW122082   6.219   4.331   3.528 -0.0296 -0.6045 -1.5148
 7061SOL    HW222083   6.083   4.245   3.500 -0.6550 -0.0918 -0.1137
 7062SOL     OW22084   1.935   6.859   4.627  0.7325  0.3547  0.2851
 7062SOL    HW122085   1.940   6.917   4.709 -1.5059  0.0793  0.6856
 7062SOL    HW222086   1.868   6.898   4.563  0.1792 -1.0446 -0.0243
 7063SOL     OW22087   6.608   4.046   6.834 -0.2040  0.3249 -0.3135
 7063SOL    HW122088   6.574   4.122   6.888 -0.4116  0.5250 -0.7252
 7063SOL    HW222089   6.647   3.977   6.895 -1.5689 -0.0299  0.1809
 7064SOL     OW22090   6.864   1.936   0.579  0.0091  0.0910 -0.1297
 7064SOL    HW122091   6.815   1.973   0.501 -0.1633 -0.9678 -0.5437
 7064SOL    HW222092   6.864   1.836   0.575  0.2038  0.0150  1.0988
 7065SOL     OW22093   2.392   4.498   4.414  0.4910  0.4662  0.1696
 7065SOL    HW122094   2.402   4.479   4.317 -0.3950 -0.5064  0.2464
 7065SOL    HW222095   2.416   4.594   4.432  0.3854  0.7412 -1.0472
 7066SOL     OW22096   1.866   3.942   4.771  0.2942 -0.2948  0.3120
 7066SOL    HW122097   1.959   3.978   4.779  0.2496 -0.2459  0.6062
 7066SOL    HW222098   1.817   3.955   4.857  0.2693 -1.0405  0.4218
 7067SOL     OW22099   5.055   5.667   2.124 -0.8726  0.0097 -0.0980
 7067SOL    HW122100   4.959   5.694   2.126 -0.8779 -0.0203  0.0131
 7067SOL    HW222101   5.063   5.575   2.086 -0.7906  0.4663 -1.2324
 7068SOL     OW22102   6.193   2.874   5.892 -0.2641  0.0333 -0.1397
 7068SOL    HW122103   6.119   2.833   5.946  0.1459 -1.0326 -0.3729
 7068SOL    HW222104   6.260   2.804   5.868 -0.3488  0.5014 -1.8998
 7069SOL     OW22105   5.324   0.071   1.590  0.2554 -0.2098 -0.4425
 7069SOL    HW122106   5.274  -0.005   1.630 -0.6433  0.0309 -1.0775
 7069SOL    HW222107   5.279   0.101   1.506  2.4960 -1.1896 -2.1174
 7070SOL     OW22108   0.676   4.194   3.533 -0.3560 -0.2575 -0.1360
 7070SOL    HW122109   0.682   4.126   3.460 -1.1762 -0.6693  0.1642
 7070SOL    HW222110   0.590   4.245   3.525 -1.6479 -1.9488  1.8929
 7071SOL     OW22111   2.219   0.038   5.364  0.0175  0.0820  0.6991
 7071SOL    HW122112   2.229  -0.057   5.334  1.4580  0.3160  0.3391
 7071SOL    HW222113   2.267   0.098   5.301 -1.5715  1.1618  0.4691
 7072SOL     OW22114   4.926   1.005   4.972 -0.2702  0.5149  0.0750
 7072SOL    HW122115   4.868   1.027   5.049 -1.4822  0.2503 -0.7352
 7072SOL    HW222116   4.941   1.087   4.917 -1.3277  0.2341 -0.6573
 7073SOL     OW22117   3.214   3.356   0.286 -0.2366 -0.1393  0.2452
 7073SOL    HW122118   3.195   3.451   0.261  0.7561 -0.3572 -1.4891
 7073SOL    HW222119   3.136   3.299   0.263 -0.1982  0.0095 -0.2608
 7074SOL     OW22120   1.292   5.219   4.301  0.0595  0.1880 -0.1146
 7074SOL    HW122121   1.267   5.240   4.396 -0.9723 -1.1918 -0.0633
 7074SOL    HW222122   1.365   5.281   4.272 -0.5294  1.5168  1.1296
 7075SOL     OW22123   3.203   0.789   4.938 -0.3769  0.2540 -0.1158
 7075SOL    HW122124   3.266   0.864   4.918  1.0082 -1.0075 -0.6821
 7075SOL    HW222125   3.154   0.808   5.023  1.0113  1.1466  0.5217
 7076SOL     OW22126   1.295   5.690   6.994 -0.4776 -0.4429  0.2285
 7076SOL    HW122127   1.378   5.744   7.004  0.1932 -1.3602 -0.2657
 7076SOL    HW222128   1.319   5.594   6.982 -1.6481 -0.8609  1.0649
 7077SOL     OW22129   5.379   3.702   5.461  0.0237 -0.0147  0.2385
 7077SOL    HW122130   5.419   3.754   5.385  0.9525 -0.5414  0.3461
 7077SOL    HW222131   5.409   3.743   5.548 -2.4646  1.6951  0.3976
 7078SOL     OW22132   2.620   2.236   5.669 -0.1460  0.3197  0.2620
 7078SOL    HW122133   2.601   2.163   5.734 -1.8974  0.6125  0.1140
 7078SOL    HW222134   2.645   2.197   5.581 -2.9795 -0.1971 -0.3905
 7079SOL     OW22135   5.947   3.633   1.295  0.3852  0.1669 -0.2696
 7079SOL    HW122136   5.860   3.669   1.330  0.7590  2.0253 -1.0899
 7079SOL    HW222137   6.012   3.625   1.370 -0.3100 -0.6773  0.2564
 7080SOL     OW22138   3.315   6.614   2.326  0.1476  0.0333  0.6464
 7080SOL    HW122139   3.332   6.689   2.261 -2.7043  0.1966 -0.0485
 7080SOL    HW222140   3.234   6.563   2.298  2.1623 -3.6258  0.9245
 7081SOL     OW22141   5.301   3.159   4.372 -0.4879 -0.1992  0.2278
 7081SOL    HW122142   5.259   3.209   4.297 -0.8565 -2.2896 -1.0372
 7081SOL    HW222143   5.316   3.221   4.449 -1.1966  1.7371 -1.1129
 7082SOL     OW22144   2.165   1.709   3.822  0.4247 -0.3448 -0.4730
 7082SOL    HW122145   2.212   1.643   3.881  0.1060 -0.4360 -0.3168
 7082SOL    HW222146   2.084   1.665   3.782  1.7570 -0.9587 -2.6439
 7083SOL     OW22147   1.598   0.247   6.869 -0.0057  0.7534  0.6959
 7083SOL    HW122148   1.625   0.280   6.960  0.2143  1.1244  0.5016
 7083SOL    HW222149   1.630   0.153   6.857  0.1594  0.7769  0.9194
 7084SOL     OW22150   5.618   2.215   1.708 -0.4427 -0.0752  0.1228
 7084SOL    HW122151   5.614   2.302   1.660 -1.6339  0.0540  0.4234
 7084SOL    HW222152   5.698   2.164   1.678  0.0094  0.9170 -0.4013
 7085SOL     OW22153   4.547   0.603   2.907  0.0570  0.0896 -0.5799
 7085SOL    HW122154   4.630   0.644   2.944 -0.4224  1.7779 -1.2475
 7085SOL    HW222155   4.474   0.671   2.906 -1.7067 -1.6536  1.0516
 7086SOL     OW22156   3.297   5.861   5.487  0.4431  0.2004  0.2609
 7086SOL    HW122157   3.276   5.766   5.465  0.0283 -0.1268  1.9407
 7086SOL    HW222158   3.213   5.908   5.513  0.6487  1.0344 -0.5501
 7087SOL     OW22159   0.016   6.687   6.885 -0.1745 -0.1796 -0.0667
 7087SOL    HW122160  -0.008   6.758   6.951  0.3458 -0.9213  0.9362
 7087SOL    HW222161  -0.064   6.666   6.829 -0.4185  0.9751 -0.1718
 7088SOL     OW22162   3.111   0.795   5.215 -1.0768 -0.6889  0.0847
 7088SOL    HW122163   3.160   0.872   5.256 -2.8497  0.8620 -0.5607
 7088SOL    HW222164   3.039   0.765   5.278 -0.3665 -1.8787  0.3498
 7089SOL     OW22165   3.971   1.441   5.949  0.0965  0.2205  0.6654
 7089SOL    HW122166   4.051   1.384   5.967 -0.1385  0.0234  1.0911
 7089SOL    HW222167   3.965   1.460   5.851  0.2593 -0.3668  0.5419
 7090SOL     OW22168   6.134   0.636   3.957 -0.5307 -0.1319  0.1588
 7090SOL    HW122169   6.181   0.607   4.040 -0.4579 -0.0174  0.1567
 7090SOL    HW222170   6.199   0.637   3.881 -0.8162 -1.2761 -0.1339
 7091SOL     OW22171   4.410   6.392   6.985 -0.2405 -0.3082  0.1301
 7091SOL    HW122172   4.492   6.397   7.043  0.1855  1.5888 -0.5597
 7091SOL    HW222173   4.337   6.345   7.035  1.2060 -1.9922  0.7971
 7092SOL     OW22174   0.365   2.243   1.646  0.1036 -0.0637 -0.6282
 7092SOL    HW122175   0.318   2.224   1.560 -0.9303  0.4128 -0.1804
 7092SOL    HW222176   0.337   2.177   1.715  0.0523  0.2552 -0.3419
 7093SOL     OW22177   6.213   4.675   5.440  0.5056  0.0785 -0.5872
 7093SOL    HW122178   6.286   4.608   5.454  0.4217  0.0463 -0.2808
 7093SOL    HW222179   6.252   4.767   5.437  0.4867  0.1246  0.3295
 7094SOL     OW22180   3.831   1.185   0.605 -0.2342 -0.0079 -0.6085
 7094SOL    HW122181   3.846   1.214   0.699 -1.0414  1.9635 -1.0347
 7094SOL    HW222182   3.886   1.241   0.543 -2.6090  1.4547 -1.5405
 7095SOL     OW22183   3.919   3.456   2.296 -0.6130 -0.1194  0.1310
 7095SOL    HW122184   3.996   3.423   2.240  1.4067 -0.9846  3.1628
 7095SOL    HW222185   3.864   3.378   2.325 -0.0111 -0.0773  1.4958
 7096SOL     OW22186   1.335   4.831   4.000 -0.7196  0.4909  0.3608
 7096SOL    HW122187   1.424   4.787   3.992 -0.5930  0.5537  1.3072
 7096SOL    HW222188   1.310   4.872   3.912  0.5701  1.2285  0.3149
 7097SOL     OW22189   3.167   5.819   6.003 -0.5778 -0.1380  0.1313
 7097SOL    HW122190   3.117   5.735   5.983  1.0389 -0.7563 -1.6896
 7097SOL    HW222191   3.262   5.797   6.026 -0.1077  1.1768 -0.4365
 7098SOL     OW22192   2.242   0.565   4.991 -0.8273  0.1669  0.5897
 7098SOL    HW122193   2.306   0.548   5.067 -0.6613 -2.4075 -0.0394
 7098SOL    HW222194   2.149   0.549   5.021 -0.9377  0.9299  0.6898
 7099SOL     OW22195   4.113   1.807   3.418  0.0303 -0.1650  0.6131
 7099SOL    HW122196   4.137   1.864   3.339  0.9847 -1.3004  0.0704
 7099SOL    HW222197   4.021   1.831   3.449  0.6509  2.1735  0.8610
 7100SOL     OW22198   4.937   4.659   1.134 -0.6653 -0.6813 -0.4782
 7100SOL    HW122199   4.839   4.639   1.139 -0.8130 -0.1392 -1.0637
 7100SOL    HW222200   4.951   4.742   1.081 -0.0925  0.9603  2.1016
 7101SOL     OW22201   4.397   6.965   1.481  0.2560 -0.1468  1.2894
 7101SOL    HW122202   4.368   7.059   1.502 -2.3542 -0.9385  1.5187
 7101SOL    HW222203   4.399   6.911   1.564 -0.4424 -0.8397  0.8666
 7102SOL     OW22204   1.706   3.992   4.993 -0.4152  0.0663  0.1974
 7102SOL    HW122205   1.745   4.082   5.011  0.1568 -0.3973  1.4583
 7102SOL    HW222206   1.618   4.002   4.946  0.7339  1.1674 -1.8621
 7103SOL     OW22207   0.385   0.730   3.204  0.0479  0.1064 -0.2548
 7103SOL    HW122208   0.360   0.822   3.176  1.2753  0.6387  0.3030
 7103SOL    HW222209   0.485   0.725   3.215  0.1003 -1.5623 -1.2534
 7104SOL     OW22210   4.083   1.217   1.835  0.9456 -0.1374  0.1569
 7104SOL    HW122211   4.149   1.270   1.782  1.3451 -1.6943 -0.9853
 7104SOL    HW222212   4.116   1.123   1.843 -0.7023 -0.7200  0.3691
 7105SOL     OW22213   2.139   1.905   6.937 -0.0069  0.0924 -0.9059
 7105SOL    HW122214   2.185   1.968   6.875 -1.6235  1.9576 -0.2793
 7105SOL    HW222215   2.207   1.844   6.978  1.5380  1.1034 -1.8496
 7106SOL     OW22216   3.601   0.667   4.301 -0.3700  0.4876 -0.8155
 7106SOL    HW122217   3.537   0.677   4.377  0.8213 -0.1405  0.3120
 7106SOL    HW222218   3.629   0.757   4.269 -0.0184  0.7781  0.2655
 7107SOL     OW22219   0.620   5.299   4.338 -0.8519 -0.0434 -0.4280
 7107SOL    HW122220   0.549   5.354   4.382 -3.4774 -1.8022 -2.1869
 7107SOL    HW222221   0.630   5.328   4.243 -2.1360 -2.3089 -1.3286
 7108SOL     OW22222   1.320   5.050   0.045  0.3841 -0.0891 -0.0168
 7108SOL    HW122223   1.241   4.991   0.062  1.6991 -1.9512 -0.0513
 7108SOL    HW222224   1.337   5.109   0.124 -0.1176 -0.7779  0.6076
 7109SOL     OW22225   3.606   5.817   1.517  0.6838 -0.1698 -0.0958
 7109SOL    HW122226   3.648   5.832   1.428 -1.2344  0.5671 -0.9402
 7109SOL    HW222227   3.583   5.905   1.559 -1.9130 -0.4815 -0.6839
 7110SOL     OW22228   1.845   3.499   2.320  0.3357  0.8901 -0.1452
 7110SOL    HW122229   1.775   3.456   2.263  1.7159 -0.4478 -0.8944
 7110SOL    HW222230   1.843   3.598   2.306 -2.3687  1.0808  1.0039
 7111SOL     OW22231   6.445   2.936   4.013  0.0023 -0.0353  0.0713
 7111SOL    HW122232   6.538   2.961   4.038 -0.2106  0.9282 -0.0663
 7111SOL    HW222233   6.428   2.841   4.038  0.9517 -0.1581  0.2817
 7112SOL     OW22234   5.260   0.631   6.934 -0.4642  0.0166 -0.6068
 7112SOL    HW122235   5.311   0.612   7.018  1.2901  0.2014 -1.5785
 7112SOL    HW222236   5.199   0.709   6.949 -1.1085 -0.7166  0.8205
 7113SOL     OW22237   3.789   1.132   4.894 -0.6198  0.1016  0.2917
 7113SOL    HW122238   3.777   1.214   4.839 -0.7484 -0.0651  0.0714
 7113SOL    HW222239   3.887   1.112   4.902 -0.6441 -0.6526 -1.0418
 7114SOL     OW22240   1.764   0.388   0.984 -0.6001 -0.4906  0.6384
 7114SOL    HW122241   1.707   0.430   0.914 -1.1042 -3.5360 -0.9542
 7114SOL    HW222242   1.721   0.399   1.073 -2.1814 -0.1742 -0.1341
 7115SOL     OW22243   4.455   6.798   2.522  0.0238  1.1637 -0.0445
 7115SOL    HW122244   4.461   6.814   2.621 -0.2080  0.6100  0.0613
 7115SOL    HW222245   4.366   6.761   2.500  0.1176  1.1815 -0.4503
 7116SOL     OW22246   4.392   4.152   6.793  0.0599  0.2609  0.4502
 7116SOL    HW122247   4.329   4.226   6.768  0.5335  0.0470 -1.5606
 7116SOL    HW222248   4.341   4.075   6.831 -0.8901  0.2084 -0.8660
 7117SOL     OW22249   1.365   6.518   4.683  0.2306  0.1422 -0.2662
 7117SOL    HW122250   1.278   6.545   4.641 -0.0869  0.8818  0.8408
 7117SOL    HW222251   1.389   6.582   4.755  1.3164 -0.4981 -0.0312
 7118SOL     OW22252   2.135   4.801   6.468 -0.0547 -0.2344  0.0298
 7118SOL    HW122253   2.072   4.730   6.438 -0.8818  0.5472 -0.1239
 7118SOL    HW222254   2.217   4.800   6.411 -0.5209 -0.3865 -0.6519
 7119SOL     OW22255   4.234   5.256   0.424  0.0088  0.0845  0.0148
 7119SOL    HW122256   4.176   5.212   0.493  1.4594 -1.2807  0.3983
 7119SOL    HW222257   4.178   5.278   0.344 -1.5962  1.1956  1.3521
 7120SOL     OW22258   4.924   6.828   6.720  0.0117 -0.7644 -0.1356
 7120SOL    HW122259   4.971   6.907   6.681 -0.2257 -0.5530  0.0037
 7120SOL    HW222260   4.827   6.847   6.728  0.1370 -0.5822  1.0958
 7121SOL     OW22261   4.580   5.227   5.323  0.0894  0.3556  0.2092
 7121SOL    HW122262   4.651   5.283   5.280  0.7209  1.7761  2.8257
 7121SOL    HW222263   4.490   5.257   5.292  0.5483  0.0720 -1.4527
 7122SOL     OW22264   2.245   6.914   6.728 -0.0517  0.1980 -0.0303
 7122SOL    HW122265   2.228   7.010   6.751  2.5172  0.6713  0.2663
 7122SOL    HW222266   2.195   6.855   6.792  0.9048  1.4274  1.9791
 7123SOL     OW22267   0.881   5.327   1.169 -0.6098  0.4215 -0.0650
 7123SOL    HW122268   0.922   5.415   1.145 -0.1346  0.1526 -0.2582
 7123SOL    HW222269   0.852   5.328   1.264  3.3563 -0.6170  1.3786
 7124SOL     OW22270   3.108   1.734   3.619 -0.0404  0.3633  0.0310
 7124SOL    HW122271   3.019   1.692   3.637 -0.0586  0.7183  0.8096
 7124SOL    HW222272   3.177   1.693   3.679  0.1835  0.5729 -0.0814
 7125SOL     OW22273   3.804   2.128   3.173 -0.2336  0.0744  0.3994
 7125SOL    HW122274   3.893   2.174   3.180 -0.0667  0.1181 -1.4073
 7125SOL    HW222275   3.765   2.116   3.264  1.7959 -0.2794  1.2779
 7126SOL     OW22276   3.998   6.921   5.915 -0.7202 -0.8135  0.0356
 7126SOL    HW122277   4.041   6.830   5.915  2.8062  0.5857 -3.1069
 7126SOL    HW222278   4.036   6.976   5.990 -2.1669 -1.5185  1.3566
 7127SOL     OW22279   4.006   5.857   6.429 -0.6808  0.7395  0.2627
 7127SOL    HW122280   3.978   5.784   6.367 -1.1620  1.7266 -0.7383
 7127SOL    HW222281   4.102   5.844   6.454  0.2060  1.3968 -2.4072
 7128SOL     OW22282   1.853   0.257   4.005  0.2026 -0.2749 -0.2634
 7128SOL    HW122283   1.765   0.278   4.048  0.0451 -1.0701 -0.1820
 7128SOL    HW222284   1.926   0.306   4.052 -0.5104  3.2481 -2.4495
 7129SOL     OW22285   5.900   4.074   3.690 -0.0314  0.2910  0.3395
 7129SOL    HW122286   5.806   4.106   3.697 -0.6153 -1.3825  0.7205
 7129SOL    HW222287   5.917   4.041   3.597 -0.2491 -0.5581  0.5850
 7130SOL     OW22288   5.031   2.254   5.174 -0.2290  0.3922 -0.6417
 7130SOL    HW122289   5.123   2.221   5.151 -0.3276  0.2239 -0.8007
 7130SOL    HW222290   4.967   2.227   5.102 -0.6855 -0.7872  0.1761
 7131SOL     OW22291   1.796   1.677   5.875 -0.5240 -0.3407 -0.0995
 7131SOL    HW122292   1.793   1.594   5.930  1.6522 -0.1750  0.3683
 7131SOL    HW222293   1.763   1.754   5.929  1.7914 -0.1400  1.1714
 7132SOL     OW22294   6.077   3.867   1.932 -0.0914 -0.2543 -0.1697
 7132SOL    HW122295   6.137   3.910   2.001 -0.0576  0.8010 -0.8249
 7132SOL    HW222296   6.050   3.936   1.865 -0.5038 -1.1622 -0.9548
 7133SOL     OW22297   4.284   1.315   1.684 -0.3725  0.4048 -0.4903
 7133SOL    HW122298   4.289   1.371   1.601 -0.4248  0.3891 -0.5045
 7133SOL    HW222299   4.370   1.321   1.734 -0.2369  0.1778 -0.6965
 7134SOL     OW22300   3.073   3.583   0.511  0.4367 -0.0750 -0.3556
 7134SOL    HW122301   3.088   3.607   0.415 -0.5049  0.9831 -0.2553
 7134SOL    HW222302   2.984   3.616   0.541  0.0964 -1.6552  0.5009
 7135SOL     OW22303   1.089   6.694   6.397 -0.8289  0.1061 -0.1728
 7135SOL    HW122304   1.088   6.679   6.496  1.1761 -0.8996 -0.2444
 7135SOL    HW222305   1.100   6.792   6.378 -1.6273  0.3491  0.5804
 7136SOL     OW22306   2.709   0.511   4.086 -0.2421 -0.2159 -0.4162
 7136SOL    HW122307   2.644   0.575   4.127  0.2173  0.0194 -0.0441
 7136SOL    HW222308   2.698   0.421   4.128 -2.8697 -1.1949 -2.9151
 7137SOL     OW22309   6.589   2.643   3.611  0.1947  0.1853  0.2433
 7137SOL    HW122310   6.555   2.733   3.587 -0.3043 -0.5535 -2.1191
 7137SOL    HW222311   6.527   2.599   3.676  0.0837  1.2588  0.8790
 7138SOL     OW22312   0.740   5.780   2.654  0.3276  0.0023  0.0106
 7138SOL    HW122313   0.748   5.816   2.562 -2.4448  2.0992  0.4588
 7138SOL    HW222314   0.644   5.779   2.681  0.9127 -1.8906  2.4050
 7139SOL     OW22315   5.254   4.251   2.346  0.5650 -0.3345  0.2870
 7139SOL    HW122316   5.326   4.195   2.304  1.4490 -0.3465  1.7605
 7139SOL    HW222317   5.172   4.195   2.359  1.0964 -1.0246  0.7917
 7140SOL     OW22318   0.769   5.584   0.123 -0.0750  0.0778 -0.4569
 7140SOL    HW122319   0.864   5.605   0.099 -0.5203  0.8592 -1.6881
 7140SOL    HW222320   0.743   5.634   0.205  0.6287 -0.2808 -0.0118
 7141SOL     OW22321   2.575   2.164   0.400  0.3480 -0.1030 -0.3364
 7141SOL    HW122322   2.585   2.166   0.500  0.1590  0.1196 -0.3220
 7141SOL    HW222323   2.555   2.256   0.367 -1.1665 -0.4466 -0.4209
 7142SOL     OW22324   6.492   5.082   6.692 -0.3941  0.3088 -0.4963
 7142SOL    HW122325   6.459   5.163   6.741 -1.4180 -1.3732  1.7571
 7142SOL    HW222326   6.577   5.050   6.734  1.1959  1.3382 -2.7137
 7143SOL     OW22327   1.833   3.679   4.349 -0.2768 -0.5408 -0.0893
 7143SOL    HW122328   1.847   3.731   4.433  1.6828 -1.4404  0.1906
 7143SOL    HW222329   1.920   3.643   4.316 -1.1324 -1.0537 -1.9786
 7144SOL     OW22330   0.503   2.978   4.439 -0.2232  0.4168 -0.3170
 7144SOL    HW122331   0.583   3.037   4.431 -0.2682  0.3059 -1.8271
 7144SOL    HW222332   0.532   2.884   4.458 -0.0809  0.6133  0.4892
 7145SOL     OW22333   0.619   1.269   2.097 -0.0624  0.2748  0.7142
 7145SOL    HW122334   0.614   1.208   2.176 -1.5710 -0.2549  0.2325
 7145SOL    HW222335   0.654   1.358   2.127 -0.8136  0.1620  2.0354
 7146SOL     OW22336   6.280   0.301   0.197  0.0592 -0.6540 -0.0013
 7146SOL    HW122337   6.368   0.259   0.173  0.9702  2.1213 -1.9354
 7146SOL    HW222338   6.209   0.263   0.139  0.5251 -0.8036 -0.4845
 7147SOL     OW22339   2.052   4.540   5.392  0.1690 -0.5377 -0.2970
 7147SOL    HW122340   2.009   4.553   5.482  0.2609  0.0479 -0.3327
 7147SOL    HW222341   2.083   4.628   5.357  0.0411 -0.7490 -0.9556
 7148SOL     OW22342   0.241   4.944   4.060 -0.5360 -0.7209  0.3186
 7148SOL    HW122343   0.307   5.001   4.109 -0.3377 -0.5804 -0.1057
 7148SOL    HW222344   0.203   4.996   3.983  1.5434 -1.9619 -1.6755
 7149SOL     OW22345   3.464   0.466   6.015 -0.1794  0.1097  0.1167
 7149SOL    HW122346   3.510   0.381   5.991 -0.0428 -0.1853  1.3593
 7149SOL    HW222347   3.367   0.448   6.034 -0.0057  0.0862  1.0561
 7150SOL     OW22348   1.659   6.296   3.424 -0.1487  0.2156 -0.2695
 7150SOL    HW122349   1.594   6.261   3.356  1.1172  0.0119 -1.4182
 7150SOL    HW222350   1.707   6.219   3.467  0.8190  0.4193 -0.9552
 7151SOL     OW22351   3.661   1.671   6.628  0.4859 -0.1881  0.3055
 7151SOL    HW122352   3.600   1.596   6.651 -0.9118  1.2385  1.4590
 7151SOL    HW222353   3.746   1.662   6.680  0.5488 -1.2147  0.0466
 7152SOL     OW22354   1.763   6.298   5.265  0.2305  0.4889  0.2993
 7152SOL    HW122355   1.791   6.207   5.234 -1.4451 -0.0337  0.2313
 7152SOL    HW222356   1.794   6.366   5.199  0.3627 -0.1744 -0.3386
 7153SOL     OW22357   5.610   6.155   6.542  0.5985  0.3061  0.1932
 7153SOL    HW122358   5.566   6.136   6.629  0.1733 -2.9177 -0.5749
 7153SOL    HW222359   5.695   6.205   6.557  0.1188  0.5550  2.3548
 7154SOL     OW22360   1.867   0.720   3.905  0.4215  0.0860  0.5020
 7154SOL    HW122361   1.866   0.651   3.833 -2.7795  1.0723 -0.5790
 7154SOL    HW222362   1.960   0.731   3.940  1.6622 -2.1304 -1.8046
 7155SOL     OW22363   6.036   2.271   4.493 -0.3009 -0.2120  0.3893
 7155SOL    HW122364   6.040   2.286   4.395  2.5023 -1.5824  0.1875
 7155SOL    HW222365   6.111   2.320   4.538  0.0164 -1.6110  1.4794
 7156SOL     OW22366   6.477   3.042   5.677 -0.0643 -0.0685  0.3171
 7156SOL    HW122367   6.429   3.093   5.749 -0.1883 -1.0870  0.9673
 7156SOL    HW222368   6.564   3.088   5.657 -0.1187  0.3455  0.9719
 7157SOL     OW22369   3.733   0.552   0.852 -0.1136 -0.4348  0.1138
 7157SOL    HW122370   3.832   0.558   0.834 -0.4542 -0.6284 -2.0881
 7157SOL    HW222371   3.702   0.638   0.892  1.1997 -0.9718  2.4851
 7158SOL     OW22372   6.356   5.171   2.899 -0.1519 -0.1033 -0.1687
 7158SOL    HW122373   6.397   5.243   2.843 -0.5431  0.4106  0.1926
 7158SOL    HW222374   6.261   5.156   2.870 -0.0737 -0.4654 -0.2371
 7159SOL     OW22375   5.532   2.360   5.357 -0.6075 -0.0298 -0.1114
 7159SOL    HW122376   5.492   2.436   5.306  0.2883  0.6075  0.0982
 7159SOL    HW222377   5.585   2.396   5.434 -1.0058 -0.9214  0.5943
 7160SOL     OW22378   0.191   6.736   0.768 -0.2600  0.6566 -0.2378
 7160SOL    HW122379   0.181   6.809   0.835 -2.1206 -1.3669  1.8538
 7160SOL    HW222380   0.127   6.752   0.692 -1.1831  0.8525  0.5620
 7161SOL     OW22381   2.580   5.789   2.089 -0.4375 -0.1173 -0.2992
 7161SOL    HW122382   2.584   5.888   2.073 -1.2671 -0.1343 -0.7038
 7161SOL    HW222383   2.485   5.759   2.082 -0.5831 -0.5302  2.3739
 7162SOL     OW22384   5.266   5.072   0.453 -0.7053  0.2943 -0.3609
 7162SOL    HW122385   5.317   4.994   0.490 -0.1322  0.3899 -0.9266
 7162SOL    HW222386   5.314   5.157   0.476 -0.9116  0.4236 -0.4106
 7163SOL     OW22387   1.105   6.381   5.459 -0.6764  0.2497 -0.1293
 7163SOL    HW122388   1.201   6.409   5.451 -0.9656  1.0654 -0.9943
 7163SOL    HW222389   1.056   6.410   5.377 -1.1240 -2.4839 -0.9006
 7164SOL     OW22390   5.851   6.383   0.794 -0.1069  0.1850 -0.0610
 7164SOL    HW122391   5.817   6.311   0.854 -0.4345  1.0195  0.7949
 7164SOL    HW222392   5.912   6.344   0.725 -1.5722 -1.1209 -0.6640
 7165SOL     OW22393   3.877   6.320   6.876 -0.2371 -0.5400 -0.4042
 7165SOL    HW122394   3.918   6.274   6.955  0.0799 -0.8283 -0.7342
 7165SOL    HW222395   3.946   6.332   6.805 -0.6402 -0.7171 -0.8306
 7166SOL     OW22396   4.155   2.371   0.732  0.0394 -0.5801  0.0815
 7166SOL    HW122397   4.061   2.401   0.724 -0.1107 -0.7484  1.1271
 7166SOL    HW222398   4.189   2.389   0.824  1.2410  0.0660 -0.4650
 7167SOL     OW22399   1.743   2.445   2.624  0.1280  0.5032  0.4083
 7167SOL    HW122400   1.654   2.465   2.665 -0.5557  0.4988 -1.0302
 7167SOL    HW222401   1.783   2.530   2.590 -0.8395  0.1249 -1.8600
 7168SOL     OW22402   4.677   2.384   5.911  0.4891  0.0651 -0.0895
 7168SOL    HW122403   4.665   2.419   6.004 -1.3381  0.2379 -0.3526
 7168SOL    HW222404   4.699   2.460   5.850 -1.3351  0.4853 -0.2854
 7169SOL     OW22405   3.114   0.102   6.806  0.2772 -0.4105 -0.6010
 7169SOL    HW122406   3.086   0.198   6.800 -0.7094 -0.4918  1.6845
 7169SOL    HW222407   3.204   0.091   6.763  0.4729  1.5474 -0.7889
 7170SOL     OW22408   3.421   5.133   2.646 -0.3517 -0.4452  0.1604
 7170SOL    HW122409   3.473   5.168   2.724 -0.0424 -0.1148 -0.1889
 7170SOL    HW222410   3.351   5.200   2.620  1.5401  0.9267 -1.7905
 7171SOL     OW22411   2.174   1.917   3.305 -0.1746  0.4726  0.0660
 7171SOL    HW122412   2.095   1.979   3.301 -0.3012  0.2983 -0.2104
 7171SOL    HW222413   2.143   1.826   3.333 -0.2828  0.0719 -1.3032
 7172SOL     OW22414   5.584   5.380   5.003 -0.2488  0.4907  0.2465
 7172SOL    HW122415   5.677   5.347   4.989 -0.9586 -1.0038 -1.4519
 7172SOL    HW222416   5.585   5.461   5.063  2.0776  0.3736  0.4496
 7173SOL     OW22417   5.485   6.915   1.330 -0.3614 -0.0357 -0.5937
 7173SOL    HW122418   5.394   6.922   1.371 -0.6131  0.3409 -1.2078
 7173SOL    HW222419   5.535   6.840   1.373 -0.6665  0.2693  0.3093
 7174SOL     OW22420   2.757   6.894   3.133 -0.2513  0.1611  0.1320
 7174SOL    HW122421   2.788   6.906   3.039  0.2361 -2.0508 -0.0416
 7174SOL    HW222422   2.835   6.902   3.195 -0.0164 -1.3507  0.0574
 7175SOL     OW22423   6.791   2.874   5.448 -0.4065  0.4250  0.1165
 7175SOL    HW122424   6.807   2.775   5.454  0.7219  0.5859 -0.0341
 7175SOL    HW222425   6.841   2.911   5.370  0.2432  1.3276  0.9520
 7176SOL     OW22426   1.660   2.050   4.201 -0.0402 -0.0738 -0.2009
 7176SOL    HW122427   1.717   2.126   4.230  1.2636 -1.2093  0.3092
 7176SOL    HW222428   1.564   2.071   4.219  0.4450  0.6828  1.7255
 7177SOL     OW22429   5.553   0.163   0.493 -0.1446 -0.1309  0.2273
 7177SOL    HW122430   5.529   0.215   0.575 -3.5014  0.4812 -0.9434
 7177SOL    HW222431   5.555   0.225   0.414  0.1599 -1.1291 -0.5670
 7178SOL     OW22432   6.632   5.028   4.526 -0.5059 -0.0589 -0.0922
 7178SOL    HW122433   6.705   4.994   4.585  1.4836  2.7885 -0.7007
 7178SOL    HW222434   6.638   4.984   4.436  1.1584  0.7973 -0.4427
 7179SOL     OW22435   0.245   0.933   5.489  0.2003 -0.0541 -0.4612
 7179SOL    HW122436   0.323   0.993   5.508 -0.3798  0.2662  1.1016
 7179SOL    HW222437   0.174   0.984   5.440 -0.7154  0.9321  1.7287
 7180SOL     OW22438   7.002   5.973   1.073 -0.0316  0.1848  0.2404
 7180SOL    HW122439   7.025   5.919   0.992  0.7482 -1.5731  1.5716
 7180SOL    HW222440   6.935   5.923   1.129 -2.1354  2.2650 -0.2523
 7181SOL     OW22441   6.906   6.354   1.847  0.4354 -0.1321  0.2295
 7181SOL    HW122442   6.860   6.386   1.764  0.0746 -1.3302 -0.0521
 7181SOL    HW222443   6.847   6.370   1.926  1.1107  1.7620  0.4085
 7182SOL     OW22444   5.550   1.586   4.686  0.7276  0.4777 -0.6904
 7182SOL    HW122445   5.475   1.521   4.677 -0.4464  1.5665  0.7540
 7182SOL    HW222446   5.554   1.644   4.605 -0.4693  0.8700 -0.4865
 7183SOL     OW22447   4.476   1.563   4.675 -0.5176 -0.8832  0.5853
 7183SOL    HW122448   4.426   1.634   4.724  0.0455  0.7106 -1.0523
 7183SOL    HW222449   4.417   1.524   4.604 -0.4695 -1.2992  0.7693
 7184SOL     OW22450   2.109   0.705   1.046  0.3870 -0.0185 -0.3867
 7184SOL    HW122451   2.086   0.639   1.117  0.5028  0.0786 -0.2579
 7184SOL    HW222452   2.196   0.749   1.069  0.4914 -0.0827 -0.6545
 7185SOL     OW22453   6.781   2.983   5.906 -0.6169 -0.4379 -0.1035
 7185SOL    HW122454   6.851   2.977   5.835  0.8185 -1.7743  1.3454
 7185SOL    HW222455   6.727   3.066   5.893  0.5753  0.1139 -1.8423
 7186SOL     OW22456   1.642   4.527   6.211  0.1700 -0.1097 -0.4610
 7186SOL    HW122457   1.624   4.433   6.180  0.2071 -0.0034 -0.8057
 7186SOL    HW222458   1.729   4.529   6.260  0.0450 -0.3054 -0.2291
 7187SOL     OW22459   1.269   2.851   5.581 -0.1157  0.1979  0.3497
 7187SOL    HW122460   1.344   2.842   5.646  0.3691 -0.9964 -0.3432
 7187SOL    HW222461   1.220   2.764   5.573 -0.6991  0.5649 -0.2574
 7188SOL     OW22462   0.745   0.000   6.550  0.1481  0.2448  0.5405
 7188SOL    HW122463   0.739  -0.013   6.649  2.2055 -0.1524  0.6649
 7188SOL    HW222464   0.743   0.098   6.528  1.3997  0.4327  1.1664
 7189SOL     OW22465   6.056   2.442   4.227  0.4212  0.0244  0.1431
 7189SOL    HW122466   6.000   2.515   4.189  0.8839  0.0303 -0.5426
 7189SOL    HW222467   6.143   2.438   4.178  0.4621 -0.8812  0.2790
 7190SOL     OW22468   0.855   4.907   1.803  1.0720 -0.0028  0.7630
 7190SOL    HW122469   0.954   4.915   1.804  1.2052 -0.8259 -1.0604
 7190SOL    HW222470   0.816   4.985   1.755  1.0666 -0.8955 -0.7711
 7191SOL     OW22471   5.171   0.095   6.084  0.3196  0.3050  0.2183
 7191SOL    HW122472   5.238   0.038   6.132  0.0156 -0.1472  0.1147
 7191SOL    HW222473   5.124   0.040   6.015 -1.0240  0.2850  1.1046
 7192SOL     OW22474   7.012   3.724   2.983 -0.1759  0.1545 -0.0484
 7192SOL    HW122475   6.926   3.686   2.950 -1.1737  2.3699 -0.2248
 7192SOL    HW222476   7.008   3.733   3.082  0.9210 -2.0820  0.2524
 7193SOL     OW22477   0.619   2.833   5.283  0.0348  0.8521 -0.7313
 7193SOL    HW122478   0.648   2.776   5.206 -0.4924 -0.5035  0.0420
 7193SOL    HW222479   0.689   2.831   5.354 -0.1029  0.9533 -0.5936
 7194SOL     OW22480   2.916   6.104   6.045 -0.7480 -0.1529 -0.0629
 7194SOL    HW122481   2.927   6.155   6.130 -1.4151  0.1005 -0.1263
 7194SOL    HW222482   3.006   6.089   6.003 -0.6297  3.6352 -1.5903
 7195SOL     OW22483   2.007   2.811   1.780  0.3879 -0.1738  0.1327
 7195SOL    HW122484   2.059   2.869   1.717  0.9965 -0.6182  0.2204
 7195SOL    HW222485   2.068   2.772   1.849 -0.0499 -0.7626  0.2003
 7196SOL     OW22486   0.228   4.681   2.542  0.2988 -0.0606  0.3129
 7196SOL    HW122487   0.303   4.684   2.475  0.9125 -1.4653  0.8975
 7196SOL    HW222488   0.265   4.668   2.634 -0.6593 -0.8432  0.6099
 7197SOL     OW22489   2.295   4.219   1.507  0.1448  0.2865  0.2394
 7197SOL    HW122490   2.323   4.288   1.440  1.3335 -0.5153 -0.1319
 7197SOL    HW222491   2.247   4.145   1.461 -0.4326  0.4796  0.5204
 7198SOL     OW22492   0.523   6.335   0.480  0.5510  0.3531  0.0785
 7198SOL    HW122493   0.550   6.335   0.384 -1.0619  0.4103 -0.4009
 7198SOL    HW222494   0.487   6.425   0.504 -1.7624 -0.4616 -0.1037
 7199SOL     OW22495   6.275   1.380   2.974 -0.2259  0.2578 -0.3443
 7199SOL    HW122496   6.244   1.312   3.041  1.0276 -0.6551 -0.6717
 7199SOL    HW222497   6.335   1.337   2.907 -0.2509  1.4818 -1.1871
 7200SOL     OW22498   4.840   1.306   3.088 -0.2195  0.0788 -0.2506
 7200SOL    HW122499   4.848   1.247   3.008 -1.8795 -1.7431  0.8369
 7200SOL    HW222500   4.899   1.271   3.161 -0.6647  0.1961  0.1684
 7201SOL     OW22501   2.766   6.184   3.424  1.1573  0.1312 -0.6180
 7201SOL    HW122502   2.720   6.227   3.346  0.5133  0.9435  0.1838
 7201SOL    HW222503   2.713   6.105   3.454  1.7833 -0.6157 -1.4340
 7202SOL     OW22504   1.293   1.440   5.330  0.5731 -0.7176  0.2442
 7202SOL    HW122505   1.267   1.536   5.328  1.4447 -0.4840 -0.5006
 7202SOL    HW222506   1.346   1.418   5.248  1.3831 -1.5526  0.9695
 7203SOL     OW22507   0.570   1.383   3.986  0.0279 -0.7098 -0.0829
 7203SOL    HW122508   0.550   1.292   3.949 -0.1883 -1.5587  2.0093
 7203SOL    HW222509   0.501   1.448   3.954 -0.2596 -1.4412 -0.9857
 7204SOL     OW22510   6.941   5.529   3.376  0.4336  0.0022 -0.4788
 7204SOL    HW122511   6.877   5.458   3.345  1.4914 -0.9437 -0.5874
 7204SOL    HW222512   6.893   5.594   3.435 -0.2640 -1.7157  0.9651
 7205SOL     OW22513   6.692   3.471   1.697 -0.2846  0.3695 -0.2582
 7205SOL    HW122514   6.735   3.382   1.711 -0.1048  0.4682 -0.1801
 7205SOL    HW222515   6.704   3.527   1.778  0.8545  0.9809 -0.8121
 7206SOL     OW22516   3.667   1.140   3.411  0.0481 -0.2547 -0.0889
 7206SOL    HW122517   3.593   1.109   3.471  1.0653 -0.3492  1.1884
 7206SOL    HW222518   3.745   1.167   3.468  0.3858  1.4872 -1.3094
 7207SOL     OW22519   1.187   1.656   2.925 -0.1880  0.3694 -0.2106
 7207SOL    HW122520   1.190   1.755   2.913 -0.2821  0.4703  0.5587
 7207SOL    HW222521   1.092   1.626   2.937 -0.1377  0.2169 -0.1851
 7208SOL     OW22522   0.172   1.322   5.693 -0.8739 -0.1601 -0.2588
 7208SOL    HW122523   0.153   1.417   5.720 -2.5556 -0.7476  0.7689
 7208SOL    HW222524   0.268   1.301   5.712 -0.6799  1.0873  0.2639
 7209SOL     OW22525   5.626   0.079   3.660 -0.0414  0.2638 -0.3127
 7209SOL    HW122526   5.670   0.017   3.596 -0.4892  0.9409 -1.3045
 7209SOL    HW222527   5.599   0.163   3.612  0.2265  1.0776  0.9129
 7210SOL     OW22528   6.335   3.838   0.080 -0.0890 -0.6766 -0.2497
 7210SOL    HW122529   6.434   3.852   0.084  0.0448 -1.6428  0.0500
 7210SOL    HW222530   6.312   3.750   0.121 -1.1530 -0.1577  0.2969
 7211SOL     OW22531   2.259   6.968   4.371  0.9336 -0.5976  0.3354
 7211SOL    HW122532   2.242   6.877   4.333  0.5734 -0.6522  0.6254
 7211SOL    HW222533   2.358   6.984   4.375  1.1461  1.3535 -5.2623
 7212SOL     OW22534   6.825   5.006   5.163  0.0972 -0.6886  0.2055
 7212SOL    HW122535   6.880   4.955   5.229 -0.3301 -0.2407  0.9350
 7212SOL    HW222536   6.861   5.099   5.154  0.5238 -0.9309 -0.6700
 7213SOL     OW22537   0.965   2.344   3.082 -0.1884 -1.1903 -0.7821
 7213SOL    HW122538   0.871   2.360   3.052  0.5669  0.4322 -2.4845
 7213SOL    HW222539   1.027   2.352   3.003  1.4249 -1.8815  0.3581
 7214SOL     OW22540   4.522   5.789   3.153 -0.0399  0.0691 -0.5186
 7214SOL    HW122541   4.430   5.784   3.113 -0.4138  0.3983  0.2594
 7214SOL    HW222542   4.585   5.832   3.089 -1.1760  2.9450  0.1492
 7215SOL     OW22543   2.351   0.761   6.582 -0.1939  0.2287 -0.2158
 7215SOL    HW122544   2.345   0.674   6.534  0.8525  0.9530 -1.7309
 7215SOL    HW222545   2.415   0.822   6.535 -1.9397  2.3659 -0.0363
 7216SOL     OW22546   1.745   6.931   1.677 -0.0822  0.5668 -0.0846
 7216SOL    HW122547   1.828   6.875   1.684  0.2702  1.2376  1.4131
 7216SOL    HW222548   1.723   6.945   1.580  0.0601 -1.7587 -0.5192
 7217SOL     OW22549   0.160   0.499   2.122  0.2244 -0.1873  0.5996
 7217SOL    HW122550   0.080   0.441   2.106 -0.4239  0.4887  1.3325
 7217SOL    HW222551   0.232   0.473   2.057 -0.7634 -0.4552 -0.4375
 7218SOL     OW22552   6.124   4.551   6.521  0.4368  0.5452  0.0180
 7218SOL    HW122553   6.219   4.578   6.502 -0.4416  2.6998 -1.7281
 7218SOL    HW222554   6.064   4.629   6.506 -1.4841 -0.1937  3.0237
 7219SOL     OW22555   4.797   5.013   3.264  0.3901 -0.1099 -0.0942
 7219SOL    HW122556   4.713   5.016   3.210  0.2129 -1.7043  0.0520
 7219SOL    HW222557   4.791   5.078   3.339  1.1532  3.1295 -2.6153
 7220SOL     OW22558   1.140   1.518   0.060 -0.3684  0.0860  0.4441
 7220SOL    HW122559   1.208   1.469   0.114 -0.9794  0.0007  1.1612
 7220SOL    HW222560   1.053   1.519   0.110 -0.9584 -0.0338 -0.5714
 7221SOL     OW22561   5.345   5.963   2.376  0.5671 -0.2906 -0.7007
 7221SOL    HW122562   5.329   5.947   2.473 -2.6489 -3.0165 -1.5053
 7221SOL    HW222563   5.444   5.967   2.358  1.2556 -0.8407  2.4724
 7222SOL     OW22564   6.874   0.238   2.797  0.1363  0.6125  0.1995
 7222SOL    HW122565   6.867   0.312   2.863 -1.3650 -1.2444  2.2925
 7222SOL    HW222566   6.815   0.162   2.826  2.6755 -2.0144 -0.9728
 7223SOL     OW22567   5.552   5.790   5.876 -0.4213 -0.0462  0.2046
 7223SOL    HW122568   5.472   5.751   5.830 -0.8955  0.7278  0.3573
 7223SOL    HW222569   5.614   5.828   5.808  1.0758 -2.8285 -0.1453
 7224SOL     OW22570   1.902   3.619   5.837 -0.1640  0.1284  0.1487
 7224SOL    HW122571   1.905   3.521   5.858  2.1609  0.4557  1.7092
 7224SOL    HW222572   1.930   3.634   5.742 -1.2164 -0.7197 -0.3258
 7225SOL     OW22573   0.768   2.510   5.573  0.1639  0.5029  0.0556
 7225SOL    HW122574   0.722   2.525   5.485  0.1509 -0.6774 -0.1511
 7225SOL    HW222575   0.699   2.494   5.644  0.2046  0.6486  0.1296
 7226SOL     OW22576   3.959   1.488   1.676 -0.2760 -0.7256  0.2888
 7226SOL    HW122577   3.964   1.455   1.770 -1.1992  0.4268  0.7682
 7226SOL    HW222578   4.025   1.562   1.663 -1.1737  0.1318  0.4868
 7227SOL     OW22579   4.337   6.188   3.509  0.4102 -0.6055  0.0084
 7227SOL    HW122580   4.413   6.168   3.570  0.6516 -2.0397 -0.7332
 7227SOL    HW222581   4.262   6.123   3.525 -0.6860  0.7733  0.7237
 7228SOL     OW22582   4.134   0.456   5.607 -0.1746 -0.0092  0.4123
 7228SOL    HW122583   4.062   0.387   5.595  0.4825 -0.4628 -1.1493
 7228SOL    HW222584   4.212   0.433   5.549  1.7281 -0.1453  2.8272
 7229SOL     OW22585   4.512   0.578   1.990  0.4651 -0.1816 -0.0160
 7229SOL    HW122586   4.506   0.523   2.074  2.2513 -0.6798 -0.1880
 7229SOL    HW222587   4.503   0.675   2.014 -0.3983 -0.3928  0.5700
 7230SOL     OW22588   6.155   4.709   0.865  0.1431  0.0461  0.1825
 7230SOL    HW122589   6.179   4.627   0.812  0.7274  0.5972 -0.4056
 7230SOL    HW222590   6.057   4.706   0.885 -0.3300  0.3128 -1.8185
 7231SOL     OW22591   5.734   0.381   6.723  0.1333 -0.0497 -0.0738
 7231SOL    HW122592   5.684   0.379   6.636 -0.9253  0.3689  0.5033
 7231SOL    HW222593   5.687   0.442   6.787 -0.2040 -1.8246  1.4514
 7232SOL     OW22594   1.405   0.382   5.119 -0.3339  0.4218  0.1362
 7232SOL    HW122595   1.395   0.347   5.213 -0.1406  1.0873  0.4077
 7232SOL    HW222596   1.498   0.363   5.087 -0.5262 -0.1700 -0.0713
 7233SOL     OW22597   5.199   3.348   3.664 -0.4573  0.5090  0.3352
 7233SOL    HW122598   5.178   3.264   3.715 -0.5794 -1.1747 -2.2861
 7233SOL    HW222599   5.114   3.395   3.640 -0.4468  0.7760  0.7986
 7234SOL     OW22600   3.983   6.467   5.295  0.4920  0.2170  1.3824
 7234SOL    HW122601   3.929   6.450   5.212 -0.2138 -0.1831  1.9071
 7234SOL    HW222602   4.038   6.386   5.316  0.9313  0.4453  1.1163
 7235SOL     OW22603   6.556   5.709   2.026 -0.0597 -0.3570  0.0514
 7235SOL    HW122604   6.481   5.720   2.091 -0.4874  0.2014 -0.5174
 7235SOL    HW222605   6.603   5.622   2.042  0.7185  0.3700  1.9861
 7236SOL     OW22606   6.473   0.275   2.851  0.4434  0.1190  0.1060
 7236SOL    HW122607   6.527   0.192   2.864  0.7217  0.4275  0.9751
 7236SOL    HW222608   6.444   0.281   2.755 -1.0413 -1.8532  0.3594
 7237SOL     OW22609   1.564   6.763   0.685 -0.2410 -0.0576  0.3146
 7237SOL    HW122610   1.579   6.797   0.592  1.4489  1.0939  0.9638
 7237SOL    HW222611   1.637   6.796   0.745 -2.1334  0.5631  2.4163
 7238SOL     OW22612   2.055   4.744   0.858  0.0301  0.1947  0.4359
 7238SOL    HW122613   2.036   4.654   0.818 -0.2940  1.2638 -1.9998
 7238SOL    HW222614   2.142   4.740   0.907  0.4263 -1.2476 -0.3127
 7239SOL     OW22615   2.850   5.088   4.233  0.1276  0.1274 -0.1458
 7239SOL    HW122616   2.830   4.992   4.249  1.7872 -0.5396 -1.6722
 7239SOL    HW222617   2.783   5.126   4.170  1.1464 -0.9253 -1.9527
 7240SOL     OW22618   3.567   3.287   6.405  0.2683  0.0056  0.0063
 7240SOL    HW122619   3.580   3.196   6.365 -0.4162 -0.7977  1.5144
 7240SOL    HW222620   3.625   3.296   6.486  0.0893  0.7897  0.0528
 7241SOL     OW22621   5.091   1.940   4.652 -0.1863 -0.0969  0.8860
 7241SOL    HW122622   5.170   1.890   4.688 -0.5143 -0.7766  0.6823
 7241SOL    HW222623   5.038   1.879   4.593  1.9186  1.7036 -3.2773
 7242SOL     OW22624   4.181   2.248   2.592 -0.0279 -0.7194 -0.0642
 7242SOL    HW122625   4.206   2.323   2.529 -0.3342  0.1251  0.7969
 7242SOL    HW222626   4.097   2.272   2.641  0.2013 -1.3715  0.6642
 7243SOL     OW22627   2.927   5.293   2.935 -0.1249  0.0029 -0.0360
 7243SOL    HW122628   2.895   5.287   2.840 -0.5628  1.5728 -0.0309
 7243SOL    HW222629   2.870   5.235   2.993 -1.3171  0.7290 -0.4333
 7244SOL     OW22630   1.019   0.639   0.551  0.3744  0.4287  0.2250
 7244SOL    HW122631   1.108   0.596   0.568  1.4941  0.8546 -3.6248
 7244SOL    HW222632   1.015   0.728   0.597  1.8371  0.3123  0.6210
 7245SOL     OW22633   5.945   0.461   5.972  0.8041  0.5149 -0.2481
 7245SOL    HW122634   5.853   0.499   5.964  0.7495  0.6563  0.9072
 7245SOL    HW222635   5.953   0.380   5.914  0.2060  0.9519 -0.9587
 7246SOL     OW22636   3.967   0.008   6.815 -0.5393 -0.2656 -0.7159
 7246SOL    HW122637   4.017   0.052   6.740  1.3559 -0.1702  0.5334
 7246SOL    HW222638   3.904   0.074   6.856  0.5232  0.5769 -0.3936
 7247SOL     OW22639   0.390   1.729   5.430  0.1942  0.3885  0.1866
 7247SOL    HW122640   0.386   1.720   5.530  0.2598 -0.4489  0.1199
 7247SOL    HW222641   0.304   1.697   5.391  0.5841 -0.3478 -0.0911
 7248SOL     OW22642   2.757   0.116   4.502  0.0549  0.2185  0.0106
 7248SOL    HW122643   2.807   0.127   4.588 -1.2286 -0.1459  0.8313
 7248SOL    HW222644   2.820   0.125   4.425  1.0121  1.9116  0.9369
 7249SOL     OW22645   0.296   6.988   4.688 -0.1654 -0.4935 -0.1210
 7249SOL    HW122646   0.344   7.076   4.696 -0.7463 -0.1541 -0.2731
 7249SOL    HW222647   0.249   6.984   4.600 -1.6951 -0.1415  0.6345
 7250SOL     OW22648   3.323   6.850   5.351 -0.0452  0.4718  0.0526
 7250SOL    HW122649   3.288   6.915   5.284  0.9166 -0.8271 -1.8331
 7250SOL    HW222650   3.316   6.888   5.443 -0.0681  2.9544 -0.9037
 7251SOL     OW22651   6.037   2.538   4.926  0.3793  0.6916 -0.1107
 7251SOL    HW122652   5.967   2.599   4.889 -0.4487 -0.8016 -1.0673
 7251SOL    HW222653   6.007   2.501   5.014 -0.8017 -1.1578 -1.2285
 7252SOL     OW22654   3.494   4.735   6.596  0.4589 -0.0676  0.5754
 7252SOL    HW122655   3.450   4.729   6.686 -1.9066  1.2414 -0.4118
 7252SOL    HW222656   3.453   4.668   6.535  1.6401 -0.5378  0.2600
 7253SOL     OW22657   4.934   3.071   4.972  0.0010  0.0062  0.2245
 7253SOL    HW122658   4.983   2.985   4.985 -0.7064 -0.4986 -0.3354
 7253SOL    HW222659   4.932   3.122   5.058  1.4560  0.0303  0.2593
 7254SOL     OW22660   6.155   0.094   1.909  0.6835  0.5055  0.2344
 7254SOL    HW122661   6.160   0.186   1.947  1.1487  0.2058  0.9080
 7254SOL    HW222662   6.100   0.036   1.969  1.4979  0.0068  0.5175
 7255SOL     OW22663   6.180   2.140   2.359  0.7821  0.2119  0.3742
 7255SOL    HW122664   6.083   2.136   2.333  1.1046 -0.4125 -0.7852
 7255SOL    HW222665   6.201   2.232   2.392  0.0635  0.6979 -0.4746
 7256SOL     OW22666   5.324   0.154   5.587  0.5245 -0.4592 -0.1620
 7256SOL    HW122667   5.384   0.231   5.605  0.6807 -0.0649 -2.0884
 7256SOL    HW222668   5.229   0.181   5.603  0.5622  0.2246 -0.9981
 7257SOL     OW22669   0.825   5.785   1.736  0.3925 -0.1806 -0.4375
 7257SOL    HW122670   0.747   5.745   1.785  0.3850 -0.6075 -0.8017
 7257SOL    HW222671   0.900   5.719   1.732  0.3454 -0.1992 -1.1254
 7258SOL     OW22672   0.697   2.307   1.919 -0.7748  0.1151  0.0293
 7258SOL    HW122673   0.688   2.227   1.977  0.1665  1.0357  1.4863
 7258SOL    HW222674   0.731   2.279   1.829 -0.1688 -1.0802  0.6041
 7259SOL     OW22675   3.211   0.801   4.655 -0.3559 -0.0386 -0.1799
 7259SOL    HW122676   3.187   0.799   4.752 -0.8878 -3.2592 -0.2863
 7259SOL    HW222677   3.135   0.841   4.603 -0.3205  1.1385  0.6157
 7260SOL     OW22678   0.940   2.058   2.847  0.1794  0.6860  0.2666
 7260SOL    HW122679   0.933   2.063   2.747  0.1683 -0.9133  0.1597
 7260SOL    HW222680   0.854   2.087   2.888 -1.2966 -2.3776 -0.3826
 7261SOL     OW22681   6.106   1.359   6.918 -0.0664 -0.6385 -0.5296
 7261SOL    HW122682   6.193   1.352   6.968 -0.6502  0.7538  0.7781
 7261SOL    HW222683   6.086   1.272   6.873  0.7694 -1.8137  1.2564
 7262SOL     OW22684   0.697   5.055   1.201  0.6102  0.1939  0.3618
 7262SOL    HW122685   0.790   5.021   1.186  0.3088  0.0810 -1.5764
 7262SOL    HW222686   0.638   5.023   1.126 -1.1025 -0.0940  1.7682
 7263SOL     OW22687   3.767   1.447   2.297  0.1025 -0.1413 -0.6619
 7263SOL    HW122688   3.809   1.529   2.258 -0.6535  1.1034  1.0149
 7263SOL    HW222689   3.837   1.392   2.342  0.1131  1.7986  1.9075
 7264SOL     OW22690   2.440   6.654   0.001  0.3858 -0.0349 -0.2617
 7264SOL    HW122691   2.413   6.741   0.042 -0.3979  0.6116 -2.0364
 7264SOL    HW222692   2.361   6.612  -0.044  1.3532 -0.2576 -1.8403
 7265SOL     OW22693   1.313   3.999   2.569 -0.5489  0.5821  0.1524
 7265SOL    HW122694   1.385   4.067   2.555 -0.2461  0.0861 -0.7816
 7265SOL    HW222695   1.250   4.031   2.640  1.8837 -0.0220  2.7316
 7266SOL     OW22696   1.695   5.832   2.732 -0.6031 -0.6172 -0.1119
 7266SOL    HW122697   1.790   5.855   2.751 -0.7442 -0.1682  0.0648
 7266SOL    HW222698   1.636   5.907   2.763 -1.0322 -0.9993  0.0009
 7267SOL     OW22699   3.586   5.489   0.979  0.0895  1.0728 -0.1370
 7267SOL    HW122700   3.568   5.483   1.077 -0.4057  0.4022 -0.2628
 7267SOL    HW222701   3.667   5.545   0.963  0.9768  0.0647  0.7351
 7268SOL     OW22702   5.420   6.954   1.064 -0.2150 -0.0801  0.1316
 7268SOL    HW122703   5.344   6.909   1.018 -0.9789  0.2090  1.0871
 7268SOL    HW222704   5.415   6.937   1.162  0.2984  0.8794  0.3436
 7269SOL     OW22705   4.490   0.348   5.672 -0.0171 -0.1050 -0.0906
 7269SOL    HW122706   4.569   0.339   5.612  0.5587 -0.0155  0.6376
 7269SOL    HW222707   4.425   0.274   5.653  0.4037 -0.3848 -0.4494
 7270SOL     OW22708   2.548   6.338   4.477 -0.3368 -0.7098 -0.4566
 7270SOL    HW122709   2.478   6.290   4.424 -0.1490  0.0288 -1.4137
 7270SOL    HW222710   2.523   6.435   4.486 -0.3732 -0.8209  0.8418
 7271SOL     OW22711   3.660   0.794   0.963 -0.4288  0.2418  0.5800
 7271SOL    HW122712   3.591   0.803   1.035  0.1915 -0.0686  1.2140
 7271SOL    HW222713   3.751   0.814   1.000 -0.2665  1.6957 -0.4890
 7272SOL     OW22714   4.270   6.059   0.761 -0.2533 -0.3904  0.2417
 7272SOL    HW122715   4.246   5.999   0.837  0.0687  1.4311  1.8662
 7272SOL    HW222716   4.187   6.102   0.724 -0.4467 -1.5161 -0.7114
 7273SOL     OW22717   2.590   6.438   1.910 -0.8429  0.6411  0.5744
 7273SOL    HW122718   2.624   6.408   1.821 -0.0961  2.1041  0.3394
 7273SOL    HW222719   2.606   6.365   1.977  1.2465  0.5983  0.1157
 7274SOL     OW22720   3.479   0.407   0.850  0.1056  0.1619  0.0915
 7274SOL    HW122721   3.568   0.450   0.862  0.8602 -1.4262  0.5312
 7274SOL    HW222722   3.410   0.476   0.828  1.3456  1.4752  0.2362
 7275SOL     OW22723   4.085   3.438   4.257  0.1601 -0.2503  0.1930
 7275SOL    HW122724   4.155   3.436   4.328 -0.3510 -3.7621  0.7593
 7275SOL    HW222725   4.004   3.388   4.288  0.1812 -2.6216 -3.0315
 7276SOL     OW22726   4.791   6.274   4.185  0.3785 -0.1090 -0.2709
 7276SOL    HW122727   4.814   6.366   4.154 -1.5203 -0.2869 -2.4658
 7276SOL    HW222728   4.734   6.281   4.267 -0.5477  0.7636 -0.9523
 7277SOL     OW22729   3.918   6.006   5.804 -0.4669 -0.4142 -0.0535
 7277SOL    HW122730   3.873   5.948   5.737  0.9264  2.2513 -3.5864
 7277SOL    HW222731   3.981   5.951   5.859 -1.8226 -2.7558 -0.7090
 7278SOL     OW22732   2.633   3.622   5.349 -0.5417 -0.3075 -0.7010
 7278SOL    HW122733   2.657   3.526   5.331 -1.0572 -0.2777 -1.5802
 7278SOL    HW222734   2.700   3.682   5.306  0.3374 -0.2637  0.6687
 7279SOL     OW22735   1.560   0.090   4.384 -0.2423  0.2011  0.0785
 7279SOL    HW122736   1.553   0.189   4.386 -1.3388  0.1742 -1.2721
 7279SOL    HW222737   1.511   0.054   4.305 -2.6271 -1.6122  2.1855
 7280SOL     OW22738   2.186   5.434   3.408  0.5942  0.1321 -0.2793
 7280SOL    HW122739   2.237   5.514   3.439  0.6258 -0.1226  0.3433
 7280SOL    HW222740   2.236   5.351   3.432 -0.8227 -0.2117  1.8540
 7281SOL     OW22741   6.739   2.595   4.264 -0.0408 -0.4295 -0.1573
 7281SOL    HW122742   6.738   2.592   4.364  1.3799  2.5669  0.0627
 7281SOL    HW222743   6.666   2.538   4.228  0.4440 -2.9329  2.4935
 7282SOL     OW22744   1.714   0.174   0.275 -0.0104  0.2376  0.2034
 7282SOL    HW122745   1.800   0.211   0.309 -0.9535  2.7290  0.0594
 7282SOL    HW222746   1.654   0.152   0.351 -1.0177  3.0879  0.3497
 7283SOL     OW22747   3.552   1.302   0.238  0.1400 -0.1167  0.4354
 7283SOL    HW122748   3.619   1.239   0.198 -0.8106  0.6950 -2.6636
 7283SOL    HW222749   3.596   1.390   0.256  0.2472 -0.0220 -0.2641
 7284SOL     OW22750   0.418   3.433   4.851  0.3300 -0.3519 -0.0765
 7284SOL    HW122751   0.352   3.458   4.923 -0.4123 -0.7155 -0.6168
 7284SOL    HW222752   0.434   3.334   4.854  0.2480 -0.3764 -0.4502
 7285SOL     OW22753   6.551   6.763   5.517  0.0286 -0.4077 -0.3624
 7285SOL    HW122754   6.471   6.727   5.565  0.0901  2.0645  1.8733
 7285SOL    HW222755   6.524   6.844   5.464  0.9720  0.3771  0.3205
 7286SOL     OW22756   4.443   5.735   6.691  0.1426 -0.6846  0.6933
 7286SOL    HW122757   4.474   5.692   6.775  2.5195 -2.1663 -0.8304
 7286SOL    HW222758   4.406   5.665   6.630 -0.9091  0.2610  0.2073
 7287SOL     OW22759   0.609   2.332   6.271 -0.5738 -0.2838 -0.3350
 7287SOL    HW122760   0.526   2.345   6.324  1.2200  0.5545  2.5214
 7287SOL    HW222761   0.636   2.235   6.275 -0.9079 -0.3879 -0.5187
 7288SOL     OW22762   6.742   5.927   2.055 -0.3838 -0.5662  0.0242
 7288SOL    HW122763   6.829   5.918   2.006 -0.3829  0.4019 -0.1874
 7288SOL    HW222764   6.687   5.844   2.043  0.2989 -0.9817 -0.2592
 7289SOL     OW22765   1.068   1.175   1.403  0.0201  0.3672 -0.1166
 7289SOL    HW122766   1.012   1.136   1.475  1.1909  0.5403  0.9176
 7289SOL    HW222767   1.010   1.230   1.342 -0.6930  2.1579  2.0340
 7290SOL     OW22768   0.903   4.586   4.301 -0.4474 -0.7147  0.4742
 7290SOL    HW122769   0.995   4.554   4.326  0.5300  0.4484 -1.4005
 7290SOL    HW222770   0.878   4.549   4.212 -0.8691  0.7039 -0.0172
 7291SOL     OW22771   0.230   3.771   3.505 -0.0620 -0.1284  0.1771
 7291SOL    HW122772   0.271   3.682   3.524 -0.1146 -0.4091 -0.9388
 7291SOL    HW222773   0.148   3.782   3.561 -0.2380 -0.9254  0.0984
 7292SOL     OW22774   4.545   0.802   4.779 -0.2703 -0.4849  0.1374
 7292SOL    HW122775   4.638   0.819   4.746 -0.7863 -0.1849 -1.1947
 7292SOL    HW222776   4.545   0.805   4.879  1.1244 -0.3750  0.1581
 7293SOL     OW22777   4.941   4.015   5.705  0.1329  0.2625 -0.4479
 7293SOL    HW122778   4.944   4.049   5.611  0.3362  0.9503 -0.1974
 7293SOL    HW222779   4.861   4.054   5.752 -1.3278 -1.8645 -0.9887
 7294SOL     OW22780   3.086   3.168   5.407 -0.7212 -0.4100  0.2083
 7294SOL    HW122781   3.162   3.229   5.425 -1.4897  0.4796  0.5005
 7294SOL    HW222782   3.120   3.084   5.363  0.2459  0.5095 -0.8487
 7295SOL     OW22783   1.850   6.615   0.893  0.3125  0.4462  0.5607
 7295SOL    HW122784   1.766   6.563   0.909 -0.4133  0.9899 -1.2690
 7295SOL    HW222785   1.828   6.713   0.890  1.1965  0.6720  1.0614
 7296SOL     OW22786   5.323   1.671   5.419 -0.1011 -0.5549  0.5083
 7296SOL    HW122787   5.252   1.735   5.390 -0.1789 -0.5954  0.6052
 7296SOL    HW222788   5.413   1.711   5.404 -0.1269 -0.7586 -0.2071
 7297SOL     OW22789   4.025   6.186   0.674  0.1749 -0.0107 -0.0924
 7297SOL    HW122790   3.961   6.171   0.749  0.4922  0.6669  0.3301
 7297SOL    HW222791   3.995   6.135   0.594 -1.7031  1.4044 -0.3604
 7298SOL     OW22792   3.846   1.875   5.584 -0.3463 -0.2402  0.0507
 7298SOL    HW122793   3.939   1.884   5.619 -0.7897 -1.5049  1.7210
 7298SOL    HW222794   3.807   1.965   5.569  1.0752  0.3031 -0.4950
 7299SOL     OW22795   5.004   1.651   0.435  0.1218  0.8406 -0.3137
 7299SOL    HW122796   5.084   1.611   0.479 -0.0923  0.3629 -0.3542
 7299SOL    HW222797   5.001   1.623   0.339  0.6581  1.9794 -0.6811
 7300SOL     OW22798   0.900   1.515   3.676 -0.1785  1.0833 -0.6008
 7300SOL    HW122799   0.883   1.560   3.588  0.9371  0.4537 -1.1670
 7300SOL    HW222800   0.979   1.558   3.720 -0.1533  0.7841 -0.3550
 7301SOL     OW22801   6.506   4.653   0.606  0.0330  0.5111  0.0146
 7301SOL    HW122802   6.503   4.553   0.609 -0.7938  0.5392  0.5934
 7301SOL    HW222803   6.535   4.688   0.695  0.2029  0.7931 -0.1484
 7302SOL     OW22804   4.734   0.385   6.772 -0.0919 -0.1632 -0.7720
 7302SOL    HW122805   4.713   0.426   6.683  1.3895 -0.5032 -1.3123
 7302SOL    HW222806   4.828   0.409   6.798 -0.8396  0.8413  1.2356
 7303SOL     OW22807   4.886   0.610   4.133 -0.4452  0.9346 -0.1496
 7303SOL    HW122808   4.884   0.511   4.125  1.5741  0.9454 -1.4637
 7303SOL    HW222809   4.921   0.636   4.224 -0.3956  0.4439 -0.0294
 7304SOL     OW22810   3.303   3.454   3.914 -0.1659 -0.5896 -0.0558
 7304SOL    HW122811   3.308   3.357   3.893  1.3594 -0.5881  0.1704
 7304SOL    HW222812   3.284   3.467   4.011 -1.9179 -0.6339 -0.3736
 7305SOL     OW22813   3.022   2.127   6.884 -0.3368 -0.1798 -0.2132
 7305SOL    HW122814   3.050   2.165   6.796 -0.6771 -1.4894 -0.9221
 7305SOL    HW222815   3.019   2.027   6.877 -2.4022 -0.2308  0.6654
 7306SOL     OW22816   0.659   6.638   4.694 -0.5705  0.3197  0.2175
 7306SOL    HW122817   0.655   6.706   4.621 -0.0811  0.6019  0.4414
 7306SOL    HW222818   0.598   6.664   4.768 -0.8287  0.2025  0.0440
 7307SOL     OW22819   1.239   4.222   3.912 -0.0068 -0.1602  0.0212
 7307SOL    HW122820   1.230   4.165   3.993 -1.5167 -0.6575 -0.4494
 7307SOL    HW222821   1.267   4.165   3.834 -2.6217 -0.5943 -0.7130
 7308SOL     OW22822   1.326   3.045   1.006 -1.0773  0.4634  0.3771
 7308SOL    HW122823   1.236   3.079   1.035 -1.9019 -0.7145 -0.6919
 7308SOL    HW222824   1.314   2.964   0.949  0.5628  1.5063 -1.5626
 7309SOL     OW22825   1.412   1.709   5.606 -0.5965  0.2804  0.2061
 7309SOL    HW122826   1.342   1.777   5.629 -1.7525 -0.9413  0.4149
 7309SOL    HW222827   1.482   1.752   5.549 -1.0625  1.7509  0.6922
 7310SOL     OW22828   4.964   4.560   5.191  0.3198 -0.3855 -0.6516
 7310SOL    HW122829   5.029   4.626   5.154  0.0765  1.0947  1.3949
 7310SOL    HW222830   4.929   4.593   5.278 -2.2410 -1.7496 -1.0732
 7311SOL     OW22831   6.466   1.472   3.607  0.6403 -0.5202 -0.1992
 7311SOL    HW122832   6.522   1.487   3.525  0.1686  0.2294 -0.4015
 7311SOL    HW222833   6.512   1.407   3.667  2.0052  0.4672 -0.1096
 7312SOL     OW22834   2.491   5.323   5.656  0.0805 -0.0092  0.7503
 7312SOL    HW122835   2.524   5.418   5.659 -0.4963  0.2380 -0.2091
 7312SOL    HW222836   2.435   5.310   5.574 -0.3311 -1.0272  1.1782
 7313SOL     OW22837   5.122   1.442   2.988 -0.0430  0.2091  0.3318
 7313SOL    HW122838   5.215   1.449   3.022  1.5017 -1.0014 -3.1378
 7313SOL    HW222839   5.060   1.494   3.047  2.4361 -0.5058  3.8711
 7314SOL     OW22840   3.806   5.654   2.111 -0.3890 -0.2567 -0.3816
 7314SOL    HW122841   3.860   5.575   2.141 -0.8139  0.6720  3.2902
 7314SOL    HW222842   3.710   5.639   2.133 -0.5360  1.0989 -0.0579
 7315SOL     OW22843   1.140   2.052   5.267  0.4016 -0.0656 -0.3276
 7315SOL    HW122844   1.122   2.051   5.169 -2.9417  1.9241  0.1291
 7315SOL    HW222845   1.125   1.960   5.305 -0.7148 -0.3192 -1.3262
 7316SOL     OW22846   2.248   6.698   4.312  0.1843  0.7510  0.0772
 7316SOL    HW122847   2.340   6.660   4.298  0.6353  1.5370  0.8221
 7316SOL    HW222848   2.181   6.624   4.307  0.9043  0.0801  0.0596
 7317SOL     OW22849   2.092   6.071   2.794  0.3664 -0.0045  0.2293
 7317SOL    HW122850   2.020   6.071   2.724 -0.1084 -0.9062  0.6990
 7317SOL    HW222851   2.050   6.063   2.884  1.0444 -0.3515  0.5196
 7318SOL     OW22852   0.706   6.994   3.766 -0.1408  0.0766 -0.0216
 7318SOL    HW122853   0.607   7.010   3.763 -0.2145  0.1624  1.5966
 7318SOL    HW222854   0.741   6.978   3.674 -1.7257 -0.3300 -0.5839
 7319SOL     OW22855   0.897   6.805   2.645 -0.1523  0.1204 -0.0181
 7319SOL    HW122856   0.819   6.771   2.697  0.4080 -1.3703 -0.0857
 7319SOL    HW222857   0.902   6.904   2.651 -1.2203  0.1154  1.1465
 7320SOL     OW22858   1.893   6.944   2.757  0.1710  0.3998  0.2313
 7320SOL    HW122859   1.930   7.020   2.811 -1.7830  0.6258  1.3273
 7320SOL    HW222860   1.968   6.882   2.732  1.4542  1.4119  1.3555
 7321SOL     OW22861   0.154   0.186   0.745  0.3954 -0.2625  0.1888
 7321SOL    HW122862   0.162   0.117   0.818 -0.9874 -1.0256 -0.3465
 7321SOL    HW222863   0.213   0.160   0.669  1.3317  0.1767  0.7547
 7322SOL     OW22864   6.039   3.347   5.867  0.2072 -0.6798 -0.3103
 7322SOL    HW122865   6.137   3.361   5.850  0.4039 -1.9889 -0.2979
 7322SOL    HW222866   6.013   3.397   5.949  1.2608 -1.7520  0.7068
 7323SOL     OW22867   2.411   1.809   6.550 -0.2164  0.6538  0.4865
 7323SOL    HW122868   2.411   1.725   6.604  1.3971  1.8815  2.5649
 7323SOL    HW222869   2.430   1.787   6.454 -0.4813 -1.3788  0.8480
 7324SOL     OW22870   5.236   1.120   6.572 -0.0730  0.6340 -0.5096
 7324SOL    HW122871   5.196   1.083   6.655 -0.5510 -0.6747 -1.3025
 7324SOL    HW222872   5.256   1.218   6.585 -2.2369  1.0086  0.3737
 7325SOL     OW22873   0.365   4.438   4.768 -0.1350 -0.3859  0.7220
 7325SOL    HW122874   0.348   4.530   4.733  1.4037 -0.5759 -0.6593
 7325SOL    HW222875   0.303   4.419   4.844  0.2203  2.1648  1.7277
 7326SOL     OW22876   2.567   1.418   0.203 -0.4104  0.0954  0.1469
 7326SOL    HW122877   2.556   1.511   0.167 -1.2301  0.3154  0.9284
 7326SOL    HW222878   2.611   1.360   0.134 -0.4247  0.9151 -0.5651
 7327SOL     OW22879   3.120   1.890   4.357  0.6425 -0.0539 -0.8359
 7327SOL    HW122880   3.195   1.912   4.419  0.3247 -1.6693  0.1864
 7327SOL    HW222881   3.039   1.944   4.382  0.8125  0.0383 -0.4807
 7328SOL     OW22882   3.871   0.772   6.902 -0.0834 -0.0711 -0.1760
 7328SOL    HW122883   3.939   0.780   6.975 -0.7024  0.4420  0.3510
 7328SOL    HW222884   3.797   0.711   6.932 -0.6376  0.6111 -0.1311
 7329SOL     OW22885   2.086   5.455   6.537  0.0321 -0.2588  0.5618
 7329SOL    HW122886   2.090   5.555   6.530  0.1562 -0.2939  0.0807
 7329SOL    HW222887   2.026   5.429   6.612  0.1634  0.1815  0.8202
 7330SOL     OW22888   3.909   2.501   0.675  0.1960 -0.0876 -0.2354
 7330SOL    HW122889   3.843   2.532   0.744  0.0772 -1.9793  0.5654
 7330SOL    HW222890   3.870   2.515   0.584 -1.0659 -0.5269  0.2010
 7331SOL     OW22891   4.870   2.169   3.847 -0.8600  0.1639  0.2553
 7331SOL    HW122892   4.830   2.260   3.855 -2.4353 -0.3965 -0.6942
 7331SOL    HW222893   4.798   2.100   3.853 -0.0389 -0.9153 -1.4021
 7332SOL     OW22894   6.893   0.114   4.591 -0.0932  0.0092 -0.0304
 7332SOL    HW122895   6.952   0.050   4.641  1.9093  1.1593 -0.7729
 7332SOL    HW222896   6.950   0.170   4.531 -2.0010  1.2319 -0.7681
 7333SOL     OW22897   4.581   3.370   6.572 -0.2768 -0.5567  0.0228
 7333SOL    HW122898   4.496   3.378   6.519  0.5849 -0.6310 -1.4353
 7333SOL    HW222899   4.659   3.373   6.510  0.8317  0.1204  1.3835
 7334SOL     OW22900   6.433   3.246   1.700 -0.4811 -0.6862  0.0269
 7334SOL    HW122901   6.389   3.335   1.683  0.2856 -0.5235 -1.2214
 7334SOL    HW222902   6.531   3.260   1.714 -0.5100 -1.2500  0.8638
 7335SOL     OW22903   4.255   5.513   3.833  0.4001 -0.5214 -0.7012
 7335SOL    HW122904   4.264   5.603   3.790 -0.9691 -1.8423 -4.1143
 7335SOL    HW222905   4.341   5.463   3.823 -0.1455 -1.1441 -3.0155
 7336SOL     OW22906   0.972   5.721   5.744  0.1708 -0.3981 -0.0267
 7336SOL    HW122907   1.049   5.657   5.751  0.4010 -0.0935  0.2883
 7336SOL    HW222908   0.938   5.723   5.650 -0.6078 -1.8687  0.2001
 7337SOL     OW22909   2.112   4.068   5.685 -0.3228  0.0001 -0.1456
 7337SOL    HW122910   2.041   4.117   5.635  0.3241 -0.2588 -1.3606
 7337SOL    HW222911   2.142   3.989   5.632  1.4356  0.5643 -0.0687
 7338SOL     OW22912   1.806   3.697   6.409  0.2142  0.5215 -0.0922
 7338SOL    HW122913   1.882   3.758   6.389 -1.8623  2.8892 -1.4154
 7338SOL    HW222914   1.748   3.688   6.328  0.5537 -3.6786 -0.1253
 7339SOL     OW22915   4.447   1.014   6.556 -0.1882  0.2628 -0.0071
 7339SOL    HW122916   4.439   1.037   6.459  0.2073  0.3036 -0.0321
 7339SOL    HW222917   4.501   1.084   6.602  1.3475 -0.7683 -0.1549
 7340SOL     OW22918   0.407   6.785   4.561  0.7423 -0.0903 -0.2157
 7340SOL    HW122919   0.393   6.860   4.626  1.4077 -0.6057  0.5421
 7340SOL    HW222920   0.479   6.810   4.496  2.4953 -0.8461  1.3398
 7341SOL     OW22921   1.552   6.937   0.008  0.0299 -0.3228  0.2468
 7341SOL    HW122922   1.634   6.936  -0.051 -0.2072  0.4705 -0.1140
 7341SOL    HW222923   1.473   6.967  -0.046 -0.2541  0.1082  0.8910
 7342SOL     OW22924   1.697   3.690   2.667  0.0738  0.1134 -0.2537
 7342SOL    HW122925   1.645   3.631   2.729  0.4261 -0.2553 -0.3037
 7342SOL    HW222926   1.744   3.633   2.600  0.6517  0.4356 -0.1236
 7343SOL     OW22927   1.887   2.375   6.465  0.1226 -0.2967 -0.2917
 7343SOL    HW122928   1.813   2.364   6.399  0.5599 -0.6209 -0.7290
 7343SOL    HW222929   1.848   2.376   6.558 -0.5923  1.0876 -0.5759
 7344SOL     OW22930   3.061   6.966   6.515  0.4936 -0.0475  0.2849
 7344SOL    HW122931   3.034   7.037   6.449 -0.7662 -0.6972  0.0660
 7344SOL    HW222932   3.126   6.904   6.471 -0.2086 -0.3795 -0.3263
 7345SOL     OW22933   3.257   3.686   1.398 -0.0855 -0.5213 -0.0938
 7345SOL    HW122934   3.212   3.607   1.358  0.3709 -0.2981 -1.1058
 7345SOL    HW222935   3.220   3.704   1.489 -0.7525 -1.4054 -0.1775
 7346SOL     OW22936   2.181   3.837   1.659 -0.3657 -0.0619  0.4403
 7346SOL    HW122937   2.152   3.931   1.640  0.9024 -0.1491 -2.4202
 7346SOL    HW222938   2.105   3.775   1.642 -0.2651  0.2017 -1.1377
 7347SOL     OW22939   6.012   4.988   3.529  0.2917 -0.1867  0.6096
 7347SOL    HW122940   6.094   4.967   3.581 -0.1729  0.8763  1.8072
 7347SOL    HW222941   5.934   4.996   3.591 -0.9190 -2.0473 -0.5865
 7348SOL     OW22942   2.184   0.203   1.080  0.4228  0.2698 -0.3048
 7348SOL    HW122943   2.215   0.145   1.005  1.5725 -1.3611  1.3514
 7348SOL    HW222944   2.263   0.232   1.135 -0.4863  0.2931  1.0459
 7349SOL     OW22945   0.967   2.491   2.466  0.3045  0.2959  0.7012
 7349SOL    HW122946   1.059   2.528   2.460  0.4009  0.1335  1.1664
 7349SOL    HW222947   0.944   2.473   2.561  0.5735 -1.6114  0.4496
 7350SOL     OW22948   2.242   7.004   0.877  0.4829 -1.1197 -0.2368
 7350SOL    HW122949   2.317   6.972   0.819  0.8368 -0.5301 -0.1140
 7350SOL    HW222950   2.228   6.939   0.952  0.3911 -1.5991 -0.6626
 7351SOL     OW22951   0.566   3.567   4.332  0.2390 -0.0140 -0.4252
 7351SOL    HW122952   0.531   3.577   4.425  1.2621  0.4654 -0.0741
 7351SOL    HW222953   0.490   3.571   4.267 -0.4651 -0.1361  0.3719
 7352SOL     OW22954   4.983   2.495   6.885 -0.4561  0.1147  0.2185
 7352SOL    HW122955   4.911   2.468   6.950  0.0611  0.1685  0.8283
 7352SOL    HW222956   5.068   2.510   6.935  0.9923 -3.5397 -0.8977
 7353SOL     OW22957   5.031   4.762   0.693 -0.1664  0.4050 -0.3095
 7353SOL    HW122958   5.073   4.684   0.647 -0.5870  0.8520 -1.4942
 7353SOL    HW222959   4.940   4.737   0.725 -0.2138  0.3318 -0.4951
 7354SOL     OW22960   5.929   2.411   6.654  0.0334  0.2510 -0.3642
 7354SOL    HW122961   5.950   2.498   6.699 -0.8689  0.2456  0.0911
 7354SOL    HW222962   5.886   2.428   6.566  0.7588  0.2608 -0.7208
 7355SOL     OW22963   2.446   5.900   2.478 -0.2502 -0.0170  0.5008
 7355SOL    HW122964   2.352   5.869   2.464 -0.2896  0.9024 -1.6545
 7355SOL    HW222965   2.468   5.896   2.576 -0.9880 -4.4350  0.6627
 7356SOL     OW22966   3.011   5.966   6.416 -0.0329  0.4848 -0.4351
 7356SOL    HW122967   3.028   6.049   6.363  1.1067  0.8895  0.5026
 7356SOL    HW222968   3.035   5.983   6.512 -0.3617 -0.7527 -0.1158
 7357SOL     OW22969   5.662   5.626   2.229  0.5285 -0.0150 -0.6167
 7357SOL    HW122970   5.598   5.672   2.291  0.5646 -0.4042 -0.2900
 7357SOL    HW222971   5.739   5.590   2.281  1.0325  0.4689 -1.0118
 7358SOL     OW22972   5.606   6.073   0.581 -0.4551  0.0970 -0.5910
 7358SOL    HW122973   5.681   6.044   0.521  0.5385  0.5730  0.3825
 7358SOL    HW222974   5.591   6.002   0.650  1.5602  1.4974  1.4141
 7359SOL     OW22975   0.788   2.800   2.297  1.2430  0.2596 -0.4365
 7359SOL    HW122976   0.813   2.777   2.391  0.7330 -1.3360 -0.6665
 7359SOL    HW222977   0.704   2.855   2.298  0.2855 -1.1462  0.0040
 7360SOL     OW22978   2.116   3.130   6.343  0.0390 -0.2266  0.1011
 7360SOL    HW122979   2.051   3.146   6.268 -1.0264  0.7507  1.1800
 7360SOL    HW222980   2.069   3.144   6.430  1.2489 -1.3546  0.9637
 7361SOL     OW22981   1.457   5.401   5.447 -0.0738 -0.0590  0.5839
 7361SOL    HW122982   1.450   5.446   5.357  1.2657 -0.6736  0.1478
 7361SOL    HW222983   1.403   5.317   5.446 -2.4166  1.3293  1.3335
 7362SOL     OW22984   5.988   0.544   2.562 -0.0824  0.0741 -0.3464
 7362SOL    HW122985   6.007   0.634   2.601 -1.6280  1.2067 -2.0534
 7362SOL    HW222986   5.945   0.487   2.632  1.2715  0.4852  0.8798
 7363SOL     OW22987   4.209   4.201   1.360  0.3444 -0.0994 -0.0518
 7363SOL    HW122988   4.112   4.201   1.382  0.7061 -0.1004  1.7488
 7363SOL    HW222989   4.262   4.208   1.445  1.9915 -3.3277 -0.6506
 7364SOL     OW22990   0.472   4.631   0.050  0.5742 -0.1236  0.0247
 7364SOL    HW122991   0.488   4.653   0.147 -0.8647  1.0511  0.0163
 7364SOL    HW222992   0.402   4.560   0.044  0.5621 -0.0926 -0.1745
 7365SOL     OW22993   2.253   5.870   3.707 -0.4121  0.7135  0.2188
 7365SOL    HW122994   2.276   5.943   3.643 -1.4001  1.1446  0.3245
 7365SOL    HW222995   2.169   5.895   3.755 -0.1500  0.0006  1.0570
 7366SOL     OW22996   4.294   3.765   0.176 -0.4579  0.8007 -0.0736
 7366SOL    HW122997   4.293   3.864   0.170  0.4607  0.8214  0.0644
 7366SOL    HW222998   4.240   3.736   0.255 -1.3597  1.1430 -0.5491
 7367SOL     OW22999   6.089   3.930   2.811 -0.0013  0.4027  0.2318
 7367SOL    HW123000   6.157   3.949   2.881  0.5789 -1.3424  0.2062
 7367SOL    HW223001   6.127   3.952   2.721  0.9454 -1.3739  0.1349
 7368SOL     OW23002   5.054   5.241   5.946  0.3329  0.4974  0.2811
 7368SOL    HW123003   5.101   5.310   6.000 -0.5202  0.9866  0.4098
 7368SOL    HW223004   5.038   5.276   5.854  0.4071  0.2556  0.1761
 7369SOL     OW23005   0.377   5.026   3.101  0.4292 -0.4675  0.0039
 7369SOL    HW123006   0.413   4.990   3.015  0.2112  1.0846 -0.7585
 7369SOL    HW223007   0.423   4.980   3.177  0.2552 -2.2546 -0.8921
 7370SOL     OW23008   2.187   4.082   5.292  0.3781  0.1574 -0.0703
 7370SOL    HW123009   2.269   4.041   5.252  0.5559  0.8262 -0.3971
 7370SOL    HW223010   2.198   4.181   5.297 -0.3191  0.2303  0.1039
 7371SOL     OW23011   0.466   4.723   5.555 -0.7231  0.4372 -0.0415
 7371SOL    HW123012   0.555   4.767   5.546  0.0050 -1.0876 -0.5229
 7371SOL    HW223013   0.468   4.633   5.512 -2.2554  0.0376  0.6439
 7372SOL     OW23014   0.081   3.217   3.833 -0.3185 -0.1974 -0.3632
 7372SOL    HW123015   0.164   3.206   3.889 -0.9153 -0.7253  0.4364
 7372SOL    HW223016   0.001   3.199   3.889 -1.0722  1.7313 -0.7519
 7373SOL     OW23017   2.791   0.359   1.559  0.1853 -0.0820  0.4239
 7373SOL    HW123018   2.842   0.304   1.626  1.5217  0.1402 -0.3840
 7373SOL    HW223019   2.751   0.438   1.605  1.9193  0.6093  0.8046
 7374SOL     OW23020   0.849   6.290   5.946  0.1931 -0.0903  0.0091
 7374SOL    HW123021   0.891   6.281   6.037 -0.4102  0.3099  0.3315
 7374SOL    HW223022   0.896   6.228   5.883  1.3309  0.4054  0.3293
 7375SOL     OW23023   3.651   4.286   0.989 -0.2639 -0.4033  0.1832
 7375SOL    HW123024   3.572   4.347   0.997  0.9592  1.4025 -0.6633
 7375SOL    HW223025   3.702   4.286   1.075 -0.4117 -0.4373  0.2706
 7376SOL     OW23026   6.623   3.502   0.156  0.0906  0.1400  0.5615
 7376SOL    HW123027   6.540   3.499   0.212  0.4245 -0.5972  1.0307
 7376SOL    HW223028   6.620   3.429   0.088  1.9632 -2.3465  2.9388
 7377SOL     OW23029   4.169   2.450   6.504 -0.0874  0.6027  0.3814
 7377SOL    HW123030   4.080   2.417   6.533  0.6965 -0.1772  2.0068
 7377SOL    HW223031   4.232   2.453   6.582  1.4839  0.5583 -0.8116
 7378SOL     OW23032   2.344   1.797   4.783  0.1361  0.2711  0.5069
 7378SOL    HW123033   2.291   1.836   4.859 -0.7149  2.0086 -0.8870
 7378SOL    HW223034   2.283   1.750   4.720  0.7512 -0.6439  0.5733
 7379SOL     OW23035   0.864   1.547   4.436  0.0188  0.3572 -0.7108
 7379SOL    HW123036   0.860   1.473   4.369  0.5755 -0.2151 -0.1281
 7379SOL    HW223037   0.935   1.612   4.410  0.2690  0.1089 -0.6501
 7380SOL     OW23038   0.121   6.439   6.956 -0.0633 -0.4848 -0.5823
 7380SOL    HW123039   0.085   6.526   6.922 -0.7390 -0.9771 -1.1181
 7380SOL    HW223040   0.216   6.428   6.925 -0.2870 -0.3820 -1.3093
 7381SOL     OW23041   3.482   5.221   6.612 -0.0601 -0.3118  0.5618
 7381SOL    HW123042   3.390   5.261   6.614  0.6468  1.3397  1.4163
 7381SOL    HW223043   3.478   5.131   6.567 -1.8613  0.2960 -0.6041
 7382SOL     OW23044   2.341   1.341   5.168 -0.6117  0.1868 -0.2378
 7382SOL    HW123045   2.424   1.396   5.163 -1.0158  0.8395  0.0167
 7382SOL    HW223046   2.277   1.370   5.096 -1.6434  1.4896  1.1145
 7383SOL     OW23047   2.458   5.736   5.536  0.4874 -0.3340  0.3603
 7383SOL    HW123048   2.536   5.750   5.475  0.1735 -0.8039 -0.1598
 7383SOL    HW223049   2.376   5.718   5.481 -0.2237  1.2392  0.8642
 7384SOL     OW23050   5.255   1.405   6.563 -0.2646 -0.2163  0.0948
 7384SOL    HW123051   5.288   1.490   6.604 -0.2718  0.0089 -0.3600
 7384SOL    HW223052   5.195   1.426   6.485  1.2004 -0.6219 -1.2040
 7385SOL     OW23053   3.838   6.782   4.803  0.1155  0.0977  0.1575
 7385SOL    HW123054   3.882   6.762   4.891  0.8372 -1.2969 -0.4923
 7385SOL    HW223055   3.829   6.697   4.751 -1.6716  0.6684 -0.5075
 7386SOL     OW23056   3.820   5.187   4.780 -0.3934  0.2834 -0.2782
 7386SOL    HW123057   3.777   5.102   4.811  0.4396  0.0408  0.2469
 7386SOL    HW223058   3.816   5.255   4.854 -0.0647  0.3327 -0.3072
 7387SOL     OW23059   1.414   1.499   4.515 -0.2099 -0.3740  0.1216
 7387SOL    HW123060   1.512   1.493   4.492  0.7351  2.5415  2.6709
 7387SOL    HW223061   1.366   1.546   4.441  0.6834 -0.2285 -0.3907
 7388SOL     OW23062   6.596   1.034   2.585 -0.2160 -0.4455 -0.4356
 7388SOL    HW123063   6.661   1.103   2.619  0.6533 -0.1820 -2.4949
 7388SOL    HW223064   6.532   1.077   2.522 -0.1654 -1.3581 -1.1231
 7389SOL     OW23065   1.737   1.181   1.148  0.0783  0.0602 -0.3853
 7389SOL    HW123066   1.817   1.130   1.118  0.2858  0.8097 -1.1824
 7389SOL    HW223067   1.658   1.120   1.156  0.6586 -0.6279  0.1208
 7390SOL     OW23068   3.594   6.619   1.037  0.0494 -0.1040  0.4386
 7390SOL    HW123069   3.627   6.714   1.039  0.2551 -0.1425 -0.4641
 7390SOL    HW223070   3.650   6.566   0.973  0.0196 -0.8714  1.0381
 7391SOL     OW23071   4.959   5.520   4.800  0.5915  0.0869 -0.3171
 7391SOL    HW123072   5.039   5.461   4.790  0.4178 -0.8512  2.7050
 7391SOL    HW223073   4.889   5.471   4.853 -0.4028  2.2684  0.4901
 7392SOL     OW23074   2.282   4.531   4.694 -0.1601 -0.3803 -0.1414
 7392SOL    HW123075   2.342   4.526   4.614  0.5410 -1.9513  0.4336
 7392SOL    HW223076   2.294   4.619   4.739  0.9171 -0.2411 -0.6659
 7393SOL     OW23077   6.839   1.650   6.588  0.0318  0.0706  0.3620
 7393SOL    HW123078   6.908   1.669   6.518  0.4229  2.1142  1.2117
 7393SOL    HW223079   6.812   1.554   6.584  0.1663  0.0907 -2.4334
 7394SOL     OW23080   0.853   2.325   4.502 -0.7139 -0.4997  0.2462
 7394SOL    HW123081   0.813   2.261   4.436 -2.4049  0.2743  0.4739
 7394SOL    HW223082   0.781   2.368   4.555  0.5550 -0.3600  1.9425
 7395SOL     OW23083   4.717   5.173   1.967 -0.4506 -0.3121 -0.2906
 7395SOL    HW123084   4.665   5.089   1.982 -0.1079 -0.1997  1.8450
 7395SOL    HW223085   4.815   5.152   1.966 -0.3664  0.0426  0.2128
 7396SOL     OW23086   6.920   5.327   6.651 -0.1412  0.9552  0.0937
 7396SOL    HW123087   6.831   5.316   6.607 -0.3573 -0.4032  0.8239
 7396SOL    HW223088   6.930   5.260   6.725  1.1942  1.5687  0.5051
 7397SOL     OW23089   4.372   7.003   6.133 -0.0739  0.3071  0.0364
 7397SOL    HW123090   4.443   6.934   6.115 -1.1310 -0.8543  0.1397
 7397SOL    HW223091   4.320   6.976   6.214 -0.4712  1.2728  0.1062
 7398SOL     OW23092   6.293   4.088   1.113 -0.0186  0.2302  0.6476
 7398SOL    HW123093   6.310   4.131   1.024 -4.3338  0.1032 -0.4783
 7398SOL    HW223094   6.323   4.149   1.186  1.7471  1.2686 -0.8582
 7399SOL     OW23095   1.554   3.565   5.832 -0.2487  0.4698 -0.3870
 7399SOL    HW123096   1.630   3.621   5.866 -0.7370  0.6593  0.4314
 7399SOL    HW223097   1.535   3.491   5.897  0.3304 -0.6091 -1.4185
 7400SOL     OW23098   0.847   1.797   2.230 -0.3142  0.2107 -0.3596
 7400SOL    HW123099   0.875   1.823   2.137  1.4516 -0.2425  0.0086
 7400SOL    HW223100   0.894   1.856   2.296 -1.5862  0.5509  0.2679
 7401SOL     OW23101   0.499   1.025   1.333  0.4166 -0.2595  0.0605
 7401SOL    HW123102   0.431   1.096   1.350 -0.2975 -0.6319 -1.1351
 7401SOL    HW223103   0.575   1.062   1.280 -0.4807 -0.6126 -1.5222
 7402SOL     OW23104   0.026   4.319   6.257  0.0181 -0.0507 -0.4957
 7402SOL    HW123105   0.053   4.250   6.324 -0.7513 -0.4826 -0.6138
 7402SOL    HW223106   0.055   4.290   6.165 -0.2847 -0.2126 -0.5423
 7403SOL     OW23107   6.118   0.368   2.383 -0.1006 -0.0216 -0.7375
 7403SOL    HW123108   6.080   0.429   2.453 -0.4524 -0.5059 -0.5054
 7403SOL    HW223109   6.208   0.402   2.355  0.6912 -0.5945  0.9801
 7404SOL     OW23110   5.817   4.996   4.863  0.5247  0.3695  0.3957
 7404SOL    HW123111   5.838   5.020   4.958  1.1474 -1.2360  0.6877
 7404SOL    HW223112   5.758   5.067   4.824  0.0996  0.9787  2.0256
 7405SOL     OW23113   2.855   6.227   4.271 -0.3945 -0.3397 -0.0454
 7405SOL    HW123114   2.793   6.288   4.222 -0.8236 -1.8166 -1.4238
 7405SOL    HW223115   2.838   6.234   4.370 -1.9679  0.1183 -0.3288
 7406SOL     OW23116   1.904   4.292   4.159 -0.2643  0.2152 -0.0401
 7406SOL    HW123117   1.837   4.294   4.233 -1.4874  1.1661 -1.1311
 7406SOL    HW223118   1.971   4.221   4.178 -1.1067 -0.2352  1.4807
 7407SOL     OW23119   5.308   5.808   0.350 -0.4901 -0.3098 -0.1733
 7407SOL    HW123120   5.253   5.888   0.328 -0.5542 -0.2582  0.1796
 7407SOL    HW223121   5.316   5.798   0.449 -0.6685 -0.8601 -0.2055
 7408SOL     OW23122   1.356   4.723   2.894  0.2945 -0.2728  0.6356
 7408SOL    HW123123   1.434   4.778   2.865  0.4432 -1.4570 -1.4409
 7408SOL    HW223124   1.272   4.761   2.855 -0.0153  0.2539  1.7903
 7409SOL     OW23125   5.743   1.797   2.068 -0.2494  0.1895  0.2021
 7409SOL    HW123126   5.829   1.823   2.025  0.1320 -0.2359  0.6962
 7409SOL    HW223127   5.691   1.880   2.090 -0.1682  0.4303 -0.4932
 7410SOL     OW23128   3.254   4.525   5.551  0.2043 -0.3128 -0.0650
 7410SOL    HW123129   3.201   4.517   5.466 -0.6758  2.9118  0.0315
 7410SOL    HW223130   3.196   4.564   5.622  1.6115 -0.6246  1.2901
 7411SOL     OW23131   6.343   1.665   1.948  0.6669 -0.2305  0.2870
 7411SOL    HW123132   6.354   1.571   1.915 -0.0882  0.1221 -1.0629
 7411SOL    HW223133   6.286   1.716   1.884  0.0404  0.8237  1.6318
 7412SOL     OW23134   2.887   0.779   1.586 -0.4036 -0.2999 -0.6646
 7412SOL    HW123135   2.936   0.859   1.550  1.4213 -1.4297 -0.7970
 7412SOL    HW223136   2.792   0.784   1.556 -0.3833  1.8593 -0.5892
 7413SOL     OW23137   5.724   5.603   7.010 -0.4106 -0.4022  0.3689
 7413SOL    HW123138   5.648   5.550   7.048 -0.2587 -1.3446 -0.5978
 7413SOL    HW223139   5.712   5.700   7.033 -1.8736 -0.5415  0.2595
 7414SOL     OW23140   6.988   3.619   2.580  0.6135  0.1624 -0.1511
 7414SOL    HW123141   6.944   3.652   2.497  0.7137 -0.8133 -0.6162
 7414SOL    HW223142   6.949   3.664   2.660 -2.0090 -1.4001 -0.4303
 7415SOL     OW23143   3.020   3.774   2.185  0.0131 -0.0929  0.3101
 7415SOL    HW123144   2.977   3.768   2.095 -1.5654  0.8676  0.9615
 7415SOL    HW223145   3.013   3.685   2.230  0.8476 -0.5928 -0.5060
 7416SOL     OW23146   2.002   4.165   6.996  0.9329 -0.4108 -0.2399
 7416SOL    HW123147   1.943   4.177   6.915  2.0438  2.4343 -0.7324
 7416SOL    HW223148   1.980   4.235   7.063 -0.4581 -3.1395  2.4054
 7417SOL     OW23149   2.891   5.596   0.127  0.2970 -0.1352 -0.2587
 7417SOL    HW123150   2.986   5.617   0.148  0.1872  0.2088 -0.1074
 7417SOL    HW223151   2.846   5.677   0.090 -0.4407  0.2683  1.4062
 7418SOL     OW23152   6.214   0.290   5.543  0.1878  0.3466  0.6417
 7418SOL    HW123153   6.212   0.386   5.572  3.2119  1.7384 -2.9592
 7418SOL    HW223154   6.289   0.243   5.590  1.1078  0.8683 -0.2555
 7419SOL     OW23155   0.262   2.733   5.026  0.3034  0.2241 -0.5583
 7419SOL    HW123156   0.362   2.734   5.023  0.3405 -0.5680 -0.0328
 7419SOL    HW223157   0.230   2.817   5.070  0.9756 -1.3449  3.3661
 7420SOL     OW23158   3.699   5.908   1.260 -0.0639  0.3187  0.1601
 7420SOL    HW123159   3.763   5.976   1.297  0.8987 -0.2423 -0.4344
 7420SOL    HW223160   3.735   5.872   1.174  0.4125 -2.3018  1.3428
 7421SOL     OW23161   3.904   6.777   2.759 -0.0686 -0.3802 -0.7356
 7421SOL    HW123162   3.811   6.776   2.722 -0.4518  0.2927  0.1764
 7421SOL    HW223163   3.951   6.860   2.730 -0.9115  0.9679  1.4854
 7422SOL     OW23164   4.953   1.792   5.688 -0.6351  0.2506 -0.6607
 7422SOL    HW123165   4.994   1.773   5.777  0.7468 -1.6241 -1.6312
 7422SOL    HW223166   4.853   1.791   5.696 -0.5313 -0.1185  0.8011
 7423SOL     OW23167   6.960   3.744   2.319 -0.1165 -0.1619 -0.2689
 7423SOL    HW123168   7.010   3.728   2.234 -1.7108 -0.7365 -1.1423
 7423SOL    HW223169   6.862   3.729   2.303 -0.3860 -0.9000  1.8378
 7424SOL     OW23170   1.569   3.431   4.522  1.1320 -0.8439  0.5324
 7424SOL    HW123171   1.520   3.364   4.467  0.4470 -0.6528  0.8985
 7424SOL    HW223172   1.668   3.418   4.510  1.0163 -1.9968  0.7023
 7425SOL     OW23173   6.376   0.808   4.216  0.6015  0.2218  0.2305
 7425SOL    HW123174   6.349   0.715   4.240  3.0114 -0.4810  0.5298
 7425SOL    HW223175   6.388   0.862   4.299  1.9807 -0.0962  0.2703
 7426SOL     OW23176   1.625   6.744   6.785 -0.3426  0.6306 -0.0867
 7426SOL    HW123177   1.541   6.739   6.732 -0.9518 -1.0324  0.9665
 7426SOL    HW223178   1.668   6.654   6.790  0.7617  1.1564  0.5760
 7427SOL     OW23179   6.059   1.741   4.354  0.2551  0.5243  0.4527
 7427SOL    HW123180   5.979   1.691   4.319  0.6980 -0.5404  0.9177
 7427SOL    HW223181   6.132   1.738   4.287  1.1596 -1.6520  1.4145
 7428SOL     OW23182   1.642   5.176   5.938  0.2023 -0.2227  0.3819
 7428SOL    HW123183   1.695   5.252   5.901  0.4947 -1.0649 -1.0256
 7428SOL    HW223184   1.587   5.134   5.864  2.5435 -3.4317  0.2342
 7429SOL     OW23185   4.543   6.435   2.446 -0.0719 -0.2910 -0.1528
 7429SOL    HW123186   4.541   6.481   2.534 -0.5275 -0.2692 -0.1760
 7429SOL    HW223187   4.575   6.500   2.376 -0.0794 -0.2005 -0.0734
 7430SOL     OW23188   6.959   6.289   2.210  0.4799 -0.3136  0.2435
 7430SOL    HW123189   6.894   6.335   2.149  2.2765 -1.5910 -2.9237
 7430SOL    HW223190   6.925   6.197   2.231 -0.3732  0.2994  1.6893
 7431SOL     OW23191   3.502   2.957   4.842 -0.4411 -0.2694 -0.2416
 7431SOL    HW123192   3.419   2.933   4.791  0.4061 -2.4446 -0.7360
 7431SOL    HW223193   3.494   2.925   4.936  0.3618 -1.8362 -0.6735
 7432SOL     OW23194   5.733   0.397   5.743 -0.0053  0.6379 -0.0538
 7432SOL    HW123195   5.796   0.326   5.775  0.6073  1.3032  0.2616
 7432SOL    HW223196   5.786   0.476   5.711 -0.6842  1.2482  0.3014
 7433SOL     OW23197   4.306   2.548   6.275  0.6031  0.0598 -0.1441
 7433SOL    HW123198   4.323   2.646   6.280  0.7164  0.0904 -1.0778
 7433SOL    HW223199   4.229   2.525   6.335  0.7951  0.6551  0.3482
 7434SOL     OW23200   1.877   2.901   5.067 -0.8066  0.0341 -0.2355
 7434SOL    HW123201   1.966   2.856   5.072 -1.9509 -2.2535  1.6368
 7434SOL    HW223202   1.888   2.992   5.027  2.1888 -0.5162 -0.9167
 7435SOL     OW23203   5.782   4.371   1.684 -0.3576 -0.0820  0.0879
 7435SOL    HW123204   5.743   4.296   1.739  0.3615 -0.7407 -0.2801
 7435SOL    HW223205   5.766   4.458   1.730  1.0247 -0.6945  1.8127
 7436SOL     OW23206   3.734   0.397   5.333  0.0302  0.0204 -0.5748
 7436SOL    HW123207   3.694   0.323   5.279  2.8453 -1.1332 -1.2718
 7436SOL    HW223208   3.667   0.471   5.344 -2.6952 -2.3069 -0.3638
 7437SOL     OW23209   6.657   0.098   5.650 -0.1222 -0.5232  0.0339
 7437SOL    HW123210   6.587   0.051   5.704 -1.6578 -0.8434 -2.1066
 7437SOL    HW223211   6.723   0.031   5.616 -0.0896 -0.5560  0.1605
 7438SOL     OW23212   0.663   2.515   5.323  0.3237  0.8764 -0.1501
 7438SOL    HW123213   0.683   2.418   5.311 -0.9599  0.4087  1.2341
 7438SOL    HW223214   0.662   2.560   5.234 -1.9268 -0.9876 -1.1708
 7439SOL     OW23215   6.973   2.644   5.653 -0.0049  0.0067 -0.3477
 7439SOL    HW123216   6.996   2.625   5.749  1.1860 -0.2797 -0.6777
 7439SOL    HW223217   7.052   2.684   5.607 -0.9153  1.1871 -0.9433
 7440SOL     OW23218   4.717   6.050   6.560 -0.5279 -0.3774 -0.1073
 7440SOL    HW123219   4.735   6.115   6.634 -1.7127  0.0976 -0.2095
 7440SOL    HW223220   4.803   6.020   6.519  0.0219  2.3128 -1.0704
 7441SOL     OW23221   4.620   6.433   0.957 -0.1865  0.2084 -0.4824
 7441SOL    HW123222   4.613   6.492   1.038  0.9488 -0.4192  0.1026
 7441SOL    HW223223   4.548   6.364   0.960  1.2583 -1.3367  1.3128
 7442SOL     OW23224   1.337   2.278   1.798  0.0726 -0.4796 -0.3844
 7442SOL    HW123225   1.398   2.201   1.779 -0.0063 -0.7541  0.4160
 7442SOL    HW223226   1.263   2.247   1.857  0.4335  0.3581  0.5443
 7443SOL     OW23227   1.707   1.390   4.638 -0.1893 -0.4361 -0.3669
 7443SOL    HW123228   1.742   1.330   4.710  0.5217 -1.0682 -1.2228
 7443SOL    HW223229   1.780   1.408   4.571 -0.3041  1.5861 -0.0162
 7444SOL     OW23230   2.132   6.958   4.097  0.0067 -0.8322  0.0616
 7444SOL    HW123231   2.214   6.952   4.041  0.0474 -1.3288  0.1657
 7444SOL    HW223232   2.155   6.994   4.187  0.1045 -0.9174  0.0714
 7445SOL     OW23233   4.866   3.128   3.438  0.0817  1.0651 -0.5832
 7445SOL    HW123234   4.909   3.066   3.504  0.4699  1.0698 -0.8261
 7445SOL    HW223235   4.780   3.088   3.406  0.7972  0.1725 -1.4682
 7446SOL     OW23236   0.209   0.618   1.283 -0.2958 -0.0992 -0.1619
 7446SOL    HW123237   0.287   0.667   1.244 -0.5646  0.4754  0.0092
 7446SOL    HW223238   0.202   0.639   1.381  0.6405 -1.8779  0.3173
 7447SOL     OW23239   3.623   4.078   3.432  0.3050 -0.5319 -0.0840
 7447SOL    HW123240   3.669   4.081   3.343 -2.2858  0.1825 -1.5106
 7447SOL    HW223241   3.654   3.998   3.483  2.0374 -0.8285 -1.4971
 7448SOL     OW23242   0.965   5.874   6.156  0.0747 -0.4038  0.3636
 7448SOL    HW123243   0.958   5.839   6.063 -0.5571  2.5757 -0.8314
 7448SOL    HW223244   0.877   5.863   6.203  0.5668 -2.4674  0.9066
 7449SOL     OW23245   4.432   5.456   1.493 -0.7778  0.6191 -0.6125
 7449SOL    HW123246   4.339   5.485   1.514 -0.9145 -0.0882 -0.2063
 7449SOL    HW223247   4.429   5.367   1.447 -0.3106  0.6543 -0.7103
 7450SOL     OW23248   2.593   4.930   5.677  0.0282 -0.2036 -0.1971
 7450SOL    HW123249   2.526   4.866   5.638  0.3905 -0.7576  0.0780
 7450SOL    HW223250   2.643   4.974   5.602  0.3474 -0.8646 -0.3883
 7451SOL     OW23251   5.108   2.025   2.309  0.1778 -0.8962  0.1792
 7451SOL    HW123252   5.152   1.991   2.226  1.3601  0.4054  0.2511
 7451SOL    HW223253   5.145   1.976   2.388  2.1290  0.7173  0.3156
 7452SOL     OW23254   2.186   2.311   3.410  0.0950 -0.2862  0.5476
 7452SOL    HW123255   2.240   2.230   3.433  1.0020  0.1030 -0.1390
 7452SOL    HW223256   2.163   2.360   3.494  0.1369 -0.8811  0.9137
 7453SOL     OW23257   6.055   3.176   5.628 -0.5200 -0.4194 -0.1371
 7453SOL    HW123258   6.064   3.226   5.714  1.2219 -1.0942  0.1264
 7453SOL    HW223259   6.044   3.078   5.647  2.2796 -0.9307 -0.5782
 7454SOL     OW23260   6.039   0.791   2.449 -0.5211  0.3240  0.4203
 7454SOL    HW123261   6.017   0.693   2.447  0.3293  0.0871  1.6101
 7454SOL    HW223262   6.100   0.813   2.374 -1.2965  0.1024 -0.2906
 7455SOL     OW23263   4.337   4.627   3.007 -0.5046 -0.2162 -0.5011
 7455SOL    HW123264   4.372   4.591   3.094 -0.1181 -1.0622 -0.9981
 7455SOL    HW223265   4.258   4.686   3.025  1.3054  2.0200  0.6851
 7456SOL     OW23266   0.441   0.551   1.098 -0.7876  0.3961  0.2693
 7456SOL    HW123267   0.403   0.579   1.010 -2.4727  0.8889  1.0969
 7456SOL    HW223268   0.482   0.630   1.144  1.0689 -0.0748 -0.4905
 7457SOL     OW23269   5.325   6.650   2.678 -0.2418  0.4694 -0.8449
 7457SOL    HW123270   5.328   6.631   2.776  2.4349  2.0549 -0.5323
 7457SOL    HW223271   5.241   6.700   2.657 -0.6706  0.4550  0.6949
 7458SOL     OW23272   5.437   1.125   0.733  0.0019 -0.0883  0.0593
 7458SOL    HW123273   5.500   1.200   0.713  1.0600 -0.6408  1.1801
 7458SOL    HW223274   5.380   1.150   0.812 -2.3755  1.0542 -1.8729
 7459SOL     OW23275   5.467   4.504   4.553 -0.2753 -0.4270 -0.1048
 7459SOL    HW123276   5.405   4.579   4.574 -0.6043 -0.7936  0.2589
 7459SOL    HW223277   5.561   4.533   4.567 -0.3573  0.1611 -0.7451
 7460SOL     OW23278   6.044   3.322   2.015 -0.2772  0.3846 -0.1944
 7460SOL    HW123279   5.976   3.308   1.943 -1.3069 -4.2038  1.3599
 7460SOL    HW223280   6.108   3.245   2.017  0.7703  1.1946  2.6953
 7461SOL     OW23281   4.133   6.040   6.878  0.1150  0.4422  0.3383
 7461SOL    HW123282   4.179   6.011   6.962  0.1406  0.6194  0.3857
 7461SOL    HW223283   4.195   6.097   6.824  0.8377 -1.3374 -0.7869
 7462SOL     OW23284   6.258   2.917   6.571  0.2514  0.0654  0.6101
 7462SOL    HW123285   6.332   2.972   6.532  0.2072 -0.1764  0.1749
 7462SOL    HW223286   6.170   2.950   6.534  0.2970 -0.9105 -0.4075
 7463SOL     OW23287   6.373   6.017   0.251 -0.0162 -0.4498 -0.0342
 7463SOL    HW123288   6.468   5.998   0.226  0.0880 -0.8766  0.6561
 7463SOL    HW223289   6.326   6.059   0.173  1.3638  2.0204  0.3466
 7464SOL     OW23290   6.560   1.256   6.542 -0.4418 -0.1325 -0.3939
 7464SOL    HW123291   6.578   1.160   6.562 -1.4545  0.0024  1.3632
 7464SOL    HW223292   6.462   1.269   6.528 -0.4045  0.7730  0.1345
 7465SOL     OW23293   5.873   6.829   4.971  0.4825 -0.4270  0.3877
 7465SOL    HW123294   5.896   6.878   4.886 -1.1036 -0.3523 -0.0335
 7465SOL    HW223295   5.878   6.892   5.048 -1.8485  0.5628 -0.1907
 7466SOL     OW23296   2.116   5.741   4.083 -0.0298 -0.5254  0.3563
 7466SOL    HW123297   2.120   5.754   4.182 -0.8312 -1.3413  0.5061
 7466SOL    HW223298   2.119   5.830   4.038 -1.0501 -0.0554  1.1713
 7467SOL     OW23299   6.134   3.217   5.116 -0.1389  0.3394 -0.2626
 7467SOL    HW123300   6.110   3.159   5.038 -0.7307  0.0474  0.1282
 7467SOL    HW223301   6.123   3.165   5.201 -0.9596  1.0868  0.1140
 7468SOL     OW23302   4.395   1.057   5.454 -0.7488 -0.3712 -0.2208
 7468SOL    HW123303   4.331   0.999   5.505 -1.0814 -0.4199 -0.6851
 7468SOL    HW223304   4.462   1.096   5.517  1.0051 -3.1793 -0.1915
 7469SOL     OW23305   4.633   4.352   3.027  0.4851 -0.0291  0.1130
 7469SOL    HW123306   4.617   4.303   2.941 -0.1279  0.7473 -0.2311
 7469SOL    HW223307   4.627   4.451   3.010 -1.5587  0.1200  1.3772
 7470SOL     OW23308   6.751   0.405   5.370 -0.6163 -0.3501  0.2417
 7470SOL    HW123309   6.816   0.342   5.328 -1.0995 -1.3301  0.9451
 7470SOL    HW223310   6.796   0.492   5.389  0.0900 -0.5183 -0.6210
 7471SOL     OW23311   4.680   1.967   6.015  0.1028 -0.2571  0.4372
 7471SOL    HW123312   4.593   1.984   6.061  0.1285 -0.2399  0.4797
 7471SOL    HW223313   4.690   1.869   5.998  0.0517 -0.2534  0.3860
 7472SOL     OW23314   5.193   2.101   6.602 -0.1203  0.1426  0.7006
 7472SOL    HW123315   5.216   2.064   6.692  0.9026  0.1107  0.4438
 7472SOL    HW223316   5.271   2.088   6.541 -0.2068  1.6232  0.2547
 7473SOL     OW23317   2.370   5.238   3.468  0.0072 -0.4307  0.0447
 7473SOL    HW123318   2.447   5.187   3.431  1.5837  1.3761  0.6726
 7473SOL    HW223319   2.383   5.252   3.566 -0.8884  0.2975  0.0817
 7474SOL     OW23320   5.909   4.786   1.318 -0.3496 -0.3040 -0.1330
 7474SOL    HW123321   5.860   4.714   1.367 -0.4405 -0.7953 -0.9291
 7474SOL    HW223322   5.876   4.876   1.349  0.3495 -0.5683  1.4544
 7475SOL     OW23323   6.639   0.915   2.335 -0.3268  0.1085 -0.7948
 7475SOL    HW123324   6.620   0.933   2.431  1.4869 -0.4109 -0.2865
 7475SOL    HW223325   6.559   0.873   2.292 -1.4409  1.1046  0.2613
 7476SOL     OW23326   2.305   2.795   4.881 -0.3560 -0.3067  0.2692
 7476SOL    HW123327   2.236   2.758   4.943  0.9863 -2.0063  0.7990
 7476SOL    HW223328   2.367   2.854   4.932 -1.0576  0.8000 -0.1084
 7477SOL     OW23329   5.673   5.200   0.319  0.2532  0.6031 -0.1155
 7477SOL    HW123330   5.707   5.186   0.226  1.0520  0.9819  0.1076
 7477SOL    HW223331   5.604   5.272   0.318 -0.6142 -0.2134 -0.5851
 7478SOL     OW23332   2.465   1.591   1.143 -0.7483  0.2269 -0.1599
 7478SOL    HW123333   2.552   1.546   1.165 -1.6703 -1.5418  0.1240
 7478SOL    HW223334   2.431   1.638   1.225 -0.5845 -0.0113  0.0489
 7479SOL     OW23335   1.735   1.662   6.374 -0.1483  0.4336  0.0152
 7479SOL    HW123336   1.745   1.756   6.339 -1.0736  0.1395 -1.1304
 7479SOL    HW223337   1.800   1.602   6.327  0.4271  0.4963  0.7307
 7480SOL     OW23338   2.601   5.571   5.701 -0.2186  0.3206  0.2892
 7480SOL    HW123339   2.533   5.638   5.671  0.6150  0.0154 -2.6237
 7480SOL    HW223340   2.670   5.618   5.756 -1.3999  1.1394  1.1250
 7481SOL     OW23341   4.044   3.076   1.526  0.7503  0.3637 -0.0952
 7481SOL    HW123342   4.004   3.152   1.577  0.1131  1.3490 -1.9722
 7481SOL    HW223343   3.973   3.009   1.505  1.2080 -0.5380  1.1011
 7482SOL     OW23344   0.526   4.901   5.877  0.1003 -0.0260  0.0098
 7482SOL    HW123345   0.559   4.994   5.855  0.5017 -0.0885  0.3337
 7482SOL    HW223346   0.599   4.850   5.923 -1.1905  0.5937  2.9456
 7483SOL     OW23347   1.101   6.433   5.739 -0.0038  0.2117 -0.1960
 7483SOL    HW123348   1.095   6.336   5.765 -2.0939  0.4530  0.4706
 7483SOL    HW223349   1.106   6.441   5.640  1.4010 -0.5899 -0.2097
 7484SOL     OW23350   0.233   1.263   4.058 -0.5707 -0.0039 -0.0441
 7484SOL    HW123351   0.239   1.332   4.130 -1.6219 -0.3547  0.3996
 7484SOL    HW223352   0.216   1.174   4.099 -1.2078 -0.2072 -0.7265
 7485SOL     OW23353   4.840   0.577   5.134  0.5781  0.0691  0.2571
 7485SOL    HW123354   4.912   0.508   5.136  0.8318  0.3491  1.2235
 7485SOL    HW223355   4.792   0.573   5.046  1.0542 -0.8501  0.0318
 7486SOL     OW23356   0.822   2.924   3.459 -0.4320  0.4858 -0.0658
 7486SOL    HW123357   0.726   2.904   3.438 -0.4043  2.2554 -2.3104
 7486SOL    HW223358   0.844   3.017   3.431  1.9271  0.1868  0.5277
 7487SOL     OW23359   3.300   2.466   0.353 -0.4675  0.2464 -0.6362
 7487SOL    HW123360   3.293   2.435   0.448 -0.9044  1.6898 -0.1636
 7487SOL    HW223361   3.210   2.460   0.309 -0.8703  2.0387 -0.1201
 7488SOL     OW23362   4.845   3.165   0.994 -0.3135  0.1393 -0.0209
 7488SOL    HW123363   4.771   3.227   1.018 -0.0405  0.3270  0.3505
 7488SOL    HW223364   4.853   3.093   1.063  0.2501  0.4799  0.2764
 7489SOL     OW23365   3.265   5.754   3.707  0.5015 -0.3098 -0.5273
 7489SOL    HW123366   3.272   5.813   3.787  0.0371 -2.3085  1.0717
 7489SOL    HW223367   3.169   5.740   3.684  0.5296 -1.8128  0.2082
 7490SOL     OW23368   2.137   4.957   3.767 -0.0839 -0.5082 -0.6588
 7490SOL    HW123369   2.185   4.872   3.788 -0.4793 -0.8943 -1.3068
 7490SOL    HW223370   2.174   4.995   3.682  1.1311  0.7599  0.3752
 7491SOL     OW23371   4.199   5.653   0.422  0.0601  0.2985  0.1810
 7491SOL    HW123372   4.245   5.644   0.511  2.7570 -2.4326 -1.2846
 7491SOL    HW223373   4.226   5.739   0.379  1.9990 -0.1560  0.3993
 7492SOL     OW23374   1.979   1.561   4.948  0.6837 -0.1153 -0.0530
 7492SOL    HW123375   1.912   1.568   5.023  1.2519  0.3543  0.4149
 7492SOL    HW223376   2.040   1.484   4.966  0.1557 -0.6676 -0.5808
 7493SOL     OW23377   1.140   2.916   3.129  0.6303 -0.1375  0.1380
 7493SOL    HW123378   1.158   2.990   3.194  0.8049  0.3884 -0.5101
 7493SOL    HW223379   1.177   2.940   3.040 -0.2272 -0.5530 -0.3370
 7494SOL     OW23380   0.821   4.568   3.836 -0.3208  0.5228 -0.7552
 7494SOL    HW123381   0.775   4.553   3.923 -1.7920  0.9866 -1.4226
 7494SOL    HW223382   0.823   4.482   3.784  0.7455  0.1958 -0.1963
 7495SOL     OW23383   1.554   5.087   3.506 -0.1598  0.5855 -0.6113
 7495SOL    HW123384   1.598   5.004   3.471 -1.2031  0.6508 -2.1660
 7495SOL    HW223385   1.601   5.116   3.589  0.9027 -0.9501 -0.6197
 7496SOL     OW23386   1.892   2.394   5.610  0.0844  0.0867 -0.6344
 7496SOL    HW123387   1.966   2.341   5.652  1.5733  0.2548 -2.8965
 7496SOL    HW223388   1.845   2.337   5.543  0.6768  1.1172 -1.9618
 7497SOL     OW23389   3.160   0.451   1.643  0.1301 -0.3553 -0.4140
 7497SOL    HW123390   3.222   0.502   1.703  2.5185 -0.2561 -2.7982
 7497SOL    HW223391   3.077   0.504   1.628  0.0858  0.2318  1.6017
 7498SOL     OW23392   0.245   0.950   3.428  0.3504  0.6438  0.1200
 7498SOL    HW123393   0.272   1.045   3.411  1.8600  0.2723  0.2232
 7498SOL    HW223394   0.322   0.890   3.406 -0.3427 -0.4964  0.7238
 7499SOL     OW23395   0.819   0.420   1.045 -0.1213  0.3629 -0.0176
 7499SOL    HW123396   0.735   0.365   1.039 -0.2913  0.6950 -0.9280
 7499SOL    HW223397   0.817   0.474   1.129 -0.0553 -0.8428  0.7788
 7500SOL     OW23398   4.471   2.050   2.614 -0.4751  0.9379 -0.4677
 7500SOL    HW123399   4.481   2.128   2.676 -1.6570 -0.4827  1.6413
 7500SOL    HW223400   4.387   2.000   2.637  1.0559 -1.9011 -0.6036
 7501SOL     OW23401   3.530   4.917   2.957  0.1747 -0.5098  0.4988
 7501SOL    HW123402   3.456   4.897   2.893  0.7294  1.6529 -0.9064
 7501SOL    HW223403   3.491   4.940   3.047 -1.1599  3.0728 -0.8303
 7502SOL     OW23404   6.388   2.120   1.560 -0.6951  0.6298 -0.7227
 7502SOL    HW123405   6.374   2.111   1.658 -0.2386  0.1855 -0.6895
 7502SOL    HW223406   6.331   2.193   1.524 -2.5270 -0.6217 -0.4927
 7503SOL     OW23407   1.332   3.094   6.939  0.1510  0.5527 -0.4075
 7503SOL    HW123408   1.340   3.081   7.037  0.9329  0.0750 -0.5268
 7503SOL    HW223409   1.345   3.006   6.893  2.3140  1.1617 -1.0703
 7504SOL     OW23410   5.387   5.474   4.821  0.5264 -0.7433  0.1268
 7504SOL    HW123411   5.331   5.546   4.860  1.4878  0.7221 -1.0714
 7504SOL    HW223412   5.461   5.451   4.883 -0.8409 -2.1027  1.3470
 7505SOL     OW23413   3.132   0.769   3.740 -0.0161 -0.2494  0.3846
 7505SOL    HW123414   3.059   0.786   3.807 -0.8291  2.6950 -1.0548
 7505SOL    HW223415   3.098   0.710   3.667 -1.6137  2.2692 -1.0469
 7506SOL     OW23416   3.115   1.629   4.916 -0.2319 -0.1530 -0.3839
 7506SOL    HW123417   3.098   1.695   4.843  3.1483  0.6737 -0.5978
 7506SOL    HW223418   3.116   1.676   5.004 -1.1346 -0.5736 -0.1373
 7507SOL     OW23419   3.803   6.115   4.183  0.2450 -0.5809 -0.1682
 7507SOL    HW123420   3.885   6.154   4.224  0.7454 -0.6406 -1.0778
 7507SOL    HW223421   3.759   6.053   4.247  1.4673 -1.3202 -0.0171
 7508SOL     OW23422   0.674   4.609   2.051  0.1752 -0.3596 -0.3731
 7508SOL    HW123423   0.764   4.652   2.046  0.9752 -2.0864 -1.5872
 7508SOL    HW223424   0.607   4.668   2.005  0.7188  0.7935  0.2707
 7509SOL     OW23425   5.007   0.596   5.645 -0.1576  0.0325  0.3668
 7509SOL    HW123426   5.020   0.607   5.546  0.3192 -2.4651  0.0733
 7509SOL    HW223427   5.095   0.574   5.688 -0.7588 -1.4617  0.8961
 7510SOL     OW23428   6.837   3.838   6.050  0.0019  0.0582  0.1843
 7510SOL    HW123429   6.883   3.869   6.134 -1.3145 -0.1007  0.9958
 7510SOL    HW223430   6.905   3.814   5.981  1.2014 -1.7173  1.8846
 7511SOL     OW23431   7.008   6.748   3.517  0.0703  0.3047  0.2843
 7511SOL    HW123432   6.919   6.773   3.556 -0.2087 -1.4965  0.8861
 7511SOL    HW223433   7.038   6.821   3.455 -1.3427  1.4095  0.8200
 7512SOL     OW23434   1.697   1.181   7.007  0.1149  0.4715  0.0382
 7512SOL    HW123435   1.758   1.135   7.071  0.9169 -0.5429 -1.3946
 7512SOL    HW223436   1.739   1.266   6.975 -0.0748  0.7353  0.4843
 7513SOL     OW23437   1.092   6.281   6.933 -0.1739  0.2970 -0.2451
 7513SOL    HW123438   1.181   6.321   6.954 -0.6055  1.1775 -0.0689
 7513SOL    HW223439   1.020   6.349   6.946 -0.9052 -0.4680 -0.1674
 7514SOL     OW23440   1.522   4.563   3.057 -0.3217  0.2109 -0.0984
 7514SOL    HW123441   1.501   4.478   3.008 -0.9874  0.5033 -0.3300
 7514SOL    HW223442   1.465   4.637   3.021  0.7959  0.9384 -0.4416
 7515SOL     OW23443   4.503   5.434   4.846 -0.2295  0.2650 -0.1069
 7515SOL    HW123444   4.446   5.352   4.843  1.9922 -1.4103  0.1645
 7515SOL    HW223445   4.494   5.484   4.760  0.9600 -2.2317 -1.8043
 7516SOL     OW23446   6.044   0.539   0.272 -0.2462 -1.2241  0.4565
 7516SOL    HW123447   6.031   0.464   0.207  0.1844 -0.0782 -1.0171
 7516SOL    HW223448   6.139   0.539   0.304  0.5681  0.2627 -1.6998
 7517SOL     OW23449   2.272   1.124   2.115  0.6178  0.3384 -0.7335
 7517SOL    HW123450   2.333   1.142   2.192  0.7467 -1.5137 -0.3619
 7517SOL    HW223451   2.184   1.169   2.132  1.3256  1.6777 -0.5115
 7518SOL     OW23452   5.939   3.433   6.098 -0.5214  0.4440  0.3465
 7518SOL    HW123453   5.913   3.528   6.081  0.2242  0.6136  0.0927
 7518SOL    HW223454   6.015   3.430   6.163  1.0096  0.1989 -1.3433
 7519SOL     OW23455   5.989   4.090   1.773  0.1886  0.3463  0.5605
 7519SOL    HW123456   6.045   4.172   1.783  0.5007  0.1987  0.0518
 7519SOL    HW223457   5.899   4.105   1.815  0.7092  0.4824  1.6368
 7520SOL     OW23458   1.448   2.796   0.366  0.2651  0.7597 -0.3181
 7520SOL    HW123459   1.361   2.838   0.391  0.6481  0.9789  0.6899
 7520SOL    HW223460   1.519   2.824   0.430  0.7500 -0.6366 -0.1932
 7521SOL     OW23461   2.680   5.971   5.990  0.0156  0.6251 -0.5518
 7521SOL    HW123462   2.597   6.020   5.964  0.3250  1.8891  0.6960
 7521SOL    HW223463   2.752   6.036   6.013  0.8340 -0.4267 -0.0055
 7522SOL     OW23464   2.516   6.354   0.412 -0.9078 -0.5591  0.3506
 7522SOL    HW123465   2.441   6.361   0.347  0.1798  0.6931 -0.8274
 7522SOL    HW223466   2.539   6.446   0.446  1.6858 -0.5021 -1.2470
 7523SOL     OW23467   6.790   6.551   6.144 -0.4927  0.0620  0.7391
 7523SOL    HW123468   6.833   6.609   6.076  0.5792 -2.6534 -1.0877
 7523SOL    HW223469   6.860   6.505   6.199 -0.9826 -2.4791 -0.5828
 7524SOL     OW23470   3.367   7.012   4.141  0.7468  0.5974  0.0335
 7524SOL    HW123471   3.442   7.065   4.101  1.4126  0.6532  1.2909
 7524SOL    HW223472   3.355   6.928   4.089  2.2359  0.2062  0.2781
 7525SOL     OW23473   2.424   2.086   1.967  0.5041 -0.3636  0.0885
 7525SOL    HW123474   2.522   2.067   1.959  0.4316 -0.4003 -0.7756
 7525SOL    HW223475   2.409   2.156   2.037  1.4471  1.9255 -1.8633
 7526SOL     OW23476   6.662   4.503   0.347  0.1588 -0.2785  0.0923
 7526SOL    HW123477   6.664   4.463   0.255 -0.4039 -0.8599  0.3173
 7526SOL    HW223478   6.578   4.474   0.393  0.4847 -0.0733  0.8259
 7527SOL     OW23479   5.176   4.504   4.664 -0.0248  0.3958 -0.4348
 7527SOL    HW123480   5.213   4.591   4.632  2.0255 -0.0648  0.5246
 7527SOL    HW223481   5.122   4.462   4.592 -0.9197  2.3551 -0.9739
 7528SOL     OW23482   1.253   3.417   2.946 -0.3812 -0.0797  0.5546
 7528SOL    HW123483   1.328   3.483   2.941  1.9362 -2.6460 -2.7977
 7528SOL    HW223484   1.238   3.392   3.042  4.1820 -0.5167  1.3758
 7529SOL     OW23485   0.181   0.436   6.238  0.1739 -0.3954 -0.2693
 7529SOL    HW123486   0.173   0.535   6.226  2.9205 -0.2994 -1.9140
 7529SOL    HW223487   0.268   0.414   6.282 -0.4815 -2.1129  0.2731
 7530SOL     OW23488   4.781   5.858   6.841 -0.1674 -0.2728  0.0074
 7530SOL    HW123489   4.796   5.821   6.933  0.9194 -0.7653 -0.3568
 7530SOL    HW223490   4.795   5.785   6.773  1.4525  0.6475 -0.6999
 7531SOL     OW23491   1.319   2.310   5.492  0.2817  0.1249 -0.3406
 7531SOL    HW123492   1.269   2.270   5.568 -0.0020  2.7048  0.9266
 7531SOL    HW223493   1.417   2.289   5.501  0.0902 -0.6500  0.0050
 7532SOL     OW23494   6.702   5.259   2.272 -0.7819 -0.0304  0.5940
 7532SOL    HW123495   6.620   5.291   2.319  1.0571  2.5987  2.2474
 7532SOL    HW223496   6.711   5.160   2.284 -2.4683 -0.0123  2.4210
 7533SOL     OW23497   1.980   4.486   2.425  0.0051  0.5253  0.0509
 7533SOL    HW123498   2.028   4.573   2.415  1.2179 -0.3442 -2.7105
 7533SOL    HW223499   1.882   4.499   2.410  0.2959  1.3162 -1.3304
 7534SOL     OW23500   3.669   4.559   5.459 -0.3453 -0.0119  0.6419
 7534SOL    HW123501   3.736   4.505   5.409 -1.0370 -0.5864  0.3199
 7534SOL    HW223502   3.655   4.646   5.413  0.6559  0.3933  1.0745
 7535SOL     OW23503   3.951   3.484   5.136  0.0343  0.0576 -0.4471
 7535SOL    HW123504   3.885   3.520   5.071 -0.9018 -0.1940  0.3428
 7535SOL    HW223505   4.039   3.470   5.090 -0.0675  1.6529 -1.1884
 7536SOL     OW23506   5.630   6.431   2.139  0.3188 -0.5705  0.2109
 7536SOL    HW123507   5.585   6.344   2.118  0.1568  0.0839 -2.6717
 7536SOL    HW223508   5.562   6.500   2.161  0.4351 -1.0602  2.2994
 7537SOL     OW23509   5.561   2.931   1.778 -0.5141 -0.3895  0.0735
 7537SOL    HW123510   5.655   2.896   1.771  0.3200  1.8084 -0.7081
 7537SOL    HW223511   5.543   2.958   1.873  0.4195  1.0099 -0.1073
 7538SOL     OW23512   2.107   2.736   3.598 -0.5342 -0.9247  0.1219
 7538SOL    HW123513   2.100   2.835   3.591 -1.1945 -1.0700 -1.8039
 7538SOL    HW223514   2.037   2.693   3.541  0.8852 -2.4989 -0.5372
 7539SOL     OW23515   5.326   2.582   2.126  0.1223  0.0394  0.3604
 7539SOL    HW123516   5.248   2.522   2.147 -0.6805  0.7465 -0.4856
 7539SOL    HW223517   5.352   2.570   2.030  2.4287 -1.6885  1.1179
 7540SOL     OW23518   5.190   0.015   4.943  0.2294  0.0541  0.8166
 7540SOL    HW123519   5.281  -0.025   4.937 -0.0960 -0.8623  1.7334
 7540SOL    HW223520   5.196   0.113   4.925  1.1078 -0.2900 -0.9798
 7541SOL     OW23521   5.888   2.074   5.809 -0.1073 -0.2046  0.1062
 7541SOL    HW123522   5.959   2.097   5.743 -0.1368  0.1358  0.1916
 7541SOL    HW223523   5.926   2.080   5.902  0.3036 -1.9245  0.0982
 7542SOL     OW23524   2.110   1.492   6.984 -0.5624  0.3423 -0.3902
 7542SOL    HW123525   2.196   1.543   6.984  0.6653 -1.6182 -0.2604
 7542SOL    HW223526   2.081   1.474   7.078  0.2977 -1.1382 -0.3594
 7543SOL     OW23527   5.275   1.031   5.362 -0.4356  0.1656 -0.0796
 7543SOL    HW123528   5.344   1.074   5.420 -1.4077  0.2230  1.0790
 7543SOL    HW223529   5.314   0.952   5.315  0.9595  1.3676 -1.0472
 7544SOL     OW23530   2.866   5.076   6.333  0.0422 -0.1092  0.6808
 7544SOL    HW123531   2.900   4.986   6.363 -0.5614 -0.2149  1.0643
 7544SOL    HW223532   2.847   5.073   6.235  2.5683  0.4060  0.1108
 7545SOL     OW23533   0.113   6.874   3.290  0.0710 -0.3235  0.3057
 7545SOL    HW123534   0.203   6.896   3.251  0.2616 -0.0598  0.8832
 7545SOL    HW223535   0.041   6.914   3.233  0.3887  1.2227  0.9534
 7546SOL     OW23536   2.058   0.946   6.543  0.0963 -0.0071 -0.1251
 7546SOL    HW123537   2.140   0.956   6.600 -0.8806 -0.6262  1.4556
 7546SOL    HW223538   2.076   0.984   6.453  2.6751 -1.5941 -0.3893
 7547SOL     OW23539   1.547   5.147   5.683  0.0072 -0.0140 -0.1264
 7547SOL    HW123540   1.628   5.150   5.624 -1.4860  0.2740 -2.2771
 7547SOL    HW223541   1.486   5.073   5.653 -1.0264  0.4481  0.7542
 7548SOL     OW23542   0.340   2.715   0.403 -0.1822  0.4555  0.1536
 7548SOL    HW123543   0.365   2.787   0.467  0.5399  0.3089  0.0479
 7548SOL    HW223544   0.246   2.727   0.374 -0.1001  1.2976  0.2143
 7549SOL     OW23545   5.540   5.625   1.588 -0.5448 -0.1963  0.1625
 7549SOL    HW123546   5.525   5.596   1.683 -1.4322 -0.0219  0.0859
 7549SOL    HW223547   5.456   5.664   1.552 -0.5117 -1.1800 -1.0286
 7550SOL     OW23548   4.155   0.009   3.726  0.0395  0.0334 -0.1478
 7550SOL    HW123549   4.069  -0.035   3.699  0.2813 -0.5867  0.0541
 7550SOL    HW223550   4.158   0.019   3.825  0.4754 -0.5607 -0.0926
 7551SOL     OW23551   2.819   5.282   4.723 -0.0872 -0.4239 -0.0219
 7551SOL    HW123552   2.737   5.339   4.729 -0.3340 -0.8344  0.5114
 7551SOL    HW223553   2.793   5.187   4.707  0.2247 -0.7390  1.2383
 7552SOL     OW23554   6.502   3.031   3.386  0.4464  0.0202 -0.7677
 7552SOL    HW123555   6.496   2.937   3.353  0.7317  0.1827 -1.2995
 7552SOL    HW223556   6.436   3.088   3.338 -0.8316 -0.2020  0.6690
 7553SOL     OW23557   5.048   6.257   0.261  0.0812 -0.4288  0.9216
 7553SOL    HW123558   5.006   6.227   0.347 -3.1937 -2.2243 -1.0882
 7553SOL    HW223559   5.039   6.356   0.252 -2.3030 -0.5460  1.4039
 7554SOL     OW23560   5.178   0.125   1.344  1.3026  0.1227  0.1166
 7554SOL    HW123561   5.155   0.181   1.264  0.5563  0.6688  0.7046
 7554SOL    HW223562   5.121   0.042   1.343  1.4824 -0.0001 -0.0565
 7555SOL     OW23563   3.249   1.219   2.616  0.5910  0.3553 -0.4632
 7555SOL    HW123564   3.157   1.192   2.590  0.3001  0.8891 -0.0243
 7555SOL    HW223565   3.312   1.206   2.539  0.8977 -3.3818  0.2250
 7556SOL     OW23566   4.862   3.290   2.963 -0.8629  0.0364  0.0960
 7556SOL    HW123567   4.920   3.266   3.041 -0.0619  1.8593  0.1198
 7556SOL    HW223568   4.864   3.216   2.897  0.0917 -0.6904  0.8909
 7557SOL     OW23569   2.410   4.367   0.393  0.4177 -0.4480  0.2323
 7557SOL    HW123570   2.391   4.425   0.473  1.4671  0.9828 -0.5030
 7557SOL    HW223571   2.495   4.316   0.409  0.0193 -1.0446  0.4774
 7558SOL     OW23572   3.897   1.557   1.202  0.2616  0.3063 -0.2662
 7558SOL    HW123573   3.812   1.605   1.178 -0.5943 -1.3043 -0.6219
 7558SOL    HW223574   3.945   1.609   1.272 -1.3558  0.9441  0.4388
 7559SOL     OW23575   6.418   3.930   6.668  0.1748 -0.4401 -0.6922
 7559SOL    HW123576   6.403   4.010   6.610  3.7917  0.0864 -1.1630
 7559SOL    HW223577   6.482   3.954   6.742 -1.8599 -1.9168  1.7251
 7560SOL     OW23578   5.586   1.097   5.986  0.0869  0.8595  0.0988
 7560SOL    HW123579   5.644   1.099   5.905  0.7343  1.9775  0.5666
 7560SOL    HW223580   5.641   1.121   6.066 -0.9867  1.7643  0.5823
 7561SOL     OW23581   6.823   5.287   4.027  1.0134 -0.1779 -0.1960
 7561SOL    HW123582   6.759   5.341   4.082  0.0458 -0.0091 -1.4473
 7561SOL    HW223583   6.895   5.346   3.992  1.3884 -0.2017  0.5329
 7562SOL     OW23584   1.482   6.767   3.101  0.0288  0.4276 -1.2134
 7562SOL    HW123585   1.428   6.747   3.019  0.2578 -0.7843 -1.0838
 7562SOL    HW223586   1.574   6.795   3.074 -0.5177  2.1545 -1.4223
 7563SOL     OW23587   5.759   1.593   3.898  0.1220 -0.0164 -0.0474
 7563SOL    HW123588   5.763   1.614   3.800 -1.7664 -2.3366 -0.7140
 7563SOL    HW223589   5.851   1.598   3.937  0.8693  1.2700 -1.8334
 7564SOL     OW23590   3.433   4.879   2.463  0.7467 -0.3506 -0.3908
 7564SOL    HW123591   3.450   4.937   2.542 -0.3927 -0.3942 -0.1014
 7564SOL    HW223592   3.501   4.898   2.392  1.1266  0.4441  0.1759
 7565SOL     OW23593   3.330   1.816   6.337  0.1852 -0.1451  0.8775
 7565SOL    HW123594   3.398   1.854   6.275  0.8712 -0.9632  1.1090
 7565SOL    HW223595   3.311   1.721   6.311 -0.0856 -0.2500  1.4455
 7566SOL     OW23596   6.279   1.007   4.041  0.0458 -0.0789 -0.4433
 7566SOL    HW123597   6.349   1.073   4.012 -1.1124  0.7561 -1.4147
 7566SOL    HW223598   6.323   0.935   4.094  1.7914 -0.0321 -1.7196
 7567SOL     OW23599   0.227   6.650   1.042  0.5435  0.0086 -0.0279
 7567SOL    HW123600   0.297   6.709   1.084  0.0748  0.5027  0.0638
 7567SOL    HW223601   0.219   6.672   0.945  0.0158  0.4474  0.1115
 7568SOL     OW23602   4.006   5.323   4.277 -0.1204 -0.2110  0.1262
 7568SOL    HW123603   4.028   5.402   4.221  2.9837 -1.5810 -0.8253
 7568SOL    HW223604   3.995   5.242   4.219 -0.4259 -1.0123  1.2536
 7569SOL     OW23605   5.496   1.577   0.049  0.0182 -0.2827  0.0711
 7569SOL    HW123606   5.492   1.477   0.039  1.0018 -0.1559 -2.0595
 7569SOL    HW223607   5.408   1.610   0.085 -0.9912 -1.7636 -0.9174
 7570SOL     OW23608   3.576   5.197   1.980  0.7147 -0.3881  0.5785
 7570SOL    HW123609   3.509   5.246   2.034  0.3264 -1.0707  0.7236
 7570SOL    HW223610   3.654   5.171   2.038 -0.0319 -1.7569  1.0042
 7571SOL     OW23611   5.358   1.992   0.908  0.2359 -0.3769 -0.6294
 7571SOL    HW123612   5.337   2.060   0.978 -0.9741 -0.9185 -0.4421
 7571SOL    HW223613   5.285   1.992   0.839  0.8400 -0.6435 -1.2788
 7572SOL     OW23614   0.496   2.946   2.727 -0.8786  0.4577 -0.5153
 7572SOL    HW123615   0.411   2.996   2.707 -1.2712 -0.3166 -0.8338
 7572SOL    HW223616   0.562   3.009   2.768 -1.0835  1.4280 -1.6005
 7573SOL     OW23617   4.470   1.915   4.410 -0.1193 -0.2366 -0.1789
 7573SOL    HW123618   4.413   1.873   4.339 -0.6689 -0.1597  0.2106
 7573SOL    HW223619   4.533   1.847   4.447 -1.1628 -0.7994  0.6136
 7574SOL     OW23620   4.019   3.447   5.397  0.1634 -0.1825  0.3051
 7574SOL    HW123621   3.975   3.461   5.308  0.5640 -0.6077  0.0350
 7574SOL    HW223622   4.118   3.453   5.386  0.2986 -1.8289  0.4198
 7575SOL     OW23623   4.683   5.925   2.945  0.2220 -0.6741 -0.0995
 7575SOL    HW123624   4.747   5.979   2.890  0.4030  0.3794  1.0991
 7575SOL    HW223625   4.596   5.975   2.952  0.5908 -0.2148  1.5240
 7576SOL     OW23626   6.163   3.555   0.445 -0.6367  0.3396  0.3067
 7576SOL    HW123627   6.101   3.546   0.368  0.3094 -3.2828 -0.2379
 7576SOL    HW223628   6.111   3.555   0.530 -1.5002  0.1395 -0.2153
 7577SOL     OW23629   6.095   2.951   0.272  0.1004  0.3600 -0.4882
 7577SOL    HW123630   6.153   3.030   0.294 -0.6185  0.3621  1.6665
 7577SOL    HW223631   6.143   2.867   0.295  0.0158  0.2818 -0.6001
 7578SOL     OW23632   6.146   5.275   2.019  0.1954  0.6780  0.2507
 7578SOL    HW123633   6.195   5.236   2.097  0.0639  1.1284  0.5632
 7578SOL    HW223634   6.157   5.375   2.020  0.0558  0.6985 -0.2120
 7579SOL     OW23635   3.329   4.544   7.012  0.3402  0.5427  0.0244
 7579SOL    HW123636   3.350   4.494   7.095  0.6674  1.8536  0.7605
 7579SOL    HW223637   3.261   4.614   7.032 -0.9326 -0.2813 -1.2193
 7580SOL     OW23638   1.514   3.509   2.480 -0.1540  0.3507 -0.3129
 7580SOL    HW123639   1.575   3.454   2.422  0.6093  0.9737 -0.1049
 7580SOL    HW223640   1.429   3.525   2.431 -0.1036 -0.3939 -0.6719
 7581SOL     OW23641   1.883   1.793   6.938 -0.0457  0.2267 -0.1583
 7581SOL    HW123642   1.971   1.834   6.916 -0.9813  1.7706 -1.2485
 7581SOL    HW223643   1.870   1.710   6.883  1.7257 -1.5055  1.8393
 7582SOL     OW23644   5.339   6.424   2.528 -0.0433  0.7059  0.2684
 7582SOL    HW123645   5.342   6.512   2.577  1.4500  0.0436  1.4196
 7582SOL    HW223646   5.413   6.420   2.462  0.1012  0.1677  0.4621
 7583SOL     OW23647   3.625   6.275   6.009  0.1390  0.6160  0.6263
 7583SOL    HW123648   3.700   6.238   5.953 -0.9334 -0.4295 -0.1673
 7583SOL    HW223649   3.558   6.318   5.949 -0.4201  0.5862  1.2288
 7584SOL     OW23650   1.001   4.445   6.408 -0.2372 -0.4901 -0.5398
 7584SOL    HW123651   0.920   4.499   6.387  0.7125  0.7458 -1.1383
 7584SOL    HW223652   1.081   4.486   6.365  0.7485 -1.5890  0.1713
 7585SOL     OW23653   1.647   0.422   2.616  0.2850 -0.2741 -0.1644
 7585SOL    HW123654   1.742   0.407   2.644  0.2382 -0.1151  0.0834
 7585SOL    HW223655   1.617   0.512   2.645 -0.6709 -1.1737  1.8714
 7586SOL     OW23656   4.915   2.478   1.142 -0.1767 -0.0695 -0.0946
 7586SOL    HW123657   4.950   2.570   1.123 -1.4439  0.1922 -1.3588
 7586SOL    HW223658   4.950   2.447   1.230  0.8012  1.3551  0.0626
 7587SOL     OW23659   4.785   1.492   1.990 -0.4976 -0.3780  0.6566
 7587SOL    HW123660   4.792   1.516   1.893  2.0113 -0.7432  0.6829
 7587SOL    HW223661   4.757   1.573   2.042 -0.0104  0.3421 -0.1720
 7588SOL     OW23662   1.298   3.746   2.656 -0.6025  0.1439  0.3457
 7588SOL    HW123663   1.287   3.819   2.589  0.9170  0.5115  0.4742
 7588SOL    HW223664   1.362   3.677   2.621 -0.9552 -0.4279  0.8001
 7589SOL     OW23665   4.719   2.320   1.022  0.0818  0.0957 -0.3317
 7589SOL    HW123666   4.778   2.388   1.064 -0.3270 -0.4377  1.1931
 7589SOL    HW223667   4.713   2.336   0.924  0.5522  1.8154 -0.1084
 7590SOL     OW23668   3.738   1.384   1.560  0.8870  0.0556 -0.2431
 7590SOL    HW123669   3.823   1.395   1.612  0.3738 -1.7569  1.0586
 7590SOL    HW223670   3.761   1.368   1.464  2.0364 -0.3345  0.0719
 7591SOL     OW23671   1.343   6.456   3.643 -0.2924 -0.5178 -0.1606
 7591SOL    HW123672   1.441   6.473   3.651 -0.5714  1.0616  0.2638
 7591SOL    HW223673   1.323   6.412   3.556  1.0322 -3.0331  0.7051
 7592SOL     OW23674   1.003   5.574   4.355  0.8496  0.9345  0.0186
 7592SOL    HW123675   0.949   5.578   4.271 -0.9181  1.7764  1.1232
 7592SOL    HW223676   1.086   5.629   4.344  0.5562  1.1677 -1.1104
 7593SOL     OW23677   3.648   1.918   6.518 -0.2624 -0.1283 -0.4672
 7593SOL    HW123678   3.644   1.830   6.566 -0.0332  0.7476  1.2339
 7593SOL    HW223679   3.638   1.903   6.420 -1.5860 -1.9196 -0.1057
 7594SOL     OW23680   1.588   2.761   6.398  0.0921 -0.1640 -0.1712
 7594SOL    HW123681   1.604   2.859   6.382 -2.1484  0.5577  1.5641
 7594SOL    HW223682   1.491   2.741   6.387  0.5897 -2.3906 -1.1146
 7595SOL     OW23683   1.000   0.461   2.460  0.4435  0.1390  0.4484
 7595SOL    HW123684   1.000   0.551   2.502 -1.9904  0.0052  0.8894
 7595SOL    HW223685   1.066   0.402   2.507 -0.1236  0.8309  2.1859
 7596SOL     OW23686   2.969   3.566   1.949  0.4331  0.0510  0.0866
 7596SOL    HW123687   2.916   3.528   2.025 -0.3281  0.5398 -0.1894
 7596SOL    HW223688   3.066   3.550   1.966  0.3142  0.5596  1.4000
 7597SOL     OW23689   4.151   6.960   6.289  0.1038 -0.2334 -0.0128
 7597SOL    HW123690   4.071   6.902   6.303 -0.9708  1.5947  2.0139
 7597SOL    HW223691   4.133   7.023   6.214  0.4593 -1.0960 -0.8465
 7598SOL     OW23692   6.266   4.646   3.860 -0.4977  0.0326 -0.3511
 7598SOL    HW123693   6.364   4.650   3.881 -0.8109 -1.5187  1.7469
 7598SOL    HW223694   6.238   4.550   3.855 -1.9820  0.4671 -0.6422
 7599SOL     OW23695   1.579   2.399   5.640 -0.3607  0.0788  0.3003
 7599SOL    HW123696   1.591   2.473   5.574  2.2558  1.1144  1.7812
 7599SOL    HW223697   1.667   2.354   5.657 -1.8458 -3.6363 -0.6799
 7600SOL     OW23698   4.864   6.635   1.009  0.1287  0.6490 -0.1290
 7600SOL    HW123699   4.830   6.564   0.948  0.3047 -0.0298  0.5528
 7600SOL    HW223700   4.923   6.594   1.078  1.7745  1.6873 -0.8436
 7601SOL     OW23701   4.111   3.695   6.921 -0.2856  0.9193  0.1419
 7601SOL    HW123702   4.090   3.718   7.016 -0.2046  1.4363  0.0366
 7601SOL    HW223703   4.171   3.615   6.918 -0.6918  0.5954  0.5068
 7602SOL     OW23704   6.294   3.593   1.213 -0.0246  0.5872  0.1641
 7602SOL    HW123705   6.339   3.678   1.189  0.4332  0.2935 -0.0217
 7602SOL    HW223706   6.231   3.566   1.140  1.0928 -0.1136 -0.5632
 7603SOL     OW23707   5.673   4.627   0.647 -0.4750  0.0980  0.2456
 7603SOL    HW123708   5.725   4.564   0.705 -0.8777  0.4896  1.0481
 7603SOL    HW223709   5.576   4.604   0.652 -0.4721 -0.1273 -0.6160
 7604SOL     OW23710   1.255   4.569   2.064  0.7202  0.0392 -0.0430
 7604SOL    HW123711   1.352   4.549   2.059  0.7123  0.2795 -3.0589
 7604SOL    HW223712   1.203   4.485   2.079  1.2588 -0.6777 -1.9446
 7605SOL     OW23713   0.568   0.725   1.797 -0.2389  0.2415  0.3758
 7605SOL    HW123714   0.609   0.641   1.832 -0.0024 -0.1557 -0.8100
 7605SOL    HW223715   0.495   0.755   1.858 -0.4401 -0.9181  0.7213
 7606SOL     OW23716   5.823   1.598   5.772 -0.1270 -0.3448 -0.2002
 7606SOL    HW123717   5.749   1.538   5.802 -0.9751  0.2752 -0.9963
 7606SOL    HW223718   5.869   1.557   5.693 -0.5605 -0.0599 -0.6037
 7607SOL     OW23719   1.722   5.560   0.748  0.2312  0.1351  0.3351
 7607SOL    HW123720   1.800   5.504   0.721  0.4858  0.3110  0.6961
 7607SOL    HW223721   1.712   5.635   0.682 -0.9959 -1.1190 -0.9928
 7608SOL     OW23722   2.152   5.219   2.181  0.5311 -0.1555  0.6094
 7608SOL    HW123723   2.062   5.242   2.143  0.8559  0.8634  0.4429
 7608SOL    HW223724   2.166   5.270   2.266  1.4154  0.5851  0.0373
 7609SOL     OW23725   1.265   3.089   5.112 -0.1461 -0.2334 -0.4784
 7609SOL    HW123726   1.359   3.077   5.080 -0.1142 -1.1474 -0.0881
 7609SOL    HW223727   1.256   3.052   5.205 -1.1629 -1.2951 -0.9646
 7610SOL     OW23728   2.362   6.595   2.147  0.1281  0.2359  0.5280
 7610SOL    HW123729   2.349   6.694   2.150  2.8419  0.7348 -1.0641
 7610SOL    HW223730   2.350   6.562   2.053 -2.0048 -1.2488  1.2171
 7611SOL     OW23731   2.594   6.773   5.230  0.5201  1.4928  0.1937
 7611SOL    HW123732   2.682   6.740   5.198  0.0945  1.6894 -1.2536
 7611SOL    HW223733   2.600   6.871   5.250  1.2158  1.0603  2.4116
 7612SOL     OW23734   5.478   6.909   4.840 -0.3219 -0.0452 -0.1677
 7612SOL    HW123735   5.461   6.933   4.745  0.3355 -2.3256 -0.9070
 7612SOL    HW223736   5.523   6.986   4.886 -0.5789  1.0527 -1.6915
 7613SOL     OW23737   0.032   1.180   4.284  0.3900  0.2804  0.2351
 7613SOL    HW123738   0.034   1.274   4.252  1.9428  0.6448  1.2665
 7613SOL    HW223739   0.121   1.137   4.264 -0.1926 -0.8719  0.0433
 7614SOL     OW23740   1.845   0.926   5.374 -0.4554  0.1551 -0.1116
 7614SOL    HW123741   1.830   0.842   5.425 -0.4360 -0.5338 -1.1987
 7614SOL    HW223742   1.942   0.949   5.374 -0.2569 -0.6311 -1.0148
 7615SOL     OW23743   1.428   4.299   3.649 -0.4426  0.4272 -0.4774
 7615SOL    HW123744   1.430   4.330   3.554  0.2348 -0.4722 -0.7621
 7615SOL    HW223745   1.379   4.212   3.656  0.3619 -0.0145 -0.1660
 7616SOL     OW23746   6.405   5.525   3.646  0.6442  0.4097 -0.3786
 7616SOL    HW123747   6.352   5.441   3.629  1.9329 -0.5434  0.1159
 7616SOL    HW223748   6.446   5.556   3.560 -0.4059  0.9614 -0.6997
 7617SOL     OW23749   5.321   0.459   3.894 -0.4356 -0.0383 -0.3552
 7617SOL    HW123750   5.321   0.377   3.951 -1.2943  0.3328  0.1842
 7617SOL    HW223751   5.415   0.492   3.884 -0.0191 -1.3049 -0.9087
 7618SOL     OW23752   1.893   6.144   6.069  0.1352 -0.5070 -0.6708
 7618SOL    HW123753   1.872   6.233   6.028  1.1757  0.2936  0.4685
 7618SOL    HW223754   1.809   6.090   6.076 -0.5592  0.4778 -1.1289
 7619SOL     OW23755   1.158   0.029   2.420 -0.5321 -0.0356  0.2494
 7619SOL    HW123756   1.180  -0.044   2.485 -0.9298  0.0404  0.4773
 7619SOL    HW223757   1.129  -0.011   2.333 -0.5170 -0.1501  0.2966
 7620SOL     OW23758   6.987   1.057   6.415  0.2490 -0.1151 -0.2343
 7620SOL    HW123759   7.029   0.967   6.407  0.4812  0.1077 -1.7629
 7620SOL    HW223760   6.913   1.066   6.349  0.7049  1.0648 -0.6065
 7621SOL     OW23761   5.923   5.114   5.732  0.1870  0.2474  0.3644
 7621SOL    HW123762   5.915   5.214   5.742  0.9119  0.2217  1.3908
 7621SOL    HW223763   5.905   5.070   5.820 -2.0303 -0.6951 -0.4907
 7622SOL     OW23764   4.785   0.320   2.872  0.3072  0.2124  0.8427
 7622SOL    HW123765   4.761   0.375   2.952  1.4338  1.0680  0.6146
 7622SOL    HW223766   4.874   0.348   2.838  0.1601 -0.6375 -0.2938
 7623SOL     OW23767   3.670   1.175   1.015 -0.4577  0.0810  0.4468
 7623SOL    HW123768   3.705   1.126   1.095  0.5787 -0.8353 -0.5202
 7623SOL    HW223769   3.576   1.144   0.996 -0.6323  0.1481  1.1679
 7624SOL     OW23770   4.771   4.436   3.721 -0.3889  0.7540 -0.1240
 7624SOL    HW123771   4.828   4.356   3.700  1.6022  1.6401  1.4581
 7624SOL    HW223772   4.714   4.416   3.800 -0.5624  0.5927 -0.2907
 7625SOL     OW23773   1.504   5.495   6.483 -0.6598  0.0897  0.0915
 7625SOL    HW123774   1.568   5.540   6.421  0.2593  1.1469  1.7439
 7625SOL    HW223775   1.484   5.403   6.448 -1.3957  1.1522 -2.5430
 7626SOL     OW23776   1.381   1.617   3.142  0.1768 -0.2041  0.1917
 7626SOL    HW123777   1.456   1.600   3.077 -0.6816  1.7386 -1.4148
 7626SOL    HW223778   1.294   1.610   3.095 -0.5742 -0.4503  1.5771
 7627SOL     OW23779   5.266   6.181   3.681 -0.2055  0.2748  0.3844
 7627SOL    HW123780   5.336   6.114   3.657 -0.2495  1.1407 -2.6935
 7627SOL    HW223781   5.302   6.244   3.749  1.5902 -0.0172 -0.2454
 7628SOL     OW23782   6.990   0.191   4.132  0.4183  0.3774 -0.1731
 7628SOL    HW123783   7.076   0.193   4.082  0.8972  2.1283  0.6669
 7628SOL    HW223784   6.973   0.098   4.165  1.3586 -0.2519 -1.3589
 7629SOL     OW23785   6.745   0.479   3.165  0.1942 -0.2297  0.6815
 7629SOL    HW123786   6.795   0.565   3.156  2.1385 -1.2624  1.1160
 7629SOL    HW223787   6.649   0.493   3.139  0.5418  1.9664  0.4326
 7630SOL     OW23788   2.295   2.744   5.807 -0.1251  0.4271  0.3776
 7630SOL    HW123789   2.334   2.829   5.842  1.2385 -0.1409  0.3046
 7630SOL    HW223790   2.309   2.670   5.873  1.3856 -0.3798 -0.7635
 7631SOL     OW23791   4.874   0.800   3.676  0.2555  0.0737  0.1269
 7631SOL    HW123792   4.952   0.742   3.650  0.7204  0.3050  0.9751
 7631SOL    HW223793   4.904   0.869   3.741 -0.2235  1.4853 -1.0832
 7632SOL     OW23794   4.627   4.372   3.954  0.1511  0.5235 -0.2991
 7632SOL    HW123795   4.622   4.400   4.050 -0.9395 -0.6605  0.0084
 7632SOL    HW223796   4.542   4.326   3.928  0.2789  1.1468 -1.9471
 7633SOL     OW23797   2.953   4.245   0.753 -0.3743 -0.5550 -0.9139
 7633SOL    HW123798   2.976   4.168   0.693 -1.4968 -1.0890 -0.7020
 7633SOL    HW223799   2.856   4.239   0.777  0.0884 -0.4722  1.1242
 7634SOL     OW23800   5.381   6.959   5.158 -0.1794 -0.0331  0.1821
 7634SOL    HW123801   5.408   7.044   5.203  0.4670  0.5105 -1.1692
 7634SOL    HW223802   5.419   6.881   5.207  3.5596  0.6457 -1.2507
 7635SOL     OW23803   2.254   0.744   2.055  0.4171  0.2969 -0.2868
 7635SOL    HW123804   2.263   0.819   2.120 -1.3723 -1.2183  1.8622
 7635SOL    HW223805   2.192   0.770   1.981  0.9162  1.3665 -0.3469
 7636SOL     OW23806   6.628   3.706   3.411 -0.8344  0.0445 -0.1351
 7636SOL    HW123807   6.533   3.720   3.383 -0.3383  0.5115 -1.6774
 7636SOL    HW223808   6.658   3.615   3.381 -0.5196  0.2693 -0.5216
 7637SOL     OW23809   4.651   4.935   6.700  0.8858 -0.1140  0.0374
 7637SOL    HW123810   4.655   4.845   6.745 -0.1587 -0.1332  0.1156
 7637SOL    HW223811   4.610   5.001   6.763  0.4573  0.1161 -0.4840
 7638SOL     OW23812   4.879   5.156   2.841 -0.2216  0.1168  0.1705
 7638SOL    HW123813   4.808   5.098   2.800  1.6123 -1.8454 -0.4340
 7638SOL    HW223814   4.948   5.178   2.771 -0.2961  2.1696  0.6783
 7639SOL     OW23815   5.620   4.641   3.979 -0.3343 -0.1659  0.1677
 7639SOL    HW123816   5.588   4.656   3.886 -1.6490 -2.6998  0.1354
 7639SOL    HW223817   5.618   4.728   4.029  0.6282  1.2994 -2.1495
 7640SOL     OW23818   5.417   5.377   2.935 -0.1163  0.5012 -0.0116
 7640SOL    HW123819   5.357   5.306   2.897  1.7772  0.3623 -3.0542
 7640SOL    HW223820   5.452   5.347   3.024 -2.0247 -0.7610  0.3903
 7641SOL     OW23821   1.640   5.401   6.110  0.2274 -0.0756  0.2004
 7641SOL    HW123822   1.678   5.317   6.072  0.6293  0.4012 -0.4858
 7641SOL    HW223823   1.557   5.426   6.060  0.8437  0.6384 -0.5145
 7642SOL     OW23824   1.235   5.594   2.544 -0.5284  0.7211 -0.4277
 7642SOL    HW123825   1.333   5.612   2.552 -0.3664  0.9736 -2.6384
 7642SOL    HW223826   1.189   5.674   2.507 -1.0244 -0.5178 -2.6435
 7643SOL     OW23827   0.064   2.453   6.344 -0.2817 -0.0637  0.4356
 7643SOL    HW123828   0.076   2.357   6.321  0.5062  0.1799 -0.2060
 7643SOL    HW223829   0.100   2.470   6.436 -1.0454 -0.5113  0.8263
 7644SOL     OW23830   1.803   4.245   0.500 -0.1770 -0.2460  0.4038
 7644SOL    HW123831   1.900   4.223   0.499  0.0838  0.8452  0.5911
 7644SOL    HW223832   1.760   4.203   0.580 -0.0004 -1.2545 -0.0144
 7645SOL     OW23833   0.962   0.975   5.141 -0.7841 -0.3193 -0.0629
 7645SOL    HW123834   0.969   0.996   5.044 -0.2578 -0.3279 -0.0272
 7645SOL    HW223835   0.945   0.877   5.153 -0.3791 -0.3965 -0.1281
 7646SOL     OW23836   3.463   0.999   3.520  0.2105 -0.1282  0.2753
 7646SOL    HW123837   3.387   0.996   3.454  0.9702 -1.0839 -0.5790
 7646SOL    HW223838   3.427   0.980   3.612 -0.9302  1.6535  0.2386
 7647SOL     OW23839   6.273   6.161   6.336  0.3161  0.0775 -0.1515
 7647SOL    HW123840   6.323   6.195   6.256 -0.4188 -0.4201 -0.8262
 7647SOL    HW223841   6.189   6.215   6.348 -0.9095 -1.4982 -1.2826
 7648SOL     OW23842   2.756   2.300   2.939  0.3308  0.9048 -0.1675
 7648SOL    HW123843   2.795   2.273   3.027  0.1714 -2.2028 -0.9211
 7648SOL    HW223844   2.669   2.346   2.954  0.7692  1.3138  1.2989
 7649SOL     OW23845   2.848   6.314   5.529  0.2974  0.1755  0.4753
 7649SOL    HW123846   2.849   6.398   5.476  1.9892 -0.1458 -0.0740
 7649SOL    HW223847   2.840   6.235   5.468 -0.4798 -0.1012  0.9195
 7650SOL     OW23848   4.173   4.027   6.554 -0.1780 -0.3120 -0.2468
 7650SOL    HW123849   4.128   4.075   6.628  0.9991  1.0957 -0.3995
 7650SOL    HW223850   4.116   4.032   6.471 -0.3697  0.2531 -0.0834
 7651SOL     OW23851   2.729   4.571   5.373  0.0650 -0.6821 -0.5262
 7651SOL    HW123852   2.646   4.523   5.345 -0.0607  0.4234 -2.2153
 7651SOL    HW223853   2.796   4.567   5.299  0.2718  1.1871 -0.4830
 7652SOL     OW23854   0.111   0.742   3.295 -0.0997 -0.1533  0.0619
 7652SOL    HW123855   0.204   0.705   3.296  0.0637  0.2518 -0.0768
 7652SOL    HW223856   0.110   0.828   3.245 -0.5235 -0.0821  0.1921
 7653SOL     OW23857   2.179   6.672   4.019  0.0208 -0.0150  0.2627
 7653SOL    HW123858   2.168   6.736   4.096 -0.3879 -0.0765  0.2605
 7653SOL    HW223859   2.094   6.620   4.008 -0.2195  0.5762 -0.7577
 7654SOL     OW23860   5.836   2.176   4.746 -0.2639 -0.2403  0.1059
 7654SOL    HW123861   5.903   2.153   4.817  0.0943 -0.6885 -0.3742
 7654SOL    HW223862   5.884   2.200   4.662 -0.6905  0.2683  0.0050
 7655SOL     OW23863   5.778   6.971   3.924 -0.0025 -0.0530  0.4423
 7655SOL    HW123864   5.871   6.950   3.895 -0.6623 -1.2025 -0.9374
 7655SOL    HW223865   5.732   7.026   3.854 -0.7428 -0.5311  0.5359
 7656SOL     OW23866   4.272   3.846   1.091 -0.1512  0.1728 -0.2725
 7656SOL    HW123867   4.226   3.782   1.153  1.7890 -0.7290  0.3366
 7656SOL    HW223868   4.334   3.904   1.144  1.0112 -0.1184 -1.2665
 7657SOL     OW23869   0.064   0.369   1.231  0.0110 -0.1446 -0.2715
 7657SOL    HW123870   0.092   0.458   1.266 -1.4932  0.7966 -1.3351
 7657SOL    HW223871   0.128   0.298   1.263  0.0540  0.9729  2.3642
 7658SOL     OW23872   4.212   0.544   6.653  0.2309 -0.5608  0.7487
 7658SOL    HW123873   4.288   0.608   6.660 -0.8353  0.8128  0.1813
 7658SOL    HW223874   4.200   0.515   6.558 -2.0205  1.9442  0.1454
 7659SOL     OW23875   2.551   3.907   0.155 -0.0157  0.2840 -0.3156
 7659SOL    HW123876   2.594   3.966   0.087  0.5780 -2.0891 -2.1200
 7659SOL    HW223877   2.584   3.813   0.144 -3.0290 -0.9907  0.5467
 7660SOL     OW23878   5.183   1.775   3.491 -0.2085 -0.4832 -0.2295
 7660SOL    HW123879   5.109   1.712   3.515  0.0301 -0.8556 -0.4643
 7660SOL    HW223880   5.155   1.833   3.415  0.0582 -1.2183 -0.8909
 7661SOL     OW23881   3.050   5.045   4.469  0.4258 -0.3229 -0.4700
 7661SOL    HW123882   3.034   4.949   4.495 -0.0070  0.2008  1.3285
 7661SOL    HW223883   2.977   5.075   4.408  0.2858 -0.9982 -0.6410
 7662SOL     OW23884   0.479   3.407   5.715 -0.7501 -0.3442 -0.3033
 7662SOL    HW123885   0.511   3.491   5.672  0.4403 -0.4112  0.4168
 7662SOL    HW223886   0.528   3.392   5.800 -0.9210 -1.7842 -0.4293
 7663SOL     OW23887   5.147   2.981   6.238  0.0061 -0.2083 -0.4719
 7663SOL    HW123888   5.214   3.045   6.201 -0.4458  0.5925  0.0662
 7663SOL    HW223889   5.095   2.941   6.163 -0.6194  1.0891 -0.7581
 7664SOL     OW23890   6.461   2.503   3.853 -0.2845  0.6584  0.4576
 7664SOL    HW123891   6.363   2.510   3.838 -0.0789  0.8771 -0.9967
 7664SOL    HW223892   6.493   2.413   3.820 -0.1681  0.0817  2.0761
 7665SOL     OW23893   1.206   4.485   6.920  0.0633  0.0184  0.0332
 7665SOL    HW123894   1.286   4.445   6.875 -0.1257  0.6702 -0.9041
 7665SOL    HW223895   1.234   4.562   6.976  0.1946 -0.2614  0.3526
 7666SOL     OW23896   4.833   5.214   3.799 -0.0469  0.3504 -1.0675
 7666SOL    HW123897   4.833   5.308   3.767  0.0110  0.7496  0.0728
 7666SOL    HW223898   4.897   5.160   3.744  3.3540  1.9673  0.9926
 7667SOL     OW23899   3.900   1.845   3.730  0.4194 -0.0633 -0.4602
 7667SOL    HW123900   3.875   1.833   3.633 -1.1681 -1.0918  0.0299
 7667SOL    HW223901   3.893   1.942   3.754 -0.7935  0.0089 -1.0023
 7668SOL     OW23902   6.868   2.268   0.866  0.0044  0.2944 -1.1987
 7668SOL    HW123903   6.851   2.194   0.932 -1.3605  1.5858 -0.0225
 7668SOL    HW223904   6.963   2.298   0.874  0.2030 -0.4229 -0.7168
 7669SOL     OW23905   5.070   1.183   0.246 -0.1301  0.2086 -0.7098
 7669SOL    HW123906   5.107   1.091   0.254  0.9834  0.6187 -1.0133
 7669SOL    HW223907   4.979   1.179   0.204  0.0680 -0.7172 -1.0710
 7670SOL     OW23908   0.060   6.059   6.864  0.8621  0.0918 -0.2791
 7670SOL    HW123909   0.155   6.033   6.852  0.3813 -0.9787 -2.2739
 7670SOL    HW223910   0.012   5.987   6.914  0.8839  0.1296 -0.2043
 7671SOL     OW23911   1.379   0.278   5.695  0.2312 -0.4277  0.1350
 7671SOL    HW123912   1.322   0.197   5.685 -0.7861  0.2709  0.0339
 7671SOL    HW223913   1.399   0.317   5.606 -0.6726  0.3457  0.2565
 7672SOL     OW23914   0.350   3.955   0.609 -0.1299  0.0913 -0.0322
 7672SOL    HW123915   0.324   3.929   0.516  0.6951  0.6224 -0.4313
 7672SOL    HW223916   0.335   4.052   0.622 -0.7948 -0.0930  0.5920
 7673SOL     OW23917   3.167   5.264   0.843 -0.3480 -0.3860  0.0766
 7673SOL    HW123918   3.240   5.287   0.779 -1.8135 -1.2951 -2.0759
 7673SOL    HW223919   3.169   5.165   0.860  0.1820 -0.1197  1.7153
 7674SOL     OW23920   2.759   1.601   5.760 -0.8548  0.1806 -0.1367
 7674SOL    HW123921   2.784   1.647   5.845 -0.3039 -1.9858  0.9275
 7674SOL    HW223922   2.661   1.611   5.745 -1.4903 -1.6490  2.2369
 7675SOL     OW23923   1.556   4.616   6.505 -0.4040 -1.2763  0.1948
 7675SOL    HW123924   1.603   4.548   6.561 -0.9543 -0.6631  1.4709
 7675SOL    HW223925   1.496   4.571   6.439 -0.8890 -2.0427  1.1313
 7676SOL     OW23926   0.477   1.590   6.161 -0.1440 -0.6163  0.3327
 7676SOL    HW123927   0.465   1.684   6.128 -0.3050  0.1331  2.4087
 7676SOL    HW223928   0.388   1.543   6.160 -0.6081  0.1833  1.9152
 7677SOL     OW23929   3.337   1.626   5.636  0.4291 -0.5380  0.4580
 7677SOL    HW123930   3.419   1.654   5.587  1.4381 -0.9502  1.8615
 7677SOL    HW223931   3.328   1.527   5.633 -1.5002 -0.3918 -1.9276
 7678SOL     OW23932   3.254   0.438   5.685  0.0566 -0.2377 -0.4083
 7678SOL    HW123933   3.348   0.405   5.679  0.4738  1.0580 -1.7230
 7678SOL    HW223934   3.191   0.364   5.664  0.6908 -1.3761  1.4205
 7679SOL     OW23935   1.789   1.011   0.733 -0.5716 -0.0856 -0.0622
 7679SOL    HW123936   1.770   1.097   0.687 -0.0618  0.3704  0.5405
 7679SOL    HW223937   1.813   0.941   0.666  1.1767  0.8287 -0.4552
 7680SOL     OW23938   6.360   1.545   3.897 -0.3098 -0.6743 -0.1061
 7680SOL    HW123939   6.371   1.519   3.801 -2.1807  0.1951 -0.6073
 7680SOL    HW223940   6.358   1.645   3.904 -2.7147 -0.7022  0.4311
 7681SOL     OW23941   1.710   5.025   3.188 -0.1350  0.4676 -0.9017
 7681SOL    HW123942   1.619   5.067   3.193 -0.2728  0.0334  0.5708
 7681SOL    HW223943   1.715   4.948   3.251  2.0160  2.0018  0.9675
 7682SOL     OW23944   2.443   6.471   5.943 -0.2946  0.3325  0.0954
 7682SOL    HW123945   2.453   6.563   5.981 -2.1487  0.4454  0.3739
 7682SOL    HW223946   2.348   6.441   5.951  0.0203 -1.1253 -1.1306
 7683SOL     OW23947   0.041   5.322   1.619  0.6872  0.1747  0.5115
 7683SOL    HW123948   0.063   5.402   1.564  0.7575  0.2135  0.5962
 7683SOL    HW223949  -0.042   5.339   1.672  0.1051 -0.1921 -0.2667
 7684SOL     OW23950   0.180   1.578   5.804 -0.1168 -0.0267  0.2973
 7684SOL    HW123951   0.279   1.575   5.791  0.1625 -1.0694  2.2286
 7684SOL    HW223952   0.158   1.637   5.882 -0.7949 -1.5073  1.2728
 7685SOL     OW23953   0.826   6.852   0.467  0.8456 -0.1634  0.1433
 7685SOL    HW123954   0.914   6.816   0.499  0.5061 -0.3897  0.8253
 7685SOL    HW223955   0.819   6.949   0.492  0.1170 -0.6098  1.7643
 7686SOL     OW23956   6.929   5.610   5.960  0.7822  0.1566 -0.0809
 7686SOL    HW123957   7.017   5.580   5.998  0.4115  0.7973  1.3431
 7686SOL    HW223958   6.879   5.661   6.029 -1.3814 -1.4704 -0.3585
 7687SOL     OW23959   5.440   5.735   5.307 -0.2419 -0.4726  0.3336
 7687SOL    HW123960   5.386   5.746   5.390 -0.0943 -0.4806  0.4300
 7687SOL    HW223961   5.466   5.825   5.271 -1.0479 -0.4322 -0.1897
 7688SOL     OW23962   6.789   0.756   1.517  0.2257  0.2144 -0.7561
 7688SOL    HW123963   6.819   0.745   1.423 -1.7162  1.7539 -1.6108
 7688SOL    HW223964   6.829   0.839   1.556  0.5115 -0.0678 -0.4474
 7689SOL     OW23965   2.750   5.864   1.007  0.1531  0.1759 -0.4245
 7689SOL    HW123966   2.782   5.864   0.912  0.4208  0.5827 -0.3360
 7689SOL    HW223967   2.818   5.909   1.065 -0.9475  1.8971 -0.3816
 7690SOL     OW23968   2.317   1.402   3.407  1.1900 -0.0823 -0.2380
 7690SOL    HW123969   2.267   1.486   3.423  1.2374 -0.2574  0.9166
 7690SOL    HW223970   2.252   1.327   3.389  0.8167 -0.6921  2.9713
 7691SOL     OW23971   1.501   0.429   6.449 -0.1684 -0.0686  0.1917
 7691SOL    HW123972   1.428   0.360   6.455 -0.5014  0.3124  0.5643
 7691SOL    HW223973   1.460   0.519   6.435  0.2897 -0.0192 -0.9780
 7692SOL     OW23974   4.550   1.534   1.649 -0.3677 -0.1665 -0.0277
 7692SOL    HW123975   4.537   1.450   1.702  0.8120  0.4338  1.2672
 7692SOL    HW223976   4.514   1.612   1.700  1.5609  0.5355  0.3131
 7693SOL     OW23977   1.416   6.986   0.831 -0.3147 -0.1646  1.1002
 7693SOL    HW123978   1.450   6.915   0.770 -0.1989 -1.2324  2.3634
 7693SOL    HW223979   1.489   7.012   0.895 -1.0388 -0.5422  2.0978
 7694SOL     OW23980   0.941   0.295   0.354  0.0023  0.2099  0.1485
 7694SOL    HW123981   0.876   0.321   0.283 -1.2255 -1.1772  0.7155
 7694SOL    HW223982   1.027   0.344   0.340 -1.7494  3.7315  0.5667
 7695SOL     OW23983   0.903   5.357   3.452  0.1329 -0.2370 -0.3105
 7695SOL    HW123984   0.950   5.408   3.380  1.2008 -1.6076 -0.6361
 7695SOL    HW223985   0.965   5.346   3.530 -0.4985 -0.0358  0.2285
 7696SOL     OW23986   6.488   0.858   3.025  0.2379 -0.3117  0.1326
 7696SOL    HW123987   6.542   0.932   3.065  2.1392 -0.7323 -1.4600
 7696SOL    HW223988   6.541   0.815   2.951 -1.1851 -2.6471  0.3817
 7697SOL     OW23989   6.597   2.218   1.432  0.3745  0.0265 -0.1805
 7697SOL    HW123990   6.648   2.144   1.388  2.0002  1.9368 -1.6736
 7697SOL    HW223991   6.520   2.179   1.484  0.3265 -2.5685 -2.0120
 7698SOL     OW23992   1.962   4.101   1.269  0.2288 -0.5348 -0.0159
 7698SOL    HW123993   2.049   4.058   1.294  0.9893  1.3260  0.7312
 7698SOL    HW223994   1.959   4.194   1.306 -1.0475  0.3308 -2.1259
 7699SOL     OW23995   6.943   1.990   4.298 -0.0155 -0.1708 -0.1415
 7699SOL    HW123996   6.858   1.940   4.279  0.8887 -2.0156  0.4080
 7699SOL    HW223997   7.017   1.951   4.243  0.7560  0.5000  0.4063
 7700SOL     OW23998   3.908   6.643   3.735  0.0981  0.1624 -0.2358
 7700SOL    HW123999   3.967   6.650   3.816 -0.4781 -1.3339  0.3483
 7700SOL    HW224000   3.819   6.684   3.755 -0.6465 -1.6983  0.5468
 7701SOL     OW24001   2.608   4.828   5.415 -0.0181  0.4005 -0.0161
 7701SOL    HW124002   2.514   4.796   5.429 -0.3029  1.0395 -0.3736
 7701SOL    HW224003   2.665   4.753   5.382 -0.2273 -0.1722  0.8787
 7702SOL     OW24004   0.184   0.995   4.127 -0.2116 -0.0339  0.3465
 7702SOL    HW124005   0.277   0.958   4.132  0.2078  1.0292  0.5053
 7702SOL    HW224006   0.132   0.942   4.060  0.3871 -0.8807  0.5263
 7703SOL     OW24007   0.685   1.418   2.918 -0.3923  0.0284 -0.1574
 7703SOL    HW124008   0.604   1.473   2.897 -0.9469 -0.6716  0.0752
 7703SOL    HW224009   0.656   1.328   2.952  0.4917 -0.5179 -0.8077
 7704SOL     OW24010   5.768   3.451   3.450  0.3174 -0.5958  0.0856
 7704SOL    HW124011   5.709   3.417   3.523  0.6711 -1.8125 -0.1615
 7704SOL    HW224012   5.859   3.469   3.488  0.1367  0.0654  0.2108
 7705SOL     OW24013   6.237   0.912   3.259  0.1101 -0.1267  0.3533
 7705SOL    HW124014   6.303   0.951   3.322  1.6587  0.6900 -1.6645
 7705SOL    HW224015   6.284   0.864   3.186 -1.4682  0.6423 -1.2663
 7706SOL     OW24016   3.553   2.538   0.682 -0.3242  0.0653  0.0618
 7706SOL    HW124017   3.477   2.583   0.730  1.5327  2.0948  1.3122
 7706SOL    HW224018   3.549   2.440   0.698 -1.2397  0.3990  2.2761
 7707SOL     OW24019   6.089   4.115   6.052  0.1078 -0.1017  0.0580
 7707SOL    HW124020   6.161   4.176   6.017 -0.0076  0.4745  0.7969
 7707SOL    HW224021   6.039   4.075   5.975  0.0857  0.8636 -0.4436
 7708SOL     OW24022   1.744   2.883   2.383 -0.4362 -0.0958  0.4171
 7708SOL    HW124023   1.797   2.923   2.308 -1.2916  0.2755 -0.0003
 7708SOL    HW224024   1.777   2.919   2.470  0.3562 -0.2873  0.2042
 7709SOL     OW24025   2.011   2.889   0.528  0.3688  0.0019  0.3054
 7709SOL    HW124026   2.027   2.883   0.627  2.4262 -0.7024 -0.0365
 7709SOL    HW224027   1.996   2.797   0.491  0.8413  0.1272 -0.2143
 7710SOL     OW24028   0.748   5.144   1.712  0.3933  0.5421 -0.0066
 7710SOL    HW124029   0.656   5.139   1.751  0.5871  0.3669  0.4364
 7710SOL    HW224030   0.764   5.235   1.676  0.3869  0.8540  0.7717
 7711SOL     OW24031   4.202   6.221   0.148 -0.3195  0.3283 -0.3176
 7711SOL    HW124032   4.191   6.200   0.246 -1.9426  0.2711 -0.4955
 7711SOL    HW224033   4.116   6.205   0.100  0.2233  1.1654 -1.6255
 7712SOL     OW24034   3.768   0.985   6.698  0.0303  0.3290  0.0564
 7712SOL    HW124035   3.833   1.061   6.707  0.9302 -0.6131  1.9873
 7712SOL    HW224036   3.802   0.906   6.749 -2.0848 -0.5911  0.1261
 7713SOL     OW24037   5.608   1.314   4.765  0.4917  0.1859 -0.0458
 7713SOL    HW124038   5.586   1.291   4.861  0.1850  1.9589  0.3357
 7713SOL    HW224039   5.622   1.412   4.757 -0.9790  0.2837 -2.1146
 7714SOL     OW24040   3.935   1.218   2.373  0.1763  0.0716  0.6259
 7714SOL    HW124041   3.930   1.141   2.309 -0.6290 -0.4622  1.3183
 7714SOL    HW224042   4.032   1.240   2.390  0.4072  0.0016 -0.4886
 7715SOL     OW24043   3.843   0.021   5.366  1.2031 -0.7513  0.0707
 7715SOL    HW124044   3.759  -0.033   5.371  1.7555 -1.6311  0.1274
 7715SOL    HW224045   3.891   0.016   5.453  1.9969 -1.4209 -0.3792
 7716SOL     OW24046   1.612   3.272   3.120 -1.0268  0.0865 -0.1926
 7716SOL    HW124047   1.566   3.216   3.189  0.0476 -1.0038 -0.3299
 7716SOL    HW224048   1.654   3.351   3.164  0.6331 -1.2011  0.6352
 7717SOL     OW24049   6.110   4.894   6.731  0.0255 -0.4668 -0.3006
 7717SOL    HW124050   6.116   4.945   6.817  1.9165 -0.4797 -0.3725
 7717SOL    HW224051   6.045   4.819   6.741  0.6953 -0.8890  1.3834
 7718SOL     OW24052   3.429   1.222   2.398 -0.1269 -0.0923 -0.7543
 7718SOL    HW124053   3.523   1.247   2.373  0.5813 -1.3694  0.4397
 7718SOL    HW224054   3.385   1.175   2.322  0.8583 -1.1038 -0.7227
 7719SOL     OW24055   6.794   4.335   0.616 -0.1323  0.3880  0.4568
 7719SOL    HW124056   6.868   4.383   0.570  0.6299  0.4525  1.7145
 7719SOL    HW224057   6.805   4.342   0.715 -0.9500 -0.9265  0.6745
 7720SOL     OW24058   3.600   2.081   3.696  0.0255 -0.1741 -0.5788
 7720SOL    HW124059   3.665   2.143   3.652 -0.6254 -0.9136 -2.7241
 7720SOL    HW224060   3.509   2.124   3.697  0.3894  0.6980  2.0576
 7721SOL     OW24061   4.528   3.634   0.838 -0.0369  0.0119 -0.1535
 7721SOL    HW124062   4.549   3.574   0.916 -1.8856  0.0695  0.4288
 7721SOL    HW224063   4.539   3.583   0.753 -4.1978 -2.1982  0.3871
 7722SOL     OW24064   3.779   5.721   6.910 -0.5423 -0.4024  0.7590
 7722SOL    HW124065   3.790   5.769   6.823 -0.2914  0.3749  1.2086
 7722SOL    HW224066   3.827   5.633   6.906  2.4064  1.0572  1.1987
 7723SOL     OW24067   0.871   0.823   6.357 -0.2515  0.0647  0.4324
 7723SOL    HW124068   0.911   0.746   6.407 -3.2001 -0.9973  1.3760
 7723SOL    HW224069   0.908   0.908   6.393  1.6511 -0.8356  0.7167
 7724SOL     OW24070   0.863   2.070   1.976 -0.1556 -0.3705 -0.8979
 7724SOL    HW124071   0.851   1.994   1.912 -1.1181 -0.5218 -0.5551
 7724SOL    HW224072   0.788   2.070   2.042 -0.0478  0.7502 -0.7574
 7725SOL     OW24073   0.131   1.412   6.863 -0.4574  0.3181  0.1251
 7725SOL    HW124074   0.091   1.452   6.780  0.7596 -1.2220 -1.2618
 7725SOL    HW224075   0.176   1.326   6.840 -0.7378 -0.5463  2.5489
 7726SOL     OW24076   2.217   5.255   6.398 -0.8556  0.1331  0.0513
 7726SOL    HW124077   2.178   5.328   6.454  0.8710 -0.2752  1.8933
 7726SOL    HW224078   2.269   5.296   6.322 -1.4890  0.7467 -0.0656
 7727SOL     OW24079   4.422   4.687   3.950 -0.4433  0.1323 -0.2730
 7727SOL    HW124080   4.481   4.760   3.985 -0.6851  0.3715 -0.3604
 7727SOL    HW224081   4.461   4.652   3.865  0.6929 -1.1458  0.7246
 7728SOL     OW24082   0.120   5.674   5.509 -0.0070 -0.4534 -0.4892
 7728SOL    HW124083   0.042   5.734   5.526 -0.1410 -0.3816 -1.3081
 7728SOL    HW224084   0.154   5.637   5.596  0.6132  1.4434  0.1098
 7729SOL     OW24085   0.706   1.520   2.669 -0.1657 -0.8611  0.0307
 7729SOL    HW124086   0.726   1.486   2.761  0.0027  0.3045  0.4423
 7729SOL    HW224087   0.641   1.458   2.624  0.2039 -1.7672  0.7011
 7730SOL     OW24088   0.916   1.959   4.841 -0.0985 -0.4781  0.0660
 7730SOL    HW124089   0.928   1.986   4.936 -1.1977 -1.8204  0.6276
 7730SOL    HW224090   0.841   1.893   4.834  1.5023 -2.2792 -1.3762
 7731SOL     OW24091   1.524   1.367   4.187 -0.2015 -0.3739 -0.6210
 7731SOL    HW124092   1.578   1.293   4.148  1.1037 -0.5934  1.4622
 7731SOL    HW224093   1.435   1.333   4.216  0.2334 -1.0485 -0.0563
 7732SOL     OW24094   5.429   1.208   3.194  0.4369  0.6879  0.0674
 7732SOL    HW124095   5.444   1.222   3.292  0.0643 -0.9356  0.3787
 7732SOL    HW224096   5.518   1.203   3.147  0.7942 -1.8779  0.8606
 7733SOL     OW24097   0.903   5.828   3.628 -0.3500  0.3175 -0.1030
 7733SOL    HW124098   0.954   5.908   3.595 -0.0078  0.5254  0.8932
 7733SOL    HW224099   0.920   5.750   3.568  2.5255 -0.0980  1.0907
 7734SOL     OW24100   2.245   4.518   0.145  0.2268  0.0185 -0.0770
 7734SOL    HW124101   2.228   4.615   0.162  2.3434  0.8069 -1.9196
 7734SOL    HW224102   2.202   4.491   0.058  0.5322 -0.4138 -0.0980
 7735SOL     OW24103   5.811   4.451   5.684  0.0370  0.4369  0.4044
 7735SOL    HW124104   5.900   4.495   5.671  0.6241  0.2453  3.0626
 7735SOL    HW224105   5.825   4.353   5.700 -0.8049  0.1315 -0.6662
 7736SOL     OW24106   6.537   4.189   0.585 -0.2491 -0.3473  0.5244
 7736SOL    HW124107   6.500   4.135   0.660  0.9349  1.1230  2.2400
 7736SOL    HW224108   6.632   4.212   0.603  0.3688 -0.6817 -1.8827
 7737SOL     OW24109   4.184   0.220   4.870  0.4424 -0.2185  0.3152
 7737SOL    HW124110   4.272   0.254   4.902  1.2343 -0.8530 -1.0663
 7737SOL    HW224111   4.173   0.125   4.900  0.1274 -0.0654  0.6804
 7738SOL     OW24112   0.553   2.621   1.174 -0.2686  0.2871 -0.0079
 7738SOL    HW124113   0.638   2.666   1.201 -0.2626  0.2552  0.0270
 7738SOL    HW224114   0.551   2.529   1.213  0.0765 -0.0317 -0.7275
 7739SOL     OW24115   6.669   4.377   6.855  0.2263  0.0099  0.0060
 7739SOL    HW124116   6.644   4.473   6.843  1.9655  0.7177  1.5279
 7739SOL    HW224117   6.623   4.322   6.786 -2.9247  1.5490  0.6882
 7740SOL     OW24118   2.372   2.390   5.706 -0.0288 -0.1142 -0.2542
 7740SOL    HW124119   2.289   2.336   5.721  0.6930 -0.6179  2.3599
 7740SOL    HW224120   2.443   2.331   5.667 -0.9586  0.4370 -2.9912
 7741SOL     OW24121   3.402   1.632   1.112  0.1708  0.2282 -0.2638
 7741SOL    HW124122   3.460   1.555   1.089  1.1231  0.3923  1.4253
 7741SOL    HW224123   3.363   1.619   1.203 -1.3107  0.8038 -0.7744
 7742SOL     OW24124   1.970   0.575   2.171  0.2926 -0.8585 -0.3180
 7742SOL    HW124125   1.937   0.661   2.210 -0.3271 -0.9219 -0.6897
 7742SOL    HW224126   1.924   0.559   2.083  0.4810 -1.5150 -0.2974
 7743SOL     OW24127   4.027   5.720   4.338 -0.5984  0.0124  0.1210
 7743SOL    HW124128   3.964   5.737   4.262 -1.2678  0.7549  0.8241
 7743SOL    HW224129   4.115   5.690   4.302 -0.8553  0.4869 -0.9526
 7744SOL     OW24130   3.696   3.858   3.585  0.5199 -0.1190 -0.0356
 7744SOL    HW124131   3.687   3.824   3.678 -0.0073 -2.3008 -0.8333
 7744SOL    HW224132   3.678   3.784   3.520 -2.9768  2.0944 -1.9369
 7745SOL     OW24133   2.487   4.495   0.007 -0.0794  0.2727  0.2443
 7745SOL    HW124134   2.431   4.529   0.083  0.2694  0.1385  0.5647
 7745SOL    HW224135   2.544   4.420   0.039  1.6465  1.5871  0.4086
 7746SOL     OW24136   0.116   6.891   5.487  0.2987  0.1668 -0.5501
 7746SOL    HW124137   0.186   6.923   5.424  1.2188 -0.7321 -0.0198
 7746SOL    HW224138   0.148   6.902   5.581 -1.1480  1.7122 -0.1990
 7747SOL     OW24139   1.744   3.029   3.086 -0.0575  0.1457 -0.6869
 7747SOL    HW124140   1.682   3.105   3.106 -1.0442 -0.4624 -1.3280
 7747SOL    HW224141   1.728   2.997   2.993  1.4012  0.1140 -0.9428
 7748SOL     OW24142   1.685   3.788   0.199 -0.0032  0.5592 -0.6598
 7748SOL    HW124143   1.779   3.782   0.165  0.5443  0.3641  0.8161
 7748SOL    HW224144   1.670   3.879   0.238 -1.3034  1.5474 -3.2554
 7749SOL     OW24145   4.051   0.914   3.950  0.5343  0.5722  0.0348
 7749SOL    HW124146   4.000   0.993   3.917  0.6748  1.0089  0.8309
 7749SOL    HW224147   4.069   0.851   3.874 -0.8561  0.5862 -0.3310
 7750SOL     OW24148   3.805   5.537   5.424 -0.0921  0.4904 -0.0762
 7750SOL    HW124149   3.757   5.467   5.477 -0.0384  1.0565  0.7290
 7750SOL    HW224150   3.902   5.513   5.417 -0.0007  0.6788  0.5288
 7751SOL     OW24151   0.326   2.748   0.872  0.3645 -0.1477  0.3731
 7751SOL    HW124152   0.348   2.655   0.902  1.3587 -0.3517 -0.8803
 7751SOL    HW224153   0.248   2.782   0.924  0.0484 -1.6349  0.9380
 7752SOL     OW24154   6.291   1.714   2.608  0.3487  0.0585 -0.4657
 7752SOL    HW124155   6.335   1.747   2.525  1.3861  1.4370  0.5775
 7752SOL    HW224156   6.360   1.705   2.680 -0.6887 -0.1162  0.5247
 7753SOL     OW24157   1.591   5.889   5.365  0.1766  0.4958 -0.2618
 7753SOL    HW124158   1.495   5.887   5.393  0.0889  1.2564 -0.4845
 7753SOL    HW224159   1.597   5.908   5.267  0.4616 -2.8389 -1.0093
 7754SOL     OW24160   2.329   2.742   4.160  0.0039 -0.6345 -0.2396
 7754SOL    HW124161   2.273   2.666   4.125  1.1225 -1.0415 -1.2338
 7754SOL    HW224162   2.380   2.712   4.240 -0.0032 -0.7470 -0.2774
 7755SOL     OW24163   1.830   5.961   0.061 -0.1583 -0.2330 -0.1021
 7755SOL    HW124164   1.769   5.965   0.140  1.3257 -0.7349  1.1295
 7755SOL    HW224165   1.893   6.039   0.065  1.0272 -1.1776  0.1782
 7756SOL     OW24166   0.181   0.913   4.893 -0.5080 -0.8441 -0.4766
 7756SOL    HW124167   0.210   0.872   4.806 -0.1204 -0.6590 -0.4356
 7756SOL    HW224168   0.173   0.841   4.962  2.9763 -0.5777  0.3765
 7757SOL     OW24169   0.979   3.971   6.834  0.3987 -0.8463 -0.8440
 7757SOL    HW124170   0.996   3.939   6.927 -0.6236 -2.1787 -1.0889
 7757SOL    HW224171   0.893   4.024   6.832 -0.0719 -1.6125 -1.1870
 7758SOL     OW24172   2.562   4.250   5.767  0.0078  0.0034 -0.2992
 7758SOL    HW124173   2.591   4.338   5.804  1.5821  0.4790 -2.5005
 7758SOL    HW224174   2.622   4.223   5.692 -1.7019 -1.9613 -1.0696
 7759SOL     OW24175   2.534   5.651   4.201  0.6443 -0.0869  0.3929
 7759SOL    HW124176   2.613   5.591   4.183  2.2261  0.9073  3.3313
 7759SOL    HW224177   2.566   5.744   4.216 -1.2756  0.5984  0.4539
 7760SOL     OW24178   4.627   5.196   0.377  0.2719  0.3738  0.1156
 7760SOL    HW124179   4.562   5.129   0.342  0.7431 -0.1843  0.2853
 7760SOL    HW224180   4.578   5.267   0.428 -0.3036  0.5884 -0.7311
 7761SOL     OW24181   5.699   1.779   6.348 -0.4732  0.2507 -0.1706
 7761SOL    HW124182   5.643   1.753   6.270 -1.0196 -0.4455  0.4436
 7761SOL    HW224183   5.666   1.734   6.431  1.7513 -1.2568  0.0046
 7762SOL     OW24184   0.603   2.698   3.164  0.1142 -0.2269  0.2262
 7762SOL    HW124185   0.595   2.784   3.113  0.3332  0.8075  1.8532
 7762SOL    HW224186   0.699   2.680   3.183  0.0228 -0.5384  0.3929
 7763SOL     OW24187   5.855   1.409   3.136 -0.2047 -0.0290  0.4242
 7763SOL    HW124188   5.928   1.430   3.201 -2.4937  1.6732  2.6791
 7763SOL    HW224189   5.870   1.459   3.051  1.8961 -0.7904  0.3018
 7764SOL     OW24190   2.326   4.507   1.701  0.2333  0.2024  0.0542
 7764SOL    HW124191   2.360   4.472   1.614  0.8109  0.1771  0.2856
 7764SOL    HW224192   2.403   4.518   1.765 -0.0520  1.1257  0.2494
 7765SOL     OW24193   0.979   0.384   0.818  0.1674  0.0783  0.1497
 7765SOL    HW124194   0.922   0.423   0.891  0.2649  0.3166  0.1003
 7765SOL    HW224195   0.938   0.406   0.730  1.8948  2.9426 -0.0796
 7766SOL     OW24196   6.585   4.388   1.216  0.0444  0.4386  0.2715
 7766SOL    HW124197   6.536   4.403   1.302  0.2469 -0.5859  0.5790
 7766SOL    HW224198   6.534   4.324   1.159  0.0290  0.9344 -0.2763
 7767SOL     OW24199   1.161   5.911   6.351 -0.2572  0.1539 -0.1659
 7767SOL    HW124200   1.100   5.926   6.274  0.5890  0.4037 -0.8061
 7767SOL    HW224201   1.194   5.816   6.350 -0.7145 -0.0150  0.2474
 7768SOL     OW24202   0.561   1.787   3.494 -0.3592  0.5695  0.2741
 7768SOL    HW124203   0.521   1.697   3.476  0.3851  0.3467 -0.2955
 7768SOL    HW224204   0.596   1.790   3.588 -0.6907  0.3862  0.4063
 7769SOL     OW24205   3.025   4.093   1.041 -0.4204  0.0034 -0.6552
 7769SOL    HW124206   2.966   4.044   1.104 -0.9237 -0.0094 -1.1233
 7769SOL    HW224207   2.970   4.157   0.987  0.4666  2.6248  1.3479
 7770SOL     OW24208   0.590   4.317   6.587 -0.3429  0.3107 -0.1596
 7770SOL    HW124209   0.608   4.220   6.573 -0.6742 -0.0336  1.5694
 7770SOL    HW224210   0.541   4.354   6.509 -1.4445 -1.2498 -0.2479
 7771SOL     OW24211   1.356   6.384   0.076  0.1785 -0.1098 -0.1492
 7771SOL    HW124212   1.411   6.427   0.148  0.0778  0.7125 -0.5597
 7771SOL    HW224213   1.414   6.365  -0.003  0.4106 -1.4943  0.3186
 7772SOL     OW24214   4.622   3.109   1.172  0.0721  0.1407 -0.0388
 7772SOL    HW124215   4.533   3.153   1.159 -0.2461 -0.4183  0.1987
 7772SOL    HW224216   4.621   3.018   1.130  0.7782  0.4164 -0.6776
 7773SOL     OW24217   4.285   0.214   1.621  0.5483  0.9054 -0.0425
 7773SOL    HW124218   4.247   0.154   1.692 -0.8618  2.3241  0.4577
 7773SOL    HW224219   4.363   0.264   1.658  2.4998 -1.4186 -0.8210
 7774SOL     OW24220   3.342   3.759   5.238 -0.0348  0.0490 -0.8236
 7774SOL    HW124221   3.315   3.793   5.149 -2.2822 -0.8242 -0.5436
 7774SOL    HW224222   3.309   3.821   5.309 -3.5446 -2.1044 -0.3534
 7775SOL     OW24223   2.406   0.560   1.206  0.2306  0.0885  0.5467
 7775SOL    HW124224   2.361   0.545   1.294 -0.4588 -2.2380 -0.1344
 7775SOL    HW224225   2.422   0.472   1.161  2.6210  1.0601 -0.6773
 7776SOL     OW24226   0.432   0.516   2.977 -0.2167  0.2910 -0.3584
 7776SOL    HW124227   0.482   0.432   2.998  0.5258  0.9809  0.7809
 7776SOL    HW224228   0.436   0.577   3.056 -2.6753  0.4814 -0.3091
 7777SOL     OW24229   6.566   6.121   4.969 -0.4088 -0.1649 -0.1397
 7777SOL    HW124230   6.569   6.073   5.057 -1.7509  1.8526  1.0828
 7777SOL    HW224231   6.616   6.207   4.976 -0.5928  0.0610 -1.3618
 7778SOL     OW24232   0.994   0.095   1.859 -0.2177  0.1445  0.0867
 7778SOL    HW124233   1.017   0.191   1.841 -0.9346  0.1681 -0.7576
 7778SOL    HW224234   1.046   0.036   1.798 -0.2156  0.0269  0.2021
 7779SOL     OW24235   5.410   2.644   5.954  0.5044 -0.2123 -0.1296
 7779SOL    HW124236   5.401   2.681   6.046 -3.5008 -0.6199 -0.1816
 7779SOL    HW224237   5.395   2.717   5.887  3.7926  0.1718 -0.6399
 7780SOL     OW24238   3.393   6.213   0.024 -0.0715 -0.3912  0.5502
 7780SOL    HW124239   3.371   6.224  -0.072  0.0458  1.6638  0.7160
 7780SOL    HW224240   3.460   6.139   0.035  0.2581 -0.3514 -0.9831
 7781SOL     OW24241   1.541   1.853   6.879  0.3090 -0.4710  0.4316
 7781SOL    HW124242   1.609   1.913   6.921  1.1908  0.1705 -1.7443
 7781SOL    HW224243   1.457   1.905   6.862  0.4308 -0.3486  0.1948
 7782SOL     OW24244   2.906   2.581   5.399  0.7779  0.8873  0.1105
 7782SOL    HW124245   2.859   2.632   5.326  1.4129  1.0263 -0.2050
 7782SOL    HW224246   2.841   2.562   5.473 -0.0732  0.1227 -0.7940
 7783SOL     OW24247   5.171   6.812   3.389 -0.1596  0.1269  0.1676
 7783SOL    HW124248   5.184   6.713   3.384  1.5132  0.3189 -4.4439
 7783SOL    HW224249   5.109   6.840   3.316  1.0920  2.6477 -0.0181
 7784SOL     OW24250   1.372   6.678   6.644 -0.3509 -0.1146  0.8042
 7784SOL    HW124251   1.340   6.651   6.735 -0.2539 -0.3904  0.7581
 7784SOL    HW224252   1.320   6.757   6.612 -0.7555 -0.3508  0.8689
 7785SOL     OW24253   0.912   3.538   3.961  0.0673 -0.0512 -0.1434
 7785SOL    HW124254   0.900   3.618   4.021 -0.7229  0.9177 -1.5391
 7785SOL    HW224255   0.973   3.561   3.886 -0.4390 -0.6464 -0.7532
 7786SOL     OW24256   5.942   5.597   1.798 -0.0509 -0.5684 -0.1404
 7786SOL    HW124257   5.903   5.607   1.707  0.3273  2.8596 -0.0758
 7786SOL    HW224258   5.869   5.581   1.864 -0.8543  1.0451 -0.5926
 7787SOL     OW24259   3.122   4.697   0.525 -0.1821 -0.2544  0.1319
 7787SOL    HW124260   3.078   4.620   0.479  1.6320 -1.4444  0.2884
 7787SOL    HW224261   3.164   4.758   0.457 -0.0767 -0.3821  0.0826
 7788SOL     OW24262   0.196   5.584   6.907 -0.1247  0.0993  0.2308
 7788SOL    HW124263   0.238   5.574   6.817  0.5155 -1.5068  0.6646
 7788SOL    HW224264   0.261   5.553   6.977 -0.0147  2.7204  1.4234
 7789SOL     OW24265   2.433   6.923   0.677  0.0206  0.1619  0.0575
 7789SOL    HW124266   2.377   6.847   0.710 -0.0566 -1.1418 -2.7456
 7789SOL    HW224267   2.527   6.892   0.666  0.1347  0.6590 -0.4423
 7790SOL     OW24268   6.921   0.987   1.618  0.0528  0.2268  0.1650
 7790SOL    HW124269   6.993   0.967   1.552 -0.3400  0.5094 -0.3634
 7790SOL    HW224270   6.894   1.083   1.610  0.3255  0.3877  1.0688
 7791SOL     OW24271   2.086   6.438   0.643  0.3964 -0.2482  0.4728
 7791SOL    HW124272   2.160   6.391   0.692  1.0649  0.1215 -0.1503
 7791SOL    HW224273   2.124   6.518   0.596 -0.0588 -0.9926 -1.2374
 7792SOL     OW24274   2.075   4.359   1.625  0.3163 -0.9729 -0.4484
 7792SOL    HW124275   2.081   4.260   1.612 -1.3849 -1.6552  2.9248
 7792SOL    HW224276   2.166   4.396   1.644  0.8446 -2.0343 -0.8373
 7793SOL     OW24277   3.800   0.276   2.019  0.2852  0.0445 -0.1876
 7793SOL    HW124278   3.777   0.199   2.079  1.6950 -1.9601 -2.0761
 7793SOL    HW224279   3.868   0.334   2.063  0.0226 -0.3922  0.8230
 7794SOL     OW24280   4.105   5.259   0.172 -0.0380 -0.2500  0.0667
 7794SOL    HW124281   4.019   5.228   0.131 -0.1240 -0.9447  0.7474
 7794SOL    HW224282   4.165   5.293   0.100 -1.4088  1.6081 -0.2621
 7795SOL     OW24283   5.813   3.548   2.935  0.1925  0.0253  0.0385
 7795SOL    HW124284   5.744   3.551   2.862 -0.9629 -0.6194  1.0541
 7795SOL    HW224285   5.776   3.496   3.013  1.5752  0.2770  0.8907
 7796SOL     OW24286   3.639   1.045   6.443 -0.6755  0.3127 -0.0687
 7796SOL    HW124287   3.685   1.008   6.524 -0.0064 -1.0659 -1.0481
 7796SOL    HW224288   3.684   1.012   6.360 -1.4986  1.4988 -1.0260
 7797SOL     OW24289   5.427   5.185   5.679 -0.0727  0.9538 -0.2414
 7797SOL    HW124290   5.415   5.154   5.584 -2.8746 -1.4161  0.7273
 7797SOL    HW224291   5.491   5.124   5.726 -1.3072 -0.0377  0.2135
 7798SOL     OW24292   5.946   6.485   3.369  0.5282 -0.3955  0.2303
 7798SOL    HW124293   5.872   6.491   3.302  1.1976 -1.5156 -0.6283
 7798SOL    HW224294   6.024   6.436   3.330  0.8115 -1.4050  1.9396
 7799SOL     OW24295   6.136   5.352   3.651 -0.1879 -0.3142  0.1953
 7799SOL    HW124296   6.220   5.312   3.615 -0.0778 -0.7755  0.9463
 7799SOL    HW224297   6.078   5.383   3.575  0.7843  0.2808 -0.3239
 7800SOL     OW24298   0.850   0.904   2.068  0.6734 -0.6989 -0.0381
 7800SOL    HW124299   0.825   0.982   2.011 -0.0811 -0.6756  0.2985
 7800SOL    HW224300   0.798   0.909   2.154  3.2808  0.4030  1.5878
 7801SOL     OW24301   5.401   2.707   0.103  1.1600  0.1357  0.2170
 7801SOL    HW124302   5.469   2.636   0.120  1.1841 -0.1862 -1.0779
 7801SOL    HW224303   5.446   2.792   0.075  1.0622  0.0953 -0.0728
 7802SOL     OW24304   4.241   6.831   6.633  0.0028  0.3278 -0.2009
 7802SOL    HW124305   4.263   6.910   6.576  1.3726  0.8731  1.0361
 7802SOL    HW224306   4.251   6.855   6.730 -2.2351 -0.5828  0.3316
 7803SOL     OW24307   3.753   2.225   6.440 -0.2587 -0.4649 -0.0880
 7803SOL    HW124308   3.710   2.272   6.362  1.2486  0.0533 -0.6451
 7803SOL    HW224309   3.709   2.136   6.453 -1.1448 -0.1805 -0.9542
 7804SOL     OW24310   0.074   6.459   1.657  0.4051  0.0478 -0.2835
 7804SOL    HW124311   0.026   6.544   1.677  0.1203 -0.0066 -0.7236
 7804SOL    HW224312   0.046   6.389   1.723  1.3717  0.5473  0.6882
 7805SOL     OW24313   5.548   2.920   2.316 -0.2353 -0.3241  0.3211
 7805SOL    HW124314   5.507   2.882   2.399 -1.0500 -0.1636 -0.0025
 7805SOL    HW224315   5.486   2.988   2.276 -0.4718 -1.3678 -1.1657
 7806SOL     OW24316   5.638   4.555   1.834  0.3124 -0.1363  0.0063
 7806SOL    HW124317   5.635   4.546   1.934  1.8778 -0.5595  0.0385
 7806SOL    HW224318   5.545   4.545   1.797 -0.0926 -1.4977  1.2794
 7807SOL     OW24319   0.642   6.273   0.236  0.9419 -0.2581 -0.1524
 7807SOL    HW124320   0.589   6.192   0.261  1.1535 -0.0415  1.0587
 7807SOL    HW224321   0.736   6.246   0.217  1.4345 -0.1299  1.8711
 7808SOL     OW24322   4.041   2.119   0.969  0.1133  0.4329  0.0707
 7808SOL    HW124323   4.107   2.132   0.896 -1.4085  3.0910 -0.9572
 7808SOL    HW224324   3.948   2.119   0.931 -0.6445  0.0060  1.8159
 7809SOL     OW24325   1.437   3.217   2.900 -0.1246  0.2158 -0.3488
 7809SOL    HW124326   1.370   3.287   2.924  0.5874  0.4074  1.1849
 7809SOL    HW224327   1.515   3.223   2.962  0.3005 -1.4453 -0.6878
 7810SOL     OW24328   2.295   4.144   0.583  0.4513  0.3603  0.2596
 7810SOL    HW124329   2.271   4.178   0.492 -0.0121  0.4476  0.4076
 7810SOL    HW224330   2.214   4.101   0.624 -0.0694  2.4397  1.5951
 7811SOL     OW24331   4.452   3.666   1.433  0.1491  0.0923 -0.3182
 7811SOL    HW124332   4.507   3.749   1.423  0.7076  0.1648  2.4320
 7811SOL    HW224333   4.498   3.589   1.388 -0.0051  1.0971 -2.2495
 7812SOL     OW24334   0.874   0.305   6.231  0.3054 -0.6545  0.2406
 7812SOL    HW124335   0.953   0.315   6.170 -0.2801  0.2905 -0.3999
 7812SOL    HW224336   0.802   0.369   6.203 -0.9056 -1.8614  0.4742
 7813SOL     OW24337   2.024   5.578   0.725 -0.0499 -0.1067 -0.3301
 7813SOL    HW124338   2.015   5.671   0.759 -1.9734 -0.4416  0.2287
 7813SOL    HW224339   2.030   5.579   0.625  0.8112  0.6508 -0.2746
 7814SOL     OW24340   2.220   3.016   4.284  0.2476 -0.0196 -0.0538
 7814SOL    HW124341   2.217   3.096   4.224 -1.8930 -0.0014  0.0197
 7814SOL    HW224342   2.229   2.933   4.228 -1.6085  0.0063 -0.4447
 7815SOL     OW24343   4.595   4.603   6.509 -0.2669  0.0366 -0.4153
 7815SOL    HW124344   4.544   4.656   6.440  0.6616  0.5577 -0.7158
 7815SOL    HW224345   4.530   4.565   6.575 -1.1180  0.0712 -1.2000
 7816SOL     OW24346   2.357   6.420   4.047  0.7440 -0.0907  0.4024
 7816SOL    HW124347   2.326   6.512   4.025  0.4008 -0.5012 -0.9108
 7816SOL    HW224348   2.432   6.394   3.987  0.9845 -0.5969  0.9052
 7817SOL     OW24349   4.992   0.462   2.747  0.3721  0.3820  0.6972
 7817SOL    HW124350   4.928   0.501   2.681  0.4747 -1.0579 -0.3183
 7817SOL    HW224351   5.067   0.526   2.763  0.1731  0.9032 -0.3450
 7818SOL     OW24352   4.471   0.410   4.415  0.4237 -0.4322 -0.6540
 7818SOL    HW124353   4.433   0.361   4.337  0.1209  0.1580 -0.8835
 7818SOL    HW224354   4.567   0.432   4.398  1.2066 -2.8030  0.3404
 7819SOL     OW24355   6.069   4.123   2.485 -0.2642  0.5205 -0.1424
 7819SOL    HW124356   6.153   4.159   2.525 -0.2534  1.3024 -0.8252
 7819SOL    HW224357   6.061   4.155   2.390 -0.5932 -0.7805 -0.5644
 7820SOL     OW24358   2.522   5.498   6.415  0.1675  0.3776  0.0910
 7820SOL    HW124359   2.612   5.514   6.457 -0.2726  1.1858  0.7586
 7820SOL    HW224360   2.451   5.511   6.483 -0.4363 -0.8987 -0.2781
 7821SOL     OW24361   2.713   6.810   2.092  0.1025 -0.2157 -0.4959
 7821SOL    HW124362   2.777   6.816   2.015  0.5128  0.6105 -0.1119
 7821SOL    HW224363   2.751   6.749   2.162 -0.9777 -2.2065 -1.5707
 7822SOL     OW24364   3.054   4.258   0.157  0.0909  0.1777  0.3389
 7822SOL    HW124365   3.109   4.240   0.239 -0.1340 -2.7723 -0.0319
 7822SOL    HW224366   2.959   4.235   0.176 -0.0789  0.1151 -0.5452
 7823SOL     OW24367   1.573   0.163   5.849 -0.5712 -0.4259 -0.4984
 7823SOL    HW124368   1.596   0.073   5.813 -0.6568  0.1386 -2.0430
 7823SOL    HW224369   1.510   0.209   5.786 -0.2495  0.8513  0.0820
 7824SOL     OW24370   2.928   6.748   6.354  0.0002  0.5430  0.3067
 7824SOL    HW124371   2.958   6.717   6.264 -0.6390  1.5493 -0.2672
 7824SOL    HW224372   3.004   6.795   6.399  0.5990 -0.7440  0.6874
 7825SOL     OW24373   0.582   5.763   6.264 -0.2018  0.3135  0.1450
 7825SOL    HW124374   0.556   5.858   6.248 -1.1781 -0.1748 -1.4630
 7825SOL    HW224375   0.640   5.757   6.345  0.1356  2.3054  0.1013
 7826SOL     OW24376   0.742   2.767   3.672 -0.1467  0.5845 -0.3795
 7826SOL    HW124377   0.787   2.849   3.637  1.2040  0.4566  0.9690
 7826SOL    HW224378   0.811   2.700   3.699 -1.2174 -0.7032 -0.7501
 7827SOL     OW24379   5.072   6.124   0.525 -0.0751  0.3194 -0.3336
 7827SOL    HW124380   5.155   6.107   0.471  0.2349 -0.4062  0.3483
 7827SOL    HW224381   5.006   6.050   0.509 -0.8249  1.1703 -1.2851
 7828SOL     OW24382   1.279   5.181   2.414 -0.1063  0.3534 -0.0647
 7828SOL    HW124383   1.219   5.226   2.481  0.3303  2.2761 -0.9084
 7828SOL    HW224384   1.229   5.166   2.329  1.1546  4.5299 -1.7884
 7829SOL     OW24385   6.614   4.227   2.129 -0.1657 -0.5041  0.5003
 7829SOL    HW124386   6.562   4.282   2.063  1.6777 -0.1084 -0.6978
 7829SOL    HW224387   6.711   4.230   2.105  0.2208 -2.6621  1.6148
 7830SOL     OW24388   0.993   2.260   6.686  0.3833  0.0271 -1.0050
 7830SOL    HW124389   0.983   2.337   6.749  0.1496  0.3758 -1.4652
 7830SOL    HW224390   0.904   2.218   6.670  0.6465 -0.9666  0.0142
 7831SOL     OW24391   3.948   5.877   6.736 -0.3623 -0.1380 -0.2248
 7831SOL    HW124392   3.869   5.927   6.702  0.2047  1.0199  0.1325
 7831SOL    HW224393   4.021   5.941   6.762  0.6472 -1.1727 -0.4149
 7832SOL     OW24394   0.229   6.777   2.613 -0.0220  0.4020  0.1981
 7832SOL    HW124395   0.144   6.746   2.656 -0.5158  1.7213  0.2029
 7832SOL    HW224396   0.217   6.870   2.579  1.4228  0.5953  0.1844
 7833SOL     OW24397   4.131   0.328   3.444 -0.6180  0.0154  0.3444
 7833SOL    HW124398   4.207   0.283   3.490 -0.4609  0.8970  0.9842
 7833SOL    HW224399   4.085   0.264   3.383  2.0880  0.0616 -1.8843
 7834SOL     OW24400   6.291   5.734   2.811  0.5543  0.3075  0.0943
 7834SOL    HW124401   6.373   5.738   2.753  1.8795  1.8226  1.9742
 7834SOL    HW224402   6.262   5.638   2.821  1.3967 -0.1485 -1.5023
 7835SOL     OW24403   5.108   2.279   1.858 -0.4443  0.1158 -0.2082
 7835SOL    HW124404   5.128   2.373   1.830  2.1327 -0.4806 -0.5964
 7835SOL    HW224405   5.040   2.280   1.931 -0.4015  2.2773 -0.1298
 7836SOL     OW24406   4.134   3.184   5.212  0.6385  0.0508  0.0402
 7836SOL    HW124407   4.086   3.211   5.129  0.3102  0.0273  0.2192
 7836SOL    HW224408   4.190   3.260   5.245  2.6346 -0.6764 -1.4957
 7837SOL     OW24409   4.585   6.156   2.464  0.2004 -0.2755 -0.7390
 7837SOL    HW124410   4.565   6.252   2.446 -1.9881 -0.8566 -1.6810
 7837SOL    HW224411   4.512   6.116   2.520  0.7197 -1.5506 -0.9288
 7838SOL     OW24412   1.594   5.098   5.094  0.3091 -0.0171  0.6256
 7838SOL    HW124413   1.578   5.194   5.117 -0.3319  0.3070 -0.9913
 7838SOL    HW224414   1.620   5.091   4.998 -1.4185 -1.5828  0.2106
 7839SOL     OW24415   5.403   4.409   6.740 -0.2240  0.0049  0.4719
 7839SOL    HW124416   5.477   4.343   6.755 -0.7257 -0.2772  1.8523
 7839SOL    HW224417   5.320   4.375   6.784 -0.9156  0.7928 -0.2100
 7840SOL     OW24418   4.123   6.290   5.978 -0.3022  0.0824  0.3534
 7840SOL    HW124419   4.180   6.266   6.057 -0.8956 -1.3613  0.3807
 7840SOL    HW224420   4.181   6.322   5.903  0.4210 -0.1350  0.8088
 7841SOL     OW24421   5.896   1.588   4.217 -0.2316 -0.0746  0.4315
 7841SOL    HW124422   5.833   1.510   4.218 -0.9202  0.3499 -2.1493
 7841SOL    HW224423   5.879   1.643   4.135  2.1677  1.1804  0.6960
 7842SOL     OW24424   2.087   5.515   2.316  0.5486 -0.4298  0.2070
 7842SOL    HW124425   2.174   5.483   2.350  0.5436 -0.2934  0.3495
 7842SOL    HW224426   2.091   5.522   2.216  0.3723 -1.3851  0.1279
 7843SOL     OW24427   1.203   6.659   5.904  0.7154 -0.4025  0.0206
 7843SOL    HW124428   1.157   6.593   5.845  1.1812  0.4189 -1.3115
 7843SOL    HW224429   1.139   6.694   5.972 -0.2508 -0.3232 -0.8995
 7844SOL     OW24430   1.265   6.187   1.971 -0.7653 -0.7715  0.1611
 7844SOL    HW124431   1.233   6.198   1.877  0.9073  0.6734 -0.2864
 7844SOL    HW224432   1.343   6.248   1.987 -0.7602 -1.2891  2.3713
 7845SOL     OW24433   5.480   1.347   3.430  0.3487 -0.4031 -0.4755
 7845SOL    HW124434   5.399   1.390   3.469  0.7333 -0.7782  0.7896
 7845SOL    HW224435   5.533   1.415   3.379 -0.5179 -0.0555 -0.9250
 7846SOL     OW24436   2.031   0.578   0.795  0.3244  0.2549 -0.4855
 7846SOL    HW124437   2.033   0.487   0.835  0.2012  0.2287 -0.5374
 7846SOL    HW224438   2.057   0.646   0.863 -0.9944  0.3318 -0.0224
 7847SOL     OW24439   2.006   0.391   6.947  0.1618 -0.3257 -0.5858
 7847SOL    HW124440   1.939   0.462   6.970  0.9222  0.5454 -0.9968
 7847SOL    HW224441   1.975   0.343   6.865 -0.0186 -0.0013 -0.7145
 7848SOL     OW24442   5.728   3.136   1.385 -0.4351 -0.3232  0.8304
 7848SOL    HW124443   5.754   3.231   1.397  1.0106 -0.6746  0.6111
 7848SOL    HW224444   5.628   3.128   1.391 -0.6814  1.3607 -0.2626
 7849SOL     OW24445   6.961   5.815   1.905  0.4183  0.5051  0.1904
 7849SOL    HW124446   6.991   5.785   1.996  0.9998 -0.8489 -0.4285
 7849SOL    HW224447   6.917   5.739   1.857  0.6703  1.0303 -0.9010
 7850SOL     OW24448   2.104   5.844   5.176  0.0236 -0.2864  0.1013
 7850SOL    HW124449   2.019   5.897   5.177 -1.0579 -1.9040 -1.2863
 7850SOL    HW224450   2.116   5.798   5.263  0.1113  0.8734  0.7238
 7851SOL     OW24451   5.882   0.009   5.594  0.2636 -0.5500  0.1104
 7851SOL    HW124452   5.907   0.037   5.687  2.0838  0.0704 -0.5111
 7851SOL    HW224453   5.850  -0.085   5.595  0.9126 -0.7839  1.2772
 7852SOL     OW24454   1.905   0.788   0.612  0.2443 -0.4101 -0.4573
 7852SOL    HW124455   1.884   0.725   0.538 -1.2134 -1.7131  0.9670
 7852SOL    HW224456   1.954   0.740   0.685  0.0999  0.3587  0.1690
 7853SOL     OW24457   5.811   1.948   0.537  0.0521 -0.0095 -0.6506
 7853SOL    HW124458   5.740   1.896   0.586  0.4064  0.3879  0.2924
 7853SOL    HW224459   5.859   1.886   0.475 -0.6716 -0.4316 -0.8084
 7854SOL     OW24460   0.112   0.627   5.767  0.0474 -0.6208  0.1586
 7854SOL    HW124461   0.193   0.640   5.824  0.6776 -0.7926 -0.6836
 7854SOL    HW224462   0.031   0.662   5.816  0.7836  0.5940  0.5558
 7855SOL     OW24463   2.401   7.001   3.558  0.0755  0.8446 -0.3265
 7855SOL    HW124464   2.487   7.017   3.510 -0.8278  0.4612 -2.1424
 7855SOL    HW224465   2.327   6.988   3.492 -1.2307  0.2639  1.1746
 7856SOL     OW24466   0.402   3.258   0.882 -0.5929 -0.2850  0.2985
 7856SOL    HW124467   0.463   3.255   0.961 -0.7270 -1.7534  0.3692
 7856SOL    HW224468   0.329   3.190   0.893 -0.6345 -0.4848 -1.0714
 7857SOL     OW24469   2.959   3.302   5.209 -0.2391 -0.3714 -0.5080
 7857SOL    HW124470   2.871   3.260   5.187 -0.4812  0.2837 -0.8395
 7857SOL    HW224471   2.990   3.271   5.299 -0.7600 -0.6814 -0.4320
 7858SOL     OW24472   3.707   0.121   1.566  0.5610 -0.0051  0.1495
 7858SOL    HW124473   3.681   0.178   1.489 -1.8150 -0.1936  0.7236
 7858SOL    HW224474   3.765   0.173   1.629  0.4941  0.9336 -0.5444
 7859SOL     OW24475   3.759   0.921   6.218 -0.0069 -0.4087  0.3522
 7859SOL    HW124476   3.747   0.833   6.172  1.0798  0.2148 -1.2256
 7859SOL    HW224477   3.847   0.960   6.190 -0.4407  1.1418  1.0959
 7860SOL     OW24478   0.318   6.492   2.663 -0.0483 -0.1907 -0.0583
 7860SOL    HW124479   0.374   6.425   2.614  1.3696  1.6046 -1.0311
 7860SOL    HW224480   0.294   6.567   2.602 -3.7168 -0.8897  0.2850
 7861SOL     OW24481   4.241   1.803   4.988 -0.1611 -0.0219 -0.8058
 7861SOL    HW124482   4.166   1.796   5.053  0.7760 -0.1260  0.2898
 7861SOL    HW224483   4.302   1.878   5.015  0.1695  0.0202 -1.6443
 7862SOL     OW24484   4.079   1.924   4.615 -0.1543  0.4277 -0.8784
 7862SOL    HW124485   4.107   1.969   4.700  0.6994 -1.8803  0.1434
 7862SOL    HW224486   4.122   1.970   4.537  0.1069  1.7776  0.0261
 7863SOL     OW24487   6.368   5.947   3.027 -0.4670 -0.0992 -0.2236
 7863SOL    HW124488   6.325   5.873   2.976  0.9314 -0.7608 -0.5151
 7863SOL    HW224489   6.380   6.027   2.969 -2.0675  0.4258  0.1172
 7864SOL     OW24490   3.315   0.536   3.415  0.3099  0.0303  0.3072
 7864SOL    HW124491   3.396   0.590   3.438  0.5251 -0.5434  0.9379
 7864SOL    HW224492   3.319   0.448   3.463 -1.0947  0.3344  1.0565
 7865SOL     OW24493   4.020   6.343   2.405 -0.1464  0.7462 -0.2951
 7865SOL    HW124494   3.962   6.309   2.479 -1.2488  1.2666 -0.8979
 7865SOL    HW224495   4.057   6.432   2.429  0.4659  0.3914  0.1108
 7866SOL     OW24496   3.054   1.355   4.594  0.0807  0.5335 -0.0585
 7866SOL    HW124497   3.089   1.432   4.541  3.0031 -1.8529 -1.9041
 7866SOL    HW224498   3.006   1.292   4.533  0.9446 -0.8640  0.6689
 7867SOL     OW24499   1.345   1.925   3.607  0.6321 -0.2100  0.2659
 7867SOL    HW124500   1.250   1.895   3.595  0.7567 -0.0960 -1.0853
 7867SOL    HW224501   1.348   1.997   3.677 -0.3747  0.2813 -0.1834
 7868SOL     OW24502   5.242   5.613   3.311 -0.5907  0.2354  0.0574
 7868SOL    HW124503   5.189   5.621   3.226  0.0869  1.4728 -0.2752
 7868SOL    HW224504   5.236   5.519   3.345 -1.3634 -0.1360 -1.0358
 7869SOL     OW24505   0.854   3.964   5.861 -0.0161 -0.1680 -0.2446
 7869SOL    HW124506   0.832   3.920   5.948  1.4247 -0.1228  0.1841
 7869SOL    HW224507   0.902   4.050   5.878 -0.5817  0.3336 -1.0912
 7870SOL     OW24508   0.597   1.514   4.255  0.0374  0.2996  0.0387
 7870SOL    HW124509   0.609   1.429   4.204  0.4801  0.8338 -0.7594
 7870SOL    HW224510   0.659   1.584   4.219 -0.0750  0.8637  0.9125
 7871SOL     OW24511   3.631   6.996   3.743 -0.7815  0.1826 -0.2338
 7871SOL    HW124512   3.722   7.038   3.750 -1.7451  2.5978 -1.1765
 7871SOL    HW224513   3.605   6.989   3.646 -1.6768 -0.3221  0.0351
 7872SOL     OW24514   3.206   5.829   1.086 -0.1320  0.8039 -0.1791
 7872SOL    HW124515   3.120   5.785   1.112  0.6167  0.7157  2.4192
 7872SOL    HW224516   3.281   5.765   1.101  0.7706  2.2181  1.6229
 7873SOL     OW24517   4.971   5.659   5.661 -0.0059 -0.4851 -0.5537
 7873SOL    HW124518   5.059   5.706   5.673  0.7290 -2.0176  0.4144
 7873SOL    HW224519   4.986   5.568   5.624 -0.8660 -1.7962  2.0655
 7874SOL     OW24520   1.240   4.249   5.095 -0.1546  0.7386  0.2000
 7874SOL    HW124521   1.328   4.231   5.139  0.5128  0.8901 -1.0234
 7874SOL    HW224522   1.191   4.163   5.082 -0.4678  0.7130  1.4045
 7875SOL     OW24523   6.493   2.172   4.121  0.0526 -0.3939 -0.5777
 7875SOL    HW124524   6.570   2.199   4.177  0.3419  0.2683 -1.2764
 7875SOL    HW224525   6.414   2.152   4.179  0.4854 -0.1886  0.0818
 7876SOL     OW24526   4.848   1.724   4.885  0.1474 -0.2091 -0.3058
 7876SOL    HW124527   4.852   1.799   4.819 -0.7630 -0.2709 -0.4426
 7876SOL    HW224528   4.941   1.693   4.906  0.4592 -0.3342 -1.7312
 7877SOL     OW24529   2.923   1.101   2.796  0.6450  0.4151  0.2113
 7877SOL    HW124530   2.906   1.179   2.857 -0.3743  0.9540 -0.7118
 7877SOL    HW224531   2.953   1.134   2.707  0.5520 -0.2645 -0.0795
 7878SOL     OW24532   2.123   6.404   1.567  0.1110  0.4590  0.3969
 7878SOL    HW124533   2.154   6.496   1.542 -2.0749  1.0851 -0.2340
 7878SOL    HW224534   2.140   6.387   1.664  0.8081  1.4070  0.4473
 7879SOL     OW24535   5.887   0.042   6.909 -0.4009  0.3642  0.4349
 7879SOL    HW124536   5.805   0.035   6.852  1.1904 -2.3358 -1.7579
 7879SOL    HW224537   5.873  -0.007   6.995 -0.5489 -1.6255 -0.6806
 7880SOL     OW24538   4.323   0.914   0.103 -0.1612  0.6182 -0.6515
 7880SOL    HW124539   4.363   0.980   0.039  0.6703  0.1500 -0.6354
 7880SOL    HW224540   4.321   0.954   0.195  0.8642  0.4407 -0.5336
 7881SOL     OW24541   6.207   0.018   2.726  0.2821 -0.3505 -0.4106
 7881SOL    HW124542   6.169   0.079   2.656  0.3964 -0.9462 -1.0062
 7881SOL    HW224543   6.187   0.055   2.817  0.1748  0.4614 -0.7551
 7882SOL     OW24544   5.547   6.440   4.209  0.2491 -0.0891  0.0603
 7882SOL    HW124545   5.629   6.392   4.177  0.0118 -0.1340 -0.5036
 7882SOL    HW224546   5.573   6.508   4.277  0.7867  0.0286 -0.2534
 7883SOL     OW24547   2.205   4.401   6.904  0.2958 -0.1846  0.2777
 7883SOL    HW124548   2.274   4.337   6.869  1.4173  0.8342  0.5271
 7883SOL    HW224549   2.216   4.489   6.858  1.3586  0.9880  2.6350
 7884SOL     OW24550   4.732   1.414   6.014 -0.1165 -0.4877  0.2768
 7884SOL    HW124551   4.741   1.327   6.062 -2.9461 -0.7098  0.5375
 7884SOL    HW224552   4.676   1.477   6.068 -1.2638  0.1488 -1.5499
 7885SOL     OW24553   5.669   5.264   1.501  0.0933  0.0981 -0.7568
 7885SOL    HW124554   5.766   5.254   1.481 -0.0292 -1.5784 -0.6449
 7885SOL    HW224555   5.627   5.174   1.511 -1.0525  0.7910  1.2787
 7886SOL     OW24556   1.252   0.995   3.185  0.9611  0.5262 -0.2738
 7886SOL    HW124557   1.304   0.940   3.250 -0.7661  0.9234  1.5499
 7886SOL    HW224558   1.225   1.081   3.228  0.1676  1.0202 -1.6869
 7887SOL     OW24559   3.394   4.432   5.865  0.6774 -0.1666 -0.2215
 7887SOL    HW124560   3.359   4.422   5.772  1.5903  1.6345 -0.8007
 7887SOL    HW224561   3.321   4.466   5.924 -0.3861 -2.8217  0.1801
 7888SOL     OW24562   3.694   1.311   6.390  0.4892  0.4252  0.0084
 7888SOL    HW124563   3.621   1.313   6.322 -0.1558  1.1982  0.7018
 7888SOL    HW224564   3.690   1.224   6.440 -0.3246  0.6818  0.4135
 7889SOL     OW24565   5.003   6.360   1.955 -0.4242  0.1661  0.1464
 7889SOL    HW124566   4.967   6.446   1.919 -1.5828  0.1769  1.2560
 7889SOL    HW224567   5.100   6.370   1.975 -0.3641  0.9494 -0.5164
 7890SOL     OW24568   4.771   0.071   6.658  0.2585  0.0133 -0.7054
 7890SOL    HW124569   4.709   0.131   6.607  0.1486  1.1564  0.6940
 7890SOL    HW224570   4.728  -0.018   6.671 -1.1624  0.7946  0.2755
 7891SOL     OW24571   4.796   6.150   0.797  0.4790  0.2763 -0.0911
 7891SOL    HW124572   4.855   6.156   0.877 -0.9041 -0.5621  1.0623
 7891SOL    HW224573   4.797   6.237   0.748  2.8106  0.1988 -0.2632
 7892SOL     OW24574   5.816   5.122   0.799  0.5265 -0.0622 -0.4058
 7892SOL    HW124575   5.916   5.130   0.802  0.4541  0.6833  0.4040
 7892SOL    HW224576   5.791   5.027   0.781  1.3769 -0.4801  0.5002
 7893SOL     OW24577   2.695   5.443   6.032  0.1588 -0.5523 -0.9115
 7893SOL    HW124578   2.599   5.465   6.014  0.1184  0.5102  0.4472
 7893SOL    HW224579   2.709   5.344   6.027 -1.7294 -1.0599  2.0622
 7894SOL     OW24580   2.954   3.762   3.457 -0.0158 -0.3124 -0.0100
 7894SOL    HW124581   2.920   3.727   3.544 -1.9757  1.0592 -0.1462
 7894SOL    HW224582   2.947   3.862   3.456  0.2761 -0.2760 -1.6032
 7895SOL     OW24583   0.005   2.351   2.588  0.3406  0.3176  0.5568
 7895SOL    HW124584   0.074   2.298   2.539 -1.0504 -0.9072 -0.2056
 7895SOL    HW224585   0.008   2.328   2.685 -0.9235 -2.1316  0.1123
 7896SOL     OW24586   5.330   5.851   2.639 -0.5563 -0.1148  0.1638
 7896SOL    HW124587   5.360   5.756   2.633  0.0782  0.0919 -0.0712
 7896SOL    HW224588   5.281   5.865   2.725  0.1719 -0.4297  0.6410
 7897SOL     OW24589   0.160   2.408   3.348  0.2499  0.6606 -0.5038
 7897SOL    HW124590   0.155   2.439   3.443  1.3987 -0.1806 -0.1491
 7897SOL    HW224591   0.245   2.441   3.307 -1.1172  2.6874 -1.8902
 7898SOL     OW24592   2.167   6.932   2.264 -0.0316 -0.3790 -0.0153
 7898SOL    HW124593   2.221   6.886   2.194  0.0428  0.0818 -0.2681
 7898SOL    HW224594   2.228   6.965   2.337  0.1393  0.7790 -0.6550
 7899SOL     OW24595   3.520   3.415   3.313  0.3660  0.2585 -0.3901
 7899SOL    HW124596   3.607   3.392   3.268 -0.1116 -1.5780 -0.4244
 7899SOL    HW224597   3.469   3.478   3.255  1.1849  0.4803 -0.8877
 7900SOL     OW24598   1.554   5.353   1.827 -0.1757  0.2650 -0.0189
 7900SOL    HW124599   1.491   5.403   1.768 -0.5512 -2.6562 -2.3426
 7900SOL    HW224600   1.643   5.346   1.782  0.4436  0.4816  1.1415
 7901SOL     OW24601   5.105   3.849   3.625  0.0483  0.3088 -0.1438
 7901SOL    HW124602   5.006   3.859   3.630 -0.0085 -0.2076 -0.0991
 7901SOL    HW224603   5.141   3.903   3.549 -0.2876  0.3875 -0.2465
 7902SOL     OW24604   2.874   5.124   6.865 -0.2339  0.2186  0.9039
 7902SOL    HW124605   2.929   5.206   6.845  0.5649 -0.6058 -0.3909
 7902SOL    HW224606   2.801   5.116   6.797 -1.2721  0.6578  1.9277
 7903SOL     OW24607   6.337   2.736   0.324 -0.5408 -0.3009  0.5893
 7903SOL    HW124608   6.422   2.776   0.291 -0.6952 -0.5072 -0.0773
 7903SOL    HW224609   6.306   2.666   0.260 -0.9670 -0.5617  1.0662
 7904SOL     OW24610   5.890   1.137   4.236  1.0811  0.1720 -0.0889
 7904SOL    HW124611   5.798   1.173   4.255  1.4043  0.1452  1.6745
 7904SOL    HW224612   5.901   1.123   4.137 -0.6804  0.5074 -0.3577
 7905SOL     OW24613   4.853   4.190   1.437 -0.3641  0.4103  0.1063
 7905SOL    HW124614   4.872   4.108   1.383 -1.9438 -0.3574  0.6691
 7905SOL    HW224615   4.886   4.177   1.531 -0.7316  0.3744  0.2298
 7906SOL     OW24616   6.850   6.771   5.981 -0.6130  0.2076  0.0176
 7906SOL    HW124617   6.825   6.862   6.015 -0.3370  0.4634 -0.4586
 7906SOL    HW224618   6.808   6.757   5.891  0.5784  0.4665 -0.5933
 7907SOL     OW24619   6.524   1.063   4.346  0.6122 -0.5474  0.1068
 7907SOL    HW124620   6.481   1.033   4.431  0.4401  2.3251  1.1410
 7907SOL    HW224621   6.619   1.088   4.364  1.4971 -2.6618 -1.2433
 7908SOL     OW24622   3.751   0.640   2.807 -0.4157 -0.3937 -0.0199
 7908SOL    HW124623   3.801   0.556   2.830  0.1463  0.6127  2.7600
 7908SOL    HW224624   3.665   0.642   2.857 -1.6059 -0.3763 -1.9523
 7909SOL     OW24625   0.090   1.939   6.528 -0.5364  0.4145  0.2106
 7909SOL    HW124626   0.118   1.992   6.448 -0.7244  0.6809  0.3205
 7909SOL    HW224627   0.085   1.842   6.504  0.8307  0.3083  0.2752
 7910SOL     OW24628   5.464   6.317   0.192  0.3678  0.2263  0.4990
 7910SOL    HW124629   5.481   6.342   0.096  0.3736  0.3781  0.5389
 7910SOL    HW224630   5.413   6.391   0.236  0.9614  0.4613  0.7976
 7911SOL     OW24631   3.674   4.240   1.294 -0.0424  0.3657 -0.1341
 7911SOL    HW124632   3.737   4.318   1.304 -0.1226  0.5449 -0.9595
 7911SOL    HW224633   3.692   4.174   1.366 -1.0957  1.9049  1.6521
 7912SOL     OW24634   2.418   0.209   4.892  0.1788  0.5021  0.0025
 7912SOL    HW124635   2.403   0.222   4.794  1.5980 -0.1766 -0.3418
 7912SOL    HW224636   2.480   0.132   4.906  0.1224  0.6846  1.4327
 7913SOL     OW24637   3.690   6.377   3.291 -0.0276 -0.1965 -0.4793
 7913SOL    HW124638   3.700   6.316   3.369 -0.0468 -1.1877 -1.2234
 7913SOL    HW224639   3.775   6.428   3.277  1.5845 -3.0802 -2.2614
 7914SOL     OW24640   2.124   0.382   6.109 -0.1171 -0.1036  0.6831
 7914SOL    HW124641   2.072   0.298   6.123 -0.0972 -0.6986 -2.2375
 7914SOL    HW224642   2.061   0.458   6.092 -0.0982 -0.1995  0.1670
 7915SOL     OW24643   5.386   6.384   5.802 -0.4201  0.1806  0.7167
 7915SOL    HW124644   5.480   6.365   5.830  0.6234  1.6534 -1.4732
 7915SOL    HW224645   5.385   6.466   5.744 -2.5849 -1.5501 -1.9131
 7916SOL     OW24646   0.918   6.495   0.219  0.1172 -0.1322  0.3448
 7916SOL    HW124647   1.010   6.454   0.212  0.8784  1.6764 -0.8132
 7916SOL    HW224648   0.891   6.497   0.315  0.8625 -1.5812  0.6159
 7917SOL     OW24649   1.340   5.063   1.503  0.8639 -0.3208  0.2626
 7917SOL    HW124650   1.245   5.036   1.516  0.9928 -0.6141  0.6206
 7917SOL    HW224651   1.397   5.021   1.574  1.1113  0.6891  0.6759
 7918SOL     OW24652   4.718   2.638   5.331  0.3257 -0.4930 -0.2591
 7918SOL    HW124653   4.627   2.632   5.292  0.9418  0.5817 -1.9294
 7918SOL    HW224654   4.736   2.731   5.362  0.9932 -0.6136 -0.2660
 7919SOL     OW24655   5.023   2.916   6.645 -0.1365 -0.2256  0.2469
 7919SOL    HW124656   5.105   2.927   6.702  1.0059 -0.8180 -1.2288
 7919SOL    HW224657   4.978   2.830   6.669  0.2052 -0.3632  0.4128
 7920SOL     OW24658   0.491   2.979   4.910  0.3326 -0.1657 -0.0965
 7920SOL    HW124659   0.496   3.077   4.888  2.0753 -0.1678  0.1372
 7920SOL    HW224660   0.583   2.944   4.924 -0.3925 -1.2988  2.3281
 7921SOL     OW24661   6.115   1.623   4.604  0.3896 -0.4509 -0.6100
 7921SOL    HW124662   6.037   1.590   4.657  0.9398 -1.3111 -0.3309
 7921SOL    HW224663   6.083   1.690   4.536 -0.4271  0.0536  0.2531
 7922SOL     OW24664   2.641   0.394   1.845 -0.6889  0.1997  0.1730
 7922SOL    HW124665   2.632   0.482   1.798 -2.3431  0.7981  1.4928
 7922SOL    HW224666   2.612   0.320   1.783  1.9029  0.3719 -1.3747
 7923SOL     OW24667   6.683   5.408   5.173 -0.5815 -0.4784 -0.4748
 7923SOL    HW124668   6.606   5.438   5.228 -2.2364 -1.1906 -2.2884
 7923SOL    HW224669   6.687   5.461   5.089 -0.0802 -1.5094 -1.1265
 7924SOL     OW24670   3.479   1.370   0.833  0.2233  0.0842  0.1447
 7924SOL    HW124671   3.516   1.420   0.911  1.0344 -2.3833  1.4485
 7924SOL    HW224672   3.492   1.272   0.847 -2.9002 -0.6778 -1.4083
 7925SOL     OW24673   0.748   0.694   5.417 -0.4269  0.2056  0.0064
 7925SOL    HW124674   0.821   0.752   5.453 -0.4175 -0.1439  0.5594
 7925SOL    HW224675   0.659   0.736   5.435 -0.3690  0.6264 -0.6586
 7926SOL     OW24676   2.527   1.356   3.562  0.4250 -0.2354  0.0897
 7926SOL    HW124677   2.444   1.381   3.512  0.5629  0.4704  0.1903
 7926SOL    HW224678   2.582   1.439   3.577  1.7002 -0.8631 -0.9823
 7927SOL     OW24679   4.368   0.781   0.935  0.6167 -0.1382 -0.1727
 7927SOL    HW124680   4.427   0.802   1.014 -0.6952 -1.2532  1.1502
 7927SOL    HW224681   4.332   0.867   0.897 -0.0457  0.3627  1.4992
 7928SOL     OW24682   6.293   4.215   5.897 -0.1489  0.0682  0.0501
 7928SOL    HW124683   6.348   4.272   5.957  0.0952 -0.5522  0.4286
 7928SOL    HW224684   6.354   4.164   5.835 -0.3825  0.4903 -0.5336
 7929SOL     OW24685   3.411   4.101   2.114  0.0763  0.3254 -0.5200
 7929SOL    HW124686   3.496   4.115   2.064  0.0027 -1.2946 -1.1564
 7929SOL    HW224687   3.367   4.190   2.131  1.2100  1.0718 -1.3534
 7930SOL     OW24688   6.660   0.391   3.679 -0.6520 -0.6014  0.2253
 7930SOL    HW124689   6.755   0.399   3.708 -0.3343 -0.6607 -0.7573
 7930SOL    HW224690   6.612   0.327   3.739 -0.4180  0.3981  1.5103
 7931SOL     OW24691   5.912   2.211   0.484 -0.3727  0.3401  0.7142
 7931SOL    HW124692   5.896   2.279   0.555 -2.8807  0.5110  0.0952
 7931SOL    HW224693   5.883   2.121   0.516 -2.4095  0.5721 -0.3119
 7932SOL     OW24694   6.585   0.382   6.347 -0.1597 -0.2085 -0.5264
 7932SOL    HW124695   6.594   0.299   6.292  0.8373 -1.2731  1.1392
 7932SOL    HW224696   6.675   0.411   6.379 -0.3165  2.3369 -2.1393
 7933SOL     OW24697   5.712   0.451   3.680 -0.8799  0.3905  0.4110
 7933SOL    HW124698   5.672   0.398   3.605 -1.4302 -0.3102  1.1775
 7933SOL    HW224699   5.811   0.454   3.669 -0.8138 -0.9662  0.4325
 7934SOL     OW24700   5.249   4.280   0.468  0.3822 -0.2102 -0.9239
 7934SOL    HW124701   5.267   4.277   0.370 -0.6934  0.8820 -1.1794
 7934SOL    HW224702   5.222   4.189   0.500 -0.0352 -0.4026 -1.8067
 7935SOL     OW24703   3.985   5.960   3.115  0.0073 -0.4561  0.2577
 7935SOL    HW124704   3.988   6.047   3.165 -1.8304  0.6811 -1.4165
 7935SOL    HW224705   3.950   5.888   3.175  1.2612  0.0034  1.5848
 7936SOL     OW24706   2.256   6.381   1.786  0.4654  0.1990  0.3747
 7936SOL    HW124707   2.183   6.375   1.854  0.5683  2.2918  0.7547
 7936SOL    HW224708   2.341   6.345   1.825  0.0286 -0.6780  0.5341
 7937SOL     OW24709   6.779   6.442   0.012  0.2930 -0.1848  0.7869
 7937SOL    HW124710   6.713   6.394   0.069 -0.4505 -0.1145 -0.0019
 7937SOL    HW224711   6.859   6.466   0.067 -0.8785  0.9023  2.1097
 7938SOL     OW24712   0.608   5.377   6.235  0.6143  0.2242  0.7858
 7938SOL    HW124713   0.697   5.333   6.225  0.2238 -0.4018 -0.0827
 7938SOL    HW224714   0.549   5.321   6.293 -0.0295 -0.6533 -0.6792
 7939SOL     OW24715   3.376   6.593   3.548 -0.0715  0.0239  0.1428
 7939SOL    HW124716   3.307   6.640   3.492  0.3264  1.7352  0.9958
 7939SOL    HW224717   3.392   6.502   3.512 -0.2650  0.8326 -2.1734
 7940SOL     OW24718   2.532   0.470   2.609 -0.0391 -0.3060 -0.3577
 7940SOL    HW124719   2.478   0.476   2.525  0.4443 -1.5062 -0.7808
 7940SOL    HW224720   2.625   0.504   2.591 -0.8832  2.9037  0.6738
 7941SOL     OW24721   3.425   2.276   5.339  0.2792  0.4728 -0.3030
 7941SOL    HW124722   3.344   2.327   5.310 -0.6463  0.2567  1.7167
 7941SOL    HW224723   3.402   2.220   5.419  2.7412  1.4276  1.1832
 7942SOL     OW24724   4.543   4.893   5.157 -0.0239  0.7914 -0.6548
 7942SOL    HW124725   4.524   4.961   5.086  0.2798  1.1543 -0.3988
 7942SOL    HW224726   4.563   4.941   5.243  1.5494  0.4356 -0.7982
 7943SOL     OW24727   0.790   3.156   7.003 -0.0456 -0.3011  0.1255
 7943SOL    HW124728   0.862   3.114   7.059  0.9093  0.9393 -0.1272
 7943SOL    HW224729   0.806   3.135   6.907  1.3393  1.8328 -0.1662
 7944SOL     OW24730   2.864   2.546   1.451 -0.0037 -0.2403 -1.0715
 7944SOL    HW124731   2.895   2.536   1.356 -1.0824 -1.7852 -1.2948
 7944SOL    HW224732   2.896   2.468   1.505 -2.5907 -1.4154 -1.1046
 7945SOL     OW24733   5.602   2.165   4.281 -0.1139  0.3281  0.7506
 7945SOL    HW124734   5.539   2.101   4.238 -1.8345  2.9010 -0.8264
 7945SOL    HW224735   5.566   2.193   4.370 -2.0888  2.8041 -0.7060
 7946SOL     OW24736   0.141   5.815   4.421  0.3000 -0.2685  0.0958
 7946SOL    HW124737   0.241   5.820   4.418  0.2756  1.1046  0.8674
 7946SOL    HW224738   0.102   5.871   4.347  0.1032  1.3863  1.4028
 7947SOL     OW24739   1.894   0.904   1.133 -0.1800  0.1923  0.2663
 7947SOL    HW124740   1.915   0.917   1.230  1.4742  1.7924 -0.2401
 7947SOL    HW224741   1.959   0.839   1.093 -0.9904 -0.6279  0.2417
 7948SOL     OW24742   0.089   4.989   5.057 -0.2369 -0.2142  0.1229
 7948SOL    HW124743   0.022   5.053   5.020 -0.4951  1.1632  2.7662
 7948SOL    HW224744   0.098   5.002   5.155  2.9991 -1.2340  0.1030
 7949SOL     OW24745   5.339   6.087   5.901  0.0039  0.2475 -0.4002
 7949SOL    HW124746   5.334   6.163   5.835  1.1615  1.2237  0.5805
 7949SOL    HW224747   5.385   6.119   5.984  0.3734 -1.5060  0.0970
 7950SOL     OW24748   6.653   1.301   6.256  0.3627 -0.2600  0.2096
 7950SOL    HW124749   6.633   1.348   6.342  1.5656  1.3220 -0.3268
 7950SOL    HW224750   6.684   1.208   6.275  0.7900  0.1297  1.5131
 7951SOL     OW24751   5.562   2.056   6.784  0.2862  0.0065 -0.1706
 7951SOL    HW124752   5.631   1.994   6.748  0.0036  0.5953 -1.8064
 7951SOL    HW224753   5.470   2.024   6.760  0.1014  0.5848 -0.2715
 7952SOL     OW24754   6.622   0.761   2.812 -0.3472 -0.3588  0.1865
 7952SOL    HW124755   6.631   0.662   2.807  0.4325 -0.2519 -1.0543
 7952SOL    HW224756   6.618   0.799   2.719  0.9611  0.8824  0.5984
 7953SOL     OW24757   2.590   5.109   0.267  0.1310 -0.0611 -0.1969
 7953SOL    HW124758   2.572   5.095   0.364  1.8150 -1.6526 -0.0567
 7953SOL    HW224759   2.619   5.204   0.252  0.6034 -0.0017  0.9906
 7954SOL     OW24760   2.042   2.838   1.091  0.1299 -0.6485 -0.6115
 7954SOL    HW124761   2.142   2.844   1.099  0.1717 -1.7472 -0.1602
 7954SOL    HW224762   2.001   2.916   1.139  0.7692 -0.1633 -0.8372
 7955SOL     OW24763   1.255   4.492   1.746 -0.2446  0.1735  0.1485
 7955SOL    HW124764   1.223   4.557   1.677 -0.9216 -0.1926  0.1055
 7955SOL    HW224765   1.223   4.520   1.837 -0.6535 -0.1596  0.1137
 7956SOL     OW24766   4.330   2.125   0.113  0.3620 -0.5118  0.2206
 7956SOL    HW124767   4.355   2.055   0.180  0.8467 -0.8359 -0.2890
 7956SOL    HW224768   4.251   2.176   0.147  1.1879 -0.0132  1.4901
 7957SOL     OW24769   1.565   3.078   1.193  0.3145  0.2686  0.2113
 7957SOL    HW124770   1.495   3.041   1.132 -1.2723 -0.6439  2.4254
 7957SOL    HW224771   1.524   3.148   1.252  0.7521 -1.3501  2.6023
 7958SOL     OW24772   5.357   1.486   2.143  0.0595 -0.5955 -0.0713
 7958SOL    HW124773   5.326   1.540   2.221  0.9427  0.0237 -0.1434
 7958SOL    HW224774   5.281   1.472   2.079 -0.0685  0.9308 -0.2723
 7959SOL     OW24775   6.519   2.072   3.859  0.4486 -0.5341 -0.3359
 7959SOL    HW124776   6.557   2.148   3.806  0.2357 -0.3022 -0.1573
 7959SOL    HW224777   6.518   2.097   3.956  0.5912 -0.8545 -0.2500
 7960SOL     OW24778   2.348   6.257   4.276  0.0829 -0.7980  0.4612
 7960SOL    HW124779   2.287   6.182   4.250  0.3652 -0.1411 -2.3376
 7960SOL    HW224780   2.329   6.337   4.219 -0.7153  1.6329  3.7875
 7961SOL     OW24781   2.990   1.656   0.605 -0.2197  0.2280  0.0419
 7961SOL    HW124782   3.064   1.597   0.570 -0.1620  0.7997 -0.8430
 7961SOL    HW224783   3.018   1.696   0.692  0.6116  0.6014 -0.3843
 7962SOL     OW24784   0.116   1.024   2.112 -0.2853 -0.0674 -0.2766
 7962SOL    HW124785   0.043   1.047   2.177 -0.4476  1.2256 -0.9088
 7962SOL    HW224786   0.075   0.985   2.029 -0.4319  2.1455 -1.3013
 7963SOL     OW24787   3.473   0.230   0.188 -0.7355  0.1783  0.3904
 7963SOL    HW124788   3.389   0.250   0.238 -1.7695 -0.6221 -0.9458
 7963SOL    HW224789   3.450   0.188   0.101  1.0749 -0.0769 -0.0006
 7964SOL     OW24790   6.183   1.531   2.138 -0.4405 -0.3986  0.0755
 7964SOL    HW124791   6.202   1.564   2.230  0.0284 -1.7984  0.5052
 7964SOL    HW224792   6.223   1.594   2.071 -2.1657  1.5164  0.7291
 7965SOL     OW24793   1.316   0.430   0.068  0.2040 -0.0760 -0.5563
 7965SOL    HW124794   1.318   0.503   0.000  0.6115  1.5223  1.1009
 7965SOL    HW224795   1.248   0.451   0.138  3.1331  0.9155  2.2064
 7966SOL     OW24796   5.652   2.069   2.370 -0.1639  0.1224  0.0650
 7966SOL    HW124797   5.595   2.146   2.400 -1.9145 -0.9931 -0.2439
 7966SOL    HW224798   5.664   2.005   2.446  0.7183  0.3660  0.1341
 7967SOL     OW24799   5.546   5.664   3.535 -0.2056  0.0799  0.0407
 7967SOL    HW124800   5.515   5.689   3.443 -2.2269 -2.1103  0.0534
 7967SOL    HW224801   5.640   5.630   3.530  0.9720  3.0519 -0.6121
 7968SOL     OW24802   4.562   4.127   1.587 -0.2076  0.8523 -0.4849
 7968SOL    HW124803   4.574   4.216   1.543  0.0975  1.4166  0.6757
 7968SOL    HW224804   4.511   4.139   1.672  0.9584  0.1225  0.3510
 7969SOL     OW24805   4.791   1.031   3.368  0.9931  0.1028  0.1985
 7969SOL    HW124806   4.837   1.088   3.436  0.2069 -2.1368  2.7790
 7969SOL    HW224807   4.721   0.975   3.413 -0.9429 -0.1262 -2.8144
 7970SOL     OW24808   5.010   2.757   1.921 -0.8034  0.1848 -0.4579
 7970SOL    HW124809   4.962   2.821   1.860 -0.7258  1.2779  0.5863
 7970SOL    HW224810   5.083   2.806   1.969  0.7212 -1.2164 -1.2483
 7971SOL     OW24811   3.187   1.142   1.366  0.3801 -0.1371  0.6439
 7971SOL    HW124812   3.114   1.136   1.434 -1.3170 -0.5073 -1.1266
 7971SOL    HW224813   3.251   1.214   1.393 -1.4457  1.2406  1.5503
 7972SOL     OW24814   1.965   5.173   0.078 -0.6977 -0.0181  0.0376
 7972SOL    HW124815   1.899   5.134   0.143  0.6146 -2.0318  0.2730
 7972SOL    HW224816   2.057   5.163   0.116  0.2052 -2.0721 -2.4222
 7973SOL     OW24817   2.977   5.777   6.219  0.5259  0.4415 -0.2012
 7973SOL    HW124818   3.029   5.791   6.135  0.7230  0.1489 -0.1283
 7973SOL    HW224819   2.990   5.855   6.280  0.1309  0.7981 -0.5724
 7974SOL     OW24820   5.180   4.251   6.867 -0.0638  0.1895  0.1763
 7974SOL    HW124821   5.129   4.291   6.791  0.7282 -0.2499 -0.6118
 7974SOL    HW224822   5.133   4.271   6.953 -1.3782  0.0634 -0.4841
 7975SOL     OW24823   3.057   2.937   6.440 -0.0467  0.2807 -0.5957
 7975SOL    HW124824   2.958   2.921   6.439  0.0523 -0.5784  0.9350
 7975SOL    HW224825   3.086   2.964   6.532  1.1957  0.1647 -0.9340
 7976SOL     OW24826   1.021   6.440   3.328 -0.1121  0.1340 -0.7359
 7976SOL    HW124827   1.106   6.433   3.381 -0.7967 -0.5726  0.3060
 7976SOL    HW224828   1.037   6.406   3.235  0.3474 -1.5491 -0.0757
 7977SOL     OW24829   4.913   1.488   5.126 -0.4302  0.3046  0.1855
 7977SOL    HW124830   4.846   1.417   5.105  1.0656 -0.7391 -1.3473
 7977SOL    HW224831   4.867   1.566   5.167 -2.8638  0.3184 -2.2866
 7978SOL     OW24832   5.325   0.706   1.202  0.7805  0.4349 -0.0972
 7978SOL    HW124833   5.330   0.806   1.204 -2.3117  0.6852  0.8538
 7978SOL    HW224834   5.284   0.676   1.116  2.3762 -0.1281 -0.6997
 7979SOL     OW24835   5.198   1.145   5.065  0.1163 -0.1109 -0.3519
 7979SOL    HW124836   5.214   1.142   5.164 -2.1143  1.7946  0.1731
 7979SOL    HW224837   5.171   1.237   5.038 -0.8067 -0.9237 -2.4829
 7980SOL     OW24838   6.957   1.747   6.820  0.4420  0.1028 -0.2831
 7980SOL    HW124839   7.057   1.748   6.808  0.5042 -0.1987  0.1514
 7980SOL    HW224840   6.915   1.701   6.742  0.6251  0.4223 -0.5744
 7981SOL     OW24841   0.194   6.579   4.668  0.0592 -0.5086  0.2065
 7981SOL    HW124842   0.102   6.608   4.691 -0.0219 -0.3795 -0.2653
 7981SOL    HW224843   0.245   6.657   4.631  0.0887 -0.7745 -0.3271
 7982SOL     OW24844   1.047   6.445   4.615  0.0726  0.0162 -0.1850
 7982SOL    HW124845   1.007   6.510   4.550 -0.9540 -1.5423 -1.1668
 7982SOL    HW224846   0.980   6.422   4.684  0.1884 -0.5426 -0.2574
 7983SOL     OW24847   1.459   2.089   2.841 -0.0059  0.3167 -0.2510
 7983SOL    HW124848   1.396   2.130   2.775 -0.9313  1.2156  1.1306
 7983SOL    HW224849   1.553   2.102   2.810 -0.3242  2.4121 -0.4889
 7984SOL     OW24850   4.260   6.009   5.357  0.1125  0.7413  0.1626
 7984SOL    HW124851   4.271   5.984   5.453  1.6306 -0.1240 -0.2011
 7984SOL    HW224852   4.200   5.942   5.312  1.3221 -0.2787 -0.0008
 7985SOL     OW24853   0.601   6.267   1.286  0.3118  0.1360  0.4130
 7985SOL    HW124854   0.579   6.309   1.374  0.8887 -0.2012  0.7277
 7985SOL    HW224855   0.625   6.339   1.220 -1.9185  0.5343 -0.0297
 7986SOL     OW24856   5.184   2.089   5.443  0.2647 -0.5055  0.3464
 7986SOL    HW124857   5.282   2.101   5.455  0.3634  0.3008 -0.9304
 7986SOL    HW224858   5.160   2.109   5.347 -1.2637  0.2993  0.8528
 7987SOL     OW24859   2.357   0.864   1.171  0.1119 -0.1876  0.2436
 7987SOL    HW124860   2.449   0.871   1.132  0.4647 -0.1853  1.0755
 7987SOL    HW224861   2.356   0.792   1.241 -0.1491  0.8310  1.3032
 7988SOL     OW24862   2.242   6.828   2.885  0.1395  0.6197  0.4790
 7988SOL    HW124863   2.213   6.868   2.798 -1.6127  1.5209  1.4162
 7988SOL    HW224864   2.166   6.776   2.924  1.3590 -0.9506  0.8321
 7989SOL     OW24865   5.259   5.811   6.765 -0.1578  0.3202 -1.0632
 7989SOL    HW124866   5.316   5.842   6.690 -1.1578  2.0451 -1.1772
 7989SOL    HW224867   5.176   5.867   6.769 -0.9179 -0.8271  0.2892
 7990SOL     OW24868   1.361   0.711   7.002 -0.1661 -0.1585 -0.1842
 7990SOL    HW124869   1.430   0.700   6.930 -1.2601 -1.3649 -1.1112
 7990SOL    HW224870   1.343   0.808   7.017  0.1402  0.1221 -1.4934
 7991SOL     OW24871   5.362   0.043   0.313 -0.5295  0.1088 -0.9771
 7991SOL    HW124872   5.417   0.020   0.233 -1.3250 -0.5107 -1.3610
 7991SOL    HW224873   5.422   0.070   0.389  0.4714 -2.7543 -0.6397
 7992SOL     OW24874   2.842   3.824   0.903 -0.3957  0.2227 -0.1432
 7992SOL    HW124875   2.800   3.820   0.813  1.8429 -0.4866 -1.2147
 7992SOL    HW224876   2.941   3.832   0.894 -0.0553 -0.4118  2.2563
 7993SOL     OW24877   2.245   5.563   1.610  0.3347 -0.0611 -0.5541
 7993SOL    HW124878   2.330   5.573   1.560  0.5612  2.8687  0.2441
 7993SOL    HW224879   2.167   5.582   1.550  0.3186 -1.0261 -0.8540
 7994SOL     OW24880   1.416   1.201   0.771 -0.8937  0.3525 -0.3593
 7994SOL    HW124881   1.485   1.252   0.720 -1.0079  0.2651 -0.6019
 7994SOL    HW224882   1.344   1.263   0.800 -1.0777  0.3178 -0.7315
 7995SOL     OW24883   3.068   3.530   6.186  0.0528  0.4073 -0.1927
 7995SOL    HW124884   3.117   3.488   6.262 -0.9796  0.7584  0.6997
 7995SOL    HW224885   3.106   3.620   6.166  1.1872 -0.2290 -0.9968
 7996SOL     OW24886   5.302   5.288   0.900 -0.4191 -0.2738 -0.6962
 7996SOL    HW124887   5.320   5.219   0.830  0.7532  0.3378 -1.0276
 7996SOL    HW224888   5.284   5.243   0.988 -0.1409 -1.0079 -1.0085
 7997SOL     OW24889   2.707   0.994   5.545  0.3073 -0.6397  0.0017
 7997SOL    HW124890   2.758   1.077   5.524 -0.4956  0.1579  1.0371
 7997SOL    HW224891   2.634   0.981   5.478 -2.4540  2.0634  2.1613
 7998SOL     OW24892   4.789   3.241   0.408  0.1074  0.0163  0.2852
 7998SOL    HW124893   4.763   3.198   0.495 -0.5354  1.1032  0.6582
 7998SOL    HW224894   4.757   3.336   0.408  3.1996  1.1671  0.3306
 7999SOL     OW24895   2.839   6.633   4.552  0.4255 -0.1072 -0.6011
 7999SOL    HW124896   2.828   6.533   4.548 -0.8600 -0.0342  0.4535
 7999SOL    HW224897   2.816   6.672   4.463 -1.2033 -0.6034 -0.4435
 8000SOL     OW24898   3.016   2.103   6.487 -0.1536 -0.8881 -0.0281
 8000SOL    HW124899   3.082   2.122   6.414 -0.8716  0.0047 -0.4727
 8000SOL    HW224900   3.047   2.146   6.571  0.4548 -1.5383  0.0850
 8001SOL     OW24901   6.781   6.372   3.116 -0.6785  0.1864  0.2605
 8001SOL    HW124902   6.709   6.440   3.128 -2.0915 -1.3708  1.1093
 8001SOL    HW224903   6.757   6.289   3.166  2.3671  0.0371  1.7500
 8002SOL     OW24904   1.872   2.515   6.891  0.3342  0.1043 -0.6228
 8002SOL    HW124905   1.928   2.461   6.953 -0.4714 -2.9544 -2.3382
 8002SOL    HW224906   1.775   2.498   6.910  0.0112  1.7327 -0.6359
 8003SOL     OW24907   2.498   0.599   3.470  0.6389  0.4693 -0.2413
 8003SOL    HW124908   2.566   0.563   3.534  1.2715  0.2438 -1.0274
 8003SOL    HW224909   2.493   0.541   3.389  0.3909  1.1635 -0.7420
 8004SOL     OW24910   5.333   2.447   4.429  0.5864 -0.3962  0.6924
 8004SOL    HW124911   5.338   2.448   4.330  0.5412 -0.3336  0.6908
 8004SOL    HW224912   5.238   2.435   4.458  0.6416 -0.7616  0.7275
 8005SOL     OW24913   1.318   2.723   4.881  0.0618  0.2905 -0.0639
 8005SOL    HW124914   1.366   2.721   4.968 -0.2161  2.6767  0.2048
 8005SOL    HW224915   1.233   2.671   4.888  2.2838 -3.8254 -0.4839
 8006SOL     OW24916   0.973   2.282   3.568 -0.8278  0.3288  0.8990
 8006SOL    HW124917   1.044   2.295   3.498 -0.4528 -1.0070  1.0129
 8006SOL    HW224918   0.992   2.199   3.620 -2.8750 -0.4992  0.4252
 8007SOL     OW24919   2.892   6.550   5.407  0.0720  0.5594 -0.2842
 8007SOL    HW124920   2.902   6.551   5.308  0.3077  1.5928 -0.2602
 8007SOL    HW224921   2.983   6.554   5.450  0.0064 -0.5008 -0.0160
 8008SOL     OW24922   3.726   0.021   0.638 -0.0434 -0.4363  0.2653
 8008SOL    HW124923   3.654   0.090   0.633  0.0064 -0.4687 -1.0356
 8008SOL    HW224924   3.813   0.065   0.662 -0.3117 -0.2804  0.9861
 8009SOL     OW24925   0.400   6.824   4.094 -0.3702 -0.2339  0.1941
 8009SOL    HW124926   0.399   6.884   4.013 -2.5442  1.6697  1.5196
 8009SOL    HW224927   0.310   6.783   4.107  0.4649 -2.0100  0.6518
 8010SOL     OW24928   2.185   6.217   3.908  0.2460  0.4544  0.4011
 8010SOL    HW124929   2.201   6.128   3.950 -0.2533  0.0307 -0.2841
 8010SOL    HW224930   2.218   6.290   3.969 -0.3870 -0.1401  1.4764
 8011SOL     OW24931   6.471   5.432   0.512  0.6404 -0.7570  0.1577
 8011SOL    HW124932   6.479   5.527   0.483  1.7500 -0.7501  0.4420
 8011SOL    HW224933   6.467   5.427   0.612 -0.0421 -0.9735  0.1235
 8012SOL     OW24934   1.097   1.206   6.979  0.5794  0.1504  0.5206
 8012SOL    HW124935   1.136   1.297   6.979  0.9404  0.0794 -2.3220
 8012SOL    HW224936   1.028   1.199   7.051 -0.1028  2.9324  0.2239
 8013SOL     OW24937   6.478   0.554   5.029 -0.4967 -0.4176 -0.4735
 8013SOL    HW124938   6.406   0.589   4.969 -1.3603 -0.1304  0.6979
 8013SOL    HW224939   6.476   0.454   5.028 -2.6987 -0.4847  1.5253
 8014SOL     OW24940   0.502   4.728   0.317  0.4153  0.1361 -0.3799
 8014SOL    HW124941   0.530   4.635   0.342  0.8048  0.2938 -0.2052
 8014SOL    HW224942   0.503   4.785   0.399  0.1140  0.2795 -0.4765
 8015SOL     OW24943   5.355   1.662   2.662  0.5652  0.1560 -0.1330
 8015SOL    HW124944   5.373   1.596   2.735 -1.8406  1.6436  1.9746
 8015SOL    HW224945   5.423   1.734   2.663  1.9208 -1.0533 -1.0048
 8016SOL     OW24946   7.001   0.223   6.602  0.6266  0.0105  0.5931
 8016SOL    HW124947   7.054   0.228   6.517  0.6957  1.9485  0.6965
 8016SOL    HW224948   7.006   0.131   6.639  1.2426 -0.6774 -1.0942
 8017SOL     OW24949   2.981   3.622   5.429 -0.0689 -0.0690 -0.0893
 8017SOL    HW124950   3.012   3.527   5.422  0.0905  0.0928 -2.2517
 8017SOL    HW224951   3.054   3.678   5.467  0.7421 -0.4308 -1.0645
 8018SOL     OW24952   1.301   5.313   0.803 -0.2618  0.2270  0.4190
 8018SOL    HW124953   1.224   5.266   0.761  1.4243 -3.6710  1.2232
 8018SOL    HW224954   1.371   5.331   0.734 -0.6596  0.9871  0.2142
 8019SOL     OW24955   0.360   3.501   2.581 -0.0083 -0.2338  0.2551
 8019SOL    HW124956   0.309   3.445   2.646 -0.9336  1.9818  1.5663
 8019SOL    HW224957   0.295   3.554   2.525  0.8182 -0.7751 -1.2570
 8020SOL     OW24958   4.171   3.701   0.414  0.0405  0.2296 -0.4435
 8020SOL    HW124959   4.247   3.742   0.465 -0.4442 -0.8403  1.2124
 8020SOL    HW224960   4.170   3.603   0.429 -1.9188  0.2676 -0.0626
 8021SOL     OW24961   2.486   0.373   4.439 -0.5176 -0.3122  0.1412
 8021SOL    HW124962   2.585   0.389   4.450 -0.7461  0.3857  1.4219
 8021SOL    HW224963   2.450   0.436   4.370 -0.3100  0.4500  0.7119
 8022SOL     OW24964   2.573   2.474   5.067  0.1389 -0.0451  0.1997
 8022SOL    HW124965   2.526   2.549   5.113  0.4696  0.2733  0.0196
 8022SOL    HW224966   2.583   2.494   4.970 -0.0603 -0.4667  0.0891
 8023SOL     OW24967   4.432   0.245   6.173 -0.1865 -0.2125 -0.2818
 8023SOL    HW124968   4.413   0.148   6.158  0.1246 -0.0806 -1.7059
 8023SOL    HW224969   4.469   0.285   6.089 -0.8966  1.2813  0.0791
 8024SOL     OW24970   2.841   0.959   1.354 -0.0589  0.0028  0.0268
 8024SOL    HW124971   2.810   1.043   1.398 -2.9972 -0.4153 -1.0693
 8024SOL    HW224972   2.876   0.980   1.262 -1.5273  0.0128 -0.5609
 8025SOL     OW24973   3.091   2.102   2.098 -0.3456 -0.1770 -0.3484
 8025SOL    HW124974   3.038   2.176   2.057  0.1078  0.7189  0.6434
 8025SOL    HW224975   3.061   2.087   2.192 -0.3853 -1.2213 -0.5148
 8026SOL     OW24976   5.457   3.574   0.063 -0.1972 -0.3493  0.1066
 8026SOL    HW124977   5.397   3.495   0.052 -1.3302  0.6107 -1.0251
 8026SOL    HW224978   5.552   3.546   0.054 -0.6317 -1.4095 -1.6357
 8027SOL     OW24979   0.185   2.944   5.188 -0.0531  0.2300 -0.6629
 8027SOL    HW124980   0.238   2.929   5.272 -0.7883  0.0378 -0.2238
 8027SOL    HW224981   0.185   3.041   5.165 -0.2178  0.3449 -0.1867
 8028SOL     OW24982   0.487   3.018   1.528  0.4936  0.9285 -1.0869
 8028SOL    HW124983   0.480   3.117   1.518  0.1085  1.0506  0.1563
 8028SOL    HW224984   0.400   2.982   1.563  0.4590  0.0788 -2.0120
 8029SOL     OW24985   2.180   1.672   4.612 -0.4993  0.0743 -0.5831
 8029SOL    HW124986   2.086   1.696   4.635 -0.6060 -0.9811  0.1520
 8029SOL    HW224987   2.195   1.575   4.631  1.0181  0.4420  0.2451
 8030SOL     OW24988   6.884   4.197   3.964  0.0035  0.5588 -0.1738
 8030SOL    HW124989   6.921   4.220   4.054 -2.5265 -0.2950  1.1849
 8030SOL    HW224990   6.943   4.130   3.919  0.0653 -0.8674  1.9336
 8031SOL     OW24991   0.178   5.659   5.246  0.2995 -0.5482 -0.1563
 8031SOL    HW124992   0.255   5.595   5.244 -0.5173 -1.6152  0.8227
 8031SOL    HW224993   0.148   5.672   5.341 -0.0182  0.7307 -0.4162
 8032SOL     OW24994   4.451   5.461   5.689 -0.6971 -0.1505 -0.2938
 8032SOL    HW124995   4.534   5.426   5.645 -1.6854  0.7412 -3.0545
 8032SOL    HW224996   4.386   5.385   5.702 -0.1116 -0.5524  0.3953
 8033SOL     OW24997   1.543   1.548   0.313 -0.0484  0.2779  0.2755
 8033SOL    HW124998   1.541   1.591   0.403 -0.3763  0.0811  0.3649
 8033SOL    HW224999   1.567   1.616   0.244  1.5525  0.1389  0.6703
 8034SOL     OW25000   5.742   2.474   5.580 -0.3512  0.2620  0.4520
 8034SOL    HW125001   5.840   2.472   5.599 -0.5563 -3.4744  1.8041
 8034SOL    HW225002   5.691   2.466   5.666 -1.8116  0.0436 -0.3950
 8035SOL     OW25003   3.521   2.263   0.649 -0.2366 -0.1506 -0.4877
 8035SOL    HW125004   3.460   2.326   0.603  0.7816  1.0774 -0.2193
 8035SOL    HW225005   3.555   2.195   0.584  0.8897  1.3285 -1.5121
 8036SOL     OW25006   6.198   0.095   3.901 -0.3788  0.0826  0.2047
 8036SOL    HW125007   6.130   0.056   3.839 -1.7816  1.0176  1.0982
 8036SOL    HW225008   6.224   0.026   3.969 -0.3802 -0.3052 -0.1862
 8037SOL     OW25009   1.124   2.709   4.388 -0.0145 -0.4762 -0.2762
 8037SOL    HW125010   1.116   2.624   4.335  2.7021 -1.5975  0.9389
 8037SOL    HW225011   1.111   2.689   4.485  2.1136  0.1831  0.1793
 8038SOL     OW25012   1.770   3.378   1.205 -0.5356  0.4629 -0.9563
 8038SOL    HW125013   1.822   3.461   1.226  0.3448 -0.1255 -0.7824
 8038SOL    HW225014   1.711   3.356   1.283  1.6478 -0.8935  0.3935
 8039SOL     OW25015   5.559   5.282   2.285  0.0236 -0.3511  0.3964
 8039SOL    HW125016   5.596   5.189   2.288  0.1290 -0.2956  1.3608
 8039SOL    HW225017   5.565   5.317   2.192  1.1127 -0.8626  0.2502
 8040SOL     OW25018   6.164   3.030   1.387 -0.1862  0.1755 -0.0627
 8040SOL    HW125019   6.191   2.969   1.313 -2.6983  0.3120 -1.1874
 8040SOL    HW225020   6.144   2.975   1.469 -0.8032 -0.3674 -0.5632
 8041SOL     OW25021   0.458   4.070   3.886  0.7994  0.3518  0.7639
 8041SOL    HW125022   0.387   4.136   3.861  1.4436  1.0525  0.7418
 8041SOL    HW225023   0.462   4.062   3.985 -0.8209 -1.3878  0.7225
 8042SOL     OW25024   2.952   2.540   1.218 -1.2400 -0.1617  0.6208
 8042SOL    HW125025   2.885   2.489   1.165 -0.2491  0.4496 -1.3210
 8042SOL    HW225026   3.044   2.505   1.198 -0.7441  0.8888  0.9939
 8043SOL     OW25027   1.305   2.522   0.505 -0.0326 -0.1196  0.0075
 8043SOL    HW125028   1.348   2.598   0.456  0.5125 -0.7067 -0.4526
 8043SOL    HW225029   1.376   2.464   0.546 -0.4578 -0.0932  0.8017
 8044SOL     OW25030   0.075   4.483   0.723  0.0224  0.4411 -0.1044
 8044SOL    HW125031   0.049   4.450   0.632  1.6233 -2.0286  0.2085
 8044SOL    HW225032   0.008   4.548   0.756 -0.6815  1.3148 -2.9829
 8045SOL     OW25033   1.257   0.958   4.824 -0.0277  0.1240  0.0652
 8045SOL    HW125034   1.287   0.898   4.898 -0.0436  0.2924  0.2096
 8045SOL    HW225035   1.260   1.053   4.855  2.3012  0.4363 -0.8958
 8046SOL     OW25036   0.535   5.269   2.092  0.5100  0.4587 -0.0712
 8046SOL    HW125037   0.505   5.305   2.180  2.2320  0.5896  0.4883
 8046SOL    HW225038   0.620   5.315   2.064  2.0732 -2.2029  0.0287
 8047SOL     OW25039   4.711   3.176   6.752  0.1358  0.4762 -0.2210
 8047SOL    HW125040   4.665   3.238   6.687 -1.7448 -0.2567  0.3377
 8047SOL    HW225041   4.721   3.222   6.840 -1.9496 -0.1779  0.4209
 8048SOL     OW25042   3.950   1.530   0.919 -0.6176  0.6967  0.0019
 8048SOL    HW125043   3.934   1.556   1.014 -0.5095  0.9899 -0.0597
 8048SOL    HW225044   4.034   1.475   0.912 -0.0503  1.5562 -0.0654
 8049SOL     OW25045   4.692   3.182   0.154 -0.3793  0.0154  0.0207
 8049SOL    HW125046   4.594   3.200   0.153 -0.6041 -1.1536 -1.3744
 8049SOL    HW225047   4.728   3.202   0.245 -2.2865 -1.4694  1.1820
 8050SOL     OW25048   1.352   6.948   1.998 -0.0193  0.3954 -0.0317
 8050SOL    HW125049   1.298   7.023   2.035 -0.5753  1.0716 -2.0792
 8050SOL    HW225050   1.442   6.981   1.970 -0.1035  0.2218 -0.5290
 8051SOL     OW25051   1.735   6.862   0.874 -1.1370 -0.2107  0.4575
 8051SOL    HW125052   1.756   6.941   0.818  1.9387 -0.5498  0.9347
 8051SOL    HW225053   1.706   6.892   0.965  0.8230  0.4935  0.9180
 8052SOL     OW25054   1.166   6.746   3.391  0.0158 -0.4738 -0.1254
 8052SOL    HW125055   1.168   6.799   3.475  1.1779  0.5580 -0.7631
 8052SOL    HW225056   1.257   6.708   3.373 -0.2335 -0.7469 -0.8663
 8053SOL     OW25057   0.767   5.251   2.830 -0.0512  0.0113  0.2182
 8053SOL    HW125058   0.681   5.225   2.785  0.2554 -2.3078  0.8217
 8053SOL    HW225059   0.755   5.245   2.929  0.6744  0.0897  0.3154
 8054SOL     OW25060   2.574   5.150   1.421 -0.4700 -0.6503 -0.6569
 8054SOL    HW125061   2.665   5.180   1.449 -0.3186 -0.4170 -1.3646
 8054SOL    HW225062   2.578   5.116   1.326 -1.1408 -0.5118 -0.7392
 8055SOL     OW25063   6.438   6.279   4.148 -0.0888 -0.6184 -0.3899
 8055SOL    HW125064   6.538   6.287   4.151 -0.2369  1.6637  0.5264
 8055SOL    HW225065   6.411   6.194   4.194  1.4001 -0.9387 -0.0340
 8056SOL     OW25066   1.206   1.258   5.648  0.3494  0.1130  0.3088
 8056SOL    HW125067   1.257   1.343   5.635  0.9744 -0.4181 -0.8914
 8056SOL    HW225068   1.114   1.268   5.612 -0.2902  0.9082  2.0157
 8057SOL     OW25069   1.548   6.874   4.778  0.4203 -0.2594  0.1243
 8057SOL    HW125070   1.526   6.864   4.680 -0.9289 -0.8748  0.4554
 8057SOL    HW225071   1.540   6.785   4.822 -2.7812  0.5521  1.4817
 8058SOL     OW25072   6.617   5.997   2.708  0.8272  0.2159  0.2138
 8058SOL    HW125073   6.694   5.950   2.666 -0.2667  0.3731 -2.1474
 8058SOL    HW225074   6.618   6.093   2.681 -1.0864 -0.1389 -1.3268
 8059SOL     OW25075   0.586   5.361   0.469  0.1607  0.3715  0.1354
 8059SOL    HW125076   0.500   5.331   0.427  0.4337 -0.3385  0.0573
 8059SOL    HW225077   0.662   5.339   0.408  0.5559 -0.6008  0.9441
 8060SOL     OW25078   2.493   1.035   3.970 -0.2752  0.2329 -0.0944
 8060SOL    HW125079   2.515   1.067   3.877 -1.8747  3.4647  0.4668
 8060SOL    HW225080   2.416   0.972   3.966 -0.2006  0.1872 -0.9934
 8061SOL     OW25081   6.356   4.869   5.821  0.4328  0.1846 -0.1929
 8061SOL    HW125082   6.375   4.959   5.860  0.6133 -0.2483  0.7560
 8061SOL    HW225083   6.268   4.871   5.773  0.8412  1.0840 -0.9418
 8062SOL     OW25084   1.846   5.596   6.017 -0.3137  0.3144 -0.1775
 8062SOL    HW125085   1.800   5.513   5.985 -0.8701 -0.0630  1.4813
 8062SOL    HW225086   1.893   5.577   6.103 -1.7130  2.0350  1.0525
 8063SOL     OW25087   1.682   0.096   4.826 -0.3644 -0.3181 -0.0192
 8063SOL    HW125088   1.627   0.021   4.789 -0.2502  0.9723 -3.1141
 8063SOL    HW225089   1.778   0.069   4.829 -0.3242 -0.3361 -1.1053
 8064SOL     OW25090   1.555   4.231   4.122 -0.0523  0.1943 -0.1085
 8064SOL    HW125091   1.645   4.208   4.159  0.5642 -1.3828 -2.3984
 8064SOL    HW225092   1.486   4.169   4.159 -0.0730  0.7938  0.9064
 8065SOL     OW25093   1.301   4.127   5.643  0.4832 -0.1139 -0.6060
 8065SOL    HW125094   1.314   4.164   5.550 -1.3323  0.2556 -0.7450
 8065SOL    HW225095   1.253   4.040   5.638  0.9336 -0.4049 -0.0197
 8066SOL     OW25096   0.280   3.244   6.424 -0.4961 -0.7432 -0.3027
 8066SOL    HW125097   0.241   3.159   6.388  0.4180 -0.2833 -2.5178
 8066SOL    HW225098   0.221   3.278   6.497 -1.5243 -2.6347 -0.1682
 8067SOL     OW25099   1.342   1.908   0.749  0.5147  0.2400 -0.3723
 8067SOL    HW125100   1.363   1.822   0.795  1.0096  1.5486  2.0518
 8067SOL    HW225101   1.427   1.949   0.714  0.5096  0.4566 -0.1380
 8068SOL     OW25102   0.772   0.156   0.814  0.0929 -0.1120  0.2220
 8068SOL    HW125103   0.735   0.140   0.905  0.3860 -1.9029  0.0566
 8068SOL    HW225104   0.853   0.214   0.821  0.2415 -0.4097  1.1337
 8069SOL     OW25105   0.537   0.611   4.705 -0.1987 -0.3902  0.3907
 8069SOL    HW125106   0.486   0.649   4.627  0.0432 -1.1474 -0.1470
 8069SOL    HW225107   0.482   0.540   4.749 -1.1116  1.2664  2.0725
 8070SOL     OW25108   0.410   5.759   0.648 -0.6542 -0.2067 -0.0438
 8070SOL    HW125109   0.360   5.828   0.597 -1.0685 -0.9399 -0.6620
 8070SOL    HW225110   0.502   5.793   0.668 -0.2527 -0.1098 -1.8480
 8071SOL     OW25111   5.666   3.062   4.028  0.4600  0.2812 -0.1700
 8071SOL    HW125112   5.759   3.095   4.043  0.5661 -0.6449  1.5195
 8071SOL    HW225113   5.668   2.981   3.969  0.6780  0.5617 -0.5475
 8072SOL     OW25114   3.814   6.201   5.249 -0.1031 -0.0289  0.0263
 8072SOL    HW125115   3.793   6.175   5.155 -0.3822 -2.8838  0.7936
 8072SOL    HW225116   3.761   6.283   5.273 -0.5664  0.3449 -2.0419
 8073SOL     OW25117   3.604   1.818   3.849  0.0432 -0.1340 -0.0969
 8073SOL    HW125118   3.626   1.897   3.792 -0.2550 -0.2292 -0.3496
 8073SOL    HW225119   3.559   1.749   3.793 -1.6611  0.3905  0.5703
 8074SOL     OW25120   3.411   3.985   0.027 -0.6323  0.5759  0.2737
 8074SOL    HW125121   3.498   4.006   0.071  0.6727 -0.2810 -1.8022
 8074SOL    HW225122   3.390   4.056  -0.040  0.6228 -1.2514 -2.2041
 8075SOL     OW25123   3.229   3.869   0.213 -0.2369  0.1327 -0.6496
 8075SOL    HW125124   3.305   3.896   0.153 -1.4393  0.2421 -2.1829
 8075SOL    HW225125   3.245   3.904   0.305  0.2348  2.5566 -1.5825
 8076SOL     OW25126   0.877   3.495   1.649 -0.2767 -0.1329 -0.2113
 8076SOL    HW125127   0.849   3.490   1.553 -1.0308 -0.1302 -0.0023
 8076SOL    HW225128   0.813   3.441   1.704 -0.1817  0.3281  0.3566
 8077SOL     OW25129   1.028   0.588   4.639 -0.0527 -0.4094  0.5746
 8077SOL    HW125130   1.060   0.555   4.727 -0.2442 -0.6357  0.5606
 8077SOL    HW225131   0.932   0.615   4.646 -0.4000 -1.4930  0.1658
 8078SOL     OW25132   1.451   4.280   1.155 -0.3737 -0.1342  0.7727
 8078SOL    HW125133   1.549   4.298   1.157 -0.6464  1.5646  0.3252
 8078SOL    HW225134   1.413   4.290   1.247 -0.3302  0.4889  0.7248
 8079SOL     OW25135   2.409   6.812   4.842  0.1230 -0.3024  0.4758
 8079SOL    HW125136   2.451   6.742   4.784 -0.2510 -1.4976  1.5995
 8079SOL    HW225137   2.467   6.894   4.842  1.3435 -1.1371  0.2935
 8080SOL     OW25138   6.560   6.488   1.130  0.2996  0.0154 -0.5829
 8080SOL    HW125139   6.574   6.470   1.033 -2.6211  0.3932 -1.1520
 8080SOL    HW225140   6.625   6.558   1.161  2.1570 -1.0436 -1.8566
 8081SOL     OW25141   0.005   4.419   0.481 -0.2703 -0.0424 -0.1648
 8081SOL    HW125142   0.057   4.475   0.416 -1.2442 -0.4079 -1.2748
 8081SOL    HW225143   0.002   4.325   0.449  0.0809 -0.4391  0.9355
 8082SOL     OW25144   1.040   6.992   3.244  0.0995 -0.0593 -0.0250
 8082SOL    HW125145   0.978   6.925   3.284 -1.9816  1.0557 -1.2232
 8082SOL    HW225146   1.133   6.955   3.245 -0.4283 -1.5438  2.3703
 8083SOL     OW25147   2.006   5.048   6.430  0.0389  0.2973  0.4758
 8083SOL    HW125148   2.035   4.953   6.440  1.7728  0.2637 -3.1910
 8083SOL    HW225149   2.085   5.106   6.411 -1.2694  1.9970 -0.1418
 8084SOL     OW25150   4.536   4.989   6.316  0.2177  0.2746  0.1823
 8084SOL    HW125151   4.631   5.016   6.333  0.1535  0.3451  0.4370
 8084SOL    HW225152   4.477   5.069   6.328  0.2159  0.4479 -0.8509
 8085SOL     OW25153   2.232   2.357   0.509  0.0916  0.1125  0.3722
 8085SOL    HW125154   2.254   2.441   0.559 -0.1049  0.0272  0.6047
 8085SOL    HW225155   2.233   2.375   0.411  0.6944  0.2316  0.3959
 8086SOL     OW25156   1.007   6.118   3.389 -0.1951  0.1257 -0.0242
 8086SOL    HW125157   0.996   6.213   3.361 -1.3562  0.5699  1.7424
 8086SOL    HW225158   0.951   6.059   3.331  0.6160  0.4876 -1.2028
 8087SOL     OW25159   6.248   3.357   5.692 -0.2071 -0.4342  0.1719
 8087SOL    HW125160   6.224   3.453   5.702 -0.2328 -0.3226 -0.8954
 8087SOL    HW225161   6.227   3.326   5.599  1.3494 -1.0288 -0.0111
 8088SOL     OW25162   0.653   1.449   6.028 -0.1752 -0.3031  0.2492
 8088SOL    HW125163   0.604   1.491   6.105  0.0521  0.3030  0.0660
 8088SOL    HW225164   0.745   1.422   6.059  1.0543  2.6198 -0.5066
 8089SOL     OW25165   0.656   3.108   0.860  0.1582 -0.5811 -0.1572
 8089SOL    HW125166   0.571   3.150   0.828 -0.1861  1.1197  2.6611
 8089SOL    HW225167   0.732   3.170   0.844  0.4442 -0.9584 -0.2729
 8090SOL     OW25168   6.485   3.912   1.815 -0.1534  0.3428  0.1639
 8090SOL    HW125169   6.443   3.881   1.730  2.2992  1.1030 -1.4370
 8090SOL    HW225170   6.488   4.012   1.816 -1.1430  0.3815  1.7025
 8091SOL     OW25171   1.467   1.425   3.571 -0.2183 -0.0060 -0.4869
 8091SOL    HW125172   1.497   1.520   3.581 -2.2330  0.6709 -0.5354
 8091SOL    HW225173   1.442   1.408   3.476 -2.8427  0.3859  0.0786
 8092SOL     OW25174   4.641   1.329   4.710 -0.5666 -0.2367  0.1772
 8092SOL    HW125175   4.585   1.274   4.648 -2.3586  0.9671  0.6318
 8092SOL    HW225176   4.600   1.420   4.719 -0.0276 -0.1672  2.6469
 8093SOL     OW25177   2.317   0.671   4.545  0.1688  0.3888 -0.4778
 8093SOL    HW125178   2.395   0.723   4.510  0.6958  0.7180  1.1048
 8093SOL    HW225179   2.317   0.579   4.505  1.0582  0.5584 -0.8836
 8094SOL     OW25180   4.273   5.002   2.029 -0.1161  0.1866 -0.2894
 8094SOL    HW125181   4.353   4.959   1.989 -0.8643 -0.9881 -0.5819
 8094SOL    HW225182   4.300   5.054   2.110  0.6236 -2.5036  1.3352
 8095SOL     OW25183   2.785   4.245   6.573 -0.0579  0.5342  0.2612
 8095SOL    HW125184   2.729   4.318   6.535 -1.3020 -0.2980  0.4423
 8095SOL    HW225185   2.841   4.281   6.648 -0.6251  1.3044  0.3211
 8096SOL     OW25186   6.311   0.737   1.522  0.3781  0.7783  0.3809
 8096SOL    HW125187   6.250   0.683   1.581  0.9717 -0.5160 -0.1501
 8096SOL    HW225188   6.297   0.711   1.426  3.4254 -1.4662  0.3669
 8097SOL     OW25189   1.338   4.847   3.496 -0.3686  0.1147  0.1621
 8097SOL    HW125190   1.428   4.849   3.540 -1.7067 -0.2857  3.1696
 8097SOL    HW225191   1.322   4.756   3.456  1.9332  1.2555 -3.8696
 8098SOL     OW25192   5.209   1.992   0.272 -0.5198  0.1500  0.0047
 8098SOL    HW125193   5.275   2.041   0.329 -1.0568 -0.6442  1.3731
 8098SOL    HW225194   5.116   2.022   0.296 -0.7922 -0.7341  0.1079
 8099SOL     OW25195   6.227   2.579   1.179 -0.1062  0.2127  0.3981
 8099SOL    HW125196   6.320   2.541   1.183 -0.7325 -1.3952  0.6554
 8099SOL    HW225197   6.183   2.548   1.094 -0.5537  0.5849  0.4943
 8100SOL     OW25198   4.199   0.367   6.449 -0.5004  0.2177  0.2884
 8100SOL    HW125199   4.162   0.413   6.369 -1.6455  1.3481  1.4079
 8100SOL    HW225200   4.299   0.365   6.444 -0.4653  1.8608 -0.3276
 8101SOL     OW25201   2.021   5.054   6.862 -0.0591  0.0487  0.2668
 8101SOL    HW125202   2.012   5.094   6.954  0.7499  0.8688  0.0010
 8101SOL    HW225203   2.080   5.112   6.806  0.5960 -1.1814 -0.3462
 8102SOL     OW25204   5.909   5.449   6.511  0.8030 -0.6810 -0.0290
 8102SOL    HW125205   5.990   5.391   6.513  0.4154 -1.2374  1.5084
 8102SOL    HW225206   5.829   5.394   6.488  0.6470 -0.4640 -0.0087
 8103SOL     OW25207   3.025   0.219   0.082 -0.5021  0.2666 -0.4139
 8103SOL    HW125208   3.103   0.269   0.043  0.5654 -1.6995 -0.8970
 8103SOL    HW225209   2.992   0.268   0.163 -0.1562  2.2506 -1.4146
 8104SOL     OW25210   4.481   1.175   4.559  0.0006 -0.6869 -0.6521
 8104SOL    HW125211   4.409   1.234   4.523 -0.2322 -1.2433 -1.1183
 8104SOL    HW225212   4.440   1.098   4.608  0.2845  1.0980  2.6735
 8105SOL     OW25213   6.173   5.921   6.393 -0.6712  0.3102 -0.0294
 8105SOL    HW125214   6.202   6.009   6.356  0.5593  0.4062  1.0900
 8105SOL    HW225215   6.163   5.855   6.318 -0.3265  1.0582 -0.7402
 8106SOL     OW25216   0.664   5.296   1.002 -0.6322 -0.1109 -0.3237
 8106SOL    HW125217   0.757   5.277   1.033 -1.4765 -3.1254  0.6910
 8106SOL    HW225218   0.599   5.259   1.068 -2.5625  0.8066 -1.6269
 8107SOL     OW25219   6.172   4.653   1.561  0.0004 -0.3980 -0.1380
 8107SOL    HW125220   6.234   4.731   1.548  0.8731 -0.8464  1.1768
 8107SOL    HW225221   6.113   4.644   1.481  0.5778  0.9906 -0.7511
 8108SOL     OW25222   5.054   6.325   1.648 -0.8407  0.3318  0.4825
 8108SOL    HW125223   5.059   6.262   1.726 -1.4960  1.2053  1.2535
 8108SOL    HW225224   4.977   6.300   1.589 -0.0247 -0.6545 -0.1978
 8109SOL     OW25225   1.627   5.585   1.009 -0.2678 -1.0199 -0.9825
 8109SOL    HW125226   1.672   5.524   1.074  1.5976  2.0697  0.8814
 8109SOL    HW225227   1.682   5.594   0.927  0.8264  0.0721 -0.1628
 8110SOL     OW25228   5.599   3.517   5.749 -0.2393 -0.2050  0.0686
 8110SOL    HW125229   5.615   3.522   5.847  0.5533  2.6494 -0.1151
 8110SOL    HW225230   5.681   3.482   5.703 -0.9834 -2.5661  0.4566
 8111SOL     OW25231   5.803   3.131   2.838  0.1733  0.3745  0.3967
 8111SOL    HW125232   5.827   3.144   2.934  1.2830  0.6719  0.0939
 8111SOL    HW225233   5.861   3.189   2.781 -0.5320  0.2688 -0.4557
 8112SOL     OW25234   4.676   2.124   4.360  0.4274 -0.2352  0.1775
 8112SOL    HW125235   4.674   2.222   4.383 -0.1764 -0.3676  0.7021
 8112SOL    HW225236   4.584   2.086   4.365  0.5383 -0.6741 -0.7747
 8113SOL     OW25237   1.262   3.324   3.674  0.1694 -0.1498 -0.3894
 8113SOL    HW125238   1.204   3.243   3.661  0.7968 -0.6664 -0.0571
 8113SOL    HW225239   1.340   3.319   3.612  1.0514 -0.6157  0.7100
 8114SOL     OW25240   4.182   3.186   5.986  0.2433  0.1195 -0.2609
 8114SOL    HW125241   4.193   3.155   6.080 -2.6607 -1.9916 -0.4910
 8114SOL    HW225242   4.218   3.117   5.923 -0.0465  0.3954 -0.7370
 8115SOL     OW25243   4.419   7.014   0.183  0.7641  0.3193  0.3910
 8115SOL    HW125244   4.466   6.967   0.107  0.7996  0.8298  0.0902
 8115SOL    HW225245   4.326   7.037   0.155  0.6387  0.1367  0.6567
 8116SOL     OW25246   1.998   1.625   1.872 -0.7143  0.2614 -0.2371
 8116SOL    HW125247   1.988   1.643   1.774 -0.8425  0.6078 -0.1613
 8116SOL    HW225248   1.937   1.686   1.923 -1.8662 -0.9973 -0.0233
 8117SOL     OW25249   2.695   1.300   2.968  0.2349  0.4254 -0.5534
 8117SOL    HW125250   2.622   1.286   3.036 -0.3039  1.7228 -0.8383
 8117SOL    HW225251   2.768   1.355   3.008  0.7674 -0.3147 -0.4815
 8118SOL     OW25252   1.847   0.540   3.450  0.3554 -0.1559  0.5216
 8118SOL    HW125253   1.837   0.440   3.447 -1.1687 -0.0236 -2.2756
 8118SOL    HW225254   1.894   0.571   3.368  0.0901  1.5029  0.9645
 8119SOL     OW25255   3.948   5.379   3.649 -0.6634  0.4677  0.2485
 8119SOL    HW125256   3.850   5.368   3.665 -0.6224 -0.4546 -0.0978
 8119SOL    HW225257   3.991   5.289   3.642  0.0488  0.8591 -0.5772
 8120SOL     OW25258   2.916   3.469   6.907 -0.1248  0.4596 -0.1265
 8120SOL    HW125259   2.827   3.464   6.861  0.2332  1.7437 -1.0194
 8120SOL    HW225260   2.978   3.525   6.853  1.0600  0.0701  0.7853
 8121SOL     OW25261   5.248   6.734   4.742  0.6468 -0.1955 -0.7358
 8121SOL    HW125262   5.331   6.758   4.793 -0.2676  1.1653  0.1926
 8121SOL    HW225263   5.228   6.806   4.676 -0.2443 -0.0996 -0.3722
 8122SOL     OW25264   1.179   0.266   2.581 -0.5176 -0.7491 -0.4855
 8122SOL    HW125265   1.153   0.190   2.522 -1.5057 -0.4276 -0.4865
 8122SOL    HW225266   1.161   0.243   2.676 -0.4356 -0.6710 -0.4504
 8123SOL     OW25267   6.031   0.593   1.026 -0.6301 -0.2274  0.4437
 8123SOL    HW125268   6.111   0.534   1.028 -0.9903 -0.7192  1.4678
 8123SOL    HW225269   6.051   0.676   0.974  0.7136 -0.0952  1.1249
 8124SOL     OW25270   0.356   1.897   0.667  0.1800  0.2900 -0.0314
 8124SOL    HW125271   0.342   1.904   0.766 -0.2914 -2.3524  0.1672
 8124SOL    HW225272   0.268   1.906   0.620  0.5950  3.2123 -0.4279
 8125SOL     OW25273   4.796   4.472   1.892  0.1639  0.4076 -0.3605
 8125SOL    HW125274   4.701   4.445   1.876  0.2210 -0.8413  1.1692
 8125SOL    HW225275   4.825   4.442   1.983  1.6817  1.7753 -0.3352
 8126SOL     OW25276   0.219   2.316   4.237 -0.2690 -0.5409 -0.1456
 8126SOL    HW125277   0.124   2.336   4.211 -0.1416 -2.1346 -2.0805
 8126SOL    HW225278   0.243   2.224   4.207  2.4773  0.4965 -1.4765
 8127SOL     OW25279   6.625   4.578   3.601 -0.1624  0.1382  0.0277
 8127SOL    HW125280   6.607   4.677   3.603 -0.9666  0.0091  2.0168
 8127SOL    HW225281   6.701   4.557   3.662 -0.7115 -0.5648  0.4901
 8128SOL     OW25282   0.818   5.360   0.333 -0.1734  0.1083 -0.0437
 8128SOL    HW125283   0.878   5.334   0.409  0.5197  0.0275 -0.6084
 8128SOL    HW225284   0.844   5.450   0.300  0.5299 -0.4891 -1.1681
 8129SOL     OW25285   2.293   1.267   6.626 -0.1537 -0.1312 -0.7815
 8129SOL    HW125286   2.329   1.275   6.719  1.7731  1.2480 -1.5722
 8129SOL    HW225287   2.355   1.211   6.571 -1.0518 -0.5819 -1.3489
 8130SOL     OW25288   4.390   6.249   0.946 -0.0934  0.3227 -0.4605
 8130SOL    HW125289   4.311   6.294   0.986  0.4633 -0.7697  2.0283
 8130SOL    HW225290   4.359   6.181   0.879 -1.3552 -0.7544  1.1586
 8131SOL     OW25291   3.424   1.967   6.039  0.3741  0.2938  0.1061
 8131SOL    HW125292   3.497   2.027   6.073 -0.1013  1.3438 -0.6555
 8131SOL    HW225293   3.387   2.005   5.954  1.0005 -1.8520 -1.1885
 8132SOL     OW25294   2.037   1.116   0.833 -0.3830 -0.3070 -0.1003
 8132SOL    HW125295   1.944   1.079   0.834 -0.2355 -0.7517  2.0512
 8132SOL    HW225296   2.033   1.216   0.834 -0.9193 -0.3035  2.0326
 8133SOL     OW25297   4.876   4.743   6.565 -0.1937  0.2529 -0.4684
 8133SOL    HW125298   4.849   4.823   6.512 -0.9043  1.8006  2.0268
 8133SOL    HW225299   4.795   4.701   6.606  0.4127  0.0657  0.6006
 8134SOL     OW25300   3.639   3.505   3.981 -0.0195  0.2859 -0.2463
 8134SOL    HW125301   3.637   3.483   4.078 -0.2098  0.8628 -0.1174
 8134SOL    HW225302   3.576   3.444   3.932  1.1307 -0.9651 -0.2205
 8135SOL     OW25303   2.215   6.210   6.218 -0.3931 -0.6992 -0.1357
 8135SOL    HW125304   2.131   6.243   6.260  0.9499  1.8581  0.7626
 8135SOL    HW225305   2.212   6.225   6.120 -0.4711  0.7134  0.0612
 8136SOL     OW25306   0.711   4.763   2.435  0.1592 -0.3877 -0.0177
 8136SOL    HW125307   0.647   4.720   2.371 -0.5025  0.7839 -0.1689
 8136SOL    HW225308   0.794   4.708   2.439 -0.5837 -1.5953 -0.3101
 8137SOL     OW25309   5.524   0.869   3.482 -0.5933 -0.2131 -0.4828
 8137SOL    HW125310   5.514   0.968   3.495  0.0687 -0.3753  1.5602
 8137SOL    HW225311   5.458   0.821   3.540  0.0738 -0.9992 -0.3608
 8138SOL     OW25312   1.330   2.387   2.325  0.1100  0.3324  0.2805
 8138SOL    HW125313   1.325   2.294   2.360  1.8104  0.6281  1.4443
 8138SOL    HW225314   1.380   2.389   2.238 -0.7688  0.0572 -0.2372
 8139SOL     OW25315   3.992   4.776   1.402  0.1050 -0.6980 -0.1627
 8139SOL    HW125316   4.064   4.843   1.421 -0.4618 -0.2265  0.3543
 8139SOL    HW225317   3.928   4.814   1.335  1.1398 -1.6911 -1.7910
 8140SOL     OW25318   3.933   6.178   0.095 -0.1512  0.3709  0.0012
 8140SOL    HW125319   3.871   6.195   0.172  0.7259  0.8953  0.6096
 8140SOL    HW225320   3.917   6.087   0.058  0.2440 -0.3802  1.6042
 8141SOL     OW25321   2.608   0.007   4.814 -0.0447 -0.7778 -1.0322
 8141SOL    HW125322   2.622  -0.066   4.747  0.0641 -0.9448 -0.8286
 8141SOL    HW225323   2.689   0.065   4.818  0.5653 -1.6707  0.0568
 8142SOL     OW25324   1.965   4.921   4.717 -0.3736  0.0019 -0.3902
 8142SOL    HW125325   1.918   4.899   4.632  0.1290  1.5566 -1.1160
 8142SOL    HW225326   2.062   4.936   4.698  0.0260 -1.0989  0.7239
 8143SOL     OW25327   3.750   2.638   0.868  0.2612  0.2363 -0.1709
 8143SOL    HW125328   3.735   2.736   0.864 -0.8898  0.0699 -0.1111
 8143SOL    HW225329   3.668   2.589   0.839  0.3781 -0.7180  1.0087
 8144SOL     OW25330   2.192   2.801   5.339  0.1343  0.2786 -0.0113
 8144SOL    HW125331   2.163   2.785   5.434 -1.6566  3.5834  0.1173
 8144SOL    HW225332   2.285   2.839   5.339  0.3608 -0.2596  0.3578
 8145SOL     OW25333   1.439   3.613   2.172 -0.0255 -0.0358 -0.6868
 8145SOL    HW125334   1.376   3.560   2.228  1.5380 -0.5472  0.6370
 8145SOL    HW225335   1.513   3.649   2.228  0.6241  0.9792 -2.1145
 8146SOL     OW25336   6.260   3.177   0.864 -0.1443  0.1094 -1.0507
 8146SOL    HW125337   6.174   3.229   0.866 -1.0970 -1.3364 -2.4252
 8146SOL    HW225338   6.247   3.090   0.911  0.2336 -0.5641 -2.1570
 8147SOL     OW25339   0.326   4.589   0.818 -0.1792  0.4653  0.2073
 8147SOL    HW125340   0.267   4.544   0.751 -0.0994  0.4889  0.1216
 8147SOL    HW225341   0.326   4.536   0.903 -0.2962  0.4456  0.1966
 8148SOL     OW25342   3.736   2.145   0.053 -0.9601  0.2708  0.5520
 8148SOL    HW125343   3.735   2.048   0.077 -0.1073  0.7942  2.9559
 8148SOL    HW225344   3.817   2.165  -0.002 -1.2517 -0.3947 -0.1414
 8149SOL     OW25345   6.652   2.428   5.103  0.2714 -0.3654 -0.0824
 8149SOL    HW125346   6.582   2.494   5.132 -0.6311  0.0808 -2.9215
 8149SOL    HW225347   6.640   2.343   5.153 -1.6796  0.0505  0.2541
 8150SOL     OW25348   0.096   0.740   0.374 -0.6879 -0.4659  0.4021
 8150SOL    HW125349   0.151   0.681   0.316 -0.1875  0.5754 -0.1968
 8150SOL    HW225350   0.104   0.835   0.344 -0.6888  0.0613  1.9484
 8151SOL     OW25351   5.567   0.759   0.926 -0.2450  0.0139  0.0294
 8151SOL    HW125352   5.492   0.825   0.940  1.7262  2.4131  0.0170
 8151SOL    HW225353   5.542   0.694   0.855 -1.2630  2.5334 -2.0551
 8152SOL     OW25354   5.855   1.259   1.735 -0.1774 -0.5804  0.2916
 8152SOL    HW125355   5.900   1.336   1.689 -1.1524  0.6708  1.3763
 8152SOL    HW225356   5.916   1.222   1.805  0.0694 -0.4060  0.1704
 8153SOL     OW25357   2.892   3.705   5.180  0.6954  0.0018  1.2377
 8153SOL    HW125358   2.944   3.651   5.246 -0.0891 -1.5652  0.6411
 8153SOL    HW225359   2.847   3.781   5.227 -1.6995 -2.3547  3.0642
 8154SOL     OW25360   2.771   6.453   4.117  0.6099  0.3922 -0.7096
 8154SOL    HW125361   2.868   6.442   4.096  0.4336  0.7628 -1.7318
 8154SOL    HW225362   2.725   6.498   4.041 -0.2446  0.7998  0.0363
 8155SOL     OW25363   0.832   5.645   2.307  0.2567 -0.1582 -0.3842
 8155SOL    HW125364   0.905   5.601   2.254  0.5955 -1.5926  1.1977
 8155SOL    HW225365   0.848   5.630   2.404  0.0337  2.9762  0.2499
 8156SOL     OW25366   2.155   6.695   0.274 -0.2682  0.0175 -0.5243
 8156SOL    HW125367   2.233   6.642   0.241  0.0937  1.2955 -1.8057
 8156SOL    HW225368   2.086   6.700   0.201 -1.1800 -0.3772  0.2974
 8157SOL     OW25369   4.399   4.520   3.252 -0.2535  0.0904 -0.0556
 8157SOL    HW125370   4.458   4.593   3.287  0.7911 -0.5293 -0.4546
 8157SOL    HW225371   4.453   4.437   3.240 -1.5434 -0.9233  0.9126
 8158SOL     OW25372   6.196   2.198   0.251  0.1467  0.2172  0.0795
 8158SOL    HW125373   6.256   2.278   0.251  1.2975 -0.5805  1.9454
 8158SOL    HW225374   6.112   2.220   0.202  2.0967  1.2100 -3.1056
 8159SOL     OW25375   2.081   4.054   1.926  0.2094  0.3100 -0.0160
 8159SOL    HW125376   2.086   3.990   2.004  0.5905 -0.3082 -0.5405
 8159SOL    HW225377   2.127   4.139   1.950 -1.0051  0.7263  0.9956
 8160SOL     OW25378   3.844   1.283   5.206 -0.6070 -0.7953 -0.0146
 8160SOL    HW125379   3.767   1.240   5.158 -2.3997  0.4387  1.6132
 8160SOL    HW225380   3.892   1.344   5.143 -2.1585 -0.1231 -0.6044
 8161SOL     OW25381   4.065   2.176   2.327  0.1890 -0.7777 -0.5344
 8161SOL    HW125382   4.071   2.181   2.427  1.1509  0.9875 -0.6387
 8161SOL    HW225383   3.969   2.165   2.301 -0.1616 -0.5411  0.5761
 8162SOL     OW25384   1.452   5.116   3.172 -0.0027 -0.5154 -0.1729
 8162SOL    HW125385   1.417   5.026   3.144  0.3071 -0.4484 -0.7809
 8162SOL    HW225386   1.387   5.158   3.236  1.0042 -2.2381  2.1559
 8163SOL     OW25387   6.039   1.190   6.273  0.4277  0.0597 -0.2581
 8163SOL    HW125388   6.101   1.172   6.196  1.5477 -0.1748  0.6699
 8163SOL    HW225389   5.945   1.194   6.239  0.8328 -0.5974 -1.5529
 8164SOL     OW25390   3.037   3.124   4.456  0.2542  0.1180  0.1244
 8164SOL    HW125391   3.053   3.133   4.554  0.6748 -0.7675  0.1457
 8164SOL    HW225392   3.089   3.046   4.421 -2.2436 -1.5139 -0.2286
 8165SOL     OW25393   1.072   4.726   6.710 -0.4595  0.1532  0.0624
 8165SOL    HW125394   1.015   4.653   6.746 -0.8158  0.4068  0.0169
 8165SOL    HW225395   1.164   4.717   6.747 -0.8494  0.4888  1.1599
 8166SOL     OW25396   0.164   3.473   2.099 -0.4551 -0.1687 -0.7810
 8166SOL    HW125397   0.214   3.545   2.051 -0.1584 -0.6900 -1.2794
 8166SOL    HW225398   0.173   3.486   2.198 -1.1568  0.9750 -0.8489
 8167SOL     OW25399   0.833   6.656   5.091  0.1584 -0.2018 -0.0010
 8167SOL    HW125400   0.862   6.706   5.009 -0.4816  1.3700  0.6790
 8167SOL    HW225401   0.735   6.634   5.083  0.0892 -0.0202  0.3466
 8168SOL     OW25402   6.474   5.388   6.769 -0.1288 -0.5313 -0.4951
 8168SOL    HW125403   6.549   5.423   6.825 -1.2605  0.7104  0.3124
 8168SOL    HW225404   6.388   5.398   6.819 -1.0883 -0.1001 -2.1486
 8169SOL     OW25405   4.909   2.449   1.646  0.9172 -0.2279 -0.1196
 8169SOL    HW125406   4.997   2.481   1.682  1.5236  0.0098 -1.7412
 8169SOL    HW225407   4.851   2.528   1.626 -0.0236 -0.4078  1.7293
 8170SOL     OW25408   3.779   4.645   0.973  0.1423  0.0490  0.3578
 8170SOL    HW125409   3.870   4.685   0.961  0.2837 -0.1238  0.8361
 8170SOL    HW225410   3.752   4.599   0.888 -0.0168  1.1259 -0.1959
 8171SOL     OW25411   0.667   6.165   6.354  0.1418  0.0984 -0.1747
 8171SOL    HW125412   0.707   6.160   6.446  0.2702 -0.4215 -0.2564
 8171SOL    HW225413   0.592   6.230   6.355  0.5112  0.5321  0.1606
 8172SOL     OW25414   3.471   6.502   1.825 -0.2391  0.5814 -0.7903
 8172SOL    HW125415   3.422   6.467   1.905 -1.1977 -0.2079 -1.6849
 8172SOL    HW225416   3.438   6.594   1.803 -0.7528  0.3773 -0.8957
 8173SOL     OW25417   6.217   2.317   1.478 -0.4331  0.0836  0.4217
 8173SOL    HW125418   6.142   2.331   1.543 -2.0318 -0.2942 -1.2490
 8173SOL    HW225419   6.186   2.256   1.405  1.6328 -0.3151 -0.1706
 8174SOL     OW25420   5.490   5.994   5.214  0.3545  0.1750 -0.1364
 8174SOL    HW125421   5.545   6.062   5.264 -0.3318  0.0952  0.7572
 8174SOL    HW225422   5.430   6.041   5.150 -0.9691  0.5357  1.3158
 8175SOL     OW25423   3.504   2.045   0.410 -0.1236 -0.2169 -0.0656
 8175SOL    HW125424   3.407   2.057   0.430  0.0446  1.2351 -0.0060
 8175SOL    HW225425   3.518   1.958   0.363 -1.6645  0.2126 -1.3951
 8176SOL     OW25426   2.856   0.098   1.241  0.5386 -0.4750  0.2545
 8176SOL    HW125427   2.951   0.112   1.212  0.6911 -2.7753 -0.5261
 8176SOL    HW225428   2.852   0.025   1.309 -0.5970  0.2554  1.0062
 8177SOL     OW25429   4.465   4.516   5.305 -0.2762 -0.3941 -0.1006
 8177SOL    HW125430   4.389   4.466   5.265 -1.0839  0.8410 -0.1625
 8177SOL    HW225431   4.490   4.592   5.245 -0.1679  0.2627  0.7625
 8178SOL     OW25432   2.834   3.590   5.681  0.0361 -0.3854  0.5265
 8178SOL    HW125433   2.848   3.625   5.588 -0.6145  0.7783  0.8502
 8178SOL    HW225434   2.783   3.505   5.676  0.8035 -0.8244 -0.2261
 8179SOL     OW25435   6.733   1.662   3.840  0.2184  0.3866 -0.4694
 8179SOL    HW125436   6.677   1.715   3.776  1.1234  0.7973 -0.9332
 8179SOL    HW225437   6.674   1.625   3.912 -0.3350  2.7962  0.4222
 8180SOL     OW25438   1.243   5.030   4.867  0.2133  0.0073 -0.7160
 8180SOL    HW125439   1.153   4.998   4.838 -0.7045  0.1793  1.6952
 8180SOL    HW225440   1.270   5.110   4.812 -0.7743 -0.4493 -1.8996
 8181SOL     OW25441   4.013   4.194   5.628 -0.0512  0.3740  0.2087
 8181SOL    HW125442   4.044   4.289   5.631 -1.6985  0.9142  2.2076
 8181SOL    HW225443   3.946   4.183   5.554  2.0154  0.0530 -1.7477
 8182SOL     OW25444   5.208   2.624   6.210  0.2401  0.1038 -0.0735
 8182SOL    HW125445   5.206   2.723   6.200  0.9952  0.3416  1.7518
 8182SOL    HW225446   5.303   2.592   6.209  0.0304 -0.5292 -0.0507
 8183SOL     OW25447   2.106   6.779   6.512 -0.2462  0.0430 -0.1059
 8183SOL    HW125448   2.150   6.731   6.436  1.5858  0.1871  0.7973
 8183SOL    HW225449   2.172   6.791   6.586 -1.9389  0.0675  1.4544
 8184SOL     OW25450   2.722   2.313   2.205 -0.2639 -0.6796  0.0868
 8184SOL    HW125451   2.766   2.289   2.292  1.5934  1.2959 -0.2134
 8184SOL    HW225452   2.790   2.307   2.132 -1.6359 -1.6582 -1.1500
 8185SOL     OW25453   4.948   4.691   4.880  0.0044  0.1667 -0.1402
 8185SOL    HW125454   4.862   4.672   4.833 -0.8881  0.0159  1.4613
 8185SOL    HW225455   5.003   4.607   4.883 -1.0797 -0.5614  1.2646
 8186SOL     OW25456   0.735   1.510   1.910  0.1504 -0.4940  0.0620
 8186SOL    HW125457   0.678   1.481   1.833 -0.5815  1.2528 -0.1086
 8186SOL    HW225458   0.827   1.473   1.900  0.4851  0.8320 -2.4327
 8187SOL     OW25459   3.236   6.316   0.234 -0.4640 -0.4924  0.3599
 8187SOL    HW125460   3.186   6.237   0.270 -1.6138 -0.1968 -0.5353
 8187SOL    HW225461   3.282   6.290   0.149  0.0307 -0.4720  0.6176
 8188SOL     OW25462   0.946   0.302   1.516 -0.4148 -0.2025  0.2762
 8188SOL    HW125463   1.036   0.330   1.484 -0.2561  1.3667  1.9159
 8188SOL    HW225464   0.934   0.204   1.500  0.7308 -0.0418 -1.8423
 8189SOL     OW25465   2.304   5.139   1.036  0.2379  0.2124 -0.1146
 8189SOL    HW125466   2.213   5.112   1.068 -0.4689  0.0923 -2.1302
 8189SOL    HW225467   2.333   5.220   1.088 -1.4650  0.8746 -0.1034
 8190SOL     OW25468   2.967   5.599   2.602 -0.7042  0.1082 -0.5623
 8190SOL    HW125469   2.965   5.693   2.567 -1.0721 -0.0385 -0.9420
 8190SOL    HW225470   2.885   5.582   2.657 -1.2461 -0.3578 -1.4820
 8191SOL     OW25471   0.972   5.020   6.740 -0.5352 -0.1278 -0.3941
 8191SOL    HW125472   1.020   4.932   6.748  1.3588  0.8891  0.0087
 8191SOL    HW225473   0.891   5.008   6.683 -1.1168 -2.4313  0.7930
 8192SOL     OW25474   5.269   4.694   0.107  0.5278  0.5704 -0.2368
 8192SOL    HW125475   5.345   4.759   0.107  0.3291  0.8189  0.6992
 8192SOL    HW225476   5.216   4.704   0.191  0.2680 -0.5357 -0.2439
 8193SOL     OW25477   0.306   1.201   6.836  0.1068 -0.2286 -0.3449
 8193SOL    HW125478   0.331   1.217   6.741  0.3405 -0.7528 -0.3735
 8193SOL    HW225479   0.376   1.241   6.895  0.3071 -0.4844 -0.4057
 8194SOL     OW25480   3.536   3.409   6.154  0.0248  0.1322 -0.3715
 8194SOL    HW125481   3.543   3.342   6.228 -1.0108  0.9078  0.4599
 8194SOL    HW225482   3.444   3.449   6.154  0.3452  0.9098 -1.4193
 8195SOL     OW25483   1.901   2.645   5.527 -0.0204  0.6302 -0.3229
 8195SOL    HW125484   1.988   2.691   5.545 -0.5012  1.3038  0.3399
 8195SOL    HW225485   1.908   2.549   5.555  1.8142 -0.4812 -4.0426
 8196SOL     OW25486   1.984   5.486   6.807 -0.5732  0.2213 -0.1881
 8196SOL    HW125487   2.008   5.581   6.831 -0.5129  0.3026 -0.5636
 8196SOL    HW225488   1.931   5.446   6.881  0.1402  0.2621  0.3619
 8197SOL     OW25489   3.232   1.316   4.195 -0.2122 -0.1674  0.7671
 8197SOL    HW125490   3.250   1.411   4.170 -0.6644  0.5792  3.0497
 8197SOL    HW225491   3.305   1.283   4.254  0.4644 -1.6333 -0.7881
 8198SOL     OW25492   1.267   1.876   1.156 -0.2966  0.0913 -0.4191
 8198SOL    HW125493   1.178   1.851   1.118 -1.8528  1.5493  1.9936
 8198SOL    HW225494   1.294   1.966   1.122 -0.0098 -0.1185 -0.7428
 8199SOL     OW25495   6.175   3.021   4.025 -1.0423  0.0585  0.4481
 8199SOL    HW125496   6.271   2.996   4.028 -0.8658  0.7707  2.3043
 8199SOL    HW225497   6.167   3.121   4.029 -1.8431 -0.0332  2.0554
 8200SOL     OW25498   0.766   5.741   6.464  0.2001  0.2615 -0.3230
 8200SOL    HW125499   0.740   5.655   6.507 -0.5960  0.5543 -0.2180
 8200SOL    HW225500   0.842   5.782   6.516 -0.4011  0.3551  0.5021
 8201SOL     OW25501   5.365   0.725   6.545  0.6022  0.1864 -0.4438
 8201SOL    HW125502   5.369   0.764   6.453  0.2088  2.5436  0.4880
 8201SOL    HW225503   5.437   0.764   6.602 -1.7670  2.1667  1.4224
 8202SOL     OW25504   3.527   3.766   4.531  0.2719 -0.2901 -0.2807
 8202SOL    HW125505   3.602   3.767   4.597 -0.6246 -1.3440  0.8046
 8202SOL    HW225506   3.480   3.854   4.534 -0.6969 -0.8058  1.6739
 8203SOL     OW25507   4.619   0.081   5.828  0.7152  0.2793 -0.3235
 8203SOL    HW125508   4.535   0.032   5.853  0.2685  1.6538  1.0126
 8203SOL    HW225509   4.619   0.099   5.729  0.2440 -1.1593 -0.6116
 8204SOL     OW25510   2.913   2.617   0.602  0.0368 -0.0960 -0.4446
 8204SOL    HW125511   2.911   2.655   0.509  0.0962  0.8258 -0.0841
 8204SOL    HW225512   2.841   2.660   0.656  2.2345  2.1291  0.9411
 8205SOL     OW25513   4.641   0.332   4.149 -0.1749  0.0626 -0.3258
 8205SOL    HW125514   4.647   0.403   4.078  0.6118 -1.3579 -1.7564
 8205SOL    HW225515   4.561   0.276   4.132 -0.8802  0.6749  0.8946
 8206SOL     OW25516   5.650   4.572   5.046 -0.3433 -0.3166 -0.9460
 8206SOL    HW125517   5.621   4.657   5.003 -1.4209 -0.4735 -0.5796
 8206SOL    HW225518   5.702   4.517   4.981  0.6644  0.7607 -1.0800
 8207SOL     OW25519   0.082   3.821   4.386  0.0093 -0.1561  0.3508
 8207SOL    HW125520   0.105   3.881   4.310 -0.6835  0.9584  0.9880
 8207SOL    HW225521  -0.003   3.772   4.367 -0.6829  0.8431  0.7709
 8208SOL     OW25522   6.702   6.992   3.358  0.4359  0.0320 -0.7923
 8208SOL    HW125523   6.695   7.072   3.417  1.7324 -0.3410 -0.0985
 8208SOL    HW225524   6.773   7.007   3.289  1.5800 -0.9593  0.1213
 8209SOL     OW25525   0.139   6.186   1.489  0.2606  0.2454  0.3063
 8209SOL    HW125526   0.170   6.208   1.581  1.8174 -0.3849 -0.0327
 8209SOL    HW225527   0.176   6.254   1.425 -2.4833  1.9223  0.3156
 8210SOL     OW25528   3.601   4.358   6.622  0.1319  0.1282  0.2325
 8210SOL    HW125529   3.519   4.400   6.658  0.8886  1.4115  0.4989
 8210SOL    HW225530   3.644   4.419   6.555  1.3597 -0.0973  0.7759
 8211SOL     OW25531   3.411   4.158   5.122  0.3286 -0.1371  0.1000
 8211SOL    HW125532   3.503   4.165   5.082 -0.2040  0.2440 -1.0864
 8211SOL    HW225533   3.419   4.129   5.217  1.7334  0.7870  0.2976
 8212SOL     OW25534   4.415   6.238   0.592  0.1359 -0.3568  0.1504
 8212SOL    HW125535   4.502   6.200   0.560  0.2571  0.4464 -0.5073
 8212SOL    HW225536   4.368   6.170   0.647  0.0216 -1.7244 -1.5407
 8213SOL     OW25537   1.224   5.792   4.370 -0.4050 -0.1297  1.3801
 8213SOL    HW125538   1.177   5.878   4.385  1.1457  0.5351  2.7680
 8213SOL    HW225539   1.298   5.782   4.437  0.4626 -1.8046  0.2638
 8214SOL     OW25540   6.542   4.472   2.939 -0.2882 -0.2983 -0.1306
 8214SOL    HW125541   6.539   4.536   3.015 -0.1253 -0.4649  0.0162
 8214SOL    HW225542   6.455   4.475   2.890  0.1374  0.9465 -0.8764
 8215SOL     OW25543   1.540   4.497   2.048 -0.7907 -0.1951  0.0473
 8215SOL    HW125544   1.573   4.440   2.123 -1.2607  0.9446  1.1551
 8215SOL    HW225545   1.601   4.575   2.036  0.7778 -1.6845 -2.5380
 8216SOL     OW25546   4.696   1.031   4.461  0.5032  0.0513 -0.0626
 8216SOL    HW125547   4.710   0.987   4.550 -0.8674 -2.3911 -0.9583
 8216SOL    HW225548   4.604   1.071   4.459  0.6422  0.3567 -0.2721
 8217SOL     OW25549   0.833   2.918   0.924  0.5164  0.0363 -0.1959
 8217SOL    HW125550   0.751   2.970   0.902  0.7830  0.9730  0.9371
 8217SOL    HW225551   0.829   2.828   0.880 -0.7860  0.3344 -0.7051
 8218SOL     OW25552   3.349   5.242   0.633 -0.3367  0.0609  0.1502
 8218SOL    HW125553   3.315   5.171   0.572 -0.2818 -1.0708  1.3886
 8218SOL    HW225554   3.433   5.282   0.595 -1.6305  1.1659 -1.7132
 8219SOL     OW25555   3.369   3.720   2.000  0.3647 -0.0112 -0.2576
 8219SOL    HW125556   3.285   3.774   2.002 -0.7136 -1.6374 -0.1707
 8219SOL    HW225557   3.422   3.739   2.083 -0.4145  0.2561  0.1892
 8220SOL     OW25558   5.581   2.445   5.840 -0.1837  0.0416 -0.0488
 8220SOL    HW125559   5.527   2.406   5.765  1.2310 -0.4468 -0.8453
 8220SOL    HW225560   5.536   2.527   5.874 -1.5195 -0.4457 -0.5547
 8221SOL     OW25561   5.879   5.043   1.473 -0.3821  0.3541  0.0457
 8221SOL    HW125562   5.959   5.094   1.503 -0.8313 -0.1989  2.4512
 8221SOL    HW225563   5.850   5.075   1.383  1.1774  2.1414  0.1215
 8222SOL     OW25564   1.655   4.120   2.858 -0.6729  0.3046  0.7967
 8222SOL    HW125565   1.605   4.043   2.898 -0.8707  0.3639  0.6621
 8222SOL    HW225566   1.681   4.184   2.931  4.0409 -2.3611  1.8497
 8223SOL     OW25567   2.806   5.280   1.965  0.3203 -0.2837 -0.0539
 8223SOL    HW125568   2.797   5.377   1.990  1.2712 -0.0390 -0.5907
 8223SOL    HW225569   2.742   5.259   1.891  0.0769 -0.0672  0.0944
 8224SOL     OW25570   4.927   1.951   6.837 -0.4508 -0.0990  0.4476
 8224SOL    HW125571   4.992   2.027   6.845 -1.0608  0.7129 -1.6377
 8224SOL    HW225572   4.945   1.900   6.753 -1.6088 -0.7607  0.5803
 8225SOL     OW25573   2.371   5.628   3.015 -0.2674  0.7129  0.4051
 8225SOL    HW125574   2.338   5.696   3.080 -0.8669 -0.0221  0.8949
 8225SOL    HW225575   2.463   5.599   3.041 -0.2991  0.8019  0.6230
 8226SOL     OW25576   4.011   5.955   0.525  0.2683 -0.7654  0.3937
 8226SOL    HW125577   4.101   5.932   0.486  0.1227 -0.5893 -0.0628
 8226SOL    HW225578   3.940   5.904   0.477  0.1069 -0.7488  0.6142
 8227SOL     OW25579   1.608   3.123   4.613 -0.0205  0.3054 -0.5227
 8227SOL    HW125580   1.689   3.155   4.662  0.2371  0.6831 -1.1879
 8227SOL    HW225581   1.543   3.084   4.679 -0.1076  1.7043  0.2608
 8228SOL     OW25582   5.817   2.731   6.391  0.1034  0.2001  0.4183
 8228SOL    HW125583   5.899   2.749   6.336  0.3971  0.1616  0.8346
 8228SOL    HW225584   5.806   2.633   6.403 -0.3058  0.1802 -0.0777
 8229SOL     OW25585   5.379   3.663   5.109  0.5008  0.5068 -0.4675
 8229SOL    HW125586   5.469   3.687   5.145  1.5140  0.6243 -2.8985
 8229SOL    HW225587   5.387   3.581   5.052 -0.7493  1.0845 -1.4968
 8230SOL     OW25588   2.358   4.802   0.418 -0.3676 -0.1981 -0.5911
 8230SOL    HW125589   2.336   4.885   0.469  1.6732  0.1023 -0.1105
 8230SOL    HW225590   2.416   4.825   0.340 -2.0221 -0.8825 -2.0893
 8231SOL     OW25591   2.265   6.521   3.272  0.1971  0.4804 -0.1576
 8231SOL    HW125592   2.288   6.592   3.339 -1.5613  1.0953 -0.1223
 8231SOL    HW225593   2.346   6.470   3.247  1.5617  2.5499 -0.2090
 8232SOL     OW25594   1.207   4.018   5.345 -0.1235  0.2067 -0.0777
 8232SOL    HW125595   1.228   3.963   5.265  0.3205 -0.8531  0.7458
 8232SOL    HW225596   1.127   3.980   5.391  0.0883  0.3438  0.4091
 8233SOL     OW25597   6.362   4.758   6.229  0.3976  0.3682  0.0248
 8233SOL    HW125598   6.428   4.741   6.156 -0.3128 -3.7933  0.1114
 8233SOL    HW225599   6.408   4.753   6.318  0.5411  1.2498  0.0124
 8234SOL     OW25600   2.235   5.186   0.156 -0.4947  0.1622  0.4042
 8234SOL    HW125601   2.297   5.208   0.080 -2.4903  1.5379 -0.9353
 8234SOL    HW225602   2.263   5.236   0.238  0.1247  0.8195 -0.1944
 8235SOL     OW25603   4.626   4.281   0.534 -0.2501  0.6126 -0.1050
 8235SOL    HW125604   4.547   4.243   0.582 -0.2086  0.6563 -0.0014
 8235SOL    HW225605   4.706   4.279   0.594 -0.0657  0.1586 -0.3622
 8236SOL     OW25606   4.768   3.174   1.622 -0.0081 -0.5731 -0.2958
 8236SOL    HW125607   4.812   3.105   1.680 -1.5317 -0.9669  0.4377
 8236SOL    HW225608   4.734   3.131   1.538 -0.8531 -0.7011  0.1075
 8237SOL     OW25609   5.131   3.347   6.379 -0.1143  0.0152 -0.7266
 8237SOL    HW125610   5.226   3.315   6.389 -0.3821 -1.2358 -1.7997
 8237SOL    HW225611   5.090   3.357   6.469  0.1930 -2.1969 -0.2692
 8238SOL     OW25612   5.378   1.790   6.393  0.0153 -0.1882 -0.5889
 8238SOL    HW125613   5.425   1.743   6.318 -1.9670  0.0536 -2.0843
 8238SOL    HW225614   5.290   1.825   6.359 -0.1540  1.4725  1.4255
 8239SOL     OW25615   2.074   1.980   3.815  0.1476  0.0297  0.3893
 8239SOL    HW125616   2.036   2.011   3.902 -0.9637 -0.2483  0.0193
 8239SOL    HW225617   2.088   1.881   3.819 -3.1465 -0.6404 -0.8242
 8240SOL     OW25618   1.481   2.039   5.625 -0.2446  0.4338 -0.3078
 8240SOL    HW125619   1.487   2.077   5.533 -0.3389  1.2642  0.0187
 8240SOL    HW225620   1.574   2.023   5.660 -0.2148 -1.4330 -1.1524
 8241SOL     OW25621   1.047   5.636   0.116  0.3100  0.2120  0.3018
 8241SOL    HW125622   1.016   5.706   0.179 -1.1698 -0.9242  0.8821
 8241SOL    HW225623   1.137   5.662   0.079 -0.3739  2.5980  0.1421
 8242SOL     OW25624   1.362   5.188   6.196  0.4931  0.2575 -0.6839
 8242SOL    HW125625   1.422   5.220   6.269  1.3121 -1.0936 -0.7345
 8242SOL    HW225626   1.416   5.139   6.127 -0.6434 -0.9427 -0.7572
 8243SOL     OW25627   6.832   6.924   4.836 -0.1635  0.2817  0.1598
 8243SOL    HW125628   6.787   6.961   4.754  0.3828  0.6563  0.0169
 8243SOL    HW225629   6.903   6.988   4.865 -0.6816  0.3920  1.2267
 8244SOL     OW25630   1.560   6.426   1.768 -0.2930  0.2829  0.4453
 8244SOL    HW125631   1.622   6.502   1.750 -1.6597  0.9508 -1.7512
 8244SOL    HW225632   1.601   6.341   1.735  0.7013  0.1957  1.7921
 8245SOL     OW25633   6.484   4.680   5.968 -0.0149  0.1567  0.7869
 8245SOL    HW125634   6.430   4.748   5.919  1.7209  1.0757  0.0723
 8245SOL    HW225635   6.510   4.607   5.906 -3.0517 -2.0624  1.8467
 8246SOL     OW25636   2.957   2.304   1.650 -0.3742  0.2378 -0.1592
 8246SOL    HW125637   2.947   2.213   1.690  0.5257  0.7061  1.2274
 8246SOL    HW225638   2.972   2.371   1.723 -0.9732  1.5028 -1.1522
 8247SOL     OW25639   6.331   0.640   1.027  0.2152  0.0646  0.6760
 8247SOL    HW125640   6.357   0.646   0.931 -0.7852 -1.7508  0.2461
 8247SOL    HW225641   6.329   0.544   1.055 -0.3831  0.5052  2.2529
 8248SOL     OW25642   1.159   2.043   4.463  0.6540  0.1684  0.3205
 8248SOL    HW125643   1.177   2.129   4.511  0.0027 -0.3273  1.5036
 8248SOL    HW225644   1.243   2.012   4.418  0.3822  2.5421 -2.1076
 8249SOL     OW25645   3.233   3.984   2.593  0.1883 -0.8644 -0.2824
 8249SOL    HW125646   3.295   4.045   2.641  0.2528  0.1120 -1.5449
 8249SOL    HW225647   3.176   4.038   2.530 -1.4877 -1.8068  0.3650
 8250SOL     OW25648   0.786   5.760   0.999  0.3924  0.2614  0.0158
 8250SOL    HW125649   0.787   5.857   1.024 -1.2995  0.6849 -1.3587
 8250SOL    HW225650   0.712   5.713   1.047  0.5349 -0.1106 -0.1207
 8251SOL     OW25651   3.249   5.154   4.817 -0.1140 -0.7427  0.1019
 8251SOL    HW125652   3.151   5.171   4.831 -0.0434  0.0927 -0.3297
 8251SOL    HW225653   3.270   5.160   4.719  0.1079 -2.4611  0.0169
 8252SOL     OW25654   1.703   4.095   3.395  0.1571 -0.4116 -0.2626
 8252SOL    HW125655   1.687   3.996   3.405  0.8172 -0.7858 -2.3911
 8252SOL    HW225656   1.791   4.119   3.434  0.7029 -0.9773 -1.1178
 8253SOL     OW25657   6.112   1.072   0.233  0.0343 -0.0727  0.3444
 8253SOL    HW125658   6.151   1.050   0.144  0.9320  0.3787  0.6184
 8253SOL    HW225659   6.159   1.021   0.305 -0.0909  0.2240  0.6451
 8254SOL     OW25660   4.274   1.959   2.983  0.0809 -0.0569 -0.3156
 8254SOL    HW125661   4.323   1.995   2.903  1.4007  2.2475  1.4009
 8254SOL    HW225662   4.320   1.877   3.017  0.7833  0.1775 -0.6905
 8255SOL     OW25663   6.137   1.704   1.569 -0.1994  0.3055  0.5667
 8255SOL    HW125664   6.141   1.605   1.561  1.3421  0.4773 -1.7372
 8255SOL    HW225665   6.173   1.746   1.485  0.4239  2.8216  1.9847
 8256SOL     OW25666   1.051   3.212   5.520  0.4235  0.0990  0.1479
 8256SOL    HW125667   1.090   3.255   5.437  0.5344 -1.2568 -0.5231
 8256SOL    HW225668   1.053   3.278   5.595 -0.2739  1.5816 -1.0862
 8257SOL     OW25669   6.884   1.692   4.219  0.0469  0.1668  0.6562
 8257SOL    HW125670   6.930   1.700   4.307 -0.3537 -1.5270  1.0447
 8257SOL    HW225671   6.819   1.616   4.221  0.0259  0.0906 -1.0997
 8258SOL     OW25672   0.886   1.120   2.979 -0.1110  0.1125  0.3130
 8258SOL    HW125673   0.963   1.183   2.970  0.2310 -0.4959 -1.4880
 8258SOL    HW225674   0.838   1.113   2.892 -2.1154  0.3016  1.3292
 8259SOL     OW25675   3.530   0.341   3.044  0.3000 -0.4043 -0.5563
 8259SOL    HW125676   3.479   0.342   3.130  1.2680  1.4749  0.0619
 8259SOL    HW225677   3.540   0.247   3.012 -0.3028 -1.1289  1.2389
 8260SOL     OW25678   5.011   5.914   6.228 -0.2528  0.4307  0.3829
 8260SOL    HW125679   5.024   5.999   6.280 -0.6407  0.6943  0.0502
 8260SOL    HW225680   5.000   5.838   6.292 -2.5672  1.0058  0.7505
 8261SOL     OW25681   3.731   3.769   0.025 -0.1866  0.1173  0.2796
 8261SOL    HW125682   3.784   3.762  -0.059  0.1731  1.3933  0.3807
 8261SOL    HW225683   3.633   3.764   0.003 -0.1184  1.0823 -0.3032
 8262SOL     OW25684   3.306   0.175   6.287  0.2785 -0.1895  0.6028
 8262SOL    HW125685   3.307   0.155   6.189 -0.0922 -0.6240  0.6822
 8262SOL    HW225686   3.213   0.162   6.322  0.2939  0.4888  0.9060
 8263SOL     OW25687   4.472   3.008   6.733 -0.5505 -0.0442  0.1332
 8263SOL    HW125688   4.427   2.982   6.819 -1.8284  1.2502 -0.1092
 8263SOL    HW225689   4.562   3.048   6.753 -0.8936  0.3707  0.8756
 8264SOL     OW25690   5.764   1.831   5.236 -0.3469  0.1298  0.0919
 8264SOL    HW125691   5.722   1.840   5.146 -2.2310 -3.5171  0.3994
 8264SOL    HW225692   5.743   1.911   5.292 -1.5712  1.1837 -1.8080
 8265SOL     OW25693   3.370   6.315   4.488 -0.1114 -0.1630 -0.1718
 8265SOL    HW125694   3.447   6.365   4.448 -1.5628  2.1952 -0.2113
 8265SOL    HW225695   3.338   6.363   4.570 -2.1570 -0.4832 -0.7263
 8266SOL     OW25696   2.946   7.001   0.797 -0.1456  0.1408  0.0774
 8266SOL    HW125697   2.881   6.942   0.845 -0.7300  0.1789 -0.6550
 8266SOL    HW225698   2.915   7.096   0.801  1.7165  0.7743  2.8659
 8267SOL     OW25699   2.733   1.846   2.109  0.2103  0.0680 -0.3515
 8267SOL    HW125700   2.673   1.916   2.147  0.9048  0.6474 -0.2999
 8267SOL    HW225701   2.709   1.829   2.014  1.0634  1.5747 -0.8774
 8268SOL     OW25702   2.823   3.971   0.409 -0.0808 -0.1499 -0.8280
 8268SOL    HW125703   2.862   3.959   0.500  0.2409 -1.2367 -1.0988
 8268SOL    HW225704   2.723   3.964   0.414  0.0013 -1.3102 -0.7152
 8269SOL     OW25705   5.095   4.221   4.888  0.3510 -0.3955  0.5416
 8269SOL    HW125706   5.180   4.264   4.856  0.7722 -1.5481  0.0844
 8269SOL    HW225707   5.061   4.158   4.819  1.4175 -3.1375  2.3695
 8270SOL     OW25708   5.667   5.899   1.166 -0.2621 -0.2842  0.1909
 8270SOL    HW125709   5.579   5.898   1.118 -0.2293 -3.1945  0.0121
 8270SOL    HW225710   5.686   5.808   1.201  2.8682  0.1684 -0.0733
 8271SOL     OW25711   4.712   0.204   6.367 -0.1763 -0.3086  0.0415
 8271SOL    HW125712   4.783   0.274   6.365 -1.2457  0.7966 -0.3911
 8271SOL    HW225713   4.678   0.188   6.275 -1.5011  0.2823  0.3970
 8272SOL     OW25714   5.195   4.363   2.029 -0.2000  0.1361 -0.2625
 8272SOL    HW125715   5.193   4.394   1.934 -1.0537  0.8890 -0.0172
 8272SOL    HW225716   5.103   4.340   2.058  0.0866 -0.2853  0.3327
 8273SOL     OW25717   4.541   2.385   4.496  0.2744 -0.2079 -0.3855
 8273SOL    HW125718   4.567   2.467   4.546  2.5740 -0.5581 -0.9007
 8273SOL    HW225719   4.474   2.333   4.550  0.0602  1.1285  0.6977
 8274SOL     OW25720   2.829   1.685   5.393 -0.2039  0.4387  0.4291
 8274SOL    HW125721   2.769   1.669   5.472 -1.0136 -1.4075 -0.4912
 8274SOL    HW225722   2.924   1.692   5.425 -0.5036 -0.3552  1.5767
 8275SOL     OW25723   6.769   5.078   1.927  0.1491 -0.5487  0.0657
 8275SOL    HW125724   6.844   5.070   1.992  0.7268 -2.6702 -0.7777
 8275SOL    HW225725   6.731   4.988   1.908 -2.0790  0.3678 -0.2004
 8276SOL     OW25726   6.851   5.895   4.756 -0.0402 -0.5626 -0.0459
 8276SOL    HW125727   6.754   5.911   4.776  0.1404  2.0055 -0.8559
 8276SOL    HW225728   6.906   5.971   4.791  1.2895 -0.4178 -2.2099
 8277SOL     OW25729   0.152   1.512   2.015  0.6493 -0.1327  0.1696
 8277SOL    HW125730   0.110   1.598   1.986 -1.1027 -1.0108 -0.0418
 8277SOL    HW225731   0.246   1.529   2.045 -0.2052  2.1782  1.8509
 8278SOL     OW25732   5.609   6.615   4.436 -0.2439  0.2080  0.2343
 8278SOL    HW125733   5.708   6.618   4.449 -0.3747 -0.0213  1.3373
 8278SOL    HW225734   5.564   6.673   4.504 -0.9589 -1.1305  0.9531
 8279SOL     OW25735   2.165   2.921   2.176 -0.0496 -0.0906  0.3258
 8279SOL    HW125736   2.228   2.893   2.104 -0.5357 -0.8483  0.1769
 8279SOL    HW225737   2.156   2.847   2.243  0.9660  0.8883  1.5728
 8280SOL     OW25738   1.775   5.604   5.681  0.3369  0.2035 -0.1650
 8280SOL    HW125739   1.822   5.656   5.752 -0.8798  0.2195  0.6506
 8280SOL    HW225740   1.809   5.632   5.591  1.6087  0.4655  0.3736
 8281SOL     OW25741   0.402   1.627   3.957  0.0831 -1.0931  0.4546
 8281SOL    HW125742   0.312   1.612   3.916 -0.2639  0.2492  0.6853
 8281SOL    HW225743   0.396   1.697   4.028  1.2849 -1.0892  0.5821
 8282SOL     OW25744   1.924   4.161   0.908 -0.0222  0.0796  0.1044
 8282SOL    HW125745   1.981   4.128   0.832  1.0696  2.1897 -0.0716
 8282SOL    HW225746   1.966   4.134   0.995 -0.0293 -0.3788 -0.0309
 8283SOL     OW25747   5.851   0.238   1.988 -0.1724  0.8140 -0.0946
 8283SOL    HW125748   5.898   0.189   1.914 -0.7732  0.4863 -0.2680
 8283SOL    HW225749   5.884   0.204   2.076 -0.5008  0.1705 -0.2123
 8284SOL     OW25750   4.305   4.703   6.917 -0.0489 -0.3749  0.4067
 8284SOL    HW125751   4.357   4.652   6.848 -0.9896  0.9187 -1.3032
 8284SOL    HW225752   4.320   4.801   6.905 -3.0676  0.0949 -0.4093
 8285SOL     OW25753   3.014   3.052   1.855 -0.0693  0.3684 -0.0063
 8285SOL    HW125754   2.920   3.085   1.851  0.7170  2.7005 -1.2770
 8285SOL    HW225755   3.069   3.113   1.911  1.0279  0.0262 -0.6703
 8286SOL     OW25756   5.500   2.873   1.145  0.5652  0.1978 -0.6802
 8286SOL    HW125757   5.595   2.876   1.177  0.3420 -0.9685  0.1736
 8286SOL    HW225758   5.494   2.812   1.066  0.3010 -1.0121  0.2363
 8287SOL     OW25759   1.613   0.456   5.433  0.4104  0.0390  0.2952
 8287SOL    HW125760   1.531   0.511   5.449  0.0393  0.0170 -1.2863
 8287SOL    HW225761   1.586   0.365   5.402  1.0242  0.0320 -0.2429
 8288SOL     OW25762   3.132   6.071   0.305  0.3767  0.3203 -1.2027
 8288SOL    HW125763   3.079   6.021   0.237 -0.7237  1.2432 -1.0621
 8288SOL    HW225764   3.226   6.038   0.306 -0.2142 -1.4544 -1.3762
 8289SOL     OW25765   5.664   2.707   0.445  0.3632 -0.3075  0.6134
 8289SOL    HW125766   5.749   2.751   0.475 -0.8244  1.0039  2.1927
 8289SOL    HW225767   5.587   2.768   0.461 -0.9316 -1.5420 -0.6277
 8290SOL     OW25768   4.535   6.864   6.442 -0.2558 -0.1080 -1.0866
 8290SOL    HW125769   4.468   6.938   6.434 -1.3792 -0.9728 -0.1381
 8290SOL    HW225770   4.504   6.785   6.388 -0.6946 -0.9553  0.3387
 8291SOL     OW25771   0.280   6.547   2.368  0.0457 -0.3387 -0.0043
 8291SOL    HW125772   0.230   6.484   2.310  0.4379  1.1994 -2.1139
 8291SOL    HW225773   0.235   6.636   2.369  0.4980 -0.0870  1.4315
 8292SOL     OW25774   5.312   0.359   6.179  0.5147 -0.1686  0.4623
 8292SOL    HW125775   5.342   0.390   6.269  0.3963 -0.5136  0.6237
 8292SOL    HW225776   5.222   0.316   6.187  0.6672 -0.5391  0.2484
 8293SOL     OW25777   0.196   6.243   0.840 -0.3391 -0.1274 -0.1247
 8293SOL    HW125778   0.214   6.232   0.937  0.3025 -0.1191 -0.2366
 8293SOL    HW225779   0.125   6.312   0.826  0.7138  1.0774  0.2761
 8294SOL     OW25780   2.410   0.336   3.052  0.6495  0.0558 -0.6221
 8294SOL    HW125781   2.475   0.262   3.075  0.4961  0.4375  1.1744
 8294SOL    HW225782   2.319   0.297   3.037  0.8249 -0.2447 -0.9167
 8295SOL     OW25783   6.745   4.224   3.266  0.1119  0.4258  0.0135
 8295SOL    HW125784   6.729   4.313   3.308  0.4840  0.9323 -0.8798
 8295SOL    HW225785   6.755   4.155   3.337 -0.0166  1.1239  0.7263
 8296SOL     OW25786   4.050   6.401   4.097 -0.3074  0.3979  0.0325
 8296SOL    HW125787   3.982   6.384   4.026  0.0042  0.5817 -0.3118
 8296SOL    HW225788   4.038   6.334   4.171 -1.8609  1.3698  0.7173
 8297SOL     OW25789   0.291   6.999   3.619  0.0163 -0.5301 -0.0932
 8297SOL    HW125790   0.365   7.051   3.578  0.7355 -1.7406 -0.3966
 8297SOL    HW225791   0.280   6.912   3.570 -0.2233 -1.2798  1.2162
 8298SOL     OW25792   3.491   6.260   2.021 -0.2507  0.1820  0.0223
 8298SOL    HW125793   3.402   6.299   1.995 -0.5698 -0.4811  0.0853
 8298SOL    HW225794   3.560   6.332   2.020 -0.5543  0.4899 -1.1469
 8299SOL     OW25795   4.973   3.210   5.932  0.3430  1.0399  0.1474
 8299SOL    HW125796   4.877   3.190   5.914  0.6386 -1.7248  1.1719
 8299SOL    HW225797   4.980   3.277   6.007 -0.8385 -0.5708  1.7649
 8300SOL     OW25798   1.369   4.002   1.119 -0.4156  0.4120 -0.0364
 8300SOL    HW125799   1.468   4.018   1.125 -0.2398 -0.7237  0.2925
 8300SOL    HW225800   1.326   4.078   1.069  0.8274  0.2163 -1.4726
 8301SOL     OW25801   1.334   6.576   6.367  0.4210  0.2224  0.1360
 8301SOL    HW125802   1.246   6.622   6.360 -0.8543 -2.0666  0.0257
 8301SOL    HW225803   1.377   6.600   6.454 -2.0692 -1.3817  1.9344
 8302SOL     OW25804   1.289   3.014   6.412 -0.2465  0.2756  0.3898
 8302SOL    HW125805   1.245   2.939   6.363  0.1593 -0.7059  1.4943
 8302SOL    HW225806   1.387   3.013   6.393  0.1365 -0.9403  2.2049
 8303SOL     OW25807   1.766   6.040   1.281  0.4381  0.5189  0.3667
 8303SOL    HW125808   1.832   5.966   1.274  1.2633  1.2062  0.7215
 8303SOL    HW225809   1.774   6.083   1.371 -0.1145  0.9697  0.2092
 8304SOL     OW25810   1.859   1.357   2.960 -0.1300 -0.1749 -0.1526
 8304SOL    HW125811   1.890   1.262   2.956  0.5114  0.0609 -1.1983
 8304SOL    HW225812   1.843   1.390   2.867  2.3485  1.6010 -0.0482
 8305SOL     OW25813   1.126   1.515   2.497  0.1796  0.3908  0.0195
 8305SOL    HW125814   1.112   1.416   2.492  0.4217  0.4197 -3.3601
 8305SOL    HW225815   1.040   1.561   2.476  0.1345  0.9505  1.3329
 8306SOL     OW25816   1.104   1.747   3.878  0.3744  0.6520 -0.3967
 8306SOL    HW125817   1.204   1.736   3.877  0.2452 -0.5798 -1.0548
 8306SOL    HW225818   1.076   1.791   3.793  0.2116 -0.4802 -0.9392
 8307SOL     OW25819   2.052   3.574   0.365  0.2887 -0.2513 -0.0873
 8307SOL    HW125820   2.123   3.511   0.396 -0.2054 -1.2497 -0.9348
 8307SOL    HW225821   1.963   3.543   0.398 -0.0031 -0.2026 -0.8041
 8308SOL     OW25822   6.652   5.979   3.016 -0.1049  0.0945  0.2812
 8308SOL    HW125823   6.657   5.963   2.917 -0.9265 -0.9626  0.3965
 8308SOL    HW225824   6.556   5.979   3.045  0.1499 -0.1045  1.1539
 8309SOL     OW25825   1.766   3.749   5.115 -0.0034  0.1317 -0.1031
 8309SOL    HW125826   1.683   3.698   5.139 -0.1165 -0.1475 -1.0673
 8309SOL    HW225827   1.741   3.833   5.067  0.2917 -0.3487 -1.1187
 8310SOL     OW25828   6.843   0.479   1.792 -0.3180  0.1852 -0.3382
 8310SOL    HW125829   6.907   0.475   1.715  0.2807 -1.4805  0.2041
 8310SOL    HW225830   6.881   0.535   1.865  0.1513 -0.0925 -0.3666
 8311SOL     OW25831   1.450   5.858   6.583  0.5881  0.1347 -0.2684
 8311SOL    HW125832   1.531   5.803   6.564  0.1706 -1.3284  1.8215
 8311SOL    HW225833   1.463   5.951   6.547  3.3897  0.0812  0.3867
 8312SOL     OW25834   0.629   4.179   1.886 -0.3046 -0.0041 -0.0322
 8312SOL    HW125835   0.565   4.142   1.953  0.2784 -1.4473 -0.2397
 8312SOL    HW225836   0.691   4.243   1.932 -1.3138  0.7381  0.3382
 8313SOL     OW25837   6.983   5.713   3.622 -0.1564 -0.1789 -0.3130
 8313SOL    HW125838   7.058   5.653   3.595  0.9100  0.2409  1.5609
 8313SOL    HW225839   7.007   5.808   3.602 -0.0608 -0.0231  0.4860
 8314SOL     OW25840   4.346   1.543   3.869 -0.5170  0.4574 -0.6301
 8314SOL    HW125841   4.425   1.556   3.808  0.7908 -1.1056  0.6043
 8314SOL    HW225842   4.301   1.630   3.885 -1.3255  0.8438 -4.2872
 8315SOL     OW25843   2.834   1.874   0.244  0.0268  0.6160  0.2756
 8315SOL    HW125844   2.752   1.846   0.295  0.1659 -1.0788 -0.3904
 8315SOL    HW225845   2.915   1.863   0.302  0.0250  0.1300  0.1860
 8316SOL     OW25846   3.517   5.447   6.012  0.0351  0.6387  0.5240
 8316SOL    HW125847   3.450   5.381   5.979 -0.2573  1.8782 -1.4915
 8316SOL    HW225848   3.506   5.459   6.111 -0.5893 -1.4889  0.7727
 8317SOL     OW25849   0.578   2.419   6.579 -0.2563  0.4139 -0.9512
 8317SOL    HW125850   0.529   2.345   6.626  2.0025 -1.2615 -1.0600
 8317SOL    HW225851   0.633   2.470   6.644 -0.5003  0.9227 -1.1377
 8318SOL     OW25852   3.364   3.234   0.468  0.1103  0.1382  0.3403
 8318SOL    HW125853   3.312   3.158   0.509  0.0729 -0.2384 -0.3964
 8318SOL    HW225854   3.307   3.280   0.401  1.1091 -1.0616 -1.4025
 8319SOL     OW25855   4.301   2.224   6.362  0.0276  0.0052 -0.2333
 8319SOL    HW125856   4.269   2.298   6.421  0.2838 -0.8633  1.0504
 8319SOL    HW225857   4.266   2.237   6.270 -0.5692  1.2952  0.1507
 8320SOL     OW25858   3.986   6.968   4.079  0.3014  0.0399  0.5232
 8320SOL    HW125859   4.074   6.936   4.112 -0.2798 -0.8575  1.2352
 8320SOL    HW225860   3.935   7.011   4.153 -0.8932 -1.7341  0.7889
 8321SOL     OW25861   6.798   2.354   6.242 -0.0157  0.0787  0.4823
 8321SOL    HW125862   6.806   2.259   6.271  1.4098 -1.1279 -3.3284
 8321SOL    HW225863   6.887   2.398   6.245 -0.3240  0.7222  0.4045
 8322SOL     OW25864   3.769   5.100   2.517  0.1937 -0.0418  0.5158
 8322SOL    HW125865   3.715   5.104   2.601 -0.5027 -0.6425  0.1100
 8322SOL    HW225866   3.788   5.004   2.494 -0.0893  0.0888 -0.2957
 8323SOL     OW25867   6.399   1.539   1.119 -0.2413 -0.2321 -0.0240
 8323SOL    HW125868   6.379   1.531   1.021  1.1060 -0.9194 -0.2676
 8323SOL    HW225869   6.328   1.492   1.171 -1.4389  0.8809 -0.6137
 8324SOL     OW25870   6.647   2.938   0.636 -0.2901 -0.4433 -0.3090
 8324SOL    HW125871   6.727   2.915   0.581 -0.5370  0.3613 -1.0353
 8324SOL    HW225872   6.602   2.855   0.667 -0.5135 -0.9474 -1.8854
 8325SOL     OW25873   1.980   3.427   6.485  0.2760  0.0402 -0.0426
 8325SOL    HW125874   1.963   3.342   6.534 -2.1360 -0.8469 -2.1840
 8325SOL    HW225875   2.010   3.406   6.392  1.3480  1.6082 -0.0862
 8326SOL     OW25876   4.713   4.665   1.673  0.0207 -0.2082 -0.6186
 8326SOL    HW125877   4.791   4.639   1.730 -1.0126  0.0493  0.9585
 8326SOL    HW225878   4.650   4.587   1.664 -0.8115  0.3348  0.3012
 8327SOL     OW25879   4.941   3.895   5.942 -0.0349  0.1235  0.3101
 8327SOL    HW125880   4.981   3.967   5.999  0.8474  0.2078 -0.3969
 8327SOL    HW225881   4.942   3.923   5.846  0.6286 -0.9570 -0.0204
 8328SOL     OW25882   0.532   5.910   6.591 -0.6806 -0.3793 -0.6945
 8328SOL    HW125883   0.460   5.947   6.532 -0.1393  1.0935 -0.4602
 8328SOL    HW225884   0.621   5.943   6.561 -0.0305 -2.3054 -1.0720
 8329SOL     OW25885   2.280   4.101   6.475  0.2286 -0.4485  0.5443
 8329SOL    HW125886   2.315   4.184   6.518  0.9256  1.0828 -2.6952
 8329SOL    HW225887   2.181   4.098   6.486  0.0127  1.5513 -0.3170
 8330SOL     OW25888   0.602   4.145   5.286 -0.1102  0.5059 -0.0481
 8330SOL    HW125889   0.651   4.071   5.241 -0.3083 -1.2321  2.4119
 8330SOL    HW225890   0.659   4.182   5.360 -0.7258  1.6646 -0.1251
 8331SOL     OW25891   2.368   6.667   3.491 -0.1455 -0.2639  0.3631
 8331SOL    HW125892   2.401   6.707   3.577 -0.7928  4.7836 -1.3898
 8331SOL    HW225893   2.444   6.654   3.428 -0.2303  1.6504 -0.1949
 8332SOL     OW25894   5.287   6.840   3.645  0.5388 -0.2321  0.0787
 8332SOL    HW125895   5.236   6.818   3.562 -0.2179  2.1080 -0.1490
 8332SOL    HW225896   5.230   6.820   3.725 -0.4270  1.4003 -0.1453
 8333SOL     OW25897   3.242   3.512   5.315 -0.0819  0.1445 -0.4667
 8333SOL    HW125898   3.297   3.591   5.288 -2.1318  1.1199 -2.0501
 8333SOL    HW225899   3.243   3.444   5.242 -1.2284  0.3157 -0.6496
 8334SOL     OW25900   5.666   3.574   0.419  0.5062 -0.3650  0.2865
 8334SOL    HW125901   5.609   3.552   0.498 -0.3372 -0.2005 -0.2577
 8334SOL    HW225902   5.678   3.673   0.413 -1.8879 -0.0927 -1.3931
 8335SOL     OW25903   2.209   5.688   1.148  0.1803 -0.1942 -0.4415
 8335SOL    HW125904   2.258   5.775   1.156 -0.0296 -0.1139  0.0107
 8335SOL    HW225905   2.249   5.634   1.075 -0.1531  0.5870 -1.2169
 8336SOL     OW25906   6.183   6.639   5.363  0.9665 -0.5232  0.7195
 8336SOL    HW125907   6.220   6.613   5.273  0.1736  0.0226  0.2282
 8336SOL    HW225908   6.205   6.568   5.429  1.1336 -1.1712 -0.0151
 8337SOL     OW25909   1.210   4.796   4.238  0.5044 -0.1052 -0.3410
 8337SOL    HW125910   1.266   4.799   4.321  1.0855  1.2825 -0.7572
 8337SOL    HW225911   1.267   4.817   4.159 -0.2634 -0.3720 -0.9736
 8338SOL     OW25912   6.959   6.279   2.938 -0.1178  0.0171 -0.3171
 8338SOL    HW125913   6.878   6.303   2.990  0.3359  0.1407  0.3498
 8338SOL    HW225914   7.022   6.228   2.996 -1.5239 -3.9559 -1.9781
 8339SOL     OW25915   2.010   1.660   3.001  0.0557 -0.2954 -0.2275
 8339SOL    HW125916   2.078   1.672   2.929 -1.8883  0.2814 -2.0641
 8339SOL    HW225917   1.999   1.562   3.020  0.8672 -0.4292 -0.4158
 8340SOL     OW25918   2.763   5.709   6.404 -0.1054 -0.2842 -0.4391
 8340SOL    HW125919   2.670   5.717   6.367  0.2278 -0.1333 -1.2539
 8340SOL    HW225920   2.829   5.732   6.333  0.5913 -1.3270 -0.1484
 8341SOL     OW25921   4.614   3.090   5.656  0.0834 -0.7170  0.0476
 8341SOL    HW125922   4.591   3.043   5.571 -1.7167 -0.9962  0.6476
 8341SOL    HW225923   4.703   3.136   5.646  0.0165 -0.9280 -1.8775
 8342SOL     OW25924   4.854   0.199   4.718  0.1613  0.2817 -0.0194
 8342SOL    HW125925   4.878   0.289   4.682 -0.3558  0.3991 -0.0747
 8342SOL    HW225926   4.917   0.131   4.681  1.4451  0.8006  1.1011
 8343SOL     OW25927   6.061   3.616   2.503 -0.1565  0.2529  0.4956
 8343SOL    HW125928   6.054   3.716   2.509  1.1783  0.3478  0.8160
 8343SOL    HW225929   6.053   3.588   2.408  1.0858  0.8308  0.1948
 8344SOL     OW25930   4.081   5.079   3.594  0.1065 -0.8342  0.3275
 8344SOL    HW125931   4.097   4.988   3.633 -1.3144 -0.4437  1.9159
 8344SOL    HW225932   4.169   5.122   3.574  0.8156 -2.3130  0.0735
 8345SOL     OW25933   5.639   2.113   2.865 -0.2596  0.1040 -0.7379
 8345SOL    HW125934   5.611   2.162   2.947  0.3198  1.5081 -1.3552
 8345SOL    HW225935   5.561   2.062   2.829 -0.5181 -0.5529  0.6710
 8346SOL     OW25936   2.586   3.097   1.393  0.2472  0.3699 -0.3141
 8346SOL    HW125937   2.666   3.123   1.448 -0.2313  0.6663  0.2520
 8346SOL    HW225938   2.591   3.000   1.371  0.8469  0.4218 -0.4214
 8347SOL     OW25939   2.100   0.985   6.259 -0.2396 -0.1859 -0.0746
 8347SOL    HW125940   2.141   0.905   6.215 -0.8330 -0.0650 -0.8602
 8347SOL    HW225941   2.154   1.067   6.238 -0.4379 -0.1525 -0.4652
 8348SOL     OW25942   3.239   6.762   6.136 -0.3933  0.2638  0.0905
 8348SOL    HW125943   3.339   6.766   6.132 -0.3679 -0.6021 -0.4217
 8348SOL    HW225944   3.210   6.757   6.232  0.0718  0.3023  0.2360
 8349SOL     OW25945   1.070   0.778   2.181 -0.2948 -0.3695  0.3469
 8349SOL    HW125946   0.997   0.812   2.122  0.1061 -0.5297 -0.2445
 8349SOL    HW225947   1.088   0.682   2.161  0.8633 -0.0277 -0.3330
 8350SOL     OW25948   6.724   5.025   2.785 -0.4459 -0.4808 -0.1535
 8350SOL    HW125949   6.785   5.104   2.791 -2.1035  0.8084  0.5832
 8350SOL    HW225950   6.680   5.024   2.696  0.6538 -1.4599 -0.7169
 8351SOL     OW25951   3.098   0.727   0.096  0.3979 -0.1514 -1.0475
 8351SOL    HW125952   3.184   0.701   0.053  0.2960  0.4504 -1.6369
 8351SOL    HW225953   3.084   0.673   0.180  2.2111  1.0031  0.0455
 8352SOL     OW25954   1.585   4.815   5.143  0.4585 -0.5372  0.2916
 8352SOL    HW125955   1.564   4.759   5.063 -0.7858  0.3110 -0.0069
 8352SOL    HW225956   1.591   4.911   5.116 -2.8198  0.1466  1.6006
 8353SOL     OW25957   3.442   1.100   0.913  0.2475  0.2263 -0.0891
 8353SOL    HW125958   3.362   1.056   0.954  1.9911 -2.0625  1.0341
 8353SOL    HW225959   3.462   1.057   0.825 -0.1635  1.3072 -0.7285
 8354SOL     OW25960   3.270   3.612   5.589 -0.2761 -0.0599  0.1430
 8354SOL    HW125961   3.304   3.525   5.625 -2.8323 -0.8293  0.9269
 8354SOL    HW225962   3.231   3.597   5.498 -0.4427  0.3378  0.1502
 8355SOL     OW25963   3.798   5.679   3.650 -0.8869 -0.3640  0.8512
 8355SOL    HW125964   3.813   5.652   3.555  1.1945 -1.4351  1.4012
 8355SOL    HW225965   3.711   5.642   3.682 -1.6733  0.1209 -0.6549
 8356SOL     OW25966   2.383   3.301   1.073 -0.3199 -0.2136  0.5656
 8356SOL    HW125967   2.446   3.225   1.084  0.4836  0.3025 -0.3211
 8356SOL    HW225968   2.306   3.273   1.015  0.4998 -0.0734 -0.6214
 8357SOL     OW25969   6.192   3.981   5.053  0.1026  0.0470 -0.1196
 8357SOL    HW125970   6.249   3.961   5.132 -0.9163 -0.0902  0.6021
 8357SOL    HW225971   6.232   3.940   4.971  0.5551 -0.8277  0.5300
 8358SOL     OW25972   6.741   1.271   5.017 -0.2298 -0.1208  0.0591
 8358SOL    HW125973   6.758   1.247   4.921  0.0351 -1.4936  0.4350
 8358SOL    HW225974   6.804   1.344   5.044 -1.4666  1.5249 -1.2879
 8359SOL     OW25975   0.508   6.554   4.480  1.0161  0.0390  0.1828
 8359SOL    HW125976   0.579   6.527   4.545  0.4964  0.1278  0.8005
 8359SOL    HW225977   0.455   6.630   4.518  2.0420  1.5321 -1.2558
 8360SOL     OW25978   4.363   2.247   4.677 -0.2227 -1.3593  0.0113
 8360SOL    HW125979   4.265   2.232   4.694 -0.9317 -1.3520 -3.3915
 8360SOL    HW225980   4.405   2.162   4.647  0.4812 -1.0292  0.0477
 8361SOL     OW25981   5.825   1.768   6.002  0.4708 -0.5968 -0.0378
 8361SOL    HW125982   5.842   1.866   5.988 -2.4531 -0.1553 -1.2477
 8361SOL    HW225983   5.826   1.721   5.914  3.5235 -2.1088  0.6499
 8362SOL     OW25984   3.264   3.144   5.873  0.2021 -0.2476  0.3401
 8362SOL    HW125985   3.250   3.219   5.937 -1.0460 -0.7105  0.6431
 8362SOL    HW225986   3.353   3.101   5.890  0.4085  0.4031  0.9434
 8363SOL     OW25987   0.419   4.463   1.289 -0.4196 -0.8254  0.0968
 8363SOL    HW125988   0.374   4.414   1.214 -0.4060  0.0652 -0.5028
 8363SOL    HW225989   0.351   4.519   1.337 -0.3212 -0.9814  0.4240
 8364SOL     OW25990   4.186   4.233   0.337  0.5814  0.4134 -0.3090
 8364SOL    HW125991   4.191   4.330   0.315 -0.8575  0.5587 -0.0440
 8364SOL    HW225992   4.236   4.216   0.422  1.7056  0.7295 -0.8865
 8365SOL     OW25993   6.688   5.530   5.581  0.0698  0.1485  0.2171
 8365SOL    HW125994   6.702   5.584   5.664 -1.1797  2.2823 -0.8648
 8365SOL    HW225995   6.775   5.493   5.550  0.6546 -0.1972  2.1180
 8366SOL     OW25996   4.484   6.073   4.939  0.1736 -0.1367 -0.2561
 8366SOL    HW125997   4.576   6.094   4.905  0.5644 -1.0124  0.2521
 8366SOL    HW225998   4.454   5.985   4.903 -0.7233  0.4161 -0.9044
 8367SOL     OW25999   2.839   5.796   2.746 -0.4979  0.3215 -0.3035
 8367SOL    HW126000   2.848   5.793   2.647 -0.1982 -0.0685 -0.2653
 8367SOL    HW226001   2.741   5.796   2.770 -0.6029  2.2571 -0.6377
 8368SOL     OW26002   1.191   3.220   6.217  0.1846 -0.1952  0.0239
 8368SOL    HW126003   1.170   3.318   6.217  3.9261  0.7958 -1.5396
 8368SOL    HW226004   1.234   3.194   6.303  0.9193  0.0568 -0.2532
 8369SOL     OW26005   0.756   4.341   5.051 -0.5091 -0.2387  0.1149
 8369SOL    HW126006   0.656   4.331   5.047 -0.4192 -1.0528 -0.2546
 8369SOL    HW226007   0.796   4.259   5.091  0.0281  0.0327  0.1467
 8370SOL     OW26008   4.806   4.105   5.064 -0.0539  0.1618 -0.2637
 8370SOL    HW126009   4.833   4.097   4.968 -0.4960  1.1251 -0.4854
 8370SOL    HW226010   4.845   4.189   5.103  0.3174 -0.3424  0.4708
 8371SOL     OW26011   0.104   2.393   2.240 -0.2819  0.0791 -0.2065
 8371SOL    HW126012   0.159   2.474   2.260  0.0990 -0.8254  3.0123
 8371SOL    HW226013   0.119   2.324   2.311 -1.7073 -2.2571 -2.0336
 8372SOL     OW26014   5.996   5.435   0.000 -0.1744 -0.6892 -0.9796
 8372SOL    HW126015   5.929   5.504  -0.026  0.3739  0.9780  1.6733
 8372SOL    HW226016   6.087   5.462  -0.031  0.0127 -0.3042 -0.1109
 8373SOL     OW26017   1.291   1.676   2.212 -0.2852  0.0652  0.0945
 8373SOL    HW126018   1.207   1.691   2.264  0.9102  0.2809  2.0833
 8373SOL    HW226019   1.342   1.601   2.253  0.7782  0.3335 -0.6919
 8374SOL     OW26020   1.867   2.567   3.709 -0.1431  0.0923  0.1945
 8374SOL    HW126021   1.962   2.554   3.734 -0.0507  0.8999  0.2669
 8374SOL    HW226022   1.856   2.653   3.659 -0.5650 -0.7502 -1.2432
 8375SOL     OW26023   5.744   0.756   3.361 -0.1216 -0.3373 -0.3797
 8375SOL    HW126024   5.725   0.768   3.263 -0.0890 -1.4372 -0.5283
 8375SOL    HW226025   5.667   0.792   3.414  0.1938  0.9736 -0.7696
 8376SOL     OW26026   6.591   6.686   4.373 -0.0746  0.3659  0.0393
 8376SOL    HW126027   6.515   6.623   4.356 -1.2885  0.9462  2.8102
 8376SOL    HW226028   6.671   6.657   4.319 -2.3506  0.1755 -3.5967
 8377SOL     OW26029   4.322   6.858   4.107 -0.0905  0.0609  0.7442
 8377SOL    HW126030   4.331   6.865   4.008  2.4379  0.7291  0.9411
 8377SOL    HW226031   4.285   6.769   4.132 -2.0465  0.3817 -0.8120
 8378SOL     OW26032   3.522   5.537   6.675  0.3099  0.7010 -0.4696
 8378SOL    HW126033   3.486   5.444   6.661 -3.0718  1.8103 -0.0544
 8378SOL    HW226034   3.601   5.551   6.616  0.5238 -2.2284 -1.0241
 8379SOL     OW26035   2.362   2.944   0.584  0.2335  0.0726 -0.4087
 8379SOL    HW126036   2.458   2.971   0.596  0.4410 -1.4902  2.5232
 8379SOL    HW226037   2.319   3.002   0.515  2.3489  3.2802  0.7008
 8380SOL     OW26038   4.329   0.608   3.703 -0.0272 -0.1189 -0.2547
 8380SOL    HW126039   4.396   0.560   3.647 -0.7988 -0.9306 -0.5112
 8380SOL    HW226040   4.304   0.694   3.658  0.4754 -0.0446 -0.3997
 8381SOL     OW26041   2.448   2.224   5.242  0.1031 -0.1875  0.1676
 8381SOL    HW126042   2.462   2.221   5.143 -0.4363 -2.2605  0.1157
 8381SOL    HW226043   2.535   2.210   5.288  0.7000  2.6079  0.0774
 8382SOL     OW26044   6.212   5.299   6.550 -0.6356 -0.0413  0.0669
 8382SOL    HW126045   6.270   5.363   6.599  0.1550 -0.1179 -0.7398
 8382SOL    HW226046   6.217   5.318   6.452 -1.5784 -0.3775 -0.0516
 8383SOL     OW26047   0.166   4.375   2.651  0.4891  0.0028  0.0162
 8383SOL    HW126048   0.144   4.473   2.656  2.1329  0.4724 -1.1674
 8383SOL    HW226049   0.259   4.363   2.617  1.1094 -1.9491  2.1586
 8384SOL     OW26050   0.349   0.431   1.908  0.1561 -0.3907  0.3223
 8384SOL    HW126051   0.347   0.332   1.891  0.7870 -0.3848  0.2087
 8384SOL    HW226052   0.442   0.460   1.928  0.1305  0.3314 -0.5407
 8385SOL     OW26053   4.484   0.702   6.610  0.1540 -0.2323  0.0298
 8385SOL    HW126054   4.419   0.676   6.538 -1.8469 -0.3609  1.7816
 8385SOL    HW226055   4.485   0.802   6.619  2.2582 -0.0279 -1.7365
 8386SOL     OW26056   4.581   1.255   3.482 -0.0683 -0.3470  0.2981
 8386SOL    HW126057   4.569   1.162   3.517 -1.8605 -0.2527  0.0342
 8386SOL    HW226058   4.574   1.254   3.382 -1.8244  0.2718  0.3897
 8387SOL     OW26059   6.321   1.403   0.581  0.1235 -0.4647  0.2577
 8387SOL    HW126060   6.287   1.352   0.502 -0.0533  1.2221 -0.7981
 8387SOL    HW226061   6.320   1.501   0.560  1.7490 -0.0983  1.7127
 8388SOL     OW26062   1.685   4.363   2.234 -0.0342 -0.0480  0.4225
 8388SOL    HW126063   1.692   4.376   2.333 -0.8252 -0.4594  0.5395
 8388SOL    HW226064   1.750   4.292   2.206  0.3252  0.1991  0.6107
 8389SOL     OW26065   3.777   2.897   0.783 -0.8004 -0.5599 -0.3503
 8389SOL    HW126066   3.679   2.894   0.800 -0.9709 -2.2775 -1.3336
 8389SOL    HW226067   3.793   2.925   0.688 -0.3332 -0.2419 -0.1806
 8390SOL     OW26068   1.498   2.080   1.994 -1.1767 -0.1130  0.2132
 8390SOL    HW126069   1.564   2.075   1.918  2.0170  0.7488  2.7060
 8390SOL    HW226070   1.528   2.020   2.068 -4.6710 -1.6091  0.6266
 8391SOL     OW26071   6.889   5.950   3.995  0.2788 -0.4896 -0.3704
 8391SOL    HW126072   6.928   5.874   3.943  0.5895 -0.6641  0.1033
 8391SOL    HW226073   6.789   5.948   3.988  0.3217 -0.4976 -0.9685
 8392SOL     OW26074   0.319   5.175   1.067  0.0637  0.0985  1.0033
 8392SOL    HW126075   0.397   5.133   1.020 -0.3652 -1.7454  1.8318
 8392SOL    HW226076   0.287   5.253   1.014  0.0873 -1.3873 -1.3952
 8393SOL     OW26077   6.837   1.985   2.896  0.5229 -0.7243  0.1300
 8393SOL    HW126078   6.901   2.022   2.963 -0.3550 -1.5252  1.4604
 8393SOL    HW226079   6.843   2.038   2.812  1.5397  0.4221  0.8840
 8394SOL     OW26080   1.022   3.061   4.534  0.2533 -0.3010  0.5187
 8394SOL    HW126081   1.042   3.124   4.458 -1.1542  0.6226  0.8781
 8394SOL    HW226082   0.924   3.041   4.536  0.6076 -2.1994  0.6916
 8395SOL     OW26083   2.604   1.298   6.022 -0.3043  0.0568 -0.7408
 8395SOL    HW126084   2.597   1.253   5.933 -0.8732  0.8411 -1.1111
 8395SOL    HW226085   2.554   1.245   6.090  0.7424 -0.9342 -0.7135
 8396SOL     OW26086   1.969   5.232   3.494  0.0192 -0.0836  0.0942
 8396SOL    HW126087   2.042   5.247   3.561  0.4374 -1.1409 -0.1092
 8396SOL    HW226088   1.998   5.266   3.405 -0.6338  1.5553  0.4605
 8397SOL     OW26089   1.753   2.940   4.044 -0.7419  0.1882 -0.1489
 8397SOL    HW126090   1.840   2.896   4.066 -0.8981 -0.3995 -0.6715
 8397SOL    HW226091   1.680   2.897   4.097 -0.6714  0.9176  0.5538
 8398SOL     OW26092   4.898   1.347   6.624  0.1045 -0.5081 -0.1043
 8398SOL    HW126093   4.847   1.430   6.645 -0.2257 -0.6544 -0.3309
 8398SOL    HW226094   4.996   1.363   6.640  0.0283 -0.1171 -0.0315
 8399SOL     OW26095   4.620   2.906   5.426 -0.2926  0.3102  0.0686
 8399SOL    HW126096   4.693   2.910   5.358 -1.2770 -0.5053 -1.0582
 8399SOL    HW226097   4.536   2.871   5.384 -0.8853 -0.3729  1.7351
 8400SOL     OW26098   5.837   4.309   3.934  0.2483 -0.1484  0.1665
 8400SOL    HW126099   5.830   4.383   3.867  1.1613  0.9326  1.2241
 8400SOL    HW226100   5.932   4.300   3.964 -0.2198 -0.2455  1.7077
 8401SOL     OW26101   4.056   5.557   3.220  0.1761 -0.1666  0.1530
 8401SOL    HW126102   4.011   5.607   3.293  0.2181  1.1881 -0.7100
 8401SOL    HW226103   3.991   5.543   3.145  0.7486  0.4876 -0.4808
 8402SOL     OW26104   0.332   1.211   3.049  0.1020 -0.4167  0.5086
 8402SOL    HW126105   0.266   1.196   2.976  1.3473 -0.1199 -0.7133
 8402SOL    HW226106   0.346   1.310   3.061  0.0400 -0.4696  1.0238
 8403SOL     OW26107   6.448   5.417   2.727 -0.0481  0.1212  0.7197
 8403SOL    HW126108   6.516   5.476   2.683  2.7103 -1.3695  2.6546
 8403SOL    HW226109   6.420   5.346   2.662  0.1856  0.8088 -0.1497
 8404SOL     OW26110   2.262   1.707   1.609 -0.3607 -0.1317  0.0269
 8404SOL    HW126111   2.291   1.744   1.697 -0.7631  0.4354 -0.0687
 8404SOL    HW226112   2.308   1.620   1.592  0.5236  0.2670  0.3168
 8405SOL     OW26113   1.737   4.272   4.353  0.1447 -0.0886  0.2502
 8405SOL    HW126114   1.637   4.276   4.365  0.2333 -0.7380  1.3788
 8405SOL    HW226115   1.775   4.209   4.420  1.3727  0.5326  0.1547
 8406SOL     OW26116   6.278   2.176   6.609  0.3523 -0.7679  0.4555
 8406SOL    HW126117   6.254   2.211   6.699 -1.2645 -0.9915  0.1393
 8406SOL    HW226118   6.316   2.250   6.553  0.1693 -0.3295  0.9058
 8407SOL     OW26119   2.496   1.255   0.415  0.2410 -0.4538  0.8231
 8407SOL    HW126120   2.515   1.317   0.338  1.2708 -0.6245  0.9250
 8407SOL    HW226121   2.410   1.281   0.458  0.5313  0.7601  0.7046
 8408SOL     OW26122   1.487   6.099   3.323  0.5603  0.1192 -0.3110
 8408SOL    HW126123   1.467   6.036   3.247 -1.1557  0.5369 -0.2391
 8408SOL    HW226124   1.471   6.052   3.410  0.0872  0.3858 -0.2493
 8409SOL     OW26125   4.282   6.721   2.944 -0.2531 -0.0766 -0.3024
 8409SOL    HW126126   4.327   6.667   3.015  0.1319  0.2690 -0.2798
 8409SOL    HW226127   4.350   6.775   2.895 -0.4289 -0.8210 -1.3944
 8410SOL     OW26128   2.721   2.161   1.601 -0.4804 -0.2570 -0.3922
 8410SOL    HW126129   2.663   2.080   1.611 -1.6932  0.7214  0.6929
 8410SOL    HW226130   2.688   2.216   1.525 -0.1600 -0.3381 -0.5957
 8411SOL     OW26131   6.570   5.830   4.851  0.1923 -0.2546 -0.3290
 8411SOL    HW126132   6.488   5.783   4.882  1.5443 -1.5507  1.4927
 8411SOL    HW226133   6.569   5.924   4.883 -0.8536 -0.0685 -0.8743
 8412SOL     OW26134   2.472   2.632   3.119 -0.3666  0.4580  0.7827
 8412SOL    HW126135   2.528   2.619   3.201  0.6982  2.8978  0.5271
 8412SOL    HW226136   2.399   2.697   3.139 -1.6841 -0.8825  0.4488
 8413SOL     OW26137   3.929   5.643   5.162 -0.4530 -0.7176 -0.2263
 8413SOL    HW126138   3.989   5.603   5.231  3.1304  2.4917 -1.1647
 8413SOL    HW226139   3.837   5.653   5.199  0.8641 -0.8540  3.3965
 8414SOL     OW26140   4.508   5.032   0.941  0.2019 -0.5649  0.0203
 8414SOL    HW126141   4.444   4.965   0.902 -0.3288  0.1650 -0.3709
 8414SOL    HW226142   4.591   5.035   0.886  0.0907 -0.6566 -0.1518
 8415SOL     OW26143   2.089   3.616   4.411  0.3758 -0.2936 -0.7496
 8415SOL    HW126144   2.114   3.631   4.507 -1.7800  1.3560 -0.3627
 8415SOL    HW226145   2.097   3.519   4.389 -0.6978 -0.9992  1.6166
 8416SOL     OW26146   5.187   2.915   6.874 -0.2371 -0.0809  0.0583
 8416SOL    HW126147   5.127   2.854   6.925 -1.6318 -0.9545 -2.4765
 8416SOL    HW226148   5.153   3.009   6.881 -1.8764 -0.5493 -1.2290
 8417SOL     OW26149   1.055   4.996   0.122  0.4866 -0.0536  0.0748
 8417SOL    HW126150   1.039   5.053   0.042  1.7852 -0.5085 -0.5321
 8417SOL    HW226151   1.018   5.042   0.203 -0.0394  0.8305 -0.6437
 8418SOL     OW26152   0.474   2.580   5.528 -0.1783  0.3513  0.0539
 8418SOL    HW126153   0.449   2.493   5.570 -0.4182  1.1222  1.5647
 8418SOL    HW226154   0.545   2.564   5.459 -0.7873 -1.1255 -0.2748
 8419SOL     OW26155   4.631   6.693   4.307  0.1763  0.0087  0.0324
 8419SOL    HW126156   4.539   6.675   4.343 -0.4674 -0.1736 -1.6446
 8419SOL    HW226157   4.628   6.769   4.242  1.0327 -0.5989 -0.7458
 8420SOL     OW26158   1.234   5.313   4.023  0.0929  0.1788  0.0883
 8420SOL    HW126159   1.174   5.378   3.977 -0.1982 -1.8568 -2.6312
 8420SOL    HW226160   1.179   5.248   4.075 -0.0304 -0.8666 -1.2998
 8421SOL     OW26161   1.964   6.049   4.303 -0.1685  0.3975 -0.8417
 8421SOL    HW126162   2.040   5.983   4.309 -1.0183 -0.9513 -3.4776
 8421SOL    HW226163   1.884   6.010   4.347  0.8119  2.3917  3.2211
 8422SOL     OW26164   6.456   0.288   3.221  0.5377 -0.0073 -0.2307
 8422SOL    HW126165   6.482   0.370   3.170 -1.4688  1.4672  0.9708
 8422SOL    HW226166   6.452   0.209   3.159 -1.5914  1.6450 -2.3892
 8423SOL     OW26167   2.846   6.280   1.410  0.1885 -0.8513 -0.1185
 8423SOL    HW126168   2.832   6.252   1.315  0.1738 -2.6247  0.3708
 8423SOL    HW226169   2.940   6.262   1.436 -0.2056 -1.8516  0.6579
 8424SOL     OW26170   6.096   0.910   5.422  0.4586  0.4528  0.3554
 8424SOL    HW126171   6.043   0.955   5.494 -0.7253  2.8690 -1.8551
 8424SOL    HW226172   6.187   0.953   5.416  0.6899  0.0055  0.6383
 8425SOL     OW26173   1.168   1.970   0.398 -0.0215 -0.0575  0.1598
 8425SOL    HW126174   1.223   2.051   0.377  2.4639 -1.8025 -0.5951
 8425SOL    HW226175   1.158   1.961   0.497 -1.8617  2.0268  0.2470
 8426SOL     OW26176   1.761   2.167   3.871 -0.3845 -0.7631  0.2171
 8426SOL    HW126177   1.750   2.266   3.884  1.2949 -0.5806  0.4312
 8426SOL    HW226178   1.710   2.119   3.942 -2.4257 -0.1399 -0.7230
 8427SOL     OW26179   3.646   3.016   1.372 -0.0642  0.3650 -0.0162
 8427SOL    HW126180   3.644   2.928   1.325 -0.9311  0.7801 -0.7996
 8427SOL    HW226181   3.642   3.089   1.304 -0.2762  0.9916  0.6642
 8428SOL     OW26182   5.023   0.473   6.922 -0.1236 -0.5485 -0.1997
 8428SOL    HW126183   5.001   0.407   6.995 -0.2328 -1.1116 -0.7282
 8428SOL    HW226184   5.107   0.521   6.944  0.0246 -0.9605  0.1381
 8429SOL     OW26185   2.200   0.387   5.824  0.0864  0.3622  0.4556
 8429SOL    HW126186   2.172   0.328   5.748 -1.8212  1.5423  0.1815
 8429SOL    HW226187   2.171   0.345   5.910 -0.6882  0.5736  0.3044
 8430SOL     OW26188   0.849   2.111   6.066 -0.3609  0.2540  0.4142
 8430SOL    HW126189   0.850   2.211   6.068  2.4128  0.2931  1.1204
 8430SOL    HW226190   0.916   2.076   6.132 -0.3692 -2.0519 -0.7173
 8431SOL     OW26191   1.943   3.063   1.528  0.6737 -0.2486  0.2294
 8431SOL    HW126192   1.970   3.159   1.516 -0.0879  0.0584  0.8484
 8431SOL    HW226193   1.843   3.057   1.535  0.6822 -1.1508 -0.2791
 8432SOL     OW26194   7.006   2.962   6.477  0.0381 -0.2719  0.5108
 8432SOL    HW126195   6.964   3.036   6.530  0.2499  0.0175  0.2760
 8432SOL    HW226196   7.057   3.001   6.401 -2.0236 -0.7660 -1.2181
 8433SOL     OW26197   3.456   1.266   2.077  0.5139 -0.7311 -0.5237
 8433SOL    HW126198   3.424   1.360   2.071 -0.9361 -1.2740 -4.6453
 8433SOL    HW226199   3.556   1.265   2.079  0.5476  0.8867 -0.2613
 8434SOL     OW26200   6.623   4.776   2.778 -0.5412 -0.0111 -0.2019
 8434SOL    HW126201   6.561   4.757   2.853 -1.0442  1.5269 -0.2017
 8434SOL    HW226202   6.663   4.867   2.789  2.1056 -1.1140  0.0491
 8435SOL     OW26203   5.068   2.338   0.976 -0.0959  0.1244 -0.4316
 8435SOL    HW126204   5.009   2.270   0.932 -0.0002 -0.9868  1.0595
 8435SOL    HW226205   5.017   2.387   1.046  0.3922  0.0339 -0.0002
 8436SOL     OW26206   4.600   6.641   2.281  0.3720 -0.2590 -0.1325
 8436SOL    HW126207   4.593   6.689   2.368  1.3679 -0.5770  0.1388
 8436SOL    HW226208   4.566   6.699   2.207 -0.2907  0.0868  0.4426
 8437SOL     OW26209   1.190   6.818   0.836  0.0162  0.2464  0.4950
 8437SOL    HW126210   1.229   6.726   0.825  0.2179  0.4015 -0.1349
 8437SOL    HW226211   1.260   6.881   0.869 -0.7836 -0.3987  3.8084
 8438SOL     OW26212   4.423   1.521   4.192  0.4942  0.1386 -0.2313
 8438SOL    HW126213   4.447   1.444   4.133  0.0866 -0.9209  0.9315
 8438SOL    HW226214   4.507   1.569   4.218  0.7347  0.2309 -1.1391
 8439SOL     OW26215   0.730   6.798   2.861 -0.3104  0.0278  0.0932
 8439SOL    HW126216   0.647   6.827   2.814 -0.7851  0.9765  1.4445
 8439SOL    HW226217   0.718   6.707   2.899  0.3882 -1.1262 -2.2878
 8440SOL     OW26218   1.912   4.769   6.113  0.2365 -0.0960  0.0650
 8440SOL    HW126219   1.822   4.780   6.153 -0.1592 -1.1741 -0.4940
 8440SOL    HW226220   1.945   4.858   6.081 -0.7153  0.2720  0.0732
 8441SOL     OW26221   0.013   2.134   5.951  0.7529 -0.3421  0.5896
 8441SOL    HW126222  -0.054   2.110   6.021 -0.7737  0.1662 -0.6346
 8441SOL    HW226223  -0.024   2.207   5.894  1.8913 -0.8368 -0.8312
 8442SOL     OW26224   3.351   4.686   0.886  0.4032 -0.6803  0.2334
 8442SOL    HW126225   3.413   4.752   0.929 -0.4215 -0.2135  0.7169
 8442SOL    HW226226   3.304   4.633   0.957 -1.2321  0.3320 -0.0481
 8443SOL     OW26227   6.227   0.923   1.805  0.1073  0.0926  0.5860
 8443SOL    HW126228   6.325   0.941   1.806  0.6000 -2.1937 -0.2636
 8443SOL    HW226229   6.202   0.880   1.718 -1.8378  1.4382  0.4210
 8444SOL     OW26230   1.471   5.763   3.955  0.2052 -0.4786  0.0676
 8444SOL    HW126231   1.513   5.678   3.926  1.3079  0.3344 -0.7722
 8444SOL    HW226232   1.524   5.803   4.030 -0.6574 -0.8102  0.8850
 8445SOL     OW26233   2.411   4.946   1.528  0.0521 -0.0153  0.2683
 8445SOL    HW126234   2.321   4.989   1.525 -0.2060 -0.5779 -0.8334
 8445SOL    HW226235   2.480   5.010   1.493 -0.4525 -0.6928 -2.1806
 8446SOL     OW26236   6.519   0.261   2.131  0.0225  0.2310  0.1268
 8446SOL    HW126237   6.589   0.277   2.061  0.1058  0.0350  0.1650
 8446SOL    HW226238   6.510   0.163   2.147  1.3901  0.3391  1.7806
 8447SOL     OW26239   6.950   0.183   3.531 -0.1143  0.2093 -0.4595
 8447SOL    HW126240   6.953   0.262   3.592 -1.4326  0.9868 -1.3504
 8447SOL    HW226241   6.886   0.201   3.456  0.7685 -1.0789 -1.5716
 8448SOL     OW26242   4.859   4.389   2.164 -0.4829 -0.0053 -0.2099
 8448SOL    HW126243   4.762   4.409   2.178 -0.5540  0.7864 -1.6049
 8448SOL    HW226244   4.914   4.447   2.224 -0.8636 -0.9099  1.0482
 8449SOL     OW26245   0.428   1.523   2.058 -0.3890  0.2907 -0.3139
 8449SOL    HW126246   0.473   1.506   2.146  0.9325 -0.4922 -1.1120
 8449SOL    HW226247   0.486   1.490   1.984 -0.8575  2.1355 -1.5809
 8450SOL     OW26248   4.930   0.275   3.562  0.1031 -0.3932 -0.2972
 8450SOL    HW126249   4.933   0.178   3.588  1.2271 -0.2287  0.2276
 8450SOL    HW226250   5.022   0.306   3.539  0.0247  0.9596  1.0795
 8451SOL     OW26251   6.445   4.273   5.076  0.1581 -0.2907 -0.2303
 8451SOL    HW126252   6.537   4.260   5.111  1.3864  5.4263 -0.4275
 8451SOL    HW226253   6.382   4.288   5.152  0.0964 -0.7047 -0.1964
 8452SOL     OW26254   1.424   2.487   6.041 -0.0835 -0.0245 -0.6174
 8452SOL    HW126255   1.438   2.582   6.070  0.8058 -0.2083 -0.4342
 8452SOL    HW226256   1.420   2.484   5.941 -2.6185  0.5323 -0.6070
 8453SOL     OW26257   0.208   0.630   1.825 -0.0662 -0.0262 -0.1838
 8453SOL    HW126258   0.193   0.643   1.726 -0.0663  0.8457 -0.0751
 8453SOL    HW226259   0.272   0.554   1.839 -2.4052 -2.2550 -0.7414
 8454SOL     OW26260   6.074   4.735   2.489  0.2276 -0.1919  0.6756
 8454SOL    HW126261   6.042   4.820   2.529  1.0762 -0.1099  1.2107
 8454SOL    HW226262   6.006   4.701   2.424  0.2210  1.2966 -0.1489
 8455SOL     OW26263   4.276   0.514   2.342 -0.3576  0.5796 -0.0016
 8455SOL    HW126264   4.177   0.531   2.334 -1.0790 -0.5644  4.1724
 8455SOL    HW226265   4.291   0.422   2.376  2.3028  0.3671 -1.4997
 8456SOL     OW26266   0.684   6.383   2.756 -0.7332 -0.3286  0.4274
 8456SOL    HW126267   0.703   6.463   2.699 -0.4756 -0.0756  0.8675
 8456SOL    HW226268   0.765   6.361   2.810 -0.6256 -1.1971 -0.0651
 8457SOL     OW26269   5.486   0.820   4.963  0.3032  0.3042 -0.1089
 8457SOL    HW126270   5.515   0.874   5.043  0.1939  0.4451 -0.1646
 8457SOL    HW226271   5.502   0.873   4.880 -0.8666  0.7106 -0.0879
 8458SOL     OW26272   4.564   4.413   1.727  0.2544  0.7571 -0.6316
 8458SOL    HW126273   4.512   4.363   1.796 -0.2336  1.1500 -0.7049
 8458SOL    HW226274   4.530   4.390   1.636  0.2838  0.9294 -0.6867
 8459SOL     OW26275   3.120   6.566   2.129 -0.5641 -0.2666  0.3609
 8459SOL    HW126276   3.120   6.655   2.083 -2.3592  0.4602  1.6570
 8459SOL    HW226277   3.026   6.539   2.148 -0.0106 -2.1920  0.5180
 8460SOL     OW26278   5.226   3.791   6.154  0.1290  0.1614 -0.1014
 8460SOL    HW126279   5.244   3.710   6.099 -4.1099 -0.6355 -0.6953
 8460SOL    HW226280   5.208   3.765   6.248  1.6822  0.8282  0.4027
 8461SOL     OW26281   2.132   5.192   5.650 -0.5651  0.0656  0.4454
 8461SOL    HW126282   2.201   5.234   5.592  1.8348 -0.6267  2.5908
 8461SOL    HW226283   2.149   5.094   5.657  0.0121  0.2834  3.1633
 8462SOL     OW26284   6.077   0.534   4.792 -0.1433 -0.2274  0.0418
 8462SOL    HW126285   6.136   0.476   4.848  0.0029  0.2931  0.4377
 8462SOL    HW226286   5.982   0.517   4.815 -0.0497  0.8304  1.3294
 8463SOL     OW26287   6.444   4.923   2.061  0.3757 -0.5074  0.4812
 8463SOL    HW126288   6.500   4.954   1.984 -1.3550  1.7842  0.0112
 8463SOL    HW226289   6.381   4.852   2.030 -0.0516  0.1351 -0.1490
 8464SOL     OW26290   2.701   3.660   1.066 -0.1798 -0.3315  0.1573
 8464SOL    HW126291   2.756   3.717   1.006  0.1456 -0.0145  0.7533
 8464SOL    HW226292   2.623   3.623   1.015  0.9277 -1.3282 -0.8736
 8465SOL     OW26293   3.527   5.772   0.030  0.7082  0.1871  0.2242
 8465SOL    HW126294   3.490   5.684   0.060  0.0812  0.3022 -0.1816
 8465SOL    HW226295   3.592   5.757  -0.044 -0.4562  0.1506 -0.8184
 8466SOL     OW26296   1.872   2.663   5.814  0.5176  0.4577 -0.8593
 8466SOL    HW126297   1.957   2.630   5.854 -0.8833 -2.6728 -0.1306
 8466SOL    HW226298   1.866   2.633   5.719 -0.3649 -0.7095 -0.4669
 8467SOL     OW26299   4.383   2.075   5.438 -0.1406 -0.4683  0.9617
 8467SOL    HW126300   4.406   2.063   5.535  0.2012 -1.2169  0.7969
 8467SOL    HW226301   4.464   2.104   5.388  0.4446 -2.8167  0.4321
 8468SOL     OW26302   0.622   3.780   6.249 -0.1815 -0.2954  0.1466
 8468SOL    HW126303   0.644   3.762   6.345 -0.7982 -0.2460  0.3021
 8468SOL    HW226304   0.598   3.694   6.204 -2.6572 -0.0160  0.7672
 8469SOL     OW26305   3.110   1.689   2.745 -0.3149 -0.0732 -0.0392
 8469SOL    HW126306   3.074   1.604   2.707 -2.0946  1.6005 -2.4269
 8469SOL    HW226307   3.208   1.695   2.728 -0.3688 -1.1712 -0.7980
 8470SOL     OW26308   4.644   6.847   6.687 -0.4620  0.2173  0.3802
 8470SOL    HW126309   4.597   6.776   6.740 -0.4883 -0.9619 -1.1538
 8470SOL    HW226310   4.602   6.853   6.596  0.8904  0.7333 -0.2323
 8471SOL     OW26311   1.188   5.049   5.911  0.5173 -0.2819 -0.3392
 8471SOL    HW126312   1.216   5.096   5.828  2.5836 -0.7122  0.0611
 8471SOL    HW226313   1.236   5.088   5.990 -2.2231  0.8632  0.8820
 8472SOL     OW26314   6.402   5.580   3.922  0.6645 -0.1834  0.4733
 8472SOL    HW126315   6.324   5.530   3.960  0.0671  1.0402  0.9281
 8472SOL    HW226316   6.396   5.579   3.822 -0.7372  1.0524  0.5080
 8473SOL     OW26317   1.567   3.484   5.586 -0.1534 -0.3363  0.6046
 8473SOL    HW126318   1.578   3.518   5.679 -0.4242 -0.1975  0.5863
 8473SOL    HW226319   1.639   3.523   5.527 -0.6801  0.5116  0.5004
 8474SOL     OW26320   1.462   5.134   3.836 -0.0454  0.6221 -0.7013
 8474SOL    HW126321   1.380   5.112   3.890  0.1668 -0.1069 -0.6680
 8474SOL    HW226322   1.511   5.050   3.814  2.2053  1.1977  1.6578
 8475SOL     OW26323   0.763   4.070   0.398 -0.3022  0.0989 -0.5951
 8475SOL    HW126324   0.820   4.148   0.372 -2.2811  1.0054 -2.6114
 8475SOL    HW226325   0.725   4.086   0.489 -1.4498  2.0556 -1.3497
 8476SOL     OW26326   3.190   1.370   0.930  0.0960 -0.0440  0.0418
 8476SOL    HW126327   3.138   1.450   0.957  0.0931  0.1936 -0.6326
 8476SOL    HW226328   3.281   1.398   0.899  0.9531 -0.5276  1.9949
 8477SOL     OW26329   2.762   5.261   3.162 -0.0137 -0.4982 -0.0288
 8477SOL    HW126330   2.741   5.172   3.120  2.0511 -0.6100 -0.9248
 8477SOL    HW226331   2.840   5.252   3.223 -0.4326  0.5083  0.6809
 8478SOL     OW26332   6.375   1.702   5.662 -0.1925  0.1177 -0.5429
 8478SOL    HW126333   6.446   1.746   5.607 -0.7615  2.3221  0.3767
 8478SOL    HW226334   6.394   1.718   5.759 -0.7686 -1.1829 -0.2058
 8479SOL     OW26335   4.904   6.492   3.173  0.7990  0.2156 -0.0277
 8479SOL    HW126336   4.925   6.398   3.144  2.4183  0.6968 -0.5649
 8479SOL    HW226337   4.816   6.520   3.136  2.0301  0.2274 -3.2809
 8480SOL     OW26338   4.987   4.865   6.855  0.7592  0.2903 -0.4333
 8480SOL    HW126339   4.922   4.848   6.780  0.1662 -2.1220  0.5143
 8480SOL    HW226340   5.065   4.803   6.845  0.6756 -0.0569  0.9239
 8481SOL     OW26341   3.818   5.215   0.932  0.1923 -0.3822  0.4013
 8481SOL    HW126342   3.802   5.216   1.031 -1.6298 -1.1382  0.1677
 8481SOL    HW226343   3.784   5.129   0.894  0.4300  0.0894 -0.9449
 8482SOL     OW26344   2.131   4.730   4.477 -0.5237 -0.4973 -0.3456
 8482SOL    HW126345   2.067   4.681   4.536 -0.4789  0.2484  0.3400
 8482SOL    HW226346   2.223   4.696   4.491 -0.5512 -0.5015 -0.1781
 8483SOL     OW26347   1.156   4.728   2.263 -0.4534 -0.2442  0.1928
 8483SOL    HW126348   1.193   4.676   2.186 -0.3245  1.1256 -0.6907
 8483SOL    HW226349   1.231   4.766   2.316 -0.5571 -0.4260  0.4733
 8484SOL     OW26350   1.530   0.077   0.461  0.5968  0.4005 -0.3422
 8484SOL    HW126351   1.430   0.077   0.450  0.3234  1.6283  1.6780
 8484SOL    HW226352   1.563  -0.017   0.460 -1.0535 -0.3142  2.2529
 8485SOL     OW26353   5.537   0.700   2.061 -0.4143 -0.7159 -0.1169
 8485SOL    HW126354   5.458   0.641   2.040 -0.2591 -1.1386  0.4652
 8485SOL    HW226355   5.528   0.735   2.154  0.5068 -1.4553  0.2633
 8486SOL     OW26356   3.214   0.239   2.024  0.1656 -0.2636  0.1005
 8486SOL    HW126357   3.179   0.162   1.971  0.9886  0.2024 -1.1514
 8486SOL    HW226358   3.172   0.323   1.992  1.6104  0.1773 -0.7262
 8487SOL     OW26359   1.926   0.444   1.900 -0.4240  0.5797  0.1393
 8487SOL    HW126360   1.961   0.439   1.806 -1.9292  1.7260 -0.5152
 8487SOL    HW226361   1.830   0.417   1.901 -0.3752  0.4141  1.3928
 8488SOL     OW26362   5.325   3.035   5.128  0.5249  0.4028  0.3243
 8488SOL    HW126363   5.405   3.003   5.179  0.0460  1.3929  1.7722
 8488SOL    HW226364   5.273   3.099   5.185 -0.4227  1.0314 -1.1958
 8489SOL     OW26365   5.487   6.606   3.335  0.2206  0.3903 -0.3760
 8489SOL    HW126366   5.500   6.616   3.434  1.9455 -1.3638 -0.3684
 8489SOL    HW226367   5.404   6.554   3.317 -0.5768  1.4561  0.0720
 8490SOL     OW26368   3.143   2.522   6.297 -0.5434  0.1262 -0.3977
 8490SOL    HW126369   3.140   2.622   6.288 -1.7601 -0.0402 -2.6239
 8490SOL    HW226370   3.198   2.484   6.222 -1.1229 -0.9256 -0.3061
 8491SOL     OW26371   4.412   2.146   0.531  0.6583 -0.7495 -0.3352
 8491SOL    HW126372   4.369   2.234   0.510 -0.3353 -0.3648  2.7234
 8491SOL    HW226373   4.505   2.146   0.495  0.6171  1.4995 -0.6195
 8492SOL     OW26374   0.946   4.895   1.301 -0.4982  0.2112  0.3116
 8492SOL    HW126375   0.977   4.941   1.385 -0.7029 -0.2909  0.6694
 8492SOL    HW226376   1.025   4.869   1.246 -0.3536  0.3794  0.4360
 8493SOL     OW26377   1.965   6.469   0.299  0.1229 -0.0626 -0.4305
 8493SOL    HW126378   2.040   6.535   0.309  1.3191 -1.2101 -1.4964
 8493SOL    HW226379   1.962   6.409   0.378  0.8754 -0.5431 -0.7628
 8494SOL     OW26380   5.763   3.368   2.687 -0.0054  0.3508 -0.4600
 8494SOL    HW126381   5.856   3.394   2.712 -0.1809  0.1101  0.4768
 8494SOL    HW226382   5.699   3.433   2.727 -0.1894  1.4411 -2.3894
 8495SOL     OW26383   6.422   2.650   4.075  0.0181  0.7436  0.0932
 8495SOL    HW126384   6.471   2.620   3.993 -0.5171  0.7677 -0.2448
 8495SOL    HW226385   6.358   2.579   4.104 -1.4894  1.6395 -0.9018
 8496SOL     OW26386   4.660   6.918   2.131 -0.1511 -1.0225  0.3498
 8496SOL    HW126387   4.663   6.998   2.071  1.8738 -1.6943 -0.5510
 8496SOL    HW226388   4.658   6.947   2.227  0.3726  0.1003  0.0299
 8497SOL     OW26389   5.661   2.452   3.925 -0.1879 -0.7476 -0.1920
 8497SOL    HW126390   5.563   2.466   3.913 -0.1526 -0.0555  0.2590
 8497SOL    HW226391   5.678   2.414   4.016  0.0101 -0.2228 -0.0044
 8498SOL     OW26392   3.225   3.534   3.555  0.5036  0.3511  0.1867
 8498SOL    HW126393   3.257   3.629   3.563  1.3600  0.1222 -0.3418
 8498SOL    HW226394   3.298   3.472   3.585  0.1298 -0.1519  0.0665
 8499SOL     OW26395   0.811   2.549   2.038  0.1378 -0.4684  0.3738
 8499SOL    HW126396   0.800   2.561   2.137 -0.8952 -1.2840  0.3781
 8499SOL    HW226397   0.765   2.464   2.010  1.1770 -0.7091 -0.6673
 8500SOL     OW26398   6.313   4.572   6.897  0.3757 -0.0372  1.4479
 8500SOL    HW126399   6.255   4.654   6.898  0.4308  0.1706 -1.9161
 8500SOL    HW226400   6.399   4.593   6.851  0.7889 -1.7420  1.4011
 8501SOL     OW26401   2.574   3.208   6.579 -0.3237 -0.4388 -0.0428
 8501SOL    HW126402   2.493   3.250   6.621 -0.9331 -0.0806 -1.5072
 8501SOL    HW226403   2.551   3.115   6.550  0.0156 -0.5927  0.1792
 8502SOL     OW26404   3.153   2.024   5.407  0.6139 -0.5622  0.1918
 8502SOL    HW126405   3.198   2.004   5.319 -1.2623 -1.1334 -0.6842
 8502SOL    HW226406   3.121   2.118   5.407  1.4661 -0.2620  0.6780
 8503SOL     OW26407   3.861   1.799   0.864  0.4898 -0.5669  0.0738
 8503SOL    HW126408   3.803   1.808   0.783 -0.3992  1.9171  0.8966
 8503SOL    HW226409   3.828   1.723   0.920 -3.3798  1.8612  1.4633
 8504SOL     OW26410   1.480   2.396   6.518 -0.1517 -0.0206 -0.0060
 8504SOL    HW126411   1.555   2.338   6.550  0.3659  0.8741  0.4369
 8504SOL    HW226412   1.394   2.363   6.558 -0.0719 -1.2763 -0.8083
 8505SOL     OW26413   4.640   1.524   6.241  0.1336 -0.3944  0.1865
 8505SOL    HW126414   4.652   1.437   6.287 -2.3241 -1.4034 -0.8747
 8505SOL    HW226415   4.586   1.585   6.298 -0.2465 -0.4980 -0.0552
 8506SOL     OW26416   1.010   4.217   3.018  0.5813 -0.9316 -0.0996
 8506SOL    HW126417   0.971   4.178   2.935 -0.6235 -1.0116  0.4850
 8506SOL    HW226418   1.038   4.143   3.079 -1.1621 -0.9411  0.7570
 8507SOL     OW26419   5.943   4.289   5.393 -0.3405  0.2003 -0.3404
 8507SOL    HW126420   6.020   4.257   5.448 -0.6651 -1.6901 -0.9188
 8507SOL    HW226421   5.868   4.316   5.454  0.5174  1.4745  0.2064
 8508SOL     OW26422   6.583   5.884   0.692  0.0248 -0.1984  0.2421
 8508SOL    HW126423   6.517   5.946   0.649 -0.9931 -0.1016  1.8694
 8508SOL    HW226424   6.629   5.931   0.767  1.5410 -0.4758 -0.4665
 8509SOL     OW26425   0.304   5.260   5.717  0.4224 -0.8039  0.6525
 8509SOL    HW126426   0.346   5.193   5.777  1.3418 -1.0342 -0.2185
 8509SOL    HW226427   0.288   5.220   5.627 -1.0333 -0.4986  0.7516
 8510SOL     OW26428   0.844   5.009   6.122 -0.9823  0.2352  0.0001
 8510SOL    HW126429   0.880   5.001   6.215 -0.3468  1.1265 -0.1449
 8510SOL    HW226430   0.885   4.938   6.064 -1.1200 -0.1106  0.3259
 8511SOL     OW26431   0.513   1.463   1.713  0.8871  0.5280  0.8916
 8511SOL    HW126432   0.508   1.366   1.688 -3.1996  0.7044  0.2796
 8511SOL    HW226433   0.487   1.519   1.635  4.2348  2.3425  0.9055
 8512SOL     OW26434   4.120   2.719   6.606 -0.2740  0.5089  0.0537
 8512SOL    HW126435   4.131   2.620   6.607 -3.4374  0.0361  0.0656
 8512SOL    HW226436   4.209   2.763   6.595  1.1705 -2.3153 -0.4202
 8513SOL     OW26437   6.647   5.130   4.868 -0.0121  0.2005  0.4590
 8513SOL    HW126438   6.695   5.080   4.940  0.5072  1.7601  1.2407
 8513SOL    HW226439   6.711   5.154   4.796 -0.1914  0.0550  0.2476
 8514SOL     OW26440   4.764   7.001   3.450  0.4789  0.1011 -0.4307
 8514SOL    HW126441   4.804   7.011   3.541 -1.2655 -0.4635  0.4374
 8514SOL    HW226442   4.710   7.083   3.429 -1.0141 -0.7435  0.0416
 8515SOL     OW26443   5.742   6.494   3.194  0.1148  0.1563  0.0512
 8515SOL    HW126444   5.741   6.520   3.097  2.0189  0.9669  0.2030
 8515SOL    HW226445   5.664   6.535   3.240 -0.0975  0.8429 -0.8854
 8516SOL     OW26446   2.206   3.161   1.340 -0.8012  0.1886 -0.1357
 8516SOL    HW126447   2.253   3.177   1.427 -0.7510 -0.6720  0.0052
 8516SOL    HW226448   2.234   3.230   1.273  0.3823 -0.0847  0.0567
 8517SOL     OW26449   3.284   2.578   6.595  0.0088  0.1298  0.2185
 8517SOL    HW126450   3.187   2.602   6.602  0.1377  0.5964  0.4360
 8517SOL    HW226451   3.297   2.513   6.520 -0.2922  1.0408 -0.6399
 8518SOL     OW26452   6.545   5.315   0.290  0.1484 -0.6932 -0.6001
 8518SOL    HW126453   6.556   5.351   0.383 -2.5035  1.3066 -0.9483
 8518SOL    HW226454   6.627   5.336   0.236 -0.0349  2.1688  0.1083
 8519SOL     OW26455   2.964   6.120   3.067  0.1641  0.2536  0.8219
 8519SOL    HW126456   2.994   6.066   2.988 -0.8029  1.6623 -0.5886
 8519SOL    HW226457   2.979   6.068   3.151  1.0606 -1.3849 -0.2899
 8520SOL     OW26458   3.679   3.347   5.385  0.2460 -0.2495  0.0511
 8520SOL    HW126459   3.665   3.436   5.340  1.7138  0.5035  0.9991
 8520SOL    HW226460   3.680   3.275   5.316 -0.2860  0.5381 -0.8105
 8521SOL     OW26461   5.221   3.667   6.387  0.4484  0.0099 -0.9453
 8521SOL    HW126462   5.267   3.701   6.469 -0.2238 -0.4371 -0.3711
 8521SOL    HW226463   5.268   3.586   6.353  0.4119 -0.1212 -0.6851
 8522SOL     OW26464   4.388   2.406   3.656 -0.4447 -0.1288 -0.2940
 8522SOL    HW126465   4.376   2.360   3.744 -1.0414  0.4097 -0.0844
 8522SOL    HW226466   4.412   2.502   3.671 -1.5018  0.2131 -0.6989
 8523SOL     OW26467   2.369   2.400   1.549  0.5345  0.0257  0.1325
 8523SOL    HW126468   2.394   2.346   1.630 -0.0053  0.0432  0.3119
 8523SOL    HW226469   2.322   2.483   1.577  1.7238  0.8020 -0.1272
 8524SOL     OW26470   3.265   3.183   0.767  0.4342 -0.2953 -0.4498
 8524SOL    HW126471   3.265   3.281   0.748  1.0524  0.3171  2.2692
 8524SOL    HW226472   3.173   3.155   0.796  0.6781 -0.0818  0.5719
 8525SOL     OW26473   2.126   3.794   3.046  0.1836  0.5233 -0.2758
 8525SOL    HW126474   2.125   3.828   2.952 -0.0945 -0.5677 -0.6876
 8525SOL    HW226475   2.043   3.824   3.093 -0.5650 -0.3908 -0.9549
 8526SOL     OW26476   0.684   1.348   1.407 -0.0264  0.4967  0.6801
 8526SOL    HW126477   0.612   1.404   1.365 -0.6223  0.0187  1.0419
 8526SOL    HW226478   0.643   1.288   1.476  0.6949  0.0669  0.7405
 8527SOL     OW26479   4.157   1.545   2.930 -0.5013 -0.4794 -1.0689
 8527SOL    HW126480   4.181   1.567   2.836  1.7734  0.2089 -0.4209
 8527SOL    HW226481   4.156   1.446   2.943 -2.2536 -0.6269 -2.0967
 8528SOL     OW26482   3.900   0.672   1.916 -0.1191  0.2342 -0.0830
 8528SOL    HW126483   3.882   0.765   1.946 -0.0668 -0.6489  2.9788
 8528SOL    HW226484   3.909   0.612   1.995 -0.6941 -2.5181 -1.9459
 8529SOL     OW26485   2.451   2.696   5.156 -0.2867 -0.2927 -0.5198
 8529SOL    HW126486   2.440   2.788   5.119 -0.1639  0.2035  0.6494
 8529SOL    HW226487   2.363   2.662   5.188 -0.0340  0.1253  0.6508
 8530SOL     OW26488   6.299   6.610   1.119 -0.1300  0.5471  0.6974
 8530SOL    HW126489   6.223   6.545   1.111 -1.2404  1.8802  0.1371
 8530SOL    HW226490   6.385   6.559   1.119 -0.7990 -0.8122 -2.2623
 8531SOL     OW26491   1.544   1.648   6.069 -0.1901  0.1403  0.5071
 8531SOL    HW126492   1.490   1.689   6.142 -0.1887  0.0615  0.5529
 8531SOL    HW226493   1.523   1.550   6.063 -0.2747  0.1686  0.3283
 8532SOL     OW26494   3.924   4.171   5.233  0.0474 -0.2129  0.3953
 8532SOL    HW126495   3.877   4.155   5.146 -1.4046  0.8838  0.9291
 8532SOL    HW226496   3.998   4.105   5.244 -0.4843 -1.1144 -1.1366
 8533SOL     OW26497   3.198   4.393   6.418  0.3758  0.4345  0.2663
 8533SOL    HW126498   3.236   4.324   6.356 -0.5673 -1.7191  1.9558
 8533SOL    HW226499   3.152   4.348   6.494 -2.1781  2.9236  0.3883
 8534SOL     OW26500   4.372   1.331   2.044  0.2516 -1.0353  0.2221
 8534SOL    HW126501   4.425   1.344   1.960  0.2726 -1.5415  0.1549
 8534SOL    HW226502   4.433   1.302   2.118  0.6160  1.4326  0.9916
 8535SOL     OW26503   1.645   0.644   0.215 -0.0593  0.4914  0.2886
 8535SOL    HW126504   1.647   0.552   0.175 -1.9459  0.1865  0.7513
 8535SOL    HW226505   1.652   0.712   0.143 -2.8584 -0.0482 -0.6116
 8536SOL     OW26506   5.703   2.675   1.762  0.8189  0.1096  0.2303
 8536SOL    HW126507   5.775   2.631   1.709 -1.3231 -1.6904 -1.3624
 8536SOL    HW226508   5.700   2.636   1.854  1.3185 -0.4135  0.0294
 8537SOL     OW26509   4.338   1.668   3.464  0.1445 -0.4267 -0.0936
 8537SOL    HW126510   4.257   1.724   3.448  0.3093  0.9599  3.1091
 8537SOL    HW226511   4.357   1.612   3.383 -1.6463  2.0799 -2.4172
 8538SOL     OW26512   0.007   3.528   3.656  0.3862 -0.1877 -0.0226
 8538SOL    HW126513   0.017   3.621   3.620  1.4893 -1.7709 -4.4115
 8538SOL    HW226514  -0.090   3.502   3.653  0.4113 -0.2204 -2.0783
 8539SOL     OW26515   5.216   4.002   0.778 -0.0472  0.1972 -0.2872
 8539SOL    HW126516   5.314   4.013   0.790  0.0083 -1.2844  0.8754
 8539SOL    HW226517   5.195   3.991   0.680  1.3324 -2.4245 -0.3780
 8540SOL     OW26518   0.028   1.752   0.885 -0.7217 -0.3929 -0.3752
 8540SOL    HW126519   0.006   1.779   0.791 -0.9760 -1.0735 -0.5236
 8540SOL    HW226520  -0.056   1.754   0.940 -0.2964  1.5418  0.2487
 8541SOL     OW26521   0.980   4.332   5.491  0.3617 -0.0612 -0.9166
 8541SOL    HW126522   0.957   4.374   5.403  2.4200 -0.2204 -1.5800
 8541SOL    HW226523   1.060   4.378   5.531  0.0540 -0.6237  0.4156
 8542SOL     OW26524   1.387   6.237   1.375  0.7813  0.2667  0.0023
 8542SOL    HW126525   1.405   6.298   1.452 -0.8428 -0.0501  0.6616
 8542SOL    HW226526   1.308   6.270   1.324  0.5329 -0.7026 -0.2577
 8543SOL     OW26527   5.835   3.385   5.660  0.7480  0.4018  0.3471
 8543SOL    HW126528   5.862   3.375   5.564 -0.4795  1.2474 -0.1191
 8543SOL    HW226529   5.916   3.381   5.718  1.6673  1.0959 -0.8314
 8544SOL     OW26530   2.121   4.975   6.135  0.5710  0.2187 -0.1250
 8544SOL    HW126531   2.161   4.970   6.227 -0.2674 -1.8812  0.2020
 8544SOL    HW226532   2.186   4.939   6.068 -1.1225 -5.3766  0.6724
 8545SOL     OW26533   0.474   1.942   5.006 -0.3203  0.0062  0.5310
 8545SOL    HW126534   0.418   1.869   4.968  0.7823  0.0400 -1.3317
 8545SOL    HW226535   0.477   1.935   5.105 -0.1501 -2.5645  0.3962
 8546SOL     OW26536   5.172   1.503   4.267 -0.6929  0.1591  0.5732
 8546SOL    HW126537   5.237   1.577   4.250  0.0480 -0.9185 -1.6030
 8546SOL    HW226538   5.219   1.427   4.313 -0.7391 -0.1099  0.1748
 8547SOL     OW26539   5.883   5.555   2.653  0.3738 -0.0824 -0.1710
 8547SOL    HW126540   5.869   5.569   2.751  2.2065  0.2668  0.0827
 8547SOL    HW226541   5.814   5.606   2.602 -1.2800 -1.1388  0.9144
 8548SOL     OW26542   5.959   0.195   0.797 -0.4435  0.3824  0.0907
 8548SOL    HW126543   5.937   0.099   0.816 -0.2137  0.6416  1.8137
 8548SOL    HW226544   5.878   0.251   0.812 -0.1503  0.6476  0.7006
 8549SOL     OW26545   4.900   1.038   3.895 -0.7461 -0.1799 -0.1209
 8549SOL    HW126546   4.997   1.030   3.874 -0.8611 -0.7839 -0.4716
 8549SOL    HW226547   4.872   0.962   3.954 -0.5522  1.1824  1.8233
 8550SOL     OW26548   5.851   3.002   1.603 -0.3307  0.3160 -0.2312
 8550SOL    HW126549   5.822   3.007   1.507 -0.5357 -0.8125 -0.2366
 8550SOL    HW226550   5.942   2.962   1.608  0.4444  2.0158 -0.0619
 8551SOL     OW26551   3.612   1.502   4.972  0.6477  0.3242 -0.8941
 8551SOL    HW126552   3.595   1.600   4.973 -0.0958  0.2041 -1.1510
 8551SOL    HW226553   3.532   1.454   5.008  0.6393 -0.2360 -1.6423
 8552SOL     OW26554   1.957   3.349   0.565  0.0287 -0.7481 -0.1622
 8552SOL    HW126555   1.925   3.331   0.472 -0.0081 -4.0039  0.3722
 8552SOL    HW226556   1.887   3.321   0.631  0.6141  0.1687  0.8781
 8553SOL     OW26557   6.106   6.311   6.030 -0.1717 -0.3419  0.4672
 8553SOL    HW126558   6.060   6.395   6.060 -0.7419  0.4137 -2.2131
 8553SOL    HW226559   6.202   6.315   6.057  0.3250  2.2132 -1.2715
 8554SOL     OW26560   4.644   6.245   0.436  0.1387 -0.2808 -1.0918
 8554SOL    HW126561   4.592   6.233   0.352 -0.8586 -0.0047 -0.5209
 8554SOL    HW226562   4.710   6.319   0.424  0.3100 -0.5314 -1.7673
 8555SOL     OW26563   1.519   4.525   4.440 -0.3599 -0.1611  0.0748
 8555SOL    HW126564   1.528   4.429   4.464 -1.2083 -0.1669  0.3691
 8555SOL    HW226565   1.467   4.534   4.355 -4.0057  0.1726  2.1370
 8556SOL     OW26566   1.816   0.669   6.593 -0.1825 -0.2707  0.6433
 8556SOL    HW126567   1.803   0.691   6.690 -2.8180 -2.1513  0.8158
 8556SOL    HW226568   1.737   0.701   6.541  0.8422  0.0000 -0.7991
 8557SOL     OW26569   4.748   1.868   2.003 -0.2157  0.1937  0.0635
 8557SOL    HW126570   4.794   1.875   2.091 -1.5911 -0.5569  0.8833
 8557SOL    HW226571   4.816   1.851   1.931  0.8945  0.5026  1.0061
 8558SOL     OW26572   5.904   6.075   4.052 -0.2438 -0.0885 -0.3813
 8558SOL    HW126573   5.992   6.033   4.071  0.4301  1.3342 -0.2230
 8558SOL    HW226574   5.897   6.096   3.955  0.4184  1.5341 -0.1041
 8559SOL     OW26575   2.853   0.738   4.357 -0.3568  0.6666  0.2495
 8559SOL    HW126576   2.936   0.751   4.304 -0.0980  0.9565  0.7244
 8559SOL    HW226577   2.828   0.641   4.356  0.5168  0.4239  0.8959
 8560SOL     OW26578   5.793   1.477   3.462  0.1669 -0.3345  0.1439
 8560SOL    HW126579   5.887   1.473   3.427  0.2873 -0.5805  0.4905
 8560SOL    HW226580   5.729   1.485   3.385  0.4326 -0.8400 -0.1346
 8561SOL     OW26581   1.218   0.645   5.741  0.1617  0.7082  1.0561
 8561SOL    HW126582   1.195   0.698   5.823 -0.1944 -0.1555  1.5268
 8561SOL    HW226583   1.317   0.627   5.740  0.1422  0.5844  1.3708
 8562SOL     OW26584   1.725   6.724   6.024  0.0136 -0.3383  0.2164
 8562SOL    HW126585   1.791   6.747   5.953 -1.6746  1.7200 -0.7726
 8562SOL    HW226586   1.644   6.684   5.983 -0.6336  0.0835  1.0534
 8563SOL     OW26587   0.044   5.476   6.482 -0.3360 -0.1502 -0.2916
 8563SOL    HW126588   0.139   5.448   6.473  0.1130  1.1168  0.3365
 8563SOL    HW226589  -0.007   5.407   6.533  1.0127  0.6567  2.2844
 8564SOL     OW26590   0.626   0.594   2.306  0.1357  0.2628 -0.8960
 8564SOL    HW126591   0.540   0.554   2.275  0.1491 -0.8243  0.3723
 8564SOL    HW226592   0.703   0.550   2.259  0.1204 -0.8759  0.0835
 8565SOL     OW26593   6.081   3.371   2.650 -0.1389  0.0587  0.1429
 8565SOL    HW126594   6.082   3.296   2.583  3.4871  0.1537 -0.1134
 8565SOL    HW226595   6.078   3.459   2.602  0.8110  0.0985  0.1283
 8566SOL     OW26596   1.136   6.101   4.821  0.0881  0.0293 -0.2746
 8566SOL    HW126597   1.096   6.174   4.876 -0.6703  0.4979 -1.4014
 8566SOL    HW226598   1.129   6.014   4.869 -0.4781  0.4390  0.3905
 8567SOL     OW26599   1.822   1.268   5.416  0.0782 -0.2668  0.2024
 8567SOL    HW126600   1.790   1.189   5.467  0.3047  0.0284  0.8033
 8567SOL    HW226601   1.794   1.259   5.320  2.1965 -2.2849 -0.3272
 8568SOL     OW26602   4.986   4.778   6.010 -0.3061  0.1607 -0.4123
 8568SOL    HW126603   4.931   4.818   5.937 -2.6620  2.0570  2.2120
 8568SOL    HW226604   4.964   4.681   6.019 -2.0660  0.5205 -0.4903
 8569SOL     OW26605   0.082   0.216   5.477 -0.2384  0.2550  0.7776
 8569SOL    HW126606  -0.015   0.192   5.483  0.0631 -1.2958  0.1576
 8569SOL    HW226607   0.115   0.247   5.566 -1.2873  0.7766  0.9966
 8570SOL     OW26608   5.027   2.767   5.181 -0.4853 -0.0834  0.4352
 8570SOL    HW126609   5.122   2.774   5.151 -0.5409 -0.6181  0.1130
 8570SOL    HW226610   5.010   2.675   5.217 -0.7758  0.1329  0.8630
 8571SOL     OW26611   0.367   3.395   3.876 -0.7761 -0.0452  0.0107
 8571SOL    HW126612   0.420   3.467   3.921 -2.6746  1.9305 -0.7597
 8571SOL    HW226613   0.318   3.341   3.945  1.6549 -1.5527  0.6926
 8572SOL     OW26614   4.015   6.253   4.628 -0.0583  0.7465 -0.1854
 8572SOL    HW126615   4.044   6.242   4.723  0.4965  2.1433 -0.1719
 8572SOL    HW226616   3.916   6.265   4.624 -0.1359  0.2423  0.1646
 8573SOL     OW26617   1.051   6.720   5.449  0.0583  0.3063 -0.3481
 8573SOL    HW126618   1.109   6.795   5.482 -0.1735  0.3035  0.0758
 8573SOL    HW226619   0.985   6.756   5.383  1.7869 -0.0142 -2.3793
 8574SOL     OW26620   2.327   6.817   1.344 -0.3688  0.5769 -0.3179
 8574SOL    HW126621   2.337   6.738   1.283  0.9682  1.8101 -1.7699
 8574SOL    HW226622   2.409   6.874   1.338 -0.7380  1.3924  1.7309
 8575SOL     OW26623   5.670   0.552   3.025 -0.3230  0.1159  0.1474
 8575SOL    HW126624   5.625   0.528   2.939  0.6905  1.9502 -0.9577
 8575SOL    HW226625   5.628   0.634   3.064  0.7305  0.6896  0.1352
 8576SOL     OW26626   3.318   1.551   1.364 -0.1053  0.1351  0.0279
 8576SOL    HW126627   3.221   1.557   1.389  0.2990  0.2291  1.6938
 8576SOL    HW226628   3.350   1.457   1.375 -0.7800 -0.7407 -3.8616
 8577SOL     OW26629   2.998   1.157   2.527  0.4109 -0.3556  0.2278
 8577SOL    HW126630   2.980   1.075   2.473 -1.0207 -1.4200  2.2112
 8577SOL    HW226631   3.018   1.234   2.466 -0.0977 -1.7240 -1.7402
 8578SOL     OW26632   0.747   0.183   5.873 -0.6714  0.5096 -1.1491
 8578SOL    HW126633   0.752   0.153   5.778  2.5086  0.7301 -1.1846
 8578SOL    HW226634   0.788   0.113   5.932 -1.5579  0.8694 -0.0810
 8579SOL     OW26635   1.254   2.255   6.588  0.8468 -0.0370 -0.4604
 8579SOL    HW126636   1.273   2.158   6.574  2.2223  0.1015  0.2104
 8579SOL    HW226637   1.177   2.265   6.651 -0.0445 -0.6694 -1.4176
 8580SOL     OW26638   1.120   1.957   5.027  0.0893  0.1313 -0.0728
 8580SOL    HW126639   1.117   1.858   5.043  0.3836 -0.3764 -2.6424
 8580SOL    HW226640   1.095   1.976   4.932 -1.7014  2.7153  0.7881
 8581SOL     OW26641   6.553   5.303   1.528 -0.1244 -0.5520 -0.5669
 8581SOL    HW126642   6.653   5.315   1.527  0.3022 -3.4196  0.2593
 8581SOL    HW226643   6.517   5.335   1.615  0.2747 -0.7574 -0.3234
 8582SOL     OW26644   4.276   0.472   3.258 -0.4211 -0.2398  0.1773
 8582SOL    HW126645   4.205   0.426   3.312  0.2559  1.5227  2.7557
 8582SOL    HW226646   4.239   0.497   3.169 -2.5253 -0.7636  0.8444
 8583SOL     OW26647   5.071   2.685   3.517  0.4313  0.3722  0.4340
 8583SOL    HW126648   5.027   2.767   3.480 -0.3971 -0.8687 -1.4947
 8583SOL    HW226649   5.016   2.604   3.494  1.8179 -0.8592  1.2653
 8584SOL     OW26650   3.292   4.408   1.455  0.1224 -0.0303  0.4796
 8584SOL    HW126651   3.198   4.374   1.445  0.1955 -0.4530  1.1509
 8584SOL    HW226652   3.290   4.497   1.502  0.0629 -0.1224  0.6551
 8585SOL     OW26653   6.385   2.027   2.200 -0.4480 -0.1239  0.1951
 8585SOL    HW126654   6.435   2.093   2.144 -0.9836  1.1850  1.2278
 8585SOL    HW226655   6.314   2.074   2.253 -0.4070 -1.4182  1.4555
 8586SOL     OW26656   4.789   1.114   5.197 -0.1577 -0.7969  0.3344
 8586SOL    HW126657   4.869   1.127   5.256  0.7983 -1.3230 -0.8013
 8586SOL    HW226658   4.769   1.199   5.148 -1.4058 -0.1395  1.9225
 8587SOL     OW26659   5.121   5.499   1.264  1.1972  0.3360 -0.2096
 8587SOL    HW126660   5.144   5.421   1.321  0.4699 -0.8099 -1.4402
 8587SOL    HW226661   5.183   5.575   1.285  2.9100 -1.0534 -0.0558
 8588SOL     OW26662   4.802   6.547   4.119  0.5638  0.5741  0.2196
 8588SOL    HW126663   4.746   6.560   4.201 -2.6337 -1.2312 -1.4993
 8588SOL    HW226664   4.798   6.630   4.063 -1.9523 -0.0287 -0.6435
 8589SOL     OW26665   6.395   1.226   6.929 -0.2704  0.0366 -0.1538
 8589SOL    HW126666   6.453   1.296   6.888 -0.9991 -0.1322 -1.5652
 8589SOL    HW226667   6.375   1.155   6.860 -0.7013 -0.8184  0.8206
 8590SOL     OW26668   3.606   6.330   4.911 -0.0196 -0.0033  0.1978
 8590SOL    HW126669   3.595   6.408   4.972 -1.8673  0.2891 -0.4574
 8590SOL    HW226670   3.523   6.275   4.911  0.2703 -0.4878 -1.3825
 8591SOL     OW26671   1.053   3.987   0.089 -0.1504 -0.3528  0.8953
 8591SOL    HW126672   1.116   3.919   0.126  1.3431 -0.9181 -2.3227
 8591SOL    HW226673   1.104   4.069   0.064 -0.6554 -0.6491 -1.3614
 8592SOL     OW26674   2.134   6.457   3.578 -0.1296 -0.5226  0.0076
 8592SOL    HW126675   2.113   6.499   3.490 -1.0078 -1.1529 -0.0933
 8592SOL    HW226676   2.055   6.406   3.611  0.5726 -1.2652  0.6072
 8593SOL     OW26677   5.925   0.465   1.433  0.4041  0.0212 -0.1848
 8593SOL    HW126678   5.884   0.529   1.499  1.3561 -0.6551  1.1108
 8593SOL    HW226679   5.967   0.389   1.483  0.7717 -0.7478 -1.6218
 8594SOL     OW26680   6.632   0.151   4.503  0.2606 -0.0035  0.2151
 8594SOL    HW126681   6.618   0.233   4.447  0.5104  1.5445  2.2987
 8594SOL    HW226682   6.728   0.146   4.531  0.0188 -0.4159  0.9891
 8595SOL     OW26683   5.722   5.066   1.804  0.4827  0.2402  0.1082
 8595SOL    HW126684   5.772   5.152   1.792  1.8881 -0.4823  0.4423
 8595SOL    HW226685   5.679   5.040   1.718  0.6452  0.9301 -0.1888
 8596SOL     OW26686   3.603   6.105   3.833  0.0806 -0.1945  0.0866
 8596SOL    HW126687   3.534   6.136   3.768  0.2965  0.8398  0.3469
 8596SOL    HW226688   3.581   6.138   3.924  1.6177  1.3082 -0.0447
 8597SOL     OW26689   6.141   2.842   1.604 -0.1630 -0.1285 -0.0057
 8597SOL    HW126690   6.177   2.769   1.548  0.8094 -0.8328  1.4754
 8597SOL    HW226691   6.181   2.837   1.696  0.5500  2.7226 -0.0619
 8598SOL     OW26692   6.391   6.918   4.057 -0.1638 -0.1972  0.0995
 8598SOL    HW126693   6.441   6.944   4.139  1.7078 -0.1683 -0.9896
 8598SOL    HW226694   6.354   6.825   4.069  2.4262 -1.3330  0.0523
 8599SOL     OW26695   2.392   0.572   5.235  0.0480 -0.0845 -0.7401
 8599SOL    HW126696   2.448   0.496   5.268  0.2724  0.0814 -0.7409
 8599SOL    HW226697   2.344   0.614   5.312  0.3943  0.1577 -0.6544
 8600SOL     OW26698   1.102   0.195   5.380  0.0165 -0.1527 -0.0773
 8600SOL    HW126699   1.051   0.183   5.466 -0.3497  0.8300 -0.1503
 8600SOL    HW226700   1.056   0.144   5.307 -0.6405  0.4001 -0.0553
 8601SOL     OW26701   6.185   1.959   0.078  0.4567 -0.0737  0.0286
 8601SOL    HW126702   6.160   2.020   0.153 -0.1504 -0.8754  0.4980
 8601SOL    HW226703   6.260   1.999   0.025  1.6168  0.0110  1.6929
 8602SOL     OW26704   2.316   4.800   3.918 -0.3880 -0.1667 -0.3474
 8602SOL    HW126705   2.373   4.817   3.838  1.8829 -1.9407  0.7728
 8602SOL    HW226706   2.330   4.873   3.985 -1.0097  0.4334 -0.8507
 8603SOL     OW26707   1.774   5.360   0.042 -0.0777  0.5100  0.7502
 8603SOL    HW126708   1.725   5.313  -0.032 -1.2152  0.5058  1.4847
 8603SOL    HW226709   1.866   5.322   0.050 -0.4223 -0.4571  0.2604
 8604SOL     OW26710   2.828   1.415   0.833  0.4004 -0.3180 -0.3799
 8604SOL    HW126711   2.913   1.460   0.805 -1.3161  2.0356 -2.2196
 8604SOL    HW226712   2.782   1.470   0.903 -0.9654 -0.0090 -1.4806
 8605SOL     OW26713   1.665   5.362   4.772  0.2712  0.1925 -0.3096
 8605SOL    HW126714   1.730   5.286   4.775 -1.6431 -1.5846 -1.3006
 8605SOL    HW226715   1.674   5.410   4.685  0.0010 -0.3058 -0.6168
 8606SOL     OW26716   4.133   5.727   2.146  0.0653 -0.4702 -0.2768
 8606SOL    HW126717   4.118   5.629   2.135 -2.8215 -0.2198  0.5084
 8606SOL    HW226718   4.102   5.775   2.064 -0.8430 -0.0825  0.2767
 8607SOL     OW26719   0.282   6.373   6.280 -0.0852 -0.0168  0.3728
 8607SOL    HW126720   0.303   6.349   6.375  0.0382 -0.7495  0.1647
 8607SOL    HW226721   0.361   6.418   6.239  0.7706 -1.8653 -0.1012
 8608SOL     OW26722   6.331   1.897   5.127 -0.1122 -0.5631  0.3015
 8608SOL    HW126723   6.333   1.944   5.039  1.5461 -0.6501  0.2656
 8608SOL    HW226724   6.248   1.922   5.176 -0.4100  0.5362 -0.7193
 8609SOL     OW26725   0.639   5.487   6.489 -0.1764  0.2718  0.0045
 8609SOL    HW126726   0.560   5.481   6.428  1.2143  2.0028 -2.1101
 8609SOL    HW226727   0.714   5.433   6.452  0.8039  1.6133 -0.0389
 8610SOL     OW26728   5.146   2.718   0.551  0.0399 -0.0775  0.0054
 8610SOL    HW126729   5.135   2.688   0.646  0.6881 -1.3615 -0.2966
 8610SOL    HW226730   5.137   2.818   0.546 -0.2892 -0.0195  1.3653
 8611SOL     OW26731   5.625   2.979   4.750 -0.0892  0.3569  0.1740
 8611SOL    HW126732   5.607   2.944   4.658  0.6442  2.1152 -0.6968
 8611SOL    HW226733   5.545   2.963   4.808  0.1338 -2.5035 -0.1646
 8612SOL     OW26734   4.559   5.612   3.363  0.1976 -0.0538 -0.0295
 8612SOL    HW126735   4.628   5.548   3.331 -0.1890 -1.1563  1.2447
 8612SOL    HW226736   4.548   5.686   3.297  0.3531 -1.5206 -1.7552
 8613SOL     OW26737   6.717   1.016   6.223 -0.5597  0.0539  0.1434
 8613SOL    HW126738   6.704   0.950   6.298  1.0260  0.9376  1.2757
 8613SOL    HW226739   6.714   0.968   6.136 -1.7943 -1.1247  0.7953
 8614SOL     OW26740   0.516   4.107   6.828 -0.1556  0.7693  0.1429
 8614SOL    HW126741   0.492   4.200   6.854 -1.3794 -0.0240  2.0121
 8614SOL    HW226742   0.540   4.105   6.731  1.0203  3.2121  0.3057
 8615SOL     OW26743   1.279   3.857   6.491 -0.9726  0.5753  0.4997
 8615SOL    HW126744   1.224   3.908   6.558 -1.7700 -0.3713  0.5801
 8615SOL    HW226745   1.311   3.920   6.420 -2.1838  1.1364  0.4327
 8616SOL     OW26746   2.943   4.191   5.994 -0.0994  0.8510 -0.4729
 8616SOL    HW126747   2.849   4.224   6.009 -0.0243  1.1570 -0.6572
 8616SOL    HW226748   2.949   4.095   6.018 -0.7373  0.5355 -1.4956
 8617SOL     OW26749   5.514   5.033   0.983  0.0095 -0.2915  0.3044
 8617SOL    HW126750   5.585   5.102   0.970 -0.8741  0.4809 -0.6171
 8617SOL    HW226751   5.436   5.074   1.031 -1.9036  0.3793 -3.0751
 8618SOL     OW26752   0.911   2.847   2.557 -0.3129 -0.1472  0.2058
 8618SOL    HW126753   1.009   2.830   2.570 -0.3773 -0.0696  0.8186
 8618SOL    HW226754   0.894   2.945   2.559 -0.6640 -0.2200  2.1311
 8619SOL     OW26755   0.617   0.383   2.692 -0.5576 -0.0794 -0.2760
 8619SOL    HW126756   0.588   0.473   2.725 -1.4122 -0.3011 -0.4116
 8619SOL    HW226757   0.564   0.359   2.611 -1.5343 -1.4316  0.7277
 8620SOL     OW26758   0.048   1.788   5.933 -0.4795  0.0423  0.5005
 8620SOL    HW126759   0.109   1.866   5.921 -0.0821 -0.4342 -0.7891
 8620SOL    HW226760  -0.030   1.815   5.990 -0.0306  1.1870  0.6078
 8621SOL     OW26761   3.300   5.554   3.130 -0.3351 -0.1642 -0.5094
 8621SOL    HW126762   3.265   5.646   3.111  1.0419  0.0124 -2.4095
 8621SOL    HW226763   3.246   5.487   3.080 -0.9319 -0.3601  0.3709
 8622SOL     OW26764   6.444   5.796   2.545 -0.2499 -0.7094 -0.6538
 8622SOL    HW126765   6.510   5.852   2.594  0.5999 -1.8136 -0.5043
 8622SOL    HW226766   6.492   5.738   2.478 -1.2604 -0.1413 -1.9191
 8623SOL     OW26767   6.821   1.239   1.641 -0.5515  0.6023  0.2041
 8623SOL    HW126768   6.741   1.202   1.688  0.1811  0.1154  1.0958
 8623SOL    HW226769   6.831   1.336   1.664 -0.0721  0.3182  1.2822
 8624SOL     OW26770   0.252   5.517   3.786  0.6235 -0.7042 -0.4409
 8624SOL    HW126771   0.241   5.534   3.688  1.1752 -1.1393 -0.5864
 8624SOL    HW226772   0.289   5.598   3.830  1.5170 -0.9016 -0.8086
 8625SOL     OW26773   1.359   2.090   0.987 -0.3438  0.0580  0.6004
 8625SOL    HW126774   1.454   2.085   1.018 -0.8396  0.1905  2.2552
 8625SOL    HW226775   1.353   2.059   0.892  1.3752  0.2775  0.3871
 8626SOL     OW26776   1.771   2.843   1.954  0.5352 -0.4966  0.2883
 8626SOL    HW126777   1.842   2.823   1.886 -1.1734 -1.8053 -1.1982
 8626SOL    HW226778   1.686   2.798   1.927 -1.1317  1.7215  1.5639
 8627SOL     OW26779   0.451   5.195   5.059  0.3356 -0.0371  0.3922
 8627SOL    HW126780   0.426   5.147   4.975 -1.3556  0.1610  0.7558
 8627SOL    HW226781   0.534   5.249   5.043 -0.7431  1.1125 -1.5638
 8628SOL     OW26782   4.511   6.377   1.762 -0.2177  0.1873  0.2667
 8628SOL    HW126783   4.518   6.277   1.755 -2.1508 -0.1349  2.0688
 8628SOL    HW226784   4.543   6.406   1.852 -1.1844  0.9920  0.3686
 8629SOL     OW26785   5.228   1.856   1.316 -0.2787 -0.1861  0.6711
 8629SOL    HW126786   5.210   1.796   1.238 -1.5696  1.3612 -0.2839
 8629SOL    HW226787   5.318   1.836   1.353 -0.2883 -2.0584 -0.1852
 8630SOL     OW26788   3.008   4.577   6.371 -0.0989  0.1729  0.4215
 8630SOL    HW126789   2.924   4.543   6.412 -0.7477 -2.3149 -2.5204
 8630SOL    HW226790   3.080   4.507   6.381 -0.3246 -0.6077 -2.4734
 8631SOL     OW26791   5.522   0.323   4.982  0.0660 -0.2850 -0.0889
 8631SOL    HW126792   5.572   0.243   4.949 -0.6446 -1.1183  0.8152
 8631SOL    HW226793   5.426   0.317   4.955 -0.2204 -0.2706  0.8668
 8632SOL     OW26794   1.240   6.317   6.337 -0.1449 -0.5859  1.2777
 8632SOL    HW126795   1.265   6.252   6.409  1.1374 -0.6869  0.7748
 8632SOL    HW226796   1.270   6.409   6.364 -0.0904 -0.5468  1.0871
 8633SOL     OW26797   5.927   6.359   2.650 -0.2028 -0.6480  0.0497
 8633SOL    HW126798   6.019   6.336   2.682  0.2849  1.1661  0.0204
 8633SOL    HW226799   5.933   6.410   2.565 -1.1956  0.1165  0.4197
 8634SOL     OW26800   2.675   2.416   4.389 -0.0482 -0.0074 -0.3196
 8634SOL    HW126801   2.660   2.343   4.322 -0.7410  0.0133 -0.1958
 8634SOL    HW226802   2.768   2.409   4.426 -0.2229 -1.0399 -0.0480
 8635SOL     OW26803   2.702   3.777   0.665  0.0235 -0.6903  0.1169
 8635SOL    HW126804   2.695   3.745   0.571  1.0232  0.8171 -0.5095
 8635SOL    HW226805   2.611   3.795   0.701 -0.3192  0.0649 -1.0726
 8636SOL     OW26806   1.955   4.773   3.282 -0.2802 -0.8966  0.0255
 8636SOL    HW126807   1.994   4.797   3.371 -0.2404 -1.9114  0.2869
 8636SOL    HW226808   1.998   4.830   3.211  0.1162 -0.4954  0.5785
 8637SOL     OW26809   3.519   4.207   0.625  0.1301  0.2060  0.3968
 8637SOL    HW126810   3.453   4.281   0.614 -0.5321 -0.4997 -0.6113
 8637SOL    HW226811   3.474   4.128   0.667  0.0062 -0.6561 -1.2634
 8638SOL     OW26812   4.966   4.873   2.781 -0.2414  0.1655  0.8506
 8638SOL    HW126813   5.026   4.870   2.861 -1.3142 -1.5216  1.6543
 8638SOL    HW226814   4.878   4.914   2.808  0.2920  2.1309 -0.1855
 8639SOL     OW26815   5.252   1.951   6.840 -0.2043 -0.1411 -0.2130
 8639SOL    HW126816   5.298   1.862   6.845  0.9276  0.2735 -2.0338
 8639SOL    HW226817   5.287   2.010   6.912 -0.1843 -0.8294  0.3550
 8640SOL     OW26818   0.153   2.704   2.933  0.4630 -0.0510 -0.3810
 8640SOL    HW126819   0.080   2.758   2.892 -0.2994 -1.2097 -0.6124
 8640SOL    HW226820   0.220   2.679   2.863 -0.1052 -0.8517 -0.6587
 8641SOL     OW26821   0.972   4.902   4.770  0.3694  0.2390  0.1203
 8641SOL    HW126822   0.978   4.814   4.817 -1.0403  0.1852  0.2421
 8641SOL    HW226823   1.040   4.904   4.696  2.1419  0.0601  1.6626
 8642SOL     OW26824   2.733   4.557   1.375 -0.4401 -0.1373 -0.0306
 8642SOL    HW126825   2.688   4.483   1.424 -0.6671  0.2986  0.4242
 8642SOL    HW226826   2.795   4.606   1.437 -1.3976  0.9847  0.0815
 8643SOL     OW26827   1.787   5.073   4.211  0.3779 -0.0963  0.0249
 8643SOL    HW126828   1.696   5.091   4.174  0.8174 -0.9073 -1.5705
 8643SOL    HW226829   1.805   4.974   4.206  1.7284  0.1584 -0.7122
 8644SOL     OW26830   1.532   2.447   0.238 -0.0924  0.2891  0.2785
 8644SOL    HW126831   1.523   2.393   0.155  0.1021 -0.6914  0.8874
 8644SOL    HW226832   1.495   2.539   0.222 -2.4980 -0.6752 -0.1044
 8645SOL     OW26833   0.542   3.891   3.687 -0.0080  0.1867 -0.3412
 8645SOL    HW126834   0.517   3.967   3.747  1.8896  1.1817 -0.7457
 8645SOL    HW226835   0.636   3.864   3.705 -0.4753 -1.7524 -0.5796
 8646SOL     OW26836   2.573   2.297   3.185 -0.5697  0.0292  0.8810
 8646SOL    HW126837   2.568   2.240   3.267 -0.4792 -1.8552 -0.3745
 8646SOL    HW226838   2.520   2.255   3.112  0.0294  1.2387 -0.2812
 8647SOL     OW26839   4.189   1.590   6.607 -0.3522 -0.4649 -0.3145
 8647SOL    HW126840   4.235   1.677   6.591 -1.1540  0.9651  3.8344
 8647SOL    HW226841   4.253   1.526   6.650 -0.3791 -1.1724 -1.2843
 8648SOL     OW26842   6.714   6.333   5.061  0.4703  0.3771  0.2961
 8648SOL    HW126843   6.809   6.344   5.089  0.9507 -2.5136  0.0733
 8648SOL    HW226844   6.654   6.372   5.131  1.7725  0.6833  1.2775
 8649SOL     OW26845   4.027   5.270   2.944 -0.0509 -0.2534  0.0388
 8649SOL    HW126846   4.002   5.353   2.994  0.7186 -0.5412  0.9215
 8649SOL    HW226847   3.954   5.202   2.954 -0.0468 -0.1925  0.5164
 8650SOL     OW26848   3.612   0.641   5.456  0.1790  0.5609  0.6085
 8650SOL    HW126849   3.645   0.732   5.431  0.6875  0.3463  0.4929
 8650SOL    HW226850   3.588   0.640   5.553 -4.2653  2.1569 -0.2357
 8651SOL     OW26851   2.724   0.941   6.380  0.2293 -0.1948 -0.0657
 8651SOL    HW126852   2.628   0.916   6.364  0.2108 -0.6309  0.6827
 8651SOL    HW226853   2.783   0.864   6.359  0.3892 -0.0315 -0.2148
 8652SOL     OW26854   1.870   1.078   3.058  0.3386  0.5262  0.0510
 8652SOL    HW126855   1.860   1.128   3.144 -3.0807 -0.9745  0.6827
 8652SOL    HW226856   1.937   1.006   3.070 -0.7909 -0.3047  1.8769
 8653SOL     OW26857   5.992   6.689   5.874  0.0725 -0.1694 -0.2046
 8653SOL    HW126858   6.081   6.731   5.852  0.4260 -1.7372 -2.0741
 8653SOL    HW226859   5.919   6.753   5.851  0.6465  1.3360  1.7979
 8654SOL     OW26860   0.173   4.233   4.234  0.1240 -0.1405  0.6402
 8654SOL    HW126861   0.100   4.291   4.199  0.4184  0.2019  0.5942
 8654SOL    HW226862   0.210   4.272   4.318 -1.2387 -1.4524  1.9142
 8655SOL     OW26863   4.153   3.705   1.297  0.2389  0.5698  0.0131
 8655SOL    HW126864   4.087   3.661   1.357 -0.7715  2.3745  0.3077
 8655SOL    HW226865   4.173   3.646   1.219 -2.1271  0.1501 -0.3517
 8656SOL     OW26866   3.039   6.830   6.906  0.4536 -0.4247  0.1552
 8656SOL    HW126867   3.020   6.839   6.808 -1.0225 -2.1795  0.2158
 8656SOL    HW226868   2.998   6.745   6.939  3.2508 -1.2631  1.7566
 8657SOL     OW26869   0.596   6.034   1.935  0.5483  0.3126  0.6609
 8657SOL    HW126870   0.514   6.005   1.885  0.8910  1.2852 -0.5211
 8657SOL    HW226871   0.678   6.007   1.885  0.8904  1.8748  0.3192
 8658SOL     OW26872   1.525   6.504   1.229  0.3277  0.6097  0.1868
 8658SOL    HW126873   1.594   6.487   1.299  2.0064  1.2780 -1.2376
 8658SOL    HW226874   1.452   6.562   1.266  1.8683  2.0787  1.0132
 8659SOL     OW26875   2.390   1.447   0.893 -0.4864  0.3206  0.1436
 8659SOL    HW126876   2.445   1.498   0.827 -2.0981  2.6989  0.4812
 8659SOL    HW226877   2.407   1.483   0.985 -0.9461 -0.4556  0.5472
 8660SOL     OW26878   0.124   7.006   4.457  0.2031  0.1787  0.0457
 8660SOL    HW126879   0.122   7.096   4.412  1.0558  0.1731 -0.0120
 8660SOL    HW226880   0.033   6.965   4.453  0.1132  0.4516 -1.1457
 8661SOL     OW26881   4.972   5.989   2.980 -0.1472  0.0084  0.2332
 8661SOL    HW126882   5.008   5.973   2.888 -1.3322 -0.9443 -0.1014
 8661SOL    HW226883   4.997   6.080   3.011 -0.7996  0.8527 -1.5748
 8662SOL     OW26884   6.701   1.106   0.010  0.4577  0.1135  0.3734
 8662SOL    HW126885   6.656   1.077  -0.074 -0.5535  0.4741  0.7730
 8662SOL    HW226886   6.655   1.187   0.047 -0.6732 -1.4227  2.5409
 8663SOL     OW26887   0.307   4.585   1.521  0.5553  0.5323  0.4900
 8663SOL    HW126888   0.387   4.641   1.498  1.0655 -0.4589 -0.2200
 8663SOL    HW226889   0.224   4.638   1.503  0.9865  0.6059 -1.5684
 8664SOL     OW26890   0.824   5.966   2.469  0.0405  0.4451  0.5443
 8664SOL    HW126891   0.886   5.926   2.401  0.4255  1.7159  0.1320
 8664SOL    HW226892   0.877   6.024   2.532 -0.5291  0.4249  1.0472
 8665SOL     OW26893   1.751   5.842   4.704  0.1706  0.2045  0.4923
 8665SOL    HW126894   1.660   5.803   4.718  0.3113 -1.0804 -1.6976
 8665SOL    HW226895   1.819   5.788   4.754 -0.0722  0.1039  0.7167
 8666SOL     OW26896   1.337   2.389   3.610  0.2165 -0.0396  0.0999
 8666SOL    HW126897   1.378   2.385   3.519  1.1622  1.5595  0.4190
 8666SOL    HW226898   1.271   2.464   3.613 -0.4456 -0.6227  0.5103
 8667SOL     OW26899   2.393   6.872   5.509  0.2164 -0.5925  0.4746
 8667SOL    HW126900   2.485   6.860   5.547 -0.1144 -1.5456  1.0228
 8667SOL    HW226901   2.375   6.969   5.494  1.4860 -0.4205 -0.0798
 8668SOL     OW26902   5.161   3.082   5.383 -0.5836  0.6158  0.1016
 8668SOL    HW126903   5.197   3.102   5.474  0.8060 -0.6822 -0.1066
 8668SOL    HW226904   5.201   2.996   5.350 -1.6098  0.6888 -1.4400
 8669SOL     OW26905   5.338   0.571   2.311 -0.2208 -0.3254 -0.3484
 8669SOL    HW126906   5.411   0.633   2.341 -0.4227  0.3127 -1.1274
 8669SOL    HW226907   5.372   0.477   2.310  1.3432  0.1771 -2.8382
 8670SOL     OW26908   6.646   0.558   1.635 -0.0909 -0.0163  0.0018
 8670SOL    HW126909   6.667   0.641   1.584  1.0102  0.4459  1.1558
 8670SOL    HW226910   6.712   0.547   1.710 -1.8433 -0.4707  1.5487
 8671SOL     OW26911   1.261   4.331   0.649 -0.2458 -0.0726 -0.1302
 8671SOL    HW126912   1.235   4.317   0.745 -0.6146  3.4153  0.4202
 8671SOL    HW226913   1.195   4.286   0.590 -1.2887 -0.4608  1.2691
 8672SOL     OW26914   6.376   6.942   5.077 -0.0399 -0.2208  0.2315
 8672SOL    HW126915   6.372   6.967   5.173 -1.6041 -0.0395  0.1344
 8672SOL    HW226916   6.453   6.879   5.062  1.3188  1.1359  1.2414
 8673SOL     OW26917   6.668   2.028   0.050  0.0496  0.2971  0.0477
 8673SOL    HW126918   6.607   1.950   0.040  1.0633 -0.7891  1.7799
 8673SOL    HW226919   6.629   2.093   0.116  0.2200  0.1701  0.2752
 8674SOL     OW26920   2.865   2.022   6.260 -0.4411  0.2959 -0.0735
 8674SOL    HW126921   2.930   1.956   6.224  0.7087  0.9896  0.6638
 8674SOL    HW226922   2.894   2.053   6.351  0.2340  3.3223 -1.1919
 8675SOL     OW26923   6.808   3.637   5.525  0.1575  0.2352  0.1383
 8675SOL    HW126924   6.786   3.731   5.550  0.8666  0.3751  0.2414
 8675SOL    HW226925   6.897   3.611   5.563  0.0744 -0.4014 -0.0790
 8676SOL     OW26926   3.104   1.201   3.716 -0.1761  0.5780 -0.5660
 8676SOL    HW126927   3.053   1.124   3.680  0.7445 -0.1337 -0.3853
 8676SOL    HW226928   3.184   1.219   3.659  0.9342 -0.1440  0.6861
 8677SOL     OW26929   1.574   3.316   1.433  1.2212  0.8285  0.4879
 8677SOL    HW126930   1.484   3.353   1.413  0.7787  0.7024  2.1096
 8677SOL    HW226931   1.616   3.368   1.507  1.9244  0.0676  0.6420
 8678SOL     OW26932   0.503   1.885   6.617 -0.0423  0.2238  0.5511
 8678SOL    HW126933   0.576   1.820   6.639  0.1914  0.4772  0.5363
 8678SOL    HW226934   0.443   1.895   6.696 -2.1742 -2.6774 -0.5281
 8679SOL     OW26935   6.432   1.425   5.931  0.6191 -0.0229 -0.6157
 8679SOL    HW126936   6.466   1.471   5.848 -0.3451  1.3689 -0.2894
 8679SOL    HW226937   6.499   1.359   5.963  2.1552  1.2704 -1.0447
 8680SOL     OW26938   4.376   2.804   6.598 -0.1218  0.5604  0.2277
 8680SOL    HW126939   4.391   2.790   6.500  1.2342  0.7381  0.3964
 8680SOL    HW226940   4.425   2.886   6.628  1.9973 -1.0990  1.6155
 8681SOL     OW26941   0.084   6.408   3.401 -0.3024 -0.1793  0.3626
 8681SOL    HW126942   0.179   6.386   3.426 -0.5399 -0.5709  0.9498
 8681SOL    HW226943   0.082   6.445   3.308  0.4094 -0.2969  0.2890
 8682SOL     OW26944   2.024   6.674   3.001  0.5392  0.1454  0.0995
 8682SOL    HW126945   1.971   6.669   2.916  0.4029 -0.0403  0.1941
 8682SOL    HW226946   2.020   6.586   3.048 -0.7705  0.7372  1.1360
 8683SOL     OW26947   1.886   2.111   6.358  0.1375  0.0167 -0.3424
 8683SOL    HW126948   1.934   2.189   6.397 -0.4830  1.0069 -1.4871
 8683SOL    HW226949   1.943   2.029   6.366  1.8387  1.0532 -1.2380
 8684SOL     OW26950   3.944   3.247   6.515 -0.1378 -0.2263  0.0467
 8684SOL    HW126951   3.982   3.179   6.578 -2.4060  0.5831  2.4943
 8684SOL    HW226952   3.915   3.202   6.430 -1.2636 -2.3150  1.4548
 8685SOL     OW26953   6.890   2.359   2.886  0.2241 -0.0566  0.2072
 8685SOL    HW126954   6.805   2.327   2.927 -0.4777  0.9730 -0.4109
 8685SOL    HW226955   6.929   2.432   2.943  0.4997 -0.2645  0.2873
 8686SOL     OW26956   4.980   3.390   6.139  0.1127  0.4473  0.2661
 8686SOL    HW126957   5.046   3.404   6.213 -0.8717  0.9181  1.0716
 8686SOL    HW226958   4.968   3.475   6.088 -1.0902  0.8319  1.1586
 8687SOL     OW26959   3.876   6.697   0.845  0.1096  0.1253 -0.1883
 8687SOL    HW126960   3.906   6.748   0.765 -0.7472  0.4735 -0.3028
 8687SOL    HW226961   3.955   6.675   0.902  0.6285  0.5921 -0.7073
 8688SOL     OW26962   1.659   3.909   3.814 -0.0018 -0.0068 -0.2419
 8688SOL    HW126963   1.631   4.005   3.818 -1.9483 -0.4173 -2.0543
 8688SOL    HW226964   1.697   3.889   3.724  2.3584 -0.5354  0.7704
 8689SOL     OW26965   4.768   4.843   2.350 -0.4742 -0.3939  0.4010
 8689SOL    HW126966   4.697   4.846   2.420  0.2098  0.1027  1.0954
 8689SOL    HW226967   4.803   4.750   2.342 -1.1063 -0.6115  0.1533
 8690SOL     OW26968   1.752   1.110   2.548  0.0365  0.0406  0.3222
 8690SOL    HW126969   1.821   1.039   2.542 -0.2081 -0.1368 -0.5185
 8690SOL    HW226970   1.762   1.159   2.635  0.2878 -0.9264  0.8543
 8691SOL     OW26971   4.589   2.612   4.639  1.1751 -0.5675  0.2565
 8691SOL    HW126972   4.657   2.671   4.682  0.3230  1.7767 -1.4083
 8691SOL    HW226973   4.538   2.562   4.710  0.2661  2.5898  2.0401
 8692SOL     OW26974   2.190   1.517   2.749  0.0599 -0.2466 -0.4145
 8692SOL    HW126975   2.110   1.544   2.696 -1.9939  1.1659  3.0283
 8692SOL    HW226976   2.237   1.599   2.782 -0.1059 -0.9321  1.6971
 8693SOL     OW26977   6.018   1.130   6.806 -0.0726  0.0167 -0.0424
 8693SOL    HW126978   5.981   1.085   6.724 -0.0039  1.9100 -1.1900
 8693SOL    HW226979   5.982   1.085   6.887 -0.6919 -1.5081 -1.1032
 8694SOL     OW26980   3.146   4.380   6.024 -0.0227  0.3072 -0.2451
 8694SOL    HW126981   3.059   4.332   6.011 -0.1478  0.7274 -0.9803
 8694SOL    HW226982   3.137   4.474   5.993  0.4277  0.6167  0.5474
 8695SOL     OW26983   6.644   1.507   5.261 -0.5258 -0.5807  0.7058
 8695SOL    HW126984   6.663   1.454   5.344 -0.3755  2.4541  2.7570
 8695SOL    HW226985   6.552   1.546   5.267 -0.8856 -1.0442 -1.0627
 8696SOL     OW26986   5.939   4.303   1.490  0.0447 -0.2212  0.3801
 8696SOL    HW126987   6.015   4.240   1.505  0.6398  0.6316  1.0925
 8696SOL    HW226988   5.875   4.297   1.566 -0.4438 -0.7027 -0.0610
 8697SOL     OW26989   4.422   1.979   6.066 -0.0302  0.3311  0.1098
 8697SOL    HW126990   4.417   2.054   6.000  0.7214  0.8011  0.5741
 8697SOL    HW226991   4.330   1.943   6.082 -0.5203  1.6725  0.4589
 8698SOL     OW26992   4.275   2.723   1.186  0.0705 -0.4387  0.3941
 8698SOL    HW126993   4.270   2.723   1.286 -1.7304  0.5291  0.3354
 8698SOL    HW226994   4.199   2.670   1.149 -1.2017  1.9044 -0.4829
 8699SOL     OW26995   5.730   6.520   5.744 -0.4768 -0.0927 -0.2838
 8699SOL    HW126996   5.799   6.511   5.672 -0.7541 -0.6967 -0.4762
 8699SOL    HW226997   5.725   6.436   5.797  0.2820  0.6206  0.9589
 8700SOL     OW26998   6.466   0.270   5.037  0.2368 -0.4302  0.8094
 8700SOL    HW126999   6.456   0.177   4.999 -2.2595 -0.1972  0.7026
 8700SOL    HW227000   6.391   0.287   5.101  0.1425  1.8065  0.1836
 8701SOL     OW27001   2.774   2.221   6.019  0.1686  0.7688 -0.6112
 8701SOL    HW127002   2.850   2.280   6.046  1.2852 -0.8480 -0.1200
 8701SOL    HW227003   2.800   2.168   5.938 -0.7596  0.7773 -0.9288
 8702SOL     OW27004   6.428   3.542   1.678  0.0579 -0.3292 -0.5699
 8702SOL    HW127005   6.524   3.516   1.687  1.1722  2.9290 -1.5976
 8702SOL    HW227006   6.396   3.582   1.764  0.6069  1.2570 -1.0638
 8703SOL     OW27007   6.531   4.339   1.542 -0.6703 -0.1810 -0.4033
 8703SOL    HW127008   6.548   4.242   1.555  1.0294  0.0800 -0.4060
 8703SOL    HW227009   6.600   4.392   1.592 -1.7660  1.0436 -0.1030
 8704SOL     OW27010   1.431   6.783   5.609  0.0665 -0.0865  0.1840
 8704SOL    HW127011   1.482   6.860   5.648  1.8523 -0.0140 -2.0385
 8704SOL    HW227012   1.362   6.818   5.546 -0.6356 -0.2789  0.8333
 8705SOL     OW27013   4.529   5.809   1.001  0.0753  0.1074 -0.0338
 8705SOL    HW127014   4.505   5.729   1.056  0.9133 -0.6160 -0.6796
 8705SOL    HW227015   4.450   5.837   0.947 -0.7461  0.8066  1.4839
 8706SOL     OW27016   4.519   6.980   6.931 -0.0916  0.4230  0.3960
 8706SOL    HW127017   4.569   7.059   6.967  0.1646  0.5942 -0.3164
 8706SOL    HW227018   4.565   6.946   6.849 -2.0557  1.6876 -1.3346
 8707SOL     OW27019   1.309   1.717   4.309 -0.3836 -0.5153  0.3788
 8707SOL    HW127020   1.235   1.679   4.253  0.0283 -0.1693 -0.4084
 8707SOL    HW227021   1.359   1.786   4.256 -0.4631  0.3781  1.4304
 8708SOL     OW27022   3.570   3.673   1.720  0.0632 -0.1491 -0.0797
 8708SOL    HW127023   3.553   3.765   1.756 -0.2663  0.0158 -0.6487
 8708SOL    HW227024   3.488   3.617   1.731  0.5866 -0.6987  1.2096
 8709SOL     OW27025   6.800   3.694   2.763 -0.2493  0.1475 -0.3718
 8709SOL    HW127026   6.713   3.646   2.750 -0.2033 -0.8216  2.2571
 8709SOL    HW227027   6.794   3.753   2.843  1.6927 -0.4561  0.2857
 8710SOL     OW27028   5.422   5.978   3.603 -0.4482  0.0169 -0.4129
 8710SOL    HW127029   5.358   5.901   3.605 -0.9235  0.3981 -0.7063
 8710SOL    HW227030   5.508   5.951   3.645 -0.8637 -0.4545  0.1506
 8711SOL     OW27031   2.400   0.741   3.811  0.3009  0.1242 -0.3447
 8711SOL    HW127032   2.454   0.800   3.751 -0.3075  1.9712  0.8459
 8711SOL    HW227033   2.342   0.682   3.755 -0.0054  1.5393 -1.6125
 8712SOL     OW27034   1.544   6.107   6.525  0.3215 -0.3839 -0.1719
 8712SOL    HW127035   1.596   6.094   6.440  3.9465 -2.5372  2.1070
 8712SOL    HW227036   1.545   6.203   6.551  1.9304 -0.1380 -1.0195
 8713SOL     OW27037   7.012   1.059   3.463  0.1936 -0.2000  0.7774
 8713SOL    HW127038   7.082   0.989   3.449 -2.0126 -2.8121  1.9138
 8713SOL    HW227039   6.931   1.038   3.408 -1.0407  0.6743  2.1532
 8714SOL     OW27040   2.299   0.077   1.996  0.0421  0.0105  0.2368
 8714SOL    HW127041   2.221   0.114   2.047  0.1913 -1.7045  1.8331
 8714SOL    HW227042   2.306   0.123   1.908  0.0468  3.4796  1.8855
 8715SOL     OW27043   3.336   2.997   6.899  0.0219  0.7837  0.2844
 8715SOL    HW127044   3.410   2.939   6.866 -0.0596  1.3361 -0.9307
 8715SOL    HW227045   3.352   3.091   6.870 -1.3775  0.8352 -0.4156
 8716SOL     OW27046   1.318   2.296   3.072  0.6371 -0.0893  0.2991
 8716SOL    HW127047   1.298   2.371   3.135  0.5623  0.3457 -0.2350
 8716SOL    HW227048   1.411   2.263   3.088 -0.0928 -1.4419  2.1012
 8717SOL     OW27049   0.186   2.605   1.207 -0.0548 -0.9013 -0.0549
 8717SOL    HW127050   0.117   2.538   1.236  1.7806 -2.5429  0.7872
 8717SOL    HW227051   0.236   2.638   1.287 -3.2813  4.5439  0.1847
 8718SOL     OW27052   1.093   4.985   1.780  0.0607 -0.1100  0.3016
 8718SOL    HW127053   1.147   4.920   1.834 -0.7682 -1.3015 -0.2779
 8718SOL    HW227054   1.093   5.074   1.826 -1.8055 -1.4037  3.0730
 8719SOL     OW27055   3.016   6.494   6.644  0.3919 -0.3999  0.2104
 8719SOL    HW127056   3.098   6.537   6.682 -1.0748  1.4240  1.4955
 8719SOL    HW227057   2.991   6.414   6.700  0.1165  0.3031  1.1049
 8720SOL     OW27058   0.784   2.822   5.527  0.0277  0.1472 -0.5990
 8720SOL    HW127059   0.796   2.724   5.515 -0.7373  0.1090 -1.0997
 8720SOL    HW227060   0.700   2.840   5.577 -0.1228  0.5626 -0.9906
 8721SOL     OW27061   0.319   1.959   2.235 -0.6960  0.3359  0.0065
 8721SOL    HW127062   0.272   2.042   2.204 -1.4837 -0.0512  0.1289
 8721SOL    HW227063   0.316   1.956   2.335  0.7926  0.9832  0.0973
 8722SOL     OW27064   5.522   3.435   0.647  0.3168  0.4135 -0.7373
 8722SOL    HW127065   5.561   3.347   0.674 -0.1337 -0.5185 -2.9269
 8722SOL    HW227066   5.504   3.490   0.729  1.4528 -1.1442  0.6231
 8723SOL     OW27067   5.854   2.252   1.180  0.5443 -0.3892  0.2667
 8723SOL    HW127068   5.769   2.235   1.232  0.4459  0.0654  0.2613
 8723SOL    HW227069   5.831   2.287   1.089  0.7307 -0.5046  0.1762
 8724SOL     OW27070   2.120   4.976   5.398  0.7897  0.4675 -0.1755
 8724SOL    HW127071   2.161   5.052   5.348 -0.8410  1.0306 -0.7188
 8724SOL    HW227072   2.071   4.917   5.335  1.8366 -0.9356  0.2806
 8725SOL     OW27073   0.355   6.544   2.932  0.2395 -0.1202  0.0180
 8725SOL    HW127074   0.365   6.517   2.836  2.0656  2.6665 -0.6841
 8725SOL    HW227075   0.282   6.612   2.940 -0.0265 -0.4745  0.6604
 8726SOL     OW27076   0.016   6.511   3.659 -0.1262 -0.5403 -0.5261
 8726SOL    HW127077   0.000   6.607   3.636 -3.0251 -1.0522 -1.0431
 8726SOL    HW227078   0.040   6.460   3.575  1.3274 -0.3444 -0.2657
 8727SOL     OW27079   6.668   3.944   4.574 -0.0508  0.6604  0.2417
 8727SOL    HW127080   6.742   3.939   4.506  0.5191  1.2982  0.7920
 8727SOL    HW227081   6.643   3.852   4.603  0.6598  0.4358  0.1664
 8728SOL     OW27082   0.865   2.001   1.211 -0.5655  0.0306 -0.4127
 8728SOL    HW127083   0.819   2.066   1.271 -2.8478 -0.8245 -1.1598
 8728SOL    HW227084   0.919   2.052   1.143  0.3537  1.0302  0.9945
 8729SOL     OW27085   6.125   2.676   2.769 -0.4480 -0.9103 -0.2874
 8729SOL    HW127086   6.106   2.744   2.698  0.9854 -0.7331 -0.5345
 8729SOL    HW227087   6.105   2.584   2.734  0.5480 -0.8506 -1.0441
 8730SOL     OW27088   1.395   5.069   0.369  0.0831 -0.3502 -0.2929
 8730SOL    HW127089   1.339   4.990   0.395  1.4236 -1.6418 -1.1030
 8730SOL    HW227090   1.337   5.141   0.331 -1.0045 -1.8241 -1.5664
 8731SOL     OW27091   1.305   2.980   2.920  0.0649 -0.4545 -0.4336
 8731SOL    HW127092   1.278   2.950   2.829 -1.4498 -0.4895 -0.0071
 8731SOL    HW227093   1.345   3.072   2.915  1.9172 -1.2568 -1.3564
 8732SOL     OW27094   0.207   6.254   6.029 -0.0734  0.3673 -0.3428
 8732SOL    HW127095   0.220   6.268   6.128  0.6794 -1.1731 -0.1962
 8732SOL    HW227096   0.164   6.165   6.014  0.1838  0.4178 -1.4164
 8733SOL     OW27097   2.063   5.835   3.386  0.1857  0.0679  0.4669
 8733SOL    HW127098   2.020   5.758   3.433 -1.8392  0.6183 -0.3545
 8733SOL    HW227099   2.054   5.918   3.441  2.5911 -0.2533  1.4687
 8734SOL     OW27100   5.798   4.795   1.775  0.5026 -0.0529  0.0338
 8734SOL    HW127101   5.767   4.886   1.804  1.5219  0.3208 -0.0352
 8734SOL    HW227102   5.742   4.726   1.820 -0.3287  0.6013  0.0411
 8735SOL     OW27103   1.616   6.216   5.901 -0.2481 -0.5965 -0.2356
 8735SOL    HW127104   1.610   6.125   5.941 -2.0498 -0.5402 -0.2844
 8735SOL    HW227105   1.529   6.239   5.857 -0.3018  1.6342  0.8678
 8736SOL     OW27106   3.337   2.021   4.077  0.6526 -0.4140 -0.3356
 8736SOL    HW127107   3.284   1.937   4.075  2.2745 -1.6987  2.9874
 8736SOL    HW227108   3.340   2.056   4.171  2.2699  1.8559 -1.1565
 8737SOL     OW27109   1.936   0.909   5.832 -0.1547 -0.4756  0.3606
 8737SOL    HW127110   1.848   0.957   5.837  0.7346  1.8541 -2.9169
 8737SOL    HW227111   1.920   0.813   5.811 -1.9244 -0.3088  0.7680
 8738SOL     OW27112   5.993   3.680   1.015  0.1565  0.1561 -0.3446
 8738SOL    HW127113   5.961   3.671   1.109  0.2451  2.0462 -0.0893
 8738SOL    HW227114   5.975   3.773   0.982 -1.0098 -0.7918 -2.6452
 8739SOL     OW27115   0.269   6.075   2.629  0.5326 -0.6558 -0.0888
 8739SOL    HW127116   0.204   6.145   2.660  0.0555 -1.5706  1.0328
 8739SOL    HW227117   0.361   6.099   2.660  1.0344  1.2664 -2.6674
 8740SOL     OW27118   2.908   2.181   3.139  0.1689  0.1288 -0.0378
 8740SOL    HW127119   2.895   2.196   3.237  1.9716  1.7299  0.0151
 8740SOL    HW227120   2.978   2.111   3.125 -0.5721 -0.5908 -0.2075
 8741SOL     OW27121   6.977   4.490   2.477  0.4060  0.0467  0.5874
 8741SOL    HW127122   7.030   4.420   2.524 -0.5745 -1.4180 -0.4113
 8741SOL    HW227123   6.898   4.515   2.532  0.6020  0.1588  0.8174
 8742SOL     OW27124   3.789   1.683   4.115 -0.1755 -0.1838  0.7051
 8742SOL    HW127125   3.780   1.757   4.182  0.7746  0.7361 -0.1641
 8742SOL    HW227126   3.798   1.721   4.023 -2.6383 -1.4611 -0.1311
 8743SOL     OW27127   6.202   1.170   6.035 -0.1953  0.1966  0.7288
 8743SOL    HW127128   6.150   1.236   5.982 -0.2262 -1.2547 -1.1301
 8743SOL    HW227129   6.295   1.162   5.998 -0.0269 -0.4093  1.2555
 8744SOL     OW27130   4.642   2.674   6.086  0.3700 -0.8031 -0.5311
 8744SOL    HW127131   4.632   2.595   6.147 -0.4974 -0.0540  0.3179
 8744SOL    HW227132   4.570   2.671   6.016 -0.3528 -0.1901  0.1706
 8745SOL     OW27133   6.381   5.916   1.740 -0.8175 -0.5193  0.3873
 8745SOL    HW127134   6.345   5.948   1.653  0.4395 -2.9086 -1.1125
 8745SOL    HW227135   6.425   5.991   1.788  0.5275  0.4039 -2.1336
 8746SOL     OW27136   1.318   6.601   0.713 -0.5114  0.2310 -0.7534
 8746SOL    HW127137   1.406   6.643   0.692 -0.2340 -0.1915 -0.4581
 8746SOL    HW227138   1.331   6.504   0.733 -1.1972 -0.0990 -1.8384
 8747SOL     OW27139   1.346   1.123   5.077 -0.1427  0.2957 -0.1545
 8747SOL    HW127140   1.338   1.068   5.160  0.7871  1.0142  0.4349
 8747SOL    HW227141   1.264   1.179   5.066  0.0627  0.7921  0.7342
 8748SOL     OW27142   0.306   2.025   5.401  0.3351 -0.0983  0.8168
 8748SOL    HW127143   0.353   1.967   5.335 -0.5478  1.4749 -1.2985
 8748SOL    HW227144   0.373   2.063   5.465  1.8644  1.2550 -1.4634
 8749SOL     OW27145   1.818   5.542   2.265 -0.1907 -0.5755 -0.5389
 8749SOL    HW127146   1.805   5.535   2.166  0.5675  0.6854 -0.7462
 8749SOL    HW227147   1.913   5.520   2.288 -0.2246 -0.3397 -0.1526
 8750SOL     OW27148   1.938   7.010   6.526  0.2004  0.0313 -0.3835
 8750SOL    HW127149   1.955   7.096   6.478 -0.7851  0.6492  0.3437
 8750SOL    HW227150   2.000   6.940   6.491  0.1632  0.7013 -1.8688
 8751SOL     OW27151   1.261   0.431   0.628  0.1391 -0.0947  0.8826
 8751SOL    HW127152   1.358   0.408   0.623  0.5248  1.6488 -1.7352
 8751SOL    HW227153   1.244   0.486   0.710  2.2687  2.9435 -0.5153
 8752SOL     OW27154   6.624   1.588   3.324  0.6303  0.3016  0.4769
 8752SOL    HW127155   6.645   1.683   3.346  2.1738  0.5532 -1.8133
 8752SOL    HW227156   6.708   1.538   3.307 -0.2831 -0.7617 -1.1452
 8753SOL     OW27157   6.494   2.507   1.200  0.0245  0.1395 -0.4176
 8753SOL    HW127158   6.566   2.576   1.196  0.5509 -0.4646 -2.9982
 8753SOL    HW227159   6.523   2.431   1.259  0.7125  0.7074 -0.0136
 8754SOL     OW27160   1.894   4.179   6.325  0.2342 -0.4415 -0.3794
 8754SOL    HW127161   1.889   4.184   6.225  2.4761 -1.5737 -0.5924
 8754SOL    HW227162   1.808   4.141   6.360 -0.6437  0.0994 -1.8304
 8755SOL     OW27163   0.885   0.157   3.110 -0.3848  0.4218  0.1131
 8755SOL    HW127164   0.939   0.240   3.119  0.0788 -0.0531  2.2060
 8755SOL    HW227165   0.934   0.080   3.152 -1.2805 -0.7083 -0.8179
 8756SOL     OW27166   6.468   1.556   2.796  0.4936 -0.1885  0.3602
 8756SOL    HW127167   6.509   1.502   2.869  1.6221  0.0219 -0.0825
 8756SOL    HW227168   6.397   1.503   2.751  1.2541 -1.1416  0.2396
 8757SOL     OW27169   5.163   3.244   0.574  0.1383 -0.3229  0.1185
 8757SOL    HW127170   5.113   3.269   0.491  3.3346  1.8888 -1.3400
 8757SOL    HW227171   5.151   3.315   0.643  0.1892 -0.4774  0.2878
 8758SOL     OW27172   0.108   4.821   6.095 -0.4277 -0.0968  0.9672
 8758SOL    HW127173   0.128   4.736   6.143 -0.7250 -1.8748 -1.8112
 8758SOL    HW227174   0.078   4.801   6.002  0.5797  3.1117 -0.2160
 8759SOL     OW27175   4.762   6.109   2.247  0.3467 -0.0859 -0.1067
 8759SOL    HW127176   4.851   6.085   2.287  1.0769  0.7420 -1.1912
 8759SOL    HW227177   4.708   6.160   2.314  1.5916  1.3648 -0.1629
 8760SOL     OW27178   3.550   5.590   2.122 -0.0764 -0.5525  0.0247
 8760SOL    HW127179   3.491   5.580   2.042  0.3439 -0.6426 -0.2695
 8760SOL    HW227180   3.502   5.554   2.203 -0.7351  0.0666 -0.0756
 8761SOL     OW27181   6.896   0.025   6.306  0.1598  0.4840 -0.2346
 8761SOL    HW127182   6.973  -0.009   6.360  1.1044  3.0216  0.1961
 8761SOL    HW227183   6.904   0.125   6.297 -3.1178  0.8522 -0.1645
 8762SOL     OW27184   4.023   0.422   5.206  0.5205 -0.1701 -0.2623
 8762SOL    HW127185   3.941   0.457   5.251  1.0217 -0.6493  1.0668
 8762SOL    HW227186   4.059   0.492   5.143 -0.9013  0.0314 -0.9041
 8763SOL     OW27187   0.816   5.225   2.000  0.9334 -0.6134 -0.0780
 8763SOL    HW127188   0.827   5.207   1.902  1.7432 -0.3899 -0.0358
 8763SOL    HW227189   0.810   5.138   2.049  1.0273 -0.7332 -0.2757
 8764SOL     OW27190   2.539   1.917   6.934 -0.0608  0.0752 -0.2987
 8764SOL    HW127191   2.557   1.982   7.007 -0.8718  0.8294 -0.7504
 8764SOL    HW227192   2.523   1.826   6.973 -3.7311  1.0293  0.8259
 8765SOL     OW27193   0.414   1.466   3.046  0.3057  0.4290 -0.0922
 8765SOL    HW127194   0.396   1.528   2.970  0.2108  0.5296  0.0100
 8765SOL    HW227195   0.486   1.505   3.104 -1.5649  1.7764  1.4475
 8766SOL     OW27196   3.685   3.970   3.174  0.2985 -0.0359 -0.2803
 8766SOL    HW127197   3.775   3.927   3.168 -0.0075 -0.5287 -1.8059
 8766SOL    HW227198   3.616   3.908   3.138 -0.1636  1.6391 -2.5299
 8767SOL     OW27199   1.851   6.007   2.328 -0.1706 -0.2272 -0.2064
 8767SOL    HW127200   1.760   6.041   2.351 -1.0197 -3.0261  0.9301
 8767SOL    HW227201   1.858   5.994   2.229 -0.4111  1.4559 -0.4740
 8768SOL     OW27202   1.447   5.586   1.680  0.5429  0.1791 -0.2328
 8768SOL    HW127203   1.507   5.666   1.692 -1.4880  2.1284 -2.2068
 8768SOL    HW227204   1.420   5.579   1.584 -0.6690 -1.9484  0.2088
 8769SOL     OW27205   2.991   1.800   4.720  0.5832 -0.1288 -0.2170
 8769SOL    HW127206   2.959   1.883   4.766  1.3268  0.3081 -0.4794
 8769SOL    HW227207   2.915   1.735   4.712 -0.9685  1.7786 -2.8419
 8770SOL     OW27208   5.848   3.815   2.896  0.0905 -0.1612  0.0949
 8770SOL    HW127209   5.943   3.837   2.874  0.0575 -1.0861 -1.0150
 8770SOL    HW227210   5.840   3.719   2.922 -0.4249  0.1014  0.9709
 8771SOL     OW27211   6.527   4.846   3.523 -0.3938 -0.1028 -0.1702
 8771SOL    HW127212   6.575   4.882   3.442 -0.2947 -0.5090 -0.2959
 8771SOL    HW227213   6.503   4.921   3.583  0.4194  0.1135 -0.0966
 8772SOL     OW27214   5.807   3.269   4.455 -0.3339  0.1636  0.3067
 8772SOL    HW127215   5.755   3.191   4.421 -0.0339 -0.5344  1.3852
 8772SOL    HW227216   5.898   3.238   4.484  0.8725  1.4168 -1.8752
 8773SOL     OW27217   0.730   1.752   5.951 -0.2758  0.2363 -0.3646
 8773SOL    HW127218   0.715   1.835   5.897 -1.4137 -1.3760 -2.6809
 8773SOL    HW227219   0.672   1.679   5.916  0.4287 -1.4651  1.8441
 8774SOL     OW27220   1.760   5.503   4.988 -0.8306  0.5189 -0.8705
 8774SOL    HW127221   1.722   5.472   4.901  0.0740  0.7120 -1.3381
 8774SOL    HW227222   1.831   5.571   4.971  0.5123 -0.6490 -0.0498
 8775SOL     OW27223   0.116   0.936   3.853  0.0394  0.3378  0.5557
 8775SOL    HW127224   0.075   1.027   3.846  0.9964  0.9447  2.3737
 8775SOL    HW227225   0.050   0.868   3.820 -1.4736  1.5017  1.0706
 8776SOL     OW27226   1.827   4.579   0.283 -0.5067 -0.0916 -0.1615
 8776SOL    HW127227   1.900   4.510   0.285  1.2309  1.6513 -0.1195
 8776SOL    HW227228   1.740   4.536   0.307  0.6255 -2.1195  0.5829
 8777SOL     OW27229   6.166   3.425   3.805 -1.1906  0.0079  0.3643
 8777SOL    HW127230   6.229   3.500   3.826 -0.7172 -0.3500  0.2426
 8777SOL    HW227231   6.215   3.338   3.811 -1.8775 -0.3407  1.0883
 8778SOL     OW27232   0.763   1.113   0.487  0.1402  0.3343 -0.1153
 8778SOL    HW127233   0.708   1.189   0.452  0.2706  2.0097  2.9462
 8778SOL    HW227234   0.850   1.148   0.520  0.0912 -1.0871  1.6390
 8779SOL     OW27235   0.639   2.436   5.829 -0.2054 -0.7957  0.1251
 8779SOL    HW127236   0.633   2.534   5.850 -0.8849 -0.7452 -0.2792
 8779SOL    HW227237   0.703   2.392   5.892  0.7235  0.0488 -0.2018
 8780SOL     OW27238   4.560   5.071   6.952  0.0567 -0.4217  0.1384
 8780SOL    HW127239   4.598   4.994   7.002  0.2518 -0.3181  0.1500
 8780SOL    HW227240   4.632   5.137   6.932  0.3445 -1.2562 -1.7828
 8781SOL     OW27241   6.332   0.985   0.688  0.0613 -0.2125  0.7952
 8781SOL    HW127242   6.426   0.962   0.713  0.3906  1.5880  1.3464
 8781SOL    HW227243   6.301   0.924   0.616  1.7932 -0.5946  0.3289
 8782SOL     OW27244   2.103   1.891   4.242  0.2744 -0.0108  0.6728
 8782SOL    HW127245   2.033   1.822   4.256  2.5460 -3.1921 -2.1456
 8782SOL    HW227246   2.172   1.884   4.315  0.4503 -0.6924  0.4453
 8783SOL     OW27247   0.418   6.792   6.319 -0.6063  0.5140  0.2201
 8783SOL    HW127248   0.515   6.816   6.320 -0.4177 -0.1399 -0.8074
 8783SOL    HW227249   0.373   6.840   6.244 -0.3911 -1.5552 -1.3451
 8784SOL     OW27250   4.582   6.441   0.162  0.0180 -0.3569  0.0263
 8784SOL    HW127251   4.575   6.468   0.258  1.0751  2.4266 -0.5924
 8784SOL    HW227252   4.671   6.399   0.146  0.7692  1.2049 -0.1114
 8785SOL     OW27253   2.897   5.773   1.926  0.2763  0.3217 -0.6173
 8785SOL    HW127254   2.818   5.719   1.898 -0.1038 -0.3233  1.5236
 8785SOL    HW227255   2.941   5.729   2.005  2.2730  1.1263 -1.2114
 8786SOL     OW27256   2.022   2.256   1.768  0.2582  0.4960  0.5549
 8786SOL    HW127257   2.040   2.212   1.680 -0.6773  1.2923 -0.0639
 8786SOL    HW227258   2.016   2.187   1.840 -0.5439 -0.3347 -0.2789
 8787SOL     OW27259   3.970   1.523   0.635 -0.1816  0.4923 -0.0953
 8787SOL    HW127260   3.977   1.609   0.585  1.2113  0.0757 -0.6906
 8787SOL    HW227261   3.973   1.541   0.734 -0.9599  1.1807 -0.1881
 8788SOL     OW27262   4.398   0.219   3.031 -0.2687  0.1808 -0.2110
 8788SOL    HW127263   4.440   0.265   3.108 -2.4710  0.6137  0.8014
 8788SOL    HW227264   4.465   0.158   2.988  2.5344  3.5932 -1.1422
 8789SOL     OW27265   3.353   5.138   2.236 -0.1987 -0.9314 -0.0256
 8789SOL    HW127266   3.345   5.170   2.330  0.5689 -0.8724  0.0238
 8789SOL    HW227267   3.376   5.041   2.235  0.0855 -0.8627 -0.1504
 8790SOL     OW27268   6.033   2.484   2.385 -0.8366  0.4157  0.0860
 8790SOL    HW127269   5.949   2.454   2.431 -0.8278 -0.9468 -0.7072
 8790SOL    HW227270   6.108   2.422   2.409 -0.9865 -0.7652 -2.1736
 8791SOL     OW27271   3.138   0.850   6.604  0.0295  0.6655  0.0965
 8791SOL    HW127272   3.228   0.813   6.626 -0.5441 -1.4735 -0.8390
 8791SOL    HW227273   3.134   0.947   6.628  2.0491  0.4359  1.5804
 8792SOL     OW27274   0.275   5.414   5.188 -0.9200 -0.1451  0.0071
 8792SOL    HW127275   0.228   5.430   5.102  0.5758 -2.2696 -1.2805
 8792SOL    HW227276   0.350   5.349   5.175 -0.4238 -0.3059  2.8550
 8793SOL     OW27277   3.251   0.829   2.593 -0.1091 -0.5433 -0.0223
 8793SOL    HW127278   3.155   0.812   2.614 -0.3635 -2.1168 -2.1571
 8793SOL    HW227279   3.306   0.750   2.620  0.4178 -0.1280  0.1419
 8794SOL     OW27280   4.704   4.410   5.167 -0.3603 -0.0596 -0.1107
 8794SOL    HW127281   4.662   4.501   5.164  1.1800  0.8444  2.4053
 8794SOL    HW227282   4.801   4.419   5.190  0.2352 -2.2979 -1.4585
 8795SOL     OW27283   1.432   3.042   2.475  0.2267  0.4199 -0.1833
 8795SOL    HW127284   1.433   3.131   2.521  2.4546  0.1465  0.4208
 8795SOL    HW227285   1.514   3.034   2.418 -0.6331 -0.7281 -1.3151
 8796SOL     OW27286   5.628   6.749   1.034  0.2985 -0.0067  0.4887
 8796SOL    HW127287   5.573   6.832   1.037  2.1751  1.2872  1.1547
 8796SOL    HW227288   5.653   6.729   0.939 -0.6701 -0.1854  0.2644
 8797SOL     OW27289   0.510   6.196   5.108 -0.5421 -0.0231  0.3852
 8797SOL    HW127290   0.455   6.113   5.109 -0.6756  0.0716  0.9791
 8797SOL    HW227291   0.452   6.275   5.131 -0.4758  0.2747 -0.4279
 8798SOL     OW27292   5.946   1.391   4.449 -0.7099  0.1821 -0.5271
 8798SOL    HW127293   6.024   1.417   4.392  0.8783 -0.2472  1.3410
 8798SOL    HW227294   5.899   1.473   4.482 -1.0085  0.4445 -1.5644
 8799SOL     OW27295   0.477   2.571   2.249 -0.0018  0.2489 -0.0836
 8799SOL    HW127296   0.526   2.614   2.173  0.0611  0.0982 -0.1302
 8799SOL    HW227297   0.467   2.473   2.230  1.4551 -0.1132  0.8526
 8800SOL     OW27298   2.929   0.315   3.086  0.6363  0.3372  0.3003
 8800SOL    HW127299   2.859   0.285   3.022  0.2948 -3.0758  2.0458
 8800SOL    HW227300   3.002   0.362   3.037 -0.4879 -0.4570 -2.2636
 8801SOL     OW27301   1.298   0.322   4.724  0.2432  0.8982 -0.2502
 8801SOL    HW127302   1.217   0.379   4.714  0.0700  0.6702 -0.1379
 8801SOL    HW227303   1.287   0.260   4.801  0.1553  0.2513 -0.7738
 8802SOL     OW27304   0.711   6.063   3.952 -0.2043 -0.1460 -0.2597
 8802SOL    HW127305   0.672   6.072   4.043 -0.4231  2.9964 -0.5573
 8802SOL    HW227306   0.806   6.094   3.952  0.6819 -2.5788 -0.6670
 8803SOL     OW27307   6.772   0.153   1.382  0.5414  0.6975 -0.1994
 8803SOL    HW127308   6.691   0.182   1.432  0.6538 -0.5279  0.7182
 8803SOL    HW227309   6.791   0.219   1.309 -0.1723  2.0043  0.7597
 8804SOL     OW27310   5.267   4.690   2.148 -0.4689 -0.0442  0.0075
 8804SOL    HW127311   5.231   4.779   2.176  0.7406  0.6111 -0.4048
 8804SOL    HW227312   5.230   4.666   2.058  1.1622  1.3238 -1.0924
 8805SOL     OW27313   4.717   5.000   0.547 -0.7802 -0.0904  0.3780
 8805SOL    HW127314   4.778   4.938   0.497  2.0083  0.4706  2.7919
 8805SOL    HW227315   4.704   5.084   0.493  0.7021 -0.1943 -0.2097
 8806SOL     OW27316   2.964   0.012   5.477  0.2160 -0.1108 -0.2179
 8806SOL    HW127317   3.027  -0.050   5.524 -0.6711  0.3660  1.7079
 8806SOL    HW227318   2.990   0.019   5.381 -0.2793 -4.2902 -0.8188
 8807SOL     OW27319   3.288   4.979   1.627 -0.3098 -0.4312  0.2543
 8807SOL    HW127320   3.237   4.964   1.542 -0.9775 -0.4612  0.6511
 8807SOL    HW227321   3.384   4.955   1.613 -0.2360  0.3239 -0.7212
 8808SOL     OW27322   1.531   1.196   6.350  0.2796 -0.0102  0.2099
 8808SOL    HW127323   1.615   1.219   6.301 -1.0689  1.6518 -1.4946
 8808SOL    HW227324   1.528   1.245   6.437  0.9452  0.1386  0.1520
 8809SOL     OW27325   6.970   6.360   5.619  0.1014  0.8529  0.3563
 8809SOL    HW127326   6.922   6.411   5.548 -0.3806  1.2149  0.9383
 8809SOL    HW227327   7.041   6.417   5.660  1.3876  0.1632 -0.8348
 8810SOL     OW27328   2.593   1.588   1.659  0.3336 -0.3933 -0.6522
 8810SOL    HW127329   2.542   1.501   1.658  0.0249 -0.2716  0.8841
 8810SOL    HW227330   2.673   1.578   1.718  0.5548  0.2265 -0.8454
 8811SOL     OW27331   6.300   2.072   3.705 -0.0232 -0.1890  0.2379
 8811SOL    HW127332   6.231   2.109   3.767 -0.1454  0.8459 -0.5002
 8811SOL    HW227333   6.389   2.071   3.751 -0.2704 -0.2544  0.7233
 8812SOL     OW27334   3.475   4.171   4.773 -0.9367  0.0281  0.4422
 8812SOL    HW127335   3.518   4.143   4.859  0.2535 -0.4052 -0.2738
 8812SOL    HW227336   3.418   4.252   4.789 -1.7170 -0.7720  1.8657
 8813SOL     OW27337   4.028   6.847   1.768 -0.0852  0.1401 -0.1333
 8813SOL    HW127338   3.960   6.801   1.825 -1.1330 -0.6335 -1.9192
 8813SOL    HW227339   4.108   6.788   1.757  1.6156  1.5677  3.0511
 8814SOL     OW27340   2.224   4.976   4.622  0.0025 -0.8405  0.1252
 8814SOL    HW127341   2.311   4.984   4.671 -0.0499  0.6857  0.0199
 8814SOL    HW227342   2.232   4.905   4.552  0.4864 -2.1446  1.4600
 8815SOL     OW27343   3.314   2.343   6.464 -0.5754 -0.1090  0.2139
 8815SOL    HW127344   3.318   2.279   6.387  0.7785  0.3302 -0.1097
 8815SOL    HW227345   3.334   2.294   6.549  0.7083 -0.1075 -0.0600
 8816SOL     OW27346   1.371   3.631   4.506 -0.1481  0.2912  0.2044
 8816SOL    HW127347   1.302   3.600   4.440 -0.5462  0.0944  0.7039
 8816SOL    HW227348   1.443   3.562   4.513 -0.7237 -0.2697  0.8610
 8817SOL     OW27349   3.138   1.218   0.119  0.1587 -0.2271 -0.8287
 8817SOL    HW127350   3.108   1.311   0.101  1.3102 -0.1168 -2.3558
 8817SOL    HW227351   3.088   1.181   0.197  0.0125  1.8244  0.1039
 8818SOL     OW27352   1.009   5.684   0.522 -0.1135 -0.1382  0.1464
 8818SOL    HW127353   0.971   5.690   0.615  1.4325  0.4919  0.7667
 8818SOL    HW227354   1.070   5.605   0.516 -2.0375 -1.6437 -1.0885
 8819SOL     OW27355   4.090   1.250   6.200  0.5623  0.1180 -0.5271
 8819SOL    HW127356   4.127   1.290   6.117  0.8680 -0.8088 -0.8492
 8819SOL    HW227357   4.138   1.287   6.279 -0.0306  1.3392 -0.7161
 8820SOL     OW27358   0.320   1.321   5.133 -0.2784  0.4144 -0.3754
 8820SOL    HW127359   0.285   1.227   5.133 -2.3208  1.1487 -0.7107
 8820SOL    HW227360   0.250   1.383   5.099  1.1009  2.0669 -0.3075
 8821SOL     OW27361   4.416   2.227   5.073  0.1622  0.1218 -0.0076
 8821SOL    HW127362   4.327   2.183   5.085  0.0719  0.2182 -0.3098
 8821SOL    HW227363   4.409   2.324   5.092  0.1495  0.1708 -0.2606
 8822SOL     OW27364   1.528   3.469   0.535  0.1951 -0.0162  0.3791
 8822SOL    HW127365   1.501   3.405   0.463  0.6207 -1.1948  1.2372
 8822SOL    HW227366   1.446   3.509   0.577 -0.1334 -0.9669  0.6731
 8823SOL     OW27367   0.602   4.853   1.918  0.5293 -0.0523  0.1770
 8823SOL    HW127368   0.557   4.940   1.897  2.1335  0.9430  0.6899
 8823SOL    HW227369   0.694   4.853   1.878  0.5626 -1.5279  0.2054
 8824SOL     OW27370   0.161   4.153   1.226 -0.3051  0.1287 -0.0226
 8824SOL    HW127371   0.066   4.126   1.206 -0.4797 -0.7519  1.7456
 8824SOL    HW227372   0.181   4.133   1.322  1.5346  0.7683 -0.2376
 8825SOL     OW27373   3.258   2.157   1.012 -0.2146  0.3336  0.3854
 8825SOL    HW127374   3.272   2.180   1.108 -1.9832  0.3046  0.6700
 8825SOL    HW227375   3.295   2.066   0.994 -0.6603 -0.0273  1.2540
 8826SOL     OW27376   4.013   3.450   0.184  0.5543 -0.2221  0.6491
 8826SOL    HW127377   3.943   3.378   0.182  0.2062  0.1275  0.1804
 8826SOL    HW227378   4.077   3.436   0.108 -1.1438  1.5652 -1.2173
 8827SOL     OW27379   4.374   5.020   6.080  0.5763  0.2530  0.1182
 8827SOL    HW127380   4.403   5.005   6.174 -0.9476 -0.1768  0.5534
 8827SOL    HW227381   4.401   5.112   6.050  1.5640  0.1809  0.7676
 8828SOL     OW27382   3.651   4.169   4.996 -0.6535 -0.0972 -0.6296
 8828SOL    HW127383   3.682   4.264   4.992  1.0703 -0.5095  1.3008
 8828SOL    HW227384   3.717   4.110   4.949  0.6627 -0.7577  1.8523
 8829SOL     OW27385   2.888   0.472   6.049 -0.2711  0.3454 -0.1943
 8829SOL    HW127386   2.951   0.435   6.117  2.9091  1.5825 -2.2345
 8829SOL    HW227387   2.845   0.396   6.000  1.9367 -0.7017 -0.6637
 8830SOL     OW27388   4.414   3.108   0.192  0.5349  0.3380  0.5685
 8830SOL    HW127389   4.391   3.175   0.264  0.9304  1.6306 -0.4638
 8830SOL    HW227390   4.333   3.092   0.135  0.2371 -0.6437  1.2486
 8831SOL     OW27391   6.817   5.854   0.226  0.1918 -0.2820  0.6329
 8831SOL    HW127392   6.794   5.757   0.220  1.1469 -0.4768 -0.0966
 8831SOL    HW227393   6.905   5.865   0.271  2.5586 -0.1823 -3.5374
 8832SOL     OW27394   6.721   3.477   1.415 -0.6368 -0.2862  0.0981
 8832SOL    HW127395   6.720   3.465   1.514 -0.3850 -1.2297 -0.0078
 8832SOL    HW227396   6.800   3.430   1.376  0.0914  1.2999 -0.4136
 8833SOL     OW27397   2.143   4.762   0.173 -0.0019  0.3750 -0.2003
 8833SOL    HW127398   2.173   4.781   0.266 -1.2583 -2.1278  0.8103
 8833SOL    HW227399   2.050   4.798   0.161 -0.2811 -0.2891 -0.0807
 8834SOL     OW27400   6.063   6.496   3.956  0.1021 -0.0806  0.0746
 8834SOL    HW127401   5.987   6.434   3.969 -0.3424  0.6865  1.3410
 8834SOL    HW227402   6.136   6.450   3.906 -1.5802 -0.5075 -2.1627
 8835SOL     OW27403   5.868   2.960   0.595  0.4231 -1.1450  0.0090
 8835SOL    HW127404   5.919   2.893   0.650  0.0866 -0.1708  1.5603
 8835SOL    HW227405   5.772   2.959   0.621  0.5067  0.3164  0.4641
 8836SOL     OW27406   3.222   5.831   3.105 -0.7511  0.5826  0.2235
 8836SOL    HW127407   3.212   5.902   3.035  0.8447 -1.1148 -1.8707
 8836SOL    HW227408   3.303   5.849   3.160 -0.3928  0.4392 -0.2522
 8837SOL     OW27409   4.879   6.235   3.374 -0.1289  0.1610  0.1719
 8837SOL    HW127410   4.974   6.202   3.371  0.0979  0.8543 -0.6733
 8837SOL    HW227411   4.855   6.259   3.469  0.1490 -1.1084  0.5758
 8838SOL     OW27412   3.244   3.610   2.691 -0.5341  0.4324  0.0101
 8838SOL    HW127413   3.207   3.518   2.706 -1.2365  0.8212  0.7040
 8838SOL    HW227414   3.179   3.678   2.724 -0.0434  1.1881 -0.5519
 8839SOL     OW27415   3.860   5.384   0.594  0.2248 -0.0549  0.7375
 8839SOL    HW127416   3.893   5.448   0.525 -0.7967 -1.7056 -1.4059
 8839SOL    HW227417   3.925   5.307   0.601 -0.1587 -0.3669  0.9042
 8840SOL     OW27418   5.442   4.150   1.365  0.3751 -0.1602 -0.4848
 8840SOL    HW127419   5.353   4.105   1.371  0.0179  0.6127  0.2687
 8840SOL    HW227420   5.513   4.082   1.345 -0.2490 -0.9247 -0.1419
 8841SOL     OW27421   2.788   6.439   6.819  0.0598  0.0375  0.2229
 8841SOL    HW127422   2.740   6.527   6.828 -0.9287 -0.4227 -0.4354
 8841SOL    HW227423   2.744   6.384   6.749  1.2326 -0.6391 -0.0109
 8842SOL     OW27424   2.754   2.519   0.054  0.3235  0.7180  0.1705
 8842SOL    HW127425   2.789   2.466  -0.024  1.0076  2.0358 -0.4416
 8842SOL    HW227426   2.671   2.567   0.028 -0.2031  0.0961  0.6759
 8843SOL     OW27427   2.932   0.565   5.499  0.8746 -0.2700  0.7832
 8843SOL    HW127428   3.023   0.599   5.524  1.5290  0.4158 -2.1575
 8843SOL    HW227429   2.863   0.632   5.526  1.4909  0.3208  0.9376
 8844SOL     OW27430   5.894   0.067   2.238 -0.0192 -0.7066  0.1414
 8844SOL    HW127431   5.991   0.066   2.211 -0.3653  0.6369 -1.3622
 8844SOL    HW227432   5.860  -0.026   2.243  1.5798 -1.2633  1.6854
 8845SOL     OW27433   2.337   1.340   2.312  0.5416 -0.0049  0.1314
 8845SOL    HW127434   2.326   1.277   2.389 -0.2418  1.0948  0.9573
 8845SOL    HW227435   2.315   1.433   2.342  2.1125  0.7491 -0.9252
 8846SOL     OW27436   3.943   4.208   1.406  0.5584  0.2617 -1.2222
 8846SOL    HW127437   3.931   4.117   1.447  3.7435  0.5365  0.6081
 8846SOL    HW227438   3.886   4.274   1.456  1.9871  0.0270  0.8766
 8847SOL     OW27439   6.373   3.016   0.090  0.2665 -0.1510 -0.2997
 8847SOL    HW127440   6.379   3.058   0.181 -0.4374  0.0733 -0.3504
 8847SOL    HW227441   6.429   2.933   0.088 -2.6554 -2.3701  1.5953
 8848SOL     OW27442   2.729   2.374   3.572  0.3140  0.6486 -0.3579
 8848SOL    HW127443   2.629   2.365   3.573  0.1331  1.0719 -3.8515
 8848SOL    HW227444   2.769   2.300   3.627 -1.8637 -0.2986  0.0717
 8849SOL     OW27445   5.592   3.897   6.589 -0.0076 -0.0773  0.2992
 8849SOL    HW127446   5.613   3.871   6.683 -3.2540  1.7598  1.6995
 8849SOL    HW227447   5.651   3.972   6.560 -0.3829  0.8172  1.7471
 8850SOL     OW27448   6.164   0.760   5.792  0.6179  0.5415  0.2023
 8850SOL    HW127449   6.196   0.690   5.729 -0.0784 -0.0171  0.4646
 8850SOL    HW227450   6.085   0.807   5.754  0.2402  0.2531  0.6149
 8851SOL     OW27451   5.959   6.671   6.340  0.2027 -0.0465 -0.0181
 8851SOL    HW127452   5.915   6.742   6.285  2.3221  0.9405 -0.5128
 8851SOL    HW227453   5.975   6.706   6.433 -1.9534 -1.1698  0.8486
 8852SOL     OW27454   5.514   5.463   0.948  0.9042  0.2954  0.0456
 8852SOL    HW127455   5.490   5.560   0.942  0.6519  0.2345  0.0326
 8852SOL    HW227456   5.443   5.409   0.904  0.4531  0.0237  1.0671
 8853SOL     OW27457   0.140   5.034   1.726 -0.2723 -0.3792  0.0464
 8853SOL    HW127458   0.040   5.034   1.721 -0.4094 -0.3410  1.9096
 8853SOL    HW227459   0.169   5.068   1.816  1.3769 -1.4035 -0.0523
 8854SOL     OW27460   3.234   3.992   5.813 -0.1960 -0.3547 -0.2410
 8854SOL    HW127461   3.188   4.073   5.779  0.6853 -0.0524 -0.7531
 8854SOL    HW227462   3.272   4.010   5.904  1.3366  0.3404 -0.9916
 8855SOL     OW27463   2.142   3.909   4.567 -0.2386  0.2493  0.0200
 8855SOL    HW127464   2.179   3.931   4.477  0.3672 -1.7568 -0.2641
 8855SOL    HW227465   2.054   3.864   4.557  0.4405 -1.1975  0.3293
 8856SOL     OW27466   2.426   2.694   3.901 -0.1232 -0.5071  0.1141
 8856SOL    HW127467   2.512   2.644   3.910 -0.7617 -1.7485 -0.3822
 8856SOL    HW227468   2.390   2.715   3.991  0.2994 -0.6940  0.3306
 8857SOL     OW27469   4.456   0.570   5.806 -0.2070 -0.1278  0.0315
 8857SOL    HW127470   4.460   0.495   5.739  0.2869 -1.4028  1.4129
 8857SOL    HW227471   4.462   0.657   5.759 -1.5359 -0.9145 -1.7124
 8858SOL     OW27472   0.905   3.933   4.399  0.5365  0.4325  0.4208
 8858SOL    HW127473   0.828   3.984   4.439  1.2407  1.1728  0.8474
 8858SOL    HW227474   0.869   3.852   4.353 -0.3896 -0.1221  1.9985
 8859SOL     OW27475   1.350   0.430   4.053 -0.0519 -0.4758 -0.3798
 8859SOL    HW127476   1.310   0.520   4.066  1.4729  0.1499  0.2827
 8859SOL    HW227477   1.320   0.392   3.965 -0.7104  0.6717 -0.6722
 8860SOL     OW27478   5.735   3.762   1.413 -0.3187 -0.2395  0.2998
 8860SOL    HW127479   5.657   3.711   1.379 -0.1075 -1.0117  0.9408
 8860SOL    HW227480   5.710   3.808   1.499 -0.5069  0.7498 -0.2683
 8861SOL     OW27481   3.207   3.490   2.063  0.0558 -0.8188  0.1800
 8861SOL    HW127482   3.285   3.547   2.037 -0.5275  0.3326  0.9139
 8861SOL    HW227483   3.217   3.460   2.158 -0.5218 -0.4413  0.3650
 8862SOL     OW27484   6.242   3.889   2.551 -0.5522  0.2887 -0.2066
 8862SOL    HW127485   6.306   3.960   2.583  0.4035 -1.0396  1.0057
 8862SOL    HW227486   6.281   3.799   2.572 -1.7055 -0.6009 -1.7619
 8863SOL     OW27487   0.340   2.428   4.498 -0.0759  0.1352  0.0249
 8863SOL    HW127488   0.298   2.405   4.410  1.7129 -0.9578 -0.5847
 8863SOL    HW227489   0.372   2.523   4.495  0.5268 -0.0872 -0.7348
 8864SOL     OW27490   5.904   0.117   4.435 -0.6575  0.4795  0.0063
 8864SOL    HW127491   5.980   0.082   4.489 -1.3244 -0.2975  0.4634
 8864SOL    HW227492   5.904   0.074   4.345 -0.6782  0.3207  0.0815
 8865SOL     OW27493   3.468   5.501   0.373 -0.4048  0.2542 -0.8440
 8865SOL    HW127494   3.466   5.582   0.432 -0.9556 -0.7310  0.5578
 8865SOL    HW227495   3.504   5.424   0.425  2.6680  0.1130 -2.9074
 8866SOL     OW27496   4.236   6.185   3.969 -0.1102  0.0317 -0.0497
 8866SOL    HW127497   4.190   6.111   4.019  1.9401  0.1677  2.2189
 8866SOL    HW227498   4.194   6.273   3.995 -1.7466 -0.1528 -1.8276
 8867SOL     OW27499   4.424   1.395   0.761 -0.2709  0.5644  0.2501
 8867SOL    HW127500   4.520   1.373   0.749  0.0697  1.3008  1.4902
 8867SOL    HW227501   4.397   1.464   0.693  0.0660  0.3448 -0.1066
 8868SOL     OW27502   4.790   6.301   1.149  0.0790  0.0757  0.0818
 8868SOL    HW127503   4.743   6.351   1.076 -2.1104 -2.5183 -0.4167
 8868SOL    HW227504   4.733   6.299   1.231  0.0511 -1.6517  0.0501
 8869SOL     OW27505   1.248   0.584   3.462 -0.2398 -0.5376  0.1949
 8869SOL    HW127506   1.170   0.576   3.399  0.3398 -3.1887 -0.3432
 8869SOL    HW227507   1.332   0.563   3.412  0.4396 -0.9024  1.4620
 8870SOL     OW27508   5.210   3.322   4.177 -0.4163  0.1266  0.1539
 8870SOL    HW127509   5.120   3.364   4.181 -0.3268  0.2526  0.9627
 8870SOL    HW227510   5.281   3.392   4.184 -0.2657 -0.0986  1.0317
 8871SOL     OW27511   5.470   4.777   6.505  0.7814  0.3665 -0.3765
 8871SOL    HW127512   5.419   4.808   6.425  1.2155 -2.1973 -1.7519
 8871SOL    HW227513   5.561   4.817   6.504  1.0545 -0.2490 -1.6375
 8872SOL     OW27514   0.396   2.378   3.995  0.2163 -0.0963  0.1182
 8872SOL    HW127515   0.348   2.448   4.048  0.7637 -0.9584  1.8127
 8872SOL    HW227516   0.392   2.402   3.898  0.8947  2.5956  0.6694
 8873SOL     OW27517   1.696   2.253   2.340 -0.0043 -0.3703 -0.8752
 8873SOL    HW127518   1.730   2.340   2.306  1.4867 -1.3867 -2.1583
 8873SOL    HW227519   1.660   2.265   2.433  1.7217  1.2836 -0.3541
 8874SOL     OW27520   5.792   5.801   3.688 -0.5352 -0.0501  0.2542
 8874SOL    HW127521   5.764   5.785   3.593 -0.9077  0.1449  0.3309
 8874SOL    HW227522   5.767   5.722   3.744  1.4751 -1.0549 -0.1776
 8875SOL     OW27523   3.697   6.069   1.901 -0.3921  0.4655 -0.4221
 8875SOL    HW127524   3.675   6.052   1.805 -1.4478 -0.5085 -0.0279
 8875SOL    HW227525   3.633   6.134   1.940 -1.3324 -0.7795  0.1738
 8876SOL     OW27526   5.020   5.637   5.174  0.4273 -0.0761 -0.1357
 8876SOL    HW127527   5.049   5.542   5.159 -0.1725 -0.1043 -1.2301
 8876SOL    HW227528   5.006   5.682   5.086  1.8121  1.4040  0.3641
 8877SOL     OW27529   5.552   6.772   0.362 -0.5940  0.2068 -0.0151
 8877SOL    HW127530   5.521   6.711   0.435  1.7969 -1.1497 -0.0021
 8877SOL    HW227531   5.582   6.859   0.402  0.2514 -0.3525  0.6223
 8878SOL     OW27532   5.859   6.548   4.998 -0.3195 -0.2512 -0.6037
 8878SOL    HW127533   5.866   6.648   5.006 -1.8230 -0.2590  1.7819
 8878SOL    HW227534   5.788   6.524   4.933 -1.9423  0.3548  0.8598
 8879SOL     OW27535   0.480   0.702   2.539 -0.0498  0.1258 -0.6983
 8879SOL    HW127536   0.540   0.686   2.617 -1.3646 -2.3960 -0.1018
 8879SOL    HW227537   0.491   0.628   2.473 -2.4805 -0.4430 -0.5461
 8880SOL     OW27538   5.221   6.592   0.684 -0.0384 -0.1515  0.1842
 8880SOL    HW127539   5.186   6.672   0.635  2.0846  0.4480 -0.4682
 8880SOL    HW227540   5.202   6.602   0.782 -0.9540  0.5099 -0.0497
 8881SOL     OW27541   4.069   1.219   5.634 -0.4798 -0.3274 -0.4644
 8881SOL    HW127542   3.972   1.206   5.614 -1.3060  1.3686  2.0354
 8881SOL    HW227543   4.121   1.140   5.600 -2.9857 -2.3148  0.0525
 8882SOL     OW27544   1.433   4.379   2.868  0.0046  0.0968 -0.7863
 8882SOL    HW127545   1.488   4.317   2.812 -0.7313  0.4687 -1.9671
 8882SOL    HW227546   1.355   4.412   2.815 -0.8556  0.3054  0.5418
 8883SOL     OW27547   3.095   3.659   3.269  0.2246  0.4356 -0.6260
 8883SOL    HW127548   3.039   3.686   3.347  0.1237 -1.1207 -0.1366
 8883SOL    HW227549   3.156   3.735   3.245 -0.4839  1.3275  0.2697
 8884SOL     OW27550   4.883   1.103   1.870  0.4357  0.0024 -1.2705
 8884SOL    HW127551   4.868   1.109   1.771 -1.2295 -2.7818 -1.2543
 8884SOL    HW227552   4.947   1.029   1.889 -2.1541 -2.0838 -0.1372
 8885SOL     OW27553   3.154   3.949   4.364  0.1909  0.6143 -0.4278
 8885SOL    HW127554   3.236   4.006   4.366  0.9150 -0.3363  2.6725
 8885SOL    HW227555   3.103   3.960   4.449 -1.7193 -0.5280 -1.3477
 8886SOL     OW27556   3.527   3.758   5.638 -0.4551  0.2052  0.1341
 8886SOL    HW127557   3.547   3.664   5.666 -1.5503  0.2641  1.2283
 8886SOL    HW227558   3.439   3.761   5.590  0.6517  0.3629 -2.0084
 8887SOL     OW27559   1.304   1.228   5.894 -0.4419 -0.2021  0.6901
 8887SOL    HW127560   1.248   1.257   5.817 -1.8047 -0.5382  1.5279
 8887SOL    HW227561   1.361   1.150   5.866 -1.3619 -0.7050  0.1907
 8888SOL     OW27562   2.153   2.509   1.997  0.1629 -0.5686  0.0426
 8888SOL    HW127563   2.199   2.425   2.029  1.6584  1.2144  3.0358
 8888SOL    HW227564   2.222   2.574   1.964 -0.4811  0.9051  1.4690
 8889SOL     OW27565   2.948   6.401   5.770  0.1193  0.5470  0.2997
 8889SOL    HW127566   2.873   6.425   5.832  0.1488  0.0712  0.5243
 8889SOL    HW227567   2.910   6.367   5.683 -0.1252 -4.0166  1.9301
 8890SOL     OW27568   4.475   3.077   0.872 -0.0780 -0.3209 -0.1529
 8890SOL    HW127569   4.377   3.096   0.878 -0.3813 -2.0701  1.1389
 8890SOL    HW227570   4.518   3.088   0.961  1.2272  1.7142 -0.9457
 8891SOL     OW27571   2.938   4.577   1.580 -0.0894  0.6167  0.1912
 8891SOL    HW127572   2.901   4.563   1.672  1.0035  2.1523  0.9130
 8891SOL    HW227573   2.988   4.496   1.551 -1.2179 -0.2308  0.5580
 8892SOL     OW27574   2.014   4.145   2.988 -0.3472 -0.3844 -0.1175
 8892SOL    HW127575   2.016   4.129   2.890  0.2793  0.5716 -0.2741
 8892SOL    HW227576   1.936   4.203   3.011  0.3308  0.6194 -0.2693
 8893SOL     OW27577   1.680   4.047   0.662 -0.6131  0.1507  0.5525
 8893SOL    HW127578   1.628   3.964   0.641  0.7418 -0.3915 -0.8592
 8893SOL    HW227579   1.742   4.030   0.738  1.1435 -0.8290 -1.0321
 8894SOL     OW27580   0.098   2.610   4.665  0.3797 -0.0199  0.0334
 8894SOL    HW127581   0.099   2.511   4.652  0.4696 -0.0773  0.4810
 8894SOL    HW227582   0.183   2.649   4.628  0.3643 -0.1154 -0.1030
 8895SOL     OW27583   3.195   3.824   6.476 -0.2715 -0.1939  0.2303
 8895SOL    HW127584   3.271   3.885   6.454 -0.3815 -0.2187 -0.2349
 8895SOL    HW227585   3.216   3.774   6.560  0.3891 -0.4653 -0.0855
 8896SOL     OW27586   4.265   0.526   1.887 -0.0920 -0.3274 -0.4414
 8896SOL    HW127587   4.226   0.444   1.928  2.2501 -1.5133 -0.3792
 8896SOL    HW227588   4.364   0.525   1.901 -0.1519  3.5797  1.3684
 8897SOL     OW27589   6.223   0.236   0.767 -0.7238  0.6249  0.1332
 8897SOL    HW127590   6.252   0.235   0.672  1.3612 -1.4453  0.6941
 8897SOL    HW227591   6.125   0.217   0.772 -0.7359  0.0683 -1.5638
 8898SOL     OW27592   3.836   1.622   5.483  0.3099  0.2447 -0.4534
 8898SOL    HW127593   3.835   1.720   5.506  0.8113  0.2477 -0.4395
 8898SOL    HW227594   3.903   1.575   5.540 -0.0050 -0.1272 -0.3884
 8899SOL     OW27595   5.628   1.171   6.695  0.6838  0.4589 -0.1436
 8899SOL    HW127596   5.711   1.124   6.727  0.1653  0.7297  1.7005
 8899SOL    HW227597   5.628   1.172   6.595  1.7802 -1.5358 -0.2298
 8900SOL     OW27598   6.970   0.856   0.036 -0.8982  0.3311  0.1228
 8900SOL    HW127599   6.885   0.813   0.006 -0.6793  0.1376 -0.2310
 8900SOL    HW227600   6.984   0.941  -0.015 -1.3212  0.8232  0.8089
 8901SOL     OW27601   0.550   5.366   5.971  0.5276 -0.0002 -0.2053
 8901SOL    HW127602   0.494   5.441   5.938  0.5321 -0.3892 -1.1442
 8901SOL    HW227603   0.563   5.374   6.070  0.1097  0.9403 -0.2184
 8902SOL     OW27604   6.654   0.557   2.327  0.4222 -0.0007 -0.2349
 8902SOL    HW127605   6.713   0.508   2.392  0.7782  0.3833 -0.2674
 8902SOL    HW227606   6.710   0.603   2.258  0.0358 -0.6416 -0.9926
 8903SOL     OW27607   5.081   6.680   6.893 -0.3125  0.3844  0.2772
 8903SOL    HW127608   5.076   6.735   6.976 -0.1843  1.4001 -0.3668
 8903SOL    HW227609   5.050   6.735   6.815 -1.1097 -0.7721 -0.2467
 8904SOL     OW27610   3.968   2.931   5.259  0.2485  0.1146  0.0489
 8904SOL    HW127611   3.890   2.946   5.198 -0.1025  2.5570  0.9900
 8904SOL    HW227612   4.032   3.008   5.250 -0.1470  0.9499  3.1833
 8905SOL     OW27613   5.743   2.808   2.475  0.0485 -0.3829  0.6052
 8905SOL    HW127614   5.776   2.835   2.565  0.6196  1.9257 -0.2303
 8905SOL    HW227615   5.683   2.878   2.438 -2.5191 -2.5726  0.2825
 8906SOL     OW27616   6.970   6.328   5.161 -0.5292 -0.4135 -0.5204
 8906SOL    HW127617   7.062   6.363   5.141 -0.7448 -0.1154 -1.0229
 8906SOL    HW227618   6.965   6.232   5.134 -0.3826 -0.4142 -0.5506
 8907SOL     OW27619   1.619   4.514   0.660 -0.1890  0.0028 -0.8065
 8907SOL    HW127620   1.533   4.566   0.665  0.1021  0.4032  0.1592
 8907SOL    HW227621   1.688   4.569   0.612 -0.2705 -0.0428 -0.9776
 8908SOL     OW27622   2.633   1.984   3.344  0.4320  0.1526 -0.1408
 8908SOL    HW127623   2.661   1.914   3.277 -0.4508  1.6758 -2.2266
 8908SOL    HW227624   2.702   2.056   3.348 -0.6390  1.3207 -1.4019
 8909SOL     OW27625   6.888   6.615   2.972  0.5865 -0.0891  0.0670
 8909SOL    HW127626   6.863   6.619   2.876  0.6388  0.7855  0.0881
 8909SOL    HW227627   6.883   6.520   3.003  0.6081 -0.3810 -0.8005
 8910SOL     OW27628   5.973   1.656   1.259 -0.0962 -0.0486 -0.0852
 8910SOL    HW127629   5.952   1.751   1.234  3.2949  0.6517 -0.8452
 8910SOL    HW227630   5.930   1.634   1.346 -0.7983  2.2804  0.2180
 8911SOL     OW27631   6.033   5.114   2.426  0.4032  0.4872 -0.1136
 8911SOL    HW127632   5.988   5.065   2.501 -1.7226  0.7756 -1.1081
 8911SOL    HW227633   6.049   5.209   2.453 -0.6686  0.6793 -0.0988
 8912SOL     OW27634   1.433   0.420   1.448 -0.0122 -0.3357 -0.2036
 8912SOL    HW127635   1.489   0.503   1.444 -2.0615  1.0855 -1.3337
 8912SOL    HW227636   1.442   0.378   1.538  1.7071  0.6439  0.1175
 8913SOL     OW27637   0.094   5.111   0.421 -0.1539  0.2187  0.0598
 8913SOL    HW127638   0.038   5.190   0.446 -0.4049  0.0193  0.1288
 8913SOL    HW227639   0.052   5.028   0.456  0.1189  0.0549 -0.0007
 8914SOL     OW27640   0.511   1.589   5.829 -0.6256  0.3995  0.1573
 8914SOL    HW127641   0.541   1.542   5.746  0.5972  0.7001  0.4071
 8914SOL    HW227642   0.567   1.559   5.906 -0.0222  1.9851  0.3859
 8915SOL     OW27643   0.777   0.100   2.254  0.4420 -0.4143  0.5435
 8915SOL    HW127644   0.865   0.109   2.208 -0.3207  0.5085 -0.8177
 8915SOL    HW227645   0.772   0.166   2.330  0.7031 -0.0451  0.2459
 8916SOL     OW27646   4.042   3.340   3.611 -0.0095 -0.1901 -0.1774
 8916SOL    HW127647   4.141   3.346   3.599  0.2037 -0.3466  1.3533
 8916SOL    HW227648   4.021   3.270   3.680 -1.1163  0.7392  0.4616
 8917SOL     OW27649   0.788   4.961   3.802  0.1439  0.3732  0.0796
 8917SOL    HW127650   0.697   4.976   3.841  0.2600 -1.4387  1.1578
 8917SOL    HW227651   0.855   4.954   3.876  0.9924  0.5597 -0.6546
 8918SOL     OW27652   0.378   1.071   4.378 -0.2436 -0.0680 -0.3027
 8918SOL    HW127653   0.448   1.131   4.339  1.6244 -2.2003 -0.4585
 8918SOL    HW227654   0.327   1.121   4.447  1.0602  1.7594 -0.5730
 8919SOL     OW27655   5.625   3.575   6.031  0.2423 -0.4574 -0.4524
 8919SOL    HW127656   5.654   3.523   6.111 -1.2675 -1.9762 -0.8591
 8919SOL    HW227657   5.591   3.665   6.060 -0.9186 -1.2458  0.6962
 8920SOL     OW27658   4.530   5.112   2.675 -0.2615  0.4301 -0.1890
 8920SOL    HW127659   4.455   5.075   2.730 -0.4039  2.3649  1.0065
 8920SOL    HW227660   4.546   5.207   2.700  1.1600  0.7189 -1.9832
 8921SOL     OW27661   5.502   3.614   2.081 -0.3604 -0.6604  1.1246
 8921SOL    HW127662   5.529   3.555   2.157 -0.7636 -1.8159  0.3993
 8921SOL    HW227663   5.402   3.619   2.077 -0.4099 -1.9622 -0.2864
 8922SOL     OW27664   2.795   3.371   6.504 -0.7408  0.1233  0.4202
 8922SOL    HW127665   2.716   3.344   6.559 -0.7946 -1.7640 -0.5284
 8922SOL    HW227666   2.785   3.467   6.476 -2.3279  0.1185  0.8901
 8923SOL     OW27667   4.658   1.042   2.883  0.1911 -0.3870  0.4793
 8923SOL    HW127668   4.569   1.074   2.848  0.0584 -0.3724  0.8315
 8923SOL    HW227669   4.713   1.009   2.806  0.0576  0.0289  0.1998
 8924SOL     OW27670   4.865   4.014   6.385 -0.8793  1.2128 -0.1938
 8924SOL    HW127671   4.942   4.058   6.339  1.9588 -3.7715 -1.0107
 8924SOL    HW227672   4.886   4.003   6.483  0.2177 -1.1046 -0.6006
 8925SOL     OW27673   2.257   1.185   1.850 -0.5081  0.1112 -0.1396
 8925SOL    HW127674   2.200   1.266   1.862 -0.2617  0.1678  0.6679
 8925SOL    HW227675   2.261   1.134   1.935 -1.6755 -1.4332 -0.9611
 8926SOL     OW27676   4.366   0.953   4.668  0.1091  0.2276 -0.1991
 8926SOL    HW127677   4.273   0.930   4.697 -0.0699  1.4013  0.2279
 8926SOL    HW227678   4.431   0.892   4.712 -0.4177 -0.1957  0.0010
 8927SOL     OW27679   6.570   2.312   3.692  0.5190  0.9828 -0.0754
 8927SOL    HW127680   6.664   2.302   3.661  0.4467  0.9498 -0.2836
 8927SOL    HW227681   6.508   2.278   3.622  0.3522  0.9741  0.0745
 8928SOL     OW27682   2.174   2.762   0.301  0.1530  0.4721  0.6165
 8928SOL    HW127683   2.198   2.850   0.341  1.0189 -0.1907  1.6066
 8928SOL    HW227684   2.255   2.704   0.295 -0.4455 -0.3616  0.2307
 8929SOL     OW27685   5.728   0.605   0.311  0.1879  0.1854  0.1561
 8929SOL    HW127686   5.769   0.550   0.238 -2.8574 -2.9958  0.5678
 8929SOL    HW227687   5.695   0.691   0.272  0.3870 -0.5733 -1.8341
 8930SOL     OW27688   2.174   4.821   6.901 -0.4450  0.5192  0.0619
 8930SOL    HW127689   2.172   4.814   7.001 -1.0729  0.0426  0.0156
 8930SOL    HW227690   2.110   4.892   6.872  0.3011  1.2031  0.0354
 8931SOL     OW27691   0.053   2.895   3.502 -0.1991  0.5885  0.2433
 8931SOL    HW127692   0.088   2.951   3.426  0.1888 -0.3458 -0.2834
 8931SOL    HW227693  -0.040   2.866   3.481 -0.2783  0.7529  0.3647
 8932SOL     OW27694   6.490   6.785   4.795  0.1853 -0.3149  0.2481
 8932SOL    HW127695   6.541   6.772   4.880 -0.9856 -0.1002  0.9991
 8932SOL    HW227696   6.394   6.762   4.809  0.1028 -1.0095 -1.2244
 8933SOL     OW27697   0.901   1.919   6.724  0.6771 -0.8144 -0.6080
 8933SOL    HW127698   0.822   1.858   6.716  0.3866 -0.5746  0.2657
 8933SOL    HW227699   0.886   2.001   6.670  0.6210 -1.0570 -0.9666
 8934SOL     OW27700   3.027   6.720   2.648  0.6320 -0.0625  0.4755
 8934SOL    HW127701   3.113   6.761   2.618  0.2243 -0.0911 -0.8004
 8934SOL    HW227702   3.033   6.621   2.643  0.2075 -0.0491 -0.6179
 8935SOL     OW27703   0.386   2.560   3.261 -0.1683 -0.8916 -0.0809
 8935SOL    HW127704   0.464   2.598   3.211 -0.2144  0.3049  0.6985
 8935SOL    HW227705   0.333   2.635   3.301  0.1855 -1.7692  2.2050
 8936SOL     OW27706   5.574   4.127   5.431 -0.4513 -0.4253 -0.3368
 8936SOL    HW127707   5.533   4.162   5.347  0.3765 -1.9682 -1.4365
 8936SOL    HW227708   5.502   4.101   5.495 -1.3305 -3.1136 -2.2331
 8937SOL     OW27709   6.491   2.803   3.236  0.4781 -0.2758  0.0017
 8937SOL    HW127710   6.475   2.798   3.137  1.3426 -0.8496 -0.1179
 8937SOL    HW227711   6.578   2.759   3.258  0.8938  0.9373  0.8716
 8938SOL     OW27712   4.876   0.174   5.405 -0.7026 -0.4011 -0.1483
 8938SOL    HW127713   4.953   0.183   5.343  0.3574  1.2969  1.3300
 8938SOL    HW227714   4.859   0.077   5.424  1.0383 -0.8024 -0.5164
 8939SOL     OW27715   6.622   2.269   0.776  0.1952  0.3110 -0.5930
 8939SOL    HW127716   6.715   2.288   0.808  0.9709 -3.8614  0.2124
 8939SOL    HW227717   6.556   2.312   0.838  1.6201  0.8528  0.6014
 8940SOL     OW27718   3.069   1.605   0.985  0.0141 -0.1841  0.1614
 8940SOL    HW127719   3.030   1.661   1.057 -2.1821 -0.5860 -0.6200
 8940SOL    HW227720   3.087   1.661   0.904 -0.2046 -0.2353  0.0771
 8941SOL     OW27721   4.035   2.762   0.525  0.2682  0.1404 -0.2702
 8941SOL    HW127722   3.963   2.702   0.561  0.9056 -0.4003  0.1230
 8941SOL    HW227723   4.014   2.786   0.431 -1.2342  1.2633  0.3086
 8942SOL     OW27724   4.257   6.462   1.831 -0.4431  0.4539 -0.0962
 8942SOL    HW127725   4.283   6.498   1.921  0.4126  3.1653 -1.3311
 8942SOL    HW227726   4.334   6.415   1.790 -0.3736  0.4859 -0.0019
 8943SOL     OW27727   0.130   2.839   1.020 -0.6919  0.1310 -0.0822
 8943SOL    HW127728   0.041   2.827   0.976 -0.2787 -0.3971 -0.7999
 8943SOL    HW227729   0.128   2.800   1.112 -1.5902  1.3154  0.4226
 8944SOL     OW27730   6.527   1.862   5.487  0.3137 -0.5277 -0.1050
 8944SOL    HW127731   6.475   1.925   5.545 -0.2550 -2.2467  1.3376
 8944SOL    HW227732   6.623   1.864   5.514  0.3872  0.0685 -0.3968
 8945SOL     OW27733   3.501   1.796   0.312 -0.6486 -0.1273  0.0667
 8945SOL    HW127734   3.552   1.711   0.299 -0.3841 -0.2021  1.3739
 8945SOL    HW227735   3.403   1.777   0.311 -0.5846 -0.6012  1.0894
 8946SOL     OW27736   1.342   2.795   0.878 -0.3303 -0.0256  0.0803
 8946SOL    HW127737   1.318   2.704   0.843  1.6932 -0.0982 -1.2766
 8946SOL    HW227738   1.441   2.803   0.886 -0.4704  2.0429  0.2657
 8947SOL     OW27739   4.679   1.754   3.617  0.4540 -0.5086 -0.4883
 8947SOL    HW127740   4.592   1.790   3.651  0.3421 -2.2651  1.2366
 8947SOL    HW227741   4.736   1.830   3.585 -1.8530  0.6374 -2.1403
 8948SOL     OW27742   3.533   1.020   3.033 -0.0460 -0.0767 -0.5116
 8948SOL    HW127743   3.484   1.010   2.946 -0.6962  2.1159 -0.4648
 8948SOL    HW227744   3.498   0.953   3.099  1.2044 -2.5177 -2.1774
 8949SOL     OW27745   0.090   0.377   0.148  0.6690  0.3842  0.1374
 8949SOL    HW127746   0.018   0.387   0.080  1.0608 -1.2337 -0.5633
 8949SOL    HW227747   0.053   0.394   0.239 -0.1556  1.3448 -0.3699
 8950SOL     OW27748   5.359   0.751   6.282 -0.0780  0.3582  0.3540
 8950SOL    HW127749   5.445   0.702   6.296  0.6995  1.8868  1.0563
 8950SOL    HW227750   5.315   0.717   6.198  1.1642 -0.4659  0.0124
 8951SOL     OW27751   2.148   1.710   6.654 -0.2624  0.2931 -0.3830
 8951SOL    HW127752   2.162   1.773   6.578 -1.6789  0.9864 -0.0954
 8951SOL    HW227753   2.172   1.757   6.740 -0.5126  0.1528 -0.2375
 8952SOL     OW27754   6.715   1.018   0.271  0.1509  0.2514  0.7499
 8952SOL    HW127755   6.635   0.958   0.267  0.7142 -0.5503  1.2756
 8952SOL    HW227756   6.737   1.051   0.180 -0.0397 -0.5156  0.4177
 8953SOL     OW27757   3.038   6.454   0.544 -0.6802  0.7890 -0.2098
 8953SOL    HW127758   3.132   6.484   0.565 -0.7926  0.2606  1.1680
 8953SOL    HW227759   3.040   6.362   0.506 -0.6051  1.0209 -0.7771
 8954SOL     OW27760   2.505   4.385   5.235  0.1952  0.0746 -0.6629
 8954SOL    HW127761   2.411   4.357   5.255  0.2066 -0.0705 -0.8065
 8954SOL    HW227762   2.568   4.315   5.270  0.3033  0.6143  0.2720
 8955SOL     OW27763   6.692   4.819   6.074  0.3795 -0.0072 -0.0222
 8955SOL    HW127764   6.777   4.768   6.082  1.0364  0.9415 -0.8531
 8955SOL    HW227765   6.625   4.764   6.024  1.2261  0.0752 -1.3021
 8956SOL     OW27766   6.832   3.023   0.959 -0.2972  0.6671 -0.3848
 8956SOL    HW127767   6.860   2.946   0.902  0.3563  0.9159 -0.4082
 8956SOL    HW227768   6.740   3.007   0.994 -1.2176  1.0366 -2.4813
 8957SOL     OW27769   2.510   4.739   0.959  0.0312 -0.4205  0.4059
 8957SOL    HW127770   2.566   4.773   1.035  0.7020 -2.6564  1.0045
 8957SOL    HW227771   2.566   4.681   0.900 -0.9482 -0.2530 -0.7140
 8958SOL     OW27772   6.878   6.564   6.721 -0.4034  0.1910  0.3364
 8958SOL    HW127773   6.904   6.555   6.625  0.0702 -1.5840  0.5921
 8958SOL    HW227774   6.833   6.480   6.751 -0.3642  0.6459  1.7232
 8959SOL     OW27775   5.668   4.020   1.295 -0.0378 -0.0142  0.5727
 8959SOL    HW127776   5.741   3.955   1.317 -0.7627 -0.5579  1.4264
 8959SOL    HW227777   5.708   4.107   1.267  0.9354 -0.1302  1.5499
 8960SOL     OW27778   4.600   0.381   0.907 -0.2120  0.3081  0.0412
 8960SOL    HW127779   4.659   0.417   0.979  1.8522 -0.9900 -0.9106
 8960SOL    HW227780   4.514   0.351   0.946  0.0754  1.4625  1.6323
 8961SOL     OW27781   0.719   6.689   1.244 -0.0633  0.2312 -0.0620
 8961SOL    HW127782   0.687   6.751   1.172 -1.4577 -1.6967 -1.1895
 8961SOL    HW227783   0.722   6.596   1.208 -1.2460 -0.8661  2.5033
 8962SOL     OW27784   5.561   6.180   2.102 -0.0740  0.0547  0.5212
 8962SOL    HW127785   5.554   6.087   2.138 -1.5340 -0.0747 -0.0659
 8962SOL    HW227786   5.633   6.183   2.032 -0.0957 -0.6586  0.4581
 8963SOL     OW27787   6.736   2.394   2.055  0.8104  0.8792  0.9334
 8963SOL    HW127788   6.680   2.446   1.990  0.3570 -0.5740  0.1140
 8963SOL    HW227789   6.808   2.345   2.005  0.2584 -0.5137  1.4568
 8964SOL     OW27790   4.902   0.470   4.622 -0.1392  0.3296 -0.6661
 8964SOL    HW127791   4.960   0.546   4.651  3.1353 -2.0621 -0.3960
 8964SOL    HW227792   4.878   0.481   4.525  2.1651  0.6853 -1.2500
 8965SOL     OW27793   0.799   1.671   1.127  0.4994  0.0240  0.2086
 8965SOL    HW127794   0.849   1.705   1.047 -0.8527 -0.5048 -0.8885
 8965SOL    HW227795   0.819   1.730   1.206 -0.7766  2.6816 -1.3093
 8966SOL     OW27796   4.423   2.372   2.015 -0.1235  0.5544  0.1490
 8966SOL    HW127797   4.397   2.279   1.990  0.0128  0.2813  0.9961
 8966SOL    HW227798   4.383   2.396   2.104  0.6770  0.9223  0.4231
 8967SOL     OW27799   2.067   6.256   4.454 -0.2841 -0.0153  0.1303
 8967SOL    HW127800   2.131   6.220   4.522  0.7126 -0.8805 -1.2119
 8967SOL    HW227801   2.043   6.184   4.389 -1.5796  0.6655 -0.1964
 8968SOL     OW27802   3.402   6.248   1.316  0.1761 -0.8449  0.0064
 8968SOL    HW127803   3.497   6.238   1.288 -0.1698 -1.6545 -0.8909
 8968SOL    HW227804   3.385   6.344   1.339  1.2893 -0.7490  0.5270
 8969SOL     OW27805   5.397   2.533   1.719 -0.0860 -0.3275 -0.5251
 8969SOL    HW127806   5.441   2.614   1.759 -2.1537 -0.0316  1.3859
 8969SOL    HW227807   5.466   2.468   1.690  1.7002 -0.1734  2.8640
 8970SOL     OW27808   5.052   4.307   6.618  0.5948  0.0524  0.5848
 8970SOL    HW127809   5.036   4.387   6.559  1.4004  0.2576  0.6395
 8970SOL    HW227810   4.992   4.233   6.589  1.1431  0.0681 -0.6677
 8971SOL     OW27811   5.550   5.044   3.753  0.3391 -0.3176  0.5963
 8971SOL    HW127812   5.511   5.116   3.811  0.1310  0.4741 -0.5009
 8971SOL    HW227813   5.547   4.957   3.802 -2.0292 -0.1306  0.8728
 8972SOL     OW27814   4.710   5.998   3.432  0.5584  0.0034  0.4691
 8972SOL    HW127815   4.641   6.021   3.500  0.2352  0.3151  0.0421
 8972SOL    HW227816   4.712   6.068   3.361  0.1093 -0.8692 -0.4295
 8973SOL     OW27817   0.220   2.270   1.420 -0.0392 -0.0414 -0.0703
 8973SOL    HW127818   0.123   2.284   1.402 -0.1793 -0.7573  0.1087
 8973SOL    HW227819   0.274   2.336   1.368 -0.6650  1.0673  0.6417
 8974SOL     OW27820   0.491   4.136   2.567  0.2054 -0.0598 -0.3454
 8974SOL    HW127821   0.413   4.093   2.522  0.4922 -0.7214 -0.2269
 8974SOL    HW227822   0.576   4.092   2.537  0.4586  0.0299  0.2228
 8975SOL     OW27823   6.282   4.343   6.739  0.0181 -0.0009  0.4428
 8975SOL    HW127824   6.369   4.332   6.691  0.0585  1.1076  0.2546
 8975SOL    HW227825   6.280   4.431   6.786 -1.1212  0.1181  0.1991
 8976SOL     OW27826   1.427   0.040   6.062 -0.0657  0.2713  0.3107
 8976SOL    HW127827   1.439   0.102   5.985 -2.4088  2.9137  1.8646
 8976SOL    HW227828   1.517   0.008   6.093  1.0160  0.3844 -2.4613
 8977SOL     OW27829   1.605   2.410   2.875  0.1214 -0.1283 -0.1870
 8977SOL    HW127830   1.618   2.499   2.918  0.4177 -0.6817  0.9186
 8977SOL    HW227831   1.522   2.411   2.820  0.2601  0.9014 -0.4007
 8978SOL     OW27832   5.670   0.823   3.704 -0.1457  0.0565  0.1277
 8978SOL    HW127833   5.761   0.788   3.679 -0.3000 -0.1518 -0.1456
 8978SOL    HW227834   5.619   0.845   3.621 -0.8707 -1.1687  0.2296
 8979SOL     OW27835   5.005   5.190   6.849  0.6364 -0.1235  0.0789
 8979SOL    HW127836   5.091   5.209   6.895  0.2525 -0.4824  0.9710
 8979SOL    HW227837   5.001   5.094   6.823 -0.1726 -0.5298  1.5683
 8980SOL     OW27838   5.574   3.537   0.916 -0.1828  0.0081  0.2161
 8980SOL    HW127839   5.500   3.595   0.950 -0.8987 -1.2004  0.8181
 8980SOL    HW227840   5.593   3.465   0.984 -0.3590 -1.3636 -1.1497
 8981SOL     OW27841   0.304   5.996   6.404  0.0106 -0.2148 -0.0853
 8981SOL    HW127842   0.225   6.056   6.388  0.4661  0.1854 -0.8935
 8981SOL    HW227843   0.346   5.972   6.317  0.0155 -1.4925  0.2518
 8982SOL     OW27844   3.716   6.537   6.308 -0.3780  0.2111 -0.4318
 8982SOL    HW127845   3.778   6.542   6.387 -1.1877 -2.9102  0.5543
 8982SOL    HW227846   3.624   6.564   6.337 -0.6394 -0.7660 -0.3245
 8983SOL     OW27847   5.878   4.978   4.575 -0.3726  0.2475 -0.5016
 8983SOL    HW127848   5.876   5.002   4.673  1.7272 -1.9464  0.1838
 8983SOL    HW227849   5.973   4.982   4.542 -0.9272 -0.0125 -2.2050
 8984SOL     OW27850   1.763   2.677   1.684  0.1322 -0.6544  0.1188
 8984SOL    HW127851   1.839   2.733   1.716 -0.2369  0.6771 -1.2336
 8984SOL    HW227852   1.798   2.606   1.623  0.4457 -1.0303  0.7246
 8985SOL     OW27853   0.847   5.316   6.349 -0.4470 -0.1959  0.2163
 8985SOL    HW127854   0.926   5.268   6.386  0.3871 -0.6684 -2.0463
 8985SOL    HW227855   0.873   5.408   6.321 -0.8223 -0.1697 -0.0637
 8986SOL     OW27856   4.622   0.184   2.247  0.1919  0.5501  0.1766
 8986SOL    HW127857   4.599   0.280   2.264  1.1293  0.5867  1.3895
 8986SOL    HW227858   4.711   0.163   2.289 -0.9627 -1.3843  1.8629
 8987SOL     OW27859   4.316   6.222   6.786 -0.2426  0.1195 -0.2149
 8987SOL    HW127860   4.371   6.287   6.839 -0.8417  0.0761  0.4743
 8987SOL    HW227861   4.374   6.177   6.718  1.0730 -1.4046  1.8328
 8988SOL     OW27862   0.114   4.192   0.368 -0.2083 -0.2077  0.2431
 8988SOL    HW127863   0.194   4.206   0.426 -0.2006 -0.9986  0.4421
 8988SOL    HW227864   0.143   4.176   0.274 -0.2192  1.0478  0.0179
 8989SOL     OW27865   2.580   1.159   4.697  0.3956  0.4543  0.2450
 8989SOL    HW127866   2.672   1.146   4.659  0.1571  0.1803 -0.2593
 8989SOL    HW227867   2.577   1.128   4.792  0.6115 -0.3367 -0.0021
 8990SOL     OW27868   1.276   5.752   5.739  0.1907  0.1566  0.1611
 8990SOL    HW127869   1.250   5.826   5.677  0.5534  0.5510  0.4743
 8990SOL    HW227870   1.351   5.700   5.698 -1.3523 -1.2745 -0.9586
 8991SOL     OW27871   3.377   1.590   2.993 -0.0016  0.2170  0.0014
 8991SOL    HW127872   3.432   1.657   3.043 -0.3263  0.5583 -0.0881
 8991SOL    HW227873   3.383   1.609   2.895  2.0927 -1.5538 -0.2820
 8992SOL     OW27874   4.825   6.907   5.377  0.4429 -0.2852 -0.2505
 8992SOL    HW127875   4.791   6.843   5.308 -0.5203  0.5214 -0.5443
 8992SOL    HW227876   4.920   6.885   5.399  0.4757 -1.1151 -1.1576
 8993SOL     OW27877   2.750   2.746   0.770 -0.4773 -0.4224 -0.5729
 8993SOL    HW127878   2.812   2.761   0.847  0.1298 -0.3432 -1.0725
 8993SOL    HW227879   2.655   2.747   0.803 -0.3946  2.2845 -0.1865
 8994SOL     OW27880   5.440   3.037   2.047 -0.2484 -0.1400 -0.1252
 8994SOL    HW127881   5.450   3.137   2.041 -0.7643 -0.0544  0.3224
 8994SOL    HW227882   5.343   3.015   2.058 -0.1285 -0.6913 -0.1865
 8995SOL     OW27883   2.180   1.420   6.332  0.4184 -0.2936 -0.7408
 8995SOL    HW127884   2.183   1.411   6.431 -1.4916  1.4548 -0.4723
 8995SOL    HW227885   2.179   1.329   6.290  1.9945 -1.0647  0.7477
 8996SOL     OW27886   2.863   4.994   1.073  0.1191  0.0195 -0.2471
 8996SOL    HW127887   2.844   5.025   0.980  1.0553  0.6206 -0.2484
 8996SOL    HW227888   2.934   4.923   1.071  0.8147  0.6862  0.0644
 8997SOL     OW27889   3.569   1.926   1.951 -0.8831  0.1307 -0.4394
 8997SOL    HW127890   3.564   2.022   1.976  1.3673  0.1932 -0.0543
 8997SOL    HW227891   3.584   1.918   1.852  1.6706  0.3364 -0.1264
 8998SOL     OW27892   4.875   3.730   1.834  0.0604  0.3320 -0.1938
 8998SOL    HW127893   4.866   3.826   1.863 -0.4675  0.0452  0.6067
 8998SOL    HW227894   4.789   3.701   1.792  0.4184  0.3755 -0.9887
 8999SOL     OW27895   5.886   3.183   3.349 -0.2809  0.2670 -0.8857
 8999SOL    HW127896   5.849   3.271   3.380 -0.0351 -0.2589  1.0275
 8999SOL    HW227897   5.882   3.117   3.424  1.8882 -0.6302 -1.4864
 9000SOL     OW27898   0.176   6.064   3.726  0.7758  0.1608  0.2691
 9000SOL    HW127899   0.113   6.054   3.650  1.0727 -3.3289  0.3135
 9000SOL    HW227900   0.126   6.090   3.809 -0.0064  0.9432 -0.4348
 9001SOL     OW27901   2.924   5.443   6.269 -0.0377  0.0200 -0.3602
 9001SOL    HW127902   2.847   5.437   6.207 -0.8351  0.6932  0.5355
 9001SOL    HW227903   2.970   5.531   6.258 -0.9781  0.6938  0.8815
 9002SOL     OW27904   0.733   4.495   6.401  0.1637  0.1979 -0.8122
 9002SOL    HW127905   0.643   4.479   6.361 -0.5016 -0.7718  0.9521
 9002SOL    HW227906   0.743   4.441   6.484  3.2605 -1.5026 -2.1199
 9003SOL     OW27907   3.423   5.266   1.033  0.6695 -0.6822  0.4765
 9003SOL    HW127908   3.499   5.309   0.985  1.0238 -0.2037  1.4373
 9003SOL    HW227909   3.337   5.294   0.992  1.0202 -2.5260 -1.6899
 9004SOL     OW27910   6.511   6.808   2.869  0.4128  0.0124 -0.1254
 9004SOL    HW127911   6.453   6.763   2.801  1.5187  0.4895 -1.4507
 9004SOL    HW227912   6.462   6.886   2.908  0.4041  0.8938 -1.8106
 9005SOL     OW27913   3.405   5.917   3.292 -0.0896  0.7491  0.5256
 9005SOL    HW127914   3.440   5.836   3.339 -0.7118 -1.8302 -3.0493
 9005SOL    HW227915   3.482   5.970   3.254  0.2658 -0.6127 -0.7342
 9006SOL     OW27916   1.758   5.900   6.296 -0.6754  0.8470  0.0524
 9006SOL    HW127917   1.742   5.999   6.291  1.8465  1.3553  0.6976
 9006SOL    HW227918   1.842   5.877   6.246 -0.2914 -0.7077  1.3294
 9007SOL     OW27919   3.728   3.719   2.804 -0.4861 -0.4214  0.6370
 9007SOL    HW127920   3.630   3.703   2.791 -0.2134 -0.9159 -1.0127
 9007SOL    HW227921   3.770   3.742   2.716  0.5730  1.6398  1.6123
 9008SOL     OW27922   6.987   4.882   4.254 -0.8852  0.0556  0.8622
 9008SOL    HW127923   7.036   4.927   4.179  1.0308 -1.4447  1.1377
 9008SOL    HW227924   7.012   4.924   4.341 -0.0269 -0.7400  1.0081
 9009SOL     OW27925   1.706   1.057   5.815  0.0833 -0.2075  0.1633
 9009SOL    HW127926   1.613   1.025   5.796 -0.8591  1.4664  1.6750
 9009SOL    HW227927   1.724   1.142   5.766 -0.4965  1.3275  2.4463
 9010SOL     OW27928   2.556   1.088   2.704  0.6893 -1.0443  0.4205
 9010SOL    HW127929   2.606   1.174   2.695  0.5568 -1.0813 -1.0071
 9010SOL    HW227930   2.621   1.012   2.698  1.0045 -1.0743  3.1968
 9011SOL     OW27931   5.476   6.787   6.412 -0.3822  0.2952 -0.4916
 9011SOL    HW127932   5.502   6.697   6.450 -2.3977 -0.2017 -0.1907
 9011SOL    HW227933   5.559   6.838   6.389  0.8489 -2.1305 -1.8841
 9012SOL     OW27934   2.842   6.929   6.700  0.0012  0.0099 -0.2477
 9012SOL    HW127935   2.917   6.931   6.634  0.2778 -2.5937 -0.1106
 9012SOL    HW227936   2.793   6.842   6.692 -0.2244 -0.2272  2.6473
 9013SOL     OW27937   2.116   0.732   4.825 -0.0692  0.5162  0.0575
 9013SOL    HW127938   2.189   0.695   4.883  0.1530  0.0433 -0.5075
 9013SOL    HW227939   2.157   0.780   4.747 -0.3432  2.3732  1.0024
 9014SOL     OW27940   6.710   5.682   5.826  0.1890 -0.1986  0.6728
 9014SOL    HW127941   6.722   5.769   5.777 -0.3642 -1.2478 -1.4254
 9014SOL    HW227942   6.797   5.656   5.868  0.7006  0.7337  0.2284
 9015SOL     OW27943   0.003   5.092   1.406 -1.0634 -0.1803  0.5364
 9015SOL    HW127944  -0.080   5.038   1.394 -0.3727 -1.1948  0.0531
 9015SOL    HW227945  -0.004   5.149   1.487 -1.7837 -1.1191  1.1506
 9016SOL     OW27946   1.516   0.657   1.411 -0.2604 -0.8019  0.3196
 9016SOL    HW127947   1.592   0.676   1.473  0.2688 -1.0766 -0.2425
 9016SOL    HW227948   1.531   0.704   1.324 -1.3393  0.1564  0.6170
 9017SOL     OW27949   1.431   5.836   4.530 -0.5023 -0.2426 -0.2118
 9017SOL    HW127950   1.470   5.927   4.537 -1.9700  0.5828 -1.9677
 9017SOL    HW227951   1.497   5.769   4.565  0.6796  1.4303  0.9365
 9018SOL     OW27952   1.870   4.960   5.854  0.6112  0.0230 -0.2145
 9018SOL    HW127953   1.969   4.949   5.866  0.9261  2.0217 -0.5989
 9018SOL    HW227954   1.839   5.041   5.904 -1.0306 -1.0885  0.6518
 9019SOL     OW27955   6.762   4.097   1.081 -0.1630  0.4724  0.0520
 9019SOL    HW127956   6.791   4.100   1.176  1.1967  0.5419 -0.3511
 9019SOL    HW227957   6.842   4.100   1.021 -0.8530 -1.5327 -1.0680
 9020SOL     OW27958   1.067   6.298   6.128  0.0007  0.9933  0.5507
 9020SOL    HW127959   1.148   6.317   6.184 -0.2721  0.4938  1.1280
 9020SOL    HW227960   1.093   6.298   6.032  0.6946  0.8174  0.7294
 9021SOL     OW27961   0.774   4.575   3.149 -0.1765 -0.7599 -0.0277
 9021SOL    HW127962   0.799   4.506   3.216 -0.6629  0.0283  0.9963
 9021SOL    HW227963   0.743   4.658   3.196  0.8789  0.3533 -1.2042
 9022SOL     OW27964   5.723   4.948   6.010  0.0407  0.1180 -0.9487
 9022SOL    HW127965   5.793   5.018   6.026 -0.1524  0.2732 -0.7686
 9022SOL    HW227966   5.700   4.904   6.097 -0.4994  0.4674 -0.9108
 9023SOL     OW27967   1.339   6.980   6.842  0.1660 -0.0194  0.3156
 9023SOL    HW127968   1.391   7.001   6.759  1.2842  0.3982  1.1018
 9023SOL    HW227969   1.289   7.061   6.871  0.2116 -0.0036  0.3507
 9024SOL     OW27970   5.461   5.709   0.154  0.3634  0.4964 -0.5057
 9024SOL    HW127971   5.422   5.750   0.237 -1.3379  1.9420 -1.9372
 9024SOL    HW227972   5.387   5.688   0.089  1.7827  1.3721 -2.5013
 9025SOL     OW27973   6.408   3.749   4.429  0.0271  0.4668 -0.1181
 9025SOL    HW127974   6.356   3.678   4.382  0.0763 -0.2233  0.8612
 9025SOL    HW227975   6.483   3.780   4.370  0.8410 -1.2568 -0.0303
 9026SOL     OW27976   3.399   4.169   3.563 -0.3192  0.0197 -0.2599
 9026SOL    HW127977   3.448   4.175   3.650  0.7586  0.3429 -0.8763
 9026SOL    HW227978   3.464   4.166   3.488 -1.2294 -0.9848 -1.0317
 9027SOL     OW27979   5.396   1.472   2.862  0.3214  0.3776 -0.3349
 9027SOL    HW127980   5.365   1.405   2.794  0.7654 -0.5957  0.4059
 9027SOL    HW227981   5.396   1.431   2.953 -2.3206  2.2640  0.6754
 9028SOL     OW27982   5.065   6.242   3.139  0.0437  0.0772  0.6896
 9028SOL    HW127983   5.135   6.301   3.100  0.7883 -0.9447  0.4574
 9028SOL    HW227984   5.098   6.203   3.225 -0.8345  0.7777  1.3633
 9029SOL     OW27985   4.848   4.798   4.547  0.2899  0.5026  0.1187
 9029SOL    HW127986   4.815   4.743   4.624 -1.3915 -0.8015 -1.4538
 9029SOL    HW227987   4.925   4.752   4.504  0.3366  0.5428  0.1579
 9030SOL     OW27988   6.123   5.140   4.428 -0.2770  0.2037 -0.7354
 9030SOL    HW127989   6.096   5.195   4.508  0.6392  0.5891 -0.6764
 9030SOL    HW227990   6.174   5.060   4.459 -0.3329  0.1026 -0.9078
 9031SOL     OW27991   5.327   4.296   4.733 -0.6265  0.0844  0.3534
 9031SOL    HW127992   5.373   4.271   4.648 -1.9113  0.9159 -0.6183
 9031SOL    HW227993   5.276   4.381   4.720  0.8619  1.4291  2.5728
 9032SOL     OW27994   3.904   1.608   2.041 -0.0338 -0.3243  0.6598
 9032SOL    HW127995   3.971   1.664   1.992 -0.2718 -0.8494 -0.2898
 9032SOL    HW227996   3.908   1.514   2.007 -1.9204 -0.1694 -0.1478
 9033SOL     OW27997   3.129   4.241   6.639  0.2846 -0.0380  0.1917
 9033SOL    HW127998   3.137   4.249   6.738 -0.1464 -0.1164  0.2351
 9033SOL    HW227999   3.213   4.202   6.601  1.6291  2.6130  0.2106
 9034SOL     OW28000   2.821   3.999   1.195 -0.2189  0.3317  0.5329
 9034SOL    HW128001   2.870   3.928   1.246  0.7683  0.0298 -0.7887
 9034SOL    HW228002   2.725   3.973   1.186 -0.5292  0.5819  2.5346
 9035SOL     OW28003   0.503   3.086   3.655  0.2143  0.7186  0.2161
 9035SOL    HW128004   0.410   3.110   3.628  0.2982  1.0651  0.2341
 9035SOL    HW228005   0.508   2.988   3.673  0.3975  0.2393 -2.0976
 9036SOL     OW28006   5.033   0.158   1.974 -0.3125  0.0170 -0.5601
 9036SOL    HW128007   5.132   0.139   1.977 -0.3794 -0.6527 -1.8713
 9036SOL    HW228008   5.011   0.207   1.890 -1.0397  0.6408 -0.0204
 9037SOL     OW28009   5.882   0.716   6.802 -0.1608  1.0398  0.1211
 9037SOL    HW128010   5.889   0.679   6.709 -1.5646  0.8584  0.0691
 9037SOL    HW228011   5.974   0.724   6.841  0.4030  0.4698 -1.0217
 9038SOL     OW28012   1.740   6.078   4.863 -0.0622  0.4211  0.1065
 9038SOL    HW128013   1.646   6.104   4.888  0.8944  2.8229  1.5424
 9038SOL    HW228014   1.738   5.991   4.816 -2.8309 -0.6501  1.9096
 9039SOL     OW28015   1.290   5.300   1.706  0.0722 -0.2604  0.2241
 9039SOL    HW128016   1.323   5.216   1.663 -1.0515  0.1536 -1.5560
 9039SOL    HW228017   1.233   5.276   1.785 -0.2393 -1.1772 -0.2627
 9040SOL     OW28018   1.497   2.467   4.216  0.5024 -0.7099  0.1016
 9040SOL    HW128019   1.546   2.507   4.138 -1.4377 -0.5568 -1.1195
 9040SOL    HW228020   1.495   2.532   4.291  1.5118 -0.4369 -0.0969
 9041SOL     OW28021   4.535   0.182   3.468  0.0085  0.0513 -0.2547
 9041SOL    HW128022   4.491   0.092   3.464 -1.5134  0.7651 -0.2143
 9041SOL    HW228023   4.509   0.228   3.553 -1.5196  1.6239 -1.4860
 9042SOL     OW28024   5.252   5.331   1.451 -0.0519 -0.0745  0.1091
 9042SOL    HW128025   5.185   5.261   1.476  0.6368 -1.0393 -0.6728
 9042SOL    HW228026   5.318   5.343   1.525 -0.2136 -0.2152  0.2741
 9043SOL     OW28027   6.248   2.613   1.475  0.4171 -0.5402 -0.6407
 9043SOL    HW128028   6.296   2.645   1.394  0.5245 -0.6269 -0.6119
 9043SOL    HW228029   6.239   2.513   1.470  0.7649 -0.5831 -0.3575
 9044SOL     OW28030   0.032   1.419   3.085  0.0878 -0.1945  0.1343
 9044SOL    HW128031   0.089   1.496   3.055  1.0296 -0.4403  1.2202
 9044SOL    HW228032   0.064   1.335   3.041 -0.9605  0.0113 -1.0758
 9045SOL     OW28033   6.093   1.031   5.677 -0.2979  0.3756  0.0115
 9045SOL    HW128034   6.189   1.058   5.672 -0.0575 -0.4561 -0.0577
 9045SOL    HW228035   6.040   1.104   5.721  0.5452  0.3862  1.0528
 9046SOL     OW28036   3.763   5.350   4.398 -0.2784 -0.0512  0.0702
 9046SOL    HW128037   3.851   5.344   4.350 -0.8134  1.3792 -1.1729
 9046SOL    HW228038   3.756   5.438   4.444 -0.9873 -0.2255  0.3040
 9047SOL     OW28039   0.927   4.326   1.512  0.0822  0.0380 -0.6214
 9047SOL    HW128040   0.925   4.288   1.420  1.1941  1.1506 -1.1347
 9047SOL    HW228041   1.003   4.391   1.520 -0.2167  0.2451  0.9717
 9048SOL     OW28042   5.961   3.854   0.235 -0.4181 -0.2051  0.0252
 9048SOL    HW128043   6.061   3.850   0.225 -0.3379 -0.2774  0.8019
 9048SOL    HW228044   5.928   3.942   0.203 -0.1690 -0.3946 -0.7673
 9049SOL     OW28045   5.276   2.522   0.406 -0.1637  0.3199  0.8043
 9049SOL    HW128046   5.232   2.589   0.466  0.0240  0.9199  0.2888
 9049SOL    HW228047   5.217   2.504   0.327 -0.2264 -0.1521  0.9548
 9050SOL     OW28048   3.346   0.347   3.835  0.3596  0.6314 -0.2803
 9050SOL    HW128049   3.401   0.368   3.916  0.2409 -2.5108  0.7674
 9050SOL    HW228050   3.249   0.360   3.856  0.3737  0.5403 -0.1558
 9051SOL     OW28051   5.797   6.287   4.230 -0.2218  0.1221 -0.1646
 9051SOL    HW128052   5.831   6.220   4.164 -0.6925 -1.2652  0.9473
 9051SOL    HW228053   5.846   6.276   4.317 -1.6326 -0.1235  0.6326
 9052SOL     OW28054   4.062   0.390   1.565 -0.6882 -0.5247  0.0805
 9052SOL    HW128055   3.990   0.328   1.535 -0.4915 -0.1900 -1.1119
 9052SOL    HW228056   4.145   0.337   1.585 -0.5655 -0.6654 -0.7878
 9053SOL     OW28057   5.101   2.617   4.161 -0.0189 -0.6748 -0.5017
 9053SOL    HW128058   5.155   2.534   4.154 -0.4433 -0.9316 -0.8399
 9053SOL    HW228059   5.068   2.629   4.254  0.5712 -0.5442 -0.3080
 9054SOL     OW28060   1.124   1.281   5.031  0.0508 -0.4569  0.1561
 9054SOL    HW128061   1.050   1.254   4.969 -0.2097  1.2361 -0.3162
 9054SOL    HW228062   1.095   1.360   5.085  2.2486  1.7477 -1.6606
 9055SOL     OW28063   3.857   2.107   1.431 -0.6680  0.2101 -0.3633
 9055SOL    HW128064   3.890   2.162   1.508 -0.9807 -1.2152  0.8149
 9055SOL    HW228065   3.792   2.039   1.464 -0.9102 -0.3355 -1.9154
 9056SOL     OW28066   4.182   0.056   3.018 -0.4582 -0.4345  0.7427
 9056SOL    HW128067   4.268   0.105   3.005 -0.4176 -1.0530 -2.0803
 9056SOL    HW228068   4.201  -0.037   3.051 -0.2721  0.1874  2.4792
 9057SOL     OW28069   4.090   1.241   4.234 -0.0398 -0.5090 -0.0199
 9057SOL    HW128070   4.163   1.174   4.222  0.1640 -0.3091  0.0756
 9057SOL    HW228071   4.108   1.295   4.317  1.1566  1.3085 -1.3693
 9058SOL     OW28072   0.744   2.235   5.634 -0.2729  0.0310  0.5811
 9058SOL    HW128073   0.757   2.333   5.652  0.1601  0.2130 -0.6231
 9058SOL    HW228074   0.803   2.207   5.558 -2.6455 -0.4570 -1.1806
 9059SOL     OW28075   5.291   0.157   0.890  0.8009  0.1035 -0.4322
 9059SOL    HW128076   5.223   0.134   0.820  0.7014 -0.8159 -0.0402
 9059SOL    HW228077   5.336   0.074   0.922  1.3570  0.5956  0.0898
 9060SOL     OW28078   0.336   0.014   4.292  0.4988 -0.0582  0.4304
 9060SOL    HW128079   0.284  -0.023   4.369  0.5776  1.0310  1.0344
 9060SOL    HW228080   0.352  -0.058   4.225  0.8412 -1.1563  1.6416
 9061SOL     OW28081   2.598   3.804   5.613  0.0347 -0.5087 -0.0666
 9061SOL    HW128082   2.626   3.743   5.540 -0.4473  1.6356 -2.1727
 9061SOL    HW228083   2.678   3.851   5.651  0.0752  0.2789 -1.0735
 9062SOL     OW28084   1.664   4.988   4.836  0.1612 -0.0994 -0.3993
 9062SOL    HW128085   1.674   4.891   4.813 -3.5342 -0.6721 -0.1928
 9062SOL    HW228086   1.712   5.043   4.768  0.8643 -2.0407 -1.5553
 9063SOL     OW28087   2.987   1.040   3.464 -0.5532 -0.7168 -0.2748
 9063SOL    HW128088   3.076   1.059   3.423 -0.2663  1.4333  1.1467
 9063SOL    HW228089   2.920   1.106   3.429 -1.3298 -1.6010 -0.4925
 9064SOL     OW28090   6.385   1.626   5.343 -0.0693  0.6709 -0.0237
 9064SOL    HW128091   6.303   1.611   5.288 -0.4777  1.3150  0.3963
 9064SOL    HW228092   6.406   1.724   5.346 -0.0299  0.6495  0.9148
 9065SOL     OW28093   5.907   5.841   1.467 -0.4220  0.2757  0.2605
 9065SOL    HW128094   5.845   5.902   1.419  0.8666  2.1729  0.9216
 9065SOL    HW228095   5.937   5.883   1.552  0.2194 -1.4625  0.9542
 9066SOL     OW28096   4.234   1.425   0.960 -0.1190  0.0885  0.0759
 9066SOL    HW128097   4.254   1.361   1.035 -1.3307 -0.5999 -0.1590
 9066SOL    HW228098   4.295   1.407   0.883  0.3426  0.0198  0.4515
 9067SOL     OW28099   3.124   5.466   3.734  0.8586  0.2672  0.0343
 9067SOL    HW128100   3.119   5.489   3.832 -0.1856  0.0936  0.0402
 9067SOL    HW228101   3.125   5.549   3.680 -2.3604  0.4536  0.0752
 9068SOL     OW28102   0.028   6.095   1.882 -0.0117  0.1264 -0.2648
 9068SOL    HW128103  -0.040   6.159   1.847 -0.2714 -0.7054 -1.3319
 9068SOL    HW228104  -0.007   6.002   1.874  0.1021 -0.1404  1.8250
 9069SOL     OW28105   1.114   5.714   1.415 -0.3543 -0.3721 -0.3363
 9069SOL    HW128106   1.052   5.668   1.352  0.2056  2.1493 -2.9379
 9069SOL    HW228107   1.207   5.681   1.400 -0.2699 -0.0176 -0.6085
 9070SOL     OW28108   1.024   0.374   4.358  0.3522 -0.1893  0.0778
 9070SOL    HW128109   0.950   0.380   4.290 -0.3483  1.8019  0.9143
 9070SOL    HW228110   1.112   0.370   4.311  0.0841  3.7348 -1.1609
 9071SOL     OW28111   6.186   6.691   6.958  0.2323  0.2751  0.2338
 9071SOL    HW128112   6.087   6.701   6.957  0.2600  0.6378 -1.2627
 9071SOL    HW228113   6.211   6.600   6.928  0.3740  0.5412 -0.4708
 9072SOL     OW28114   5.450   4.538   5.720 -0.2666 -0.0452 -0.1991
 9072SOL    HW128115   5.358   4.536   5.759  0.0190  2.0864  0.7387
 9072SOL    HW228116   5.444   4.526   5.621 -1.5978  0.4066 -0.1985
 9073SOL     OW28117   2.322   6.090   0.917 -0.1516  0.1134 -0.2898
 9073SOL    HW128118   2.229   6.128   0.919  0.3335  1.3255 -0.3272
 9073SOL    HW228119   2.364   6.109   0.829 -0.3291 -1.6563 -0.8122
 9074SOL     OW28120   1.419   3.427   3.365  0.3037 -0.7009  0.1702
 9074SOL    HW128121   1.435   3.511   3.314 -1.4960  0.2971  1.1530
 9074SOL    HW228122   1.480   3.423   3.444 -0.1439  0.0931  0.5636
 9075SOL     OW28123   6.318   6.223   0.048 -0.0297 -0.1411  0.1771
 9075SOL    HW128124   6.355   6.192  -0.040 -0.9516  2.1595 -1.1251
 9075SOL    HW228125   6.340   6.320   0.060 -0.1242 -0.3595  2.4209
 9076SOL     OW28126   4.467   5.965   4.170  0.3314 -0.0955 -0.3083
 9076SOL    HW128127   4.534   5.894   4.188 -1.6873 -1.8604  0.6854
 9076SOL    HW228128   4.474   6.036   4.240  1.0589 -0.3387 -0.1288
 9077SOL     OW28129   5.683   3.596   5.391  0.2483  0.2020 -0.3290
 9077SOL    HW128130   5.672   3.694   5.374  1.2201  0.6241  1.3011
 9077SOL    HW228131   5.596   3.557   5.420  0.3563  1.0864  1.2711
 9078SOL     OW28132   6.550   6.579   4.649  0.0651  0.2578  0.4197
 9078SOL    HW128133   6.591   6.615   4.565  1.0408 -1.3254  0.1784
 9078SOL    HW228134   6.522   6.655   4.707  1.3726  1.4058 -0.3762
 9079SOL     OW28135   6.379   5.884   6.596  0.4021  0.1393  0.0010
 9079SOL    HW128136   6.310   5.884   6.523 -1.2627 -0.4375  1.5031
 9079SOL    HW228137   6.467   5.912   6.558 -0.5093  0.3575 -2.1130
 9080SOL     OW28138   3.891   5.660   4.127  0.0120  0.1299 -0.1153
 9080SOL    HW128139   3.901   5.577   4.072 -1.0106 -0.1764  0.1222
 9080SOL    HW228140   3.856   5.734   4.069 -0.0710  0.0974 -0.1075
 9081SOL     OW28141   0.617   3.494   0.788  0.1221  0.1872  0.1654
 9081SOL    HW128142   0.575   3.563   0.847  0.5520  1.2392 -0.7201
 9081SOL    HW228143   0.700   3.459   0.831  0.6803  1.2787 -0.0039
 9082SOL     OW28144   5.496   6.398   6.240 -0.1539 -0.9429 -0.3009
 9082SOL    HW128145   5.439   6.336   6.186 -0.6777  0.2198 -1.1150
 9082SOL    HW228146   5.538   6.466   6.181  1.9970 -1.6516  0.3059
 9083SOL     OW28147   6.032   0.165   2.577  0.4934  0.1626  0.0105
 9083SOL    HW128148   6.060   0.236   2.512 -0.6491 -0.4378 -1.1929
 9083SOL    HW228149   5.942   0.186   2.614  0.8888  0.2031  0.9841
 9084SOL     OW28150   4.858   5.885   4.657 -0.0091 -0.1812  0.2231
 9084SOL    HW128151   4.855   5.791   4.625 -0.2495  0.4355 -1.6816
 9084SOL    HW228152   4.928   5.935   4.606 -1.5933  1.2812 -0.6237
 9085SOL     OW28153   3.458   3.219   2.155 -0.2917  0.2587 -0.4224
 9085SOL    HW128154   3.378   3.160   2.161 -0.0921  0.0646  0.5069
 9085SOL    HW228155   3.450   3.278   2.075 -1.5731  0.5426 -0.1149
 9086SOL     OW28156   3.793   4.061   2.906  0.5204 -0.3168  0.1734
 9086SOL    HW128157   3.798   4.035   3.003  3.0750  1.8978  0.7429
 9086SOL    HW228158   3.859   4.008   2.853 -2.2890 -3.0616 -0.9231
 9087SOL     OW28159   5.404   6.988   3.412 -0.8858 -0.3571  0.1293
 9087SOL    HW128160   5.311   6.954   3.400 -0.6578 -0.8873 -0.1379
 9087SOL    HW228161   5.445   6.946   3.493 -0.2761 -1.4558 -0.7264
 9088SOL     OW28162   6.114   2.172   1.272 -0.2264  0.1359 -0.5027
 9088SOL    HW128163   6.164   2.115   1.207  1.3409  0.8131  0.0868
 9088SOL    HW228164   6.020   2.185   1.239  0.4249  0.1652 -2.4294
 9089SOL     OW28165   5.895   1.961   6.403 -0.9951  0.8041 -0.1570
 9089SOL    HW128166   5.995   1.958   6.416 -1.2514  1.3718  2.5906
 9089SOL    HW228167   5.861   1.868   6.388 -0.3277  0.0996  2.1935
 9090SOL     OW28168   6.809   6.683   0.732  0.6377  0.1465  0.1932
 9090SOL    HW128169   6.807   6.768   0.784 -0.8913 -0.0907  0.5983
 9090SOL    HW228170   6.717   6.662   0.699  1.3074 -0.4662 -1.3980
 9091SOL     OW28171   6.793   6.247   6.136 -0.1830 -0.0579  0.3200
 9091SOL    HW128172   6.776   6.320   6.069 -0.1777 -1.0104 -0.7571
 9091SOL    HW228173   6.872   6.271   6.192  1.2590 -0.2120 -1.5433
 9092SOL     OW28174   2.286   6.152   5.142  0.0080 -0.3151  0.4545
 9092SOL    HW128175   2.326   6.065   5.171  0.3631  0.2152  1.6164
 9092SOL    HW228176   2.207   6.173   5.200  1.2135  1.1576  1.6409
 9093SOL     OW28177   0.292   2.477   0.516  0.4956  0.1634 -0.2119
 9093SOL    HW128178   0.343   2.551   0.472  0.9816  0.1566  0.3194
 9093SOL    HW228179   0.225   2.517   0.579  1.2488  0.1631  0.6173
 9094SOL     OW28180   5.103   0.932   1.896  0.3743 -0.2659  0.8808
 9094SOL    HW128181   5.167   0.882   1.955 -0.2770 -2.5195 -0.2288
 9094SOL    HW228182   5.154   1.001   1.845  1.7071 -1.0849  1.0301
 9095SOL     OW28183   2.913   6.197   0.739 -0.6938  0.0154  0.6083
 9095SOL    HW128184   2.964   6.130   0.793 -1.9846 -1.0396  0.5717
 9095SOL    HW228185   2.932   6.182   0.642 -0.1244  0.4311  0.6538
 9096SOL     OW28186   0.435   5.453   4.466  0.1718 -0.1602 -0.0185
 9096SOL    HW128187   0.367   5.500   4.409  0.5857  1.9720  1.1405
 9096SOL    HW228188   0.416   5.472   4.563  2.7314  1.0009  0.3258
 9097SOL     OW28189   5.955   5.821   5.494  0.2210 -0.8157  0.1554
 9097SOL    HW128190   5.916   5.740   5.449 -2.5918  1.2417 -1.3869
 9097SOL    HW228191   5.884   5.867   5.546  1.5824  1.0472  0.4373
 9098SOL     OW28192   3.864   3.981   1.955 -0.1525  0.1913  0.3722
 9098SOL    HW128193   3.929   4.001   2.027  0.2494  0.4067 -0.0438
 9098SOL    HW228194   3.836   3.885   1.961  1.9959 -0.5798 -0.8290
 9099SOL     OW28195   2.635   0.781   1.456 -0.6950  0.1672 -0.2372
 9099SOL    HW128196   2.684   0.856   1.412 -2.2025  0.8234 -0.8803
 9099SOL    HW228197   2.546   0.814   1.489 -0.1364 -0.6154  2.2459
 9100SOL     OW28198   4.876   2.170   0.693  0.0043 -0.4126  0.0280
 9100SOL    HW128199   4.968   2.209   0.689 -0.3954  0.4395 -1.5693
 9100SOL    HW228200   4.865   2.100   0.622 -1.0533  0.6288 -0.8746
 9101SOL     OW28201   5.461   6.307   2.856 -0.6787 -0.0931  0.1467
 9101SOL    HW128202   5.532   6.331   2.789 -0.7834 -2.3798 -0.8779
 9101SOL    HW228203   5.429   6.390   2.902  2.6204  1.0487  0.6624
 9102SOL     OW28204   1.205   6.885   5.119  0.4699 -0.4003 -0.2752
 9102SOL    HW128205   1.236   6.916   5.029 -2.6212 -0.0363 -1.3238
 9102SOL    HW228206   1.225   6.788   5.129  0.6186 -0.5159 -1.4841
 9103SOL     OW28207   2.616   2.589   1.548  0.7111  0.1516  0.5579
 9103SOL    HW128208   2.612   2.525   1.624  0.0312  0.8935  1.1794
 9103SOL    HW228209   2.705   2.584   1.503  0.5636 -1.4113  0.4023
 9104SOL     OW28210   1.548   2.315   4.773  0.2203  0.3835  0.1214
 9104SOL    HW128211   1.636   2.275   4.748 -0.4088 -0.4761 -0.7768
 9104SOL    HW228212   1.501   2.255   4.837 -0.6943 -0.3386 -1.1724
 9105SOL     OW28213   6.376   6.480   0.158 -0.4488  0.8181  0.0182
 9105SOL    HW128214   6.439   6.549   0.122  0.9081  1.1374  2.7022
 9105SOL    HW228215   6.286   6.521   0.174 -0.4016  1.2516 -0.7850
 9106SOL     OW28216   2.874   4.987   2.739  0.1096  0.3580  0.3261
 9106SOL    HW128217   2.946   4.978   2.808 -0.7091  1.0356  1.3027
 9106SOL    HW228218   2.915   5.009   2.651  1.2394 -1.2871  0.4050
 9107SOL     OW28219   3.626   3.425   4.576 -0.3379 -0.1987 -0.2909
 9107SOL    HW128220   3.620   3.490   4.501  1.4618 -0.5081 -0.7592
 9107SOL    HW228221   3.571   3.456   4.653  0.3219  1.7723 -0.5756
 9108SOL     OW28222   4.971   6.430   0.740 -0.1829  0.6721 -0.3581
 9108SOL    HW128223   4.998   6.346   0.786  0.6096  1.2330  0.2149
 9108SOL    HW228224   5.047   6.495   0.740 -0.5529  1.1329 -1.4077
 9109SOL     OW28225   0.919   6.792   2.086 -0.2806  0.1335  0.0004
 9109SOL    HW128226   0.955   6.760   1.999  0.6037  1.3894 -0.1250
 9109SOL    HW228227   0.882   6.715   2.138  0.9570 -0.9173 -0.6375
 9110SOL     OW28228   5.318   0.312   1.762 -1.1172 -0.0393  0.4309
 9110SOL    HW128229   5.413   0.343   1.774 -1.1727 -0.2990  1.7101
 9110SOL    HW228230   5.318   0.219   1.726 -0.8043 -0.8590  2.4073
 9111SOL     OW28231   2.332   1.597   3.194 -0.7133 -0.6162  0.0380
 9111SOL    HW128232   2.377   1.648   3.267  1.2677 -0.6558 -1.0902
 9111SOL    HW228233   2.294   1.512   3.230  1.2746 -1.2079  0.8207
 9112SOL     OW28234   2.614   2.487   4.729  0.4944 -0.0606 -0.4637
 9112SOL    HW128235   2.684   2.548   4.691  0.5268  0.1743 -0.0314
 9112SOL    HW228236   2.646   2.393   4.726 -0.0820 -0.2436 -2.3871
 9113SOL     OW28237   5.669   0.717   5.632  0.2250  0.3632 -0.2332
 9113SOL    HW128238   5.656   0.786   5.560  0.7914 -0.3968 -1.0885
 9113SOL    HW228239   5.677   0.627   5.590 -2.3609 -0.5262  0.9778
 9114SOL     OW28240   6.653   3.446   5.722  0.6854 -0.2958  0.6059
 9114SOL    HW128241   6.745   3.482   5.733  0.6131  0.0087  0.2145
 9114SOL    HW228242   6.588   3.506   5.768  1.0880 -3.1342  5.7591
 9115SOL     OW28243   4.113   6.654   4.630 -0.0653 -0.0593  0.7424
 9115SOL    HW128244   4.210   6.680   4.632  0.8456 -2.8542 -1.5063
 9115SOL    HW228245   4.095   6.589   4.704 -0.1252  0.0890  0.8593
 9116SOL     OW28246   5.704   6.501   1.645 -0.1961 -0.0681  0.1900
 9116SOL    HW128247   5.669   6.504   1.551 -1.8065 -0.4207  0.7473
 9116SOL    HW228248   5.713   6.406   1.673 -1.3499  0.0295  0.9477
 9117SOL     OW28249   0.333   2.692   1.452  0.5067  0.2553  0.5684
 9117SOL    HW128250   0.335   2.784   1.413  0.8726 -0.0357 -0.1296
 9117SOL    HW228251   0.375   2.692   1.542  0.3324  0.8058  0.6518
 9118SOL     OW28252   0.643   5.405   3.250 -0.2459  0.2316  0.0741
 9118SOL    HW128253   0.672   5.464   3.326  0.3487  0.2746 -0.1819
 9118SOL    HW228254   0.543   5.404   3.245 -0.2858  0.3590  0.7557
 9119SOL     OW28255   2.228   4.350   5.287  0.0767  0.0250  0.4490
 9119SOL    HW128256   2.230   4.357   5.188  0.7296 -3.2057  0.1387
 9119SOL    HW228257   2.154   4.407   5.323 -2.7507 -1.6674 -2.2214
 9120SOL     OW28258   2.481   0.985   0.345  0.3232  0.9574 -0.4958
 9120SOL    HW128259   2.494   1.074   0.389  2.6376  0.9011 -0.9574
 9120SOL    HW228260   2.474   0.914   0.415 -0.2578  1.3518 -0.1504
 9121SOL     OW28261   2.652   2.205   0.732 -0.3396  0.2497 -0.2049
 9121SOL    HW128262   2.735   2.252   0.759  0.5798 -2.0223  1.2091
 9121SOL    HW228263   2.602   2.176   0.813 -1.2224 -0.5832 -1.0094
 9122SOL     OW28264   6.138   6.313   4.305  0.5970  0.9103 -0.1013
 9122SOL    HW128265   6.059   6.253   4.320  1.7801 -0.3272  1.5333
 9122SOL    HW228266   6.189   6.282   4.225  0.3784  0.6260 -0.1295
 9123SOL     OW28267   5.622   1.540   3.256 -0.6734  0.2961  0.2648
 9123SOL    HW128268   5.685   1.545   3.179 -1.3112 -1.7148 -0.4443
 9123SOL    HW228269   5.570   1.625   3.262 -0.2485  0.6857 -1.2128
 9124SOL     OW28270   4.998   6.939   1.406  0.0878  0.0881 -0.1433
 9124SOL    HW128271   4.912   6.988   1.406 -1.4746 -2.4570  0.2263
 9124SOL    HW228272   5.041   6.947   1.496  0.9440  2.4002 -0.7014
 9125SOL     OW28273   0.623   6.927   5.358 -0.9093  0.2699 -0.1143
 9125SOL    HW128274   0.560   6.903   5.432 -1.6653  1.6753 -0.2691
 9125SOL    HW228275   0.592   7.012   5.314 -1.0404 -1.0100 -2.6781
 9126SOL     OW28276   1.740   2.284   1.819 -0.2568 -0.4889 -0.1694
 9126SOL    HW128277   1.668   2.225   1.782 -1.1031  0.1897  0.3603
 9126SOL    HW228278   1.825   2.270   1.767 -1.1265 -0.3253 -1.7022
 9127SOL     OW28279   0.634   3.049   2.380  0.2135  0.8671 -0.0331
 9127SOL    HW128280   0.714   3.049   2.440  0.7465 -0.8331 -0.6885
 9127SOL    HW228281   0.552   3.067   2.434  0.6828 -0.5669  1.2402
 9128SOL     OW28282   0.681   2.895   4.098 -0.3444 -0.2601  0.0680
 9128SOL    HW128283   0.681   2.959   4.176  1.7574 -0.3725  0.2133
 9128SOL    HW228284   0.655   2.945   4.015 -0.8823  0.2680  0.5390
 9129SOL     OW28285   0.287   5.861   3.386 -0.2487 -0.1434 -0.3346
 9129SOL    HW128286   0.374   5.823   3.355 -0.4271 -1.5171  0.6995
 9129SOL    HW228287   0.291   5.961   3.383  1.2313 -0.1821 -0.6494
 9130SOL     OW28288   1.536   1.586   4.019 -0.8323  0.3434  0.3289
 9130SOL    HW128289   1.528   1.504   4.075 -0.4031  0.2970  0.3284
 9130SOL    HW228290   1.589   1.656   4.069  0.1488  0.0562 -0.2680
 9131SOL     OW28291   3.242   1.219   4.959 -1.1028  0.5070 -0.0510
 9131SOL    HW128292   3.149   1.248   4.938 -0.6081  2.9080  0.6455
 9131SOL    HW228293   3.286   1.289   5.016  0.0742 -2.0755  2.4344
 9132SOL     OW28294   5.227   5.218   2.804 -0.1605 -0.7225  0.2223
 9132SOL    HW128295   5.199   5.185   2.894  0.4597 -2.1416 -0.0709
 9132SOL    HW228296   5.154   5.200   2.738 -0.1637 -0.7395  0.2306
 9133SOL     OW28297   2.287   3.123   0.808  0.7909  0.2269  0.4713
 9133SOL    HW128298   2.268   3.052   0.740 -0.1585  1.5303 -0.6645
 9133SOL    HW228299   2.202   3.148   0.855  1.0250  0.9459  0.5212
 9134SOL     OW28300   0.751   2.149   6.636 -0.2291 -0.2370 -0.4525
 9134SOL    HW128301   0.718   2.157   6.542 -0.9715 -1.9408 -0.3812
 9134SOL    HW228302   0.674   2.151   6.699 -0.2859 -3.4621 -0.2304
 9135SOL     OW28303   0.972   4.900   5.332 -0.5285  0.4743 -0.1416
 9135SOL    HW128304   0.932   4.969   5.271  2.5792  0.9095 -1.9121
 9135SOL    HW228305   0.935   4.810   5.309 -0.3449  0.8063 -1.9062
 9136SOL     OW28306   3.581   5.306   2.866 -0.3373  0.1232  0.5533
 9136SOL    HW128307   3.667   5.266   2.835  0.7800  2.7290  0.0812
 9136SOL    HW228308   3.587   5.328   2.963 -0.4556  0.3876  0.5010
 9137SOL     OW28309   4.749   6.910   0.108  0.0116  0.2288  0.2440
 9137SOL    HW128310   4.670   6.855   0.081 -0.6119  1.4348 -0.4122
 9137SOL    HW228311   4.768   6.979   0.039  0.8701  0.7762  1.0026
 9138SOL     OW28312   3.192   0.671   5.515 -0.1367 -0.3350 -0.4869
 9138SOL    HW128313   3.262   0.683   5.445  0.4893 -1.8600 -0.1749
 9138SOL    HW228314   3.217   0.594   5.574 -2.6746 -1.7439 -1.1063
 9139SOL     OW28315   0.886   1.889   0.542  0.3611  0.4116 -0.1765
 9139SOL    HW128316   0.807   1.889   0.604  0.3443  2.3251 -0.1453
 9139SOL    HW228317   0.959   1.945   0.582  0.9136  0.4320 -1.2027
 9140SOL     OW28318   4.341   6.452   2.110  0.2054 -0.9644 -0.2277
 9140SOL    HW128319   4.273   6.499   2.166  1.5028 -0.0079  0.5965
 9140SOL    HW228320   4.356   6.360   2.145 -0.4552 -1.0873 -0.2579
 9141SOL     OW28321   5.393   5.951   6.579 -0.4349  0.4961  0.5980
 9141SOL    HW128322   5.366   6.027   6.520  0.6627 -0.5328 -1.3417
 9141SOL    HW228323   5.489   5.929   6.562 -0.4471 -0.6551  1.8780
 9142SOL     OW28324   2.914   1.429   3.642 -0.1031  0.2287 -0.2527
 9142SOL    HW128325   2.879   1.375   3.718 -1.0681 -0.7288 -1.3359
 9142SOL    HW228326   2.990   1.380   3.599  0.4932  0.8046  0.1248
 9143SOL     OW28327   4.491   4.825   0.507 -0.3330  0.3713  0.1142
 9143SOL    HW128328   4.576   4.875   0.527  0.0743  0.3242 -1.3368
 9143SOL    HW228329   4.500   4.731   0.538 -0.2997  0.6501  0.9813
 9144SOL     OW28330   0.293   6.725   3.489  0.3701  0.5682 -0.2635
 9144SOL    HW128331   0.359   6.714   3.415 -0.6739  0.5725 -1.2258
 9144SOL    HW228332   0.200   6.712   3.453 -0.1904  1.0801  0.9446
 9145SOL     OW28333   5.413   2.221   2.445 -0.7645 -0.0580 -0.2898
 9145SOL    HW128334   5.474   2.296   2.419 -0.9978 -0.4052 -1.8865
 9145SOL    HW228335   5.319   2.242   2.417 -0.9095 -0.7595 -0.3469
 9146SOL     OW28336   5.219   0.853   3.466  0.2003  0.0515 -0.0015
 9146SOL    HW128337   5.180   0.762   3.482  0.4630 -0.3594 -1.4746
 9146SOL    HW228338   5.199   0.913   3.543 -0.7267 -1.0121  0.6086
 9147SOL     OW28339   4.217   5.874   6.586  0.0721 -0.3506 -0.1770
 9147SOL    HW128340   4.296   5.818   6.611 -0.1095 -0.3132  0.5047
 9147SOL    HW228341   4.154   5.879   6.663  0.2027  1.0232 -0.1396
 9148SOL     OW28342   4.516   5.830   1.952 -0.5463 -0.3957 -0.3218
 9148SOL    HW128343   4.474   5.800   2.038  0.4353  0.2106  0.3864
 9148SOL    HW228344   4.459   5.800   1.876 -2.7729  1.1030  0.6161
 9149SOL     OW28345   1.342   4.699   6.760 -0.1616 -0.4581  0.2993
 9149SOL    HW128346   1.391   4.615   6.741  1.6939  1.0559 -2.1385
 9149SOL    HW228347   1.386   4.748   6.835  1.8474  0.5882 -1.4636
 9150SOL     OW28348   4.830   1.962   4.744  0.1410 -0.3517 -0.4894
 9150SOL    HW128349   4.927   1.972   4.723 -0.4062  0.1238 -3.1754
 9150SOL    HW228350   4.789   2.053   4.754  0.1145 -0.5415  1.8573
 9151SOL     OW28351   1.589   4.295   1.480 -0.5039 -0.8313  0.3059
 9151SOL    HW128352   1.651   4.356   1.529  0.2164 -1.2620 -0.0549
 9151SOL    HW228353   1.515   4.348   1.438  1.8288  0.2653 -2.7114
 9152SOL     OW28354   5.008   3.743   2.355  0.6941 -0.0036  0.0006
 9152SOL    HW128355   4.983   3.692   2.437  1.7880 -0.6137 -0.0224
 9152SOL    HW228356   4.949   3.715   2.279  1.2859 -1.2742 -0.0169
 9153SOL     OW28357   0.131   3.490   6.305  0.2557  0.0336  0.3665
 9153SOL    HW128358   0.203   3.442   6.354 -0.0288  0.0476  0.8059
 9153SOL    HW228359   0.043   3.472   6.349 -0.1693 -0.8639 -0.7935
 9154SOL     OW28360   1.402   6.997   3.442 -0.3021  0.3357 -0.2655
 9154SOL    HW128361   1.394   7.070   3.374  1.2740  0.2272 -0.5863
 9154SOL    HW228362   1.489   7.005   3.490 -0.6883 -0.5644  0.6252
 9155SOL     OW28363   5.709   6.960   6.374 -0.3213  0.5309  0.0858
 9155SOL    HW128364   5.679   6.965   6.469 -1.4313  2.2344 -0.3050
 9155SOL    HW228365   5.762   7.041   6.351  0.4817 -0.1623 -0.5975
 9156SOL     OW28366   4.953   0.877   2.172 -0.4054 -0.1288 -0.0415
 9156SOL    HW128367   5.022   0.868   2.099 -0.1870  2.8021 -0.2833
 9156SOL    HW228368   4.862   0.876   2.132 -0.3058  0.9086 -0.3069
 9157SOL     OW28369   6.755   4.306   0.122  0.2330  0.3883  0.2544
 9157SOL    HW128370   6.715   4.258   0.200  1.0971  1.1319  1.1903
 9157SOL    HW228371   6.682   4.346   0.067 -0.3809  0.2476  0.9471
 9158SOL     OW28372   6.940   0.714   2.856 -0.0098  0.0364 -0.4746
 9158SOL    HW128373   7.039   0.731   2.852  0.3759 -2.1696 -1.6806
 9158SOL    HW228374   6.893   0.780   2.797  0.6364  1.5192  0.5993
 9159SOL     OW28375   5.524   2.306   0.781 -0.0310 -0.3466 -0.3128
 9159SOL    HW128376   5.504   2.361   0.700 -0.6968 -2.5746 -1.7445
 9159SOL    HW228377   5.535   2.210   0.755  0.7686 -0.9994  2.1215
 9160SOL     OW28378   0.934   6.814   1.361 -0.1734 -0.4264 -0.1248
 9160SOL    HW128379   1.014   6.761   1.389 -1.3211 -0.8163  2.8069
 9160SOL    HW228380   0.868   6.754   1.317  1.2663  0.0069 -3.1278
 9161SOL     OW28381   1.435   4.932   6.273 -0.5472 -0.1895  0.1675
 9161SOL    HW128382   1.385   4.904   6.355 -1.4415  0.2968 -0.1964
 9161SOL    HW228383   1.418   5.029   6.256 -0.9326 -0.4495 -0.9890
 9162SOL     OW28384   0.167   3.125   6.014 -1.1446 -0.7286 -0.0354
 9162SOL    HW128385   0.114   3.201   6.052  1.7287  1.2414  0.3759
 9162SOL    HW228386   0.260   3.128   6.051  0.7260 -1.0495 -4.2028
 9163SOL     OW28387   6.928   6.083   0.555  0.4242 -0.5609 -0.7918
 9163SOL    HW128388   6.956   6.110   0.647 -1.0104 -0.2524 -0.4089
 9163SOL    HW228389   6.921   5.983   0.551 -1.8174 -0.5091  0.2159
 9164SOL     OW28390   1.632   6.370   0.412  0.4179  0.3574  0.0798
 9164SOL    HW128391   1.664   6.407   0.499  0.5478 -0.4054  0.3662
 9164SOL    HW228392   1.679   6.283   0.394 -1.7221 -0.9884  0.6892
 9165SOL     OW28393   1.377   5.297   2.008 -0.4481  0.4146  0.5604
 9165SOL    HW128394   1.437   5.229   2.050  1.3396  2.1834  1.0127
 9165SOL    HW228395   1.410   5.319   1.916 -1.7917 -0.2633 -0.1049
 9166SOL     OW28396   0.538   4.801   2.639 -0.3813  0.0521 -0.0108
 9166SOL    HW128397   0.618   4.780   2.583 -0.6986 -0.2974 -0.3440
 9166SOL    HW228398   0.516   4.722   2.697  0.3331  0.6412  1.0990
 9167SOL     OW28399   0.368   5.561   6.663  0.5461  0.5446  0.3407
 9167SOL    HW128400   0.366   5.491   6.591 -1.2973  1.3059 -0.4228
 9167SOL    HW228401   0.411   5.644   6.627  0.9472  0.4483  0.5993
 9168SOL     OW28402   4.297   4.802   5.691 -0.3098 -0.3720 -0.0969
 9168SOL    HW128403   4.317   4.738   5.617 -0.0568 -1.7296  1.1142
 9168SOL    HW228404   4.237   4.875   5.657 -0.2755 -1.0204 -1.6023
 9169SOL     OW28405   0.052   5.654   2.178  0.0873  1.0022  0.8313
 9169SOL    HW128406   0.148   5.683   2.177  0.4690 -0.1896 -1.5758
 9169SOL    HW228407   0.032   5.599   2.097 -2.5554  0.8867  1.4741
 9170SOL     OW28408   3.301   1.260   3.550  0.2701 -0.0602 -0.6028
 9170SOL    HW128409   3.357   1.204   3.490  1.5207  0.9500 -0.4291
 9170SOL    HW228410   3.268   1.340   3.500 -0.9962 -0.6174 -0.6879
 9171SOL     OW28411   6.260   6.820   5.770 -0.6482 -0.6409  0.3185
 9171SOL    HW128412   6.293   6.728   5.747 -2.9039 -1.3688 -0.2638
 9171SOL    HW228413   6.209   6.857   5.693 -0.7962  0.6183  0.9932
 9172SOL     OW28414   6.704   3.808   1.014 -0.2739 -0.5383  0.4322
 9172SOL    HW128415   6.691   3.765   1.103 -0.5542  1.1728  1.2669
 9172SOL    HW228416   6.752   3.895   1.026  3.7623 -2.2099 -1.5438
 9173SOL     OW28417   2.603   1.816   0.390 -0.1047 -0.1751 -0.4233
 9173SOL    HW128418   2.558   1.885   0.447  0.2623  0.5051 -0.9485
 9173SOL    HW228419   2.651   1.751   0.449  0.0159  0.3444  0.0588
 9174SOL     OW28420   3.150   5.985   2.065 -0.7858 -0.3383  0.2246
 9174SOL    HW128421   3.174   5.889   2.082 -0.6018 -0.2983  0.1897
 9174SOL    HW228422   3.158   6.037   2.150  1.3038  0.1140 -0.1804
 9175SOL     OW28423   1.083   0.508   2.188  0.4461  0.6705  0.3472
 9175SOL    HW128424   1.162   0.449   2.172 -0.3528  0.0025 -1.4031
 9175SOL    HW228425   1.034   0.477   2.270  0.2558 -0.9227 -0.3217
 9176SOL     OW28426   5.425   1.893   2.381 -0.0097  0.4717 -0.0263
 9176SOL    HW128427   5.423   1.991   2.361  0.1364  0.3238 -0.8305
 9176SOL    HW228428   5.341   1.866   2.427  0.4051  1.1621  1.1682
 9177SOL     OW28429   0.216   6.548   3.908  0.3464  0.3163 -0.5632
 9177SOL    HW128430   0.167   6.487   3.845  0.1728 -0.6685  0.4855
 9177SOL    HW228431   0.300   6.581   3.864  1.2188 -1.8705 -0.6796
 9178SOL     OW28432   1.503   1.532   0.673  0.8131  0.2853  0.1128
 9178SOL    HW128433   1.573   1.481   0.723  0.4654 -0.0934  0.2200
 9178SOL    HW228434   1.525   1.629   0.674  2.2411  0.0136 -1.2715
 9179SOL     OW28435   5.147   5.002   3.877 -0.3115  0.1483  0.6037
 9179SOL    HW128436   5.085   4.926   3.897  0.0256  0.1966  1.9407
 9179SOL    HW228437   5.133   5.033   3.783  0.3763 -2.3236 -0.3694
 9180SOL     OW28438   4.165   5.811   5.214  0.9843 -0.2659  0.4385
 9180SOL    HW128439   4.072   5.782   5.191  0.8690 -0.3240  0.9810
 9180SOL    HW228440   4.229   5.740   5.185  0.8823 -0.1152 -0.1645
 9181SOL     OW28441   1.514   1.541   6.895 -0.0029 -0.0635 -0.5320
 9181SOL    HW128442   1.425   1.576   6.923 -0.8883  0.2830 -3.4944
 9181SOL    HW228443   1.537   1.577   6.805  2.5046 -1.3013 -0.4645
 9182SOL     OW28444   4.177   7.006   0.824 -0.2769 -0.1809 -0.3758
 9182SOL    HW128445   4.273   7.036   0.829 -0.5492  0.6256  0.0346
 9182SOL    HW228446   4.154   6.954   0.906 -0.4215  0.3124 -0.1023
 9183SOL     OW28447   0.212   2.037   1.812  0.2754 -0.3622  0.0367
 9183SOL    HW128448   0.215   2.082   1.901  0.6219  0.2185 -0.2613
 9183SOL    HW228449   0.130   2.065   1.762  1.0777  0.8732 -0.6209
 9184SOL     OW28450   3.479   5.786   0.961 -0.7301 -0.1221  0.1731
 9184SOL    HW128451   3.566   5.792   0.912 -0.5745 -3.7243 -0.2127
 9184SOL    HW228452   3.467   5.869   1.016  2.0978  1.2441 -1.0482
 9185SOL     OW28453   6.605   3.105   2.421  0.2758  0.0753  0.1915
 9185SOL    HW128454   6.516   3.145   2.396 -0.0508 -0.1652  0.9276
 9185SOL    HW228455   6.620   3.022   2.368 -0.9473 -1.0812  1.5554
 9186SOL     OW28456   2.891   2.766   1.001  0.4712 -0.4250 -0.2278
 9186SOL    HW128457   2.894   2.666   1.011  1.2692 -0.2414  1.9120
 9186SOL    HW228458   2.936   2.809   1.079 -2.4492  1.6829  0.4674
 9187SOL     OW28459   0.058   1.722   5.592  0.1921 -0.1906 -0.2067
 9187SOL    HW128460   0.090   1.668   5.670  1.3248  0.7292 -0.0111
 9187SOL    HW228461   0.047   1.817   5.620 -0.6761 -0.0934 -0.8399
 9188SOL     OW28462   1.833   2.555   4.203  0.2563 -0.7047 -0.1118
 9188SOL    HW128463   1.927   2.533   4.175  0.5741 -0.0528  0.4041
 9188SOL    HW228464   1.836   2.611   4.286 -0.5794 -0.3616 -0.3068
 9189SOL     OW28465   1.137   2.749   6.816 -0.5111 -0.1479 -0.0197
 9189SOL    HW128466   1.072   2.818   6.784  0.1140  0.0721 -0.8590
 9189SOL    HW228467   1.207   2.734   6.746 -0.0754 -0.9212  0.5588
 9190SOL     OW28468   4.233   3.915   1.457 -0.0114  0.1003  0.1884
 9190SOL    HW128469   4.209   3.826   1.419 -0.8251  0.6730 -0.7180
 9190SOL    HW228470   4.291   3.964   1.392 -1.3540  1.0655 -0.3216
 9191SOL     OW28471   1.888   2.277   6.135 -0.1316 -0.0295  0.0435
 9191SOL    HW128472   1.853   2.254   6.226 -0.1773 -1.8612 -0.3975
 9191SOL    HW228473   1.850   2.365   6.107  0.1835  0.7711  1.9301
 9192SOL     OW28474   2.064   2.177   6.684 -0.2384 -0.1055 -0.2761
 9192SOL    HW128475   2.151   2.160   6.729  0.3180 -0.1122 -1.3331
 9192SOL    HW228476   2.080   2.204   6.589 -1.3879 -0.1078 -0.4846
 9193SOL     OW28477   4.496   6.166   3.946 -0.6112 -0.2757 -0.3482
 9193SOL    HW128478   4.523   6.096   4.011  0.4543  0.7947  0.4060
 9193SOL    HW228479   4.396   6.171   3.942 -0.7221 -2.3193 -0.9943
 9194SOL     OW28480   3.572   3.228   4.923  0.5995  0.3144  0.3738
 9194SOL    HW128481   3.549   3.132   4.906 -0.3094  0.8473 -1.8186
 9194SOL    HW228482   3.644   3.257   4.860 -0.4372  1.5271 -0.3084
 9195SOL     OW28483   2.298   4.130   0.260 -0.1208 -0.5274 -0.4371
 9195SOL    HW128484   2.303   4.107   0.163 -1.0305  0.6012 -0.7882
 9195SOL    HW228485   2.370   4.196   0.283 -1.3845  1.1345 -0.9839
 9196SOL     OW28486   1.351   1.713   2.483 -0.5221  0.1235  0.2030
 9196SOL    HW128487   1.432   1.674   2.525 -0.9498 -0.4038  0.5453
 9196SOL    HW228488   1.285   1.640   2.463  0.0323  0.2043 -2.2296
 9197SOL     OW28489   1.839   4.902   0.828 -0.5877  0.3396 -0.2990
 9197SOL    HW128490   1.771   4.853   0.883 -0.0339 -1.8005 -1.4296
 9197SOL    HW228491   1.920   4.845   0.816  0.2678  1.7095 -1.3610
 9198SOL     OW28492   1.984   1.071   1.816  0.2016 -0.3997 -0.6834
 9198SOL    HW128493   2.020   1.156   1.854  1.2332 -0.8607 -0.5922
 9198SOL    HW228494   1.948   1.088   1.724  0.7716  0.0575 -0.8293
 9199SOL     OW28495   5.375   0.940   0.911  0.3646 -0.6247  0.0809
 9199SOL    HW128496   5.406   0.996   0.834  0.1850 -0.1872  0.3200
 9199SOL    HW228497   5.352   0.999   0.988  1.4108 -1.1184  0.7966
 9200SOL     OW28498   5.075   0.600   4.397 -0.0795 -0.0661  0.1354
 9200SOL    HW128499   5.130   0.523   4.366  1.5167  1.0170  0.1806
 9200SOL    HW228500   5.134   0.677   4.418 -1.7014  1.5896 -1.0295
 9201SOL     OW28501   5.575   6.689   2.396  0.0920  0.2812  0.5441
 9201SOL    HW128502   5.667   6.657   2.416 -0.4084 -1.4476  0.2027
 9201SOL    HW228503   5.544   6.751   2.468  0.7264 -0.7675  1.7356
 9202SOL     OW28504   1.115   5.946   0.526  0.4237  0.5213 -0.4944
 9202SOL    HW128505   1.190   5.929   0.589 -0.9886  1.5004  1.5543
 9202SOL    HW228506   1.082   5.859   0.489  2.2824  0.0539 -1.1842
 9203SOL     OW28507   5.074   6.306   2.326 -0.0346  0.1987  0.3084
 9203SOL    HW128508   5.117   6.244   2.260  0.4682  1.9260 -1.0813
 9203SOL    HW228509   5.046   6.390   2.279 -0.5342  1.1127  2.1441
 9204SOL     OW28510   6.032   5.098   1.107 -0.0850  0.6549 -0.0537
 9204SOL    HW128511   6.045   5.191   1.140  3.4107  0.6015 -0.8582
 9204SOL    HW228512   6.109   5.073   1.047 -0.5430 -2.9538  0.6364
 9205SOL     OW28513   2.835   0.805   0.061 -0.0122  0.9939  0.2685
 9205SOL    HW128514   2.812   0.873   0.131 -0.0059  0.4571  0.8035
 9205SOL    HW228515   2.933   0.785   0.066  0.1113  1.4328 -0.3330
 9206SOL     OW28516   5.984   6.260   5.552  0.0178 -0.5498  0.5167
 9206SOL    HW128517   5.947   6.270   5.644 -2.6980 -0.9503 -0.4475
 9206SOL    HW228518   6.036   6.175   5.546  1.6755  0.2995  2.0695
 9207SOL     OW28519   4.111   1.847   0.755 -0.0938  0.0112  0.2317
 9207SOL    HW128520   4.016   1.845   0.786 -0.4864  3.1769 -0.3923
 9207SOL    HW228521   4.120   1.913   0.680  2.4201 -1.0183 -0.4877
 9208SOL     OW28522   6.166   1.577   2.425 -0.1071 -0.2956  0.2384
 9208SOL    HW128523   6.084   1.525   2.451 -0.0448 -0.1183  0.8168
 9208SOL    HW228524   6.201   1.626   2.505  0.6741 -0.5192  0.0486
 9209SOL     OW28525   1.551   5.338   0.673  0.5188 -0.3092 -0.2736
 9209SOL    HW128526   1.581   5.289   0.591  0.0011  1.5654 -1.6441
 9209SOL    HW228527   1.609   5.417   0.688  0.0329 -0.1134  0.6501
 9210SOL     OW28528   3.974   6.767   6.395 -0.1560 -0.5365  0.3053
 9210SOL    HW128529   3.980   6.669   6.413 -1.7227 -0.5664  0.7840
 9210SOL    HW228530   3.969   6.817   6.481  0.1752 -0.0642  0.0552
 9211SOL     OW28531   0.147   6.847   1.889  0.2325 -0.0915 -0.2191
 9211SOL    HW128532   0.124   6.937   1.852  3.5573  1.9988  2.2188
 9211SOL    HW228533   0.234   6.816   1.850 -0.7296 -2.1971 -0.8220
 9212SOL     OW28534   1.103   3.010   5.747 -0.0548 -0.2038  0.0350
 9212SOL    HW128535   1.098   3.055   5.658 -0.2654 -0.3641 -0.0358
 9212SOL    HW228536   1.187   2.955   5.753 -0.5403 -1.0291 -0.4675
 9213SOL     OW28537   2.079   1.891   6.090  0.3018 -0.3555  0.5112
 9213SOL    HW128538   2.110   1.859   6.001 -0.5190 -0.1803  0.1473
 9213SOL    HW228539   1.986   1.928   6.081  1.1900  2.1733  0.8681
 9214SOL     OW28540   2.403   1.243   5.709  0.5169  0.3251 -0.1822
 9214SOL    HW128541   2.326   1.217   5.650 -1.6141 -0.1283  2.5647
 9214SOL    HW228542   2.373   1.314   5.772  2.6323  0.6815  0.4841
 9215SOL     OW28543   0.964   0.947   6.077 -0.1469  0.3264 -0.1496
 9215SOL    HW128544   1.018   0.940   6.161 -1.4527 -0.5339  0.6580
 9215SOL    HW228545   0.933   0.856   6.049 -0.8564  0.7507 -0.7993
 9216SOL     OW28546   5.255   3.079   3.409 -0.5204 -0.3284 -0.5734
 9216SOL    HW128547   5.333   3.017   3.405 -1.1570 -1.6059  3.1053
 9216SOL    HW228548   5.288   3.173   3.422  0.3922 -0.3490 -2.5129
 9217SOL     OW28549   5.694   4.426   0.315 -0.0628 -0.2635 -0.4007
 9217SOL    HW128550   5.643   4.354   0.268 -1.6277  0.8936 -0.5632
 9217SOL    HW228551   5.641   4.457   0.394  0.9803  0.1538  0.1542
 9218SOL     OW28552   2.929   4.103   6.380 -0.1869  0.1277 -0.0242
 9218SOL    HW128553   2.898   4.168   6.449  0.8286  1.5909 -0.8884
 9218SOL    HW228554   2.850   4.071   6.327 -0.7488  0.3596  0.6566
 9219SOL     OW28555   6.152   4.939   2.272 -0.1710  0.8360 -0.0425
 9219SOL    HW128556   6.180   4.874   2.343  0.4249  0.2094 -0.8366
 9219SOL    HW228557   6.082   5.001   2.310  0.9247  1.2415  1.4316
 9220SOL     OW28558   0.130   0.446   0.954  0.2345 -0.4803 -0.4810
 9220SOL    HW128559   0.087   0.415   1.039 -1.9115  1.2685 -0.8262
 9220SOL    HW228560   0.169   0.367   0.906 -0.6333 -1.8683  0.9683
 9221SOL     OW28561   5.852   4.172   5.680 -0.1087 -0.5974 -0.9601
 9221SOL    HW128562   5.822   4.080   5.657  0.4800 -0.6733 -1.4411
 9221SOL    HW228563   5.950   4.181   5.665 -0.1454  0.0873 -0.8653
 9222SOL     OW28564   3.005   6.040   4.128  0.1823 -0.2250  0.2459
 9222SOL    HW128565   2.963   6.115   4.177  0.1959 -0.7342  1.0573
 9222SOL    HW228566   2.965   5.953   4.157  1.3688 -0.6761  0.6185
 9223SOL     OW28567   1.691   5.229   2.233 -0.5942 -0.3523 -0.2074
 9223SOL    HW128568   1.701   5.204   2.329 -0.9817  0.0750 -0.0501
 9223SOL    HW228569   1.677   5.147   2.178  2.1499 -0.8612 -0.2499
 9224SOL     OW28570   3.322   0.603   3.148  0.3458  0.4777 -0.4312
 9224SOL    HW128571   3.315   0.586   3.246 -1.9234 -0.0533 -0.6211
 9224SOL    HW228572   3.291   0.695   3.127  0.1300  0.3453 -0.7119
 9225SOL     OW28573   1.674   1.767   3.098 -0.3886  0.1424  0.6306
 9225SOL    HW128574   1.620   1.812   3.027 -1.5242  0.4456  1.6541
 9225SOL    HW228575   1.668   1.668   3.087 -2.1752  0.1297  1.4278
 9226SOL     OW28576   0.672   4.177   6.130  0.6431 -0.0062 -0.3741
 9226SOL    HW128577   0.746   4.189   6.196  0.3080  1.6041 -0.2389
 9226SOL    HW228578   0.688   4.237   6.051 -0.8449  0.9124 -0.0188
 9227SOL     OW28579   6.110   5.688   3.114 -0.1481  0.3004  0.4838
 9227SOL    HW128580   6.026   5.635   3.123  0.4205 -0.4379  1.6090
 9227SOL    HW228581   6.183   5.629   3.079  0.3680  0.4592  1.2803
 9228SOL     OW28582   5.130   3.326   1.667 -0.5429 -0.0963 -0.2471
 9228SOL    HW128583   5.190   3.320   1.746  0.2655 -0.5446 -0.8900
 9228SOL    HW228584   5.071   3.245   1.664 -2.1347  0.9368  1.1111
 9229SOL     OW28585   6.034   5.613   3.757  0.4172  0.0422 -0.4342
 9229SOL    HW128586   6.095   5.537   3.736  1.6403  1.0775 -0.8023
 9229SOL    HW228587   6.077   5.699   3.729 -1.4144  0.7956 -1.1003
 9230SOL     OW28588   4.891   6.513   6.443  0.1127 -0.1250 -0.3104
 9230SOL    HW128589   4.819   6.559   6.392 -1.3461 -0.8440  1.0214
 9230SOL    HW228590   4.965   6.577   6.462  0.3730  0.3456 -2.6310
 9231SOL     OW28591   1.145   6.570   3.786 -0.0003  0.3907 -0.1897
 9231SOL    HW128592   1.174   6.643   3.848 -1.3791  1.1303 -0.3636
 9231SOL    HW228593   1.225   6.519   3.754  0.6881 -0.8045  3.0918
 9232SOL     OW28594   4.045   3.550   1.488  0.1172 -0.5538  0.4429
 9232SOL    HW128595   3.985   3.482   1.446 -0.3134  0.6912 -1.0473
 9232SOL    HW228596   4.006   3.580   1.575 -1.9818  0.8506 -0.8806
 9233SOL     OW28597   4.618   4.096   0.815 -0.2855 -0.1681  0.5441
 9233SOL    HW128598   4.621   4.001   0.848 -0.8050  0.2355  1.8216
 9233SOL    HW228599   4.550   4.147   0.867  0.2454  1.0093  0.1204
 9234SOL     OW28600   6.248   4.859   3.661 -0.1919 -0.0352  0.0308
 9234SOL    HW128601   6.311   4.824   3.592 -0.5517 -0.6018 -0.0145
 9234SOL    HW228602   6.247   4.797   3.740  0.5715  0.8466  0.7629
 9235SOL     OW28603   1.394   2.483   5.783 -0.4982  0.0017 -0.5756
 9235SOL    HW128604   1.459   2.436   5.724  0.5542  1.3689 -0.5545
 9235SOL    HW228605   1.339   2.545   5.729  0.1518  0.9173 -0.2142
 9236SOL     OW28606   0.965   5.520   6.585  0.2553  0.1942 -0.2366
 9236SOL    HW128607   0.958   5.429   6.625 -0.8554 -0.6457 -2.1761
 9236SOL    HW228608   1.057   5.533   6.547  0.4798 -0.0298  0.2266
 9237SOL     OW28609   2.070   2.443   5.154 -0.1109  0.0984 -0.3136
 9237SOL    HW128610   1.974   2.439   5.124  0.2120  1.2228 -1.6277
 9237SOL    HW228611   2.102   2.351   5.176 -0.9650 -0.5547 -1.6284
 9238SOL     OW28612   2.349   5.914   1.138 -0.9716 -0.2333  0.0713
 9238SOL    HW128613   2.335   5.979   1.064  0.7156 -1.0335 -1.0062
 9238SOL    HW228614   2.432   5.938   1.188 -0.2770 -1.5629 -0.3950
 9239SOL     OW28615   4.818   2.157   2.591  0.3853  0.3628 -0.3218
 9239SOL    HW128616   4.814   2.213   2.508  0.0595  0.1879 -0.4258
 9239SOL    HW228617   4.790   2.064   2.569  1.2736  0.0680 -0.2214
 9240SOL     OW28618   2.942   1.471   0.315 -0.3507  0.3687  0.5490
 9240SOL    HW128619   2.866   1.533   0.334  0.2769  0.9302  1.2782
 9240SOL    HW228620   3.007   1.473   0.391  0.8174  0.5279 -0.4224
 9241SOL     OW28621   5.922   6.335   6.934 -0.2057 -0.0432 -0.1487
 9241SOL    HW128622   5.955   6.268   7.001 -0.7347  1.7608  2.0528
 9241SOL    HW228623   5.876   6.288   6.859  1.2145 -2.2085  0.2547
 9242SOL     OW28624   2.430   1.368   3.958 -0.0231  0.0909 -0.2604
 9242SOL    HW128625   2.488   1.299   3.917 -0.4890 -0.5881  0.1931
 9242SOL    HW228626   2.486   1.432   4.011  0.5497  0.8512 -1.7531
 9243SOL     OW28627   5.224   2.280   3.071  0.0851 -0.1957  0.4194
 9243SOL    HW128628   5.186   2.322   3.154  0.1686  1.1159 -0.1830
 9243SOL    HW228629   5.297   2.338   3.035 -1.7938  0.7571 -2.1184
 9244SOL     OW28630   4.858   5.782   0.715  0.1800  1.0208  0.1182
 9244SOL    HW128631   4.843   5.826   0.804 -2.4690  1.6150 -0.5326
 9244SOL    HW228632   4.831   5.686   0.721  1.9453  0.5010  0.4246
 9245SOL     OW28633   3.249   2.341   0.580  0.4280 -0.0618 -0.4479
 9245SOL    HW128634   3.227   2.244   0.570  0.6111 -0.3317  1.4082
 9245SOL    HW228635   3.194   2.381   0.653  0.4596  1.2164 -1.0814
 9246SOL     OW28636   1.432   6.044   0.133  0.3394 -0.4441  0.0169
 9246SOL    HW128637   1.353   6.071   0.187  0.5924  0.1411  0.1009
 9246SOL    HW228638   1.418   6.069   0.037 -0.0298 -1.3144 -0.1682
 9247SOL     OW28639   5.291   4.761   3.559 -0.2335 -0.0105  0.7758
 9247SOL    HW128640   5.270   4.669   3.528 -1.4027  0.1527  1.0614
 9247SOL    HW228641   5.270   4.827   3.486  0.8858  0.0214  0.4585
 9248SOL     OW28642   3.655   5.833   5.935 -0.1130  0.1008 -0.6683
 9248SOL    HW128643   3.622   5.865   5.846  0.3929  0.5103 -0.7165
 9248SOL    HW228644   3.577   5.801   5.990 -0.2645 -1.5763 -1.8011
 9249SOL     OW28645   1.130   4.088   2.375 -0.5220  0.1570 -0.4108
 9249SOL    HW128646   1.189   4.081   2.295 -0.9839  1.8298 -0.9271
 9249SOL    HW228647   1.177   4.047   2.454  0.7075  0.1303 -1.1261
 9250SOL     OW28648   1.926   5.328   5.268  0.4490 -0.3634  0.1766
 9250SOL    HW128649   1.872   5.405   5.235  1.5777  1.2835  2.0443
 9250SOL    HW228650   1.865   5.253   5.293 -0.9848  1.2022  1.6028
 9251SOL     OW28651   0.010   1.410   2.265 -0.2058 -0.2882  0.0829
 9251SOL    HW128652   0.039   1.424   2.171 -0.1569 -0.9179 -0.0047
 9251SOL    HW228653   0.051   1.479   2.324  0.7064 -0.5931 -0.1833
 9252SOL     OW28654   6.871   1.480   5.114  0.1090  0.3079  0.0707
 9252SOL    HW128655   6.791   1.502   5.170  0.7158  1.0794  0.6565
 9252SOL    HW228656   6.900   1.562   5.063 -0.9653 -0.5762 -2.1074
 9253SOL     OW28657   1.069   3.893   2.920 -0.3746  0.3592 -0.1099
 9253SOL    HW128658   1.095   3.807   2.876 -2.2021 -0.4146  0.2025
 9253SOL    HW228659   1.026   3.953   2.853 -0.4986  0.3873 -0.0063
 9254SOL     OW28660   1.507   5.207   6.419  0.6087  0.1434 -0.3834
 9254SOL    HW128661   1.462   5.149   6.488 -0.8871 -1.0955 -2.3046
 9254SOL    HW228662   1.600   5.173   6.403  0.2185 -0.9085 -0.5095
 9255SOL     OW28663   2.703   6.482   6.345 -0.6441  0.0783  0.0145
 9255SOL    HW128664   2.655   6.427   6.276 -0.5874  0.2385 -0.1557
 9255SOL    HW228665   2.641   6.553   6.379 -0.3412  0.7006 -0.6805
 9256SOL     OW28666   5.422   3.952   4.235 -0.0966  0.7521 -0.2998
 9256SOL    HW128667   5.469   4.040   4.235 -0.3749  0.9222  0.8985
 9256SOL    HW228668   5.453   3.898   4.314 -2.1191  0.9927  0.7194
 9257SOL     OW28669   4.793   1.895   4.357 -0.0381  0.3248  0.4411
 9257SOL    HW128670   4.770   1.992   4.363  0.5800  0.4776  0.5027
 9257SOL    HW228671   4.741   1.843   4.424 -0.4885  0.5925  0.3011
 9258SOL     OW28672   0.572   3.594   2.859 -0.4397 -0.1786  0.2274
 9258SOL    HW128673   0.492   3.583   2.918 -2.4104  1.6639 -1.9319
 9258SOL    HW228674   0.549   3.653   2.782  2.8770 -0.0678 -0.8223
 9259SOL     OW28675   5.408   5.075   3.202  0.1794  0.1943  0.2691
 9259SOL    HW128676   5.425   5.035   3.113 -0.7269 -0.6665  0.4678
 9259SOL    HW228677   5.327   5.033   3.243 -0.2647  1.5898  0.8807
 9260SOL     OW28678   2.529   6.922   6.665 -0.1093 -0.4076  0.4464
 9260SOL    HW128679   2.563   6.950   6.754 -0.1503  0.4500  0.2045
 9260SOL    HW228680   2.430   6.932   6.662 -0.1291 -0.6198  0.3698
 9261SOL     OW28681   3.833   4.427   0.014  0.1083  0.2624  0.1127
 9261SOL    HW128682   3.872   4.376   0.090  0.9708  1.3020  0.3962
 9261SOL    HW228683   3.763   4.489   0.048 -0.6447 -0.4100 -0.1745
 9262SOL     OW28684   5.376   6.356   2.222  0.0400  0.4191  0.8306
 9262SOL    HW128685   5.404   6.276   2.169 -0.1449 -0.1745  1.6155
 9262SOL    HW228686   5.316   6.327   2.296  0.0282  1.2854  1.1642
 9263SOL     OW28687   2.607   5.620   4.536 -0.7116  0.4516  0.4282
 9263SOL    HW128688   2.606   5.556   4.613 -2.9953  1.3445  1.2129
 9263SOL    HW228689   2.675   5.691   4.552  0.3578 -0.5555  0.5442
 9264SOL     OW28690   4.280   4.988   6.953  0.3700 -0.2566 -0.4143
 9264SOL    HW128691   4.243   5.021   6.866  0.1835  0.7378  0.0395
 9264SOL    HW228692   4.375   5.018   6.962  0.5451 -0.7731 -0.4885
 9265SOL     OW28693   3.508   6.636   4.749 -0.1130  0.2379 -0.2056
 9265SOL    HW128694   3.507   6.663   4.846  0.8364  1.3710 -0.4969
 9265SOL    HW228695   3.479   6.713   4.693  1.2939  0.2476 -0.9610
 9266SOL     OW28696   4.111   2.973   1.786 -0.1117 -0.2011  0.4760
 9266SOL    HW128697   4.201   3.007   1.814  0.4505 -0.6287 -0.7214
 9266SOL    HW228698   4.077   3.028   1.709  0.0120 -1.1978 -0.3248
 9267SOL     OW28699   2.425   2.454   6.955 -0.1737 -0.0199  0.2548
 9267SOL    HW128700   2.413   2.368   7.005 -1.8842  0.5906  0.9369
 9267SOL    HW228701   2.464   2.434   6.865 -1.8337 -1.6749 -0.1490
 9268SOL     OW28702   0.446   0.264   5.455 -0.2464 -0.1274  0.0040
 9268SOL    HW128703   0.433   0.286   5.552  1.3986  1.4290 -0.0703
 9268SOL    HW228704   0.414   0.340   5.399 -0.5886 -0.7485 -0.6578
 9269SOL     OW28705   5.278   4.853   5.635 -0.1298  0.2030  0.5963
 9269SOL    HW128706   5.259   4.911   5.715  0.3349  0.3315  0.6134
 9269SOL    HW228707   5.233   4.892   5.555  1.8429  1.7627  0.1676
 9270SOL     OW28708   0.150   1.715   6.397  0.3707 -0.1868 -0.1918
 9270SOL    HW128709   0.137   1.667   6.310 -0.0393  1.2912 -0.9927
 9270SOL    HW228710   0.247   1.718   6.419  0.5070 -0.3109 -0.7593
 9271SOL     OW28711   6.747   1.786   0.233  0.0900  0.2368  0.2648
 9271SOL    HW128712   6.732   1.879   0.267 -1.1334  0.4251 -0.6918
 9271SOL    HW228713   6.738   1.785   0.134 -0.2610 -0.9671  0.2893
 9272SOL     OW28714   4.588   5.266   3.645 -0.0842 -0.2228  0.0311
 9272SOL    HW128715   4.616   5.188   3.702  0.1526 -1.2373 -1.4033
 9272SOL    HW228716   4.662   5.332   3.641 -0.1080 -0.1244  0.8926
 9273SOL     OW28717   4.588   3.144   6.351  0.2860 -0.4178 -0.1022
 9273SOL    HW128718   4.530   3.119   6.430 -1.4815 -1.3972 -1.6240
 9273SOL    HW228719   4.614   3.061   6.302 -1.0285  0.3117 -2.1341
 9274SOL     OW28720   1.020   1.089   1.006 -0.0513 -1.0199 -0.6684
 9274SOL    HW128721   0.938   1.147   0.999  0.7216  0.1215 -0.4501
 9274SOL    HW228722   0.998   1.007   1.059 -0.6160  0.1118  0.9157
 9275SOL     OW28723   0.790   1.142   5.653  0.2344 -0.5704  0.0942
 9275SOL    HW128724   0.825   1.220   5.601 -1.4251  0.2124  0.0863
 9275SOL    HW228725   0.818   1.150   5.749 -3.1029  2.2693  1.0237
 9276SOL     OW28726   2.694   1.621   3.390 -0.6102  0.3591  0.0598
 9276SOL    HW128727   2.753   1.540   3.381 -1.1308 -0.1037  0.7157
 9276SOL    HW228728   2.697   1.674   3.305  0.4637  0.1552 -0.0496
 9277SOL     OW28729   6.564   3.989   4.258 -0.0187  0.3269  0.0221
 9277SOL    HW128730   6.661   4.011   4.271 -0.4942  4.0976 -1.4137
 9277SOL    HW228731   6.508   4.050   4.315 -1.5772 -0.5902 -0.4628
 9278SOL     OW28732   6.801   3.985   1.750 -0.1888  0.9398  0.1589
 9278SOL    HW128733   6.835   3.929   1.674 -1.1727  2.4756 -1.5058
 9278SOL    HW228734   6.734   3.933   1.802 -0.9861  0.4579 -1.2733
 9279SOL     OW28735   3.837   5.850   5.567  0.6056 -0.6168 -0.3926
 9279SOL    HW128736   3.866   5.898   5.484 -1.0014 -0.9939 -1.2108
 9279SOL    HW228737   3.875   5.758   5.567 -0.1611 -0.9493 -1.2176
 9280SOL     OW28738   2.598   3.264   1.719  0.0896  0.4280 -0.1652
 9280SOL    HW128739   2.651   3.222   1.794 -0.3634 -0.3176 -0.2528
 9280SOL    HW228740   2.526   3.321   1.758  0.5994  0.9976 -0.0427
 9281SOL     OW28741   6.014   2.504   6.334 -0.0495  0.0891 -0.4171
 9281SOL    HW128742   5.918   2.478   6.327 -0.1830  0.9024 -2.0608
 9281SOL    HW228743   6.039   2.561   6.256  1.3337  1.3313  0.8625
 9282SOL     OW28744   4.942   1.553   3.189 -0.6752 -0.4907  0.4865
 9282SOL    HW128745   4.891   1.479   3.144 -0.8463  0.0595 -0.2417
 9282SOL    HW228746   4.897   1.578   3.274 -2.3435  0.7906 -0.7098
 9283SOL     OW28747   1.258   3.014   6.045  0.5043 -0.1821 -0.0296
 9283SOL    HW128748   1.312   3.069   5.980  0.5585  0.8859  0.8845
 9283SOL    HW228749   1.225   3.073   6.118  0.4495 -1.3708  0.9254
 9284SOL     OW28750   4.877   1.467   6.986  0.1550 -0.0696 -0.0856
 9284SOL    HW128751   4.870   1.372   7.016 -0.7250 -0.1057 -0.3941
 9284SOL    HW228752   4.963   1.479   6.935  0.2318 -0.7126 -0.1139
 9285SOL     OW28753   1.851   5.258   6.565  0.1103 -0.4629  0.0761
 9285SOL    HW128754   1.799   5.312   6.499 -0.6631 -0.0988  0.9649
 9285SOL    HW228755   1.913   5.197   6.517  1.2549  1.4310 -0.9728
 9286SOL     OW28756   1.009   3.379   2.544  0.1820 -0.4371  0.2384
 9286SOL    HW128757   0.956   3.392   2.460  0.1407  2.5842  0.6238
 9286SOL    HW228758   0.954   3.405   2.623  1.8903  2.0511  0.7179
 9287SOL     OW28759   0.332   6.305   3.725 -0.3024  0.0429 -0.6126
 9287SOL    HW128760   0.392   6.294   3.804  1.6614 -0.2654 -2.0680
 9287SOL    HW228761   0.275   6.223   3.714 -1.2085  0.4356  0.9138
 9288SOL     OW28762   4.393   6.662   6.299 -0.0832 -0.0312  0.2766
 9288SOL    HW128763   4.439   6.574   6.313 -1.2505 -1.0496 -1.8466
 9288SOL    HW228764   4.297   6.646   6.275 -0.0021  1.7210 -1.4537
 9289SOL     OW28765   1.729   6.908   5.414 -0.5059 -0.2455  0.4784
 9289SOL    HW128766   1.728   6.809   5.432  0.8846 -0.0678  1.6946
 9289SOL    HW228767   1.813   6.948   5.451 -2.2121  1.8143  2.4574
 9290SOL     OW28768   5.294   0.999   2.608 -0.5060 -0.4991 -0.1717
 9290SOL    HW128769   5.329   0.997   2.515 -1.8263 -1.6673 -0.6737
 9290SOL    HW228770   5.369   0.981   2.673  0.0861 -1.5919 -1.1231
 9291SOL     OW28771   5.547   5.036   5.426  0.4861  1.3894 -0.3912
 9291SOL    HW128772   5.553   5.057   5.328  0.4578  3.6736  0.0462
 9291SOL    HW228773   5.605   5.099   5.478 -0.3139  0.9066  1.1574
 9292SOL     OW28774   4.535   5.584   0.251  0.3475  0.1432 -0.3512
 9292SOL    HW128775   4.604   5.596   0.323 -0.3746 -1.3381  0.6484
 9292SOL    HW228776   4.580   5.590   0.161  1.1329  2.8436  0.1304
 9293SOL     OW28777   2.841   6.788   1.331  0.5434  0.0733 -0.2833
 9293SOL    HW128778   2.799   6.703   1.301 -3.3287  2.2333 -1.6017
 9293SOL    HW228779   2.906   6.819   1.262  0.3735 -0.7460 -0.8270
 9294SOL     OW28780   4.831   1.521   5.609 -0.6771 -0.0672 -0.2111
 9294SOL    HW128781   4.879   1.599   5.651  0.0591 -0.2573 -0.6755
 9294SOL    HW228782   4.883   1.489   5.530  0.0844 -2.2361  1.0576
 9295SOL     OW28783   5.416   5.455   5.617  0.4729  0.0625 -0.3836
 9295SOL    HW128784   5.361   5.469   5.535  0.6117  0.0885 -0.4708
 9295SOL    HW228785   5.410   5.359   5.646 -0.7019  0.3334  0.3710
 9296SOL     OW28786   4.914   3.092   4.464 -0.2145  0.1360  0.4094
 9296SOL    HW128787   4.867   3.172   4.426 -0.5799  0.4227  1.4230
 9296SOL    HW228788   4.902   3.091   4.564 -0.5843 -1.4226  0.3688
 9297SOL     OW28789   6.256   0.735   2.934  0.0766 -0.1021 -0.1816
 9297SOL    HW128790   6.340   0.787   2.942 -0.0166 -0.0375  0.4921
 9297SOL    HW228791   6.178   0.798   2.929  0.0400 -0.1644 -0.3920
 9298SOL     OW28792   5.603   2.457   1.549 -0.0400 -0.6312  0.2081
 9298SOL    HW128793   5.612   2.545   1.502  2.6730 -1.4533 -0.9961
 9298SOL    HW228794   5.541   2.398   1.498  2.2837 -1.2421 -2.1524
 9299SOL     OW28795   6.406   4.621   6.476 -0.3725  0.2680 -0.2164
 9299SOL    HW128796   6.482   4.567   6.512 -1.2244 -2.3346 -2.0031
 9299SOL    HW228797   6.391   4.701   6.534  1.0188 -1.3601  2.5915
 9300SOL     OW28798   3.544   1.142   5.757  0.0604  0.5712  0.3368
 9300SOL    HW128799   3.611   1.071   5.776 -1.1714 -0.8041 -0.2464
 9300SOL    HW228800   3.578   1.230   5.788  1.9186 -0.1624  0.4564
 9301SOL     OW28801   5.870   1.304   3.683  0.2560  0.3284  0.0357
 9301SOL    HW128802   5.863   1.383   3.622  0.4087 -1.2362 -2.1240
 9301SOL    HW228803   5.934   1.237   3.645  2.1519  0.2049  3.0932
 9302SOL     OW28804   3.266   0.189   0.363 -0.0180  0.2205 -0.0896
 9302SOL    HW128805   3.172   0.186   0.330  0.4290 -0.4791 -1.3832
 9302SOL    HW228806   3.274   0.133   0.446 -0.6079 -0.2612 -0.3516
 9303SOL     OW28807   6.905   6.639   6.448 -0.0879 -0.5370 -0.4990
 9303SOL    HW128808   6.969   6.713   6.429 -0.0817  0.3748  2.5838
 9303SOL    HW228809   6.811   6.675   6.444 -0.1813 -0.7980 -0.6812
 9304SOL     OW28810   1.239   5.291   3.052 -0.2686 -0.4315  0.4569
 9304SOL    HW128811   1.288   5.347   2.986 -0.7483 -0.3944  0.1288
 9304SOL    HW228812   1.290   5.207   3.069 -0.1256 -0.4249  0.0719
 9305SOL     OW28813   6.830   3.392   6.905  0.4268  0.1308 -0.5515
 9305SOL    HW128814   6.769   3.442   6.967 -1.0627 -1.9876 -0.2212
 9305SOL    HW228815   6.795   3.399   6.811  0.2562 -0.2434 -0.5145
 9306SOL     OW28816   1.396   4.681   1.533  0.1353 -0.5483  0.3425
 9306SOL    HW128817   1.297   4.678   1.547 -0.4514  3.1768 -1.7010
 9306SOL    HW228818   1.419   4.637   1.446 -0.2738  1.2683 -0.7474
 9307SOL     OW28819   6.961   2.261   0.475  0.2797 -0.0750 -0.3491
 9307SOL    HW128820   6.904   2.208   0.538  1.0314 -2.1959 -1.3528
 9307SOL    HW228821   7.057   2.244   0.494  0.6111  2.0108  0.1189
 9308SOL     OW28822   0.428   0.766   1.280 -0.1612 -0.5587  0.1270
 9308SOL    HW128823   0.436   0.712   1.364  0.2831 -0.4358  0.1666
 9308SOL    HW228824   0.460   0.860   1.297 -1.9074  0.0452  0.3497
 9309SOL     OW28825   5.019   5.321   1.109 -0.3472 -0.0107  0.6598
 9309SOL    HW128826   4.931   5.313   1.156  0.1706  2.1566  2.1884
 9309SOL    HW228827   5.071   5.397   1.149  1.0562  0.6180 -2.0842
 9310SOL     OW28828   0.164   3.126   5.573 -0.6496  0.1653 -0.1946
 9310SOL    HW128829   0.244   3.069   5.554 -1.2511  0.1701 -3.2709
 9310SOL    HW228830   0.188   3.197   5.639  1.1207 -1.3568  0.9143
 9311SOL     OW28831   6.433   0.359   4.752  0.7992  0.7343  0.3350
 9311SOL    HW128832   6.440   0.459   4.762  0.5636  0.9201 -1.1269
 9311SOL    HW228833   6.525   0.320   4.745  0.8715  0.9376  0.1386
 9312SOL     OW28834   3.643   2.723   5.276 -0.1630 -0.3420 -0.1751
 9312SOL    HW128835   3.706   2.713   5.198  1.2819  1.2581  0.7229
 9312SOL    HW228836   3.683   2.785   5.343 -1.6397 -1.2246  1.6013
 9313SOL     OW28837   2.962   4.744   0.767  0.1126 -0.1714 -0.2049
 9313SOL    HW128838   2.959   4.662   0.823 -1.4092 -0.6486 -0.9376
 9313SOL    HW228839   3.013   4.725   0.683  0.9309  0.0513  0.2293
 9314SOL     OW28840   3.549   0.380   2.640 -0.2113  0.2226  0.5496
 9314SOL    HW128841   3.645   0.407   2.643  0.2291 -0.8798 -1.4831
 9314SOL    HW228842   3.521   0.346   2.729  1.5519 -0.2530  0.9555
 9315SOL     OW28843   1.136   6.043   4.412  0.8066  0.3213  0.3623
 9315SOL    HW128844   1.176   6.108   4.477 -0.8434  1.5527  0.2099
 9315SOL    HW228845   1.118   6.088   4.325 -1.4392  0.0417  0.6100
 9316SOL     OW28846   6.054   5.276   0.215  0.1598 -0.3817  0.0980
 9316SOL    HW128847   6.128   5.319   0.267  2.4715 -2.8579 -0.8801
 9316SOL    HW228848   6.035   5.328   0.133 -0.1077  0.9453  0.9719
 9317SOL     OW28849   6.929   4.378   5.249  0.1523  0.0076  0.2169
 9317SOL    HW128850   7.006   4.404   5.191 -1.7776 -0.2219 -2.6869
 9317SOL    HW228851   6.963   4.343   5.336  3.3208 -0.5047 -1.0792
 9318SOL     OW28852   0.058   5.363   4.373  0.0715 -0.1629 -0.1083
 9318SOL    HW128853   0.054   5.364   4.473  1.2191  2.4140  0.0054
 9318SOL    HW228854  -0.029   5.330   4.337 -1.3280  1.1757  1.7735
 9319SOL     OW28855   4.424   6.943   3.465  0.3193 -0.4770 -0.6551
 9319SOL    HW128856   4.470   6.881   3.529  1.9806  0.2229 -1.1164
 9319SOL    HW228857   4.325   6.939   3.481  0.6335 -0.5737  1.7141
 9320SOL     OW28858   5.477   6.766   0.087 -0.0060  0.2588 -1.3656
 9320SOL    HW128859   5.494   6.772   0.185 -1.8219  0.1044 -0.9996
 9320SOL    HW228860   5.562   6.743   0.039  0.7766 -0.2641  0.2129
 9321SOL     OW28861   0.120   0.949   1.440  0.3679 -0.4319  0.2014
 9321SOL    HW128862   0.114   0.980   1.345  1.3178  0.0737  0.2915
 9321SOL    HW228863   0.185   1.007   1.489 -0.5572 -0.3221  1.3181
 9322SOL     OW28864   1.162   0.796   5.480  0.5152  0.2637 -0.0827
 9322SOL    HW128865   1.083   0.856   5.470 -0.1315 -0.7935 -1.7583
 9322SOL    HW228866   1.177   0.776   5.577 -0.9628  0.8820  0.3029
 9323SOL     OW28867   3.922   1.153   4.534  0.1493  0.1396  0.3867
 9323SOL    HW128868   3.864   1.190   4.461 -0.2261 -1.4206 -0.1385
 9323SOL    HW228869   3.906   1.205   4.618  1.1511  2.4734 -0.7717
 9324SOL     OW28870   1.982   5.813   5.929  0.5661 -0.5540 -0.0940
 9324SOL    HW128871   1.958   5.721   5.959  0.8560 -0.7205 -0.3621
 9324SOL    HW228872   1.991   5.873   6.009 -1.6125 -0.2504 -0.0293
 9325SOL     OW28873   1.906   0.845   1.419  0.8484  0.2318 -0.0517
 9325SOL    HW128874   1.986   0.816   1.471  0.2569 -0.6281  0.4125
 9325SOL    HW228875   1.862   0.922   1.466  0.4700 -0.3671  0.5922
 9326SOL     OW28876   1.326   6.565   2.169  0.2497 -0.4857 -0.5381
 9326SOL    HW128877   1.245   6.548   2.224  0.1502 -0.1769 -0.5906
 9326SOL    HW228878   1.372   6.647   2.201  1.7288 -1.7898  0.8675
 9327SOL     OW28879   1.396   2.434   2.694 -0.8463  0.1905  0.4218
 9327SOL    HW128880   1.408   2.518   2.641  0.9570 -0.1854  0.1615
 9327SOL    HW228881   1.317   2.443   2.754 -2.2430  1.0783 -1.4563
 9328SOL     OW28882   0.611   0.634   2.779 -0.4700  0.1886  0.2146
 9328SOL    HW128883   0.681   0.699   2.807  1.2304 -1.6388  0.4032
 9328SOL    HW228884   0.543   0.626   2.852  0.7167 -0.1585  1.3245
 9329SOL     OW28885   3.306   0.592   7.005  0.2699  0.6408  0.5077
 9329SOL    HW128886   3.217   0.548   6.990  0.2238  1.1751 -0.9124
 9329SOL    HW228887   3.376   0.545   6.951  0.3246  1.9254 -0.5825
 9330SOL     OW28888   4.811   5.403   0.284  0.3735  0.0297  0.3239
 9330SOL    HW128889   4.745   5.331   0.267  2.2734 -1.4047 -1.4928
 9330SOL    HW228890   4.785   5.454   0.366 -1.7394 -1.8686  0.9167
 9331SOL     OW28891   6.371   3.954   3.979  0.4030  0.0712 -0.0466
 9331SOL    HW128892   6.414   4.039   3.951 -0.3891 -0.4224 -3.0918
 9331SOL    HW228893   6.281   3.973   4.018  1.7853  0.8215  3.1216
 9332SOL     OW28894   6.607   3.631   5.112  0.4364  0.1010  0.2917
 9332SOL    HW128895   6.540   3.695   5.149  0.8347  0.8750 -0.3076
 9332SOL    HW228896   6.575   3.537   5.126 -0.2549  0.4290  0.9765
 9333SOL     OW28897   1.712   2.562   0.708  0.5436  0.4044 -0.2269
 9333SOL    HW128898   1.639   2.611   0.756  0.6743 -0.2763  0.6841
 9333SOL    HW228899   1.790   2.549   0.770  0.9225 -0.0308 -0.7853
 9334SOL     OW28900   5.617   4.644   3.658  0.2829 -0.1654  0.2731
 9334SOL    HW128901   5.663   4.642   3.569  0.1445 -2.6019  0.1847
 9334SOL    HW228902   5.519   4.654   3.644  0.2105 -1.0277  0.0922
 9335SOL     OW28903   7.009   6.598   3.225 -0.1586 -0.7116  0.3708
 9335SOL    HW128904   6.954   6.611   3.143  0.4261 -0.5267 -0.0005
 9335SOL    HW228905   7.036   6.687   3.261 -0.2294 -0.7978  0.6358
 9336SOL     OW28906   4.621   3.788   5.599 -0.0095  0.1383  0.1792
 9336SOL    HW128907   4.677   3.775   5.518 -0.3873 -3.6086  0.3417
 9336SOL    HW228908   4.671   3.757   5.680 -1.6002 -1.6343  0.5549
 9337SOL     OW28909   4.011   4.162   6.368  0.1957 -0.3467  0.3284
 9337SOL    HW128910   3.916   4.132   6.375  0.5639 -1.5026  0.5667
 9337SOL    HW228911   4.014   4.261   6.352 -0.9952  0.2303  3.0790
 9338SOL     OW28912   0.981   3.647   4.702  0.5846 -0.0383  0.0660
 9338SOL    HW128913   0.885   3.672   4.691  0.6451  0.2959  0.2861
 9338SOL    HW228914   0.989   3.580   4.776  0.8060  1.9813  1.9981
 9339SOL     OW28915   4.888   3.659   2.106  0.5645 -0.4920 -0.5386
 9339SOL    HW128916   4.869   3.685   2.012 -2.1095  0.0351  0.0490
 9339SOL    HW228917   4.883   3.560   2.115 -2.4121 -0.4283 -0.4683
 9340SOL     OW28918   3.498   6.368   6.622 -0.0281 -0.6604  0.3652
 9340SOL    HW128919   3.441   6.319   6.688  1.6967  0.0193  2.4665
 9340SOL    HW228920   3.545   6.302   6.563 -2.3258 -1.2470 -0.9347
 9341SOL     OW28921   2.828   6.877   0.338  0.4629  0.7038 -0.6355
 9341SOL    HW128922   2.732   6.874   0.367  0.7427  0.5977  0.3303
 9341SOL    HW228923   2.883   6.919   0.410  1.5108 -1.4866 -0.0539
 9342SOL     OW28924   2.533   0.710   5.814 -0.0400  0.5810 -0.0329
 9342SOL    HW128925   2.579   0.704   5.902 -0.2247  0.5268  0.0620
 9342SOL    HW228926   2.460   0.779   5.820  1.4882  2.3707 -0.8481
 9343SOL     OW28927   3.651   4.024   0.129  0.1267 -0.2428  0.1200
 9343SOL    HW128928   3.741   4.068   0.132  0.8004 -1.6014  1.6201
 9343SOL    HW228929   3.663   3.924   0.135 -1.4702 -0.4564  0.1184
 9344SOL     OW28930   1.466   1.104   1.333  0.2006  0.0414 -0.2066
 9344SOL    HW128931   1.368   1.087   1.321  0.1542 -0.5105  0.7970
 9344SOL    HW228932   1.479   1.191   1.381  0.1610 -0.2937  0.4175
 9345SOL     OW28933   3.130   6.316   1.483 -0.6007 -0.0550  0.4502
 9345SOL    HW128934   3.170   6.398   1.442 -1.9176 -0.2881 -1.4091
 9345SOL    HW228935   3.195   6.240   1.477 -0.8626 -0.1675 -1.5614
 9346SOL     OW28936   6.292   4.245   2.570 -0.0417  0.5012 -0.3290
 9346SOL    HW128937   6.268   4.334   2.531 -0.2782  0.3029 -0.6392
 9346SOL    HW228938   6.390   4.242   2.590  0.2910  0.2545 -1.8527
 9347SOL     OW28939   5.152   6.888   2.663  0.7816 -0.0437  0.5201
 9347SOL    HW128940   5.107   6.868   2.576  0.4330 -1.7053  1.0406
 9347SOL    HW228941   5.146   6.986   2.682 -0.8377  0.0757 -0.4041
 9348SOL     OW28942   1.818   4.500   2.738  0.1027  0.3264 -0.4698
 9348SOL    HW128943   1.905   4.455   2.756 -1.3304 -2.0993  0.9105
 9348SOL    HW228944   1.775   4.527   2.824 -0.7353  1.0543 -1.0923
 9349SOL     OW28945   1.302   4.902   6.501 -0.4545  0.0168  0.0908
 9349SOL    HW128946   1.222   4.853   6.466  0.0996 -0.9171  0.0819
 9349SOL    HW228947   1.328   4.864   6.590  1.2843 -1.2258 -0.8938
 9350SOL     OW28948   1.170   4.763   0.743 -0.4295 -0.2743 -0.0917
 9350SOL    HW128949   1.194   4.838   0.806 -0.2866 -0.2663 -0.1540
 9350SOL    HW228950   1.094   4.711   0.781  0.1089 -0.7034  0.4376
 9351SOL     OW28951   2.518   4.517   5.902  0.0568 -0.0260  0.3175
 9351SOL    HW128952   2.537   4.548   5.809 -0.4153  0.2978  0.3267
 9351SOL    HW228953   2.433   4.559   5.934 -0.0623 -0.5531  0.6974
 9352SOL     OW28954   1.908   0.760   4.277 -0.6806 -0.4472  0.2711
 9352SOL    HW128955   1.832   0.738   4.216 -0.6467 -3.3308  1.1128
 9352SOL    HW228956   1.878   0.749   4.372  0.4291 -0.3065  0.6447
 9353SOL     OW28957   5.603   4.210   6.787 -0.2269  0.3394 -0.3102
 9353SOL    HW128958   5.592   4.219   6.886 -1.9089  0.4819 -0.4745
 9353SOL    HW228959   5.695   4.177   6.766 -0.4937 -1.7154  1.4233
 9354SOL     OW28960   2.311   2.578   3.675 -0.4314 -0.6147 -0.1533
 9354SOL    HW128961   2.257   2.649   3.629 -2.8796 -1.7864  0.7743
 9354SOL    HW228962   2.343   2.613   3.763  0.3238  0.0651 -0.6808
 9355SOL     OW28963   4.278   5.895   0.048  0.5874  0.2687  0.2342
 9355SOL    HW128964   4.267   5.798   0.027  0.4034  0.2879  0.2430
 9355SOL    HW228965   4.369   5.924   0.021  0.6569  0.0843  0.2647
 9356SOL     OW28966   1.579   6.332   4.710  0.4355 -0.0569  0.2659
 9356SOL    HW128967   1.658   6.347   4.650  0.7602 -0.3553  0.6072
 9356SOL    HW228968   1.509   6.400   4.691  1.0230  0.5889  0.3617
 9357SOL     OW28969   2.889   5.816   0.451 -0.4748  0.1373 -0.0974
 9357SOL    HW128970   2.863   5.721   0.434 -1.1060  0.5317 -1.4570
 9357SOL    HW228971   2.978   5.818   0.498  0.3188 -1.1039 -1.4696
 9358SOL     OW28972   3.405   1.367   0.535 -0.4304 -0.0894  0.1165
 9358SOL    HW128973   3.479   1.312   0.496  1.1375  2.4059 -0.7263
 9358SOL    HW228974   3.435   1.407   0.622 -1.0868  0.3087  0.1706
 9359SOL     OW28975   1.798   6.306   1.900 -0.0143  0.4679  0.2125
 9359SOL    HW128976   1.836   6.330   1.812 -1.7800  1.0118 -0.4549
 9359SOL    HW228977   1.749   6.219   1.893 -0.5937  0.7599  0.5010
 9360SOL     OW28978   4.758   5.228   4.061 -0.2342 -0.4094 -0.2796
 9360SOL    HW128979   4.784   5.224   3.964 -0.8270 -2.6786 -0.3981
 9360SOL    HW228980   4.836   5.259   4.115  0.4117 -0.0393 -1.3838
 9361SOL     OW28981   1.015   2.989   5.100  0.1602 -0.3742 -0.0509
 9361SOL    HW128982   0.989   2.994   5.197  0.4195 -0.9831  0.0531
 9361SOL    HW228983   1.107   3.027   5.088  0.6730 -1.5262  0.1624
 9362SOL     OW28984   6.561   1.406   6.823  0.8781 -0.4160  0.0797
 9362SOL    HW128985   6.624   1.479   6.848  0.0489  1.0659 -1.8565
 9362SOL    HW228986   6.591   1.364   6.737 -0.3499 -0.1979 -0.4738
 9363SOL     OW28987   4.493   2.469   1.129  0.8140 -0.0629  0.2653
 9363SOL    HW128988   4.506   2.455   1.227  0.4563 -2.4471  0.0351
 9363SOL    HW228989   4.557   2.411   1.078 -0.8745 -1.0087 -0.8685
 9364SOL     OW28990   3.047   4.587   5.855 -0.0319 -0.0425 -0.3249
 9364SOL    HW128991   2.961   4.562   5.811  0.4012 -0.8061 -0.7575
 9364SOL    HW228992   3.076   4.677   5.821  0.1969 -0.5268 -1.4716
 9365SOL     OW28993   1.508   3.879   2.891 -0.1098  0.0817 -0.4434
 9365SOL    HW128994   1.457   3.908   2.810 -1.2209 -1.1448 -0.1956
 9365SOL    HW228995   1.547   3.789   2.876  1.0710  0.5258 -0.1989
 9366SOL     OW28996   2.154   0.924   2.656  0.3689  0.8167  0.1765
 9366SOL    HW128997   2.188   0.923   2.750  0.1910  0.6481  0.2408
 9366SOL    HW228998   2.228   0.949   2.594  1.0861 -1.1756  0.1372
 9367SOL     OW28999   3.377   5.579   1.919  0.2768  0.0227  0.6390
 9367SOL    HW129000   3.314   5.502   1.920  0.0322  0.2259  1.4830
 9367SOL    HW229001   3.427   5.580   1.832 -1.0003 -0.0422 -0.1217
 9368SOL     OW29002   2.719   0.694   5.601  0.2733 -0.6591  0.0752
 9368SOL    HW129003   2.657   0.689   5.679 -0.5924 -1.4679 -0.6328
 9368SOL    HW229004   2.715   0.785   5.560  0.8869 -0.1664  1.0773
 9369SOL     OW29005   6.623   3.079   2.095 -0.0147 -0.0112  0.1735
 9369SOL    HW129006   6.703   3.052   2.148 -0.0977 -0.1012  0.2536
 9369SOL    HW229007   6.577   3.156   2.141  0.7528  0.8999 -0.5419
 9370SOL     OW29008   2.675   6.374   1.639  0.1162  0.8888 -0.0682
 9370SOL    HW129009   2.733   6.342   1.563  0.2872  0.2403  0.3322
 9370SOL    HW229010   2.587   6.405   1.603 -0.2922 -0.5866 -0.4223
 9371SOL     OW29011   3.332   3.560   3.182 -0.3989  0.4151 -0.9125
 9371SOL    HW129012   3.345   3.542   3.084  0.8875 -0.9162 -0.5266
 9371SOL    HW229013   3.235   3.557   3.204 -0.6453 -0.0866 -2.0017
 9372SOL     OW29014   4.669   6.517   3.067  0.4991 -0.4843  0.1304
 9372SOL    HW129015   4.646   6.606   3.028  1.2583  0.0822  0.9172
 9372SOL    HW229016   4.661   6.447   2.997 -1.7419 -0.0764 -0.0914
 9373SOL     OW29017   3.146   6.222   2.206  0.2104 -0.0472 -0.1250
 9373SOL    HW129018   3.056   6.265   2.220  0.5351  0.9057 -0.8349
 9373SOL    HW229019   3.185   6.256   2.121  0.5871 -1.6146 -0.6042
 9374SOL     OW29020   0.138   1.675   2.331 -1.0317  0.6481 -0.2483
 9374SOL    HW129021   0.199   1.748   2.300  2.2578 -1.5114  0.6852
 9374SOL    HW229022   0.104   1.697   2.423  0.4622  0.7440  0.3023
 9375SOL     OW29023   4.004   3.886   5.200 -0.1678 -0.1239  0.5590
 9375SOL    HW129024   4.056   3.824   5.141 -0.4024 -0.1013  0.3270
 9375SOL    HW229025   4.043   3.885   5.292  1.0518  0.8807  0.0779
 9376SOL     OW29026   4.287   3.420   1.473  0.2324  0.3506 -0.2201
 9376SOL    HW129027   4.197   3.455   1.499  1.0164  0.8399  2.0399
 9376SOL    HW229028   4.336   3.489   1.420  0.5031  1.4026  1.3656
 9377SOL     OW29029   5.757   2.418   6.363 -0.4243  0.1509  0.2334
 9377SOL    HW129030   5.723   2.344   6.420  2.4230 -0.6618  1.0070
 9377SOL    HW229031   5.716   2.411   6.271 -1.0653 -1.6574  0.6204
 9378SOL     OW29032   2.053   4.449   1.066  0.2698  0.1294  0.0261
 9378SOL    HW129033   1.992   4.498   1.128 -0.0314 -0.7286  0.4056
 9378SOL    HW229034   2.024   4.466   0.971 -0.5947 -0.3262  0.2073
 9379SOL     OW29035   0.940   0.685   4.356  0.4404  0.0382  0.0518
 9379SOL    HW129036   0.940   0.626   4.437  2.3509  0.3112  0.2891
 9379SOL    HW229037   0.964   0.630   4.275 -1.7126 -0.2900 -0.4322
 9380SOL     OW29038   2.286   4.647   6.013  0.1149 -0.1586 -0.0810
 9380SOL    HW129039   2.211   4.594   5.973 -1.5996  1.5637  0.6839
 9380SOL    HW229040   2.299   4.732   5.962  0.5759  0.2297  0.6516
 9381SOL     OW29041   1.843   3.324   0.907 -0.4011  0.4840  0.1865
 9381SOL    HW129042   1.849   3.302   1.005 -1.1555  2.2177  0.6430
 9381SOL    HW229043   1.842   3.423   0.895  0.4996  0.3112 -1.6521
 9382SOL     OW29044   5.105   0.671   5.406  0.1753  0.3034  0.6808
 9382SOL    HW129045   5.107   0.624   5.318  0.9632  0.5306  0.5650
 9382SOL    HW229046   5.196   0.665   5.448 -0.0316  0.7279  1.1939
 9383SOL     OW29047   1.507   2.628   5.464  0.1402  0.1182  0.0056
 9383SOL    HW129048   1.413   2.597   5.477  0.1959 -0.9167 -1.8001
 9383SOL    HW229049   1.507   2.715   5.415  0.1127  1.2463  1.8801
 9384SOL     OW29050   1.505   6.754   4.522  0.0716 -0.8105 -0.1467
 9384SOL    HW129051   1.491   6.658   4.499  1.4514 -0.7298 -1.4889
 9384SOL    HW229052   1.448   6.811   4.462  0.7002 -0.7296 -0.6693
 9385SOL     OW29053   2.233   1.831   5.785 -0.4776 -0.7047 -0.0824
 9385SOL    HW129054   2.204   1.899   5.716 -0.8485  0.0233  0.7653
 9385SOL    HW229055   2.324   1.797   5.762  0.6894  1.7246  0.6160
 9386SOL     OW29056   0.645   1.497   5.138 -0.6680 -0.2844  0.2155
 9386SOL    HW129057   0.619   1.403   5.117  0.4147 -0.4441 -0.4910
 9386SOL    HW229058   0.622   1.557   5.062 -1.0067 -0.0293  0.5104
 9387SOL     OW29059   4.962   2.341   1.385 -0.5146  0.2624  0.3109
 9387SOL    HW129060   4.954   2.343   1.484 -2.1813 -1.0480  0.2457
 9387SOL    HW229061   5.013   2.260   1.357  3.3260  2.4673  0.1505
 9388SOL     OW29062   2.380   1.362   6.878 -1.2433 -0.4787  0.3013
 9388SOL    HW129063   2.400   1.457   6.853 -0.2950 -0.6370  0.3931
 9388SOL    HW229064   2.340   1.358   6.969 -1.1489 -0.1755  0.3550
 9389SOL     OW29065   4.724   1.710   5.140 -0.0943  0.6587 -0.2058
 9389SOL    HW129066   4.766   1.737   5.053  1.0582  1.4098  0.5365
 9389SOL    HW229067   4.775   1.753   5.215 -1.5564  0.6896  0.8074
 9390SOL     OW29068   4.798   0.645   5.795  0.0104  0.2441 -0.0018
 9390SOL    HW129069   4.723   0.701   5.760  1.0196  1.2597 -0.5804
 9390SOL    HW229070   4.864   0.627   5.722  0.1915 -0.9052  0.4235
 9391SOL     OW29071   5.231   5.539   0.814 -0.2524 -0.1865  0.2290
 9391SOL    HW129072   5.243   5.443   0.837  0.4838 -0.2570 -0.3997
 9391SOL    HW229073   5.188   5.587   0.890 -4.7571 -1.8561 -0.9442
 9392SOL     OW29074   5.678   5.704   6.572 -0.6181  0.0953  0.2370
 9392SOL    HW129075   5.718   5.771   6.634 -0.2330  0.2680 -0.1896
 9392SOL    HW229076   5.747   5.635   6.547 -0.3087  0.8776 -1.1746
 9393SOL     OW29077   6.363   3.696   5.280  0.4214 -0.3168 -0.0060
 9393SOL    HW129078   6.313   3.609   5.273 -0.1348  0.0873 -1.4819
 9393SOL    HW229079   6.396   3.708   5.374  0.3939 -2.0467  0.2565
 9394SOL     OW29080   6.280   4.689   2.789 -0.4880 -0.0435 -0.4518
 9394SOL    HW129081   6.229   4.693   2.704 -1.6487 -1.4967  0.1405
 9394SOL    HW229082   6.224   4.646   2.860  0.2783  1.5057  1.1867
 9395SOL     OW29083   2.810   1.932   2.950  0.1993 -0.1723  0.0276
 9395SOL    HW129084   2.780   1.943   2.855 -2.7590  0.1553  0.9020
 9395SOL    HW229085   2.823   2.022   2.992  1.8474 -0.3134 -0.1201
 9396SOL     OW29086   0.129   1.875   4.152  0.1541  0.6193 -0.3117
 9396SOL    HW129087   0.127   1.865   4.053  1.6336  2.2027 -0.5489
 9396SOL    HW229088   0.220   1.853   4.187 -0.2829  0.3047  0.6736
 9397SOL     OW29089   0.709   4.231   2.263 -0.3955 -0.1772  0.1530
 9397SOL    HW129090   0.733   4.134   2.259 -0.9852 -0.2642 -1.7617
 9397SOL    HW229091   0.729   4.266   2.355  3.3115 -1.2002 -0.0883
 9398SOL     OW29092   5.594   4.332   6.488 -0.4187  0.3772 -0.0890
 9398SOL    HW129093   5.639   4.411   6.529 -0.9312  1.0107 -0.7321
 9398SOL    HW229094   5.575   4.264   6.560  1.8238 -0.0729  0.1573
 9399SOL     OW29095   5.374   3.084   1.678 -0.1087  0.2217  0.5722
 9399SOL    HW129096   5.453   3.030   1.709  0.9427  1.6399  0.5012
 9399SOL    HW229097   5.372   3.171   1.729 -2.1658 -0.1577  1.1918
 9400SOL     OW29098   3.011   0.013   3.299  0.3225 -0.0549 -0.2295
 9400SOL    HW129099   3.028   0.068   3.217 -3.5882  0.3258 -0.9794
 9400SOL    HW229100   2.962   0.068   3.367  0.8894 -1.2300  1.2007
 9401SOL     OW29101   6.416   6.961   3.284  0.8013 -0.1458  0.2637
 9401SOL    HW129102   6.361   7.043   3.296  1.8947  0.4919  1.1897
 9401SOL    HW229103   6.497   6.967   3.343  1.1077 -1.7081  0.0456
 9402SOL     OW29104   4.512   2.346   5.562  0.1377  0.0181 -0.1497
 9402SOL    HW129105   4.433   2.356   5.501 -1.2245  1.6128  1.6964
 9402SOL    HW229106   4.492   2.394   5.648  2.1557 -1.6613  1.3440
 9403SOL     OW29107   0.073   3.985   3.895 -0.2005  0.6158 -0.1292
 9403SOL    HW129108   0.082   4.054   3.822  0.5412 -0.6304 -1.2650
 9403SOL    HW229109  -0.011   3.934   3.882 -0.0645  0.3880 -0.1096
 9404SOL     OW29110   3.362   4.086   5.567 -0.9029 -0.3851  0.7700
 9404SOL    HW129111   3.384   4.184   5.576  2.4361 -0.9888  0.6083
 9404SOL    HW229112   3.337   4.049   5.657 -2.4202  0.6183  0.7945
 9405SOL     OW29113   4.852   6.932   5.009 -0.0177 -0.4024  0.0884
 9405SOL    HW129114   4.891   6.893   4.926 -3.2076 -0.2694 -1.6143
 9405SOL    HW229115   4.880   7.028   5.017  1.4781 -0.8072  0.0120
 9406SOL     OW29116   2.082   6.449   4.280  0.0756  0.3343  0.1887
 9406SOL    HW129117   2.026   6.519   4.325  0.5744  0.6501  0.3330
 9406SOL    HW229118   2.085   6.367   4.337 -0.9705 -0.0089 -0.2468
 9407SOL     OW29119   6.374   1.309   2.696  0.0125 -0.2309 -0.5765
 9407SOL    HW129120   6.403   1.222   2.736 -2.7695 -0.6880  0.7333
 9407SOL    HW229121   6.310   1.292   2.621  0.0504  0.7057 -0.8389
 9408SOL     OW29122   0.128   6.992   5.100  0.1687 -0.0039  0.2654
 9408SOL    HW129123   0.180   7.009   5.183  1.4535 -1.1503 -0.2622
 9408SOL    HW229124   0.092   6.899   5.102 -0.4704  0.2311 -0.1126
 9409SOL     OW29125   3.937   0.688   4.852 -0.6807  0.1154 -0.4566
 9409SOL    HW129126   4.001   0.667   4.926 -0.6267 -0.1474 -0.5750
 9409SOL    HW229127   3.847   0.709   4.891 -0.4331  0.8602 -0.2680
 9410SOL     OW29128   3.597   2.755   5.872  0.5393 -0.0365 -0.0843
 9410SOL    HW129129   3.566   2.841   5.830  1.4220 -0.2282 -1.1545
 9410SOL    HW229130   3.589   2.763   5.972  1.1949  1.5389 -0.1152
 9411SOL     OW29131   5.010   1.272   6.095  0.2814  0.1722  0.2125
 9411SOL    HW129132   5.019   1.223   6.009  1.7154  0.9030 -0.0897
 9411SOL    HW229133   5.083   1.340   6.103 -1.1260  1.6932  0.9842
 9412SOL     OW29134   2.156   5.543   2.064 -0.5006 -0.3628  0.0216
 9412SOL    HW129135   2.188   5.501   1.979  0.3428  3.3312 -1.7109
 9412SOL    HW229136   2.215   5.620   2.087 -1.8515 -0.0663  2.9648
 9413SOL     OW29137   3.314   2.887   2.964 -0.0259 -0.1261  0.4481
 9413SOL    HW129138   3.269   2.833   2.894 -2.6301  0.1835  1.7674
 9413SOL    HW229139   3.273   2.978   2.968  1.5618  0.6060  0.9321
 9414SOL     OW29140   6.779   2.540   6.046 -0.4217  0.1024 -0.0343
 9414SOL    HW129141   6.700   2.601   6.046 -0.6805 -0.1940 -1.5071
 9414SOL    HW229142   6.774   2.479   6.125 -0.7599  1.2093  0.8174
 9415SOL     OW29143   4.515   4.763   4.431 -0.1131 -0.1974 -0.1861
 9415SOL    HW129144   4.587   4.718   4.377  1.3540  2.3230 -0.4988
 9415SOL    HW229145   4.557   4.824   4.498 -1.9828  0.7472  0.1920
 9416SOL     OW29146   5.123   6.943   1.667  0.6185  0.3463 -0.2030
 9416SOL    HW129147   5.059   6.979   1.734  0.5967  0.7677 -0.4476
 9416SOL    HW229148   5.148   6.849   1.691 -0.5709 -0.0519 -0.4481
 9417SOL     OW29149   5.333   6.381   1.571  0.1663  0.3781 -0.7812
 9417SOL    HW129150   5.402   6.327   1.619 -1.2009 -1.4813 -0.7635
 9417SOL    HW229151   5.244   6.367   1.614 -0.6166  0.8865 -2.1624
 9418SOL     OW29152   1.338   4.895   3.122  0.2003 -0.5686 -0.2354
 9418SOL    HW129153   1.324   4.917   3.025  2.2257 -1.4871 -0.8137
 9418SOL    HW229154   1.302   4.804   3.141 -0.9926 -0.0396  0.1303
 9419SOL     OW29155   1.245   2.529   1.117 -0.8712  0.1238  0.2930
 9419SOL    HW129156   1.150   2.508   1.094 -0.8685  1.7690 -1.4920
 9419SOL    HW229157   1.247   2.603   1.185 -0.8718 -0.2243  0.6708
 9420SOL     OW29158   4.491   5.739   3.934  0.3095 -0.3244 -0.3157
 9420SOL    HW129159   4.503   5.731   3.835  0.2811  3.7907 -0.8246
 9420SOL    HW229160   4.404   5.784   3.954  0.1718 -1.3434  1.6285
 9421SOL     OW29161   6.850   1.573   1.394  0.0846 -0.0233  0.1059
 9421SOL    HW129162   6.911   1.650   1.374  1.9219 -0.3329  3.7172
 9421SOL    HW229163   6.902   1.488   1.394 -1.1818 -0.8317 -0.3365
 9422SOL     OW29164   3.401   0.321   3.566  0.0657  0.3948  0.0084
 9422SOL    HW129165   3.379   0.336   3.662 -1.7958 -1.1563 -0.1112
 9422SOL    HW229166   3.499   0.302   3.556 -0.0281 -1.3184  1.8742
 9423SOL     OW29167   2.126   2.802   4.496 -0.2831  0.1806  0.0746
 9423SOL    HW129168   2.204   2.791   4.557 -0.8994 -1.6586  0.5937
 9423SOL    HW229169   2.144   2.877   4.432  0.0641  2.7823  2.9819
 9424SOL     OW29170   5.422   1.600   1.643 -0.2258 -0.0585 -0.2377
 9424SOL    HW129171   5.470   1.537   1.704  0.8828  0.2417 -0.7780
 9424SOL    HW229172   5.326   1.607   1.671  0.3033  0.2537  1.6030
 9425SOL     OW29173   6.996   6.540   1.171 -0.1623 -0.3346  0.0093
 9425SOL    HW129174   6.913   6.595   1.163 -0.9361 -1.6264 -1.4604
 9425SOL    HW229175   7.076   6.597   1.152 -0.8958  0.3942 -0.9639
 9426SOL     OW29176   0.429   1.494   6.755 -0.6471  0.1264  0.1435
 9426SOL    HW129177   0.449   1.420   6.819 -0.7849  0.9311  1.1398
 9426SOL    HW229178   0.336   1.528   6.772 -0.7891  0.1706 -0.6744
 9427SOL     OW29179   1.530   3.526   1.900  0.3328  0.4587 -0.1672
 9427SOL    HW129180   1.484   3.559   1.818 -1.4450 -2.4608 -0.5114
 9427SOL    HW229181   1.481   3.557   1.981  0.4208  1.0476 -0.3405
 9428SOL     OW29182   1.272   0.160   3.282  0.1092 -0.0332  0.3038
 9428SOL    HW129183   1.199   0.128   3.221 -0.5790 -0.0821  1.1382
 9428SOL    HW229184   1.232   0.209   3.359  0.9361 -0.3286  0.9319
 9429SOL     OW29185   2.113   5.729   1.821 -0.6175 -0.0303  0.0883
 9429SOL    HW129186   2.063   5.646   1.844 -0.3208 -0.2424 -0.0299
 9429SOL    HW229187   2.200   5.705   1.778 -0.9451  0.3474 -0.8250
 9430SOL     OW29188   1.960   2.900   0.048  1.2687 -0.2362  0.2314
 9430SOL    HW129189   1.913   2.822   0.090  0.9429 -0.7377 -1.0172
 9430SOL    HW229190   1.985   2.965   0.119  0.3697 -0.8548  1.1567
 9431SOL     OW29191   3.850   4.340   6.006  0.6837  0.2979  0.3705
 9431SOL    HW129192   3.788   4.389   5.945 -1.4245 -3.2669 -0.5868
 9431SOL    HW229193   3.802   4.316   6.090  1.5243 -0.4831  0.6463
 9432SOL     OW29194   2.467   1.746   3.014  0.5271  0.2771  0.0696
 9432SOL    HW129195   2.408   1.824   2.991  0.2544  0.1548  0.3422
 9432SOL    HW229196   2.412   1.676   3.060 -0.0867 -1.6541 -3.2576
 9433SOL     OW29197   6.508   5.249   1.053 -0.1405  0.5141  0.2313
 9433SOL    HW129198   6.441   5.268   1.125 -0.1251  0.9296  0.1402
 9433SOL    HW229199   6.564   5.330   1.038 -0.5394  0.6409 -0.6649
 9434SOL     OW29200   6.031   6.264   0.617  0.3345  1.0818  0.0892
 9434SOL    HW129201   6.059   6.350   0.574  1.8491  1.0092  0.8357
 9434SOL    HW229202   6.108   6.199   0.615 -0.4016  0.1679  0.5805
 9435SOL     OW29203   5.619   2.896   4.489 -0.5517 -0.6112 -0.6337
 9435SOL    HW129204   5.536   2.863   4.443 -1.7707  0.0029  1.0118
 9435SOL    HW229205   5.656   2.974   4.438 -1.5755 -0.2519 -0.8615
 9436SOL     OW29206   2.340   6.893   1.686  0.3637  0.6054  0.6068
 9436SOL    HW129207   2.420   6.878   1.629 -1.6862  0.9625 -2.6200
 9436SOL    HW229208   2.360   6.863   1.780  4.5224  1.7225  0.2612
 9437SOL     OW29209   3.487   5.696   2.503  0.2965 -0.2745 -0.2103
 9437SOL    HW129210   3.586   5.705   2.491  0.6724  0.2260  2.6254
 9437SOL    HW229211   3.468   5.642   2.585 -1.7826  0.5072 -0.1128
 9438SOL     OW29212   6.850   4.328   4.918 -0.4784 -0.3020 -0.1501
 9438SOL    HW129213   6.804   4.290   4.999 -0.0671 -2.6306 -0.9352
 9438SOL    HW229214   6.840   4.264   4.842 -0.8693  1.8432 -1.9967
 9439SOL     OW29215   0.369   5.260   0.737 -0.5177 -0.1101  0.0779
 9439SOL    HW129216   0.359   5.262   0.637  1.5338  1.2573 -0.1565
 9439SOL    HW229217   0.372   5.354   0.772 -1.0324 -0.5729  1.4229
 9440SOL     OW29218   4.529   5.702   5.531  0.2802 -0.0382 -0.4830
 9440SOL    HW129219   4.506   5.616   5.577 -1.8742 -0.2957 -1.8854
 9440SOL    HW229220   4.466   5.774   5.561  0.5318  0.4421 -1.0760
 9441SOL     OW29221   3.771   0.778   5.700 -0.0456  0.2701  0.3178
 9441SOL    HW129222   3.744   0.837   5.624  0.6223  1.1609  0.7481
 9441SOL    HW229223   3.744   0.822   5.786  0.3595 -0.1137  0.6435
 9442SOL     OW29224   1.375   4.788   4.460  0.3897 -0.1891 -0.2439
 9442SOL    HW129225   1.451   4.725   4.444 -0.7413 -1.7284  0.2407
 9442SOL    HW229226   1.374   4.814   4.557  1.3023  1.2504 -0.5735
 9443SOL     OW29227   2.272   2.405   6.589 -0.2791  0.5765  0.5535
 9443SOL    HW129228   2.204   2.452   6.645 -1.4994  0.7230 -0.9675
 9443SOL    HW229229   2.226   2.363   6.510  1.1077 -1.1590  0.6133
 9444SOL     OW29230   5.590   0.512   4.804 -0.5551  0.0008  0.2483
 9444SOL    HW129231   5.570   0.605   4.833  1.1445 -0.0049  1.5818
 9444SOL    HW229232   5.566   0.448   4.877  0.4955 -0.3563  0.3004
 9445SOL     OW29233   1.874   6.345   0.770  0.4129  0.4074 -0.7404
 9445SOL    HW129234   1.858   6.411   0.844  0.7636 -3.0360  2.7021
 9445SOL    HW229235   1.935   6.386   0.702  1.8396  3.1480  1.9441
 9446SOL     OW29236   0.238   5.427   2.684  0.7556  0.4126  0.1446
 9446SOL    HW129237   0.204   5.411   2.591 -1.2540 -1.0841  1.0592
 9446SOL    HW229238   0.277   5.343   2.720 -1.2203  0.0744  1.6631
 9447SOL     OW29239   6.344   1.493   5.027  0.5331 -0.3199 -0.1171
 9447SOL    HW129240   6.326   1.398   4.997  1.1613 -0.1931 -0.9440
 9447SOL    HW229241   6.258   1.536   5.053  0.2518 -1.1546  0.3823
 9448SOL     OW29242   6.568   6.473   0.856 -0.1692 -0.2154 -0.1525
 9448SOL    HW129243   6.533   6.539   0.789  0.6188  0.6259  0.2366
 9448SOL    HW229244   6.660   6.444   0.829  0.4093  0.6202  0.8880
 9449SOL     OW29245   1.765   6.403   4.518  0.0877 -0.5399 -0.5410
 9449SOL    HW129246   1.755   6.436   4.424 -2.1106  1.2637  0.2200
 9449SOL    HW229247   1.830   6.327   4.520 -1.1470 -1.8888 -3.8000
 9450SOL     OW29248   3.174   4.489   1.053  0.9935  0.0623 -0.0311
 9450SOL    HW129249   3.247   4.459   1.114  1.3610 -2.0264 -1.3699
 9450SOL    HW229250   3.087   4.450   1.085  0.6668  1.3811  0.7599
 9451SOL     OW29251   3.936   3.890   3.115  0.2950  0.7762  0.3355
 9451SOL    HW129252   4.008   3.838   3.160  1.0394  1.9941  0.5940
 9451SOL    HW229253   3.949   3.886   3.016 -0.2553 -0.3651  0.3019
 9452SOL     OW29254   2.655   0.593   6.340  0.1016  0.4652  0.0406
 9452SOL    HW129255   2.594   0.601   6.261  1.7132 -0.7596 -1.3957
 9452SOL    HW229256   2.628   0.513   6.394  0.1330  0.2160 -0.3098
 9453SOL     OW29257   1.277   1.466   2.745  0.2787  0.0867 -0.3335
 9453SOL    HW129258   1.269   1.531   2.821  1.8403  0.0258 -0.0865
 9453SOL    HW229259   1.237   1.507   2.663 -0.7273  0.4654  0.3266
 9454SOL     OW29260   4.035   2.795   6.963 -0.0422 -0.3235 -0.7842
 9454SOL    HW129261   4.075   2.887   6.966 -1.4584  0.3528 -1.5662
 9454SOL    HW229262   4.095   2.735   6.910  0.4032  0.4097 -1.1332
 9455SOL     OW29263   4.396   1.716   2.361 -0.2691  0.1076  0.1606
 9455SOL    HW129264   4.371   1.808   2.331  0.2411  0.7005  1.4365
 9455SOL    HW229265   4.316   1.656   2.356 -1.4622  1.4078  2.1657
 9456SOL     OW29266   4.807   1.571   1.733  0.5619  0.7241  0.3035
 9456SOL    HW129267   4.714   1.553   1.700  0.5327  1.0954  0.1804
 9456SOL    HW229268   4.870   1.577   1.655  0.9892 -1.1757  0.4648
 9457SOL     OW29269   1.619   2.044   3.566 -0.1179  0.0400  0.5377
 9457SOL    HW129270   1.531   1.998   3.579  0.0155 -0.4741 -0.2806
 9457SOL    HW229271   1.645   2.039   3.470 -0.2095  2.0881  0.3619
 9458SOL     OW29272   3.482   2.682   1.281 -0.0862 -0.0077  0.6545
 9458SOL    HW129273   3.440   2.721   1.363  1.3997  1.1391  0.9044
 9458SOL    HW229274   3.558   2.739   1.252 -0.4232 -0.5400 -1.4036
 9459SOL     OW29275   5.011   0.328   1.484  0.5017  0.0279  0.2430
 9459SOL    HW129276   5.044   0.412   1.442  1.5638 -0.5684 -0.1345
 9459SOL    HW229277   5.052   0.249   1.440 -2.6158 -0.8798 -1.3594
 9460SOL     OW29278   1.489   3.523   1.186 -0.3667 -0.0904  0.1793
 9460SOL    HW129279   1.449   3.601   1.137 -0.7055 -0.3944 -0.0298
 9460SOL    HW229280   1.561   3.482   1.130 -0.3773 -0.0981  0.1713
 9461SOL     OW29281   0.378   0.087   2.359 -0.8771 -0.0902  0.8140
 9461SOL    HW129282   0.399  -0.011   2.371  0.3767  0.1906  1.1306
 9461SOL    HW229283   0.306   0.098   2.292 -0.9580 -1.2359  0.6918
 9462SOL     OW29284   3.681   3.359   6.691 -0.0699 -0.5248 -0.0598
 9462SOL    HW129285   3.649   3.412   6.769 -0.5829 -0.5526 -0.2534
 9462SOL    HW229286   3.746   3.289   6.722  0.9052  0.4512  0.1559
 9463SOL     OW29287   1.669   0.368   6.653 -0.0200  0.2988 -0.2985
 9463SOL    HW129288   1.613   0.396   6.575  0.3287  0.7147 -0.4023
 9463SOL    HW229289   1.610   0.326   6.723 -0.7189  2.1412  0.2773
 9464SOL     OW29290   3.354   3.234   4.145  0.3913  0.3389 -0.0102
 9464SOL    HW129291   3.382   3.194   4.232 -0.9046 -0.6715 -0.0211
 9464SOL    HW229292   3.307   3.320   4.161  1.1288  0.7079  0.1983
 9465SOL     OW29293   1.100   5.132   5.609  0.3120 -0.2904 -0.0923
 9465SOL    HW129294   1.037   5.193   5.560 -0.3906 -1.0944 -0.2136
 9465SOL    HW229295   1.088   5.039   5.575  2.0686 -0.3642 -0.6156
 9466SOL     OW29296   1.888   3.711   4.626 -0.5981  0.1155 -0.4608
 9466SOL    HW129297   1.854   3.661   4.705  1.4083 -1.6987 -0.6907
 9466SOL    HW229298   1.902   3.807   4.651 -0.2483 -0.3665  1.2873
 9467SOL     OW29299   3.572   6.226   2.385  0.3045 -0.1145  0.7887
 9467SOL    HW129300   3.641   6.159   2.415 -0.1171 -1.9432 -1.9144
 9467SOL    HW229301   3.512   6.183   2.317 -0.4118  2.8756 -0.6184
 9468SOL     OW29302   6.479   5.087   5.613  0.1518 -0.6949  0.5560
 9468SOL    HW129303   6.506   5.154   5.544 -1.2913 -0.0351  0.6054
 9468SOL    HW229304   6.526   5.107   5.699  0.7312 -0.5531  0.2112
 9469SOL     OW29305   6.677   0.488   0.887 -0.6472  0.2280 -0.8970
 9469SOL    HW129306   6.748   0.535   0.835  1.9073 -3.4425 -1.1399
 9469SOL    HW229307   6.618   0.436   0.825 -0.9363 -0.0217 -0.4285
 9470SOL     OW29308   5.497   3.940   3.905  0.1447 -0.5525  0.0688
 9470SOL    HW129309   5.497   3.909   4.001 -1.9045  0.5430  0.4726
 9470SOL    HW229310   5.416   3.904   3.858  0.1974  0.3709 -0.7497
 9471SOL     OW29311   0.475   2.451   1.786  0.0266 -0.3204  0.4110
 9471SOL    HW129312   0.566   2.435   1.823  0.2007  0.6919  0.4443
 9471SOL    HW229313   0.439   2.366   1.748  0.3165 -1.1252  1.8684
 9472SOL     OW29314   2.637   2.172   4.273 -0.6830 -0.3110 -0.0991
 9472SOL    HW129315   2.538   2.180   4.282 -0.6611  0.2417 -0.2997
 9472SOL    HW229316   2.659   2.109   4.198 -0.8735 -1.2977  0.6597
 9473SOL     OW29317   2.368   1.476   5.918  0.2809  0.7833 -0.0821
 9473SOL    HW129318   2.436   1.455   5.988  1.1782  0.1157 -1.1139
 9473SOL    HW229319   2.414   1.508   5.836 -0.6348  0.1582 -0.8664
 9474SOL     OW29320   1.878   2.110   5.479 -0.1877 -0.1593 -0.0903
 9474SOL    HW129321   1.841   2.058   5.402  1.0954 -2.2208  0.6036
 9474SOL    HW229322   1.831   2.083   5.563  1.4047 -1.2920  0.4837
 9475SOL     OW29323   3.905   2.402   5.359  0.5152  0.2975 -0.5824
 9475SOL    HW129324   3.988   2.422   5.306  0.3189 -0.1523 -1.0687
 9475SOL    HW229325   3.905   2.456   5.442  0.7632  1.1228 -1.1103
 9476SOL     OW29326   4.741   1.311   5.028  0.4156 -0.2846 -0.2641
 9476SOL    HW129327   4.785   1.282   4.944 -1.6719 -2.1320 -0.8195
 9476SOL    HW229328   4.649   1.344   5.008  0.4588  0.7859  1.1329
 9477SOL     OW29329   3.121   5.071   0.047  0.4720 -0.2706  1.1824
 9477SOL    HW129330   3.079   4.998  -0.007 -0.6311  0.2946  1.2487
 9477SOL    HW229331   3.057   5.102   0.117  1.0722  0.5038  1.4038
 9478SOL     OW29332   5.751   4.514   6.269  0.2562 -0.1965  0.3881
 9478SOL    HW129333   5.686   4.443   6.241 -1.5196  1.6907 -0.5567
 9478SOL    HW229334   5.815   4.531   6.194  0.3760 -0.4522  0.4302
 9479SOL     OW29335   4.064   1.987   5.723  0.1379 -0.1384 -0.1662
 9479SOL    HW129336   4.151   1.955   5.760 -0.1858  0.8331  1.5281
 9479SOL    HW229337   4.067   2.086   5.710 -1.1810  0.1520  1.3748
 9480SOL     OW29338   3.563   6.357   1.603  0.2429 -0.1769  0.1687
 9480SOL    HW129339   3.591   6.438   1.550  0.8263 -1.0930 -0.9715
 9480SOL    HW229340   3.514   6.386   1.685  1.2013  1.3648  0.2315
 9481SOL     OW29341   3.877   5.929   0.051  0.2934 -0.0121  0.4847
 9481SOL    HW129342   3.976   5.915   0.039  0.4854  0.7817  1.0785
 9481SOL    HW229343   3.828   5.863  -0.006  1.1588 -0.6938  0.4898
 9482SOL     OW29344   2.145   0.625   2.732 -0.1454  0.3511 -0.3950
 9482SOL    HW129345   2.142   0.691   2.657  0.2003  0.9296  0.0907
 9482SOL    HW229346   2.166   0.534   2.696 -1.2619  0.3682 -1.1506
 9483SOL     OW29347   6.282   5.238   3.884 -0.1230  0.2462 -0.3361
 9483SOL    HW129348   6.245   5.258   3.793 -0.6771  0.4261 -0.0731
 9483SOL    HW229349   6.249   5.306   3.949  1.9023  1.3631 -0.3739
 9484SOL     OW29350   3.964   6.331   0.405 -0.1076 -0.1262  0.0194
 9484SOL    HW129351   4.005   6.421   0.415  0.7361 -0.3159 -1.4288
 9484SOL    HW229352   3.884   6.337   0.345  0.8363 -0.5350 -1.3374
 9485SOL     OW29353   3.101   3.153   4.757  0.2585  0.2229 -0.1716
 9485SOL    HW129354   3.105   3.120   4.851 -0.7848  3.6505  1.2091
 9485SOL    HW229355   3.032   3.224   4.749  1.4370  1.2001 -3.1600
 9486SOL     OW29356   0.455   1.285   0.661  0.3831  0.3386  0.2411
 9486SOL    HW129357   0.382   1.342   0.698  0.7274  0.4646  0.7298
 9486SOL    HW229358   0.451   1.194   0.702  1.5368  0.8563  1.5555
 9487SOL     OW29359   2.195   0.002   3.775 -0.3592 -0.2972 -0.8761
 9487SOL    HW129360   2.269  -0.001   3.707  0.1412  0.4491 -0.3843
 9487SOL    HW229361   2.201  -0.079   3.834  0.5456  0.1282 -0.3614
 9488SOL     OW29362   3.125   5.537   1.744  0.0675  0.0357 -0.4954
 9488SOL    HW129363   3.121   5.487   1.831  0.6544 -0.9904 -1.0357
 9488SOL    HW229364   3.059   5.612   1.746  0.2500  0.1858  0.9258
 9489SOL     OW29365   5.713   2.956   2.031  0.1229  0.0315  0.1816
 9489SOL    HW129366   5.631   2.986   2.080  1.2803  1.4510  1.3532
 9489SOL    HW229367   5.726   2.858   2.045 -2.2921 -0.6409 -1.5153
 9490SOL     OW29368   3.370   0.830   1.098 -0.4827  0.2332  0.3918
 9490SOL    HW129369   3.284   0.851   1.051 -0.2629 -1.0399 -0.6559
 9490SOL    HW229370   3.374   0.879   1.185 -1.4226  1.7877 -0.3893
 9491SOL     OW29371   5.359   0.993   5.858  0.4298 -0.1547 -0.4265
 9491SOL    HW129372   5.406   0.971   5.771  0.8010  0.4052 -0.3724
 9491SOL    HW229373   5.427   1.019   5.926  0.1955 -1.1566  0.2196
 9492SOL     OW29374   4.572   4.015   0.337  0.0691  0.2843 -0.4466
 9492SOL    HW129375   4.497   4.012   0.403 -1.1799 -1.6449 -1.8645
 9492SOL    HW229376   4.536   4.025   0.245  1.6173  0.2692 -1.0862
 9493SOL     OW29377   4.193   3.089   0.918  0.2963 -0.6234 -0.5014
 9493SOL    HW129378   4.150   3.013   0.871 -2.9485  0.2747  0.7548
 9493SOL    HW229379   4.143   3.173   0.898  2.1603  0.7258  0.2352
 9494SOL     OW29380   0.375   2.024   3.785 -0.2612  0.2336  0.8200
 9494SOL    HW129381   0.441   2.073   3.728  0.7618 -0.4153  1.4255
 9494SOL    HW229382   0.312   1.973   3.726 -0.1646  0.7734  0.2391
 9495SOL     OW29383   6.443   6.857   6.662  0.2093  0.3406  0.3357
 9495SOL    HW129384   6.535   6.873   6.697  0.5236 -2.4149  0.9848
 9495SOL    HW229385   6.376   6.881   6.733  0.5719  0.0793  0.7766
 9496SOL     OW29386   1.935   0.203   5.753 -0.0657  0.5952  0.9898
 9496SOL    HW129387   1.941   0.142   5.674 -0.3666  0.5675  0.9900
 9496SOL    HW229388   1.977   0.159   5.832  1.3237  1.0838  0.5684
 9497SOL     OW29389   3.618   3.568   3.578 -0.0251 -0.6271 -0.3176
 9497SOL    HW129390   3.549   3.497   3.561 -0.4597 -0.5230  0.9580
 9497SOL    HW229391   3.668   3.586   3.493 -0.1121 -2.2355 -0.7438
 9498SOL     OW29392   3.013   6.426   0.871 -1.2165 -0.4026  0.2579
 9498SOL    HW129393   3.011   6.387   0.964 -1.8206 -2.7304 -0.6564
 9498SOL    HW229394   2.970   6.361   0.807  0.7120  0.3666 -1.9411
 9499SOL     OW29395   2.007   1.208   2.127 -0.6464 -0.5129 -0.7931
 9499SOL    HW129396   1.939   1.136   2.127  1.3881 -2.7079  3.1171
 9499SOL    HW229397   1.980   1.280   2.191  0.8989 -1.8427  1.5074
 9500SOL     OW29398   6.817   2.547   3.458  0.2130  0.2353 -0.3283
 9500SOL    HW129399   6.729   2.543   3.507  0.7822 -1.4647  0.6226
 9500SOL    HW229400   6.888   2.504   3.513  1.2381 -0.2531 -1.9689
 9501SOL     OW29401   6.101   5.660   6.510  0.4373  0.9092 -0.2692
 9501SOL    HW129402   6.103   5.682   6.413  2.1052  0.7880 -0.2936
 9501SOL    HW229403   6.032   5.591   6.528  0.9352  0.0395 -1.5847
 9502SOL     OW29404   1.666   1.651   3.384  0.2132 -0.6266 -0.0554
 9502SOL    HW129405   1.616   1.624   3.302  0.5964 -0.4516 -0.3473
 9502SOL    HW229406   1.719   1.573   3.418  1.5368 -0.2191 -1.0549
 9503SOL     OW29407   2.980   3.539   2.364  0.5420  0.4042  0.1542
 9503SOL    HW129408   2.986   3.452   2.412  0.6550  0.2200 -0.1877
 9503SOL    HW229409   2.958   3.612   2.429  0.1602  0.0763  0.3928
 9504SOL     OW29410   4.004   0.594   1.198 -0.6319  0.1427 -0.4534
 9504SOL    HW129411   3.915   0.556   1.174 -0.7533 -0.2128  0.5207
 9504SOL    HW229412   4.049   0.627   1.115 -2.2173  1.5549 -0.8191
 9505SOL     OW29413   5.675   3.843   0.383 -0.7409 -0.4888 -0.0758
 9505SOL    HW129414   5.767   3.827   0.347 -0.2143  0.4720  0.7864
 9505SOL    HW229415   5.680   3.902   0.463 -2.2853  1.5112 -1.3323
 9506SOL     OW29416   2.956   1.330   5.179 -0.0826 -0.3554 -0.6851
 9506SOL    HW129417   2.989   1.410   5.229 -0.9920  0.1600 -0.8940
 9506SOL    HW229418   2.954   1.350   5.081 -0.3167 -0.6309 -0.7390
 9507SOL     OW29419   0.389   3.980   0.053  0.0026  0.5093 -0.3644
 9507SOL    HW129420   0.299   3.941   0.031  0.8787 -2.0794  0.3234
 9507SOL    HW229421   0.441   3.994  -0.030 -0.1910 -0.2094 -0.6145
 9508SOL     OW29422   4.743   0.352   1.506 -0.2694  0.3802  0.2776
 9508SOL    HW129423   4.719   0.449   1.508  1.3159  0.8904 -1.5433
 9508SOL    HW229424   4.843   0.343   1.503 -0.3490 -1.3732  1.5945
 9509SOL     OW29425   1.942   0.009   3.387  0.0409 -0.2599 -0.4071
 9509SOL    HW129426   1.889  -0.023   3.309  1.1305 -0.6907 -0.9865
 9509SOL    HW229427   2.039  -0.012   3.373  0.6707  2.2095 -0.2817
 9510SOL     OW29428   6.208   6.854   6.431  0.0125 -0.0581 -0.2366
 9510SOL    HW129429   6.175   6.947   6.419 -1.5153 -0.5788 -0.2435
 9510SOL    HW229430   6.264   6.849   6.514  0.3496  0.9114 -0.3915
 9511SOL     OW29431   5.797   2.860   2.726 -1.2820  0.5927  0.4089
 9511SOL    HW129432   5.760   2.950   2.753 -1.0832  0.7423  0.1873
 9511SOL    HW229433   5.896   2.868   2.712 -1.2050  0.2562  0.7326
 9512SOL     OW29434   0.684   4.685   4.449  0.4454  0.3198  0.3726
 9512SOL    HW129435   0.738   4.625   4.391  0.0311 -0.7183  1.0175
 9512SOL    HW229436   0.733   4.702   4.534 -0.0287 -0.2658  0.7742
 9513SOL     OW29437   4.901   3.827   2.774  0.2631  0.0603 -0.4289
 9513SOL    HW129438   4.897   3.861   2.868 -2.0528 -2.3243  0.4656
 9513SOL    HW229439   4.865   3.897   2.712  0.9424  1.3170  0.5434
 9514SOL     OW29440   3.170   1.131   6.675  0.0969 -0.7627  0.3254
 9514SOL    HW129441   3.247   1.138   6.611 -0.2583 -0.6159 -0.0955
 9514SOL    HW229442   3.205   1.130   6.769  0.5587  0.3941  0.1862
 9515SOL     OW29443   1.669   2.174   6.546 -0.1257 -0.1059 -0.3371
 9515SOL    HW129444   1.739   2.169   6.618 -0.8139 -1.0040  0.2811
 9515SOL    HW229445   1.713   2.197   6.459  1.0053 -1.0616 -0.0393
 9516SOL     OW29446   1.771   2.748   1.147  0.0895 -0.2589  0.2866
 9516SOL    HW129447   1.714   2.793   1.217  0.4023  1.0081 -0.2463
 9516SOL    HW229448   1.867   2.770   1.164  0.0692  1.1754 -1.2961
 9517SOL     OW29449   0.301   6.521   0.244 -0.0254  0.2804 -0.0330
 9517SOL    HW129450   0.367   6.551   0.175  0.5364 -0.2093  0.2899
 9517SOL    HW229451   0.274   6.427   0.226  0.8055 -0.1547  0.9262
 9518SOL     OW29452   0.867   2.321   1.272  0.2280 -0.7776  0.0846
 9518SOL    HW129453   0.808   2.351   1.346 -2.5167 -0.3595 -2.1275
 9518SOL    HW229454   0.963   2.332   1.300 -0.6542  0.8968  2.9024
 9519SOL     OW29455   4.186   3.583   6.360  0.1794  0.2819  0.0050
 9519SOL    HW129456   4.153   3.597   6.267 -0.1592  0.0375  0.0873
 9519SOL    HW229457   4.110   3.554   6.419  0.3018  0.8350  0.4473
 9520SOL     OW29458   4.380   4.747   1.605  0.0793  0.2119 -0.3302
 9520SOL    HW129459   4.328   4.822   1.563  1.2248  1.8501  1.0457
 9520SOL    HW229460   4.346   4.660   1.570 -1.2689  1.3441 -2.0441
 9521SOL     OW29461   4.956   6.035   2.398  0.0363  0.3694  0.3057
 9521SOL    HW129462   5.021   6.061   2.326  1.3795  0.7148  1.6001
 9521SOL    HW229463   5.005   6.018   2.483 -1.3530 -1.5257  0.7956
 9522SOL     OW29464   1.560   1.675   2.126 -0.3345 -0.2086 -0.0232
 9522SOL    HW129465   1.597   1.725   2.048  0.7684 -1.8117 -0.5900
 9522SOL    HW229466   1.469   1.708   2.147 -0.3323  0.8181 -1.4723
 9523SOL     OW29467   6.413   5.028   5.237  0.7255 -0.6288  0.1719
 9523SOL    HW129468   6.385   4.995   5.327  2.4524  0.0425  1.0057
 9523SOL    HW229469   6.336   5.072   5.191 -1.0814 -3.7654 -0.0745
 9524SOL     OW29470   4.951   4.494   5.735  0.5692 -0.4332  0.5849
 9524SOL    HW129471   4.949   4.434   5.655  2.6934 -0.0964  0.2088
 9524SOL    HW229472   4.901   4.578   5.715  2.1926  0.2411 -0.9607
 9525SOL     OW29473   5.624   0.051   3.256 -0.5213 -0.0805  0.4633
 9525SOL    HW129474   5.553   0.034   3.324  0.4546 -0.2160  1.4876
 9525SOL    HW229475   5.625  -0.024   3.189  0.0295 -1.1842  1.6688
 9526SOL     OW29476   3.143   0.540   2.764 -0.6015  0.0274  0.1110
 9526SOL    HW129477   3.103   0.496   2.684  0.1108 -0.3070 -0.0755
 9526SOL    HW229478   3.237   0.569   2.742 -1.1794  2.0140  0.0989
 9527SOL     OW29479   3.342   4.896   2.749  0.2806  0.2035  0.4114
 9527SOL    HW129480   3.351   4.984   2.701 -0.0367  0.7575  1.3479
 9527SOL    HW229481   3.377   4.823   2.691  1.1511  1.0299 -0.1316
 9528SOL     OW29482   3.487   1.535   3.310  0.6793 -0.0783 -0.2597
 9528SOL    HW129483   3.438   1.617   3.339 -0.0118  0.0534 -1.7395
 9528SOL    HW229484   3.576   1.561   3.274  1.2540 -0.1811  1.0211
 9529SOL     OW29485   3.949   5.116   6.274  0.1968  0.1532 -0.2777
 9529SOL    HW129486   4.013   5.088   6.203 -0.4870  0.6547 -1.1062
 9529SOL    HW229487   3.962   5.212   6.296 -0.6567  0.4216 -0.8889
 9530SOL     OW29488   5.957   2.732   2.319 -0.1476  0.0092 -0.2727
 9530SOL    HW129489   5.865   2.742   2.357 -0.8833 -0.1345 -1.9270
 9530SOL    HW229490   5.993   2.642   2.340  0.0872  0.4490  1.3211
 9531SOL     OW29491   2.450   0.825   6.292 -0.1083 -0.4330 -0.0106
 9531SOL    HW129492   2.521   0.794   6.228  0.5630  0.4768  0.2649
 9531SOL    HW229493   2.382   0.753   6.304  0.7423 -1.3190 -0.3239
 9532SOL     OW29494   3.792   4.931   6.160  0.1970 -0.2379 -0.4125
 9532SOL    HW129495   3.788   4.960   6.065 -1.4706 -0.6844 -0.5089
 9532SOL    HW229496   3.849   4.995   6.212  2.5053 -0.8910 -1.9876
 9533SOL     OW29497   1.348   5.418   6.959 -0.2668 -0.1425  0.4404
 9533SOL    HW129498   1.393   5.372   7.035 -0.9204 -0.2907  0.7476
 9533SOL    HW229499   1.407   5.416   6.879 -0.3622 -1.7203  0.3771
 9534SOL     OW29500   1.159   1.654   1.554 -0.1148 -0.1172  0.4355
 9534SOL    HW129501   1.156   1.728   1.622 -0.8342  0.9133 -0.6663
 9534SOL    HW229502   1.078   1.596   1.564  0.3775 -0.6894  1.2088
 9535SOL     OW29503   2.720   3.483   1.436  0.0393  0.5214  0.3371
 9535SOL    HW129504   2.641   3.432   1.403 -0.2600  2.0059 -1.3806
 9535SOL    HW229505   2.694   3.535   1.518 -0.6867  0.7785 -0.0524
 9536SOL     OW29506   3.626   4.786   5.324 -0.2181 -0.9464  0.0511
 9536SOL    HW129507   3.551   4.752   5.268 -0.8333 -1.6010  1.2118
 9536SOL    HW229508   3.596   4.865   5.377 -0.1029 -1.1942  0.5028
 9537SOL     OW29509   5.943   5.352   1.544  0.0491 -0.4343 -0.1446
 9537SOL    HW129510   5.912   5.446   1.529 -2.4486 -1.0193  0.8171
 9537SOL    HW229511   5.994   5.348   1.630 -0.0607 -0.0080 -0.0539
 9538SOL     OW29512   6.301   0.784   6.509 -0.2849 -0.2182 -0.5853
 9538SOL    HW129513   6.230   0.818   6.571  0.0833 -0.8289  0.1978
 9538SOL    HW229514   6.357   0.716   6.557 -0.0566 -0.7920 -1.6277
 9539SOL     OW29515   1.704   2.034   0.444  0.1404 -0.0225  0.1754
 9539SOL    HW129516   1.796   2.063   0.470  0.3826 -2.1026  1.9759
 9539SOL    HW229517   1.643   2.113   0.444  0.7645  0.7196  4.6242
 9540SOL     OW29518   4.683   3.466   0.254  0.5444  0.1554 -0.2801
 9540SOL    HW129519   4.585   3.465   0.235  0.3902  0.3525  0.4812
 9540SOL    HW229520   4.717   3.560   0.254  0.9691  0.0241 -1.6525
 9541SOL     OW29521   5.120   3.211   6.769 -0.2067  0.4643  0.0907
 9541SOL    HW129522   5.121   3.306   6.800 -1.9406  0.2698  0.8447
 9541SOL    HW229523   5.057   3.202   6.692  0.0855 -0.0478 -0.0921
 9542SOL     OW29524   1.771   4.916   6.883 -0.4272  0.2716 -0.0710
 9542SOL    HW129525   1.867   4.945   6.874  0.1606 -1.1846  1.0185
 9542SOL    HW229526   1.730   4.910   6.792  0.9058 -0.2404 -0.6726
 9543SOL     OW29527   1.605   6.413   0.946 -0.0100 -0.3178  0.0981
 9543SOL    HW129528   1.592   6.462   1.032  0.1129 -1.6247  0.8837
 9543SOL    HW229529   1.563   6.322   0.953 -1.0133 -0.0280 -1.6295
 9544SOL     OW29530   5.722   2.196   5.306 -0.2508  0.0188  0.4919
 9544SOL    HW129531   5.644   2.258   5.317  0.1845  0.7780 -0.5323
 9544SOL    HW229532   5.759   2.173   5.396 -1.2505  0.1696  0.9545
 9545SOL     OW29533   6.664   4.088   6.234  0.0136 -0.1351 -0.2228
 9545SOL    HW129534   6.749   4.037   6.247 -0.0470 -0.0382  0.6247
 9545SOL    HW229535   6.653   4.109   6.138  0.5477 -0.8450 -0.4532
 9546SOL     OW29536   4.132   3.432   0.442  0.3330  0.4998 -0.6926
 9546SOL    HW129537   4.081   3.436   0.356  2.0783 -1.1439 -1.8862
 9546SOL    HW229538   4.080   3.380   0.509 -0.9896  1.6793 -0.7705
 9547SOL     OW29539   4.295   2.647   1.500  0.0983 -0.6181  0.1306
 9547SOL    HW129540   4.275   2.589   1.578 -0.4172  0.0041  0.4681
 9547SOL    HW229541   4.291   2.743   1.527 -1.0300 -0.3493 -0.8488
 9548SOL     OW29542   5.880   5.264   2.092 -0.6509 -0.5093  0.3644
 9548SOL    HW129543   5.876   5.333   2.163  1.2784 -0.7145  0.7244
 9548SOL    HW229544   5.975   5.241   2.072 -1.1733 -1.4124 -1.3643
 9549SOL     OW29545   2.873   2.799   7.014 -0.5026  0.0301  0.7810
 9549SOL    HW129546   2.838   2.709   6.988 -1.4785 -0.0652  2.3486
 9549SOL    HW229547   2.972   2.803   6.996 -0.9582 -0.2058 -2.3033
 9550SOL     OW29548   1.011   3.475   6.322 -0.4801  0.0236  0.3186
 9550SOL    HW129549   1.016   3.552   6.386  1.0407 -0.0242  0.2915
 9550SOL    HW229550   0.959   3.400   6.364 -0.7335  0.5194  0.9120
 9551SOL     OW29551   4.431   0.465   5.131 -0.2990 -0.1381 -0.2044
 9551SOL    HW129552   4.418   0.399   5.058  0.1013 -0.5794  0.1196
 9551SOL    HW229553   4.408   0.557   5.098  0.3959 -0.2556 -1.0506
 9552SOL     OW29554   5.576   0.698   1.607 -0.5446  0.4162 -0.4561
 9552SOL    HW129555   5.537   0.646   1.531 -1.4830  0.5249 -0.0759
 9552SOL    HW229556   5.584   0.637   1.687  1.1962  0.0864 -0.8470
 9553SOL     OW29557   4.078   0.110   6.091  0.0250 -0.1353  0.5854
 9553SOL    HW129558   4.124   0.191   6.054  0.2660 -1.2677 -1.8089
 9553SOL    HW229559   3.994   0.137   6.137 -0.3279  1.4177 -0.8869
 9554SOL     OW29560   3.893   1.866   5.957  0.0800  0.0426 -0.1107
 9554SOL    HW129561   3.951   1.886   5.878  0.1399 -0.6261 -0.2435
 9554SOL    HW229562   3.802   1.840   5.925  0.3789 -1.1699 -0.0118
 9555SOL     OW29563   0.510   0.050   1.645  0.3215 -0.3525  0.4308
 9555SOL    HW129564   0.566   0.076   1.567 -0.0000 -0.9115  0.0115
 9555SOL    HW229565   0.528  -0.045   1.669 -0.9573 -0.7662 -0.1629
 9556SOL     OW29566   2.387   1.007   3.114 -0.1394 -0.9071  0.2306
 9556SOL    HW129567   2.304   0.984   3.164 -0.1952 -0.6410  0.2648
 9556SOL    HW229568   2.461   0.945   3.140  0.0615 -0.2592  1.2739
 9557SOL     OW29569   1.401   1.923   4.574 -0.2877  0.3173 -0.2275
 9557SOL    HW129570   1.474   1.917   4.506  0.1870 -0.6948  0.3473
 9557SOL    HW229571   1.368   1.831   4.596 -0.7471  0.6620  0.5843
 9558SOL     OW29572   0.595   5.790   5.009  0.0485  0.4864  0.6008
 9558SOL    HW129573   0.557   5.830   5.092 -1.7850  1.8314 -0.8066
 9558SOL    HW229574   0.550   5.830   4.929  0.8584 -1.6496 -1.0232
 9559SOL     OW29575   1.826   5.031   0.283 -0.1330 -0.1914 -0.1039
 9559SOL    HW129576   1.832   4.949   0.227  1.4131 -0.8788  0.9921
 9559SOL    HW229577   1.845   5.008   0.378 -0.9105  1.2430  0.4378
 9560SOL     OW29578   3.589   5.379   6.416  0.0896 -0.5708 -0.5274
 9560SOL    HW129579   3.579   5.317   6.494 -0.8218  0.3529  0.1128
 9560SOL    HW229580   3.674   5.431   6.425  0.1840 -0.7540 -0.3554
 9561SOL     OW29581   5.245   0.538   0.447 -0.5999  0.0536 -0.2031
 9561SOL    HW129582   5.223   0.552   0.544  0.6088  2.3982 -0.1964
 9561SOL    HW229583   5.343   0.527   0.436 -0.6325  0.6421 -1.2219
 9562SOL     OW29584   6.343   3.686   1.916  0.1588 -0.5181 -0.8890
 9562SOL    HW129585   6.411   3.760   1.914 -0.2515 -0.0591  0.8806
 9562SOL    HW229586   6.257   3.720   1.877 -0.0142 -0.0519 -0.1239
 9563SOL     OW29587   0.694   3.736   4.557  0.2303 -0.1166  0.2589
 9563SOL    HW129588   0.627   3.664   4.574  1.1873 -1.0745  0.1079
 9563SOL    HW229589   0.694   3.759   4.459  1.3367 -1.4062 -0.0810
 9564SOL     OW29590   2.562   1.955   3.937  0.1994 -0.8395  0.0604
 9564SOL    HW129591   2.492   1.911   3.993 -0.3980  0.1337  0.1008
 9564SOL    HW229592   2.639   1.982   3.994 -0.5844  0.5204  0.5305
 9565SOL     OW29593   0.642   2.838   0.155  0.1697  0.2988  0.4330
 9565SOL    HW129594   0.658   2.924   0.205  0.6743 -0.0249  0.8357
 9565SOL    HW229595   0.727   2.807   0.114  0.1161 -0.3163  0.7793
 9566SOL     OW29596   0.885   6.838   5.271  0.2603  0.0415 -0.1657
 9566SOL    HW129597   0.794   6.858   5.306  0.5897  0.2206  0.6227
 9566SOL    HW229598   0.879   6.779   5.191 -0.6334  1.4048 -1.1479
 9567SOL     OW29599   4.516   4.260   5.296 -0.4777  0.0058  0.1164
 9567SOL    HW129600   4.553   4.319   5.224 -1.0717  0.8457  0.4788
 9567SOL    HW229601   4.571   4.269   5.379  0.6212 -1.4858 -0.4079
 9568SOL     OW29602   6.731   4.230   5.143 -0.2559  0.0085  0.4376
 9568SOL    HW129603   6.754   4.133   5.156 -1.1761 -0.1873  0.6171
 9568SOL    HW229604   6.791   4.286   5.201  0.4720 -0.4247  0.1233
 9569SOL     OW29605   6.409   0.277   5.724  0.0581  0.0373 -0.0828
 9569SOL    HW129606   6.444   0.345   5.660  0.2343  0.4480  0.4462
 9569SOL    HW229607   6.390   0.320   5.812  1.7144 -0.8859  0.7698
 9570SOL     OW29608   5.391   4.822   1.192 -0.1129 -0.6121 -0.7185
 9570SOL    HW129609   5.373   4.805   1.095 -1.8900 -1.6931 -0.2340
 9570SOL    HW229610   5.310   4.799   1.246 -0.6944  3.7505  0.6928
 9571SOL     OW29611   5.944   3.575   0.246 -0.0597 -0.6591  0.5056
 9571SOL    HW129612   5.863   3.543   0.196 -0.8778  0.5514  1.0092
 9571SOL    HW229613   5.944   3.675   0.249  2.0704 -0.5696 -0.4587
 9572SOL     OW29614   3.007   1.495   1.286 -0.7827 -0.0098 -0.2702
 9572SOL    HW129615   2.989   1.453   1.375 -0.7402  0.4062 -0.0620
 9572SOL    HW229616   3.020   1.424   1.217 -0.2595 -0.3418  0.1647
 9573SOL     OW29617   2.866   5.605   1.154  0.0661 -0.4019 -0.6953
 9573SOL    HW129618   2.938   5.609   1.224 -0.5186 -0.1885 -0.1032
 9573SOL    HW229619   2.779   5.631   1.194 -0.4025 -0.9391 -1.3453
 9574SOL     OW29620   5.337   6.540   0.311 -0.1205  0.0498 -0.4921
 9574SOL    HW129621   5.357   6.623   0.259 -0.4567 -0.2218 -1.0688
 9574SOL    HW229622   5.374   6.548   0.403  1.5958  0.0608 -1.1356
 9575SOL     OW29623   6.350   1.783   0.193 -0.3351 -0.1746 -0.3057
 9575SOL    HW129624   6.424   1.764   0.129 -0.0946 -0.0728 -0.0585
 9575SOL    HW229625   6.293   1.858   0.158  0.0626  0.1867 -0.1826
 9576SOL     OW29626   0.174   3.363   6.644 -0.5898  0.2563 -0.3295
 9576SOL    HW129627   0.228   3.315   6.713  0.5653  1.3789 -0.3982
 9576SOL    HW229628   0.136   3.447   6.683 -1.1858  0.1308 -0.6411
 9577SOL     OW29629   5.188   5.843   1.763 -0.6098  0.2472  0.7199
 9577SOL    HW129630   5.165   5.938   1.741 -2.1271  0.3079  2.3749
 9577SOL    HW229631   5.284   5.838   1.792  0.4106  0.7149 -2.2695
 9578SOL     OW29632   3.778   2.111   3.472  0.4245 -0.7494  0.5271
 9578SOL    HW129633   3.772   2.015   3.497  1.5387 -1.0908 -0.3972
 9578SOL    HW229634   3.870   2.145   3.493  0.8220 -0.5697 -1.2837
 9579SOL     OW29635   0.413   5.128   0.153 -0.0198  0.4702 -0.2299
 9579SOL    HW129636   0.425   5.049   0.093  0.4896 -0.5254  1.1109
 9579SOL    HW229637   0.395   5.209   0.099 -0.7457 -0.5967 -1.6479
 9580SOL     OW29638   6.687   5.554   4.940  0.1138  0.2857 -0.2135
 9580SOL    HW129639   6.783   5.526   4.936 -0.1020 -0.6158  0.5701
 9580SOL    HW229640   6.676   5.642   4.893  1.2917  0.3444 -0.4155
 9581SOL     OW29641   0.663   0.265   6.515  0.0911  0.0287  0.4794
 9581SOL    HW129642   0.738   0.327   6.497  1.6423 -1.2258  2.2057
 9581SOL    HW229643   0.585   0.317   6.552  0.2677  1.2607 -0.7916
 9582SOL     OW29644   6.314   1.099   5.454 -0.1242 -0.0022  0.1413
 9582SOL    HW129645   6.357   1.111   5.544 -0.9232  0.9461  0.4148
 9582SOL    HW229646   6.356   1.022   5.407 -0.6057 -1.3934  1.8914
 9583SOL     OW29647   1.633   0.876   6.470  0.5686 -0.2211  0.3945
 9583SOL    HW129648   1.710   0.933   6.500 -0.5026  0.1962  2.5102
 9583SOL    HW229649   1.643   0.856   6.373  2.3187  1.4347  0.1707
 9584SOL     OW29650   5.715   2.410   6.079  0.0028 -0.6469 -0.1277
 9584SOL    HW129651   5.706   2.312   6.096 -2.2443 -0.7104 -1.1957
 9584SOL    HW229652   5.664   2.434   5.996  1.7843  1.2078 -0.7614
 9585SOL     OW29653   5.678   1.217   3.021 -0.3266  0.0409  0.2088
 9585SOL    HW129654   5.737   1.196   2.943 -1.2212 -1.7200 -0.0393
 9585SOL    HW229655   5.720   1.289   3.076  0.1671  1.6197 -2.0776
 9586SOL     OW29656   2.929   4.496   0.870  0.1764 -0.3393 -0.2834
 9586SOL    HW129657   2.941   4.414   0.816  0.8163 -0.0539 -0.5785
 9586SOL    HW229658   2.942   4.474   0.967 -0.8915 -0.8303 -0.2384
 9587SOL     OW29659   2.335   1.820   1.858  0.6009 -0.6417 -0.6140
 9587SOL    HW129660   2.296   1.790   1.945  0.6310 -0.1822 -0.4358
 9587SOL    HW229661   2.354   1.918   1.862  0.4867 -0.5897 -1.1828
 9588SOL     OW29662   3.252   3.821   1.109  0.2084 -0.1756  0.3908
 9588SOL    HW129663   3.291   3.911   1.089  0.6903 -0.1138  1.5599
 9588SOL    HW229664   3.305   3.777   1.181 -1.1288 -0.6197  1.1413
 9589SOL     OW29665   0.922   2.368   2.716  0.0263  0.4069 -0.1700
 9589SOL    HW129666   0.830   2.396   2.742 -0.0421 -0.7136  0.8986
 9589SOL    HW229667   0.988   2.410   2.779 -0.0125 -1.0973  0.9215
 9590SOL     OW29668   6.368   0.474   1.650 -0.2343 -0.0240  0.1235
 9590SOL    HW129669   6.341   0.513   1.562  1.0244 -2.0217 -1.2288
 9590SOL    HW229670   6.467   0.479   1.660 -0.4190  0.9270  1.8551
 9591SOL     OW29671   4.487   6.482   0.695 -0.4146 -0.4401  0.2225
 9591SOL    HW129672   4.507   6.398   0.644 -0.2810 -0.3087  0.0608
 9591SOL    HW229673   4.559   6.499   0.762 -0.1261 -0.1256 -0.1614
 9592SOL     OW29674   1.656   4.067   6.417  0.0502  0.2791 -0.7741
 9592SOL    HW129675   1.639   3.995   6.484 -1.1769  2.1411  1.0348
 9592SOL    HW229676   1.589   4.059   6.343  1.1654 -1.5550 -1.6597
 9593SOL     OW29677   0.745   3.090   4.999 -0.5852 -0.9800  0.2161
 9593SOL    HW129678   0.834   3.044   4.994 -0.8064 -1.3246 -0.6362
 9593SOL    HW229679   0.723   3.107   5.095  0.8316 -0.0325  0.4105
 9594SOL     OW29680   6.596   5.963   1.317  0.4888  0.4011  0.5299
 9594SOL    HW129681   6.592   6.024   1.237  2.6790 -0.7694 -0.5474
 9594SOL    HW229682   6.567   6.013   1.398 -1.3941  1.7657 -0.8890
 9595SOL     OW29683   1.769   1.597   5.108  0.2734  0.2732  0.1326
 9595SOL    HW129684   1.684   1.545   5.116 -0.8272  2.1655  1.3887
 9595SOL    HW229685   1.748   1.693   5.091  2.2046  0.6757 -0.2406
 9596SOL     OW29686   2.359   4.828   4.868  0.5652  0.1701  0.4076
 9596SOL    HW129687   2.445   4.779   4.878  2.0555  2.3182 -1.0704
 9596SOL    HW229688   2.376   4.927   4.869 -2.0926  0.7200  1.5646
 9597SOL     OW29689   2.112   6.424   6.751 -0.5121  0.4021  0.0425
 9597SOL    HW129690   2.186   6.419   6.683 -0.4751 -0.0454  0.1132
 9597SOL    HW229691   2.031   6.463   6.708 -0.2823  0.7580 -0.0761
 9598SOL     OW29692   4.349   2.023   5.748 -0.0825 -0.1058  0.4613
 9598SOL    HW129693   4.445   1.999   5.764 -0.5979 -1.4388  1.7258
 9598SOL    HW229694   4.335   2.120   5.767  0.6185 -0.3228  2.2048
 9599SOL     OW29695   6.680   5.687   4.346  0.3439  0.4064 -0.0131
 9599SOL    HW129696   6.756   5.719   4.402 -0.7753 -0.1376  1.8969
 9599SOL    HW229697   6.648   5.762   4.288  1.7031  0.9082 -0.1506
 9600SOL     OW29698   6.591   1.656   6.136  0.1639 -0.0091  0.4616
 9600SOL    HW129699   6.549   1.642   6.226 -0.8859 -0.6658 -0.1097
 9600SOL    HW229700   6.557   1.586   6.073  0.7487  0.5622 -0.4951
 9601SOL     OW29701   6.576   0.856   0.788 -0.0571 -0.3828  0.2057
 9601SOL    HW129702   6.537   0.765   0.798  0.3317 -0.6571 -0.6865
 9601SOL    HW229703   6.652   0.853   0.723 -1.1032  0.8839 -1.1278
 9602SOL     OW29704   1.894   6.254   3.305 -0.0954  0.7257 -0.3350
 9602SOL    HW129705   1.877   6.156   3.305  0.5220  0.6147 -0.9150
 9602SOL    HW229706   1.807   6.303   3.320 -0.2621  0.0873  0.8903
 9603SOL     OW29707   3.920   0.587   5.413 -0.0274  1.1093 -0.6575
 9603SOL    HW129708   3.891   0.646   5.489  0.9164 -0.7374  1.2183
 9603SOL    HW229709   3.855   0.512   5.404  0.4734  0.7142 -0.9511
 9604SOL     OW29710   1.658   5.780   1.649 -0.4705 -0.1369  0.2660
 9604SOL    HW129711   1.586   5.844   1.675 -0.8591 -0.9150  1.2145
 9604SOL    HW229712   1.727   5.778   1.721  1.4113  1.8268 -1.3740
 9605SOL     OW29713   5.973   1.125   6.524 -0.4950 -0.3445 -0.7555
 9605SOL    HW129714   5.971   1.131   6.424 -1.5414 -0.2947 -0.7452
 9605SOL    HW229715   6.004   1.212   6.562 -2.4538  0.5277 -0.9907
 9606SOL     OW29716   4.727   6.209   3.131 -0.5285 -0.4722 -0.1361
 9606SOL    HW129717   4.795   6.215   3.204  0.1213  2.3215 -0.8854
 9606SOL    HW229718   4.733   6.119   3.087  2.5397 -0.4078 -0.0172
 9607SOL     OW29719   1.486   6.146   0.515 -0.4298  0.1679 -0.3177
 9607SOL    HW129720   1.531   6.161   0.603  0.0651  1.5480 -0.7887
 9607SOL    HW229721   1.506   6.222   0.454 -0.3899 -0.9849 -1.7899
 9608SOL     OW29722   5.242   2.866   4.133  0.4431  0.2494 -0.0407
 9608SOL    HW129723   5.269   2.869   4.230  0.7694 -0.1430 -0.1157
 9608SOL    HW229724   5.191   2.781   4.116  1.5839 -0.3605 -0.5113
 9609SOL     OW29725   1.029   2.545   4.885 -0.1333 -0.0457  0.7315
 9609SOL    HW129726   1.018   2.582   4.978 -0.8003 -1.6187  1.3085
 9609SOL    HW229727   1.065   2.452   4.891  0.3463  0.0378 -0.6317
 9610SOL     OW29728   0.131   5.138   3.881 -0.4932  0.1379  0.3930
 9610SOL    HW129729   0.169   5.103   3.795 -0.6225 -0.1830  0.4665
 9610SOL    HW229730   0.119   5.237   3.873  0.9747  0.3634  0.5999
 9611SOL     OW29731   2.692   1.280   1.948 -0.7148 -0.3520 -0.2928
 9611SOL    HW129732   2.752   1.360   1.959 -0.6549 -0.2264 -1.3961
 9611SOL    HW229733   2.598   1.305   1.974 -0.5747 -0.1060 -0.0198
 9612SOL     OW29734   0.890   2.549   3.760  0.0783  0.2750 -0.3008
 9612SOL    HW129735   0.870   2.466   3.709  1.4789 -0.5325  0.4077
 9612SOL    HW229736   0.919   2.525   3.853 -0.1255  1.5892  0.1202
 9613SOL     OW29737   2.558   6.658   3.331  0.5695 -0.0271  0.1199
 9613SOL    HW129738   2.647   6.639   3.373  0.0537 -2.5967  0.2026
 9613SOL    HW229739   2.546   6.603   3.249 -0.7639  0.6112 -0.1535
 9614SOL     OW29740   6.434   5.400   0.771 -0.4389  0.2697  0.0519
 9614SOL    HW129741   6.413   5.343   0.850 -0.6336 -1.6404 -1.3084
 9614SOL    HW229742   6.403   5.494   0.787 -0.9898 -0.2151  1.9808
 9615SOL     OW29743   5.350   6.915   5.855  0.4580  0.0609 -0.0548
 9615SOL    HW129744   5.255   6.940   5.835 -0.0050 -1.4027  0.2349
 9615SOL    HW229745   5.400   6.903   5.769  0.1692  0.0440 -0.2215
 9616SOL     OW29746   4.703   5.546   1.779 -0.0051  0.3777  0.3251
 9616SOL    HW129747   4.762   5.615   1.820  0.9902 -0.2617  0.0016
 9616SOL    HW229748   4.707   5.553   1.680  1.4366 -1.1823  0.2228
 9617SOL     OW29749   0.135   1.252   6.401  0.1221  0.0025 -0.1734
 9617SOL    HW129750   0.118   1.298   6.314  0.5215  1.4768  0.4916
 9617SOL    HW229751   0.070   1.177   6.412 -0.7174  0.5464 -1.2012
 9618SOL     OW29752   2.457   1.277   1.361  0.1331  0.1199 -0.9041
 9618SOL    HW129753   2.439   1.320   1.450  2.7337  0.1060 -0.2897
 9618SOL    HW229754   2.381   1.295   1.299 -0.5313  2.4595  0.4730
 9619SOL     OW29755   0.408   4.502   5.209 -0.6647  0.1651  1.0991
 9619SOL    HW129756   0.435   4.595   5.185 -2.6669  0.1139 -1.9749
 9619SOL    HW229757   0.310   4.501   5.231 -0.6688 -1.1868  1.0948
 9620SOL     OW29758   6.202   3.408   5.372  0.4700  0.0645 -0.0231
 9620SOL    HW129759   6.120   3.377   5.325 -0.0379  0.5886  0.4973
 9620SOL    HW229760   6.268   3.332   5.378 -0.3498 -0.6373  0.3714
 9621SOL     OW29761   5.445   2.480   6.367  0.2022 -0.1112 -0.6333
 9621SOL    HW129762   5.404   2.433   6.445  0.4553 -1.3942 -1.2501
 9621SOL    HW229763   5.442   2.579   6.383 -2.8748 -0.1317 -0.5452
 9622SOL     OW29764   2.465   2.514   2.057 -0.0334  0.2012  0.9431
 9622SOL    HW129765   2.539   2.446   2.053 -0.2619 -0.1582  2.1295
 9622SOL    HW229766   2.392   2.479   2.117  0.0334  1.6677  1.9316
 9623SOL     OW29767   6.544   1.887   2.668  0.0122  0.5499 -0.3941
 9623SOL    HW129768   6.631   1.861   2.709 -0.7597 -0.2501  0.7778
 9623SOL    HW229769   6.478   1.909   2.739 -1.8299 -2.3679 -1.0495
 9624SOL     OW29770   6.802   6.104   4.312  0.4673  0.6802  0.4637
 9624SOL    HW129771   6.782   6.176   4.245  2.8261 -0.7305 -1.9787
 9624SOL    HW229772   6.765   6.017   4.280  0.5940  0.1709  1.6485
 9625SOL     OW29773   5.024   1.035   0.792 -0.4219 -0.5450 -0.1359
 9625SOL    HW129774   5.109   1.085   0.812 -0.9283 -0.1296  1.0335
 9625SOL    HW229775   4.965   1.093   0.735  0.1804 -0.9491 -1.2046
 9626SOL     OW29776   0.229   3.006   6.315  0.0309  0.4877 -0.1460
 9626SOL    HW129777   0.296   3.033   6.246  1.8596  1.6630  1.9158
 9626SOL    HW229778   0.207   2.910   6.304  0.0152  0.7075 -2.5013
 9627SOL     OW29779   2.542   4.612   2.516  0.1671  0.3857  0.2252
 9627SOL    HW129780   2.496   4.676   2.455  1.9948  0.1032 -1.5495
 9627SOL    HW229781   2.632   4.648   2.541  0.8443 -1.0240 -0.0530
 9628SOL     OW29782   5.471   5.325   1.675  0.1906  0.0263  0.3366
 9628SOL    HW129783   5.472   5.410   1.727 -1.1742  0.2762 -0.0067
 9628SOL    HW229784   5.541   5.329   1.603 -0.8920  1.5149 -0.6766
 9629SOL     OW29785   6.290   0.936   4.504  0.8203  0.5359 -0.3262
 9629SOL    HW129786   6.255   1.001   4.436 -1.4793 -0.4781 -0.1772
 9629SOL    HW229787   6.217   0.908   4.565  2.3528 -0.2833  1.2239
 9630SOL     OW29788   4.801   2.647   0.225 -0.4261 -0.0645  0.2582
 9630SOL    HW129789   4.792   2.681   0.319  0.6761  2.8356 -0.5957
 9630SOL    HW229790   4.736   2.694   0.166  1.1219  0.5830 -0.9929
 9631SOL     OW29791   2.772   3.302   6.240 -0.2309  0.0258  0.4570
 9631SOL    HW129792   2.687   3.267   6.201  0.5310 -0.7868 -0.5632
 9631SOL    HW229793   2.772   3.289   6.339 -0.5601 -1.6579  0.2698
 9632SOL     OW29794   2.768   2.003   4.506  0.1912  0.8149 -0.2462
 9632SOL    HW129795   2.727   1.913   4.521 -1.0173  1.2094 -1.0061
 9632SOL    HW229796   2.714   2.053   4.437  0.3821  2.4190  0.7200
 9633SOL     OW29797   5.224   5.584   5.821 -0.0096  0.4166  0.0399
 9633SOL    HW129798   5.295   5.514   5.813 -0.5653 -0.1153 -0.2954
 9633SOL    HW229799   5.191   5.588   5.915 -1.1446 -0.9496 -0.2706
 9634SOL     OW29800   2.226   6.254   0.323 -0.2589 -0.3842  0.2333
 9634SOL    HW129801   2.178   6.189   0.265  1.1190 -1.1209 -0.1331
 9634SOL    HW229802   2.250   6.211   0.410 -0.3203 -0.0078  0.4406
 9635SOL     OW29803   3.759   5.319   6.027 -0.1650 -0.1319 -0.5200
 9635SOL    HW129804   3.818   5.295   5.950 -0.2439 -2.3142  0.0426
 9635SOL    HW229805   3.687   5.381   5.995  1.0204  0.6935 -1.7182
 9636SOL     OW29806   0.053   7.000   6.711 -1.0222 -0.6289  0.1022
 9636SOL    HW129807   0.083   6.977   6.618  1.0258  0.9418  0.2968
 9636SOL    HW229808  -0.024   6.941   6.736 -0.9930 -1.7918 -2.1909
 9637SOL     OW29809   1.333   6.199   3.820  0.1845  0.0973 -0.6242
 9637SOL    HW129810   1.323   6.282   3.765  0.0391 -0.1807 -1.0219
 9637SOL    HW229811   1.242   6.165   3.846  0.2539  0.3266 -0.0505
 9638SOL     OW29812   7.017   1.717   2.539 -0.1824 -0.4430  0.7054
 9638SOL    HW129813   7.004   1.804   2.587  0.2881 -0.7545  1.4215
 9638SOL    HW229814   6.931   1.665   2.541  0.1938 -1.0631  2.4935
 9639SOL     OW29815   6.112   6.125   4.683 -0.0255  0.1445 -0.2040
 9639SOL    HW129816   6.180   6.112   4.756 -1.5186 -1.8661  0.9294
 9639SOL    HW229817   6.056   6.205   4.704 -0.6855 -0.6221  1.1374
 9640SOL     OW29818   2.970   0.280   1.745  0.5060 -0.3927  0.4056
 9640SOL    HW129819   3.054   0.335   1.740  0.1095  0.4565  2.3360
 9640SOL    HW229820   2.928   0.292   1.834  0.7660 -4.4534  1.2515
 9641SOL     OW29821   3.942   5.191   5.152  0.2362 -0.1046 -0.3602
 9641SOL    HW129822   3.928   5.119   5.084 -2.1146 -1.0449  0.9843
 9641SOL    HW229823   3.887   5.271   5.127 -0.8934 -0.5725  0.5243
 9642SOL     OW29824   1.874   2.652   2.504  0.1072 -0.0878 -0.1053
 9642SOL    HW129825   1.855   2.744   2.470  2.8134  0.6225  0.0522
 9642SOL    HW229826   1.912   2.596   2.430  1.1970 -0.1446  0.4817
 9643SOL     OW29827   4.673   5.402   5.548  0.4525  0.3767 -0.3920
 9643SOL    HW129828   4.734   5.482   5.549  1.8077 -0.6172 -0.3252
 9643SOL    HW229829   4.650   5.378   5.454  0.4846  0.5290 -0.4388
 9644SOL     OW29830   2.549   6.676   6.499 -0.1391 -0.5915  0.4985
 9644SOL    HW129831   2.643   6.657   6.528  0.2930  1.0904  0.3140
 9644SOL    HW229832   2.508   6.744   6.560 -1.1890 -1.1740  0.4740
 9645SOL     OW29833   0.132   4.771   2.922  0.1117  0.0275  0.2852
 9645SOL    HW129834   0.079   4.842   2.968  1.3441 -0.3186  2.3553
 9645SOL    HW229835   0.160   4.804   2.831 -0.5631  1.6009  0.6199
 9646SOL     OW29836   2.035   0.567   5.261  0.1007  0.1633  0.1739
 9646SOL    HW129837   2.013   0.502   5.333 -0.6251 -0.0590 -0.2425
 9646SOL    HW229838   1.989   0.541   5.176 -0.3069  1.2846  0.0290
 9647SOL     OW29839   5.463   6.569   0.543  0.4637  0.2961 -0.1639
 9647SOL    HW129840   5.373   6.562   0.586  0.3090  1.8723 -0.1472
 9647SOL    HW229841   5.523   6.497   0.577 -0.8016 -0.8238 -0.2268
 9648SOL     OW29842   2.315   1.093   5.266  0.3549 -0.8877  0.2708
 9648SOL    HW129843   2.403   1.048   5.258  0.2454 -0.9567 -0.6051
 9648SOL    HW229844   2.322   1.187   5.233 -0.0547 -1.1039 -0.4619
 9649SOL     OW29845   5.298   2.206   1.073  0.2285  0.0167  0.1669
 9649SOL    HW129846   5.291   2.174   1.167 -1.0060  3.0829  1.2581
 9649SOL    HW229847   5.207   2.229   1.038  0.6358 -1.2626 -1.9117
 9650SOL     OW29848   4.078   2.230   3.205 -0.0024 -0.5081  0.7292
 9650SOL    HW129849   4.162   2.195   3.245  0.0849  0.9720  1.9425
 9650SOL    HW229850   4.080   2.219   3.106  2.1411  0.5216  0.6070
 9651SOL     OW29851   6.943   0.079   1.053  0.0412 -0.0953 -0.1207
 9651SOL    HW129852   6.863   0.046   1.104 -0.0081  0.1619 -0.0311
 9651SOL    HW229853   6.934   0.177   1.038  0.9746  0.1778  1.0267
 9652SOL     OW29854   3.025   1.990   1.052  0.1614 -0.0814  0.3420
 9652SOL    HW129855   3.120   2.020   1.056  0.1650 -0.2165  1.6948
 9652SOL    HW229856   3.019   1.894   1.082 -0.4240 -0.0212  0.4321
 9653SOL     OW29857   3.839   6.331   3.926 -0.1910  0.3630  0.0832
 9653SOL    HW129858   3.765   6.364   3.986  1.2671  3.4395  0.4338
 9653SOL    HW229859   3.813   6.343   3.831 -0.2387  1.3843  0.2069
 9654SOL     OW29860   3.483   6.300   0.701  0.0321  0.2316 -0.2584
 9654SOL    HW129861   3.544   6.323   0.625  0.8276 -0.9390 -0.0098
 9654SOL    HW229862   3.410   6.367   0.707  1.2220  1.6057 -0.6572
 9655SOL     OW29863   4.471   0.347   6.480 -0.3085  0.3071  0.0926
 9655SOL    HW129864   4.530   0.420   6.515  0.0957 -0.3390  0.7979
 9655SOL    HW229865   4.519   0.299   6.406  0.4260 -0.7569  1.2293
 9656SOL     OW29866   2.242   0.567   0.260 -0.3149 -0.0540  0.0500
 9656SOL    HW129867   2.213   0.662   0.259  0.5516  0.2134 -1.2462
 9656SOL    HW229868   2.319   0.556   0.323  0.7106  0.4703 -1.0807
 9657SOL     OW29869   5.083   1.004   4.212 -0.8551  0.5275 -0.1797
 9657SOL    HW129870   5.088   0.935   4.139  0.9083 -0.7482  1.0523
 9657SOL    HW229871   4.999   1.058   4.201 -1.9105 -1.2717 -1.6688
 9658SOL     OW29872   5.846   4.504   5.996 -0.2798  0.5720  0.5290
 9658SOL    HW129873   5.899   4.564   5.936 -0.3786  1.4142  1.2687
 9658SOL    HW229874   5.754   4.493   5.959 -0.9501  2.6291  1.4663
 9659SOL     OW29875   5.414   5.627   1.266  0.1500  0.8020  0.3672
 9659SOL    HW129876   5.434   5.653   1.171 -2.1030  0.1204 -0.3406
 9659SOL    HW229877   5.467   5.546   1.290 -0.9272 -0.3951 -1.1219
 9660SOL     OW29878   6.417   0.188   6.848 -0.6649  0.4268 -1.0922
 9660SOL    HW129879   6.429   0.095   6.883 -0.0735  1.1116  0.6665
 9660SOL    HW229880   6.329   0.195   6.801 -1.5001 -0.6178  0.2408
 9661SOL     OW29881   4.049   1.425   5.374  0.0951 -0.5659 -1.2343
 9661SOL    HW129882   3.979   1.419   5.302 -2.4952 -1.9335  1.1993
 9661SOL    HW229883   4.112   1.348   5.365 -1.3033 -1.7832 -1.0313
 9662SOL     OW29884   4.914   5.704   6.371  0.3287 -0.6223  0.2299
 9662SOL    HW129885   4.831   5.686   6.318 -1.2348  0.4885  2.1536
 9662SOL    HW229886   4.954   5.617   6.401  0.2183 -1.1904 -1.2169
 9663SOL     OW29887   1.183   1.933   2.867 -0.2186  0.2404  0.6468
 9663SOL    HW129888   1.097   1.982   2.853 -0.3609 -0.3066 -0.6056
 9663SOL    HW229889   1.259   1.992   2.838 -0.1888  0.6275  1.5040
 9664SOL     OW29890   5.267   4.392   1.283 -0.4848 -0.2220  0.3953
 9664SOL    HW129891   5.181   4.354   1.249  0.4752 -0.2229 -2.2585
 9664SOL    HW229892   5.323   4.319   1.323 -0.1628 -0.9890 -1.3710
 9665SOL     OW29893   2.763   1.533   1.126 -0.4275 -0.1784  0.5035
 9665SOL    HW129894   2.734   1.625   1.149  0.7435  0.6994 -1.3063
 9665SOL    HW229895   2.847   1.511   1.176 -0.1599  0.1389  0.2025
 9666SOL     OW29896   3.956   0.886   1.040  0.1565  0.3163 -0.7915
 9666SOL    HW129897   3.969   0.938   0.955 -1.7277 -0.7413 -1.7961
 9666SOL    HW229898   4.011   0.803   1.037  1.2034  0.9700 -0.3056
 9667SOL     OW29899   3.426   3.668   4.276 -0.1496  0.4438 -0.1246
 9667SOL    HW129900   3.449   3.704   4.367 -1.2614  0.2044  0.2636
 9667SOL    HW229901   3.392   3.743   4.219  0.3809  0.5606 -0.2943
 9668SOL     OW29902   5.443   4.709   6.764 -0.3839 -0.1138 -0.4325
 9668SOL    HW129903   5.479   4.717   6.671 -0.2307 -1.7059 -0.5368
 9668SOL    HW229904   5.434   4.613   6.788 -1.6878  0.2575  0.7253
 9669SOL     OW29905   4.413   0.906   1.719  0.2046  0.3700  0.1988
 9669SOL    HW129906   4.316   0.880   1.709  0.1749  0.4034  0.4130
 9669SOL    HW229907   4.448   0.872   1.806  0.7071 -0.6699 -0.3765
 9670SOL     OW29908   0.411   6.441   4.965  0.5395 -0.0136 -0.1144
 9670SOL    HW129909   0.396   6.399   4.875  0.1327 -0.6407  0.2412
 9670SOL    HW229910   0.325   6.441   5.016  0.8515  0.0230  0.4114
 9671SOL     OW29911   3.758   6.400   3.650 -0.5399 -0.0056 -0.6361
 9671SOL    HW129912   3.740   6.491   3.687 -2.3970 -0.6173  0.1045
 9671SOL    HW229913   3.856   6.385   3.643 -0.1881  1.5890  0.3915
 9672SOL     OW29914   4.235   1.652   5.894 -0.1114 -0.7969 -0.1239
 9672SOL    HW129915   4.137   1.640   5.910 -0.5361  0.7950 -1.1806
 9672SOL    HW229916   4.251   1.671   5.797  0.9207  1.3989  0.3979
 9673SOL     OW29917   6.208   2.956   3.330 -0.6748 -0.2292 -0.1697
 9673SOL    HW129918   6.196   3.020   3.255 -0.2005  0.4018  0.2778
 9673SOL    HW229919   6.255   2.874   3.298 -0.4922  0.0294 -0.5586
 9674SOL     OW29920   5.370   5.295   5.135 -0.3128  0.1302 -0.4509
 9674SOL    HW129921   5.347   5.199   5.117  0.4981  0.2681 -2.4454
 9674SOL    HW229922   5.444   5.323   5.075  0.5579  1.5837  1.2194
 9675SOL     OW29923   1.948   1.953   1.417 -0.1687  0.2099 -0.0007
 9675SOL    HW129924   1.970   1.868   1.464 -0.3372  0.8875  1.3512
 9675SOL    HW229925   1.955   1.939   1.318  0.2873 -1.2266  0.2091
 9676SOL     OW29926   6.813   4.616   5.646 -0.3601 -0.4909 -0.0406
 9676SOL    HW129927   6.717   4.645   5.649 -0.5810 -1.0180 -1.2721
 9676SOL    HW229928   6.865   4.682   5.591  0.0089 -0.1679  0.6851
 9677SOL     OW29929   0.777   1.716   4.163  0.4428 -0.4402 -0.5607
 9677SOL    HW129930   0.800   1.635   4.110 -0.1696 -0.8179 -0.2596
 9677SOL    HW229931   0.755   1.791   4.102 -0.1558 -0.8409 -0.8498
 9678SOL     OW29932   6.873   1.883   6.096  0.2429  0.1238 -0.0499
 9678SOL    HW129933   6.864   1.955   6.165 -0.2079  0.7013 -0.7080
 9678SOL    HW229934   6.809   1.809   6.117  0.6471 -0.0588  0.5772
 9679SOL     OW29935   6.948   4.894   3.129  0.4723  0.5216 -0.2717
 9679SOL    HW129936   7.027   4.934   3.175 -0.1801  0.5950  0.8409
 9679SOL    HW229937   6.882   4.967   3.108 -0.5828  0.1380  1.4797
 9680SOL     OW29938   4.651   4.356   4.251  0.0863  0.0386  0.1072
 9680SOL    HW129939   4.575   4.418   4.229 -0.6661 -0.9116 -0.0212
 9680SOL    HW229940   4.664   4.352   4.350  0.5287  0.8490  0.0890
 9681SOL     OW29941   1.261   0.537   6.635 -0.2942 -0.3029 -0.0303
 9681SOL    HW129942   1.215   0.462   6.682  0.6529 -0.9861 -0.1551
 9681SOL    HW229943   1.231   0.624   6.674 -1.2762 -0.7428  0.2355
 9682SOL     OW29944   5.819   1.516   6.179  0.1574 -0.1777 -0.0049
 9682SOL    HW129945   5.788   1.609   6.159  0.9548 -0.0267 -0.5801
 9682SOL    HW229946   5.755   1.473   6.243 -0.6937  0.4595 -0.4015
 9683SOL     OW29947   1.539   3.254   0.032 -0.4227 -0.6005 -0.0690
 9683SOL    HW129948   1.616   3.193   0.050 -0.9422 -1.5827 -0.9971
 9683SOL    HW229949   1.465   3.202  -0.011 -1.7395  0.2512  1.0834
 9684SOL     OW29950   3.335   6.982   3.506 -0.4425 -0.3374 -0.5848
 9684SOL    HW129951   3.325   7.067   3.455  0.5054 -1.1320 -2.1699
 9684SOL    HW229952   3.272   6.914   3.469  1.4490 -1.4439 -1.9274
 9685SOL     OW29953   2.373   2.305   4.445  0.2109 -1.0772 -0.1903
 9685SOL    HW129954   2.462   2.315   4.488 -0.0740 -0.2874  0.2289
 9685SOL    HW229955   2.308   2.270   4.512 -0.2526  0.2245  0.0678
 9686SOL     OW29956   3.665   0.396   6.316 -0.9296  0.9229  0.1347
 9686SOL    HW129957   3.633   0.490   6.301  0.5116  1.4482  0.1879
 9686SOL    HW229958   3.595   0.345   6.366 -2.1885  1.6482 -0.8179
 9687SOL     OW29959   2.605   5.734   1.195  0.0481  0.4152  0.5036
 9687SOL    HW129960   2.507   5.729   1.176  0.2189 -3.5455 -0.1702
 9687SOL    HW229961   2.653   5.767   1.113 -0.5971  0.9431  0.3340
 9688SOL     OW29962   5.320   0.367   0.096  0.2270 -0.0253 -0.9240
 9688SOL    HW129963   5.295   0.370  -0.001 -1.8592  0.9157 -0.3989
 9688SOL    HW229964   5.329   0.460   0.131  0.6793 -0.3574 -0.1289
 9689SOL     OW29965   5.995   4.087   3.343  0.1942  0.2403 -0.4905
 9689SOL    HW129966   5.948   4.003   3.317 -1.2932  0.2020  2.0023
 9689SOL    HW229967   6.093   4.077   3.325  0.2703 -2.6195  0.9320
 9690SOL     OW29968   0.380   3.545   3.035 -0.1801  0.6975  0.3161
 9690SOL    HW129969   0.394   3.637   3.069 -0.3066  0.7260  0.2934
 9690SOL    HW229970   0.444   3.482   3.079  0.5230  0.9468 -0.3436
 9691SOL     OW29971   2.494   3.525   0.944  0.0836 -0.0813 -0.1542
 9691SOL    HW129972   2.502   3.498   0.848  0.6054  0.9836 -0.4248
 9691SOL    HW229973   2.446   3.454   0.995 -0.0043 -0.7568 -1.1589
 9692SOL     OW29974   0.778   4.846   3.560 -0.1909  0.0038  0.5405
 9692SOL    HW129975   0.744   4.908   3.630  1.2382  0.8251  0.5482
 9692SOL    HW229976   0.867   4.809   3.588  0.3993  0.3283 -0.7975
 9693SOL     OW29977   2.160   3.500   4.830 -0.3442 -0.3064 -0.0392
 9693SOL    HW129978   2.246   3.550   4.823 -0.6246  0.1191 -0.5281
 9693SOL    HW229979   2.098   3.547   4.892 -0.3088 -0.4924  0.1383
 9694SOL     OW29980   6.272   4.218   2.048  0.6288 -0.1559  0.0918
 9694SOL    HW129981   6.244   4.271   2.128 -2.0870 -0.7572 -0.3837
 9694SOL    HW229982   6.268   4.120   2.070  0.1463 -0.3156 -0.6968
 9695SOL     OW29983   3.030   6.241   3.483 -0.0242  0.7609  0.0920
 9695SOL    HW129984   3.090   6.162   3.495  0.2933  1.1366  1.0930
 9695SOL    HW229985   2.941   6.211   3.451  0.2474  0.0537 -0.0226
 9696SOL     OW29986   5.989   6.893   2.022  0.1761  0.5538 -0.0620
 9696SOL    HW129987   5.892   6.909   2.038 -0.0135  1.3560 -1.8472
 9696SOL    HW229988   6.001   6.835   1.942  1.1841  1.3292 -0.5005
 9697SOL     OW29989   6.710   0.114   0.378  0.2826 -0.0647 -0.1968
 9697SOL    HW129990   6.646   0.098   0.454  0.2471 -1.1352 -0.4399
 9697SOL    HW229991   6.775   0.037   0.373  2.9904  1.9170  1.3922
 9698SOL     OW29992   6.071   6.435   1.213  0.3076  0.0766  0.0320
 9698SOL    HW129993   6.117   6.393   1.135 -1.4064 -3.7669  0.8477
 9698SOL    HW229994   5.984   6.474   1.184 -0.1413 -0.9883 -0.1170
 9699SOL     OW29995   5.435   2.458   6.837 -0.1972  0.4232 -0.0870
 9699SOL    HW129996   5.502   2.435   6.766 -0.4702  1.5579 -0.7423
 9699SOL    HW229997   5.457   2.409   6.921  0.6468 -0.2760 -0.7022
 9700SOL     OW29998   1.628   3.779   1.130 -0.1293  0.5377 -0.3653
 9700SOL    HW129999   1.628   3.869   1.175 -1.8569  1.5881 -2.3004
 9700SOL    HW230000   1.539   3.763   1.087  1.1376 -0.7106 -2.7073
 9701SOL     OW30001   3.195   6.124   5.975 -0.3194  0.1633  0.1588
 9701SOL    HW130002   3.213   6.026   5.968  1.1152  0.5230 -2.2250
 9701SOL    HW230003   3.201   6.152   6.071 -0.0109 -1.9217  0.7981
 9702SOL     OW30004   6.499   6.410   5.852 -1.0577  0.0915 -0.0286
 9702SOL    HW130005   6.584   6.369   5.818 -1.9536 -0.9650 -1.1107
 9702SOL    HW230006   6.520   6.476   5.924  0.7394  0.4827 -0.8480
 9703SOL     OW30007   5.070   0.209   5.644  0.1217  0.4301 -0.0214
 9703SOL    HW130008   5.033   0.237   5.555  1.1300 -1.2520 -1.0158
 9703SOL    HW230009   4.997   0.212   5.712 -1.5955 -1.5247 -1.6259
 9704SOL     OW30010   2.325   2.194   2.714  0.5715 -0.2610 -0.3394
 9704SOL    HW130011   2.381   2.113   2.700 -0.1693 -0.8671  0.1465
 9704SOL    HW230012   2.326   2.220   2.810 -1.9323 -1.7840  0.1952
 9705SOL     OW30013   6.531   3.702   6.535 -0.4021  0.2385 -0.2509
 9705SOL    HW130014   6.584   3.735   6.457  0.6203  0.6845  0.6058
 9705SOL    HW230015   6.518   3.777   6.600  1.8122 -0.9184  1.6611
 9706SOL     OW30016   6.926   0.770   3.746  0.5632 -0.2102 -0.0329
 9706SOL    HW130017   6.842   0.795   3.698 -0.3355 -2.3706  0.3320
 9706SOL    HW230018   6.979   0.707   3.689 -0.9388 -3.5332  1.9802
 9707SOL     OW30019   0.662   1.422   5.625 -0.2940  0.7968 -0.0531
 9707SOL    HW130020   0.758   1.398   5.637 -0.3558  0.4452 -0.2493
 9707SOL    HW230021   0.642   1.433   5.527 -0.6001  0.2343 -0.0609
 9708SOL     OW30022   4.276   6.412   2.691 -0.6193 -0.0941 -0.8821
 9708SOL    HW130023   4.205   6.465   2.737 -1.5593 -1.3259 -0.8447
 9708SOL    HW230024   4.363   6.461   2.695 -1.1635  0.8250  0.2949
 9709SOL     OW30025   1.617   0.815   3.905 -0.0774 -0.1861 -0.0319
 9709SOL    HW130026   1.714   0.807   3.883 -0.3487 -0.0890 -1.3718
 9709SOL    HW230027   1.573   0.875   3.838 -1.6404 -2.5972 -1.3296
 9710SOL     OW30028   4.746   6.237   0.079 -0.4466 -0.1814  0.6279
 9710SOL    HW130029   4.840   6.229   0.110  0.0907 -0.3106 -0.9731
 9710SOL    HW230030   4.689   6.169   0.126  0.6601 -1.4885  0.1268
 9711SOL     OW30031   4.060   4.734   5.984  0.2629 -0.1907 -0.0377
 9711SOL    HW130032   4.139   4.672   5.984  1.4229  1.2346  0.3720
 9711SOL    HW230033   4.022   4.739   5.892  2.2062  0.9538 -0.8368
 9712SOL     OW30034   5.893   1.786   0.323 -0.6429 -0.5058  0.3786
 9712SOL    HW130035   5.836   1.720   0.273  1.3292 -0.7143 -1.7685
 9712SOL    HW230036   5.983   1.747   0.339  0.9429  1.9279 -1.8628
 9713SOL     OW30037   3.414   3.558   2.909 -0.1176  0.8644 -0.0364
 9713SOL    HW130038   3.361   3.584   2.828 -0.7800  3.3425  1.1147
 9713SOL    HW230039   3.446   3.464   2.898 -1.8795  0.4270 -2.2724
 9714SOL     OW30040   6.675   0.859   3.658  0.0319 -0.0673 -0.2887
 9714SOL    HW130041   6.622   0.847   3.575  0.5724 -1.5385 -0.4488
 9714SOL    HW230042   6.640   0.799   3.730 -0.1120  0.8146  0.4019
 9715SOL     OW30043   3.408   1.708   1.775 -0.7055  0.2080 -0.2434
 9715SOL    HW130044   3.420   1.799   1.734  0.5053  1.1564  2.0290
 9715SOL    HW230045   3.495   1.660   1.774 -1.1399 -0.5835 -0.6128
 9716SOL     OW30046   4.236   4.069   5.695  0.1451 -0.4575  0.4175
 9716SOL    HW130047   4.153   4.120   5.671 -0.3702 -0.4367  2.0976
 9716SOL    HW230048   4.226   3.974   5.666 -0.5809 -0.5055  0.7987
 9717SOL     OW30049   0.316   0.895   0.481  0.3876 -0.1385 -0.3503
 9717SOL    HW130050   0.351   0.809   0.517  1.8207 -0.5622 -2.5427
 9717SOL    HW230051   0.328   0.967   0.549  2.2368 -1.0373  0.3418
 9718SOL     OW30052   4.799   5.485   0.678 -0.0003 -0.0472 -0.1642
 9718SOL    HW130053   4.865   5.411   0.667 -0.3451 -0.2845 -0.7237
 9718SOL    HW230054   4.760   5.482   0.770 -0.8456 -1.2890 -0.5400
 9719SOL     OW30055   0.555   0.293   3.040 -0.1944  0.1913  0.3524
 9719SOL    HW130056   0.616   0.320   3.114  1.2218  0.1577 -0.7441
 9719SOL    HW230057   0.587   0.207   3.000 -0.2133  0.7948 -1.0370
 9720SOL     OW30058   3.353   0.931   1.371  0.4866 -0.0068  0.0519
 9720SOL    HW130059   3.275   0.994   1.365  1.3759  1.1476  0.0849
 9720SOL    HW230060   3.350   0.882   1.458  0.8177  1.4847  0.9462
 9721SOL     OW30061   3.421   4.142   6.586  0.1320 -0.5051  0.5158
 9721SOL    HW130062   3.424   4.098   6.496  0.4789  0.6988 -0.0717
 9721SOL    HW230063   3.453   4.236   6.578 -0.4175 -0.1989  1.7920
 9722SOL     OW30064   3.204   3.956   5.357 -0.1230  0.0586  0.4587
 9722SOL    HW130065   3.244   3.995   5.440  0.5032 -1.1392  0.7327
 9722SOL    HW230066   3.151   4.027   5.310  1.7818  1.5583  0.4098
 9723SOL     OW30067   1.792   4.126   6.783  0.1169  0.1382  0.3578
 9723SOL    HW130068   1.741   4.212   6.785  0.6252  0.4358  0.8310
 9723SOL    HW230069   1.729   4.049   6.790 -0.3602  0.4636 -0.2851
 9724SOL     OW30070   4.202   5.944   0.305  0.6261  0.0565  0.4440
 9724SOL    HW130071   4.223   6.040   0.326  1.6099 -0.1423  0.4371
 9724SOL    HW230072   4.229   5.924   0.211 -1.6662  0.3477 -0.3140
 9725SOL     OW30073   2.186   3.801   5.121  1.0853  0.0344 -0.1225
 9725SOL    HW130074   2.243   3.758   5.191  1.6166  1.1452  0.1550
 9725SOL    HW230075   2.226   3.889   5.096  0.4175  0.0490 -1.1925
 9726SOL     OW30076   3.279   0.064   0.633  0.2954 -0.5705  0.0584
 9726SOL    HW130077   3.215   0.125   0.679 -0.2385  0.4853 -1.9515
 9726SOL    HW230078   3.230  -0.017   0.600  0.6822 -1.3423  1.3318
 9727SOL     OW30079   6.122   1.085   1.166  0.0715  0.3218  0.6319
 9727SOL    HW130080   6.199   1.021   1.160 -0.9395 -0.8413 -0.7431
 9727SOL    HW230081   6.065   1.062   1.245 -0.7072 -1.0262 -0.2837
 9728SOL     OW30082   6.211   3.604   4.212  0.3962 -0.2351  0.2274
 9728SOL    HW130083   6.220   3.509   4.242  0.4258  0.1460  1.4550
 9728SOL    HW230084   6.168   3.659   4.284  0.7154  0.7626 -0.3149
 9729SOL     OW30085   3.855   2.623   5.551  0.0022 -0.3494  0.3146
 9729SOL    HW130086   3.928   2.664   5.497  0.0154 -1.5273 -0.6138
 9729SOL    HW230087   3.786   2.692   5.571  1.9637  1.1366  2.3839
 9730SOL     OW30088   6.471   4.863   4.183  0.4031 -0.0954  0.0183
 9730SOL    HW130089   6.447   4.789   4.120  0.1022 -0.0996  0.1358
 9730SOL    HW230090   6.459   4.951   4.137  1.7518 -0.1374 -0.4632
 9731SOL     OW30091   3.351   2.214   6.742 -0.0060  0.6527  0.7131
 9731SOL    HW130092   3.391   2.124   6.722  0.5269  0.8436  0.9017
 9731SOL    HW230093   3.391   2.251   6.826 -0.2139  1.0727  0.6311
 9732SOL     OW30094   3.504   4.182   1.721 -1.1184 -0.0722  0.2258
 9732SOL    HW130095   3.556   4.260   1.685  0.6597 -1.0148  0.6401
 9732SOL    HW230096   3.446   4.144   1.649  0.5853 -0.4419 -1.0107
 9733SOL     OW30097   5.379   2.547   5.185 -0.4954  0.2229 -0.5658
 9733SOL    HW130098   5.420   2.620   5.130  1.4221 -0.8519 -0.6734
 9733SOL    HW230099   5.357   2.582   5.276  0.0131  1.0540 -0.7514
 9734SOL     OW30100   0.557   0.045   2.622  0.0698  0.0061 -0.6130
 9734SOL    HW130101   0.565   0.037   2.523  0.8191  0.5384 -0.6060
 9734SOL    HW230102   0.631   0.103   2.657 -0.0624 -0.3422  0.2795
 9735SOL     OW30103   5.941   1.425   2.494 -0.3233  0.1508  0.3280
 9735SOL    HW130104   5.896   1.389   2.576 -0.1402 -2.0593 -0.4669
 9735SOL    HW230105   5.872   1.444   2.424 -0.3719  0.7802  0.5476
 9736SOL     OW30106   6.916   0.403   2.138  0.7497 -0.4505  0.3000
 9736SOL    HW130107   6.837   0.405   2.199  1.2189 -0.7638  0.9413
 9736SOL    HW230108   6.900   0.339   2.063  0.1475 -0.0316  0.0709
 9737SOL     OW30109   0.427   0.214   3.542 -0.3631  0.1023 -0.7471
 9737SOL    HW130110   0.501   0.240   3.480  0.1681  0.0369 -0.1589
 9737SOL    HW230111   0.339   0.232   3.499 -0.0077  1.3223 -1.0016
 9738SOL     OW30112   3.951   5.095   3.274  0.8810 -0.6200 -0.2538
 9738SOL    HW130113   4.047   5.090   3.249  0.8597 -2.5493 -0.0481
 9738SOL    HW230114   3.928   5.020   3.336 -0.5075  0.4552  0.6075
 9739SOL     OW30115   1.275   0.104   0.426  0.1275  0.1964  0.5132
 9739SOL    HW130116   1.235   0.040   0.361  0.5466 -0.2912  0.7303
 9739SOL    HW230117   1.233   0.195   0.414 -0.1634 -0.0135 -0.0769
 9740SOL     OW30118   2.719   1.978   2.612  0.5624 -0.3326 -0.1404
 9740SOL    HW130119   2.775   2.059   2.632  0.9225 -0.5423 -0.2903
 9740SOL    HW230120   2.778   1.905   2.576  0.2320 -0.6491 -0.0385
 9741SOL     OW30121   1.868   3.862   3.611  0.8227  0.1072  0.4073
 9741SOL    HW130122   1.839   3.818   3.525 -1.7913 -0.5104  1.4829
 9741SOL    HW230123   1.878   3.960   3.596 -2.7739  0.5690 -0.0772
 9742SOL     OW30124   0.001   5.098   3.396 -0.0219  0.1763  0.0676
 9742SOL    HW130125   0.018   5.011   3.443  1.5092  0.9326  0.9721
 9742SOL    HW230126   0.048   5.097   3.307  1.5241  0.7189  0.8407
 9743SOL     OW30127   1.491   3.070   6.686 -0.0835  0.5446 -0.0889
 9743SOL    HW130128   1.546   3.074   6.770 -1.0731  0.9218  0.5595
 9743SOL    HW230129   1.465   3.162   6.659  0.1873  0.4168 -0.7913
 9744SOL     OW30130   4.674   3.973   5.270 -0.1774 -0.1222  0.5260
 9744SOL    HW130131   4.718   4.026   5.198  2.1878 -1.3753  0.9387
 9744SOL    HW230132   4.597   4.025   5.308  1.0752  2.3480 -0.0982
 9745SOL     OW30133   4.487   5.384   0.524 -0.2220  0.1184  0.2601
 9745SOL    HW130134   4.503   5.475   0.487 -1.0160  0.9037  1.7805
 9745SOL    HW230135   4.392   5.357   0.507 -0.0446 -0.3616 -0.0114
 9746SOL     OW30136   4.566   1.140   6.066 -0.0376  0.4322  0.0934
 9746SOL    HW130137   4.513   1.127   5.983  0.3294 -2.0861  0.1764
 9746SOL    HW230138   4.656   1.098   6.055 -0.0880 -0.2155  1.8300
 9747SOL     OW30139   5.049   6.351   5.438  0.3240  0.0675  0.1269
 9747SOL    HW130140   4.974   6.364   5.502  0.4346 -0.1000  0.2909
 9747SOL    HW230141   5.082   6.256   5.444  1.2383  0.4133  0.8190
 9748SOL     OW30142   4.231   6.175   1.551  0.5197  0.0703  0.0119
 9748SOL    HW130143   4.132   6.188   1.548  0.6508  0.9637 -1.3161
 9748SOL    HW230144   4.254   6.085   1.514  0.2001 -0.1746  0.4062
 9749SOL     OW30145   1.700   3.253   6.595 -0.2958 -0.2933  0.2247
 9749SOL    HW130146   1.762   3.213   6.527 -0.2973  0.7822 -0.4420
 9749SOL    HW230147   1.665   3.340   6.560 -0.5533  0.1261  1.4794
 9750SOL     OW30148   5.898   2.603   0.222 -0.4499  0.2845  0.2136
 9750SOL    HW130149   5.825   2.668   0.202 -0.9061 -0.7774 -1.6983
 9750SOL    HW230150   5.861   2.512   0.234  0.2355  0.2356  2.5353
 9751SOL     OW30151   6.956   0.065   0.567  0.1336 -0.2914  0.6704
 9751SOL    HW130152   7.050   0.096   0.576  0.7896 -1.3388 -1.6816
 9751SOL    HW230153   6.907   0.125   0.503 -0.0909 -1.0354  0.1241
 9752SOL     OW30154   4.954   1.546   1.511 -0.0833  0.1911 -0.0440
 9752SOL    HW130155   5.038   1.497   1.488  1.0896  2.1494 -0.0830
 9752SOL    HW230156   4.910   1.578   1.428  0.8255  1.8554  0.0819
 9753SOL     OW30157   3.765   0.279   0.909  0.2829 -0.6361  0.2900
 9753SOL    HW130158   3.847   0.243   0.865  1.2326 -0.9149  2.1596
 9753SOL    HW230159   3.733   0.360   0.860  1.9367 -0.2582 -0.2287
 9754SOL     OW30160   3.084   0.372   2.537 -0.6812  0.5716 -0.4099
 9754SOL    HW130161   3.112   0.277   2.522  4.7183  2.0303 -1.7643
 9754SOL    HW230162   3.052   0.411   2.450 -1.0100  0.4860 -0.3264
 9755SOL     OW30163   4.156   5.989   3.542 -0.3824  0.6229 -0.5203
 9755SOL    HW130164   4.106   5.948   3.466 -0.3323 -2.3404  0.8681
 9755SOL    HW230165   4.112   5.964   3.628  1.6128  0.6917  0.5850
 9756SOL     OW30166   6.463   4.622   1.949  0.2826  0.4034 -0.0081
 9756SOL    HW130167   6.385   4.625   2.011  0.3383  3.0832  0.0561
 9756SOL    HW230168   6.437   4.573   1.865 -0.4135 -1.4943  1.2613
 9757SOL     OW30169   0.698   3.374   6.750 -0.0103  0.1432 -0.3135
 9757SOL    HW130170   0.641   3.421   6.681  0.1753  0.2374 -0.4033
 9757SOL    HW230171   0.720   3.439   6.823 -0.1943  0.0472 -0.1726
 9758SOL     OW30172   6.484   6.704   1.739 -0.0746 -0.1957  0.2539
 9758SOL    HW130173   6.392   6.685   1.706 -0.6089  2.3678  0.1066
 9758SOL    HW230174   6.551   6.669   1.673 -0.9238 -1.7387  0.1825
 9759SOL     OW30175   5.446   5.788   3.306 -0.0057 -0.1260  0.4464
 9759SOL    HW130176   5.399   5.864   3.351 -0.2959 -0.1782  0.2312
 9759SOL    HW230177   5.383   5.711   3.296 -0.0072 -0.0433 -0.2384
 9760SOL     OW30178   5.773   4.066   0.854  0.3102 -0.3450  0.1848
 9760SOL    HW130179   5.816   4.156   0.845 -1.7216  0.9932  2.6531
 9760SOL    HW230180   5.829   4.008   0.913  0.5058  0.0862  0.4236
 9761SOL     OW30181   0.161   5.471   5.747 -0.1248 -0.3925  0.1582
 9761SOL    HW130182   0.226   5.395   5.744  0.8625  0.4051  0.6398
 9761SOL    HW230183   0.150   5.503   5.841 -0.5748  0.0185 -0.0247
 9762SOL     OW30184   0.642   3.189   6.255 -0.5486  0.4114  0.2929
 9762SOL    HW130185   0.672   3.114   6.315 -0.3012  1.0733  1.0216
 9762SOL    HW230186   0.714   3.210   6.190 -0.5038  0.2081  0.2750
 9763SOL     OW30187   1.130   4.199   0.435 -0.7324 -0.2215 -0.5260
 9763SOL    HW130188   1.143   4.179   0.338 -0.1302  0.6301 -0.6263
 9763SOL    HW230189   1.045   4.251   0.448 -0.3479  0.4627 -0.7112
 9764SOL     OW30190   5.447   3.104   0.869 -0.3178  0.0702 -0.3726
 9764SOL    HW130191   5.433   3.104   0.770 -1.4119 -0.5629 -0.2393
 9764SOL    HW230192   5.425   3.013   0.906  1.0854 -0.0083  0.3256
 9765SOL     OW30193   6.472   4.221   0.035 -0.3250  0.1163  0.4942
 9765SOL    HW130194   6.458   4.319   0.047 -2.2346 -0.1884  1.1076
 9765SOL    HW230195   6.479   4.177   0.124 -0.4546 -0.4092  0.2508
 9766SOL     OW30196   6.522   0.736   4.508 -0.0937  0.5165 -0.4789
 9766SOL    HW130197   6.439   0.787   4.526  0.4968  1.0139  1.0530
 9766SOL    HW230198   6.500   0.651   4.460 -1.7745 -0.4016  1.7398
 9767SOL     OW30199   6.745   0.005   6.070 -0.4733 -0.3614 -0.0157
 9767SOL    HW130200   6.685   0.083   6.053 -0.0896 -0.1478 -0.4319
 9767SOL    HW230201   6.802   0.024   6.149 -1.4106 -0.8448  0.7974
 9768SOL     OW30202   4.207   4.424   6.653  0.1645  0.1715  0.0580
 9768SOL    HW130203   4.163   4.461   6.735  1.2509  0.5569  0.4907
 9768SOL    HW230204   4.137   4.394   6.588 -0.7400  1.6069  0.3239
 9769SOL     OW30205   1.643   1.152   6.072 -0.0619 -0.1323  0.7377
 9769SOL    HW130206   1.667   1.101   5.989 -0.9318  2.2393 -1.0877
 9769SOL    HW230207   1.564   1.108   6.115  0.4760 -1.4865  0.4027
 9770SOL     OW30208   0.657   4.055   4.388  0.1389  0.5907  0.1003
 9770SOL    HW130209   0.676   4.143   4.431 -0.2871  1.8708 -2.1813
 9770SOL    HW230210   0.600   3.999   4.449  0.5190  1.8195  1.6360
 9771SOL     OW30211   3.079   4.924   2.906  0.1880 -0.3572 -0.4724
 9771SOL    HW130212   3.073   4.899   3.002 -1.1540  2.7028  0.3566
 9771SOL    HW230213   3.172   4.909   2.873  0.6805 -1.3997  1.2719
 9772SOL     OW30214   5.372   0.110   4.358 -0.1676  1.0893  0.2497
 9772SOL    HW130215   5.435   0.187   4.362  1.9649 -0.6195  1.6497
 9772SOL    HW230216   5.353   0.087   4.262 -0.4070  2.9397 -0.1858
 9773SOL     OW30217   6.233   5.263   5.368 -0.0521 -0.4226  0.3225
 9773SOL    HW130218   6.200   5.300   5.455 -1.3345 -0.7041 -0.0192
 9773SOL    HW230219   6.188   5.311   5.293  2.0427  0.7537 -0.2558
 9774SOL     OW30220   6.519   6.880   6.045 -0.3364 -0.5468  0.0840
 9774SOL    HW130221   6.596   6.931   6.084 -0.1823 -1.2404  0.6948
 9774SOL    HW230222   6.488   6.927   5.962  0.3095  0.1072  0.1958
 9775SOL     OW30223   2.314   4.508   6.463  0.2520  1.2408 -0.4570
 9775SOL    HW130224   2.221   4.482   6.436 -0.2516  0.7018  1.5784
 9775SOL    HW230225   2.354   4.568   6.393 -0.5030 -0.8097 -2.7956
 9776SOL     OW30226   0.228   6.371   2.155  0.0919 -0.0883  0.0234
 9776SOL    HW130227   0.140   6.323   2.151  0.2080 -0.3298  0.3072
 9776SOL    HW230228   0.237   6.432   2.076 -0.5993  0.4140  0.3263
 9777SOL     OW30229   6.284   3.998   2.997  0.7514  0.2974  0.1775
 9777SOL    HW130230   6.381   4.010   2.978  0.5715  0.7185 -0.5035
 9777SOL    HW230231   6.268   4.005   3.096  0.8727  4.4447  0.0664
 9778SOL     OW30232   5.757   2.812   3.944 -0.0259 -0.0659  0.1783
 9778SOL    HW130233   5.821   2.827   3.869 -1.8210 -2.8649 -2.1388
 9778SOL    HW230234   5.802   2.761   4.017  1.0277  0.1940 -0.2693
 9779SOL     OW30235   5.553   4.583   3.034 -0.2725  0.3877 -0.1494
 9779SOL    HW130236   5.573   4.549   3.126 -0.1139 -1.1550 -0.7248
 9779SOL    HW230237   5.622   4.550   2.970 -0.5684  1.1627 -0.8954
 9780SOL     OW30238   5.008   3.725   1.253  0.3422  0.4420 -0.5608
 9780SOL    HW130239   5.092   3.750   1.204  0.6067 -0.9468 -0.8708
 9780SOL    HW230240   4.968   3.644   1.209  0.5201 -0.7874  1.4403
 9781SOL     OW30241   1.009   3.397   5.704  0.4558 -0.2998 -0.4271
 9781SOL    HW130242   0.985   3.342   5.783  1.2163 -0.7254 -0.4782
 9781SOL    HW230243   1.102   3.433   5.715  1.2312 -1.7260 -1.8185
 9782SOL     OW30244   0.831   1.297   4.834 -0.0851  0.4220  0.1132
 9782SOL    HW130245   0.755   1.278   4.895 -1.1887  0.2460 -1.2618
 9782SOL    HW230246   0.810   1.379   4.779  1.0288  0.7912  0.2154
 9783SOL     OW30247   6.981   4.406   4.173 -0.6251 -0.0224  0.3586
 9783SOL    HW130248   7.031   4.492   4.166 -1.4626  0.4425  0.0250
 9783SOL    HW230249   6.901   4.418   4.231 -1.7324 -0.0904 -1.0930
 9784SOL     OW30250   3.175   5.606   3.399  0.0907  0.0242 -0.3406
 9784SOL    HW130251   3.087   5.561   3.415 -0.2338  0.5300 -0.6614
 9784SOL    HW230252   3.230   5.550   3.337  0.3564 -0.7236  0.5424
 9785SOL     OW30253   2.736   5.697   5.369 -0.0388 -0.2253  0.4074
 9785SOL    HW130254   2.763   5.672   5.462  0.3974 -0.0374  0.3324
 9785SOL    HW230255   2.669   5.631   5.335  1.8445 -1.9142 -0.1687
 9786SOL     OW30256   0.818   5.435   5.013  0.1861  0.2736 -0.0812
 9786SOL    HW130257   0.832   5.463   4.918  0.8211 -1.2544 -0.4708
 9786SOL    HW230258   0.721   5.416   5.028  0.0340  0.8234 -0.3174
 9787SOL     OW30259   3.888   0.929   4.173 -0.4971 -0.0569 -0.2528
 9787SOL    HW130260   3.958   0.926   4.102  1.1210  1.4001  1.1760
 9787SOL    HW230261   3.890   0.844   4.225  1.4812  0.5803  0.8337
 9788SOL     OW30262   5.733   1.589   0.192  0.0206  0.2096  0.2589
 9788SOL    HW130263   5.640   1.588   0.157  0.4413 -0.4199 -0.8884
 9788SOL    HW230264   5.782   1.508   0.160  1.3704  1.2070 -0.3198
 9789SOL     OW30265   2.839   5.123   2.468 -0.4737 -0.0929 -0.0683
 9789SOL    HW130266   2.840   5.064   2.388 -0.8714  0.4876 -0.5169
 9789SOL    HW230267   2.766   5.191   2.458 -2.3094 -1.6151  1.9801
 9790SOL     OW30268   5.186   4.514   3.100 -0.8663  0.1246 -0.2060
 9790SOL    HW130269   5.231   4.576   3.036  0.3031 -0.5064 -0.0178
 9790SOL    HW230270   5.087   4.520   3.087 -0.8462  2.4780  0.2294
 9791SOL     OW30271   6.488   1.701   4.936  0.3435  0.4898 -1.0119
 9791SOL    HW130272   6.496   1.770   5.009  0.9932 -2.1972  1.6657
 9791SOL    HW230273   6.438   1.622   4.971  0.5355 -0.8615 -3.5915
 9792SOL     OW30274   4.704   4.945   2.816 -0.7694 -0.2659  0.7875
 9792SOL    HW130275   4.657   4.896   2.890 -0.1796 -1.3952  0.4411
 9792SOL    HW230276   4.637   4.993   2.760 -1.3552 -0.5728  1.2112
 9793SOL     OW30277   0.563   1.521   0.536 -0.4262  0.2519 -0.0143
 9793SOL    HW130278   0.498   1.587   0.498 -0.2926  0.0353 -0.6425
 9793SOL    HW230279   0.524   1.429   0.532  0.1548  0.0239 -1.0279
 9794SOL     OW30280   1.779   2.295   0.056 -0.3764 -0.1855 -0.3106
 9794SOL    HW130281   1.738   2.266   0.142 -0.0026 -1.7964 -0.6292
 9794SOL    HW230282   1.871   2.329   0.072 -0.7314  0.6253  0.0486
 9795SOL     OW30283   6.225   5.518   2.057  0.6118 -0.1345 -0.0567
 9795SOL    HW130284   6.234   5.548   2.152  0.3190  1.7466 -0.5723
 9795SOL    HW230285   6.200   5.597   2.000  1.9564 -0.9597 -1.8789
 9796SOL     OW30286   4.954   2.954   3.638 -0.0013 -0.5781 -0.1077
 9796SOL    HW130287   5.032   2.917   3.689 -0.3641 -0.4165  0.5638
 9796SOL    HW230288   4.892   2.879   3.614 -0.0206 -0.6003  0.0112
 9797SOL     OW30289   5.730   2.917   6.551  0.0689  0.3102  0.1047
 9797SOL    HW130290   5.780   2.860   6.485  1.1335 -0.0144  1.1503
 9797SOL    HW230291   5.791   2.944   6.625 -1.1703  0.4008  1.1369
 9798SOL     OW30292   0.904   3.644   0.678 -0.1045  0.1106 -0.0768
 9798SOL    HW130293   0.900   3.715   0.607  0.9335 -1.9426 -2.3182
 9798SOL    HW230294   0.852   3.564   0.649  0.0267 -0.6595  1.6825
 9799SOL     OW30295   2.428   5.998   1.485 -0.3943 -0.0881  1.0251
 9799SOL    HW130296   2.363   6.037   1.550 -2.3722 -0.8856 -0.3535
 9799SOL    HW230297   2.421   5.898   1.486 -1.6148 -0.1162 -1.3696
 9800SOL     OW30298   3.316   3.604   6.026 -0.0781 -0.3396 -0.0907
 9800SOL    HW130299   3.262   3.644   5.952  0.7475  0.4339 -0.3033
 9800SOL    HW230300   3.327   3.672   6.099 -0.8310 -1.0739  0.7294
 9801SOL     OW30301   3.725   4.098   6.408 -0.0925  0.1701  0.0957
 9801SOL    HW130302   3.748   4.075   6.503 -1.1198 -0.2304  0.2656
 9801SOL    HW230303   3.692   4.016   6.361 -1.4243  0.7461 -0.0261
 9802SOL     OW30304   4.865   4.079   2.690 -0.3319 -0.3592  0.2574
 9802SOL    HW130305   4.959   4.107   2.671  0.0312 -2.1132 -0.6917
 9802SOL    HW230306   4.848   4.085   2.789  0.8619 -0.2683  0.4711
 9803SOL     OW30307   2.045   6.216   5.276  0.0293 -0.5111  0.0757
 9803SOL    HW130308   1.999   6.145   5.221 -2.3817 -1.4898  3.0404
 9803SOL    HW230309   2.030   6.197   5.373  1.3110  2.8478  1.0595
 9804SOL     OW30310   6.414   1.799   2.902 -0.0536 -0.2264 -0.4622
 9804SOL    HW130311   6.431   1.702   2.884 -2.0152 -0.7692  0.2729
 9804SOL    HW230312   6.477   1.831   2.972  2.0369 -0.3419 -2.1766
 9805SOL     OW30313   4.186   4.687   3.320 -0.1505 -0.4349 -0.1815
 9805SOL    HW130314   4.241   4.605   3.305 -0.7012 -0.9515  0.5187
 9805SOL    HW230315   4.246   4.767   3.330  0.4029 -0.7936 -0.5992
 9806SOL     OW30316   3.732   6.304   5.532  0.0123  0.9594  0.6171
 9806SOL    HW130317   3.688   6.393   5.540  1.0890  1.4529  1.4073
 9806SOL    HW230318   3.693   6.241   5.598  0.2670  1.3077  1.1107
 9807SOL     OW30319   4.486   3.748   6.749  0.5873 -0.2169 -0.0638
 9807SOL    HW130320   4.514   3.653   6.739  1.4796  0.2279 -2.3514
 9807SOL    HW230321   4.406   3.766   6.692 -0.1087  0.2342  1.0162
 9808SOL     OW30322   5.732   1.455   6.773 -0.2960 -0.0847 -0.2427
 9808SOL    HW130323   5.763   1.416   6.860 -1.3255 -1.8187 -0.6076
 9808SOL    HW230324   5.703   1.382   6.712 -2.6266  1.2456 -0.8645
 9809SOL     OW30325   4.389   4.711   4.775  0.2865 -0.5086 -0.1280
 9809SOL    HW130326   4.351   4.637   4.831 -1.5407  0.3750 -0.1311
 9809SOL    HW230327   4.410   4.790   4.832 -1.6135  0.4069 -0.6231
 9810SOL     OW30328   5.910   2.949   6.729  0.3816 -0.1046 -0.2184
 9810SOL    HW130329   5.987   3.011   6.723 -0.2704  0.7664  0.2329
 9810SOL    HW230330   5.903   2.911   6.821  0.3529 -0.2894 -0.2951
 9811SOL     OW30331   5.156   1.190   4.574 -0.1400 -0.1852 -0.3602
 9811SOL    HW130332   5.232   1.198   4.509  0.6538 -1.5529  0.3564
 9811SOL    HW230333   5.070   1.210   4.526  0.6243  1.0444 -1.2660
 9812SOL     OW30334   1.063   4.084   3.641 -0.5018  0.2536  0.0468
 9812SOL    HW130335   1.042   4.120   3.550 -0.9440  0.1628  0.1111
 9812SOL    HW230336   0.984   4.096   3.700 -0.6903 -0.9178  0.0407
 9813SOL     OW30337   2.093   4.358   6.357  0.4758 -0.3238 -0.2469
 9813SOL    HW130338   2.038   4.277   6.338 -0.7626  0.5802 -0.6363
 9813SOL    HW230339   2.038   4.440   6.343  2.2876  0.7013 -1.9541
 9814SOL     OW30340   5.012   6.282   4.443 -0.0849 -0.0364 -0.9415
 9814SOL    HW130341   4.938   6.239   4.494 -2.4146  2.9842 -1.5103
 9814SOL    HW230342   5.023   6.237   4.355 -1.9316  0.0084 -1.2207
 9815SOL     OW30343   1.791   1.542   5.376  0.0132  0.0207 -0.4476
 9815SOL    HW130344   1.800   1.451   5.415 -1.2148  0.5101  1.1046
 9815SOL    HW230345   1.806   1.538   5.277 -0.0312 -1.8577 -0.4110
 9816SOL     OW30346   0.435   3.186   3.308  0.1567  0.1801  0.3167
 9816SOL    HW130347   0.476   3.172   3.398 -1.0418  0.4128  0.9169
 9816SOL    HW230348   0.350   3.134   3.301 -0.4239  1.1562 -0.2074
 9817SOL     OW30349   4.393   4.871   6.598 -0.6346 -0.0407 -0.3186
 9817SOL    HW130350   4.490   4.897   6.599 -0.1605 -1.6448 -0.4252
 9817SOL    HW230351   4.379   4.803   6.525 -1.8351  0.1481 -0.2679
 9818SOL     OW30352   6.887   3.003   2.154  0.3029 -0.6181 -0.0847
 9818SOL    HW130353   6.925   2.915   2.127 -1.9734 -1.4981 -0.6252
 9818SOL    HW230354   6.918   3.025   2.247  0.0282 -2.5510  0.5098
 9819SOL     OW30355   1.860   2.769   3.185  0.2737 -0.5826  0.3029
 9819SOL    HW130356   1.928   2.756   3.113 -0.4695 -0.9126 -0.3588
 9819SOL    HW230357   1.805   2.851   3.165 -0.6509 -1.2798 -0.1115
 9820SOL     OW30358   2.507   6.936   4.206 -0.1318  0.7822 -0.0358
 9820SOL    HW130359   2.559   6.968   4.126  0.7103  0.6880  0.4630
 9820SOL    HW230360   2.569   6.889   4.269 -0.8963  0.3585  0.4094
 9821SOL     OW30361   5.985   3.566   6.730  0.2584 -0.2929  0.1047
 9821SOL    HW130362   5.971   3.610   6.818  0.3244  0.4939 -0.2718
 9821SOL    HW230363   6.071   3.598   6.690  0.4167 -0.9261 -0.0876
 9822SOL     OW30364   3.202   0.382   6.113  0.0280 -0.5583  0.1212
 9822SOL    HW130365   3.171   0.420   6.200 -0.3721  1.1097 -0.7000
 9822SOL    HW230366   3.152   0.297   6.094 -1.2082  0.0205  0.6759
 9823SOL     OW30367   4.023   0.822   5.940 -0.7922  0.5564 -0.0464
 9823SOL    HW130368   4.012   0.770   5.855  0.7226  2.3722 -1.4314
 9823SOL    HW230369   4.108   0.794   5.985 -0.5029  1.0752 -0.2590
 9824SOL     OW30370   6.835   5.831   1.262  0.1388  0.0921 -0.0434
 9824SOL    HW130371   6.766   5.903   1.271  0.1343  0.5741 -3.0905
 9824SOL    HW230372   6.793   5.749   1.222  0.6545 -0.8456  1.2436
 9825SOL     OW30373   1.503   1.363   1.429  0.1341 -0.3103 -0.0424
 9825SOL    HW130374   1.509   1.420   1.511  1.6437  0.6264 -0.7721
 9825SOL    HW230375   1.417   1.382   1.381  0.4524  1.1108 -0.0867
 9826SOL     OW30376   0.648   0.256   3.350  0.2774  0.2402 -0.4717
 9826SOL    HW130377   0.713   0.231   3.422 -2.4810  1.9194  2.9787
 9826SOL    HW230378   0.657   0.353   3.330 -1.1149  0.5224  0.1379
 9827SOL     OW30379   5.575   3.417   4.766 -0.4707 -0.6926 -0.8307
 9827SOL    HW130380   5.548   3.513   4.764 -0.1749 -0.5015  1.4526
 9827SOL    HW230381   5.571   3.383   4.860  2.5958 -1.9686 -1.0372
 9828SOL     OW30382   4.723   2.531   2.161 -0.7854  0.0892 -0.0031
 9828SOL    HW130383   4.696   2.514   2.066 -0.4677  2.1787 -0.5276
 9828SOL    HW230384   4.759   2.624   2.169 -1.5179  0.2442  2.3306
 9829SOL     OW30385   3.356   0.444   6.477 -0.0882  0.2697 -0.0707
 9829SOL    HW130386   3.392   0.352   6.462 -1.0555 -0.0877 -0.2765
 9829SOL    HW230387   3.392   0.505   6.406 -0.0628 -0.1274 -0.4069
 9830SOL     OW30388   1.516   4.995   1.111 -0.2623 -0.1604  0.4170
 9830SOL    HW130389   1.529   5.087   1.074  0.6618 -0.8923 -1.2173
 9830SOL    HW230390   1.572   4.984   1.193  1.0866  0.1890 -0.4150
 9831SOL     OW30391   3.254   2.975   2.205 -0.0576 -0.1918  0.0830
 9831SOL    HW130392   3.177   3.035   2.227  1.1408  2.1619 -1.6874
 9831SOL    HW230393   3.228   2.911   2.134 -0.2939  0.9388 -0.8829
 9832SOL     OW30394   0.909   1.599   2.952  0.1739 -0.2443 -0.2040
 9832SOL    HW130395   0.872   1.679   3.000  0.6937 -1.3909  2.2529
 9832SOL    HW230396   0.839   1.528   2.946  0.3700 -0.4209 -0.4235
 9833SOL     OW30397   3.581   6.026   0.056  0.0369  0.0120  0.0119
 9833SOL    HW130398   3.577   5.927   0.063 -1.6489  0.1850  3.9414
 9833SOL    HW230399   3.658   6.052  -0.003  2.4091 -3.5929  1.1548
 9834SOL     OW30400   2.796   6.245   6.989 -0.3928 -0.3834  0.5903
 9834SOL    HW130401   2.791   6.329   6.936 -0.7920 -0.0291  1.1770
 9834SOL    HW230402   2.778   6.265   7.085  2.5050 -0.6549  1.2688
 9835SOL     OW30403   4.658   2.039   6.905  0.4389 -0.1516 -0.0338
 9835SOL    HW130404   4.623   1.972   6.970  0.3514 -1.6152 -1.5254
 9835SOL    HW230405   4.758   2.043   6.910  0.5956 -1.7838 -1.1832
 9836SOL     OW30406   6.414   2.821   2.553 -0.3372  0.1508  0.6927
 9836SOL    HW130407   6.411   2.722   2.566  2.2825  0.1708  2.3748
 9836SOL    HW230408   6.466   2.842   2.470 -0.3018  0.1177  0.7067
 9837SOL     OW30409   0.397   2.611   6.464 -0.1475 -0.3427  0.0962
 9837SOL    HW130410   0.476   2.560   6.497  1.2178  0.8267 -1.1844
 9837SOL    HW230411   0.386   2.694   6.518  0.7204  0.4459 -0.8747
 9838SOL     OW30412   6.459   2.767   5.773  0.1333  0.3147 -0.2373
 9838SOL    HW130413   6.496   2.855   5.742  0.3036 -0.1362 -1.3249
 9838SOL    HW230414   6.500   2.743   5.861  1.5943  0.3564 -0.8882
 9839SOL     OW30415   0.816   5.670   3.146  0.2784  0.9347 -0.4905
 9839SOL    HW130416   0.914   5.663   3.126  0.0699  1.2988 -1.7262
 9839SOL    HW230417   0.764   5.621   3.076 -0.5961  3.9733 -2.1396
 9840SOL     OW30418   4.594   6.325   2.860  0.2200 -0.3955  0.5864
 9840SOL    HW130419   4.664   6.291   2.797 -0.5834 -0.2851 -0.3998
 9840SOL    HW230420   4.547   6.248   2.903  1.2783 -0.4679  1.6569
 9841SOL     OW30421   4.528   5.296   3.388 -0.3958 -0.3801 -0.2106
 9841SOL    HW130422   4.435   5.324   3.367  0.4001  1.1060 -2.0622
 9841SOL    HW230423   4.535   5.270   3.485 -3.0364 -2.0788 -0.3778
 9842SOL     OW30424   5.762   6.498   5.250  0.0398  0.3493 -0.0921
 9842SOL    HW130425   5.812   6.532   5.169  0.0615  1.2301  0.2768
 9842SOL    HW230426   5.695   6.566   5.278  1.5342  1.0580  1.9492
 9843SOL     OW30427   5.674   2.670   1.394  0.0714 -0.1159 -0.6120
 9843SOL    HW130428   5.760   2.718   1.379 -0.4739  0.4454 -2.1388
 9843SOL    HW230429   5.608   2.733   1.437 -0.3932  0.2881 -1.8829
 9844SOL     OW30430   3.897   3.173   6.241 -0.3849 -0.2752 -0.3464
 9844SOL    HW130431   3.897   3.228   6.158 -1.2095  0.2198 -0.0278
 9844SOL    HW230432   3.854   3.085   6.223 -2.6515  0.6831  0.0742
 9845SOL     OW30433   5.465   0.384   5.645  0.1876  0.2277 -0.0825
 9845SOL    HW130434   5.505   0.383   5.737  0.3145 -1.6629 -0.1180
 9845SOL    HW230435   5.535   0.410   5.579  0.7701 -0.8060  0.1092
 9846SOL     OW30436   4.814   4.570   3.469  0.4376  0.1104  0.2320
 9846SOL    HW130437   4.903   4.544   3.432  1.2404  1.2031  1.3149
 9846SOL    HW230438   4.809   4.544   3.565  0.8385  2.7954  1.0449
 9847SOL     OW30439   0.654   2.560   0.738  0.0696  0.5004 -0.1029
 9847SOL    HW130440   0.740   2.575   0.786 -0.0937  0.5832  0.1607
 9847SOL    HW230441   0.577   2.583   0.797 -0.1808 -0.9250  0.1696
 9848SOL     OW30442   6.811   5.878   1.590  0.2441  0.1898  0.4745
 9848SOL    HW130443   6.837   5.852   1.683  1.4220  2.6324  0.9190
 9848SOL    HW230444   6.751   5.958   1.594  0.8700  0.7459 -0.8651
 9849SOL     OW30445   0.376   5.705   2.633  0.2915 -0.7100 -0.0496
 9849SOL    HW130446   0.424   5.618   2.625  0.7653 -0.8404  2.8811
 9849SOL    HW230447   0.288   5.691   2.678  0.4638  0.3158  0.6622
 9850SOL     OW30448   5.116   0.208   3.056  0.3445  0.0506  0.4826
 9850SOL    HW130449   5.121   0.297   3.102  0.9419  0.4065 -0.2495
 9850SOL    HW230450   5.058   0.146   3.109  0.3926  0.6944  1.3012
 9851SOL     OW30451   1.563   1.388   2.800 -0.1371 -0.0181 -0.5072
 9851SOL    HW130452   1.467   1.369   2.781  0.2508  1.1408 -4.3764
 9851SOL    HW230453   1.621   1.326   2.747  1.1996  1.3188 -0.6870
 9852SOL     OW30454   1.838   3.423   4.504 -0.2559 -0.3681  0.0698
 9852SOL    HW130455   1.876   3.515   4.505 -1.5339  0.1997 -0.8184
 9852SOL    HW230456   1.861   3.378   4.418 -0.8863 -0.3196 -0.1285
 9853SOL     OW30457   0.169   6.733   6.445 -0.3119  0.0239  0.4459
 9853SOL    HW130458   0.254   6.719   6.395 -0.6868 -1.3326  0.1626
 9853SOL    HW230459   0.145   6.651   6.497 -0.3685  1.0983  2.2316
 9854SOL     OW30460   0.221   2.637   2.256 -0.0321  0.4146 -0.0541
 9854SOL    HW130461   0.170   2.693   2.191 -0.9611 -0.2020  0.1139
 9854SOL    HW230462   0.318   2.641   2.235 -0.2823  0.5266 -1.2360
 9855SOL     OW30463   3.647   1.724   2.129  0.4720 -0.3601  0.0357
 9855SOL    HW130464   3.612   1.806   2.084  0.9758  0.5513  1.2757
 9855SOL    HW230465   3.728   1.692   2.079  0.9621  0.5752  0.2010
 9856SOL     OW30466   2.478   2.232   4.975  0.1293 -0.3431  0.9556
 9856SOL    HW130467   2.379   2.237   4.969  0.2460  0.9744 -0.6897
 9856SOL    HW230468   2.514   2.323   4.998  0.9616 -0.7958  1.4978
 9857SOL     OW30469   4.450   1.367   1.415 -0.4212 -0.0628 -0.2740
 9857SOL    HW130470   4.370   1.426   1.406 -1.5696 -1.4386  0.5391
 9857SOL    HW230471   4.508   1.377   1.334 -0.2698  2.5502  0.0858
 9858SOL     OW30472   1.673   2.361   6.314  0.0001  0.3544 -0.0880
 9858SOL    HW130473   1.609   2.408   6.375  0.9601  0.3800  0.9305
 9858SOL    HW230474   1.666   2.398   6.222 -0.1503  1.6265  0.4189
 9859SOL     OW30475   2.648   1.342   5.270 -0.6664 -0.0260 -0.4375
 9859SOL    HW130476   2.576   1.275   5.287  1.5127 -2.0390  1.5384
 9859SOL    HW230477   2.709   1.309   5.198 -0.1304  0.2783 -0.1361
 9860SOL     OW30478   3.891   1.358   1.946  0.4673  0.4538 -0.2678
 9860SOL    HW130479   3.957   1.295   1.906 -0.2291  0.0175 -0.7563
 9860SOL    HW230480   3.818   1.306   1.991  1.3818  0.9203  1.8966
 9861SOL     OW30481   6.923   0.723   6.688  0.6633  0.1544  0.5503
 9861SOL    HW130482   7.013   0.732   6.729  0.4394 -0.0451  1.0864
 9861SOL    HW230483   6.863   0.671   6.748  0.7862 -1.5707 -0.7373
 9862SOL     OW30484   6.162   1.862   1.790  0.5194  0.8677 -0.1664
 9862SOL    HW130485   6.158   1.826   1.697  0.2119 -0.8252  0.4737
 9862SOL    HW230486   6.243   1.921   1.798  1.2914  0.0010 -1.1567
 9863SOL     OW30487   4.888   1.299   1.232 -0.8315 -0.1304 -0.3659
 9863SOL    HW130488   4.921   1.205   1.237 -1.5182 -0.5482 -2.6608
 9863SOL    HW230489   4.840   1.322   1.316 -0.8971 -1.9262  0.1235
 9864SOL     OW30490   1.781   6.001   3.245 -0.2580 -0.1002  0.6220
 9864SOL    HW130491   1.749   6.003   3.339  0.6827 -1.9664  1.0372
 9864SOL    HW230492   1.790   5.906   3.215  0.5006  0.4397 -0.9705
 9865SOL     OW30493   6.514   5.669   3.447 -0.7492 -0.1282 -0.0253
 9865SOL    HW130494   6.593   5.700   3.393 -0.4137  1.4020  1.2787
 9865SOL    HW230495   6.442   5.739   3.444 -0.6642  0.0686  1.5859
 9866SOL     OW30496   2.342   1.103   2.849  0.0484  0.5514  0.2472
 9866SOL    HW130497   2.431   1.094   2.803 -0.4119  1.2538 -0.8143
 9866SOL    HW230498   2.342   1.048   2.932  0.7768 -1.0854 -0.7915
 9867SOL     OW30499   2.456   1.360   2.046  0.6489  0.4004 -0.5829
 9867SOL    HW130500   2.374   1.373   1.989  0.3662 -0.8242 -0.4997
 9867SOL    HW230501   2.428   1.356   2.142  0.8580  0.4592 -0.5218
 9868SOL     OW30502   6.320   2.637   6.585  0.4934  0.3362  0.0305
 9868SOL    HW130503   6.239   2.691   6.560  0.3508  0.2504  0.3009
 9868SOL    HW230504   6.335   2.566   6.517  1.6399  1.7098 -1.2439
 9869SOL     OW30505   5.905   3.914   2.122  0.0852 -0.0649 -0.6844
 9869SOL    HW130506   5.814   3.873   2.117  0.6933 -1.4070 -1.0785
 9869SOL    HW230507   5.963   3.876   2.050  0.5856  1.7732 -1.3120
 9870SOL     OW30508   3.095   0.580   0.330 -0.7240  0.2030  0.0499
 9870SOL    HW130509   3.059   0.656   0.385 -2.0945  0.9643 -1.7950
 9870SOL    HW230510   3.170   0.536   0.380 -1.3385  1.3526  2.1355
 9871SOL     OW30511   6.308   0.522   0.390 -0.4604  0.3170 -0.3561
 9871SOL    HW130512   6.406   0.544   0.386 -0.4419  0.1425 -0.9136
 9871SOL    HW230513   6.295   0.427   0.364 -0.7090  0.1185  0.4491
 9872SOL     OW30514   2.378   6.879   3.961 -0.8143 -0.5371 -0.0728
 9872SOL    HW130515   2.471   6.915   3.961  0.1780 -2.8760 -1.7510
 9872SOL    HW230516   2.368   6.813   4.035 -1.0220 -0.5802 -0.1393
 9873SOL     OW30517   3.672   6.887   6.279  0.3251  0.6117 -0.3534
 9873SOL    HW130518   3.756   6.839   6.307 -0.2147  0.6195  1.3807
 9873SOL    HW230519   3.601   6.874   6.348 -0.6677  1.8124 -1.0954
 9874SOL     OW30520   5.531   1.680   6.166  0.0198  0.2805 -0.0986
 9874SOL    HW130521   5.487   1.591   6.173 -2.3017  1.2939 -0.6263
 9874SOL    HW230522   5.533   1.708   6.069  2.4655  0.0288 -0.1765
 9875SOL     OW30523   0.332   1.443   2.355 -0.4166 -0.1815  0.0128
 9875SOL    HW130524   0.317   1.370   2.287 -0.2872 -1.1618  1.0142
 9875SOL    HW230525   0.336   1.531   2.308  1.7328 -1.0126 -1.5461
 9876SOL     OW30526   6.393   6.406   2.768  0.0158  0.2461 -0.1587
 9876SOL    HW130527   6.366   6.392   2.673  0.7504  0.9963 -0.4856
 9876SOL    HW230528   6.368   6.499   2.797 -0.0915  0.0651  0.3460
 9877SOL     OW30529   4.972   3.368   1.468 -0.2450  0.2849  0.5351
 9877SOL    HW130530   5.026   3.384   1.551 -0.3707  1.1499  0.4619
 9877SOL    HW230531   4.978   3.272   1.442  1.9360  0.4781  0.0855
 9878SOL     OW30532   2.597   1.063   1.535  0.0800 -0.6102  0.3908
 9878SOL    HW130533   2.537   1.124   1.483  1.1726  0.2672  0.1039
 9878SOL    HW230534   2.553   1.037   1.621 -1.4827 -1.5394 -0.6339
 9879SOL     OW30535   5.904   3.799   0.580 -0.4199 -0.2305  0.4912
 9879SOL    HW130536   5.943   3.759   0.497 -1.2326 -0.0878  0.0235
 9879SOL    HW230537   5.847   3.730   0.626 -2.4662  0.5537 -0.7380
 9880SOL     OW30538   2.108   4.726   2.438 -0.0578  0.4775 -0.0393
 9880SOL    HW130539   2.201   4.710   2.472  0.2305  1.0526 -0.5589
 9880SOL    HW230540   2.095   4.823   2.419 -0.5751  0.3165 -0.5336
 9881SOL     OW30541   2.948   1.945   1.756 -0.3622  0.4029 -0.0059
 9881SOL    HW130542   2.988   1.879   1.691 -0.0785  0.1124  0.4556
 9881SOL    HW230543   3.021   2.001   1.795 -0.3990 -0.1151  0.8282
 9882SOL     OW30544   2.926   0.741   1.065  0.2150  0.4311  0.1902
 9882SOL    HW130545   2.835   0.724   1.026  0.8161 -0.1485 -1.0064
 9882SOL    HW230546   2.939   0.840   1.078  0.0156  0.6561 -1.1705
 9883SOL     OW30547   1.682   5.327   3.382  0.3252 -0.1953 -0.3327
 9883SOL    HW130548   1.777   5.307   3.408  0.2348 -0.2187 -0.0246
 9883SOL    HW230549   1.621   5.259   3.423  0.3986 -1.6199 -2.4144
 9884SOL     OW30550   2.814   6.867   0.073  0.3826 -0.0298 -0.0270
 9884SOL    HW130551   2.838   6.779   0.031  1.3394  0.3779 -0.3586
 9884SOL    HW230552   2.792   6.852   0.169 -2.4162 -1.0690 -0.7350
 9885SOL     OW30553   5.063   1.613   2.083 -0.3008  0.4152 -0.1517
 9885SOL    HW130554   4.988   1.650   2.029 -1.1622 -1.7978 -0.5774
 9885SOL    HW230555   5.030   1.589   2.174 -0.0711 -0.3326 -0.2562
 9886SOL     OW30556   3.869   3.743   1.682 -0.4501  0.1896 -0.1019
 9886SOL    HW130557   3.798   3.760   1.750 -0.1849 -0.5181  0.3632
 9886SOL    HW230558   3.867   3.815   1.613 -2.7868 -0.7600 -1.1071
 9887SOL     OW30559   0.006   6.779   0.588 -0.0529 -0.2560 -0.2824
 9887SOL    HW130560  -0.065   6.741   0.647  0.4495  1.1616  1.3323
 9887SOL    HW230561  -0.016   6.873   0.566  0.2774 -0.4654 -1.5688
 9888SOL     OW30562   6.150   3.289   4.049  0.2800  0.0042  0.6003
 9888SOL    HW130563   6.140   3.368   3.990  0.1027 -0.0106  0.6085
 9888SOL    HW230564   6.215   3.310   4.123  1.1095 -0.2408 -0.0417
 9889SOL     OW30565   6.644   6.806   5.036 -0.1871  0.1391  0.2831
 9889SOL    HW130566   6.719   6.848   4.985 -0.7565  2.0787  0.9309
 9889SOL    HW230567   6.677   6.778   5.126 -0.0681  0.3113  0.2939
 9890SOL     OW30568   2.232   6.584   6.341 -0.2023 -0.5590 -0.0673
 9890SOL    HW130569   2.264   6.533   6.420 -0.5120 -1.2847 -0.4040
 9890SOL    HW230570   2.309   6.636   6.302  0.0731 -0.6243  0.3848
 9891SOL     OW30571   6.734   6.832   0.958  0.2153  0.2711  0.4821
 9891SOL    HW130572   6.737   6.752   1.018 -0.8917 -0.0687  0.1189
 9891SOL    HW230573   6.688   6.907   1.005  0.7331  0.5100  0.6123
 9892SOL     OW30574   6.982   3.690   2.038 -0.4089  0.2651  0.3134
 9892SOL    HW130575   6.997   3.774   1.986 -0.9372  0.0727 -0.1683
 9892SOL    HW230576   7.063   3.632   2.033  0.7551  1.5866  2.3141
 9893SOL     OW30577   5.161   3.119   2.843 -0.8316 -0.7370 -0.3784
 9893SOL    HW130578   5.204   3.152   2.759 -1.4265 -0.1375 -0.4608
 9893SOL    HW230579   5.180   3.184   2.917  0.2193 -1.5800  0.1150
 9894SOL     OW30580   5.910   5.471   2.325  0.3832 -0.5858 -0.4244
 9894SOL    HW130581   6.008   5.459   2.340  0.7059 -0.0481 -1.8875
 9894SOL    HW230582   5.859   5.431   2.401  1.7603  0.1446  0.9345
 9895SOL     OW30583   5.394   3.924   3.060 -0.7604  0.7047  0.1848
 9895SOL    HW130584   5.304   3.887   3.083 -0.4561 -0.4643 -0.4192
 9895SOL    HW230585   5.428   3.978   3.137 -1.5659  0.3757  0.7894
 9896SOL     OW30586   2.385   0.220   4.611 -0.5625  0.0871 -0.4369
 9896SOL    HW130587   2.445   0.266   4.547 -0.7584  0.3392 -0.4396
 9896SOL    HW230588   2.293   0.213   4.572 -0.4771 -0.5245 -0.5399
 9897SOL     OW30589   4.809   0.787   4.383  0.2852  0.2403  0.5715
 9897SOL    HW130590   4.775   0.879   4.407  2.4451  1.3452 -0.3712
 9897SOL    HW230591   4.871   0.755   4.455 -1.0661 -0.8774  1.2839
 9898SOL     OW30592   2.644   3.669   0.126  0.6676  0.0966  0.4480
 9898SOL    HW130593   2.730   3.618   0.135 -0.7535 -2.3943  0.8619
 9898SOL    HW230594   2.567   3.606   0.138 -1.2550  1.9625 -1.4155
 9899SOL     OW30595   0.551   5.976   4.225  0.0185  0.1373  0.2440
 9899SOL    HW130596   0.617   5.912   4.265 -0.2648 -0.0617  0.3921
 9899SOL    HW230597   0.587   6.069   4.233 -0.2643  0.1542  1.4303
 9900SOL     OW30598   1.040   0.867   2.431 -0.4950  0.0759  0.8204
 9900SOL    HW130599   1.055   0.798   2.501  0.7685 -0.0189  0.4741
 9900SOL    HW230600   1.067   0.830   2.342 -0.2868  0.8474  0.5580
 9901SOL     OW30601   0.171   6.940   0.275 -0.4486  0.1385  0.2710
 9901SOL    HW130602   0.243   6.890   0.226 -1.7624 -2.0282  0.4600
 9901SOL    HW230603   0.109   6.982   0.209  1.2704  2.6646  0.0809
 9902SOL     OW30604   2.266   5.043   6.633  0.3051 -0.2096 -0.1439
 9902SOL    HW130605   2.220   5.111   6.577 -2.0753 -2.1885 -0.7635
 9902SOL    HW230606   2.313   4.977   6.573 -0.2884 -1.0253  0.2689
 9903SOL     OW30607   6.753   3.647   1.901  0.5109  0.0795  0.2571
 9903SOL    HW130608   6.693   3.727   1.900  0.3817  0.0132 -1.4057
 9903SOL    HW230609   6.818   3.654   1.976 -0.4390  1.0238  1.0104
 9904SOL     OW30610   0.539   3.537   6.584  0.6153  0.0457 -0.0861
 9904SOL    HW130611   0.501   3.629   6.586  1.0452  0.2159  0.7843
 9904SOL    HW230612   0.496   3.485   6.510 -1.5075  0.1461  0.9813
 9905SOL     OW30613   3.426   1.971   1.642 -0.4021  0.3416  0.0641
 9905SOL    HW130614   3.429   2.029   1.723  2.1047 -1.1055  1.1323
 9905SOL    HW230615   3.332   1.940   1.627 -0.7394 -0.7386  3.5276
 9906SOL     OW30616   0.603   2.137   4.872 -0.0892  0.2148  0.2758
 9906SOL    HW130617   0.596   2.098   4.780  2.1302  0.5883 -0.1160
 9906SOL    HW230618   0.574   2.069   4.939  1.4014 -1.3039 -0.5380
 9907SOL     OW30619   0.911   2.901   2.937  0.5434  0.2101 -0.4257
 9907SOL    HW130620   0.891   2.805   2.915 -0.4108  0.5552 -1.1487
 9907SOL    HW230621   0.956   2.906   3.026 -1.1857 -0.7775  0.5689
 9908SOL     OW30622   3.827   1.839   3.443 -0.0471 -0.6971  0.2085
 9908SOL    HW130623   3.840   1.832   3.344  2.3369 -1.2927  0.5096
 9908SOL    HW230624   3.736   1.803   3.468 -0.6689 -0.5616 -1.7284
 9909SOL     OW30625   3.030   1.776   1.223 -0.7771 -0.7362  0.2788
 9909SOL    HW130626   3.065   1.847   1.285 -0.2393 -0.5636 -0.2149
 9909SOL    HW230627   3.014   1.692   1.275  0.5081 -0.8697  0.5084
 9910SOL     OW30628   4.053   2.211   3.996 -0.3279 -0.3183 -0.3646
 9910SOL    HW130629   4.128   2.215   4.063  1.5437 -1.7994 -2.2276
 9910SOL    HW230630   3.965   2.214   4.044  0.8844  0.5816  1.9790
 9911SOL     OW30631   6.978   2.274   5.456 -0.0927  0.0410  0.7213
 9911SOL    HW130632   7.073   2.260   5.484  0.1159 -0.1134 -0.0380
 9911SOL    HW230633   6.936   2.344   5.514 -0.0136 -1.0303  2.1143
 9912SOL     OW30634   4.985   3.808   4.952  0.2966 -0.0313 -0.8199
 9912SOL    HW130635   4.954   3.889   4.902 -1.4782  1.1038  1.9060
 9912SOL    HW230636   4.911   3.741   4.958  0.5395 -0.2337  0.0919
 9913SOL     OW30637   1.451   2.443   0.939 -0.0962  0.0422  0.5572
 9913SOL    HW130638   1.375   2.479   0.994 -0.5119  1.1049 -0.6489
 9913SOL    HW230639   1.537   2.457   0.987 -0.4300  1.1285  0.8604
 9914SOL     OW30640   6.521   6.525   6.358  0.4112  0.1776 -0.1832
 9914SOL    HW130641   6.515   6.527   6.458 -0.0875  1.2789 -0.2171
 9914SOL    HW230642   6.584   6.597   6.327 -0.9144  1.1493 -0.7296
 9915SOL     OW30643   3.451   1.967   6.713  0.1452  0.1929  0.0112
 9915SOL    HW130644   3.511   1.948   6.636  0.1153 -0.8263  0.2331
 9915SOL    HW230645   3.497   1.943   6.799  1.0782  3.4009  0.5606
 9916SOL     OW30646   3.521   2.078   4.627 -0.0905  0.6002  0.3223
 9916SOL    HW130647   3.485   2.121   4.710  1.1743 -0.6531  1.5614
 9916SOL    HW230648   3.534   1.980   4.643  0.8077  0.4525 -1.1490
 9917SOL     OW30649   2.431   4.803   3.694 -0.4266 -0.6494 -0.4988
 9917SOL    HW130650   2.516   4.751   3.677  0.3957  0.6899 -0.6456
 9917SOL    HW230651   2.360   4.770   3.632  1.0874  0.7110 -3.1483
 9918SOL     OW30652   5.056   0.827   0.017 -0.1575  0.3900 -0.5315
 9918SOL    HW130653   4.989   0.801  -0.053 -0.2442  1.4715 -0.8610
 9918SOL    HW230654   5.041   0.772   0.099 -0.7962 -0.0805 -0.9521
 9919SOL     OW30655   0.989   0.944   0.690  0.0692 -0.1205 -0.0158
 9919SOL    HW130656   0.896   0.927   0.721 -0.6927  0.8235 -1.6834
 9919SOL    HW230657   1.044   0.978   0.767 -1.3574  0.7493  0.6616
 9920SOL     OW30658   0.259   4.859   6.667 -0.1227 -0.2931 -0.1422
 9920SOL    HW130659   0.235   4.917   6.590  0.8901 -0.5083 -0.6437
 9920SOL    HW230660   0.357   4.840   6.665  0.1869  0.7506  1.9302
 9921SOL     OW30661   5.718   5.362   6.122  0.0886  0.4315 -0.3174
 9921SOL    HW130662   5.682   5.419   6.048  2.0180  1.0369 -0.8326
 9921SOL    HW230663   5.666   5.381   6.206 -1.4025  0.5472 -1.2326
 9922SOL     OW30664   2.431   1.527   4.784  0.5020  0.0097 -0.0889
 9922SOL    HW130665   2.515   1.496   4.829  0.9432  0.5137 -0.5403
 9922SOL    HW230666   2.412   1.621   4.812  0.0218 -0.1438  0.0979
 9923SOL     OW30667   3.742   0.017   6.050 -0.3714  1.2431  0.2280
 9923SOL    HW130668   3.706  -0.049   6.117 -0.4197  0.3033 -0.7000
 9923SOL    HW230669   3.792  -0.032   5.979 -3.0273  1.8413 -2.2311
 9924SOL     OW30670   5.828   2.087   2.651 -0.0497  0.0613 -0.3169
 9924SOL    HW130671   5.763   2.092   2.727  0.6962 -0.0548  0.3498
 9924SOL    HW230672   5.887   2.007   2.663 -0.4216 -0.4096 -1.4447
 9925SOL     OW30673   2.321   3.621   5.997 -0.0402  0.0238 -0.0665
 9925SOL    HW130674   2.319   3.521   6.007  0.5557  0.0028 -0.1585
 9925SOL    HW230675   2.355   3.645   5.906  0.0454  0.3181  0.0428
 9926SOL     OW30676   1.129   4.451   4.907 -0.3641 -0.6764  0.3782
 9926SOL    HW130677   1.163   4.377   4.966  0.5819 -0.1729  0.4854
 9926SOL    HW230678   1.195   4.526   4.907 -1.6220  0.4701  0.8171
 9927SOL     OW30679   5.711   3.436   1.364 -0.3027 -0.3372  0.0433
 9927SOL    HW130680   5.637   3.504   1.364  0.2239  0.3487  2.3519
 9927SOL    HW230681   5.798   3.482   1.344 -0.1759 -0.6766 -0.1849
 9928SOL     OW30682   6.569   5.597   2.371 -0.7142  0.3162 -0.1446
 9928SOL    HW130683   6.668   5.592   2.354 -0.2940  2.1281  1.3650
 9928SOL    HW230684   6.532   5.505   2.382  1.5452 -0.3653  2.9542
 9929SOL     OW30685   6.343   4.295   3.235  0.3909 -0.4849  0.1916
 9929SOL    HW130686   6.312   4.361   3.167 -1.2746 -0.4306  0.9666
 9929SOL    HW230687   6.425   4.330   3.280  0.2254  0.4985 -0.2450
 9930SOL     OW30688   2.132   1.084   5.773  0.2187 -0.1194 -0.4729
 9930SOL    HW130689   2.091   1.123   5.690  0.4421  0.3802 -0.3549
 9930SOL    HW230690   2.062   1.033   5.824 -1.3449  3.6516  1.5739
 9931SOL     OW30691   3.502   6.196   4.107 -0.5717  0.0400 -0.0724
 9931SOL    HW130692   3.574   6.168   4.170 -1.1434  2.6327  1.9352
 9931SOL    HW230693   3.422   6.137   4.119  0.1726 -1.0144 -0.1839
 9932SOL     OW30694   3.719   2.877   6.472  0.6576  0.1070  0.1659
 9932SOL    HW130695   3.629   2.860   6.513 -0.2982  0.1639 -1.7939
 9932SOL    HW230696   3.770   2.791   6.466  0.1846 -0.1720  0.0774
 9933SOL     OW30697   3.483   1.886   6.985 -0.0702 -0.1679  0.5611
 9933SOL    HW130698   3.414   1.938   7.036  1.4941  0.4727  2.1444
 9933SOL    HW230699   3.441   1.803   6.948 -1.6505  0.1020  1.6297
 9934SOL     OW30700   1.026   2.540   6.146 -0.1968  0.0954 -0.2820
 9934SOL    HW130701   0.975   2.626   6.145 -2.2516 -1.0640 -0.3014
 9934SOL    HW230702   1.024   2.502   6.238  1.5966  0.5173 -0.0270
 9935SOL     OW30703   0.714   2.208   2.201  0.0413  0.3708 -0.2493
 9935SOL    HW130704   0.623   2.250   2.201  0.4626  1.3699 -1.8489
 9935SOL    HW230705   0.754   2.216   2.292 -1.3267  0.2395  0.3863
 9936SOL     OW30706   0.944   4.902   4.012 -0.3630  0.0709  0.8243
 9936SOL    HW130707   0.986   4.831   3.956 -2.7883 -0.5027 -0.4010
 9936SOL    HW230708   0.930   4.867   4.105  0.5769 -0.1890  0.8810
 9937SOL     OW30709   3.943   1.071   2.965  0.6032  0.4510  0.3428
 9937SOL    HW130710   3.898   1.004   2.906  2.4940  0.3418 -1.0463
 9937SOL    HW230711   3.881   1.097   3.039 -0.9647 -1.1783 -0.3376
 9938SOL     OW30712   4.740   0.474   3.131 -0.0964  0.1131  0.4295
 9938SOL    HW130713   4.663   0.411   3.125  0.8718 -1.2012  1.3702
 9938SOL    HW230714   4.712   0.565   3.098 -2.0538 -0.3089  0.8552
 9939SOL     OW30715   5.504   4.072   1.943 -1.1640 -0.0596  0.9464
 9939SOL    HW130716   5.490   4.156   1.996 -2.5705  0.7267 -0.5609
 9939SOL    HW230717   5.421   4.052   1.891  0.2824 -0.5469 -1.2837
 9940SOL     OW30718   4.658   6.816   3.071  0.6135 -0.4050  0.4514
 9940SOL    HW130719   4.692   6.788   3.161 -1.0032 -2.5262  0.4684
 9940SOL    HW230720   4.602   6.898   3.081  1.4023  0.0574  1.1909
 9941SOL     OW30721   4.118   3.601   0.723  0.0768  0.1100 -0.1374
 9941SOL    HW130722   4.166   3.687   0.742 -1.6516  0.7255  1.9794
 9941SOL    HW230723   4.037   3.620   0.668  0.3637 -0.3653 -0.7274
 9942SOL     OW30724   0.148   1.566   2.736 -0.1393  0.9611 -0.0538
 9942SOL    HW130725   0.090   1.615   2.671 -0.7871  0.1648 -0.0973
 9942SOL    HW230726   0.116   1.584   2.829  0.1146  1.2403 -0.0185
 9943SOL     OW30727   3.287   2.968   4.627 -0.1065  0.7772 -0.4793
 9943SOL    HW130728   3.273   2.925   4.538 -1.1002 -0.2508  0.1515
 9943SOL    HW230729   3.202   3.011   4.658  0.1081  0.7569  0.1620
 9944SOL     OW30730   0.621   0.919   3.589 -0.3677 -0.9687 -0.5479
 9944SOL    HW130731   0.542   0.960   3.635  0.7340  0.1953  0.3730
 9944SOL    HW230732   0.649   0.837   3.640 -0.3245 -0.7722 -0.2500
 9945SOL     OW30733   0.344   5.418   6.415  0.4587  0.1583 -0.4080
 9945SOL    HW130734   0.350   5.334   6.361  0.4769  0.1320 -0.3647
 9945SOL    HW230735   0.326   5.495   6.354 -0.6140 -0.0181 -0.3387
 9946SOL     OW30736   3.792   5.165   3.056  0.7027  0.5974 -0.2175
 9946SOL    HW130737   3.864   5.155   3.124  0.1825 -0.8135  0.1567
 9946SOL    HW230738   3.714   5.215   3.095  0.9298  0.9373 -0.1993
 9947SOL     OW30739   0.818   5.228   3.095 -0.3035  0.0307 -0.1672
 9947SOL    HW130740   0.896   5.170   3.118  0.3911  1.3092  0.8059
 9947SOL    HW230741   0.827   5.316   3.141 -1.7866  0.5993 -0.9032
 9948SOL     OW30742   6.148   6.565   5.078 -0.2791  0.3113  0.0259
 9948SOL    HW130743   6.217   6.500   5.047  0.1879  1.1759 -0.8124
 9948SOL    HW230744   6.057   6.531   5.054 -0.0098  0.2170 -0.9147
 9949SOL     OW30745   6.768   0.250   5.017  0.0427 -0.1643  0.2261
 9949SOL    HW130746   6.819   0.219   5.098 -1.3793  1.4793  1.8413
 9949SOL    HW230747   6.671   0.251   5.038 -0.3333  0.6321 -1.4188
 9950SOL     OW30748   1.525   6.015   2.846  0.0133  0.2690  0.1948
 9950SOL    HW130749   1.553   6.075   2.922 -1.0952 -0.8125  1.5042
 9950SOL    HW230750   1.428   5.993   2.855 -0.1791  0.2051 -1.6432
 9951SOL     OW30751   6.041   1.478   3.318  0.3973  0.1713 -0.0307
 9951SOL    HW130752   6.097   1.449   3.396  0.3628  0.5593  0.1443
 9951SOL    HW230753   6.066   1.572   3.293  0.1538  0.1767 -0.2546
 9952SOL     OW30754   0.186   5.942   2.985 -0.0030 -0.5294  0.3363
 9952SOL    HW130755   0.234   6.027   2.963  0.1174 -1.0288 -1.4548
 9952SOL    HW230756   0.253   5.868   2.995 -0.2408 -0.8217 -0.1920
 9953SOL     OW30757   4.410   6.083   3.272 -0.5893  0.1339  0.6326
 9953SOL    HW130758   4.406   6.103   3.369 -1.1941 -1.7890  1.0565
 9953SOL    HW230759   4.400   5.984   3.258  2.2309  0.0040 -1.2166
 9954SOL     OW30760   3.273   0.442   0.461 -0.8115 -0.4066 -0.1963
 9954SOL    HW130761   3.255   0.347   0.434  0.6757 -0.5671 -0.7559
 9954SOL    HW230762   3.294   0.445   0.559 -0.1751 -0.7783 -0.3127
 9955SOL     OW30763   2.503   2.064   5.881  0.6565  0.1574 -0.4245
 9955SOL    HW130764   2.542   1.990   5.936 -0.1493 -0.9719 -1.3321
 9955SOL    HW230765   2.501   2.148   5.935 -0.2091 -0.9299  1.3221
 9956SOL     OW30766   3.265   6.113   0.700 -0.4801  0.3377 -0.3121
 9956SOL    HW130767   3.339   6.175   0.724 -0.2308  0.1035 -0.4801
 9956SOL    HW230768   3.271   6.088   0.604 -0.2893 -0.3403 -0.1315
 9957SOL     OW30769   5.602   4.241   0.043  0.7483 -0.0684  0.4009
 9957SOL    HW130770   5.576   4.338   0.049  1.6852  0.1830  0.4654
 9957SOL    HW230771   5.519   4.185   0.042  0.1676  0.7673 -0.3514
 9958SOL     OW30772   5.645   4.411   4.124 -0.2684 -0.0074 -0.6497
 9958SOL    HW130773   5.629   4.510   4.123  0.0244  0.1292  1.7986
 9958SOL    HW230774   5.725   4.390   4.067 -0.2291  1.1694 -1.0637
 9959SOL     OW30775   1.576   4.917   6.660  0.3801 -0.0408  0.3032
 9959SOL    HW130776   1.518   4.977   6.715  1.6615 -0.4411  2.1701
 9959SOL    HW230777   1.518   4.851   6.611 -0.7668 -0.3748  2.0317
 9960SOL     OW30778   2.054   1.674   3.349  0.2035  0.2274  0.3675
 9960SOL    HW130779   2.080   1.587   3.306  1.1873  0.2100  0.9653
 9960SOL    HW230780   1.999   1.728   3.285 -1.4490 -1.3189  0.4006
 9961SOL     OW30781   5.751   1.262   5.531  0.4620 -0.2286 -0.6073
 9961SOL    HW130782   5.767   1.244   5.434  0.3414 -1.5334 -0.4060
 9961SOL    HW230783   5.734   1.359   5.545  1.4667  0.1280 -1.7545
 9962SOL     OW30784   2.343   1.764   1.321  1.0529 -0.3590  0.3167
 9962SOL    HW130785   2.271   1.711   1.365 -0.1461  0.0108 -1.1004
 9962SOL    HW230786   2.337   1.860   1.351  0.4631 -0.1791 -0.3484
 9963SOL     OW30787   5.228   0.753   5.803 -0.4276 -0.4773 -0.3165
 9963SOL    HW130788   5.187   0.775   5.715 -1.7136  2.0396  0.7791
 9963SOL    HW230789   5.260   0.837   5.847 -0.8175 -1.4659  2.0663
 9964SOL     OW30790   2.998   0.672   1.826 -0.3566 -0.3561 -0.1649
 9964SOL    HW130791   2.918   0.691   1.770 -0.8432  0.0337  0.6421
 9964SOL    HW230792   2.981   0.702   1.920  1.0207  0.4283 -0.1419
 9965SOL     OW30793   0.307   6.125   3.338  0.0151  0.2797 -0.5392
 9965SOL    HW130794   0.400   6.098   3.312  0.0423 -0.2115  0.0497
 9965SOL    HW230795   0.306   6.220   3.369  0.0437  0.7806 -1.9855
 9966SOL     OW30796   2.868   0.425   0.443  0.0816 -0.0162  0.2953
 9966SOL    HW130797   2.824   0.494   0.500 -2.1477  0.6313 -1.9930
 9966SOL    HW230798   2.853   0.447   0.346  3.1210 -1.3698 -0.6079
 9967SOL     OW30799   4.124   5.913   2.853 -0.0420 -0.0398  0.5516
 9967SOL    HW130800   4.151   5.991   2.797 -0.0200 -0.1529  0.4036
 9967SOL    HW230801   4.108   5.943   2.947 -0.6687  0.2644  0.3570
 9968SOL     OW30802   0.188   6.236   0.286 -0.6835 -0.1239 -0.0967
 9968SOL    HW130803   0.272   6.189   0.316  1.3963  1.8065 -2.5116
 9968SOL    HW230804   0.127   6.170   0.243  0.7482 -1.1735 -0.5965
 9969SOL     OW30805   1.646   3.046   2.819 -0.1135  0.3610  0.3052
 9969SOL    HW130806   1.697   3.050   2.733 -1.1133 -1.6302 -0.4542
 9969SOL    HW230807   1.578   3.120   2.820  0.7097  1.1498 -0.0354
 9970SOL     OW30808   2.907   1.761   4.264  0.1916  0.2877 -0.1659
 9970SOL    HW130809   2.876   1.669   4.287  1.2877 -0.3136 -1.0181
 9970SOL    HW230810   2.994   1.779   4.308 -0.2227  1.0897  0.3420
 9971SOL     OW30811   1.667   6.934   6.452  0.2047 -0.2434 -0.4346
 9971SOL    HW130812   1.754   6.955   6.495 -0.4229  0.8799  0.3288
 9971SOL    HW230813   1.592   6.966   6.510 -0.7332 -1.4423 -0.9346
 9972SOL     OW30814   1.909   5.763   2.440 -0.1126  0.2859  0.3367
 9972SOL    HW130815   1.877   5.691   2.378  1.1400  0.9645 -1.1560
 9972SOL    HW230816   1.878   5.852   2.407  0.8926  0.6903  0.4541
 9973SOL     OW30817   0.975   1.053   4.892  0.6036  0.1671 -0.2581
 9973SOL    HW130818   1.025   1.010   4.816 -0.8733 -0.2631 -1.0281
 9973SOL    HW230819   0.883   1.077   4.861 -0.2941 -0.6759  1.6017
 9974SOL     OW30820   0.513   3.684   5.401  0.1445 -0.5044 -0.3076
 9974SOL    HW130821   0.431   3.697   5.456 -0.7192 -0.6310 -1.5149
 9974SOL    HW230822   0.555   3.596   5.421 -0.6583 -0.9281 -0.4787
 9975SOL     OW30823   1.774   0.082   0.755 -0.3990 -0.0110  0.6293
 9975SOL    HW130824   1.722   0.167   0.769  0.0255  0.2256  0.7885
 9975SOL    HW230825   1.867   0.104   0.724 -0.2936 -0.4209  0.6461
 9976SOL     OW30826   0.133   3.792   5.064  0.0411 -0.4748  0.1579
 9976SOL    HW130827   0.116   3.693   5.062  1.1313 -0.6680 -0.8233
 9976SOL    HW230828   0.218   3.812   5.016 -0.5600  1.0249 -0.3650
 9977SOL     OW30829   3.919   6.993   0.217  0.5481  0.0356 -0.0560
 9977SOL    HW130830   3.905   6.896   0.197 -0.6697 -0.1850  1.5915
 9977SOL    HW230831   3.835   7.044   0.198  0.5787  0.4282  0.7772
 9978SOL     OW30832   2.031   0.898   4.608 -0.1100  0.2577 -0.3655
 9978SOL    HW130833   1.933   0.886   4.592 -0.2123  0.7733 -0.1413
 9978SOL    HW230834   2.082   0.863   4.529 -0.4607 -0.1874 -0.4032
 9979SOL     OW30835   4.136   4.493   0.354 -1.2042  0.2624  0.5372
 9979SOL    HW130836   4.038   4.512   0.350 -1.3368 -0.6425 -1.5631
 9979SOL    HW230837   4.186   4.569   0.313 -1.0660  0.4137  0.9816
 9980SOL     OW30838   2.334   1.827   3.660  0.0047  0.2585  0.0763
 9980SOL    HW130839   2.261   1.768   3.693 -0.2097  0.8693  0.7097
 9980SOL    HW230840   2.383   1.867   3.738  0.5742  0.3941 -0.3433
 9981SOL     OW30841   4.053   0.743   6.365 -0.3719 -0.1723  0.1309
 9981SOL    HW130842   4.017   0.754   6.457  0.1306 -2.3688  0.6707
 9981SOL    HW230843   4.051   0.830   6.317 -0.6241  1.0395  2.2186
 9982SOL     OW30844   1.864   5.977   5.224  0.4988 -0.2435 -0.3469
 9982SOL    HW130845   1.778   5.996   5.177  0.3516 -1.3800 -0.5726
 9982SOL    HW230846   1.846   5.932   5.311  0.8428  0.0783 -0.1066
 9983SOL     OW30847   5.644   6.333   5.934 -0.8474 -0.1294  0.0095
 9983SOL    HW130848   5.658   6.241   5.971 -2.4602 -1.0448 -1.5379
 9983SOL    HW230849   5.649   6.399   6.009 -0.2829 -1.5050  1.2575
 9984SOL     OW30850   1.697   6.971   6.167 -0.3865 -0.0431 -0.2149
 9984SOL    HW130851   1.676   6.966   6.264  0.0379  1.1027 -0.0524
 9984SOL    HW230852   1.746   6.888   6.139  0.0501 -0.0954  0.6845
 9985SOL     OW30853   1.258   2.620   5.157 -0.3643  0.1956  0.2857
 9985SOL    HW130854   1.328   2.680   5.196 -2.7475  2.3457  1.5881
 9985SOL    HW230855   1.259   2.532   5.206  0.6043  0.6313  1.0994
 9986SOL     OW30856   0.141   1.286   2.644 -0.0062 -0.6335  0.1070
 9986SOL    HW130857   0.126   1.255   2.550 -1.8066 -0.2667  0.2399
 9986SOL    HW230858   0.146   1.386   2.647  1.1995 -0.6773  0.2812
 9987SOL     OW30859   3.295   3.449   2.331 -0.3629 -0.0398 -0.5942
 9987SOL    HW130860   3.314   3.431   2.428  0.8176  0.6687 -0.6756
 9987SOL    HW230861   3.380   3.477   2.285 -1.0366  0.2456 -1.6930
 9988SOL     OW30862   3.878   0.645   0.483  0.8953  0.3131 -0.0501
 9988SOL    HW130863   3.834   0.728   0.517  0.0118 -0.5967  1.1253
 9988SOL    HW230864   3.815   0.568   0.492  1.2410 -0.3066 -2.2669
 9989SOL     OW30865   0.381   6.444   6.884 -0.6221 -0.2426 -0.2199
 9989SOL    HW130866   0.420   6.362   6.843 -0.5339 -0.3699  0.1186
 9989SOL    HW230867   0.428   6.464   6.970  0.1429  0.8149 -0.8584
 9990SOL     OW30868   4.372   1.086   5.834 -0.8469 -0.0673  0.7018
 9990SOL    HW130869   4.347   1.000   5.790  1.2457 -0.6306  0.5492
 9990SOL    HW230870   4.397   1.154   5.765  1.8318 -0.7609  0.8842
 9991SOL     OW30871   5.961   2.136   5.520 -0.0971 -0.0491  0.3893
 9991SOL    HW130872   5.969   2.037   5.512  0.8358  0.0303  0.2031
 9991SOL    HW230873   6.031   2.180   5.464 -0.6140  0.7207  0.3294
 9992SOL     OW30874   2.606   5.566   3.865  0.5266 -0.4795 -0.1704
 9992SOL    HW130875   2.636   5.520   3.949  0.2415  0.0862  0.2550
 9992SOL    HW230876   2.511   5.595   3.876  0.9028  0.8284 -0.1376
 9993SOL     OW30877   6.286   3.183   2.828  0.2009 -0.6276 -1.1523
 9993SOL    HW130878   6.336   3.100   2.802 -0.4349 -1.2214 -0.5018
 9993SOL    HW230879   6.202   3.190   2.774 -1.6760 -2.4303  1.3444
 9994SOL     OW30880   2.324   5.552   4.010 -0.2167 -0.0653  0.0532
 9994SOL    HW130881   2.406   5.570   4.063 -0.3556 -1.0207  0.6239
 9994SOL    HW230882   2.256   5.623   4.027 -0.1030 -0.1432  0.8543
 9995SOL     OW30883   6.566   2.706   6.055 -0.3340  0.3497  0.1082
 9995SOL    HW130884   6.510   2.667   6.128  1.0162 -1.6396  0.1516
 9995SOL    HW230885   6.605   2.793   6.085 -1.4174  0.5697  0.9514
 9996SOL     OW30886   0.035   3.888   4.787  0.6608 -0.4947 -0.9006
 9996SOL    HW130887  -0.034   3.828   4.747 -0.9986  0.4542  0.4143
 9996SOL    HW230888   0.067   3.850   4.874 -1.1215  0.8641  0.4437
 9997SOL     OW30889   3.396   0.432   6.773 -0.3377 -0.4409  0.3282
 9997SOL    HW130890   3.494   0.439   6.758 -0.1913 -4.0798 -1.5692
 9997SOL    HW230891   3.348   0.456   6.688 -0.8443 -1.6097  0.2674
 9998SOL     OW30892   5.389   0.373   2.912  0.9299 -0.0347  0.1201
 9998SOL    HW130893   5.299   0.330   2.907  1.1148 -0.4248  0.0970
 9998SOL    HW230894   5.436   0.341   2.994  1.1503 -0.0371 -0.0069
 9999SOL     OW30895   6.769   0.591   6.892  0.2763  0.0976  0.2911
 9999SOL    HW130896   6.750   0.589   6.991  3.1817 -0.3621  0.9362
 9999SOL    HW230897   6.791   0.499   6.861  2.3462  0.6750 -0.0693
10000SOL     OW30898   3.254   1.851   2.048  0.3447 -0.1739  0.0938
10000SOL    HW130899   3.345   1.873   2.082 -0.7506  3.2254  1.2106
10000SOL    HW230900   3.239   1.896   1.960  0.4283 -2.5334 -1.2001
10001SOL     OW30901   4.582   4.648   5.090  0.7187 -0.3371 -0.1364
10001SOL    HW130902   4.490   4.649   5.051  0.5206 -2.3801  0.1942
10001SOL    HW230903   4.606   4.741   5.120 -1.9190 -0.0424  1.3748
10002SOL     OW30904   2.089   0.642   4.137 -0.3172  0.4323  0.8813
10002SOL    HW130905   2.031   0.677   4.209 -0.7536  0.2897  0.6071
10002SOL    HW230906   2.051   0.556   4.102 -0.9125  1.2293 -0.5022
10003SOL     OW30907   6.440   6.250   0.921 -0.2034  0.2817  0.1132
10003SOL    HW130908   6.443   6.184   0.846 -1.2913  0.4339 -0.0819
10003SOL    HW230909   6.498   6.328   0.899  2.2013 -1.1591  0.9347
10004SOL     OW30910   3.133   4.868   4.772  0.2920 -0.0409  0.2584
10004SOL    HW130911   3.131   4.900   4.866  3.0073 -1.1787  0.7768
10004SOL    HW230912   3.227   4.857   4.741 -0.4843 -2.3137 -1.6578
10005SOL     OW30913   0.993   4.107   1.682  0.1987 -0.0447 -0.0057
10005SOL    HW130914   0.952   4.185   1.635 -1.8052 -1.1821 -0.2710
10005SOL    HW230915   0.991   4.027   1.622  0.8021 -0.6789  0.7941
10006SOL     OW30916   5.146   3.979   4.313 -0.1562 -0.1902 -0.0920
10006SOL    HW130917   5.243   3.974   4.289 -0.0434  1.7530 -0.1541
10006SOL    HW230918   5.133   4.044   4.388 -1.3448 -0.9807  0.4239
10007SOL     OW30919   4.333   2.106   6.623 -0.0370 -0.1545  0.2689
10007SOL    HW130920   4.250   2.129   6.673 -0.0225  0.0985  0.1768
10007SOL    HW230921   4.319   2.123   6.525  0.6188  1.3322  0.4121
10008SOL     OW30922   1.169   4.771   1.157 -0.1978  0.0411  0.2043
10008SOL    HW130923   1.165   4.814   1.067 -1.0442 -1.8904 -0.7252
10008SOL    HW230924   1.262   4.779   1.194  0.2846  0.4319 -1.0396
10009SOL     OW30925   5.100   4.182   4.513  0.5747 -0.4259 -0.2223
10009SOL    HW130926   5.026   4.248   4.510  0.8730 -0.0367  0.6805
10009SOL    HW230927   5.188   4.228   4.500  0.7916 -0.6124  0.4990
10010SOL     OW30928   4.113   0.849   4.721 -0.3239  0.2204 -0.4771
10010SOL    HW130929   4.081   0.849   4.626  0.4923  2.0342 -0.7850
10010SOL    HW230930   4.085   0.764   4.765 -1.8031 -0.1247 -1.9721
10011SOL     OW30931   1.969   6.659   3.349 -0.8045 -0.2026 -0.4548
10011SOL    HW130932   1.992   6.595   3.276 -1.0280  0.2383 -0.9171
10011SOL    HW230933   1.870   6.654   3.368 -0.6541 -0.7680  0.2598
10012SOL     OW30934   2.531   3.228   0.756  0.1213 -0.5364  0.4227
10012SOL    HW130935   2.591   3.192   0.828  2.1898  0.9032 -0.4923
10012SOL    HW230936   2.437   3.197   0.773  0.6104 -0.7140  3.4159
10013SOL     OW30937   3.691   0.932   0.314 -0.1402  0.6832 -0.2883
10013SOL    HW130938   3.700   1.004   0.245  0.2425 -0.6876 -1.7218
10013SOL    HW230939   3.602   0.889   0.305  0.2699 -0.1283 -0.5898
10014SOL     OW30940   1.136   2.294   1.390 -0.5135  0.2558  0.0015
10014SOL    HW130941   1.177   2.360   1.453  0.6493 -1.0743  0.6797
10014SOL    HW230942   1.194   2.285   1.309 -0.8937  0.3851 -0.2869
10015SOL     OW30943   2.875   6.977   3.662  0.2858 -0.4696  0.1900
10015SOL    HW130944   2.886   6.981   3.562  0.1704 -2.5545  0.0380
10015SOL    HW230945   2.859   7.069   3.698  1.4211  0.4678 -1.5740
10016SOL     OW30946   3.235   3.743   2.387 -0.1902 -0.2411 -0.3712
10016SOL    HW130947   3.170   3.797   2.333  1.2737  1.3188 -0.6531
10016SOL    HW230948   3.231   3.647   2.358 -0.9529  0.1842 -1.7467
10017SOL     OW30949   0.186   5.062   1.993 -0.2270  0.0934  0.5501
10017SOL    HW130950   0.147   5.147   2.030 -2.2754 -0.9760  0.9488
10017SOL    HW230951   0.284   5.060   2.015 -0.3755  1.7640  1.6414
10018SOL     OW30952   3.091   6.019   0.902 -0.0277  0.1592  0.4310
10018SOL    HW130953   3.155   6.062   0.838  2.2974  0.2703  2.6702
10018SOL    HW230954   3.141   5.963   0.967 -2.5418 -2.0565  0.6480
10019SOL     OW30955   6.743   1.580   6.907 -0.2125  0.5671 -0.2101
10019SOL    HW130956   6.807   1.517   6.952  0.2443  1.5195  0.5174
10019SOL    HW230957   6.795   1.655   6.865 -0.6164 -0.3586 -2.4833
10020SOL     OW30958   6.872   1.513   1.661  0.4620  0.2862  0.0476
10020SOL    HW130959   6.841   1.583   1.596  0.0175  0.6121  0.6032
10020SOL    HW230960   6.864   1.548   1.754  0.4276 -0.4346  0.3216
10021SOL     OW30961   6.921   4.153   6.943 -0.1004 -0.0441  0.2168
10021SOL    HW130962   6.875   4.220   7.000 -0.6377  0.2560 -0.5527
10021SOL    HW230963   6.914   4.063   6.985  1.8419  0.5567  1.9730
10022SOL     OW30964   6.725   2.843   1.864  0.2841 -0.7674  0.0306
10022SOL    HW130965   6.782   2.904   1.918  2.2957 -2.1070 -0.4787
10022SOL    HW230966   6.716   2.880   1.771  0.4003 -0.6145  0.0800
10023SOL     OW30967   2.928   3.764   2.971  0.1346  0.5847 -0.1758
10023SOL    HW130968   2.846   3.740   3.023 -0.2978 -1.5855 -1.7185
10023SOL    HW230969   2.972   3.843   3.014 -0.8947 -0.2351  2.6542
10024SOL     OW30970   3.792   4.846   1.186 -0.2043 -0.5060  0.5376
10024SOL    HW130971   3.710   4.903   1.180 -0.2784 -0.7161 -0.6496
10024SOL    HW230972   3.778   4.762   1.134  1.0207 -0.2271 -0.2667
10025SOL     OW30973   3.154   1.947   5.709 -0.1518  0.2321 -0.0154
10025SOL    HW130974   3.180   1.859   5.748 -1.0014 -0.4748 -0.9931
10025SOL    HW230975   3.108   1.933   5.621 -1.0661  1.5890  0.2050
10026SOL     OW30976   2.709   1.196   0.756  0.3026  0.8074 -0.2853
10026SOL    HW130977   2.631   1.173   0.814  1.6938 -1.6096  0.7435
10026SOL    HW230978   2.764   1.267   0.801  0.6293 -0.0789  0.7734
10027SOL     OW30979   2.507   6.232   0.671  0.1616  0.2959  0.2611
10027SOL    HW130980   2.535   6.254   0.577 -0.9863  2.0169  0.2806
10027SOL    HW230981   2.589   6.225   0.728  0.9264 -1.4440 -0.9562
10028SOL     OW30982   4.066   5.615   3.546 -0.0738  0.5424  0.7956
10028SOL    HW130983   4.004   5.541   3.570  0.0433  0.4731  0.8826
10028SOL    HW230984   4.141   5.619   3.612  0.9660 -0.4794 -0.2921
10029SOL     OW30985   5.327   6.141   5.037 -0.0398 -0.1997  0.3895
10029SOL    HW130986   5.316   6.077   4.960 -0.4027 -0.1848  0.4286
10029SOL    HW230987   5.324   6.235   5.003  2.1022 -0.1933  0.1040
10030SOL     OW30988   6.220   1.879   3.498 -0.3725  0.1011 -0.2838
10030SOL    HW130989   6.254   1.943   3.566 -0.5292  0.7422 -0.7974
10030SOL    HW230990   6.147   1.922   3.445 -2.3097 -1.3631  1.0540
10031SOL     OW30991   4.013   0.507   6.246  0.3317  0.3259  0.3447
10031SOL    HW130992   3.917   0.478   6.252 -0.0125  1.4776  0.5580
10031SOL    HW230993   4.022   0.599   6.283  1.4091  0.4985 -0.3229
10032SOL     OW30994   6.479   5.048   0.335 -0.0533  0.3581 -0.5688
10032SOL    HW130995   6.385   5.017   0.328  0.1504 -0.2024 -0.8783
10032SOL    HW230996   6.482   5.148   0.330 -0.5003  0.3222 -2.1940
10033SOL     OW30997   1.210   1.615   6.826  1.1596 -0.2911  0.0158
10033SOL    HW130998   1.178   1.710   6.826  2.1917  0.1319 -2.2914
10033SOL    HW230999   1.172   1.566   6.905 -1.3991  1.3499 -0.1122
10034SOL     OW31000   0.544   2.599   0.268 -0.1151  0.4120 -0.3084
10034SOL    HW131001   0.591   2.678   0.228  0.4444  1.0311  1.4758
10034SOL    HW231002   0.475   2.631   0.333 -0.6322 -0.5628 -0.3611
10035SOL     OW31003   5.719   2.568   2.023  1.2153  0.2962 -0.5784
10035SOL    HW131004   5.704   2.470   2.009  1.1332  0.1612  0.3675
10035SOL    HW231005   5.689   2.593   2.115  2.6206  0.9148 -0.2569
10036SOL     OW31006   5.617   4.751   6.187 -0.2943 -0.1101  0.2012
10036SOL    HW131007   5.536   4.772   6.242 -1.1949 -1.4942 -0.5452
10036SOL    HW231008   5.670   4.678   6.231 -0.2286 -0.2083 -0.0414
10037SOL     OW31009   4.956   6.554   2.620 -0.0647 -0.1436  0.3557
10037SOL    HW131010   4.951   6.455   2.604 -1.1730  0.1049 -1.1423
10037SOL    HW231011   4.923   6.602   2.538 -0.0062  1.4584  1.2345
10038SOL     OW31012   3.358   7.003   4.971  0.0341  0.1118  0.5101
10038SOL    HW131013   3.333   7.026   5.065 -1.0548  0.2353  0.1993
10038SOL    HW231014   3.314   7.067   4.908 -0.5391 -0.9352 -0.1759
10039SOL     OW31015   4.989   5.879   5.945  0.3374  1.2770 -0.1036
10039SOL    HW131016   4.979   5.894   6.043 -0.4055  2.3158 -0.3231
10039SOL    HW231017   4.990   5.780   5.926  0.8384  1.0618  0.9653
10040SOL     OW31018   6.391   4.357   5.512 -0.3283  0.7506 -0.3987
10040SOL    HW131019   6.418   4.446   5.478  3.2902 -0.6741 -1.6830
10040SOL    HW231020   6.366   4.298   5.435  0.5809 -0.3092  0.1003
10041SOL     OW31021   1.126   0.062   4.462  0.5290 -0.3101  0.3720
10041SOL    HW131022   1.188   0.139   4.445  0.2107  0.4723  2.4375
10041SOL    HW231023   1.039   0.079   4.415  1.3190 -0.7163 -1.3289
10042SOL     OW31024   1.480   1.330   6.593  0.5364  0.1754  0.1790
10042SOL    HW131025   1.491   1.258   6.662 -0.5653 -0.3332 -0.1565
10042SOL    HW231026   1.387   1.368   6.599  1.0037  1.3544  0.1405
10043SOL     OW31027   6.275   2.538   4.801  0.8511 -0.4025 -0.0050
10043SOL    HW131028   6.203   2.522   4.868  0.0639 -0.0820 -0.7583
10043SOL    HW231029   6.337   2.459   4.799  1.6081  0.0920  1.9481
10044SOL     OW31030   1.932   2.603   3.405 -0.0719 -0.6119  0.0912
10044SOL    HW131031   1.899   2.510   3.391 -1.9199 -0.1233  0.9406
10044SOL    HW231032   1.913   2.658   3.324  0.6569 -0.8508 -0.2535
10045SOL     OW31033   4.398   0.625   1.535  0.1250 -0.3573  0.0188
10045SOL    HW131034   4.398   0.693   1.609  1.6083 -0.7930  0.4567
10045SOL    HW231035   4.304   0.608   1.506 -0.3389  1.4653  0.2729
10046SOL     OW31036   3.757   1.130   0.114 -0.7247 -0.6204 -0.2059
10046SOL    HW131037   3.787   1.144   0.019 -0.7518  1.2516  0.0105
10046SOL    HW231038   3.836   1.139   0.175 -1.0692  0.4909  0.0947
10047SOL     OW31039   0.379   2.415   5.709 -0.9439  0.3528  0.3807
10047SOL    HW131040   0.311   2.457   5.770 -0.5313  2.8062 -0.7060
10047SOL    HW231041   0.461   2.392   5.762 -1.4940  0.1402  1.1704
10048SOL     OW31042   4.139   3.400   1.937 -0.1087  0.4224 -0.6327
10048SOL    HW131043   4.222   3.375   1.888 -0.1088 -0.1941 -0.3197
10048SOL    HW231044   4.127   3.499   1.933  1.4333  0.7040  0.5836
10049SOL     OW31045   4.218   1.166   4.465 -0.3602  0.1843  0.2335
10049SOL    HW131046   4.128   1.124   4.473 -0.3285  0.2695  1.1747
10049SOL    HW231047   4.286   1.096   4.447 -0.7165  0.2199 -1.4073
10050SOL     OW31048   2.538   5.739   5.063 -0.0534  0.3031 -0.3526
10050SOL    HW131049   2.578   5.814   5.011  0.8662  0.5254  0.6358
10050SOL    HW231050   2.449   5.766   5.099 -0.4358  0.3478 -1.2928
10051SOL     OW31051   2.597   6.304   3.826 -0.8788  0.2269 -0.7677
10051SOL    HW131052   2.516   6.325   3.772 -0.8134  1.2257 -0.4930
10051SOL    HW231053   2.655   6.385   3.833 -0.6829  0.0015  0.4412
10052SOL     OW31054   3.355   5.313   5.347 -0.3896  0.3760 -0.0437
10052SOL    HW131055   3.425   5.348   5.285 -0.5109  0.6599 -0.0203
10052SOL    HW231056   3.374   5.344   5.440 -0.2547  0.0198  0.0492
10053SOL     OW31057   6.204   5.935   6.015  0.5447  0.1249  0.2238
10053SOL    HW131058   6.119   5.988   6.015  0.3968 -0.0616 -1.1865
10053SOL    HW231059   6.206   5.875   6.095 -1.1864 -0.6714 -0.2680
10054SOL     OW31060   6.926   0.667   3.466  0.8120  0.6210 -0.2032
10054SOL    HW131061   6.856   0.699   3.402  0.5178 -0.9991 -0.7429
10054SOL    HW231062   7.016   0.694   3.433  0.5425  1.5990 -0.1863
10055SOL     OW31063   5.455   2.146   0.508 -0.0110 -0.0767  0.1577
10055SOL    HW131064   5.502   2.116   0.592 -1.3034 -1.1762  0.5329
10055SOL    HW231065   5.501   2.107   0.429  0.2757 -0.3724  0.4647
10056SOL     OW31066   4.608   1.399   2.746  0.0587 -0.2759  0.2677
10056SOL    HW131067   4.601   1.358   2.838  0.7141 -0.0785  0.4100
10056SOL    HW231068   4.572   1.492   2.749 -1.1541 -0.7145  0.0118
10057SOL     OW31069   6.677   5.087   6.232 -0.2312  0.3425  0.2200
10057SOL    HW131070   6.662   4.988   6.238  0.0122  0.3113  0.3026
10057SOL    HW231071   6.602   5.129   6.180  0.7053 -0.1625 -1.6159
10058SOL     OW31072   6.677   5.643   1.503  0.1912  0.1243 -0.3409
10058SOL    HW131073   6.751   5.706   1.481 -0.0833  0.6767  0.2741
10058SOL    HW231074   6.629   5.675   1.585 -0.1208 -0.7454 -0.1728
10059SOL     OW31075   6.939   5.020   3.993 -0.4698  0.1258  0.3409
10059SOL    HW131076   7.026   5.066   3.976  0.3504 -0.9565  1.4605
10059SOL    HW231077   6.869   5.089   4.012  0.7051  0.9763  1.8785
10060SOL     OW31078   6.357   6.833   0.445 -0.5666  0.1416 -0.1345
10060SOL    HW131079   6.309   6.821   0.531 -1.4157  0.3218 -0.5730
10060SOL    HW231080   6.321   6.913   0.397  0.6834  0.7237 -0.1400
10061SOL     OW31081   4.609   3.863   0.953  0.2698 -0.0196  0.9215
10061SOL    HW131082   4.567   3.774   0.934 -0.2678  0.2578  0.7750
10061SOL    HW231083   4.551   3.914   1.017  0.2443  0.4682  0.5201
10062SOL     OW31084   3.098   3.951   4.623  0.6285 -0.1697  0.2354
10062SOL    HW131085   3.088   3.853   4.642  2.1092 -0.3363  0.2583
10062SOL    HW231086   3.066   4.004   4.701 -0.1171 -0.6239  0.2512
10063SOL     OW31087   4.624   3.946   6.632 -1.1919 -0.3911 -0.0481
10063SOL    HW131088   4.627   3.902   6.543  1.9374  0.6264 -0.5708
10063SOL    HW231089   4.618   3.877   6.704 -3.4957 -1.2253 -0.9586
10064SOL     OW31090   1.237   3.488   6.932  0.4670 -0.0273  0.5874
10064SOL    HW131091   1.189   3.509   7.018  0.3163 -0.5223  0.6270
10064SOL    HW231092   1.178   3.431   6.875  0.1930  1.0366 -0.2432
10065SOL     OW31093   3.702   0.911   5.446  0.2138  0.1372  0.4816
10065SOL    HW131094   3.737   1.000   5.477  2.2882 -0.8527  1.0939
10065SOL    HW231095   3.751   0.882   5.364 -0.5675 -0.3845  0.1851
10066SOL     OW31096   3.695   3.425   1.638 -0.0200  0.1319 -0.4822
10066SOL    HW131097   3.673   3.514   1.679 -0.1694  1.3770 -3.0345
10066SOL    HW231098   3.714   3.359   1.710  0.9891  2.4364  1.5335
10067SOL     OW31099   3.586   2.825   2.088  0.1192 -0.5988  0.3141
10067SOL    HW131100   3.600   2.842   2.185  1.5135 -1.2353  0.2554
10067SOL    HW231101   3.590   2.726   2.070 -0.8334 -0.5406 -0.2968
10068SOL     OW31102   6.000   1.854   0.800 -0.2527  0.1319  0.6895
10068SOL    HW131103   5.987   1.782   0.868 -1.6588  1.2934  1.7258
10068SOL    HW231104   6.030   1.938   0.846  3.6995 -0.2914 -0.7367
10069SOL     OW31105   0.086   4.812   4.750 -0.4863 -0.0266 -0.1956
10069SOL    HW131106   0.007   4.841   4.805  0.2406  0.4204  0.6378
10069SOL    HW231107   0.141   4.746   4.802 -0.9679 -1.3261 -1.2574
10070SOL     OW31108   4.243   4.567   1.004  0.5672  0.2023 -0.3976
10070SOL    HW131109   4.207   4.492   0.949  0.5110 -0.2415  0.2344
10070SOL    HW231110   4.312   4.616   0.952 -1.2303  1.3452 -1.8085
10071SOL     OW31111   4.132   6.665   3.930 -0.2810 -0.1771 -0.1688
10071SOL    HW131112   4.133   6.600   4.006 -2.4128  0.9070  0.8729
10071SOL    HW231113   4.189   6.630   3.855  0.8683 -1.8694  1.4134
10072SOL     OW31114   1.742   0.776   2.798  0.0592  0.2200  0.2949
10072SOL    HW131115   1.658   0.753   2.749  1.3868  1.2775 -2.7403
10072SOL    HW231116   1.720   0.825   2.882 -2.3913 -2.6132  1.4534
10073SOL     OW31117   4.072   2.060   1.281 -0.8483  0.6624  0.3401
10073SOL    HW131118   4.044   2.066   1.186 -0.7071 -0.8110  0.1846
10073SOL    HW231119   3.998   2.092   1.340 -2.0016 -0.9230 -0.1673
10074SOL     OW31120   2.011   2.561   4.570  0.0795  0.0030 -0.5201
10074SOL    HW131121   1.915   2.565   4.543  0.2394  0.5300 -1.0451
10074SOL    HW231122   2.057   2.645   4.542  0.6481 -0.1502 -0.0796
10075SOL     OW31123   5.052   3.949   1.643  0.3794 -0.2953 -0.1928
10075SOL    HW131124   5.038   3.850   1.630  0.2260 -0.4224  0.8753
10075SOL    HW231125   4.967   3.990   1.676  0.1439  0.3792 -1.5769
10076SOL     OW31126   2.117   3.535   0.894  0.0411 -0.0032  0.9771
10076SOL    HW131127   2.074   3.493   0.973 -0.4767 -0.6302  0.3674
10076SOL    HW231128   2.113   3.473   0.816  0.5029  0.6232  0.4387
10077SOL     OW31129   6.414   5.682   0.794  0.5449 -0.1854  0.1148
10077SOL    HW131130   6.345   5.745   0.759  0.1384 -1.0612 -0.6942
10077SOL    HW231131   6.504   5.707   0.759  0.6575  0.9086  1.1035
10078SOL     OW31132   0.875   5.573   2.564 -0.2796  0.1024 -0.1829
10078SOL    HW131133   0.837   5.649   2.617 -0.9209 -1.2435  1.3833
10078SOL    HW231134   0.959   5.541   2.609  0.4388  0.3812 -1.2885
10079SOL     OW31135   2.334   5.267   1.964 -0.4269  0.2545  0.2394
10079SOL    HW131136   2.309   5.247   1.869 -0.7635 -0.7471  0.5252
10079SOL    HW231137   2.266   5.228   2.025 -1.1986  2.4097  0.8737
10080SOL     OW31138   4.562   1.524   4.999 -0.1203 -0.3673 -0.1813
10080SOL    HW131139   4.580   1.533   4.901  1.0523 -1.0480 -0.0543
10080SOL    HW231140   4.623   1.585   5.050 -2.4518  1.9355  0.0758
10081SOL     OW31141   3.080   1.862   6.836 -0.5044  0.2570  0.1156
10081SOL    HW131142   3.087   1.772   6.879 -1.4726 -0.9311 -2.0266
10081SOL    HW231143   3.165   1.881   6.785 -0.1341  0.7643  0.9108
10082SOL     OW31144   5.400   3.339   3.465  0.4701  0.1416 -0.0426
10082SOL    HW131145   5.331   3.349   3.535  0.2763  0.4925 -0.2792
10082SOL    HW231146   5.488   3.372   3.500  0.4675 -0.0829  0.1767
10083SOL     OW31147   1.830   0.253   3.471  0.5671  0.5888  0.4639
10083SOL    HW131148   1.800   0.249   3.566  2.0154  1.4051  0.9794
10083SOL    HW231149   1.881   0.170   3.448 -0.7196 -0.1077  0.0460
10084SOL     OW31150   5.089   5.881   1.440  0.1016 -0.4120 -0.4312
10084SOL    HW131151   5.043   5.943   1.504  0.3565  0.9446 -1.5053
10084SOL    HW231152   5.042   5.793   1.438 -0.3229 -0.2385  1.0778
10085SOL     OW31153   3.877   0.264   4.870 -0.4279  0.2627  0.3928
10085SOL    HW131154   3.872   0.224   4.961 -2.4377  1.4593  0.8908
10085SOL    HW231155   3.965   0.309   4.857  0.8985 -2.0871  0.7261
10086SOL     OW31156   5.980   4.944   2.057 -0.3873  0.3503 -0.1801
10086SOL    HW131157   6.015   4.983   1.972 -2.0192 -1.8756 -2.0305
10086SOL    HW231158   6.055   4.933   2.122  1.0894  1.3774 -1.6329
10087SOL     OW31159   6.892   3.924   6.515  0.5132 -0.3627  0.2901
10087SOL    HW131160   6.856   3.860   6.583  0.8641  0.1766  1.0025
10087SOL    HW231161   6.865   3.895   6.423  2.7425 -2.9628  0.3398
10088SOL     OW31162   3.035   5.978   4.864 -0.2965  0.2865  0.5613
10088SOL    HW131163   3.030   6.013   4.771  0.5605 -0.4584  0.2263
10088SOL    HW231164   3.117   6.012   4.909  1.0347 -1.9030 -0.0650
10089SOL     OW31165   1.820   3.874   2.830 -0.0170  0.0921  0.0663
10089SOL    HW131166   1.778   3.962   2.851  1.0099  0.6443 -0.1608
10089SOL    HW231167   1.749   3.808   2.805 -0.8023  0.8082  0.3706
10090SOL     OW31168   0.116   3.792   1.673 -0.0518 -0.1129 -0.2693
10090SOL    HW131169   0.196   3.787   1.614 -0.7982  0.0597 -1.3216
10090SOL    HW231170   0.103   3.704   1.720  0.0715 -0.5363 -1.0153
10091SOL     OW31171   5.182   6.584   0.980  0.3803  0.2723  0.3582
10091SOL    HW131172   5.272   6.577   1.021  0.3605 -1.4657  0.2005
10091SOL    HW231173   5.112   6.557   1.046  0.0695  0.5196  0.1377
10092SOL     OW31174   6.921   3.282   6.032  0.1767 -0.2112 -0.0835
10092SOL    HW131175   6.877   3.239   6.112 -0.1332  0.9573  0.3992
10092SOL    HW231176   6.882   3.244   5.948 -0.4652 -0.4809  0.3286
10093SOL     OW31177   1.975   1.901   1.147 -0.7136  0.8267  0.0555
10093SOL    HW131178   2.040   1.827   1.128 -1.2956  0.0326  1.0748
10093SOL    HW231179   2.003   1.983   1.097  0.4491  0.1824 -0.3916
10094SOL     OW31180   4.853   1.066   6.864  0.1430  0.3074  0.2450
10094SOL    HW131181   4.813   0.976   6.882 -2.3510  1.6030  1.7685
10094SOL    HW231182   4.913   1.061   6.784 -1.9935 -2.1314 -1.3412
10095SOL     OW31183   3.122   4.611   6.647 -0.5822 -0.2962  0.3480
10095SOL    HW131184   3.028   4.587   6.672 -1.4138  1.7564 -0.5952
10095SOL    HW231185   3.133   4.601   6.548  0.0731 -0.1647  0.4044
10096SOL     OW31186   4.017   6.247   3.177  0.7032 -0.4332 -0.3719
10096SOL    HW131187   4.115   6.264   3.171  1.2021 -3.0066 -0.8445
10096SOL    HW231188   3.971   6.289   3.099  1.5245  0.2109 -0.5159
10097SOL     OW31189   4.884   5.648   4.531 -0.1286 -0.2432  0.2195
10097SOL    HW131190   4.877   5.581   4.606  0.4374 -1.0251 -0.4084
10097SOL    HW231191   4.974   5.642   4.490 -0.2549  0.5623 -0.1817
10098SOL     OW31192   2.429   0.063   6.267  0.5161 -0.3645  0.3216
10098SOL    HW131193   2.346   0.104   6.306  0.9932  2.2867 -1.2126
10098SOL    HW231194   2.503   0.130   6.267  2.0586 -1.9844 -0.3082
10099SOL     OW31195   2.304   2.648   6.046  0.0389 -0.0325 -0.3833
10099SOL    HW131196   2.277   2.718   6.112  1.5354  1.1646 -0.9694
10099SOL    HW231197   2.370   2.586   6.088 -0.8545 -0.7687 -0.0390
10100SOL     OW31198   0.212   0.645   6.527 -0.0657  0.3477  0.0748
10100SOL    HW131199   0.154   0.622   6.606 -0.3287 -0.2584 -0.2903
10100SOL    HW231200   0.286   0.579   6.520 -0.5077 -0.0804 -0.6585
10101SOL     OW31201   0.217   5.136   6.804  0.0949  0.2508  0.7413
10101SOL    HW131202   0.265   5.215   6.842  1.6981 -0.2051 -0.2186
10101SOL    HW231203   0.249   5.053   6.850 -0.0874 -0.0181  0.3877
10102SOL     OW31204   2.121   6.391   2.902  0.0872 -0.0940 -0.4466
10102SOL    HW131205   2.129   6.293   2.885  1.1235  0.0520 -0.9193
10102SOL    HW231206   2.025   6.418   2.898 -0.2416 -1.1324 -0.0169
10103SOL     OW31207   1.955   1.560   6.774 -0.0300 -0.1053  0.2167
10103SOL    HW131208   2.021   1.611   6.719  0.8030 -1.8942 -0.5466
10103SOL    HW231209   2.000   1.523   6.855  0.1067 -1.7840 -0.5751
10104SOL     OW31210   1.656   0.406   2.165 -0.0606 -0.0296 -0.4606
10104SOL    HW131211   1.620   0.367   2.249 -1.5728 -0.3921 -1.2372
10104SOL    HW231212   1.719   0.340   2.123 -0.7182 -0.6373 -0.5247
10105SOL     OW31213   4.277   4.904   1.132 -0.7187 -0.1425  0.5011
10105SOL    HW131214   4.187   4.896   1.089  0.0908 -0.3583 -1.2386
10105SOL    HW231215   4.319   4.991   1.104 -0.7713  0.4356  2.1141
10106SOL     OW31216   6.495   3.727   3.032 -0.2655  0.0355 -0.7063
10106SOL    HW131217   6.451   3.815   3.013 -0.3636  0.0816 -0.2659
10106SOL    HW231218   6.446   3.655   2.982 -0.9162  0.0701 -0.1302
10107SOL     OW31219   0.320   0.858   2.705 -0.0870  0.1216  0.0264
10107SOL    HW131220   0.308   0.950   2.669 -2.7824 -0.2335 -0.1475
10107SOL    HW231221   0.384   0.807   2.647 -0.4294  1.1265 -1.2678
10108SOL     OW31222   3.071   2.468   0.202 -0.2342 -0.2494 -0.0931
10108SOL    HW131223   2.978   2.442   0.226 -0.8002  2.1094  0.4614
10108SOL    HW231224   3.081   2.471   0.103 -0.9303  0.0840 -0.1569
10109SOL     OW31225   5.835   5.530   0.560  0.5581  0.4213  0.0351
10109SOL    HW131226   5.772   5.453   0.546  0.9193  0.2796 -0.8491
10109SOL    HW231227   5.830   5.559   0.655 -0.3412 -0.0326  0.1415
10110SOL     OW31228   5.626   1.050   2.539  0.2911  0.5929  0.2068
10110SOL    HW131229   5.557   1.105   2.493 -2.4538 -2.2654  0.5858
10110SOL    HW231230   5.696   1.022   2.473 -1.1953  0.1328 -1.2256
10111SOL     OW31231   6.852   5.599   2.349  0.1241 -0.4642  0.0301
10111SOL    HW131232   6.904   5.641   2.274 -0.3600  1.2339  0.5924
10111SOL    HW231233   6.885   5.634   2.436 -1.1999 -0.2131  0.4548
10112SOL     OW31234   6.026   5.426   3.415  0.2635  0.0358  0.2498
10112SOL    HW131235   5.986   5.335   3.404 -0.2748  0.1702  1.0135
10112SOL    HW231236   6.032   5.471   3.326  1.7639 -1.2398 -0.3501
10113SOL     OW31237   4.137   6.658   0.939  0.3311 -0.1621  0.4996
10113SOL    HW131238   4.200   6.677   0.864  0.3274 -0.8054  0.3287
10113SOL    HW231239   4.149   6.564   0.970  1.7751  0.6481  2.6631
10114SOL     OW31240   4.274   1.309   4.030 -0.0775  0.2973  1.2096
10114SOL    HW131241   4.187   1.320   4.079  0.0691  1.5548  1.2028
10114SOL    HW231242   4.287   1.386   3.967  1.1597  0.2454  1.3830
10115SOL     OW31243   4.132   1.283   0.049 -0.0965  0.0781 -0.4630
10115SOL    HW131244   4.221   1.247   0.077 -1.0533 -2.0230  0.0418
10115SOL    HW231245   4.137   1.311  -0.047  1.3263  0.8109 -0.1953
10116SOL     OW31246   3.119   4.930   2.043  0.2538 -0.2148  0.5750
10116SOL    HW131247   3.071   4.977   1.969 -0.9303 -0.5808  1.0812
10116SOL    HW231248   3.217   4.929   2.024  0.1803  1.3369 -0.0570
10117SOL     OW31249   2.939   1.251   4.355 -0.1202 -0.2371  0.1218
10117SOL    HW131250   2.865   1.190   4.385 -1.8922  1.7515  0.0430
10117SOL    HW231251   2.971   1.222   4.265 -2.4998  0.1679 -0.9412
10118SOL     OW31252   3.518   0.540   0.354  0.1019 -0.1478 -0.1934
10118SOL    HW131253   3.433   0.491   0.372 -0.5352  0.7084 -0.7728
10118SOL    HW231254   3.497   0.635   0.330  1.3875  1.1974  3.3801
10119SOL     OW31255   5.843   2.355   0.284 -1.0858  0.1601 -0.2408
10119SOL    HW131256   5.884   2.320   0.199 -0.3912  0.3646  0.0060
10119SOL    HW231257   5.868   2.296   0.360 -0.7554  0.6123  0.0074
10120SOL     OW31258   5.357   1.907   2.912 -0.1391  0.3620 -0.4420
10120SOL    HW131259   5.393   1.969   2.982  2.2099 -1.0517 -0.2908
10120SOL    HW231260   5.378   1.813   2.937 -0.0011 -0.2381 -2.6370
10121SOL     OW31261   5.909   3.297   1.635  0.5277  0.5143  0.2241
10121SOL    HW131262   5.872   3.206   1.616  0.0691  1.2067 -2.6321
10121SOL    HW231263   5.994   3.310   1.584  0.6697  1.6591  0.7129
10122SOL     OW31264   1.400   4.414   5.708 -0.4336  0.2507 -0.5467
10122SOL    HW131265   1.346   4.343   5.664  0.1409 -0.0723 -0.7316
10122SOL    HW231266   1.437   4.475   5.639 -2.0249  1.5529 -0.3266
10123SOL     OW31267   4.043   1.060   5.231 -0.0488 -0.1588  0.4189
10123SOL    HW131268   3.951   1.095   5.248 -0.0236  1.3856 -2.1784
10123SOL    HW231269   4.110   1.133   5.246  0.3878 -0.2133 -1.1290
10124SOL     OW31270   4.632   6.501   6.101 -0.0581  0.6298  0.3716
10124SOL    HW131271   4.658   6.552   6.183 -3.0406  2.0898  0.5455
10124SOL    HW231272   4.614   6.406   6.125  2.6817  0.0755  0.6021
10125SOL     OW31273   1.317   6.682   1.923  0.2094 -0.3482 -0.2182
10125SOL    HW131274   1.319   6.644   2.015  0.0695  0.4341  0.1093
10125SOL    HW231275   1.330   6.781   1.927  1.6917 -0.4787 -1.1399
10126SOL     OW31276   0.738   0.641   4.096 -0.0876  0.2998 -0.3053
10126SOL    HW131277   0.806   0.677   4.032  1.1196  1.7134  1.6929
10126SOL    HW231278   0.684   0.715   4.133  1.9648  0.1695  3.3496
10127SOL     OW31279   5.103   0.184   2.759 -0.0678  0.2780 -0.0033
10127SOL    HW131280   5.109   0.158   2.855  2.2609  0.3875 -0.0788
10127SOL    HW231281   5.058   0.273   2.751  0.1395  0.4826  1.0166
10128SOL     OW31282   2.307   2.117   3.726 -0.1834  0.3233 -0.3944
10128SOL    HW131283   2.322   2.072   3.638 -0.1647 -0.9898  0.2581
10128SOL    HW231284   2.209   2.122   3.745 -0.1495 -0.3835 -0.0050
10129SOL     OW31285   1.824   4.897   2.966  0.2270  0.3752  0.3369
10129SOL    HW131286   1.797   4.961   3.038  0.0309  1.2308 -0.4829
10129SOL    HW231287   1.924   4.894   2.960  0.2404  0.4449  0.5183
10130SOL     OW31288   0.588   5.471   2.529 -0.5960 -0.3423  0.7992
10130SOL    HW131289   0.679   5.509   2.513 -0.9487  0.7468  1.2824
10130SOL    HW231290   0.596   5.375   2.556  0.2056 -1.2980 -2.4021
10131SOL     OW31291   1.517   1.886   6.497  0.0796  0.1068  0.4454
10131SOL    HW131292   1.517   1.798   6.544  0.5141  0.1524  0.5342
10131SOL    HW231293   1.571   1.952   6.549 -0.1845  0.4084  0.3428
10132SOL     OW31294   1.431   0.425   6.098 -0.2413 -0.2842 -0.1525
10132SOL    HW131295   1.525   0.408   6.126 -0.9522 -3.8799  0.4934
10132SOL    HW231296   1.368   0.386   6.165 -2.2228  0.7507 -1.2927
10133SOL     OW31297   1.706   3.013   6.852 -0.0061 -0.0628 -0.0301
10133SOL    HW131298   1.730   2.963   6.769  0.0777 -1.8838  1.0198
10133SOL    HW231299   1.674   2.948   6.922 -0.4272  1.4406  1.2399
10134SOL     OW31300   2.803   2.182   3.406 -0.5567  0.0019  0.4687
10134SOL    HW131301   2.813   2.272   3.447  0.3074  0.7357 -1.2498
10134SOL    HW231302   2.865   2.118   3.451  0.6774  0.8765  0.0590
10135SOL     OW31303   5.737   2.425   4.662  0.2150  0.6491 -0.1448
10135SOL    HW131304   5.826   2.471   4.663  1.2122 -1.0174 -2.2640
10135SOL    HW231305   5.747   2.333   4.700 -0.3218  0.0301 -1.4532
10136SOL     OW31306   2.407   3.712   6.974 -0.2233 -0.4030  0.3817
10136SOL    HW131307   2.379   3.717   6.878  0.2055 -1.7966  0.1463
10136SOL    HW231308   2.465   3.790   6.997  1.2931 -1.0271 -1.0841
10137SOL     OW31309   0.352   4.995   0.421 -0.1612  0.1992 -0.3047
10137SOL    HW131310   0.262   5.039   0.428 -0.0954  0.4426 -0.9010
10137SOL    HW231311   0.374   4.981   0.324  1.4603  2.2801 -0.3088
10138SOL     OW31312   4.820   0.108   2.567 -0.4783 -0.4639  0.1332
10138SOL    HW131313   4.910   0.092   2.527 -0.9732  0.1536 -1.2957
10138SOL    HW231314   4.831   0.152   2.656  0.6411 -0.4664  0.0119
10139SOL     OW31315   0.762   5.766   1.404 -0.1946 -0.2738 -0.4920
10139SOL    HW131316   0.791   5.798   1.494 -0.6664 -0.0042 -0.4347
10139SOL    HW231317   0.770   5.842   1.339 -0.0606 -0.4097 -0.6352
10140SOL     OW31318   2.597   4.319   1.460  0.4110  0.5476  0.0892
10140SOL    HW131319   2.587   4.220   1.469 -0.8523  0.7264  0.8544
10140SOL    HW231320   2.517   4.357   1.414 -1.3285  1.6818  3.6717
10141SOL     OW31321   0.227   4.994   4.616 -0.3646  0.0519  0.2561
10141SOL    HW131322   0.303   4.951   4.567 -0.3980  0.3017 -0.0152
10141SOL    HW231323   0.167   4.923   4.654 -0.7256 -0.1400 -0.6538
10142SOL     OW31324   5.823   0.656   5.180  0.2965  0.0840  0.7523
10142SOL    HW131325   5.856   0.739   5.135  0.2163 -1.0144 -1.4626
10142SOL    HW231326   5.896   0.617   5.237  1.0366  0.5632  0.1430
10143SOL     OW31327   5.487   3.465   4.194 -0.2100  0.4419  0.0415
10143SOL    HW131328   5.507   3.459   4.292 -1.5833  0.9846  0.3703
10143SOL    HW231329   5.456   3.558   4.172 -1.3672 -0.0867 -0.6176
10144SOL     OW31330   5.711   3.100   5.056  0.7450 -0.4916  0.3077
10144SOL    HW131331   5.646   3.026   5.075 -1.7139  1.3226 -0.4755
10144SOL    HW231332   5.739   3.095   4.960 -0.5358  0.3277 -0.1401
10145SOL     OW31333   4.633   3.633   6.963  0.4683 -0.0455 -0.4270
10145SOL    HW131334   4.581   3.686   6.896 -0.6478 -0.8226 -0.2151
10145SOL    HW231335   4.717   3.682   6.987  1.0890  0.0860 -2.6440
10146SOL     OW31336   5.584   2.640   2.241 -0.2748  0.2840 -0.0152
10146SOL    HW131337   5.584   2.737   2.263  0.0764 -0.2002  2.4054
10146SOL    HW231338   5.512   2.621   2.175 -0.2016  2.2056 -0.7023
10147SOL     OW31339   3.067   5.936   2.883  0.4319 -0.2577 -0.0174
10147SOL    HW131340   2.980   5.902   2.848 -1.0030  2.7825  0.2661
10147SOL    HW231341   3.127   5.958   2.806  0.5130 -1.2652 -0.2522
10148SOL     OW31342   4.607   4.914   1.193 -0.0112 -0.2137  0.4271
10148SOL    HW131343   4.628   4.980   1.120  1.3323 -0.3566  0.6491
10148SOL    HW231344   4.519   4.870   1.175  0.6985 -0.8977 -1.5976
10149SOL     OW31345   6.565   2.095   4.917 -0.3804  0.0355 -0.0250
10149SOL    HW131346   6.632   2.084   4.844  0.8722  0.1107  1.0848
10149SOL    HW231347   6.601   2.057   5.002 -2.4941 -1.6519  0.2125
10150SOL     OW31348   1.893   2.959   2.157  0.1148  0.1356  0.0286
10150SOL    HW131349   1.856   2.922   2.072  1.5244  0.4615 -0.7611
10150SOL    HW231350   1.991   2.939   2.163  0.4634  1.8376  0.6165
10151SOL     OW31351   2.943   5.708   4.824 -0.0051  0.1321 -0.1719
10151SOL    HW131352   2.877   5.668   4.888  0.8590 -1.1292 -0.0280
10151SOL    HW231353   2.967   5.800   4.854 -0.9085  0.2196  0.3443
10152SOL     OW31354   0.155   1.561   6.135 -0.5056 -0.1097 -0.1658
10152SOL    HW131355   0.182   1.469   6.106 -2.2959 -0.8550  0.4052
10152SOL    HW231356   0.077   1.591   6.080  1.5297  2.1298 -2.0339
10153SOL     OW31357   6.340   6.876   1.124  0.0037 -0.1047 -0.5293
10153SOL    HW131358   6.329   6.776   1.130  2.5182 -0.3606  1.8088
10153SOL    HW231359   6.330   6.916   1.215 -1.5630  1.9304 -1.5167
10154SOL     OW31360   1.779   0.354   4.841  0.7377 -0.5524  0.0250
10154SOL    HW131361   1.760   0.376   4.745  1.5885  0.6904  0.1191
10154SOL    HW231362   1.724   0.275   4.869 -1.7939  0.8683 -0.6375
10155SOL     OW31363   3.688   6.210   0.236 -0.2142  0.1563  0.0842
10155SOL    HW131364   3.611   6.262   0.272 -1.8550 -1.7543 -0.4863
10155SOL    HW231365   3.654   6.130   0.186  2.1530 -0.7804 -0.1543
10156SOL     OW31366   6.789   2.869   4.322 -0.1213 -0.5425  0.2330
10156SOL    HW131367   6.840   2.784   4.315 -0.7769 -1.0713  1.5596
10156SOL    HW231368   6.767   2.903   4.230 -0.8278 -2.4040 -0.3209
10157SOL     OW31369   5.301   3.053   1.218  0.3256  0.1312 -0.0622
10157SOL    HW131370   5.295   3.139   1.168  1.5782  1.1466  1.4190
10157SOL    HW231371   5.362   2.990   1.169 -0.3561  0.1678 -0.9936
10158SOL     OW31372   6.024   4.618   5.629  0.5311 -0.6964  0.0318
10158SOL    HW131373   6.011   4.707   5.673 -2.1097 -0.8446 -0.2489
10158SOL    HW231374   6.085   4.628   5.550 -0.3813  1.0706 -0.5012
10159SOL     OW31375   5.293   2.091   3.392 -0.4480  0.3289  0.1067
10159SOL    HW131376   5.340   2.064   3.476 -1.5529  1.2174  1.0208
10159SOL    HW231377   5.228   2.019   3.366 -2.2890  1.3467  1.7053
10160SOL     OW31378   3.099   2.891   5.281 -0.2033 -0.2654 -0.1963
10160SOL    HW131379   3.003   2.909   5.303 -0.2257 -1.4131  0.7500
10160SOL    HW231380   3.130   2.810   5.331  1.4452  0.4688  0.0275
10161SOL     OW31381   5.052   2.014   3.633  0.5010  0.1781  0.2567
10161SOL    HW131382   5.051   1.947   3.707  1.7634  1.6167  1.6460
10161SOL    HW231383   4.993   1.982   3.559 -2.9409 -0.1831  2.8819
10162SOL     OW31384   3.859   6.154   2.640 -0.0945 -0.4972  0.1119
10162SOL    HW131385   3.789   6.226   2.635  0.1782 -0.1853  0.7047
10162SOL    HW231386   3.833   6.078   2.580 -0.7922 -0.2522  0.0947
10163SOL     OW31387   0.322   3.824   5.773 -0.2681  0.0318  0.8842
10163SOL    HW131388   0.339   3.774   5.858  0.5523  0.7717  1.1719
10163SOL    HW231389   0.279   3.912   5.793  0.4302  0.4552  0.6016
10164SOL     OW31390   1.072   5.436   2.270 -0.3446  0.0620  0.0842
10164SOL    HW131391   1.050   5.413   2.365 -1.9850  0.5043 -0.1582
10164SOL    HW231392   1.168   5.462   2.263 -0.0309 -0.6330  1.4898
10165SOL     OW31393   0.182   5.553   6.042  0.0089 -0.1681  0.1801
10165SOL    HW131394   0.198   5.455   6.054  0.2553 -0.1074  0.3585
10165SOL    HW231395   0.205   5.602   6.126 -0.7687 -0.0310  0.3198
10166SOL     OW31396   2.600   0.571   2.209 -0.2838  0.3694  0.1043
10166SOL    HW131397   2.622   0.480   2.173 -0.1059  1.0869 -1.6876
10166SOL    HW231398   2.563   0.628   2.136 -1.1075  1.5271  1.3735
10167SOL     OW31399   3.003   6.195   6.786 -0.3836  0.1484 -0.1226
10167SOL    HW131400   3.011   6.104   6.746  0.8620  0.6634 -1.1085
10167SOL    HW231401   2.926   6.197   6.850  0.0371 -1.8040  0.5076
10168SOL     OW31402   4.672   2.773   2.721 -0.0368  0.2815 -0.6026
10168SOL    HW131403   4.655   2.681   2.684 -1.6034  0.2538  0.1091
10168SOL    HW231404   4.725   2.826   2.654 -1.3487 -0.2924 -2.1810
10169SOL     OW31405   1.278   3.725   3.948  0.4903 -0.6524  0.1081
10169SOL    HW131406   1.184   3.715   3.979  0.0097 -3.0568 -1.8534
10169SOL    HW231407   1.312   3.637   3.915  3.2669  0.2759  0.2527
10170SOL     OW31408   1.416   4.366   0.237  0.1351 -0.5498  0.2673
10170SOL    HW131409   1.510   4.376   0.269  0.4466 -1.2199 -0.3743
10170SOL    HW231410   1.374   4.456   0.226  1.3010 -0.1226 -1.1077
10171SOL     OW31411   4.159   1.278   4.841 -0.8258  0.6453 -0.0894
10171SOL    HW131412   4.132   1.197   4.893  1.6039  1.1225  2.1265
10171SOL    HW231413   4.239   1.256   4.784 -1.4301  0.9964 -1.1063
10172SOL     OW31414   3.823   6.771   6.681 -0.1026 -0.1088 -0.0442
10172SOL    HW131415   3.806   6.713   6.761  1.3862  0.6845  0.8923
10172SOL    HW231416   3.884   6.846   6.707 -0.8731  1.0997 -1.5548
10173SOL     OW31417   0.825   0.222   2.838 -0.4862 -0.3480  0.4012
10173SOL    HW131418   0.764   0.294   2.804 -0.7251 -0.8625 -0.2847
10173SOL    HW231419   0.828   0.225   2.938 -1.4867 -0.1885  0.4380
10174SOL     OW31420   1.331   1.341   1.953 -0.3642 -0.0686 -0.2295
10174SOL    HW131421   1.297   1.285   1.877 -0.8526 -0.2731  0.1389
10174SOL    HW231422   1.422   1.310   1.979 -0.5942 -0.6365 -0.0885
10175SOL     OW31423   3.709   3.695   3.796 -0.3950  0.0030  0.3566
10175SOL    HW131424   3.696   3.644   3.711  1.9012  0.4084 -0.2908
10175SOL    HW231425   3.702   3.632   3.873  0.6917 -1.0076 -0.3253
10176SOL     OW31426   3.166   4.995   0.567  0.3827  0.1408  0.1519
10176SOL    HW131427   3.229   4.918   0.561 -1.3883 -1.3345 -0.7419
10176SOL    HW231428   3.127   4.999   0.659 -2.5989 -2.7757 -0.7781
10177SOL     OW31429   1.280   3.358   1.299  0.3253  0.2133 -0.5526
10177SOL    HW131430   1.358   3.394   1.249  0.2681 -1.4254 -1.8787
10177SOL    HW231431   1.234   3.433   1.347  2.4479  1.2643 -0.0576
10178SOL     OW31432   1.006   3.867   1.487 -0.1141  0.2216  0.4729
10178SOL    HW131433   1.083   3.907   1.437  1.5889 -0.5632  2.3245
10178SOL    HW231434   0.937   3.835   1.422  1.7839 -0.3759 -1.3642
10179SOL     OW31435   1.056   0.674   2.626  0.7367  0.0965  0.5673
10179SOL    HW131436   1.069   0.762   2.674  1.8497 -0.3702  1.1500
10179SOL    HW231437   1.024   0.606   2.692  0.5049 -0.1055  0.2468
10180SOL     OW31438   5.032   4.225   0.848 -0.4870 -0.9547 -0.1514
10180SOL    HW131439   5.063   4.318   0.869 -2.8814 -0.2486  0.6219
10180SOL    HW231440   5.108   4.161   0.860  1.0523  0.7982 -0.0329
10181SOL     OW31441   0.862   0.613   2.017  0.5698  0.4731  0.2654
10181SOL    HW131442   0.855   0.712   2.004 -1.1267  0.6243  1.9232
10181SOL    HW231443   0.950   0.591   2.059  1.3143  1.1456 -0.8612
10182SOL     OW31444   1.575   5.528   3.814 -0.2321 -0.4225  0.1625
10182SOL    HW131445   1.612   5.446   3.858  0.2933 -0.0919  0.3477
10182SOL    HW231446   1.648   5.575   3.764 -0.6865 -0.4442 -0.5273
10183SOL     OW31447   4.050   2.815   5.677 -0.6574  0.3627  0.1340
10183SOL    HW131448   4.094   2.898   5.643 -3.2051  0.1287 -4.5021
10183SOL    HW231449   3.972   2.840   5.735 -1.7955  1.3963 -1.7323
10184SOL     OW31450   6.253   1.276   0.354 -0.1203  0.4000  0.0431
10184SOL    HW131451   6.338   1.265   0.302 -0.5767  1.3266 -0.9526
10184SOL    HW231452   6.176   1.241   0.300 -0.6274  1.5250  0.0017
10185SOL     OW31453   0.538   2.821   5.646 -0.5031  0.2183 -0.0794
10185SOL    HW131454   0.482   2.740   5.627 -0.5521  0.1179  0.4535
10185SOL    HW231455   0.484   2.885   5.701 -0.0352  0.0382  0.5995
10186SOL     OW31456   3.859   6.965   3.480 -0.6169 -0.8971  0.4271
10186SOL    HW131457   3.768   6.930   3.459 -0.4108 -0.4561 -1.3635
10186SOL    HW231458   3.857   7.065   3.480 -0.4210 -0.8701  1.8631
10187SOL     OW31459   0.338   3.840   6.237 -0.4020 -0.0651  0.5162
10187SOL    HW131460   0.435   3.814   6.241 -0.6333 -0.8369  3.6481
10187SOL    HW231461   0.323   3.921   6.293 -1.6751 -0.3403  0.6064
10188SOL     OW31462   0.982   4.761   3.094 -0.6548  0.7146 -0.1925
10188SOL    HW131463   0.930   4.676   3.086 -0.9307  0.8610  0.0612
10188SOL    HW231464   0.920   4.838   3.103 -0.4676  1.1521 -2.0930
10189SOL     OW31465   5.961   5.756   2.182  0.1249 -0.1286  0.2512
10189SOL    HW131466   5.915   5.779   2.268  0.4925 -1.9138  0.9724
10189SOL    HW231467   5.990   5.660   2.185  0.8667  0.0101 -1.5553
10190SOL     OW31468   2.080   3.167   0.963 -0.0704  0.1286  0.6040
10190SOL    HW131469   2.060   3.128   1.053  0.1338 -1.6088 -0.0485
10190SOL    HW231470   1.997   3.206   0.925 -0.5825 -0.6847  0.8481
10191SOL     OW31471   1.299   3.032   5.378 -0.3214  0.1486 -0.2199
10191SOL    HW131472   1.319   3.129   5.387  0.8058  0.0538 -1.2959
10191SOL    HW231473   1.283   2.992   5.468  2.3675  0.7154  0.5882
10192SOL     OW31474   6.327   2.580   6.865  0.6728  0.0390  0.0850
10192SOL    HW131475   6.313   2.671   6.904  2.2338  0.2683  0.1890
10192SOL    HW231476   6.332   2.587   6.765  0.2645 -0.0151  0.0594
10193SOL     OW31477   2.975   0.657   2.944 -0.1210  0.1968  0.3531
10193SOL    HW131478   2.902   0.724   2.929  0.3295  0.8020  0.8723
10193SOL    HW231479   3.025   0.643   2.859  1.0810  2.0537  0.6986
10194SOL     OW31480   2.529   0.727   2.010 -0.2562 -0.4247  0.3357
10194SOL    HW131481   2.433   0.717   1.984 -0.9627  1.4658  1.9928
10194SOL    HW231482   2.551   0.823   2.023  3.0198 -0.3377 -3.8246
10195SOL     OW31483   6.319   0.892   1.169  0.6811  0.1373 -0.1299
10195SOL    HW131484   6.313   0.807   1.116  0.2424  0.8036 -1.1963
10195SOL    HW231485   6.412   0.927   1.166  0.9574 -0.5140  0.6612
10196SOL     OW31486   1.230   6.044   6.816  0.0962  0.5657  0.3062
10196SOL    HW131487   1.218   6.052   6.718  1.3548 -1.2242 -0.0544
10196SOL    HW231488   1.154   6.088   6.864 -1.3909  0.0334 -1.4832
10197SOL     OW31489   6.921   6.187   3.340 -0.3340  0.1148 -0.1763
10197SOL    HW131490   6.955   6.281   3.348 -0.3470 -0.0016  1.8504
10197SOL    HW231491   6.964   6.142   3.261  1.8640  0.9569  0.4526
10198SOL     OW31492   1.381   5.583   5.207  0.7238  0.1015 -0.0877
10198SOL    HW131493   1.405   5.650   5.137  1.9099  0.0024  0.2108
10198SOL    HW231494   1.330   5.628   5.280  3.3587  1.2361  1.2023
10199SOL     OW31495   5.239   2.788   1.648  0.3937  0.3031 -0.4822
10199SOL    HW131496   5.314   2.854   1.643 -1.2127  2.2219 -0.9867
10199SOL    HW231497   5.238   2.733   1.564  0.7450  0.8448 -0.8500
10200SOL     OW31498   0.608   6.101   6.900 -0.3135 -0.8932  0.3002
10200SOL    HW131499   0.665   6.184   6.902 -3.1912  1.2078  0.6579
10200SOL    HW231500   0.662   6.025   6.864  1.8466  1.6356 -2.2750
10201SOL     OW31501   6.854   5.109   0.188 -0.3990  0.0227 -0.0505
10201SOL    HW131502   6.921   5.039   0.165 -0.9544  0.1322 -2.1932
10201SOL    HW231503   6.819   5.093   0.281  2.1301 -0.3545  0.9262
10202SOL     OW31504   1.333   0.546   1.122 -0.5836 -0.5110 -0.1500
10202SOL    HW131505   1.387   0.627   1.146  0.0329 -1.2322  0.9759
10202SOL    HW231506   1.238   0.560   1.150 -1.0812  0.8242 -2.2726
10203SOL     OW31507   2.223   2.113   5.910  0.1460  0.6612  0.0565
10203SOL    HW131508   2.181   2.032   5.948  0.4437  0.5594  0.1745
10203SOL    HW231509   2.289   2.087   5.839  1.0129  0.7220  0.8106
10204SOL     OW31510   5.579   4.482   5.957 -0.2483 -0.6795 -0.5334
10204SOL    HW131511   5.553   4.570   5.997 -0.4505 -0.3215 -1.4225
10204SOL    HW231512   5.548   4.479   5.862  1.5570 -0.8717 -1.1520
10205SOL     OW31513   2.057   5.231   0.602  0.3105 -0.8767  0.0137
10205SOL    HW131514   1.962   5.263   0.599 -0.2559 -2.4565  0.1785
10205SOL    HW231515   2.103   5.255   0.516 -0.9980 -2.2374 -1.1236
10206SOL     OW31516   5.853   1.577   2.876 -0.4115 -0.3066 -0.4613
10206SOL    HW131517   5.813   1.501   2.824 -0.8976  0.9460 -1.9866
10206SOL    HW231518   5.951   1.583   2.857 -0.8432  1.0569 -2.4905
10207SOL     OW31519   4.085   6.097   5.583 -0.1200 -0.4114  0.1216
10207SOL    HW131520   4.046   6.083   5.675 -1.2795 -2.0979 -0.5668
10207SOL    HW231521   4.093   6.194   5.565 -1.4055 -0.0214  1.4057
10208SOL     OW31522   5.019   3.961   4.737  0.0631 -0.1887  0.3975
10208SOL    HW131523   5.021   4.008   4.649  2.0316 -0.9767 -0.0485
10208SOL    HW231524   5.030   3.863   4.722 -0.1322 -0.3843  1.4913
10209SOL     OW31525   1.015   6.729   2.422  0.0447 -0.2187  0.4610
10209SOL    HW131526   0.956   6.760   2.348 -1.7640 -1.0026  1.5132
10209SOL    HW231527   0.967   6.737   2.509  1.4071 -1.1165  1.3439
10210SOL     OW31528   5.582   2.433   2.441 -0.0387 -0.1238  0.4964
10210SOL    HW131529   5.595   2.507   2.375 -1.5419 -1.2838 -1.2387
10210SOL    HW231530   5.516   2.461   2.511  1.4457  1.0703  1.4656
10211SOL     OW31531   4.899   3.393   2.215 -0.2172 -0.2896  0.2828
10211SOL    HW131532   4.914   3.331   2.137  2.6613  0.3030  0.2549
10211SOL    HW231533   4.941   3.354   2.297 -1.3853  0.0819  1.0868
10212SOL     OW31534   0.323   5.639   6.256 -0.3801  0.5595  0.5434
10212SOL    HW131535   0.261   5.698   6.309 -0.2466  0.0244  1.3068
10212SOL    HW231536   0.417   5.672   6.267 -0.1244 -0.6305  2.1516
10213SOL     OW31537   5.173   0.179   6.420 -0.0260 -0.0565  0.2461
10213SOL    HW131538   5.128   0.246   6.361  0.0788  1.3886  1.7438
10213SOL    HW231539   5.205   0.102   6.365 -1.2849  0.5018 -1.3392
10214SOL     OW31540   4.422   3.538   0.100  0.1579 -0.0240  0.4602
10214SOL    HW131541   4.376   3.625   0.115 -0.2616  0.4215 -2.7268
10214SOL    HW231542   4.510   3.555   0.055  0.7717 -1.2080  1.1643
10215SOL     OW31543   2.291   3.702   1.038 -0.0134  0.3924 -0.3362
10215SOL    HW131544   2.388   3.684   1.024 -0.0239  0.9386 -1.1794
10215SOL    HW231545   2.237   3.637   0.984 -0.1382 -0.3413  0.6501
10216SOL     OW31546   4.932   0.657   1.049  0.2388 -0.0063 -0.4559
10216SOL    HW131547   4.847   0.662   0.995 -0.8120  2.8274  1.2840
10216SOL    HW231548   4.909   0.642   1.145  1.8780 -1.1766 -0.2156
10217SOL     OW31549   6.727   1.227   4.658 -0.7690 -0.1406  0.0860
10217SOL    HW131550   6.767   1.260   4.572  1.3303  2.2628  1.8080
10217SOL    HW231551   6.716   1.128   4.655 -1.1193 -0.0896 -3.0400
10218SOL     OW31552   1.786   3.807   6.658 -0.2652 -0.0875  0.4956
10218SOL    HW131553   1.872   3.822   6.707 -0.6964 -1.0674  1.5899
10218SOL    HW231554   1.802   3.750   6.577  0.3598  1.1076 -0.2608
10219SOL     OW31555   5.033   4.938   2.170 -0.3537 -0.1800 -0.0806
10219SOL    HW131556   5.082   5.007   2.225  1.1489  0.1262 -1.7214
10219SOL    HW231557   4.973   4.885   2.230 -1.1769  2.1866  1.3388
10220SOL     OW31558   6.663   3.311   5.470 -0.1927  0.1949 -0.0575
10220SOL    HW131559   6.706   3.231   5.510  0.2873  0.4321 -0.0959
10220SOL    HW231560   6.649   3.380   5.541 -1.1275 -0.1357  0.0957
10221SOL     OW31561   3.744   0.851   0.578 -0.2539 -0.0326  0.3570
10221SOL    HW131562   3.710   0.869   0.486  0.2925 -0.4295  0.0675
10221SOL    HW231563   3.707   0.919   0.641  0.5006  1.1434 -0.4166
10222SOL     OW31564   4.383   1.838   0.722  0.0039 -0.7254  0.0635
10222SOL    HW131565   4.285   1.844   0.707 -0.1113 -0.5663  0.8074
10222SOL    HW231566   4.416   1.922   0.764  0.5349 -0.6195 -0.5465
10223SOL     OW31567   5.064   2.466   2.223 -0.4090 -0.1582 -0.3267
10223SOL    HW131568   5.074   2.412   2.307 -3.6435 -3.1560 -1.5886
10223SOL    HW231569   4.999   2.540   2.239 -1.1423 -0.8166 -0.1292
10224SOL     OW31570   6.656   6.902   4.589  0.5094 -0.0401  0.2226
10224SOL    HW131571   6.628   6.992   4.556  1.8293  0.3090  0.0014
10224SOL    HW231572   6.581   6.860   4.640 -0.6119  0.5882 -0.8527
10225SOL     OW31573   5.695   4.389   0.827  0.0664  0.2936 -0.4894
10225SOL    HW131574   5.672   4.334   0.747  0.2078 -1.2808  0.5237
10225SOL    HW231575   5.614   4.403   0.883  0.2442  0.2242 -0.2115
10226SOL     OW31576   3.271   2.174   3.499  0.1552 -0.5563 -0.6836
10226SOL    HW131577   3.293   2.176   3.597 -1.0776 -0.5919 -0.3897
10226SOL    HW231578   3.182   2.132   3.486  0.1367 -0.1992 -1.7994
10227SOL     OW31579   1.150   2.337   0.377  0.5743 -0.5836  0.2119
10227SOL    HW131580   1.207   2.412   0.412 -0.5307 -0.0645  0.9437
10227SOL    HW231581   1.209   2.259   0.354  1.6340  0.1232  0.4394
10228SOL     OW31582   1.434   5.225   4.754  0.0927 -0.4243 -0.5147
10228SOL    HW131583   1.492   5.291   4.801  0.3121 -0.2006 -1.0877
10228SOL    HW231584   1.491   5.168   4.694 -0.2894 -0.1011 -1.1998
10229SOL     OW31585   2.967   6.180   1.948  0.0481  0.6310 -0.4749
10229SOL    HW131586   3.034   6.205   1.878  0.3638  4.5001  0.9276
10229SOL    HW231587   2.997   6.098   1.996  2.2497  0.5648 -1.8361
10230SOL     OW31588   4.081   3.275   2.166  0.2076  0.6183  0.0538
10230SOL    HW131589   4.061   3.179   2.149 -1.2218  0.7883  0.6590
10230SOL    HW231590   4.104   3.320   2.079  2.3833 -0.5584 -0.0448
10231SOL     OW31591   2.861   6.267   2.538 -0.3676  0.1400  0.1773
10231SOL    HW131592   2.793   6.334   2.570 -1.2055 -1.2645  1.4684
10231SOL    HW231593   2.922   6.244   2.614  0.4010 -0.0013 -0.4745
10232SOL     OW31594   0.497   2.092   4.336 -0.0213 -0.0457  0.4138
10232SOL    HW131595   0.451   2.144   4.407  0.9565  1.2961  0.0941
10232SOL    HW231596   0.436   2.081   4.258 -0.7126 -0.5821  1.0200
10233SOL     OW31597   0.384   2.889   0.622 -0.3417  0.1570  0.5698
10233SOL    HW131598   0.342   2.836   0.696  0.8220 -1.0632  0.3898
10233SOL    HW231599   0.323   2.965   0.597 -0.8484  0.5044  2.6381
10234SOL     OW31600   2.447   2.675   0.615  0.1837  0.7786 -0.0535
10234SOL    HW131601   2.478   2.646   0.525  0.5782  0.1287  0.2844
10234SOL    HW231602   2.411   2.768   0.610  0.5912  0.9011 -0.7980
10235SOL     OW31603   6.648   2.161   1.103  0.1729 -0.6574 -0.2185
10235SOL    HW131604   6.616   2.145   1.196  2.7681  1.4469  1.1473
10235SOL    HW231605   6.747   2.152   1.099  0.5512  2.5601 -1.9180
10236SOL     OW31606   2.082   6.357   1.983 -0.1642 -0.1204 -0.0416
10236SOL    HW131607   1.987   6.332   1.965 -1.0878  0.9833  2.8612
10236SOL    HW231608   2.100   6.356   2.081  1.6132  3.6468 -0.1289
10237SOL     OW31609   2.617   5.099   3.759  0.2638  0.1171 -0.1768
10237SOL    HW131610   2.587   5.005   3.741  2.6028 -1.1676  1.9861
10237SOL    HW231611   2.665   5.134   3.678  0.5411 -1.0771 -0.5516
10238SOL     OW31612   1.963   0.505   1.582  0.0848  0.2411 -0.3794
10238SOL    HW131613   1.979   0.408   1.604 -1.6595  0.0280  0.0893
10238SOL    HW231614   1.897   0.512   1.508  0.3134  1.0857 -0.5107
10239SOL     OW31615   5.446   1.204   0.346 -0.2873 -0.0230 -0.9552
10239SOL    HW131616   5.353   1.233   0.368 -0.2462 -0.1072 -0.6725
10239SOL    HW231617   5.485   1.267   0.278  0.8496  2.3984  1.7076
10240SOL     OW31618   0.162   4.551   5.325  0.3878 -0.1595  0.1872
10240SOL    HW131619   0.169   4.525   5.422  0.2368  1.6357  0.7136
10240SOL    HW231620   0.168   4.651   5.317  3.5089 -0.3921 -1.9685
10241SOL     OW31621   0.239   0.131   1.289 -0.0672  0.4868  0.1262
10241SOL    HW131622   0.296   0.118   1.370  1.1881 -1.2205 -0.9279
10241SOL    HW231623   0.145   0.103   1.309  0.5742 -1.5401  0.6049
10242SOL     OW31624   2.964   5.202   3.341  0.0900 -0.2676  0.7308
10242SOL    HW131625   2.968   5.106   3.315  1.7969 -0.3170  1.0681
10242SOL    HW231626   2.996   5.213   3.435 -2.5055  0.3543  1.6352
10243SOL     OW31627   4.276   5.765   3.667  0.1734 -0.0112 -0.1125
10243SOL    HW131628   4.262   5.855   3.627  0.0331 -0.2282 -0.5591
10243SOL    HW231629   4.369   5.733   3.645  0.6729  0.5418  1.0882
10244SOL     OW31630   0.481   1.005   5.274  0.0747 -0.1404  0.5326
10244SOL    HW131631   0.414   1.038   5.207 -0.2583 -0.5249  0.6730
10244SOL    HW231632   0.569   1.049   5.257 -0.4931  1.2310  1.0513
10245SOL     OW31633   0.948   6.396   6.559  0.0290  0.0140 -0.3581
10245SOL    HW131634   0.947   6.339   6.476  0.1356  0.1317 -0.4412
10245SOL    HW231635   1.036   6.385   6.605  0.8456  1.5975 -1.4225
10246SOL     OW31636   4.163   1.036   6.567  0.1772 -0.4181  0.4836
10246SOL    HW131637   4.250   0.993   6.589  0.0604  0.3439  2.7813
10246SOL    HW231638   4.141   1.021   6.471  2.3647 -1.4258  0.0799
10247SOL     OW31639   0.559   6.100   2.395 -0.5065 -0.0387 -0.0820
10247SOL    HW131640   0.639   6.059   2.440 -0.3741 -0.4980 -0.7299
10247SOL    HW231641   0.495   6.029   2.368 -1.2678  0.3416  0.6410
10248SOL     OW31642   0.610   3.672   5.714 -0.0331 -0.0759  0.1242
10248SOL    HW131643   0.698   3.650   5.672  1.0597  0.9666  1.6914
10248SOL    HW231644   0.558   3.732   5.654  0.6285 -0.1825 -0.5666
10249SOL     OW31645   6.623   0.761   6.373  0.1501 -0.6083 -0.1877
10249SOL    HW131646   6.659   0.705   6.298  0.7326 -0.2397 -0.1908
10249SOL    HW231647   6.610   0.704   6.453  0.7540 -0.7548 -0.1877
10250SOL     OW31648   6.909   0.696   3.147  0.2473 -0.6007 -0.3548
10250SOL    HW131649   6.931   0.713   3.051  0.5729 -0.7795 -0.3139
10250SOL    HW231650   6.994   0.694   3.201  0.3178 -3.0865 -0.4741
10251SOL     OW31651   5.377   5.829   1.462 -0.0087 -0.2571  0.2915
10251SOL    HW131652   5.279   5.844   1.480  0.3222 -2.0607  5.0118
10251SOL    HW231653   5.387   5.767   1.384 -2.4939  0.8640 -1.0577
10252SOL     OW31654   2.582   4.920   4.223  0.0647  0.1583  0.6565
10252SOL    HW131655   2.494   4.960   4.197  0.8301  1.4160 -0.1452
10252SOL    HW231656   2.583   4.823   4.202 -1.1893  0.0996  0.8363
10253SOL     OW31657   6.410   6.143   2.867  0.2370  0.3915 -0.2920
10253SOL    HW131658   6.398   6.230   2.819 -0.8300 -0.2162 -1.1768
10253SOL    HW231659   6.469   6.083   2.814 -2.5492 -1.0392 -1.9795
10254SOL     OW31660   3.423   2.086   4.381 -0.1597  0.1891 -0.2836
10254SOL    HW131661   3.331   2.115   4.404 -0.8147 -2.2866  0.6030
10254SOL    HW231662   3.476   2.074   4.465  0.4130 -0.0257 -0.6672
10255SOL     OW31663   5.736   6.374   0.196 -0.1222  0.5521  0.0239
10255SOL    HW131664   5.707   6.357   0.102 -1.2420 -0.5451  0.5377
10255SOL    HW231665   5.670   6.334   0.259  1.4921 -0.3026  1.2634
10256SOL     OW31666   6.975   3.026   5.716  0.2951 -0.1984 -0.1235
10256SOL    HW131667   6.973   2.928   5.695  0.5159 -0.5034  1.1749
10256SOL    HW231668   7.037   3.072   5.654 -1.0985 -0.5750 -1.8851
10257SOL     OW31669   2.790   3.658   6.500  0.1871 -0.0558 -0.2432
10257SOL    HW131670   2.855   3.680   6.572 -0.7332  1.0064  0.2958
10257SOL    HW231671   2.707   3.714   6.511 -0.1345 -0.1422 -1.8964
10258SOL     OW31672   2.578   5.204   2.417 -0.0281  0.6167 -0.9453
10258SOL    HW131673   2.584   5.124   2.358 -1.3786  1.6045 -2.5251
10258SOL    HW231674   2.553   5.284   2.362 -2.1330  1.4526  1.0533
10259SOL     OW31675   4.730   4.715   6.890 -0.6152 -0.3990  0.2711
10259SOL    HW131676   4.734   4.779   6.967 -1.9012  0.0762 -0.0458
10259SOL    HW231677   4.675   4.635   6.915  0.0276 -0.8573  0.2655
10260SOL     OW31678   5.974   5.976   1.700  0.0023 -0.2305  0.1509
10260SOL    HW131679   5.977   6.075   1.689  0.7971 -0.1958  0.6153
10260SOL    HW231680   5.971   5.952   1.797 -0.8571 -0.6593  0.0369
10261SOL     OW31681   6.273   5.648   2.292  0.0808  0.0359  0.1455
10261SOL    HW131682   6.234   5.685   2.375 -0.0550 -0.6406  0.3915
10261SOL    HW231683   6.372   5.637   2.303  0.1611  0.5793 -0.0273
10262SOL     OW31684   0.543   5.335   5.583 -0.2688 -0.1614  0.0927
10262SOL    HW131685   0.607   5.403   5.621 -0.8702  0.1183  0.6267
10262SOL    HW231686   0.474   5.314   5.652  0.3327 -1.8876  0.2065
10263SOL     OW31687   2.555   1.587   2.506  0.0776  0.2727 -0.1646
10263SOL    HW131688   2.570   1.671   2.558  0.5776  0.3699 -0.4653
10263SOL    HW231689   2.616   1.585   2.427 -0.6446  0.0958 -0.7254
10264SOL     OW31690   4.894   0.825   5.471 -0.0805 -0.1065 -0.1197
10264SOL    HW131691   4.981   0.775   5.467 -0.5783 -1.4570  2.7799
10264SOL    HW231692   4.819   0.764   5.444 -0.3615  0.2209 -0.0939
10265SOL     OW31693   2.050   5.160   4.187  0.5216 -0.0711 -0.5073
10265SOL    HW131694   1.955   5.138   4.168  0.1713 -0.2864  1.3216
10265SOL    HW231695   2.083   5.105   4.264  1.0904  2.3224  1.0525
10266SOL     OW31696   6.204   1.200   5.185 -0.2895  0.2633  0.1018
10266SOL    HW131697   6.293   1.183   5.143  1.2479  2.5563  2.1601
10266SOL    HW231698   6.210   1.182   5.283 -2.7881 -1.6463 -0.0086
10267SOL     OW31699   3.180   4.039   1.696  0.2722 -0.3068 -0.2337
10267SOL    HW131700   3.232   4.071   1.616 -0.2575  2.1868  0.3229
10267SOL    HW231701   3.084   4.067   1.687 -0.2949 -1.9465  0.2924
10268SOL     OW31702   0.127   6.057   2.259 -0.1844 -0.2514 -0.0889
10268SOL    HW131703   0.032   6.043   2.288 -0.3745  0.4446 -0.3592
10268SOL    HW231704   0.146   6.155   2.253  0.9538 -0.3566  1.2564
10269SOL     OW31705   1.868   1.033   4.223 -0.1168  0.3896 -0.1188
10269SOL    HW131706   1.853   0.943   4.263 -0.1848  1.2734  2.0003
10269SOL    HW231707   1.959   1.035   4.180  0.2480 -0.4526  0.5682
10270SOL     OW31708   0.425   5.409   2.322 -0.1988 -0.0951  0.2643
10270SOL    HW131709   0.351   5.370   2.376 -0.7400  0.3585 -0.1305
10270SOL    HW231710   0.493   5.450   2.383  0.0876 -1.1229  0.6550
10271SOL     OW31711   4.494   3.265   5.429 -0.2322 -0.0576 -0.6333
10271SOL    HW131712   4.484   3.322   5.512  0.4572  0.1251 -0.6689
10271SOL    HW231713   4.576   3.293   5.380  0.1040 -1.0815 -0.6673
10272SOL     OW31714   1.902   6.270   1.178 -0.0233  0.2914 -0.1725
10272SOL    HW131715   1.838   6.197   1.204  0.7496 -1.3562 -2.5255
10272SOL    HW231716   1.992   6.250   1.216  0.2133 -0.0605 -0.9048
10273SOL     OW31717   4.107   2.169   4.805 -0.1884 -0.3634 -0.6664
10273SOL    HW131718   4.010   2.192   4.799 -0.5943 -1.8083 -0.1623
10273SOL    HW231719   4.146   2.209   4.888 -0.2785  0.4055 -0.9828
10274SOL     OW31720   6.894   3.195   5.032  0.0180 -0.1410 -0.0209
10274SOL    HW131721   6.851   3.209   4.943  1.2323  0.2466 -0.5703
10274SOL    HW231722   6.858   3.262   5.097  0.7672  1.0961 -0.8399
10275SOL     OW31723   4.391   0.396   2.811 -0.3227 -0.3624 -0.1989
10275SOL    HW131724   4.399   0.323   2.879  1.8762  0.2834  0.3441
10275SOL    HW231725   4.452   0.471   2.836 -2.0192  1.4069 -1.0926
10276SOL     OW31726   5.791   2.809   5.066 -0.1471  0.0172  0.3132
10276SOL    HW131727   5.886   2.812   5.096 -0.2799  0.1211  0.7236
10276SOL    HW231728   5.787   2.782   4.969  0.3136  0.2995  0.2173
10277SOL     OW31729   2.339   0.531   4.234 -0.4558 -0.0363  0.8265
10277SOL    HW131730   2.263   0.562   4.178  0.0028 -0.0306  0.2003
10277SOL    HW231731   2.400   0.608   4.252  0.0522 -0.3074  0.2804
10278SOL     OW31732   2.850   6.452   2.130  0.3594  0.9150 -0.2729
10278SOL    HW131733   2.815   6.383   2.066  1.8938  0.0680 -0.2339
10278SOL    HW231734   2.773   6.498   2.174 -0.7102 -0.6868 -0.3895
10279SOL     OW31735   5.346   3.917   2.667  0.0481  0.0728  0.4504
10279SOL    HW131736   5.370   3.842   2.727 -0.9171 -0.8587 -0.2808
10279SOL    HW231737   5.422   3.981   2.661  1.7947 -1.9888 -0.6429
10280SOL     OW31738   1.599   0.614   1.822 -0.4698  0.0011  0.0409
10280SOL    HW131739   1.550   0.623   1.909  0.6360  0.5493  0.6364
10280SOL    HW231740   1.621   0.518   1.806  1.9312  0.1229  1.9302
10281SOL     OW31741   0.959   4.616   0.844 -0.0774  0.2492 -0.3779
10281SOL    HW131742   0.861   4.634   0.835 -0.6924 -2.0591  0.7868
10281SOL    HW231743   0.972   4.525   0.883  2.5221  1.1469  1.1038
10282SOL     OW31744   0.545   2.945   3.054  0.1423  0.2052 -0.3978
10282SOL    HW131745   0.555   3.000   3.137 -2.4859  0.0835  0.0796
10282SOL    HW231746   0.574   2.999   2.975  0.7730  1.0454  0.3847
10283SOL     OW31747   3.188   6.485   5.836 -0.2236 -0.5681  0.5211
10283SOL    HW131748   3.096   6.469   5.803 -0.5154 -0.4751  1.2602
10283SOL    HW231749   3.210   6.582   5.826 -0.4861 -0.4538  1.0159
10284SOL     OW31750   5.327   1.645   6.678 -0.1759  0.1799 -0.1807
10284SOL    HW131751   5.324   1.683   6.586 -2.4422  0.7883  0.0815
10284SOL    HW231752   5.390   1.699   6.734  0.0115  0.7969 -0.9660
10285SOL     OW31753   3.322   5.273   6.996  0.3002 -0.0298 -0.3002
10285SOL    HW131754   3.306   5.307   6.903 -1.6595  1.6873  0.5673
10285SOL    HW231755   3.262   5.195   7.014 -0.2362  0.4163 -0.1108
10286SOL     OW31756   3.016   3.506   2.927 -0.3901  0.0159  0.1986
10286SOL    HW131757   3.021   3.464   3.018 -0.2154 -1.6294 -0.5414
10286SOL    HW231758   2.955   3.586   2.931  0.8110  0.9055  2.0743
10287SOL     OW31759   1.908   3.148   4.920 -0.5427  0.5615  0.3398
10287SOL    HW131760   1.992   3.194   4.950 -0.9095  0.7043  1.1538
10287SOL    HW231761   1.912   3.135   4.821  0.7911 -0.1438  0.4590
10288SOL     OW31762   2.814   1.451   6.104  0.6342  0.2623 -0.5104
10288SOL    HW131763   2.870   1.412   6.177 -0.5160 -0.7014 -0.1373
10288SOL    HW231764   2.736   1.392   6.084 -0.7374  1.9624 -0.4670
10289SOL     OW31765   3.188   1.732   5.888 -0.5556  0.2568  0.7232
10289SOL    HW131766   3.258   1.686   5.943  2.1962  1.1566 -1.7416
10289SOL    HW231767   3.141   1.664   5.831 -0.5530 -0.1791  1.2354
10290SOL     OW31768   6.569   0.158   3.819 -0.7424 -0.8690  0.1835
10290SOL    HW131769   6.513   0.079   3.795 -0.2210 -1.2820  0.2979
10290SOL    HW231770   6.634   0.132   3.890 -1.1306 -0.1100  0.8406
10291SOL     OW31771   2.746   1.804   1.140  0.9777 -0.0259 -0.4140
10291SOL    HW131772   2.703   1.809   1.230 -0.4545 -1.8355 -0.9308
10291SOL    HW231773   2.841   1.774   1.150  0.2898 -2.0591  0.4260
10292SOL     OW31774   4.157   1.253   5.916  0.0292 -0.8372 -0.2728
10292SOL    HW131775   4.243   1.209   5.941  0.2807 -0.5399 -0.6051
10292SOL    HW231776   4.147   1.253   5.816  0.9301  1.4926 -0.4201
10293SOL     OW31777   4.153   1.887   4.293  0.0070 -0.3835  0.1171
10293SOL    HW131778   4.080   1.955   4.305  0.8407  0.4731  0.3898
10293SOL    HW231779   4.117   1.810   4.239 -0.8479  0.4403 -0.5266
10294SOL     OW31780   3.006   1.471   0.064 -0.3698 -0.1228  0.6526
10294SOL    HW131781   2.983   1.470   0.161 -1.6262  1.5187  0.4153
10294SOL    HW231782   2.934   1.424   0.012 -0.8512  0.9030  0.3485
10295SOL     OW31783   1.318   5.896   2.536  0.2871 -1.5611  0.5964
10295SOL    HW131784   1.355   5.986   2.558  1.5812 -1.6773 -0.9505
10295SOL    HW231785   1.381   5.825   2.569 -0.7892 -1.9524  1.9285
10296SOL     OW31786   5.995   6.741   0.618  0.3146  0.2950  0.2728
10296SOL    HW131787   5.956   6.721   0.708  1.4654  2.3688  1.2811
10296SOL    HW231788   6.026   6.655   0.577 -2.7844 -1.0978  0.5404
10297SOL     OW31789   4.587   1.309   6.409 -0.0967  0.7400 -0.7448
10297SOL    HW131790   4.504   1.264   6.377 -0.4519  0.2732  0.7237
10297SOL    HW231791   4.667   1.259   6.377 -0.4672 -0.5815  0.2680
10298SOL     OW31792   1.674   1.950   6.276 -0.2768  0.0488  0.3515
10298SOL    HW131793   1.615   1.933   6.355 -0.6985 -0.8502 -0.1351
10298SOL    HW231794   1.744   2.017   6.300 -0.2766 -0.3543  1.5407
10299SOL     OW31795   5.564   3.552   3.601 -1.1677 -0.1692  0.3445
10299SOL    HW131796   5.598   3.642   3.627 -2.0858  0.6329 -1.1140
10299SOL    HW231797   5.506   3.516   3.674 -1.4310  0.7749  0.6061
10300SOL     OW31798   1.918   1.499   6.261 -0.1819 -0.2179  0.0567
10300SOL    HW131799   2.015   1.501   6.286 -0.1143  1.8284 -0.1434
10300SOL    HW231800   1.904   1.433   6.187  1.1651 -0.1879 -0.2565
10301SOL     OW31801   4.545   5.718   5.227 -0.2437 -0.0090  0.3721
10301SOL    HW131802   4.519   5.811   5.201  0.7893 -0.2330 -1.6188
10301SOL    HW231803   4.557   5.714   5.326 -1.1279  1.7560  0.5923
10302SOL     OW31804   0.228   1.466   0.745  0.3954  0.0580 -0.8987
10302SOL    HW131805   0.145   1.437   0.794  0.7946  0.2944 -0.0519
10302SOL    HW231806   0.202   1.521   0.666 -0.2682  1.7530  0.4070
10303SOL     OW31807   2.606   2.100   0.129 -0.0775  0.3092  0.3571
10303SOL    HW131808   2.603   2.098   0.229  0.8599 -1.6849  0.3985
10303SOL    HW231809   2.700   2.110   0.099 -0.1798 -0.5869 -0.3045
10304SOL     OW31810   4.738   5.051   0.807  0.7536 -0.3616  0.6347
10304SOL    HW131811   4.825   5.083   0.846  0.3825 -1.6352  2.6803
10304SOL    HW231812   4.752   5.025   0.712  1.9304  2.1012  0.0418
10305SOL     OW31813   4.514   1.268   1.110 -0.2936  0.6042 -0.3683
10305SOL    HW131814   4.424   1.246   1.073 -0.6847  0.9323  0.3696
10305SOL    HW231815   4.569   1.184   1.113 -1.2318 -0.0209  0.9321
10306SOL     OW31816   6.723   4.283   2.981 -0.2564  0.0921  0.2593
10306SOL    HW131817   6.736   4.284   3.080  0.8129  1.5549  0.1514
10306SOL    HW231818   6.681   4.369   2.952  3.0244  1.5155 -0.8712
10307SOL     OW31819   0.730   4.717   1.315 -0.3863 -0.3808  0.6693
10307SOL    HW131820   0.816   4.766   1.300 -0.8252  0.0218 -0.7235
10307SOL    HW231821   0.655   4.784   1.325 -0.8038 -0.7352 -0.0125
10308SOL     OW31822   2.010   1.553   2.555 -0.1993  0.2549 -0.3166
10308SOL    HW131823   1.979   1.647   2.540 -1.3800 -0.1550 -0.5823
10308SOL    HW231824   2.009   1.504   2.467  0.9663  0.1417 -0.2830
10309SOL     OW31825   4.042   6.871   2.536 -0.2045 -0.0610 -0.3698
10309SOL    HW131826   4.010   6.909   2.449  0.9162  0.4278 -0.5888
10309SOL    HW231827   4.104   6.935   2.579 -1.4392  0.0932  1.2560
10310SOL     OW31828   1.452   6.523   0.297 -0.5053 -0.1727  0.1865
10310SOL    HW131829   1.515   6.467   0.350  0.4518 -1.3099 -2.0175
10310SOL    HW231830   1.503   6.593   0.246 -1.4622  1.3071  1.1642
10311SOL     OW31831   0.974   4.689   2.470  0.5051  0.1608 -0.0868
10311SOL    HW131832   0.998   4.667   2.376  0.5003 -1.1865  0.2035
10311SOL    HW231833   1.052   4.670   2.530  1.0023  2.3171  0.0568
10312SOL     OW31834   5.739   2.165   6.502  0.0333  0.0309 -0.3445
10312SOL    HW131835   5.654   2.124   6.536  0.8111 -0.4833  1.0960
10312SOL    HW231836   5.788   2.099   6.446  0.3781 -0.3700  0.4102
10313SOL     OW31837   5.599   2.332   3.399 -0.0177 -0.1734 -0.1079
10313SOL    HW131838   5.502   2.342   3.376  0.5197 -1.0095 -3.1755
10313SOL    HW231839   5.637   2.422   3.421 -1.4091  0.1931  0.9364
10314SOL     OW31840   6.127   1.424   1.508 -0.3263  0.1283  0.5328
10314SOL    HW131841   6.156   1.427   1.412 -1.0214  0.5290  0.3310
10314SOL    HW231842   6.175   1.349   1.554 -0.1474 -0.2079 -0.1775
10315SOL     OW31843   2.498   2.367   2.344 -0.2017  0.9003  0.2157
10315SOL    HW131844   2.574   2.359   2.279 -0.0094  1.0388  0.4224
10315SOL    HW231845   2.535   2.378   2.436 -0.4549 -0.4003  0.4934
10316SOL     OW31846   0.877   0.674   1.542 -0.4723 -0.6215  0.6633
10316SOL    HW131847   0.850   0.581   1.516 -2.0870 -0.4325  1.5924
10316SOL    HW231848   0.889   0.729   1.459 -1.5961 -1.0938  0.1695
10317SOL     OW31849   4.078   4.428   5.923 -0.1910  0.2768  0.2449
10317SOL    HW131850   4.125   4.455   6.007  1.6050  1.1362 -0.9751
10317SOL    HW231851   3.986   4.395   5.945  0.3696  0.1047  2.5640
10318SOL     OW31852   0.264   4.653   3.972 -0.4941  0.2925  0.2280
10318SOL    HW131853   0.343   4.614   4.019  0.0925  1.1449 -0.0316
10318SOL    HW231854   0.275   4.752   3.964 -1.0499  0.2812 -0.8463
10319SOL     OW31855   3.455   2.884   5.143 -0.0074  0.6618 -0.1426
10319SOL    HW131856   3.516   2.823   5.194 -0.2873 -0.0903 -0.6881
10319SOL    HW231857   3.364   2.883   5.186 -0.2244  0.0820 -0.6125
10320SOL     OW31858   4.283   6.404   5.782  0.0630 -0.4491  0.4576
10320SOL    HW131859   4.202   6.408   5.724  1.1710  3.7039 -1.1727
10320SOL    HW231860   4.364   6.420   5.726  1.5643  0.1737  2.6904
10321SOL     OW31861   2.866   5.326   2.673  0.6154 -0.2882 -0.1492
10321SOL    HW131862   2.800   5.391   2.636  0.1025  0.2921  1.6871
10321SOL    HW231863   2.854   5.237   2.629 -3.4650 -1.0725  2.0627
10322SOL     OW31864   0.337   1.188   3.363  0.0445 -0.0991 -0.2788
10322SOL    HW131865   0.334   1.207   3.265 -1.4426  0.1461 -0.1985
10322SOL    HW231866   0.318   1.272   3.414  0.8480 -0.2156  0.2371
10323SOL     OW31867   6.959   5.301   5.658 -0.1576  0.1191  0.2852
10323SOL    HW131868   6.954   5.296   5.758  1.0059 -2.7734  0.3014
10323SOL    HW231869   7.030   5.366   5.632 -0.5855  1.0389  1.3041
10324SOL     OW31870   1.165   1.255   2.969 -0.0003  0.0168  0.0106
10324SOL    HW131871   1.220   1.315   2.912  0.8219 -0.5897  0.1445
10324SOL    HW231872   1.221   1.178   3.001 -0.7294 -0.2285  0.7508
10325SOL     OW31873   1.997   3.068   5.883  0.3230  0.2856 -0.0882
10325SOL    HW131874   1.932   2.993   5.873  2.5788 -1.8286  0.0328
10325SOL    HW231875   2.035   3.092   5.794 -0.0368  0.9984 -0.0602
10326SOL     OW31876   6.479   5.577   4.513 -0.2587 -0.0056  0.5999
10326SOL    HW131877   6.443   5.653   4.567 -1.6623  1.3565 -2.0900
10326SOL    HW231878   6.556   5.609   4.457  0.2765 -1.0312  0.7164
10327SOL     OW31879   4.017   0.996   4.961  0.0626 -0.4214  0.3519
10327SOL    HW131880   4.020   0.913   4.906  1.9598 -0.9057  1.0986
10327SOL    HW231881   4.021   0.972   5.058  0.7179  0.5178  0.5749
10328SOL     OW31882   2.176   5.790   4.577  0.8859 -0.6012 -0.0415
10328SOL    HW131883   2.145   5.828   4.664  1.0618 -3.2131  1.2681
10328SOL    HW231884   2.267   5.827   4.555  0.4920  0.6999  0.4410
10329SOL     OW31885   6.479   2.609   1.744  0.2311 -0.4322 -0.0206
10329SOL    HW131886   6.463   2.564   1.656 -2.3307  0.2942 -0.0154
10329SOL    HW231887   6.448   2.703   1.739  0.5550 -0.2166  1.5258
10330SOL     OW31888   1.757   5.972   0.997  0.3302 -0.6253 -0.5636
10330SOL    HW131889   1.677   6.019   1.033  0.3489 -0.4223 -0.7889
10330SOL    HW231890   1.805   5.927   1.072  0.3217 -0.2721 -0.3436
10331SOL     OW31891   0.206   0.012   2.128 -0.7519 -0.2100 -0.3554
10331SOL    HW131892   0.121  -0.040   2.138  0.4200 -1.9380  1.1486
10331SOL    HW231893   0.216   0.041   2.033 -2.7787 -0.3449 -0.6673
10332SOL     OW31894   4.135   1.758   3.918  1.0519 -1.0399 -0.4535
10332SOL    HW131895   4.051   1.780   3.868  1.4596  0.1816 -0.6156
10332SOL    HW231896   4.203   1.830   3.904  2.5826 -2.5541 -1.2932
10333SOL     OW31897   1.834   6.767   1.286  0.6376  0.0101 -0.1404
10333SOL    HW131898   1.903   6.796   1.220 -1.7787  0.2747 -2.7520
10333SOL    HW231899   1.787   6.847   1.323 -0.1288 -0.2276 -0.5695
10334SOL     OW31900   2.459   4.575   3.991  0.0036 -0.4557 -0.3603
10334SOL    HW131901   2.410   4.488   3.981  0.2887 -0.4305 -2.2168
10334SOL    HW231902   2.396   4.651   3.971 -0.0437 -0.2594  0.5055
10335SOL     OW31903   0.034   1.317   4.955  0.1301  0.0512 -0.2109
10335SOL    HW131904  -0.020   1.391   4.995  0.0880 -0.2889  0.3814
10335SOL    HW231905   0.097   1.354   4.887 -0.5218  0.5098 -0.5693
10336SOL     OW31906   5.787   4.262   1.250 -0.6354  0.0759  0.0509
10336SOL    HW131907   5.855   4.233   1.183  0.7652  2.1814  0.4747
10336SOL    HW231908   5.828   4.264   1.341 -1.9823 -0.9095  0.7174
10337SOL     OW31909   1.992   3.835   6.297  0.9503 -0.4830  0.0938
10337SOL    HW131910   2.036   3.802   6.214 -0.6870  1.3790 -1.5976
10337SOL    HW231911   2.014   3.931   6.310  0.1859 -0.4366  1.1510
10338SOL     OW31912   0.956   1.597   6.639  0.2772 -0.4632  0.2559
10338SOL    HW131913   1.053   1.612   6.658  0.5986 -1.9221 -0.1038
10338SOL    HW231914   0.946   1.553   6.550 -0.6658 -0.9520  0.5898
10339SOL     OW31915   1.117   5.913   1.613  0.3632 -0.2973  0.2988
10339SOL    HW131916   1.113   5.851   1.535  1.1669 -2.3898  1.8006
10339SOL    HW231917   1.070   5.871   1.691 -0.4004  1.7008  0.9745
10340SOL     OW31918   4.872   0.182   5.884  0.5087  0.5954  0.3570
10340SOL    HW131919   4.850   0.250   5.955  0.1826  1.8291 -0.8889
10340SOL    HW231920   4.788   0.142   5.849  0.7381 -1.6488  2.1361
10341SOL     OW31921   3.572   3.499   5.658  0.2492 -0.0125 -0.0417
10341SOL    HW131922   3.575   3.497   5.758 -3.1726  0.1174  0.1886
10341SOL    HW231923   3.523   3.418   5.625 -2.2192  1.8803 -1.2877
10342SOL     OW31924   6.458   1.172   1.354 -0.1807  0.2128  0.5850
10342SOL    HW131925   6.411   1.084   1.361 -0.0482  0.0425 -0.3919
10342SOL    HW231926   6.448   1.207   1.260 -0.4312  1.3542  1.0233
10343SOL     OW31927   2.174   3.893   3.360  0.3801 -0.1396 -0.4479
10343SOL    HW131928   2.250   3.904   3.295  1.8252 -1.6234  0.9140
10343SOL    HW231929   2.095   3.856   3.312  1.7595 -2.2551 -1.2330
10344SOL     OW31930   5.341   1.685   0.525 -0.0136  0.0874  0.1699
10344SOL    HW131931   5.386   1.741   0.594  0.6785 -0.6101  0.2978
10344SOL    HW231932   5.392   1.691   0.439  0.0322 -0.2940  0.1684
10345SOL     OW31933   3.000   2.570   6.604  0.8168 -0.2140  0.4013
10345SOL    HW131934   2.938   2.527   6.538  0.4407 -0.3680  0.8477
10345SOL    HW231935   2.953   2.647   6.648  1.2402  0.2033  0.1247
10346SOL     OW31936   4.631   6.584   1.182 -0.0069  0.2672 -0.0445
10346SOL    HW131937   4.558   6.651   1.166 -0.2517  0.0581  0.1735
10346SOL    HW231938   4.707   6.629   1.228  0.6530  0.8437 -1.6311
10347SOL     OW31939   3.674   0.706   6.616 -0.0574 -0.3876  0.7229
10347SOL    HW131940   3.761   0.665   6.593 -0.3386  0.5110 -2.3479
10347SOL    HW231941   3.689   0.783   6.680  1.8467  1.5079 -1.8112
10348SOL     OW31942   6.034   6.696   3.741 -0.0559  0.0789 -0.1928
10348SOL    HW131943   6.039   6.666   3.836 -0.4130 -0.7223 -0.4199
10348SOL    HW231944   6.086   6.633   3.683  0.4704  0.7704 -0.4875
10349SOL     OW31945   1.933   2.417   0.845 -0.3496 -0.3403  0.5057
10349SOL    HW131946   1.951   2.330   0.801  2.7237 -0.2602  1.3807
10349SOL    HW231947   1.909   2.402   0.941  0.5272 -0.2676  0.7509
10350SOL     OW31948   3.750   1.546   6.083  0.3960 -0.4839 -0.0902
10350SOL    HW131949   3.824   1.511   6.026  1.6105  0.0126  1.1356
10350SOL    HW231950   3.769   1.527   6.179  0.4826  2.3028  0.5339
10351SOL     OW31951   5.139   1.099   1.474  0.0158  0.0377 -0.7473
10351SOL    HW131952   5.182   1.166   1.534 -0.5325  0.3532 -0.7007
10351SOL    HW231953   5.157   1.007   1.509  0.4279  0.1788 -0.5849
10352SOL     OW31954   0.514   2.837   6.827  0.1884  0.1416  0.3675
10352SOL    HW131955   0.574   2.900   6.778 -1.5426  0.8525 -0.9341
10352SOL    HW231956   0.445   2.801   6.764 -2.1993  1.1632  2.2736
10353SOL     OW31957   5.378   4.632   2.590  0.2927  0.1073  0.3967
10353SOL    HW131958   5.342   4.614   2.498 -0.9894  0.4263  0.8247
10353SOL    HW231959   5.345   4.721   2.622 -0.4141 -0.6001  1.7217
10354SOL     OW31960   3.158   0.624   0.960 -0.0419 -0.1597 -0.7272
10354SOL    HW131961   3.103   0.681   1.022  0.1565  2.0680 -2.4875
10354SOL    HW231962   3.116   0.533   0.953 -1.0352  0.0886  1.2748
10355SOL     OW31963   5.053   3.579   0.397 -0.1806  0.3806 -0.0734
10355SOL    HW131964   5.151   3.588   0.416 -0.2632  0.3923  0.3549
10355SOL    HW231965   5.031   3.483   0.379 -0.0945  0.3726 -0.1346
10356SOL     OW31966   5.218   6.417   6.573  0.4239  0.3199  0.4846
10356SOL    HW131967   5.227   6.444   6.669  0.1809 -0.5091  0.7460
10356SOL    HW231968   5.163   6.485   6.524 -0.8654 -0.0912  1.3168
10357SOL     OW31969   4.154   4.552   1.805 -0.3856 -0.0809 -0.1840
10357SOL    HW131970   4.225   4.621   1.794  0.0419 -0.5848 -0.6107
10357SOL    HW231971   4.164   4.509   1.895 -0.6767  0.4241  0.1003
10358SOL     OW31972   6.163   1.447   1.206 -0.7884 -0.0218  0.2350
10358SOL    HW131973   6.122   1.538   1.214  0.8139  0.8289 -0.6575
10358SOL    HW231974   6.091   1.380   1.187 -1.6379  1.7739 -4.0408
10359SOL     OW31975   1.354   1.005   6.645 -0.8383 -0.6978  0.4130
10359SOL    HW131976   1.375   1.026   6.549 -1.5718 -0.8838  0.2080
10359SOL    HW231977   1.428   1.039   6.703 -2.0637  2.7991  0.1407
10360SOL     OW31978   5.046   0.872   2.625 -0.0063 -0.5199 -0.0861
10360SOL    HW131979   5.054   0.822   2.538  0.5072 -2.5559  1.0528
10360SOL    HW231980   5.115   0.944   2.628 -1.4501  1.0908 -2.2303
10361SOL     OW31981   6.724   5.607   6.685  0.7301  0.1301 -0.4524
10361SOL    HW131982   6.660   5.619   6.609  0.0692 -0.6080 -0.0242
10361SOL    HW231983   6.705   5.521   6.732  1.0776  0.5997  0.5921
10362SOL     OW31984   4.934   4.492   6.882  0.0196  0.3811  0.1187
10362SOL    HW131985   5.017   4.507   6.828  0.7043  0.3193  1.1215
10362SOL    HW231986   4.871   4.568   6.869  0.1866  0.3834 -0.7273
10363SOL     OW31987   0.046   6.141   3.945  0.2555  0.8098 -0.4576
10363SOL    HW131988   0.007   6.233   3.947  0.5585  1.0089 -2.3585
10363SOL    HW231989  -0.029   6.074   3.953 -0.0965  1.2017 -0.4050
10364SOL     OW31990   1.381   5.631   0.672  0.1277  0.4798 -0.7309
10364SOL    HW131991   1.441   5.697   0.627  1.4053 -0.1393  0.0209
10364SOL    HW231992   1.378   5.649   0.770 -1.1355  0.6614 -0.7909
10365SOL     OW31993   4.334   5.955   4.671  0.0024  0.1797  0.6687
10365SOL    HW131994   4.244   5.976   4.631  0.2672 -0.7201 -0.4598
10365SOL    HW231995   4.325   5.875   4.731  0.1789 -0.4013 -0.0632
10366SOL     OW31996   2.250   0.829   4.020 -0.5645  0.1991 -0.1465
10366SOL    HW131997   2.312   0.802   3.947 -0.4999  1.8058 -0.7325
10366SOL    HW231998   2.208   0.748   4.061  1.1105 -0.8487 -0.4392
10367SOL     OW31999   1.392   2.341   0.662 -0.7122 -0.1699  0.0284
10367SOL    HW132000   1.410   2.362   0.758  1.1038 -0.4210 -0.2175
10367SOL    HW232001   1.477   2.312   0.618 -1.3011  0.8627 -1.9057
10368SOL     OW32002   6.506   2.992   4.875 -0.0673  0.3652  0.2872
10368SOL    HW132003   6.546   3.030   4.959 -0.6341 -1.0713  1.2301
10368SOL    HW232004   6.551   2.905   4.853  0.9516  1.2910 -1.6390
10369SOL     OW32005   0.984   4.198   1.272 -0.1758  0.1536  0.8534
10369SOL    HW132006   1.047   4.126   1.241 -0.3535  0.6840 -0.8540
10369SOL    HW232007   0.894   4.158   1.290  0.0837 -0.2653  1.2418
10370SOL     OW32008   2.336   1.857   4.125 -0.1006 -0.4348 -0.9174
10370SOL    HW132009   2.367   1.768   4.159 -0.9290 -0.0679  0.8903
10370SOL    HW232010   2.249   1.881   4.167  0.9431  2.0256  0.0608
10371SOL     OW32011   2.397   5.519   6.667 -1.1634 -0.1133  0.3648
10371SOL    HW132012   2.411   5.616   6.689 -1.9011 -0.1608  1.0857
10371SOL    HW232013   2.310   5.507   6.620 -0.3722 -0.2442 -1.1513
10372SOL     OW32014   3.017   6.751   2.372  0.1774 -0.1810  0.2710
10372SOL    HW132015   3.043   6.748   2.469 -0.6052  2.7895  0.6870
10372SOL    HW232016   3.084   6.804   2.321 -0.3317 -0.2237 -0.4550
10373SOL     OW32017   0.794   1.536   3.973 -0.2370  0.4756 -0.2009
10373SOL    HW132018   0.710   1.483   3.986 -0.8825  0.9887 -1.9798
10373SOL    HW232019   0.821   1.534   3.876  2.6033 -0.8151  0.4966
10374SOL     OW32020   4.540   0.678   0.504 -1.3090 -0.5855  0.1209
10374SOL    HW132021   4.581   0.662   0.594 -0.5548 -0.5840 -0.2171
10374SOL    HW232022   4.530   0.592   0.455 -2.8361 -0.7516  0.6585
10375SOL     OW32023   2.279   0.751   3.020  0.6357 -0.2921  0.1153
10375SOL    HW132024   2.362   0.785   3.065  1.1156  0.0523 -0.9979
10375SOL    HW232025   2.304   0.703   2.936 -0.2534 -0.7653  0.1103
10376SOL     OW32026   6.270   4.618   3.140  0.1154 -0.1158  0.1714
10376SOL    HW132027   6.219   4.657   3.217  0.2490 -0.9830  0.7185
10376SOL    HW232028   6.363   4.654   3.140  0.0827 -0.0271  0.3493
10377SOL     OW32029   2.176   1.059   1.098 -0.0052  0.4708 -0.0353
10377SOL    HW132030   2.266   1.016   1.100  0.0936  0.6964  0.5241
10377SOL    HW232031   2.148   1.073   1.003  1.4079  2.1593 -0.2664
10378SOL     OW32032   0.477   2.224   6.773  0.1194  0.0009 -0.0642
10378SOL    HW132033   0.404   2.166   6.737  0.0614  0.3888 -0.5837
10378SOL    HW232034   0.474   2.223   6.873 -1.0360  0.5545 -0.0712
10379SOL     OW32035   3.285   2.303   1.231  0.4738  0.3055 -0.4047
10379SOL    HW132036   3.235   2.316   1.316  0.3156 -3.7864  0.3354
10379SOL    HW232037   3.383   2.299   1.249  0.3839 -1.7829 -0.0721
10380SOL     OW32038   5.799   3.448   2.381 -0.2374 -0.1744 -0.1691
10380SOL    HW132039   5.880   3.466   2.325 -0.1040  0.3284  0.1726
10380SOL    HW232040   5.783   3.526   2.441 -1.4600  0.0855 -0.8100
10381SOL     OW32041   2.327   3.748   6.701 -0.1437 -0.0419 -0.0906
10381SOL    HW132042   2.297   3.841   6.721 -0.4141 -0.2701  0.5936
10381SOL    HW232043   2.270   3.709   6.629 -2.0040 -0.7120  1.6487
10382SOL     OW32044   6.708   2.810   6.805 -0.3497  0.5588  0.0381
10382SOL    HW132045   6.799   2.798   6.765 -0.7997 -3.3864 -0.2165
10382SOL    HW232046   6.638   2.785   6.738 -1.4294  0.1024  1.2793
10383SOL     OW32047   6.199   5.519   1.471  0.2433 -0.1260 -0.1889
10383SOL    HW132048   6.194   5.479   1.563  0.3737  0.5451  0.1200
10383SOL    HW232049   6.273   5.586   1.468  1.7750 -1.7867 -1.4467
10384SOL     OW32050   0.722   2.149   0.586  0.3023 -0.7413  0.5984
10384SOL    HW132051   0.683   2.063   0.618 -1.6239 -0.7525 -1.5260
10384SOL    HW232052   0.659   2.224   0.609 -0.4758 -0.5882 -1.7893
10385SOL     OW32053   2.274   1.863   4.443 -0.1623  0.0111  0.3239
10385SOL    HW132054   2.327   1.926   4.500 -1.0114  0.9454  0.1079
10385SOL    HW232055   2.224   1.799   4.502 -1.5199  1.3560  0.7059
10386SOL     OW32056   0.304   3.954   2.461 -0.2330  0.0003 -0.3256
10386SOL    HW132057   0.342   3.883   2.402  1.2804 -0.1058  0.7006
10386SOL    HW232058   0.215   3.926   2.496 -0.5950 -0.4564 -1.5837
10387SOL     OW32059   6.064   3.387   2.936  0.4046  0.5118  0.1373
10387SOL    HW132060   5.970   3.422   2.939 -0.4365 -1.6916  1.2706
10387SOL    HW232061   6.089   3.369   2.841 -1.0941 -0.7435 -0.0720
10388SOL     OW32062   6.596   6.201   1.838  0.0215  0.9756 -0.3735
10388SOL    HW132063   6.600   6.168   1.743 -2.0179 -2.6222  0.6061
10388SOL    HW232064   6.511   6.251   1.852 -0.5497 -0.0492 -0.0745
10389SOL     OW32065   2.716   5.986   4.989 -0.4665 -0.0541 -0.3178
10389SOL    HW132066   2.787   5.919   5.013 -1.4470 -0.7125  0.8269
10389SOL    HW232067   2.754   6.078   4.997  0.5435 -0.4089 -0.7152
10390SOL     OW32068   4.490   5.372   3.868  0.2759 -0.0131 -0.5297
10390SOL    HW132069   4.525   5.343   3.779 -0.1523  0.7138 -0.9512
10390SOL    HW232070   4.565   5.398   3.928  0.5726 -0.6141 -0.6328
10391SOL     OW32071   2.421   3.859   6.398  0.1349 -0.4575  0.3626
10391SOL    HW132072   2.383   3.767   6.386 -0.4652 -0.0268 -1.3920
10391SOL    HW232073   2.346   3.923   6.418  0.5823 -0.3551  1.8695
10392SOL     OW32074   3.203   3.987   6.765 -0.0422  0.3561  0.3958
10392SOL    HW132075   3.180   4.055   6.835  1.3953 -0.7132  1.9915
10392SOL    HW232076   3.152   4.006   6.682  0.6662  3.6948  0.5932
10393SOL     OW32077   3.044   5.346   5.742 -0.0635  0.4670 -0.0632
10393SOL    HW132078   3.082   5.298   5.821  0.2137  0.9268  0.0911
10393SOL    HW232079   2.956   5.306   5.718 -1.8623  2.4155  2.6108
10394SOL     OW32080   3.760   5.593   3.363 -0.1126 -0.7732 -0.1925
10394SOL    HW132081   3.712   5.531   3.425 -0.4644  0.7631  1.1382
10394SOL    HW232082   3.699   5.620   3.289 -0.8768  0.1127  0.7438
10395SOL     OW32083   2.305   2.961   1.851  0.0552 -0.1213 -0.4303
10395SOL    HW132084   2.260   3.051   1.852 -0.5488 -0.2817 -3.2259
10395SOL    HW232085   2.375   2.961   1.780  1.1783 -1.4093  0.6295
10396SOL     OW32086   5.452   4.960   2.946  0.9100 -0.2576  0.0434
10396SOL    HW132087   5.442   4.991   2.852  2.2218  0.6278  0.1719
10396SOL    HW232088   5.424   4.864   2.953  1.2906 -0.4935 -1.3621
10397SOL     OW32089   1.031   5.306   2.800  0.1464  0.3025 -0.5079
10397SOL    HW132090   1.088   5.302   2.882  0.5781 -2.4511 -0.8349
10397SOL    HW232091   0.934   5.296   2.826  0.0122  2.2275 -0.1649
10398SOL     OW32092   4.181   6.874   5.520 -0.0032 -0.1673 -0.3179
10398SOL    HW132093   4.145   6.923   5.440  0.0850  0.5514  0.0769
10398SOL    HW232094   4.182   6.776   5.501  0.6320  0.0421 -1.4593
10399SOL     OW32095   0.842   2.230   4.958  0.0461  0.1920 -0.7380
10399SOL    HW132096   0.756   2.200   4.917 -0.1234 -0.7563  0.2533
10399SOL    HW232097   0.825   2.263   5.051  0.6606  0.6375 -0.7762
10400SOL     OW32098   3.703   6.622   0.570  0.2136 -0.0814 -0.8753
10400SOL    HW132099   3.799   6.639   0.549 -0.0177  0.2090 -1.7232
10400SOL    HW232100   3.667   6.695   0.628  0.4563 -0.1042 -0.6963
10401SOL     OW32101   1.411   2.680   2.531 -0.0488 -0.5920 -0.5286
10401SOL    HW132102   1.466   2.684   2.448  0.0278  0.1375 -0.4472
10401SOL    HW232103   1.315   2.664   2.507 -0.0563 -0.1976 -0.7740
10402SOL     OW32104   6.947   1.051   4.963  0.4854 -0.2926 -0.0101
10402SOL    HW132105   6.972   1.148   4.966  1.7842 -0.6147  0.1235
10402SOL    HW232106   7.023   0.998   4.927 -0.0392 -1.3283  0.3623
10403SOL     OW32107   1.919   7.012   1.050  0.3437 -0.0916 -0.2540
10403SOL    HW132108   2.011   6.975   1.061  0.4345 -0.5190 -2.1170
10403SOL    HW232109   1.887   6.995   0.957 -0.8945  1.6698 -0.2068
10404SOL     OW32110   1.426   6.019   4.864  0.0790  0.4421 -0.1835
10404SOL    HW132111   1.431   6.107   4.912 -1.0729  1.0080 -1.0481
10404SOL    HW232112   1.337   6.011   4.820  0.9066 -0.2938 -1.7811
10405SOL     OW32113   1.839   6.176   0.377  0.0368  0.4583  0.2990
10405SOL    HW132114   1.917   6.153   0.435  0.1019  0.4482  0.2074
10405SOL    HW232115   1.870   6.194   0.284 -0.0879  0.2899  0.2228
10406SOL     OW32116   3.811   0.316   3.207 -0.1107 -0.2939  0.4060
10406SOL    HW132117   3.834   0.405   3.168  0.4653 -0.9949 -0.9044
10406SOL    HW232118   3.895   0.264   3.222 -0.5366 -1.2232 -0.3415
10407SOL     OW32119   1.536   1.382   5.999  0.1611  0.0938  0.1477
10407SOL    HW132120   1.451   1.342   5.965  0.9262 -1.5790  0.1068
10407SOL    HW232121   1.600   1.309   6.023  1.3307  1.3072  0.8618
10408SOL     OW32122   0.355   6.007   1.764 -0.7435 -0.7194  0.2421
10408SOL    HW132123   0.322   6.100   1.779  0.2969  0.0271 -1.7041
10408SOL    HW232124   0.397   6.001   1.673 -0.5791 -3.0412  0.4072
10409SOL     OW32125   6.812   3.075   2.650 -0.1159 -0.0898  0.1958
10409SOL    HW132126   6.777   3.064   2.743 -0.5719 -0.6925 -0.0356
10409SOL    HW232127   6.735   3.091   2.588 -0.0831 -2.0479 -0.4200
10410SOL     OW32128   3.542   5.476   1.699 -0.6707  0.0042  0.5116
10410SOL    HW132129   3.501   5.523   1.620 -2.2550 -1.3362  0.4888
10410SOL    HW232130   3.571   5.385   1.672  1.4971  0.5569  0.8030
10411SOL     OW32131   4.893   1.824   1.399 -0.5081 -0.3276  0.4731
10411SOL    HW132132   4.861   1.737   1.363  0.2431 -0.9404  1.2442
10411SOL    HW232133   4.931   1.879   1.325 -1.7743 -0.2771 -0.1626
10412SOL     OW32134   3.507   5.700   1.238  0.4699 -0.5437 -0.1358
10412SOL    HW132135   3.482   5.689   1.142  0.1382  0.0910 -0.1278
10412SOL    HW232136   3.547   5.790   1.251  0.4158 -0.5883  0.3435
10413SOL     OW32137   3.760   0.953   3.235 -0.4241  0.2981 -0.8657
10413SOL    HW132138   3.678   0.898   3.215 -1.3175  1.2435  0.0902
10413SOL    HW232139   3.736   1.027   3.297  1.2811  0.2913 -0.1424
10414SOL     OW32140   0.056   6.292   6.694 -0.4443  0.3553  0.8365
10414SOL    HW132141   0.060   6.197   6.726 -0.0582  0.1456  0.1885
10414SOL    HW232142   0.077   6.353   6.770 -0.0844 -0.1096  1.1172
10415SOL     OW32143   4.568   1.504   3.707 -0.2221 -0.0377  0.4820
10415SOL    HW132144   4.549   1.418   3.660 -1.5530  0.2752  0.4093
10415SOL    HW232145   4.640   1.554   3.658 -1.5139  0.2529 -1.2026
10416SOL     OW32146   5.997   4.953   0.595  0.8750 -0.3378 -0.4242
10416SOL    HW132147   6.093   4.933   0.614  0.9710 -0.4076 -0.9699
10416SOL    HW232148   5.991   5.031   0.532  0.5724 -0.2961 -0.3460
10417SOL     OW32149   5.015   0.516   3.821 -0.2597 -0.3709 -0.3910
10417SOL    HW132150   5.028   0.432   3.874 -1.2918 -0.8482 -0.8681
10417SOL    HW232151   5.039   0.595   3.878 -0.1840 -0.9337  0.3736
10418SOL     OW32152   2.866   5.347   5.422 -0.2897  0.3315  0.7622
10418SOL    HW132153   2.843   5.337   5.518  2.1918 -0.2754  1.3576
10418SOL    HW232154   2.787   5.384   5.372 -1.0128  2.4665  3.3249
10419SOL     OW32155   2.307   4.280   5.902 -0.9191  0.2591 -0.2535
10419SOL    HW132156   2.322   4.249   5.996 -3.5350  1.9622  0.8594
10419SOL    HW232157   2.383   4.338   5.873 -0.4382  0.3496  1.1294
10420SOL     OW32158   4.041   0.209   1.360 -0.5328 -0.3539  0.6367
10420SOL    HW132159   4.037   0.195   1.261 -0.0854  0.4968  0.4938
10420SOL    HW232160   4.130   0.246   1.386  0.4281 -3.1548  1.7180
10421SOL     OW32161   6.385   4.843   6.676 -0.3893  0.3576 -0.1714
10421SOL    HW132162   6.420   4.937   6.665 -1.3250  0.6578 -0.6691
10421SOL    HW232163   6.285   4.845   6.679 -0.3944 -0.5525  0.6249
10422SOL     OW32164   1.671   0.684   4.140  0.3913 -0.3888  0.1427
10422SOL    HW132165   1.675   0.585   4.126 -2.8067 -0.9145  1.7985
10422SOL    HW232166   1.659   0.730   4.052 -3.6798 -2.1130 -0.4616
10423SOL     OW32167   2.795   0.177   3.833  0.2250 -0.5075 -0.0944
10423SOL    HW132168   2.721   0.230   3.875 -0.3192 -2.6131  1.7661
10423SOL    HW232169   2.883   0.211   3.866 -0.0793 -0.3755  0.5975
10424SOL     OW32170   1.311   1.519   1.084 -0.0066  0.0374 -0.4869
10424SOL    HW132171   1.300   1.486   1.178  1.6172 -0.6029 -0.4856
10424SOL    HW232172   1.321   1.440   1.022 -2.8578  0.3751 -1.5010
10425SOL     OW32173   4.735   5.367   3.001  0.2238 -0.8205  0.4449
10425SOL    HW132174   4.792   5.288   2.978  1.8165  0.2937  0.3369
10425SOL    HW232175   4.785   5.451   2.979 -0.9628  0.2375  1.6052
10426SOL     OW32176   2.419   5.816   4.436  0.6076  0.7685  0.6839
10426SOL    HW132177   2.479   5.743   4.402  0.2589  0.5066  0.6234
10426SOL    HW232178   2.474   5.891   4.471  0.9716  0.4585  0.7805
10427SOL     OW32179   3.904   0.830   5.272 -0.0937 -0.1313  0.0725
10427SOL    HW132180   3.975   0.901   5.267 -1.0567  1.0154  1.8380
10427SOL    HW232181   3.944   0.745   5.304  0.5213  0.4867  0.9924
10428SOL     OW32182   4.595   5.415   6.750 -0.6431  0.4276 -0.4531
10428SOL    HW132183   4.629   5.472   6.675 -1.0193  0.8820 -0.2840
10428SOL    HW232184   4.671   5.362   6.789  0.7498  3.8598  2.1195
10429SOL     OW32185   4.568   2.890   6.243 -0.1170 -0.3994  0.0328
10429SOL    HW132186   4.472   2.869   6.266 -0.4906  1.3406  0.2176
10429SOL    HW232187   4.608   2.814   6.193 -1.6693 -1.0882 -0.2137
10430SOL     OW32188   0.538   1.307   4.963 -0.2814 -0.4738  0.5200
10430SOL    HW132189   0.462   1.303   5.029  0.6170  0.8562  1.6896
10430SOL    HW232190   0.507   1.354   4.880 -0.8029 -0.1448  0.8940
10431SOL     OW32191   4.511   3.106   1.697 -0.0506 -0.2716  0.5289
10431SOL    HW132192   4.557   3.068   1.777 -1.5524 -1.0846  1.0636
10431SOL    HW232193   4.575   3.160   1.644  1.2437 -0.5568  1.7339
10432SOL     OW32194   5.330   6.972   4.133 -0.6958  0.1934 -0.2251
10432SOL    HW132195   5.324   6.891   4.191 -0.2003 -0.4508 -1.0532
10432SOL    HW232196   5.405   6.961   4.068  0.5455  2.0843  0.8043
10433SOL     OW32197   0.879   5.402   6.948  0.3684  0.2257 -0.2589
10433SOL    HW132198   0.876   5.326   7.013  2.1561 -2.1683 -2.7287
10433SOL    HW232199   0.852   5.486   6.994 -0.0042 -1.5500  3.1097
10434SOL     OW32200   3.998   0.317   3.710 -0.3607 -0.1434 -0.6993
10434SOL    HW132201   4.032   0.356   3.625  1.4586  2.7306  1.1531
10434SOL    HW232202   4.058   0.241   3.738 -0.1399 -0.1917 -1.2860
10435SOL     OW32203   2.840   2.872   5.424  0.0383  0.8366 -0.4636
10435SOL    HW132204   2.848   2.881   5.523 -0.1870 -1.8350 -0.1186
10435SOL    HW232205   2.768   2.806   5.402  0.3313  1.0906 -2.3822
10436SOL     OW32206   6.371   0.158   6.437  0.1496 -0.1474 -0.3397
10436SOL    HW132207   6.319   0.208   6.368 -2.3997 -0.7897  1.0115
10436SOL    HW232208   6.429   0.090   6.392  2.4947  2.7898 -2.1033
10437SOL     OW32209   1.072   0.589   6.317 -0.2998 -0.2222 -0.1390
10437SOL    HW132210   1.165   0.626   6.317 -0.3615 -0.0635  0.0260
10437SOL    HW232211   1.043   0.572   6.412 -1.0803  1.3675 -0.0425
10438SOL     OW32212   6.255   6.610   1.613 -0.0022 -0.3618  0.1904
10438SOL    HW132213   6.292   6.629   1.522  2.0565 -0.7893  0.8619
10438SOL    HW232214   6.166   6.565   1.605 -0.5255  0.9128 -1.5553
10439SOL     OW32215   2.099   4.747   3.556 -0.1264  0.0084 -0.2114
10439SOL    HW132216   2.121   4.844   3.544 -1.4586  0.2450 -0.9491
10439SOL    HW232217   2.172   4.692   3.517  0.3416  0.7246 -0.3775
10440SOL     OW32218   0.817   3.855   4.906  0.2097  0.5622  0.4306
10440SOL    HW132219   0.900   3.864   4.852 -0.0543  0.6541  0.0361
10440SOL    HW232220   0.740   3.897   4.857  0.0320  0.9467  1.0266
10441SOL     OW32221   5.284   0.296   3.679 -0.3646  0.5622  0.1274
10441SOL    HW132222   5.290   0.373   3.742  1.5293  0.9430 -0.4554
10441SOL    HW232223   5.313   0.212   3.725 -0.1449  0.6292  0.1140
10442SOL     OW32224   5.070   6.487   4.049  0.4824 -0.0253  0.0310
10442SOL    HW132225   4.986   6.527   4.085  0.6065 -1.1603  1.6584
10442SOL    HW232226   5.065   6.387   4.053  2.5578 -0.1406  1.8722
10443SOL     OW32227   6.329   0.766   2.610  0.3296  0.8184 -0.3448
10443SOL    HW132228   6.336   0.851   2.663  0.7334  0.8344 -0.4172
10443SOL    HW232229   6.233   0.737   2.605  0.4888 -0.5390  2.5064
10444SOL     OW32230   5.096   4.017   2.355 -0.1705  0.4722 -0.0434
10444SOL    HW132231   5.076   3.919   2.358 -0.5579  0.5629  1.1578
10444SOL    HW232232   5.013   4.067   2.330 -0.1837  0.5423  0.1387
10445SOL     OW32233   6.347   3.833   1.576 -0.9764  0.3991  0.6569
10445SOL    HW132234   6.272   3.768   1.560  1.7101 -2.4722 -1.7195
10445SOL    HW232235   6.430   3.799   1.531  1.9908  3.0300  3.6189
10446SOL     OW32236   1.961   1.225   4.991 -0.0354 -0.2686 -0.5965
10446SOL    HW132237   1.877   1.207   4.939  1.0156 -0.6418 -2.2432
10446SOL    HW232238   1.978   1.150   5.054  0.2480 -1.3469 -1.9113
10447SOL     OW32239   5.776   4.124   6.184 -0.5687 -0.0508  0.2491
10447SOL    HW132240   5.763   4.105   6.281  0.7028  0.9736  0.6561
10447SOL    HW232241   5.869   4.098   6.157 -1.5190 -2.2359 -1.2275
10448SOL     OW32242   3.733   3.073   5.981 -0.9019  0.2690 -0.5588
10448SOL    HW132243   3.683   3.086   6.066  0.1883 -0.1232  0.1631
10448SOL    HW232244   3.794   3.151   5.966 -0.1327 -0.2824 -0.3017
10449SOL     OW32245   0.046   5.982   3.507  0.2916  0.1471 -0.0363
10449SOL    HW132246  -0.017   6.059   3.505 -0.7921 -0.7367 -0.6437
10449SOL    HW232247   0.107   5.987   3.427  0.0151  0.1961 -0.2436
10450SOL     OW32248   3.443   0.211   1.389 -0.2837 -0.3657 -0.1655
10450SOL    HW132249   3.481   0.182   1.302 -1.2203 -0.7878 -0.4518
10450SOL    HW232250   3.476   0.303   1.411  0.1476 -0.3516 -0.8475
10451SOL     OW32251   3.924   4.912   4.127 -0.5860  0.4189 -0.1494
10451SOL    HW132252   4.011   4.863   4.124 -0.0264  1.4185 -0.3505
10451SOL    HW232253   3.885   4.905   4.219  2.3997  4.5273  1.7129
10452SOL     OW32254   3.798   2.152   5.932 -0.2627 -0.3842 -0.1498
10452SOL    HW132255   3.864   2.219   5.898 -0.7507  0.1679 -0.0185
10452SOL    HW232256   3.840   2.061   5.930 -0.0780 -0.2972 -1.6890
10453SOL     OW32257   2.366   4.962   0.841  0.0906 -0.1882  0.0864
10453SOL    HW132258   2.426   4.890   0.875  1.3178  1.0678  0.6468
10453SOL    HW232259   2.356   5.034   0.910 -1.8505 -0.2216 -0.1034
10454SOL     OW32260   1.467   2.987   1.731 -0.7317  0.4864 -1.2127
10454SOL    HW132261   1.481   3.074   1.776  0.6878 -0.0268 -0.6042
10454SOL    HW232262   1.481   2.912   1.796  0.0843 -0.2357 -2.1828
10455SOL     OW32263   3.857   1.451   2.783  0.4634  0.2871 -0.1188
10455SOL    HW132264   3.914   1.437   2.864 -0.5321  0.2877  0.6055
10455SOL    HW232265   3.855   1.367   2.729  3.5012  1.1192 -1.7798
10456SOL     OW32266   5.730   1.834   4.340 -0.2324 -0.4496  0.0611
10456SOL    HW132267   5.794   1.886   4.397  0.0257 -1.2410  0.5138
10456SOL    HW232268   5.780   1.796   4.262 -0.4417  0.0541 -0.3238
10457SOL     OW32269   6.904   1.726   2.166  0.4362  0.0897 -0.1015
10457SOL    HW132270   6.972   1.683   2.226  0.7241 -0.3323 -0.7196
10457SOL    HW232271   6.888   1.667   2.087 -0.2999  0.4153 -0.1976
10458SOL     OW32272   0.916   4.722   5.684  0.0904 -0.4361 -0.4024
10458SOL    HW132273   0.839   4.760   5.633  0.4392 -0.3110 -0.8442
10458SOL    HW232274   0.891   4.633   5.722 -0.0688 -0.6739 -1.0654
10459SOL     OW32275   6.522   3.668   5.513  0.6561  0.1357 -0.4957
10459SOL    HW132276   6.487   3.654   5.605  0.7502  3.2719  0.1525
10459SOL    HW232277   6.612   3.627   5.504  1.7577  1.8523  1.7110
10460SOL     OW32278   0.399   2.291   5.120 -0.4367 -0.5822 -0.1716
10460SOL    HW132279   0.335   2.306   5.195 -1.5667  0.4764 -1.2944
10460SOL    HW232280   0.382   2.359   5.049  1.5132 -0.6966 -0.7991
10461SOL     OW32281   0.769   1.825   2.948 -0.9093 -0.0894  0.0107
10461SOL    HW132282   0.828   1.894   2.905 -0.3516  0.0282  0.9331
10461SOL    HW232283   0.752   1.851   3.043  0.5857 -1.9930  0.8566
10462SOL     OW32284   4.218   5.007   0.202  0.3488  0.4793 -0.5484
10462SOL    HW132285   4.173   5.095   0.218  0.9532  0.6088  0.4498
10462SOL    HW232286   4.242   4.999   0.105  1.4637  1.9805 -0.4189
10463SOL     OW32287   4.255   3.311   5.647 -0.5839 -0.2947 -0.0914
10463SOL    HW132288   4.316   3.390   5.638  0.1993 -0.9673 -0.9021
10463SOL    HW232289   4.160   3.342   5.638 -0.4206  0.8074  1.4978
10464SOL     OW32290   3.212   2.341   5.563  0.3918  0.1172  0.4337
10464SOL    HW132291   3.151   2.297   5.497  0.5327 -0.6792  0.8217
10464SOL    HW232292   3.217   2.439   5.544 -1.0911  0.2192  0.4581
10465SOL     OW32293   4.783   4.970   4.348 -0.2008  0.3711 -0.2449
10465SOL    HW132294   4.700   4.954   4.293 -0.0519 -0.2490 -0.3011
10465SOL    HW232295   4.788   4.901   4.420 -0.4758  1.2708  0.6644
10466SOL     OW32296   2.579   4.745   6.049 -0.2144 -0.3269 -0.2180
10466SOL    HW132297   2.559   4.662   5.996 -1.2174 -0.2180 -0.0190
10466SOL    HW232298   2.669   4.734   6.093 -0.4459 -1.4297  0.0296
10467SOL     OW32299   0.106   5.250   4.723 -0.2497 -0.0552  0.0160
10467SOL    HW132300   0.007   5.238   4.722 -0.2980 -0.9709  3.4422
10467SOL    HW232301   0.150   5.168   4.685 -0.8593 -1.4293  2.0729
10468SOL     OW32302   5.904   4.198   2.257  0.1716  0.0870 -0.6589
10468SOL    HW132303   5.809   4.229   2.266 -0.1003 -1.3181  2.5379
10468SOL    HW232304   5.906   4.110   2.211  0.1639  0.9311 -2.3501
10469SOL     OW32305   6.821   0.223   2.503 -0.0176  0.4580  0.0078
10469SOL    HW132306   6.843   0.213   2.601  0.7339 -1.9080 -0.3300
10469SOL    HW232307   6.778   0.139   2.470  2.2716  0.0593 -2.2966
10470SOL     OW32308   4.285   2.506   5.818  0.1824  0.0755 -0.8198
10470SOL    HW132309   4.288   2.565   5.737 -1.1429 -1.3648 -1.9585
10470SOL    HW232310   4.197   2.517   5.864  0.4341 -0.0681 -0.2947
10471SOL     OW32311   1.986   6.130   0.907  0.2449 -0.4373 -0.0115
10471SOL    HW132312   1.934   6.194   0.851 -0.5721 -0.4382  0.7230
10471SOL    HW232313   1.924   6.082   0.969  1.1841 -0.1614  1.1604
10472SOL     OW32314   6.965   1.762   3.627  0.4368  0.5775  0.4676
10472SOL    HW132315   6.903   1.840   3.626  0.7803  0.8544  0.4196
10472SOL    HW232316   6.913   1.677   3.620  0.1520  0.8542 -1.2205
10473SOL     OW32317   2.743   1.969   1.388  0.7069  0.1833  0.3890
10473SOL    HW132318   2.795   1.998   1.468  0.7366 -1.2516  0.9156
10473SOL    HW232319   2.718   1.873   1.397  0.9368 -0.0918 -1.4459
10474SOL     OW32320   3.514   3.582   0.629  0.2361  0.0260  0.1109
10474SOL    HW132321   3.485   3.659   0.685 -1.0628 -0.4346  0.1052
10474SOL    HW232322   3.448   3.508   0.638  1.3171 -0.9963 -0.0979
10475SOL     OW32323   3.684   1.446   2.997  0.1731  0.0192  0.0759
10475SOL    HW132324   3.704   1.356   3.036  0.8171  0.2462  0.2950
10475SOL    HW232325   3.696   1.443   2.898 -0.4999 -0.3093 -0.0034
10476SOL     OW32326   1.707   3.060   0.144  0.2882 -1.0729 -0.2813
10476SOL    HW132327   1.801   3.030   0.162  1.3109  2.0183  0.1713
10476SOL    HW232328   1.662   3.083   0.231  0.4520  0.9368 -0.6845
10477SOL     OW32329   3.446   0.802   5.711  0.6935 -0.4865  0.3981
10477SOL    HW132330   3.491   0.854   5.783  0.7814 -0.5674  0.4026
10477SOL    HW232331   3.484   0.709   5.709  2.3914  0.1761 -1.2800
10478SOL     OW32332   1.918   6.269   4.138  0.4848 -0.2391  0.1980
10478SOL    HW132333   1.972   6.338   4.186  0.7770 -0.4943  0.2332
10478SOL    HW232334   1.929   6.181   4.183  1.2097 -0.6007 -0.6694
10479SOL     OW32335   3.741   6.365   0.569  0.0497  0.4023 -0.7371
10479SOL    HW132336   3.736   6.465   0.570 -2.4273  0.3835  1.9355
10479SOL    HW232337   3.835   6.336   0.555  0.9867  3.1030 -0.5232
10480SOL     OW32338   0.023   4.784   5.834 -0.3592  0.2171 -0.4225
10480SOL    HW132339   0.017   4.867   5.779  1.3592  0.6653  0.0051
10480SOL    HW232340  -0.063   4.734   5.829 -1.2768  1.8003 -1.0351
10481SOL     OW32341   5.857   4.102   0.131 -0.2201 -0.2428  0.2547
10481SOL    HW132342   5.770   4.126   0.086 -0.7363 -0.5689  1.0724
10481SOL    HW232343   5.913   4.185   0.139 -2.0111  0.8331  3.0977
10482SOL     OW32344   0.893   4.391   0.478  0.0414  0.5543  0.2712
10482SOL    HW132345   0.932   4.483   0.474 -0.1867  0.6058 -1.8161
10482SOL    HW232346   0.872   4.360   0.385 -2.2395 -0.6116  1.1262
10483SOL     OW32347   6.047   2.868   2.552 -0.0026 -0.2441  0.0688
10483SOL    HW132348   6.064   2.963   2.524  2.1493  0.1754  2.4899
10483SOL    HW232349   6.005   2.819   2.476 -0.3185  2.3839 -1.5919
10484SOL     OW32350   3.759   0.045   2.170  0.3095  0.3151 -0.4705
10484SOL    HW132351   3.682   0.020   2.111  0.7246 -1.6688 -0.2426
10484SOL    HW232352   3.836  -0.016   2.152  0.7186  0.1595  1.5642
10485SOL     OW32353   4.710   2.577   2.950 -0.2040 -0.0808  0.6376
10485SOL    HW132354   4.754   2.511   2.889 -2.3448 -1.6634  0.6755
10485SOL    HW232355   4.718   2.669   2.911  1.2481 -0.5966 -0.3619
10486SOL     OW32356   3.297   1.377   5.995 -0.2323 -0.0993  0.0770
10486SOL    HW132357   3.263   1.295   5.949 -0.4446 -0.2715  0.5362
10486SOL    HW232358   3.378   1.411   5.948  0.2316 -0.9419  0.2589
10487SOL     OW32359   2.047   0.220   2.083  0.0209  0.2951  0.2482
10487SOL    HW132360   2.047   0.276   2.000  1.7024  2.2678  1.4842
10487SOL    HW232361   1.979   0.256   2.147 -0.5533 -0.5903  0.1560
10488SOL     OW32362   1.824   5.743   1.869  0.5215  0.0632 -0.1889
10488SOL    HW132363   1.810   5.655   1.915  1.7141 -0.6397 -1.1111
10488SOL    HW232364   1.919   5.772   1.880  0.0137  1.5585  0.5994
10489SOL     OW32365   2.500   0.922   2.387 -0.3191 -0.7111 -0.2314
10489SOL    HW132366   2.420   0.977   2.410 -0.3448 -0.7736 -0.1690
10489SOL    HW232367   2.479   0.863   2.310 -0.1189 -0.2431 -0.6487
10490SOL     OW32368   1.109   3.492   1.947  0.6615  0.8442 -0.2339
10490SOL    HW132369   1.141   3.563   1.884  1.3203  0.0905 -0.7673
10490SOL    HW232370   1.171   3.414   1.944  0.6162  0.7146  1.2390
10491SOL     OW32371   0.365   4.278   3.297  0.0049  0.3143  0.4098
10491SOL    HW132372   0.369   4.322   3.386  0.8718 -0.4576  0.7666
10491SOL    HW232373   0.458   4.262   3.263 -0.2631 -1.1611  0.2807
10492SOL     OW32374   1.419   2.241   4.529 -0.7392 -0.4429  0.2934
10492SOL    HW132375   1.420   2.321   4.590  0.8957  0.5523 -0.9608
10492SOL    HW232376   1.388   2.161   4.581 -4.2160  1.2557  1.1619
10493SOL     OW32377   3.331   4.845   1.896 -0.1515 -0.1301  0.2099
10493SOL    HW132378   3.414   4.801   1.931  0.3553  1.6234  1.3012
10493SOL    HW232379   3.355   4.905   1.819 -0.3641  0.5127  0.6374
10494SOL     OW32380   3.531   0.910   0.744  0.1265 -0.2203  0.2359
10494SOL    HW132381   3.494   0.833   0.692 -0.4700  0.0491  0.2626
10494SOL    HW232382   3.570   0.876   0.830  0.7676 -0.6155 -0.1982
10495SOL     OW32383   0.084   1.284   1.090 -0.7368 -0.4080  0.6714
10495SOL    HW132384   0.052   1.296   0.996 -2.5351 -2.2923  0.9582
10495SOL    HW232385   0.175   1.242   1.089 -1.1658 -1.3572 -0.2397
10496SOL     OW32386   1.019   3.511   6.765  0.1132  0.4661 -0.0145
10496SOL    HW132387   1.038   3.416   6.740  1.1588  0.7855 -0.4946
10496SOL    HW232388   0.940   3.515   6.826  0.3864 -0.7629  0.4411
10497SOL     OW32389   3.663   1.637   1.747 -0.0924  0.0796 -0.5509
10497SOL    HW132390   3.720   1.564   1.784  0.3962  1.0009  0.6057
10497SOL    HW232391   3.686   1.652   1.651 -1.5904 -2.5657 -1.4099
10498SOL     OW32392   4.312   3.033   5.372 -0.3463  0.0368  0.0789
10498SOL    HW132393   4.387   3.088   5.407 -1.3830  0.0443  2.4548
10498SOL    HW232394   4.253   3.091   5.315 -0.4382  0.9415  1.0635
10499SOL     OW32395   5.009   4.263   5.170  0.0667 -0.1571  0.5461
10499SOL    HW132396   5.055   4.266   5.081 -4.2259  3.1106 -1.9901
10499SOL    HW232397   5.014   4.352   5.214 -2.7236  0.0837  0.5904
10500SOL     OW32398   4.890   3.814   3.124 -0.0294 -0.0698 -0.2106
10500SOL    HW132399   4.911   3.722   3.091  0.5676 -0.1937  0.4908
10500SOL    HW232400   4.849   3.808   3.215 -3.3912  0.1417 -1.5654
10501SOL     OW32401   5.064   0.761   4.003  1.2278  0.6293  0.5836
10501SOL    HW132402   5.158   0.741   4.028  0.8241 -1.1774  0.7934
10501SOL    HW232403   5.002   0.699   4.052  0.1296 -0.2101 -1.7078
10502SOL     OW32404   5.328   5.482   5.365 -0.2682 -0.2543 -0.1080
10502SOL    HW132405   5.317   5.420   5.288 -1.3773  0.6759 -0.7230
10502SOL    HW232406   5.374   5.565   5.335  1.0260 -0.6584  0.6672
10503SOL     OW32407   6.625   4.570   0.987  0.7419 -0.1515 -0.5701
10503SOL    HW132408   6.547   4.622   0.952  1.1807  0.6087 -0.4272
10503SOL    HW232409   6.595   4.476   1.008 -0.0551  0.0386 -0.8163
10504SOL     OW32410   5.628   4.503   2.123  0.0583 -0.3620 -0.1730
10504SOL    HW132411   5.612   4.449   2.206  1.5323 -0.0725  0.3252
10504SOL    HW232412   5.601   4.598   2.139  1.4287 -0.0431  0.4088
10505SOL     OW32413   6.241   0.606   1.289  0.4684 -0.6626 -0.2573
10505SOL    HW132414   6.271   0.628   1.196  0.6557 -0.8490 -0.2405
10505SOL    HW232415   6.145   0.632   1.300  0.5332 -0.3600 -0.4084
10506SOL     OW32416   6.775   1.130   1.950 -0.6575  0.3755 -0.3266
10506SOL    HW132417   6.841   1.204   1.953  0.5435 -0.5489 -2.2124
10506SOL    HW232418   6.706   1.149   1.880  0.5916 -0.9534 -1.9976
10507SOL     OW32419   4.308   6.223   6.161  0.3110  0.0664 -0.6186
10507SOL    HW132420   4.406   6.224   6.182  0.2901 -1.4497 -0.3660
10507SOL    HW232421   4.262   6.290   6.219  1.1299  0.4835 -0.4282
10508SOL     OW32422   0.977   2.480   5.426 -0.4543 -0.1254 -0.7105
10508SOL    HW132423   0.905   2.488   5.494 -0.4763  0.7956 -0.8326
10508SOL    HW232424   0.982   2.386   5.393 -2.9745  0.1918 -2.1985
10509SOL     OW32425   1.229   5.663   5.457 -0.3792  0.4153  0.0069
10509SOL    HW132426   1.227   5.578   5.510 -1.1265  0.2983 -0.2049
10509SOL    HW232427   1.150   5.666   5.396  0.0163  0.9472 -0.4871
10510SOL     OW32428   6.675   2.955   1.610  0.1212 -0.2515 -0.0397
10510SOL    HW132429   6.697   2.878   1.550  1.2539  0.8643 -1.1178
10510SOL    HW232430   6.590   2.998   1.579 -1.0605 -1.6510  1.1810
10511SOL     OW32431   4.041   2.164   4.326  0.0099 -0.0242  0.9871
10511SOL    HW132432   3.988   2.214   4.394 -1.2497 -0.2363  0.2003
10511SOL    HW232433   3.988   2.085   4.295  1.4628 -1.1768  1.3326
10512SOL     OW32434   1.488   2.802   5.727 -0.0229 -0.1805  0.2462
10512SOL    HW132435   1.492   2.743   5.646  0.3547 -1.5542  1.2180
10512SOL    HW232436   1.551   2.878   5.716 -0.0471 -0.2956 -0.7872
10513SOL     OW32437   1.009   4.196   5.840  0.1166 -0.7907 -0.6770
10513SOL    HW132438   1.076   4.270   5.836 -1.8499  1.1177 -0.5854
10513SOL    HW232439   0.968   4.183   5.749 -2.5892  1.3616  0.0745
10514SOL     OW32440   3.704   1.218   5.974 -0.1391  0.0777 -0.0013
10514SOL    HW132441   3.674   1.228   6.069 -0.5687 -0.6233 -0.0504
10514SOL    HW232442   3.781   1.154   5.970 -0.0192  0.2273 -0.1121
10515SOL     OW32443   5.599   2.092   4.809  0.2243 -0.0807  0.0590
10515SOL    HW132444   5.686   2.135   4.788 -0.0636  0.6818  0.3917
10515SOL    HW232445   5.527   2.162   4.815 -0.8251 -0.8707 -2.1990
10516SOL     OW32446   3.243   5.048   5.256  0.5354  0.1835  0.4121
10516SOL    HW132447   3.168   5.038   5.322  0.2673 -0.3502  0.0355
10516SOL    HW232448   3.302   5.124   5.284  0.0661  0.3718  0.9162
10517SOL     OW32449   5.275   4.500   5.399 -0.1768 -0.0862  0.3637
10517SOL    HW132450   5.200   4.545   5.350 -0.7258  0.1255  1.3693
10517SOL    HW232451   5.332   4.449   5.334 -1.6998 -0.9826 -0.2945
10518SOL     OW32452   3.223   6.759   6.411  0.2782 -0.3683 -0.3940
10518SOL    HW132453   3.314   6.799   6.423  0.7926 -1.6359  0.1682
10518SOL    HW232454   3.209   6.688   6.480 -0.2265 -1.7622 -1.8637
10519SOL     OW32455   3.741   4.100   2.601  0.0813  0.6100  0.1787
10519SOL    HW132456   3.833   4.131   2.578 -0.3130  2.2723  0.6826
10519SOL    HW232457   3.740   4.060   2.692  0.4315 -0.0921 -0.1204
10520SOL     OW32458   5.762   3.885   5.676  0.1270  0.0363  0.2370
10520SOL    HW132459   5.667   3.866   5.700 -0.0051 -1.8956 -1.4956
10520SOL    HW232460   5.792   3.820   5.605  2.4114  1.2725 -0.0252
10521SOL     OW32461   3.407   6.042   2.221  0.3626  0.4379 -0.0625
10521SOL    HW132462   3.401   6.105   2.143 -0.0241  0.3748 -0.0867
10521SOL    HW232463   3.446   5.955   2.190 -1.1889 -0.1241 -0.5345
10522SOL     OW32464   5.596   1.243   3.656 -0.2336  0.3167  0.1601
10522SOL    HW132465   5.694   1.257   3.665  0.0378 -1.6903  0.9623
10522SOL    HW232466   5.568   1.260   3.562  0.4574  2.9419  0.3519
10523SOL     OW32467   2.681   4.291   0.023 -0.0067 -0.1613 -0.2613
10523SOL    HW132468   2.736   4.336   0.093 -0.2809 -0.8050  0.3823
10523SOL    HW232469   2.699   4.193   0.024 -1.1427 -0.3874 -0.0275
10524SOL     OW32470   4.402   4.105   0.561 -0.0099 -0.0612  0.1605
10524SOL    HW132471   4.384   4.008   0.545  1.2611 -0.1782 -0.7633
10524SOL    HW232472   4.412   4.122   0.659  1.8983 -1.3032  0.2399
10525SOL     OW32473   5.038   5.774   4.871  0.0889  0.2781  0.7214
10525SOL    HW132474   4.957   5.819   4.833  2.1462  1.3736 -2.8699
10525SOL    HW232475   5.032   5.676   4.857 -0.7863  0.3116  0.8482
10526SOL     OW32476   5.351   0.659   5.522 -0.1851  0.2730 -0.1386
10526SOL    HW132477   5.360   0.722   5.444  1.4100  1.0582  0.6209
10526SOL    HW232478   5.420   0.588   5.515  0.8715  1.1212  1.2086
10527SOL     OW32479   2.173   2.697   1.463  0.3010 -0.7819  0.1683
10527SOL    HW132480   2.175   2.793   1.493 -2.4655 -0.0977 -1.4992
10527SOL    HW232481   2.172   2.637   1.543  1.8615  0.5371  1.2394
10528SOL     OW32482   5.984   2.579   4.644 -0.5743 -0.2388  0.7773
10528SOL    HW132483   6.031   2.598   4.558 -0.4543 -1.3992  0.5694
10528SOL    HW232484   6.051   2.567   4.717 -0.6755  0.7304  1.0451
10529SOL     OW32485   0.385   0.153   1.887  0.0410 -0.2237 -0.2036
10529SOL    HW132486   0.425   0.113   1.805  0.0414 -1.5703  0.4380
10529SOL    HW232487   0.435   0.121   1.968 -2.1480 -1.8033  0.6149
10530SOL     OW32488   0.611   2.224   1.197  0.1810 -0.1693  0.1497
10530SOL    HW132489   0.589   2.234   1.100  0.2126  2.9195  0.3865
10530SOL    HW232490   0.704   2.254   1.214 -0.0720  0.0283  1.2600
10531SOL     OW32491   3.321   2.000   2.674  0.0102  0.1487 -0.0017
10531SOL    HW132492   3.390   1.939   2.712 -0.7725 -0.5874  0.2710
10531SOL    HW232493   3.325   1.997   2.574 -0.1147 -0.4660  0.0110
10532SOL     OW32494   2.908   1.956   5.109  0.2856  0.3741  0.1471
10532SOL    HW132495   2.913   2.047   5.068 -0.6625  0.0717 -0.6838
10532SOL    HW232496   2.906   1.965   5.209  0.3783  1.2573  0.0782
10533SOL     OW32497   5.414   2.060   5.684  0.5839  0.2380  0.5427
10533SOL    HW132498   5.446   2.077   5.591  2.2254  0.3942  1.1004
10533SOL    HW232499   5.493   2.059   5.747 -0.6826  3.2677  2.4134
10534SOL     OW32500   1.709   0.862   3.066 -0.1194 -0.1586  0.3035
10534SOL    HW132501   1.641   0.863   3.140  0.2246 -0.2675  0.6235
10534SOL    HW232502   1.757   0.950   3.064 -0.1480 -0.1459  0.1917
10535SOL     OW32503   5.580   2.358   6.643 -0.6298  0.1492 -0.1915
10535SOL    HW132504   5.662   2.324   6.597 -0.7043  0.1346 -0.3128
10535SOL    HW232505   5.555   2.447   6.605 -1.0331 -0.1308 -0.5914
10536SOL     OW32506   4.980   2.599   5.592 -0.2015 -0.0070 -0.5729
10536SOL    HW132507   4.994   2.607   5.493  0.7683  0.5360 -0.4064
10536SOL    HW232508   4.957   2.688   5.630 -1.1086 -0.3173 -0.3780
10537SOL     OW32509   5.177   3.324   2.165  0.2325 -0.1918 -0.2255
10537SOL    HW132510   5.158   3.250   2.101  1.8311  0.1721 -1.1793
10537SOL    HW232511   5.161   3.293   2.259  1.2187 -1.8711 -0.5858
10538SOL     OW32512   3.128   1.605   4.456  0.0153  0.0340 -0.2724
10538SOL    HW132513   3.211   1.565   4.416  0.7262 -0.5302  1.6460
10538SOL    HW232514   3.151   1.692   4.498 -0.1737 -0.4580  0.8913
10539SOL     OW32515   0.371   1.539   0.999  0.1825 -0.7491  0.0639
10539SOL    HW132516   0.465   1.506   1.006  0.1939 -0.9633 -0.8506
10539SOL    HW232517   0.339   1.525   0.905 -0.4404  0.1982  0.1300
10540SOL     OW32518   2.912   4.650   5.582  0.3002  0.2283  0.5997
10540SOL    HW132519   2.976   4.727   5.581  0.4040  0.1438  0.7277
10540SOL    HW232520   2.842   4.664   5.511 -0.1767  0.8597  1.1756
10541SOL     OW32521   4.638   3.018   0.618  0.6168  0.3661  0.1698
10541SOL    HW132522   4.702   2.944   0.640 -0.7747 -1.3854 -1.3626
10541SOL    HW232523   4.574   3.029   0.694 -0.0024 -0.9885 -0.1258
10542SOL     OW32524   0.698   2.542   4.206  0.3800  0.5037  0.1376
10542SOL    HW132525   0.623   2.537   4.140  0.7846  1.0266 -0.3744
10542SOL    HW232526   0.732   2.450   4.226  1.3375  0.4233 -1.6588
10543SOL     OW32527   5.335   1.885   1.785 -0.1120 -0.3314  0.0595
10543SOL    HW132528   5.431   1.903   1.764 -0.1458  0.2304  0.3634
10543SOL    HW232529   5.303   1.808   1.730 -0.0597  0.7888 -1.6090
10544SOL     OW32530   0.401   3.720   1.277 -0.2679  0.3884 -0.1748
10544SOL    HW132531   0.400   3.812   1.237  0.0247 -0.6226 -2.6959
10544SOL    HW232532   0.339   3.660   1.225 -0.5200 -0.8561  1.4612
10545SOL     OW32533   3.006   0.113   5.867 -0.1383  0.3515 -0.2760
10545SOL    HW132534   3.006   0.180   5.793 -2.4797 -1.2310 -1.8664
10545SOL    HW232535   2.962   0.029   5.835 -1.3329 -0.3992  2.9406
10546SOL     OW32536   1.332   5.979   5.889 -0.4705  0.5041  0.2516
10546SOL    HW132537   1.311   5.883   5.871  0.5778  0.6313 -2.0601
10546SOL    HW232538   1.399   5.986   5.963  1.3106 -0.7495 -1.1637
10547SOL     OW32539   6.447   0.414   1.337 -0.5036  0.2127 -0.2064
10547SOL    HW132540   6.364   0.460   1.304 -0.8272  1.5357  2.1967
10547SOL    HW232541   6.526   0.451   1.289 -1.1193  0.2953 -1.2007
10548SOL     OW32542   5.959   3.960   1.009 -0.3493 -0.5776 -0.2651
10548SOL    HW132543   6.029   3.995   0.947  0.8203  0.8533  1.7436
10548SOL    HW232544   5.987   3.977   1.103 -1.8835 -3.0025  0.7138
10549SOL     OW32545   3.621   1.468   5.576 -0.6078  0.6935  0.0486
10549SOL    HW132546   3.682   1.533   5.531 -0.5680  0.6547  0.0476
10549SOL    HW232547   3.630   1.478   5.675  1.0978 -0.8817  0.1037
10550SOL     OW32548   5.803   4.533   6.557 -0.5660  0.1668 -0.4679
10550SOL    HW132549   5.799   4.559   6.460  0.5815 -0.5287 -0.7240
10550SOL    HW232550   5.871   4.461   6.569  0.4605  1.3285  1.0984
10551SOL     OW32551   0.855   1.308   6.187  0.0190  0.5430  0.1064
10551SOL    HW132552   0.951   1.279   6.187  0.7357  2.7195  0.0446
10551SOL    HW232553   0.841   1.379   6.257 -1.6007  0.1139  0.2513
10552SOL     OW32554   0.691   2.204   3.666 -0.4915  0.1667  0.1844
10552SOL    HW132555   0.609   2.208   3.610  0.1293  0.7661 -0.7173
10552SOL    HW232556   0.772   2.201   3.607  0.2465  2.0280  0.9936
10553SOL     OW32557   6.820   3.585   3.893 -0.4557  0.6462  0.4428
10553SOL    HW132558   6.777   3.543   3.972 -1.6100  1.5234  0.3029
10553SOL    HW232559   6.811   3.524   3.814 -1.2066  0.6946  0.4838
10554SOL     OW32560   4.537   6.598   6.826  0.6147  0.0722  0.0644
10554SOL    HW132561   4.571   6.543   6.750 -0.3438  1.6334 -1.5685
10554SOL    HW232562   4.474   6.542   6.880  1.3927 -1.1026 -0.1918
10555SOL     OW32563   4.368   4.315   1.153  0.2965  0.5375 -0.0314
10555SOL    HW132564   4.316   4.390   1.114 -1.1874 -0.0412  0.7427
10555SOL    HW232565   4.314   4.272   1.227  2.8088  1.4308  2.5086
10556SOL     OW32566   6.835   1.026   0.515  0.2239  0.3809  0.2703
10556SOL    HW132567   6.893   0.948   0.537 -1.4258 -0.7392  0.8362
10556SOL    HW232568   6.793   1.012   0.425 -0.2311  0.5064  0.4603
10557SOL     OW32569   4.000   6.240   3.689  0.1585  0.4403 -0.7758
10557SOL    HW132570   4.070   6.216   3.756  0.3514  0.9286 -0.7958
10557SOL    HW232571   4.044   6.282   3.609 -0.2050  1.3288 -0.5181
10558SOL     OW32572   0.410   5.971   6.160 -0.1859 -0.1672 -0.1067
10558SOL    HW132573   0.482   6.002   6.099 -0.1014  0.3794  0.2681
10558SOL    HW232574   0.321   6.000   6.124 -0.1613 -0.1342 -0.1407
10559SOL     OW32575   6.081   1.858   6.753  0.2119 -0.0540 -0.2761
10559SOL    HW132576   6.034   1.802   6.820  2.1007  1.3160  2.3668
10559SOL    HW232577   6.061   1.955   6.770  1.2787  0.3746 -1.2664
10560SOL     OW32578   5.108   6.817   5.385 -0.0989 -0.4701  0.0550
10560SOL    HW132579   5.117   6.818   5.286  0.4512  1.5442  0.0835
10560SOL    HW232580   5.148   6.733   5.422  0.3379 -0.9025 -1.3650
10561SOL     OW32581   3.310   6.917   3.236 -0.0362 -0.3430 -0.3677
10561SOL    HW132582   3.283   7.012   3.225  1.1570  0.0753  0.1974
10561SOL    HW232583   3.405   6.912   3.264 -0.0391 -1.7157 -0.5182
10562SOL     OW32584   2.338   3.334   6.351 -0.7203  0.5179 -0.0021
10562SOL    HW132585   2.355   3.332   6.449 -1.3756 -2.0997  0.1197
10562SOL    HW232586   2.244   3.304   6.333 -0.2970  0.0104 -1.4702
10563SOL     OW32587   0.133   6.300   2.718 -0.1892 -0.4598 -0.6976
10563SOL    HW132588   0.109   6.301   2.815 -1.4414  0.9641 -0.9689
10563SOL    HW232589   0.204   6.368   2.700  0.9462 -1.5897 -0.6070
10564SOL     OW32590   1.766   5.368   5.787  0.0708  0.0496  0.2452
10564SOL    HW132591   1.759   5.448   5.729  1.1244  0.4036  0.5939
10564SOL    HW232592   1.791   5.288   5.732 -0.3607  0.0749  0.0023
10565SOL     OW32593   2.877   1.605   1.824 -0.2702  0.2016 -0.3183
10565SOL    HW132594   2.820   1.686   1.837 -0.6319 -0.3486  1.8199
10565SOL    HW232595   2.884   1.554   1.910  1.3757 -1.1203 -1.1697
10566SOL     OW32596   7.001   3.216   0.331  0.2905  0.3673 -0.4006
10566SOL    HW132597   6.953   3.159   0.397  1.1212 -1.3830 -1.2348
10566SOL    HW232598   7.094   3.181   0.319  1.3102  2.7232  0.0292
10567SOL     OW32599   5.984   5.535   1.100 -0.3064  0.2660 -0.0404
10567SOL    HW132600   6.019   5.544   1.007  2.8068 -0.2793  0.9603
10567SOL    HW232601   6.011   5.614   1.154 -2.9901  1.0985  0.2511
10568SOL     OW32602   1.108   1.935   4.043 -0.3746  0.1872 -0.3023
10568SOL    HW132603   1.200   1.928   4.081 -0.8416 -0.4882  0.7776
10568SOL    HW232604   1.096   1.866   3.971  0.0867  0.5493 -0.7294
10569SOL     OW32605   4.769   5.989   3.823 -0.1369  0.3785 -0.3363
10569SOL    HW132606   4.740   6.015   3.915  0.2230  0.9526 -0.3823
10569SOL    HW232607   4.862   6.022   3.807  0.2674 -0.7843 -0.4600
10570SOL     OW32608   5.287   3.437   1.434  0.3893 -0.0727 -0.3813
10570SOL    HW132609   5.218   3.465   1.500 -0.1625 -1.1658 -0.4550
10570SOL    HW232610   5.325   3.348   1.461  1.1618  0.1176 -0.7976
10571SOL     OW32611   1.636   2.773   0.904 -0.0540  0.0164  0.7285
10571SOL    HW132612   1.645   2.861   0.858  0.0869 -0.5417 -0.3653
10571SOL    HW232613   1.684   2.774   0.991  0.8661  0.6721  0.2189
10572SOL     OW32614   3.771   3.232   4.739  0.4398 -0.2830  0.0879
10572SOL    HW132615   3.733   3.300   4.676  1.0026  0.9480  1.0318
10572SOL    HW232616   3.765   3.141   4.698 -0.9346  0.2425 -0.9322
10573SOL     OW32617   6.525   3.687   4.743 -0.1657 -0.1943 -0.3379
10573SOL    HW132618   6.464   3.626   4.691 -1.2704 -1.2828  2.0698
10573SOL    HW232619   6.604   3.635   4.775 -0.4232 -0.0207  0.5897
10574SOL     OW32620   0.044   6.849   2.370  0.0174 -0.2791 -0.0368
10574SOL    HW132621   0.024   6.761   2.413 -0.4229 -0.2670 -0.2138
10574SOL    HW232622   0.061   6.917   2.440 -2.9615  0.3116  0.2559
10575SOL     OW32623   1.838   0.129   1.280  0.5027  0.0638 -0.1661
10575SOL    HW132624   1.871   0.090   1.194  0.3859 -1.4614  0.4629
10575SOL    HW232625   1.805   0.222   1.263  0.3557 -0.2537 -1.7981
10576SOL     OW32626   1.430   2.775   6.042  0.1263  0.1347 -0.0607
10576SOL    HW132627   1.469   2.763   5.950  1.0464  0.0081  0.3306
10576SOL    HW232628   1.359   2.844   6.039  0.4354  0.4347 -0.7948
10577SOL     OW32629   2.118   4.300   3.364  0.0712 -0.2272  0.4683
10577SOL    HW132630   2.046   4.350   3.412  0.7729  0.0113  1.3114
10577SOL    HW232631   2.156   4.230   3.425 -0.3012 -1.2026 -0.3998
10578SOL     OW32632   6.797   3.221   1.710 -0.0929 -0.5024 -0.2713
10578SOL    HW132633   6.894   3.202   1.725  0.1331 -1.1464 -2.2300
10578SOL    HW232634   6.751   3.138   1.678 -1.0608  0.0442 -0.3553
10579SOL     OW32635   6.648   3.192   4.538  0.3655  0.0970 -0.6473
10579SOL    HW132636   6.596   3.107   4.532  1.1300 -0.3583 -0.9319
10579SOL    HW232637   6.604   3.262   4.481  0.7024 -0.6148 -1.8182
10580SOL     OW32638   5.541   0.537   6.855 -0.3125 -0.3637  0.1830
10580SOL    HW132639   5.481   0.615   6.875 -0.9276 -1.0372  1.0649
10580SOL    HW232640   5.486   0.461   6.821  0.4160 -0.0948 -1.7010
10581SOL     OW32641   0.492   5.271   3.048  0.3909  0.4197  0.2621
10581SOL    HW132642   0.429   5.202   3.082 -0.4220  0.2600 -1.4770
10581SOL    HW232643   0.579   5.265   3.098 -0.6243  0.0259  2.0356
10582SOL     OW32644   3.727   4.363   0.738 -0.0777  0.1326  0.0363
10582SOL    HW132645   3.671   4.294   0.693 -1.3820  0.8387  0.5030
10582SOL    HW232646   3.717   4.355   0.837 -0.6519  1.2541  0.0978
10583SOL     OW32647   0.825   3.844   6.109  0.0242  0.1684 -0.2710
10583SOL    HW132648   0.885   3.897   6.169  0.4380  0.1875 -0.6899
10583SOL    HW232649   0.742   3.818   6.158 -1.0266  2.6894 -0.5650
10584SOL     OW32650   5.660   3.231   6.759 -0.1960  0.1062 -0.1850
10584SOL    HW132651   5.626   3.137   6.754 -0.0842  0.0803 -0.4367
10584SOL    HW232652   5.583   3.295   6.759 -0.2887  0.0011  0.3423
10585SOL     OW32653   5.599   6.815   4.200 -0.6496  0.2411  0.3948
10585SOL    HW132654   5.619   6.735   4.256 -0.7979 -0.3022 -0.3128
10585SOL    HW232655   5.636   6.897   4.244  0.8932 -0.4056  0.3506
10586SOL     OW32656   0.235   4.428   3.579  0.5016 -0.1882  0.2650
10586SOL    HW132657   0.157   4.475   3.537  0.5369 -1.3136 -1.1892
10586SOL    HW232658   0.224   4.426   3.678 -2.1657 -1.6460  0.0378
10587SOL     OW32659   1.531   6.356   6.264 -0.4998 -0.3602  0.1555
10587SOL    HW132660   1.526   6.343   6.364 -1.3386 -0.2113  0.1396
10587SOL    HW232661   1.471   6.431   6.238  2.9369  2.5969  0.0423
10588SOL     OW32662   2.256   1.787   0.644  0.6335  0.7554 -0.2959
10588SOL    HW132663   2.334   1.726   0.660  0.9068  0.8604 -1.1585
10588SOL    HW232664   2.290   1.878   0.619  0.2293  0.8665 -0.4453
10589SOL     OW32665   1.807   5.079   5.313 -0.4739 -0.1077  0.2129
10589SOL    HW132666   1.857   4.999   5.283  0.6891  0.9959 -0.9398
10589SOL    HW232667   1.728   5.094   5.253  0.6418  0.8932 -1.0619
10590SOL     OW32668   0.837   0.077   4.313 -0.9656  0.0790 -0.2679
10590SOL    HW132669   0.819   0.137   4.235  0.5400 -1.4933 -1.9233
10590SOL    HW232670   0.822  -0.018   4.286  3.4845 -0.9048 -0.0267
10591SOL     OW32671   0.249   2.163   4.865  0.4581 -0.0842 -0.2224
10591SOL    HW132672   0.162   2.130   4.900  0.1361  1.3510  0.3754
10591SOL    HW232673   0.312   2.177   4.941 -0.1870  2.8964 -0.1200
10592SOL     OW32674   5.114   5.495   4.471  0.0957 -0.0091  0.5184
10592SOL    HW132675   5.210   5.489   4.445  0.0355 -2.4001  0.6030
10592SOL    HW232676   5.058   5.450   4.402 -0.6126 -1.4381  1.9580
10593SOL     OW32677   6.598   2.616   1.972 -0.3809  0.2382  1.3003
10593SOL    HW132678   6.660   2.694   1.976  0.7078 -0.6448  2.5703
10593SOL    HW232679   6.551   2.615   1.884  2.7100  0.0096 -0.5083
10594SOL     OW32680   4.053   4.815   2.595  0.3813  0.1333 -0.0870
10594SOL    HW132681   3.972   4.832   2.539  0.4959 -0.0361 -0.3080
10594SOL    HW232682   4.036   4.847   2.688  0.9184  2.3389 -0.6872
10595SOL     OW32683   5.372   5.544   4.418  0.1670  0.3790  0.0044
10595SOL    HW132684   5.410   5.492   4.494 -2.4941 -1.0246  0.4948
10595SOL    HW232685   5.416   5.515   4.333  1.2445 -0.0301  0.6735
10596SOL     OW32686   3.540   0.655   6.365 -0.0749 -0.5982 -0.1693
10596SOL    HW132687   3.481   0.735   6.354  1.9862  0.8570 -1.3645
10596SOL    HW232688   3.592   0.664   6.449  1.7039  0.4700 -1.3212
10597SOL     OW32689   0.005   0.931   1.887  0.2538  0.3834  0.1784
10597SOL    HW132690   0.000   0.833   1.906  0.4779  0.2248 -0.5591
10597SOL    HW232691  -0.053   0.953   1.808 -1.0387  1.1096  1.2906
10598SOL     OW32692   1.215   6.223   4.578 -0.3036 -0.3594 -0.2395
10598SOL    HW132693   1.175   6.190   4.664 -3.1913 -0.5507 -1.5697
10598SOL    HW232694   1.180   6.314   4.558  5.1856  2.6666  1.8115
10599SOL     OW32695   0.112   5.414   4.936 -0.2226  0.0251 -0.0903
10599SOL    HW132696   0.052   5.488   4.906 -1.1854 -0.8145 -0.2470
10599SOL    HW232697   0.122   5.347   4.863 -0.3272 -0.6092  0.4747
10600SOL     OW32698   0.288   3.636   0.069 -0.4091 -0.7015  0.3439
10600SOL    HW132699   0.374   3.669   0.106  0.3631 -0.4999 -1.5034
10600SOL    HW232700   0.254   3.700  -0.000 -3.2826  0.4284  2.5683
10601SOL     OW32701   3.886   0.049   3.837 -0.5582  0.4886  0.2566
10601SOL    HW132702   3.918   0.009   3.922  1.7590  1.5608 -0.0465
10601SOL    HW232703   3.889   0.148   3.843  1.1232  0.6061 -1.5292
10602SOL     OW32704   3.029   1.173   3.057 -0.3576 -0.8741  0.2767
10602SOL    HW132705   3.081   1.242   3.007 -0.1630 -1.0322  0.2616
10602SOL    HW232706   3.042   1.083   3.015 -0.3461 -0.9756  0.4961
10603SOL     OW32707   2.073   6.695   3.738  0.5614 -0.5112 -0.5406
10603SOL    HW132708   2.075   6.614   3.678  1.7163 -0.2634 -0.8665
10603SOL    HW232709   2.144   6.686   3.808  0.1266 -0.1660 -0.0566
10604SOL     OW32710   0.611   5.992   3.324  0.0946  0.2372  0.1430
10604SOL    HW132711   0.564   5.910   3.294  0.5945  0.2016 -0.5621
10604SOL    HW232712   0.645   5.978   3.417  0.8539 -0.6607 -0.2450
10605SOL     OW32713   1.724   3.783   5.464  0.1635 -0.7554 -0.3007
10605SOL    HW132714   1.779   3.833   5.397  0.2006 -0.8709 -0.3565
10605SOL    HW232715   1.726   3.686   5.443 -0.1851 -0.7464 -0.3958
10606SOL     OW32716   2.312   3.056   6.023  0.4091  0.4149 -0.0100
10606SOL    HW132717   2.301   2.994   6.100 -0.5771  0.7734  0.1561
10606SOL    HW232718   2.243   3.036   5.953  2.2080 -0.8828 -1.5084
10607SOL     OW32719   5.479   3.772   5.713  0.2953  0.2756 -0.2284
10607SOL    HW132720   5.382   3.767   5.738  0.5747 -0.2856  0.7803
10607SOL    HW232721   5.523   3.684   5.731  0.4788 -0.2770 -2.9905
10608SOL     OW32722   2.803   3.866   1.516  0.9121 -0.5326 -0.5769
10608SOL    HW132723   2.878   3.861   1.450  0.9739  1.0004 -0.6776
10608SOL    HW232724   2.818   3.800   1.589  2.5615 -0.0504 -0.4294
10609SOL     OW32725   6.393   2.546   2.618  0.2534 -0.1650  0.3861
10609SOL    HW132726   6.334   2.535   2.698  0.4376  1.0491  0.7095
10609SOL    HW232727   6.470   2.482   2.625  1.7943  1.7375  2.6591
10610SOL     OW32728   3.483   3.851   2.246  0.0196  0.1992 -0.2105
10610SOL    HW132729   3.445   3.921   2.186 -1.3021 -0.2480  0.0544
10610SOL    HW232730   3.463   3.875   2.341  0.2074 -0.1653 -0.0781
10611SOL     OW32731   0.252   4.617   5.786 -0.4779 -0.2831 -0.1985
10611SOL    HW132732   0.337   4.661   5.757 -0.2982 -0.3413  0.2332
10611SOL    HW232733   0.184   4.687   5.808  0.5616 -0.0876  2.8150
10612SOL     OW32734   2.024   2.910   2.749  0.0123  0.6530  0.1962
10612SOL    HW132735   2.039   2.994   2.802 -0.9504 -0.0675  1.6928
10612SOL    HW232736   2.102   2.894   2.689  1.6038  1.0625  2.0507
10613SOL     OW32737   1.253   0.622   3.720  0.3316  0.3608 -0.0801
10613SOL    HW132738   1.326   0.575   3.770  0.6790 -0.0510 -0.9496
10613SOL    HW232739   1.273   0.620   3.622  0.7931  3.0307 -0.1322
10614SOL     OW32740   2.047   6.112   5.536  0.4281  0.1195  0.5662
10614SOL    HW132741   2.130   6.077   5.579  0.2233 -0.7055  0.3151
10614SOL    HW232742   1.967   6.071   5.580  0.1530  0.8487  0.7536
10615SOL     OW32743   6.583   3.542   2.721 -0.5059 -0.3071 -0.4131
10615SOL    HW132744   6.503   3.578   2.673 -1.1656 -1.1501  0.0300
10615SOL    HW232745   6.571   3.444   2.738  1.1468 -0.7060 -1.3681
10616SOL     OW32746   0.023   4.543   3.294 -0.1864 -0.3422 -0.1831
10616SOL    HW132747   0.108   4.545   3.242  0.1877  1.4698  0.4121
10616SOL    HW232748  -0.049   4.591   3.244 -0.6494 -1.1824 -0.3360
10617SOL     OW32749   2.693   2.121   6.576  0.3588 -0.2240 -0.0061
10617SOL    HW132750   2.772   2.060   6.569  1.5261  1.0696  1.1285
10617SOL    HW232751   2.649   2.129   6.486 -0.9455 -4.0199  0.1318
10618SOL     OW32752   6.174   1.220   1.718  0.0736 -0.0038  0.3369
10618SOL    HW132753   6.205   1.151   1.653 -2.5013 -0.1341 -0.8651
10618SOL    HW232754   6.145   1.175   1.803  1.9048  0.0217  1.0264
10619SOL     OW32755   6.415   4.435   4.099 -0.3798  0.3569  0.0244
10619SOL    HW132756   6.468   4.492   4.161 -1.1131 -0.1130  1.1109
10619SOL    HW232757   6.474   4.366   4.057  0.4887  1.7883 -1.2093
10620SOL     OW32758   4.102   4.615   5.309 -0.3811 -0.5770  0.0055
10620SOL    HW132759   4.168   4.681   5.345 -0.9260 -0.2975  0.5170
10620SOL    HW232760   4.151   4.539   5.265  0.2620 -0.1247 -0.0756
10621SOL     OW32761   3.098   5.797   0.618  0.2037 -0.1708  0.1979
10621SOL    HW132762   3.127   5.701   0.614  0.3239 -0.1339  0.1705
10621SOL    HW232763   3.144   5.843   0.694  1.5906  0.3364 -0.9097
10622SOL     OW32764   4.841   1.218   0.077  0.2851  0.4893 -0.1572
10622SOL    HW132765   4.834   1.156  -0.001  1.0595 -1.4281  1.1962
10622SOL    HW232766   4.773   1.191   0.146  0.2328  1.5640  0.2303
10623SOL     OW32767   5.125   3.150   0.129 -0.2643 -0.1530 -0.3182
10623SOL    HW132768   5.186   3.079   0.166  1.0362  0.5044 -1.1349
10623SOL    HW232769   5.036   3.109   0.109  0.3190 -1.4635 -0.3764
10624SOL     OW32770   5.119   3.424   0.810 -0.4221 -0.1580  0.0915
10624SOL    HW132771   5.138   3.515   0.847 -0.3713  0.5104 -1.4780
10624SOL    HW232772   5.152   3.355   0.873  2.0663  0.9343  0.1136
10625SOL     OW32773   0.621   0.524   3.296 -0.5558  0.4375  0.3821
10625SOL    HW132774   0.562   0.554   3.371 -1.2029  1.1129 -0.3695
10625SOL    HW232775   0.667   0.604   3.257 -1.5673  0.3663 -1.0466
10626SOL     OW32776   0.380   2.115   4.060  0.7440 -0.2698 -0.4666
10626SOL    HW132777   0.349   2.079   3.972  2.5382 -0.1668 -1.1922
10626SOL    HW232778   0.397   2.213   4.052 -1.8441  0.3769  0.8521
10627SOL     OW32779   5.878   0.129   1.512 -0.3691 -0.3741  0.0256
10627SOL    HW132780   5.792   0.180   1.515  0.4620  1.1677 -1.1383
10627SOL    HW232781   5.952   0.184   1.550  0.4272 -0.9653 -0.6214
10628SOL     OW32782   0.346   3.782   1.532 -0.1319  0.2263  0.1142
10628SOL    HW132783   0.396   3.859   1.572  0.5686  0.2934 -0.8609
10628SOL    HW232784   0.376   3.768   1.438 -2.4566  0.7238 -0.7795
10629SOL     OW32785   0.981   4.056   3.947 -0.4876 -0.1040  0.1251
10629SOL    HW132786   1.030   4.143   3.939 -0.4218 -0.0033  1.4954
10629SOL    HW232787   0.890   4.072   3.984 -0.1920 -0.6902  1.1460
10630SOL     OW32788   5.718   4.252   3.077 -0.5400 -0.1107 -0.3355
10630SOL    HW132789   5.757   4.255   3.169 -1.0863 -0.4160 -0.0912
10630SOL    HW232790   5.715   4.157   3.046  1.9572  0.1763 -1.6808
10631SOL     OW32791   4.022   6.590   0.536  0.4360 -0.2039 -0.9588
10631SOL    HW132792   4.031   6.684   0.568  0.4431 -0.5529  0.0813
10631SOL    HW232793   4.081   6.530   0.589 -0.2746 -0.9443 -0.9817
10632SOL     OW32794   2.370   5.535   6.955  0.4473  0.2567 -0.0787
10632SOL    HW132795   2.356   5.451   6.902 -1.3388 -0.5603  1.5718
10632SOL    HW232796   2.425   5.600   6.901  1.0275 -1.5614 -1.7835
10633SOL     OW32797   3.955   3.955   1.528  0.3693 -0.0542  0.4572
10633SOL    HW132798   3.967   3.993   1.620 -0.1047 -1.8738  1.3021
10633SOL    HW232799   4.043   3.924   1.493  0.9605  2.5526 -0.6575
10634SOL     OW32800   6.464   4.218   1.814  0.0301 -0.0771  0.0917
10634SOL    HW132801   6.415   4.217   1.900  0.2768  0.1177  0.2368
10634SOL    HW232802   6.427   4.290   1.755  0.5289  0.4740  0.4343
10635SOL     OW32803   6.804   0.128   0.804 -0.0612  0.2251  0.3532
10635SOL    HW132804   6.874   0.098   0.739  1.2197  2.3608  0.6834
10635SOL    HW232805   6.808   0.070   0.886  1.2834  0.2938  0.3463
10636SOL     OW32806   4.519   2.036   6.312  0.0041  0.2865 -0.0822
10636SOL    HW132807   4.485   2.122   6.350 -1.1171 -0.2034  0.0646
10636SOL    HW232808   4.458   2.005   6.239  0.0629 -0.6828  0.2646
10637SOL     OW32809   2.370   4.654   5.458  0.8451 -0.4596 -0.8760
10637SOL    HW132810   2.353   4.675   5.362  0.1204 -0.2904 -0.7154
10637SOL    HW232811   2.297   4.595   5.493  0.1485  0.8838  0.0261
10638SOL     OW32812   5.197   3.478   1.169 -0.2053  0.8039  0.3912
10638SOL    HW132813   5.241   3.399   1.126 -2.1022  0.9679 -2.0691
10638SOL    HW232814   5.223   3.481   1.266 -0.6698 -3.3032  0.8464
10639SOL     OW32815   6.984   4.178   1.701 -0.5469 -0.3752  0.2461
10639SOL    HW132816   6.909   4.115   1.680 -1.0715  0.6431 -1.0990
10639SOL    HW232817   6.950   4.272   1.697  0.8238  0.1163 -0.5069
10640SOL     OW32818   4.456   4.835   2.924 -0.8272 -0.2779 -0.3005
10640SOL    HW132819   4.381   4.901   2.911 -0.7550 -0.2001 -0.3224
10640SOL    HW232820   4.418   4.745   2.944 -0.9346 -0.3511 -0.8319
10641SOL     OW32821   3.898   4.248   0.316  0.0537  0.3160  0.0423
10641SOL    HW132822   3.884   4.344   0.342  1.3267  0.7782 -0.8711
10641SOL    HW232823   3.993   4.234   0.289 -0.7116 -0.5372 -2.5107
10642SOL     OW32824   0.592   4.127   1.098  0.1144 -0.3025 -0.0348
10642SOL    HW132825   0.544   4.215   1.106  1.5207  0.4143  0.9070
10642SOL    HW232826   0.525   4.053   1.102 -0.8322  0.5701  3.1454
10643SOL     OW32827   1.350   4.634   4.944 -0.5573  0.3725  0.1663
10643SOL    HW132828   1.418   4.560   4.950 -1.6126 -0.6320 -0.0252
10643SOL    HW232829   1.311   4.651   5.034 -1.5050 -0.4539 -0.0800
10644SOL     OW32830   2.065   0.689   6.419 -0.6257  0.0320 -0.6693
10644SOL    HW132831   2.091   0.777   6.460  1.1077 -0.7135 -0.0594
10644SOL    HW232832   1.972   0.666   6.446 -1.7079  2.3992 -2.1267
10645SOL     OW32833   5.621   5.868   1.677 -0.5736  0.1375 -0.0186
10645SOL    HW132834   5.681   5.927   1.623  0.8831 -1.3742 -0.1640
10645SOL    HW232835   5.615   5.778   1.634 -1.0318 -0.4702  1.2528
10646SOL     OW32836   0.803   4.258   3.224  0.0043 -0.2844 -0.5729
10646SOL    HW132837   0.862   4.242   3.145 -0.6448  0.9317 -1.3351
10646SOL    HW232838   0.856   4.244   3.308  2.0038  2.5614 -1.1960
10647SOL     OW32839   2.173   3.836   2.425  0.0011  0.5518 -0.3560
10647SOL    HW132840   2.134   3.788   2.504 -0.5994 -0.0589 -1.0089
10647SOL    HW232841   2.255   3.885   2.454  0.0297 -0.0015  0.5611
10648SOL     OW32842   1.821   1.146   3.331  0.1288 -0.2440  0.0336
10648SOL    HW132843   1.721   1.147   3.339 -0.1551 -2.0594 -1.9608
10648SOL    HW232844   1.857   1.066   3.380  0.4403 -0.2811 -0.2512
10649SOL     OW32845   2.029   6.079   0.544 -0.4068  0.0530  0.0163
10649SOL    HW132846   2.122   6.110   0.566 -0.8546  0.2485  1.8300
10649SOL    HW232847   1.982   6.053   0.629 -2.0477  0.0633 -0.8528
10650SOL     OW32848   0.450   1.825   2.033  0.3337 -0.5623  0.0597
10650SOL    HW132849   0.449   1.727   2.054 -0.7333 -0.6139 -0.1718
10650SOL    HW232850   0.417   1.876   2.112  3.0724 -0.1685  1.0460
10651SOL     OW32851   6.871   3.577   5.827  0.1979  0.7583 -0.1237
10651SOL    HW132852   6.939   3.649   5.813  2.3002 -1.4867 -2.5129
10651SOL    HW232853   6.890   3.531   5.914  2.6641 -0.6443 -1.3256
10652SOL     OW32854   4.104   4.972   5.615  0.3572 -0.1426  0.2717
10652SOL    HW132855   4.185   5.029   5.602  0.4707  0.1329  1.9408
10652SOL    HW232856   4.073   4.938   5.527  2.1492 -0.0732 -0.4371
10653SOL     OW32857   0.259   1.319   1.843 -0.1530  0.3697  0.1554
10653SOL    HW132858   0.319   1.395   1.817  1.1098 -0.4392  0.6039
10653SOL    HW232859   0.260   1.309   1.943 -1.7163  0.8624  0.2455
10654SOL     OW32860   5.405   1.549   3.980  0.2336 -0.1909 -0.6238
10654SOL    HW132861   5.498   1.519   3.959  0.0231 -1.5040  0.2192
10654SOL    HW232862   5.401   1.579   4.075 -0.0415  0.6657 -0.8896
10655SOL     OW32863   3.294   5.485   2.272 -0.0693  0.3682  0.0449
10655SOL    HW132864   3.276   5.420   2.198  0.6396 -0.7478  0.8185
10655SOL    HW232865   3.208   5.512   2.314 -0.4864  1.0609 -1.2114
10656SOL     OW32866   3.673   3.239   1.829 -0.0016  0.3580 -0.1663
10656SOL    HW132867   3.582   3.213   1.794 -0.5545  1.0491  0.7199
10656SOL    HW232868   3.709   3.166   1.885 -0.2530  0.2966 -0.0829
10657SOL     OW32869   4.961   6.796   2.405  0.2132 -0.3631 -0.3416
10657SOL    HW132870   5.012   6.866   2.355  1.0079 -0.1103  0.7819
10657SOL    HW232871   4.865   6.824   2.413 -0.4556 -1.3393 -3.4020
10658SOL     OW32872   5.503   3.789   6.151  0.1732  0.3004  0.5912
10658SOL    HW132873   5.523   3.882   6.121  1.8644  0.1677  1.1769
10658SOL    HW232874   5.404   3.777   6.158 -0.1480  1.4787 -1.1959
10659SOL     OW32875   5.457   0.562   1.404  0.0071 -0.1259 -0.0670
10659SOL    HW132876   5.461   0.465   1.381 -0.1780  0.2096 -1.6637
10659SOL    HW232877   5.429   0.614   1.323  1.6033  1.4334  0.3188
10660SOL     OW32878   0.519   5.310   1.257  0.6956 -0.5673 -0.0273
10660SOL    HW132879   0.592   5.243   1.270 -0.4250 -1.6283  0.9323
10660SOL    HW232880   0.430   5.266   1.267 -0.0874  1.2592  1.7995
10661SOL     OW32881   1.152   5.827   0.934 -0.2805  0.1944  0.0672
10661SOL    HW132882   1.152   5.851   1.031  0.3377  1.4617 -0.2170
10661SOL    HW232883   1.213   5.749   0.919 -0.5698 -0.1658  0.7312
10662SOL     OW32884   4.575   4.411   5.770 -0.2749  0.4180  0.0068
10662SOL    HW132885   4.665   4.376   5.745 -0.3327 -0.8603  1.4271
10662SOL    HW232886   4.582   4.464   5.854 -0.9913 -0.6725  0.7847
10663SOL     OW32887   2.212   6.548   1.295 -0.2496 -0.0346  0.4455
10663SOL    HW132888   2.169   6.472   1.247 -1.4673  1.9615 -1.8108
10663SOL    HW232889   2.142   6.614   1.322  0.9910  1.4353  0.1790
10664SOL     OW32890   0.870   2.789   6.140 -0.0507 -0.3782 -1.0301
10664SOL    HW132891   0.773   2.797   6.164 -0.1576 -1.8196 -0.8769
10664SOL    HW232892   0.880   2.771   6.042  0.0369 -0.6072 -0.9804
10665SOL     OW32893   1.334   4.279   0.926  0.0755 -0.6240 -0.1613
10665SOL    HW132894   1.403   4.278   0.855  0.8981  0.8502  0.5762
10665SOL    HW232895   1.376   4.301   1.014 -1.3622  0.6838  0.2466
10666SOL     OW32896   2.267   4.285   1.933 -0.1242  0.0571 -0.1994
10666SOL    HW132897   2.224   4.309   2.020 -0.8783 -0.1401 -0.5125
10666SOL    HW232898   2.362   4.257   1.949  0.4672  2.2016  0.3019
10667SOL     OW32899   0.027   4.944   0.756 -0.4597  0.1745  0.0499
10667SOL    HW132900   0.054   5.040   0.766 -0.8418  0.1518  1.5741
10667SOL    HW232901  -0.013   4.929   0.666 -1.8910  1.8301  0.3763
10668SOL     OW32902   1.077   3.319   1.009  0.1762  0.3634  0.0688
10668SOL    HW132903   1.058   3.222   1.025  0.6693  0.0603 -1.0570
10668SOL    HW232904   1.045   3.373   1.087 -1.9415 -0.4760 -0.1575
10669SOL     OW32905   1.616   6.705   1.875  0.0141  0.5303  0.3728
10669SOL    HW132906   1.517   6.702   1.863  0.2486  0.0961 -2.2390
10669SOL    HW232907   1.656   6.763   1.804  1.6969 -0.2723  0.6193
10670SOL     OW32908   5.937   2.131   2.026 -0.1935 -0.6192  0.2144
10670SOL    HW132909   5.953   2.035   2.002  2.3676  0.1230 -1.4244
10670SOL    HW232910   5.932   2.139   2.126 -0.1787 -2.4217  0.3958
10671SOL     OW32911   5.124   3.952   0.078  0.0758 -0.0086  0.5980
10671SOL    HW132912   5.046   4.015   0.077 -0.9543 -1.2255  1.4604
10671SOL    HW232913   5.124   3.901   0.165  0.8030 -1.2835 -0.1258
10672SOL     OW32914   5.625   0.991   4.434  0.5828 -0.2036  0.2517
10672SOL    HW132915   5.562   1.013   4.509  0.7038 -0.7000  0.5004
10672SOL    HW232916   5.591   1.030   4.349 -0.8201 -1.6904  0.0921
10673SOL     OW32917   3.249   5.375   4.600 -0.0684  0.0520 -0.1159
10673SOL    HW132918   3.338   5.404   4.634  0.4712 -1.5411 -0.0488
10673SOL    HW232919   3.178   5.431   4.641  0.8194  0.4719  0.9041
10674SOL     OW32920   0.646   6.914   6.809 -0.0420  0.1061  0.5562
10674SOL    HW132921   0.613   7.008   6.812 -1.9480 -0.5389  1.9346
10674SOL    HW232922   0.569   6.851   6.820  1.2322 -1.6282  0.0780
10675SOL     OW32923   3.617   5.374   3.806  0.7198  0.0238  0.4822
10675SOL    HW132924   3.636   5.309   3.880 -0.1364 -0.6817  0.1024
10675SOL    HW232925   3.591   5.462   3.845 -1.5348 -0.8433  1.1141
10676SOL     OW32926   6.074   2.942   4.280 -0.0021 -0.0560  0.1490
10676SOL    HW132927   6.087   2.953   4.181  0.6202 -0.6095  0.1683
10676SOL    HW232928   6.146   2.989   4.329 -0.3164  0.2255  0.3443
10677SOL     OW32929   1.220   4.920   3.753 -0.1588  0.1728  0.6250
10677SOL    HW132930   1.157   4.844   3.772 -0.3103 -0.1234 -0.9084
10677SOL    HW232931   1.244   4.919   3.656  0.9847  1.2353  0.8812
10678SOL     OW32932   0.790   3.629   5.937  0.0442  0.3344  0.0311
10678SOL    HW132933   0.718   3.667   5.879  0.2573 -0.6707 -0.9395
10678SOL    HW232934   0.811   3.692   6.011 -1.2080  1.0366 -0.1969
10679SOL     OW32935   2.664   2.774   5.851  0.2089 -0.2379 -0.4539
10679SOL    HW132936   2.650   2.675   5.850 -2.3937  0.0373 -0.8602
10679SOL    HW232937   2.724   2.799   5.926 -2.3562 -1.8612  2.3868
10680SOL     OW32938   1.218   4.618   3.186 -0.1338 -0.1015  0.0451
10680SOL    HW132939   1.215   4.531   3.136 -1.0635 -0.4492  0.6785
10680SOL    HW232940   1.135   4.671   3.165 -0.1151  0.1251  0.5386
10681SOL     OW32941   3.888   2.963   2.317 -0.6921 -0.1515  0.6788
10681SOL    HW132942   3.893   2.870   2.281 -0.9042 -0.0432  0.3615
10681SOL    HW232943   3.889   3.028   2.241 -0.3728  0.1113  0.9078
10682SOL     OW32944   5.204   3.175   3.912  0.0951  0.5491  0.5990
10682SOL    HW132945   5.257   3.092   3.893 -1.6847 -0.6783  0.7645
10682SOL    HW232946   5.224   3.207   4.005 -0.2375 -0.5172  1.0528
10683SOL     OW32947   5.606   0.323   2.092 -0.2373  0.2912  0.2434
10683SOL    HW132948   5.705   0.330   2.079 -0.3336  1.4326  0.0301
10683SOL    HW232949   5.559   0.371   2.018 -0.8794  2.3368  1.8725
10684SOL     OW32950   4.552   6.721   0.052  0.0426  0.2127 -0.5055
10684SOL    HW132951   4.590   6.687  -0.034  3.2571  0.4359  0.6982
10684SOL    HW232952   4.545   6.646   0.117  1.1547  0.6648  0.1650
10685SOL     OW32953   3.177   1.645   3.192 -0.2672  0.2781 -0.0236
10685SOL    HW132954   3.103   1.675   3.131  0.5324  1.5582 -0.4042
10685SOL    HW232955   3.261   1.633   3.139 -0.2656 -1.5343  0.3397
10686SOL     OW32956   5.672   1.773   2.499  0.0956  0.1875 -0.2041
10686SOL    HW132957   5.695   1.685   2.456  1.4374  0.3280  0.1673
10686SOL    HW232958   5.604   1.820   2.443  0.3380 -0.5130 -1.1249
10687SOL     OW32959   5.292   6.988   1.966 -0.0576  0.1521  0.4560
10687SOL    HW132960   5.300   6.892   1.993 -2.5520  0.3239  2.1894
10687SOL    HW232961   5.363   7.042   2.011 -1.9690 -0.1274  4.2237
10688SOL     OW32962   4.597   4.883   3.589  0.6928  0.3884 -0.5105
10688SOL    HW132963   4.586   4.834   3.675  0.8844 -1.0823 -1.2835
10688SOL    HW232964   4.573   4.979   3.601 -0.1437  0.0173  0.9601
10689SOL     OW32965   1.785   0.744   4.527  0.3145  0.7043  0.0249
10689SOL    HW132966   1.801   0.696   4.613  3.2041 -3.0233 -2.2763
10689SOL    HW232967   1.699   0.713   4.486  0.3254  0.3247  0.2835
10690SOL     OW32968   6.659   5.875   5.534 -0.0212  0.2533 -0.6915
10690SOL    HW132969   6.646   5.819   5.452  0.0877 -1.1098  0.1790
10690SOL    HW232970   6.583   5.859   5.597 -0.8744  2.4035 -1.0965
10691SOL     OW32971   0.801   0.110   0.543 -0.2026 -0.2442  0.5660
10691SOL    HW132972   0.801   0.127   0.642  0.0719 -0.2440  0.5666
10691SOL    HW232973   0.867   0.170   0.499  0.0160 -0.5748  0.4393
10692SOL     OW32974   4.961   6.286   6.273 -0.4020  0.0577  0.3895
10692SOL    HW132975   4.966   6.379   6.309  3.1775  2.0714 -4.2391
10692SOL    HW232976   5.007   6.223   6.336  1.2571  2.3153  1.5830
10693SOL     OW32977   3.450   0.192   6.935 -0.2775 -0.7245  0.6689
10693SOL    HW132978   3.352   0.196   6.913 -0.3283  1.9923  1.1608
10693SOL    HW232979   3.502   0.237   6.863  0.5516 -1.2330  0.9325
10694SOL     OW32980   4.987   5.929   2.686 -0.8863  0.9245 -0.1833
10694SOL    HW132981   4.909   5.992   2.690 -0.9883  0.9573 -2.0914
10694SOL    HW232982   4.954   5.836   2.669 -0.5315  0.8585 -0.5129
10695SOL     OW32983   6.392   5.394   4.256 -0.2451 -0.0542  0.3564
10695SOL    HW132984   6.479   5.439   4.235  0.6366 -2.2339 -1.0639
10695SOL    HW232985   6.394   5.360   4.350 -0.3182  1.4254  0.9260
10696SOL     OW32986   3.697   1.920   1.601 -0.4663 -0.1003  0.1245
10696SOL    HW132987   3.742   1.852   1.543 -2.2735  2.1694 -4.4844
10696SOL    HW232988   3.598   1.915   1.586 -0.6910  3.2921 -0.2990
10697SOL     OW32989   1.696   4.027   5.598 -0.7358  0.1514  0.9750
10697SOL    HW132990   1.616   4.001   5.651 -0.3878  0.7876  1.8288
10697SOL    HW232991   1.753   3.947   5.580 -2.4639 -0.6910 -1.2673
10698SOL     OW32992   4.155   5.628   2.551  0.3750 -0.3537 -0.2878
10698SOL    HW132993   4.167   5.618   2.452 -0.8325  0.2212 -0.4975
10698SOL    HW232994   4.245   5.642   2.594  0.7239  1.6675 -1.5608
10699SOL     OW32995   0.794   0.413   0.166  0.1579 -0.4443 -0.0491
10699SOL    HW132996   0.773   0.388   0.071 -2.2049 -1.0091  0.5512
10699SOL    HW232997   0.735   0.489   0.194 -0.7200 -1.6502  1.5590
10700SOL     OW32998   0.909   6.494   4.286  0.6712  0.1805 -0.7941
10700SOL    HW132999   0.815   6.504   4.253  0.8046 -0.9943 -1.6155
10700SOL    HW233000   0.939   6.400   4.271  1.4119  0.0953  1.0308
10701SOL     OW33001   3.746   2.121   5.570  0.3235 -0.4142 -0.2627
10701SOL    HW133002   3.654   2.124   5.608  1.0492 -1.4302  1.7845
10701SOL    HW233003   3.752   2.180   5.490 -1.7451  0.7271  0.3517
10702SOL     OW33004   2.342   0.282   1.515 -0.1701  0.5146 -0.1480
10702SOL    HW133005   2.420   0.222   1.494  0.0850  2.0147 -4.5322
10702SOL    HW233006   2.260   0.246   1.472 -0.7554  1.5754  0.0484
10703SOL     OW33007   5.093   1.833   5.376  0.2946  0.0293  0.2369
10703SOL    HW133008   5.122   1.922   5.411 -1.8266 -0.2235  2.9620
10703SOL    HW233009   4.998   1.838   5.346  0.4318 -1.1048 -0.4595
10704SOL     OW33010   5.716   4.916   3.390 -0.0701 -0.2622 -0.0696
10704SOL    HW133011   5.639   4.978   3.404  0.3970  0.0990  0.9972
10704SOL    HW233012   5.790   4.940   3.452  0.7833 -0.8184 -0.8425
10705SOL     OW33013   4.845   4.130   2.263 -0.4839 -0.1477 -0.2442
10705SOL    HW133014   4.771   4.177   2.310 -0.5071  0.0285 -0.4577
10705SOL    HW233015   4.877   4.185   2.187 -0.5140 -0.4776 -0.4986
10706SOL     OW33016   4.118   3.456   3.120  0.0185  0.6292  0.8085
10706SOL    HW133017   4.087   3.418   3.033 -0.0383  0.1309  1.0486
10706SOL    HW233018   4.109   3.388   3.192 -0.8318  1.3392  1.3962
10707SOL     OW33019   2.179   6.056   0.116 -0.7488 -0.1425  0.2571
10707SOL    HW133020   2.215   5.963   0.109 -0.9768 -0.1432 -1.0068
10707SOL    HW233021   2.244   6.120   0.075 -0.7121  0.2362  0.8895
10708SOL     OW33022   5.979   2.088   6.065  0.1607  0.1643  0.4136
10708SOL    HW133023   5.983   2.155   6.139  0.0848  0.2031  0.3826
10708SOL    HW233024   6.063   2.034   6.064 -0.3611 -0.7100  1.3603
10709SOL     OW33025   6.666   6.731   3.301 -0.2739  0.2042 -0.3048
10709SOL    HW133026   6.570   6.708   3.321  0.1228 -0.1720  1.3320
10709SOL    HW233027   6.680   6.828   3.317  0.6147 -0.4589  4.2864
10710SOL     OW33028   5.431   3.328   6.026  0.3519 -0.1336  0.1172
10710SOL    HW133029   5.527   3.300   6.031  0.2737 -0.3653  0.3531
10710SOL    HW233030   5.402   3.330   5.930  0.7786  0.5908 -0.0137
10711SOL     OW33031   6.988   0.423   3.636 -0.1371 -0.0273 -0.4424
10711SOL    HW133032   6.958   0.499   3.579  1.5665  0.9719 -0.1089
10711SOL    HW233033   7.025   0.459   3.722  3.6807 -0.8329 -1.5376
10712SOL     OW33034   5.453   6.197   1.713  0.0166  0.1228 -0.2685
10712SOL    HW133035   5.549   6.192   1.741 -0.2486  1.9567  1.1647
10712SOL    HW233036   5.436   6.132   1.638  1.9549 -1.4141  0.5521
10713SOL     OW33037   0.718   6.605   6.701  0.3473 -0.2300  0.1604
10713SOL    HW133038   0.646   6.672   6.718  0.4072  0.2517 -1.3663
10713SOL    HW233039   0.691   6.517   6.741 -1.0924 -0.0599 -0.3907
10714SOL     OW33040   1.690   0.402   5.159  0.4576 -0.2393  0.3318
10714SOL    HW133041   1.740   0.317   5.175  1.6415  0.6729  1.8745
10714SOL    HW233042   1.684   0.453   5.245 -0.4253  1.1320 -0.5082
10715SOL     OW33043   1.382   3.737   1.013 -0.6211 -0.1979  0.2138
10715SOL    HW133044   1.314   3.690   0.957  0.8564 -1.3372 -0.6817
10715SOL    HW233045   1.361   3.835   1.014 -3.2783 -0.6831  1.4482
10716SOL     OW33046   2.580   1.540   4.129  0.3383 -0.3192 -0.3111
10716SOL    HW133047   2.607   1.607   4.059  0.3563  0.8241  0.7720
10716SOL    HW233048   2.540   1.587   4.207  2.8913 -1.2690  1.7125
10717SOL     OW33049   5.463   1.725   0.875  0.5094  0.2854 -0.3316
10717SOL    HW133050   5.374   1.679   0.870  0.1244  1.1646 -2.4442
10717SOL    HW233051   5.450   1.819   0.906  0.9358 -0.0582  0.9618
10718SOL     OW33052   2.470   5.077   0.510 -0.3526 -0.9496 -0.3675
10718SOL    HW133053   2.472   5.175   0.532  0.5426 -1.0034 -0.1774
10718SOL    HW233054   2.382   5.039   0.539 -0.2172 -0.4659  0.7526
10719SOL     OW33055   5.543   6.110   3.117 -0.6392  0.2394  0.0759
10719SOL    HW133056   5.561   6.165   3.198 -1.4491  0.4240  0.1408
10719SOL    HW233057   5.520   6.170   3.040 -0.1196  0.0538 -0.2326
10720SOL     OW33058   0.694   3.986   3.316  0.4479 -0.0912  0.4131
10720SOL    HW133059   0.654   4.023   3.232  0.8176 -1.8695 -0.6020
10720SOL    HW233060   0.625   3.934   3.366 -0.0594  1.8185  1.8121
10721SOL     OW33061   3.042   4.322   1.493 -0.2608 -0.0868  0.3121
10721SOL    HW133062   3.015   4.285   1.582 -3.9217  0.8231 -0.2632
10721SOL    HW233063   2.973   4.298   1.425  1.4202  0.9624 -1.8841
10722SOL     OW33064   2.644   1.725   1.418 -0.2205 -0.3213 -0.1563
10722SOL    HW133065   2.554   1.750   1.380  0.4664  0.5450 -1.2873
10722SOL    HW233066   2.631   1.681   1.507 -1.7307  0.4063  0.0250
10723SOL     OW33067   4.502   2.380   3.406 -0.4184 -0.3126 -0.0623
10723SOL    HW133068   4.452   2.384   3.493 -0.7091 -0.8242 -0.1988
10723SOL    HW233069   4.436   2.377   3.331 -0.1880 -1.1005 -0.2404
10724SOL     OW33070   5.251   1.466   5.587  0.0539  0.3852 -0.1901
10724SOL    HW133071   5.165   1.430   5.553  0.1966 -1.8342  1.5830
10724SOL    HW233072   5.287   1.534   5.523 -2.8470  1.2003 -1.0803
10725SOL     OW33073   6.890   6.477   1.429 -0.0841 -0.1865 -0.1829
10725SOL    HW133074   6.959   6.461   1.500  0.1345  0.2370 -0.2972
10725SOL    HW233075   6.931   6.463   1.339 -0.8259 -2.5864 -0.2230
10726SOL     OW33076   0.265   5.525   4.248  0.2383 -0.0621 -0.1332
10726SOL    HW133077   0.225   5.600   4.195  0.3193 -1.1112 -1.7678
10726SOL    HW233078   0.193   5.464   4.279  0.3324 -0.5187 -0.7849
10727SOL     OW33079   4.421   2.036   4.086  0.4333  0.2386  0.5239
10727SOL    HW133080   4.358   2.113   4.104 -0.8801 -0.4724 -0.7953
10727SOL    HW233081   4.447   1.994   4.172 -1.5061  0.1177  1.0993
10728SOL     OW33082   2.903   5.708   5.599 -0.6961 -0.5739 -0.6253
10728SOL    HW133083   2.858   5.739   5.682 -2.0167  0.1243 -1.5705
10728SOL    HW233084   2.974   5.773   5.572 -0.7544 -0.4367 -0.4422
10729SOL     OW33085   4.646   4.604   0.308 -0.3047  0.5822  0.1316
10729SOL    HW133086   4.572   4.643   0.254  0.2905  0.9359 -0.4562
10729SOL    HW233087   4.698   4.677   0.351 -0.6482  0.3083  1.0274
10730SOL     OW33088   2.052   6.052   3.528  0.1958 -0.8549  0.5213
10730SOL    HW133089   2.145   6.060   3.493 -0.1103 -1.1980 -0.3903
10730SOL    HW233090   2.036   6.124   3.596 -0.0294  1.6063 -1.9578
10731SOL     OW33091   5.059   1.817   4.384 -0.1371  0.1262  0.0755
10731SOL    HW133092   5.113   1.871   4.320  0.2712  0.4124  0.6569
10731SOL    HW233093   4.966   1.854   4.388  0.0086  0.4980  0.1114
10732SOL     OW33094   4.711   6.732   2.824  0.7619 -0.2575  0.2981
10732SOL    HW133095   4.728   6.771   2.915  1.0176 -2.3557  1.2218
10732SOL    HW233096   4.799   6.714   2.779  0.6680 -0.2243  0.1016
10733SOL     OW33097   6.594   4.454   3.325  0.5845 -0.8484 -0.0620
10733SOL    HW133098   6.603   4.475   3.422  0.4287  0.4793 -0.3108
10733SOL    HW233099   6.549   4.530   3.278  0.5293 -1.5237 -1.1555
10734SOL     OW33100   5.237   6.646   6.284 -0.2636 -0.2698 -0.1965
10734SOL    HW133101   5.178   6.647   6.365  0.9540  1.6459  0.7542
10734SOL    HW233102   5.331   6.625   6.311  1.5310  6.1096  0.2313
10735SOL     OW33103   1.719   5.631   0.074  0.3791  0.0643 -0.1122
10735SOL    HW133104   1.735   5.671  -0.016 -1.2626 -1.0001 -0.9133
10735SOL    HW233105   1.751   5.536   0.075  2.7629  0.7889  1.2798
10736SOL     OW33106   2.227   2.038   0.835 -0.5087 -0.0779 -0.5157
10736SOL    HW133107   2.319   2.073   0.852  0.1464 -1.7313 -0.4629
10736SOL    HW233108   2.232   1.948   0.792 -1.9976 -1.5864  2.1139
10737SOL     OW33109   1.575   3.053   6.384  0.2417 -0.1979  0.0920
10737SOL    HW133110   1.595   3.081   6.478 -0.0682 -0.5354  0.2593
10737SOL    HW233111   1.589   3.131   6.322 -1.0579  0.4703  0.6122
10738SOL     OW33112   4.813   6.347   5.560  0.5521  0.1890  0.3023
10738SOL    HW133113   4.743   6.392   5.616  0.1960  0.8490 -0.6525
10738SOL    HW233114   4.783   6.253   5.539 -1.9259  1.5377 -3.1514
10739SOL     OW33115   1.872   1.397   3.981  0.1438 -0.3517  0.0562
10739SOL    HW133116   1.927   1.424   4.060 -0.5679 -0.6694  0.6719
10739SOL    HW233117   1.816   1.318   4.005 -1.0230  0.3217 -0.3509
10740SOL     OW33118   3.590   0.931   4.303  0.2233  0.1673 -0.0180
10740SOL    HW133119   3.528   0.960   4.376 -0.2751  1.0681 -0.7859
10740SOL    HW233120   3.678   0.978   4.313  0.2908 -0.0157  0.2390
10741SOL     OW33121   2.652   4.475   1.679 -0.0623 -0.0939 -0.5249
10741SOL    HW133122   2.640   4.410   1.604 -0.9650 -1.2944  0.6236
10741SOL    HW233123   2.728   4.445   1.737 -3.2517 -2.9561  2.6806
10742SOL     OW33124   2.584   0.368   5.291  0.3236 -0.2078  0.2794
10742SOL    HW133125   2.629   0.396   5.376  2.5971 -0.6057 -0.7263
10742SOL    HW233126   2.646   0.384   5.213 -1.6815  0.1569 -1.3339
10743SOL     OW33127   4.160   6.513   4.873 -0.0016 -0.4042  0.2790
10743SOL    HW133128   4.126   6.566   4.950 -0.4560 -0.4630  0.1185
10743SOL    HW233129   4.132   6.417   4.884  0.5711 -0.5580  0.4242
10744SOL     OW33130   5.516   1.268   2.086  0.4411 -0.3797  0.2694
10744SOL    HW133131   5.579   1.298   2.014  0.2303  0.0216  0.2466
10744SOL    HW233132   5.449   1.340   2.103  0.0824 -0.7408  0.4018
10745SOL     OW33133   0.439   5.870   2.348  0.3585 -0.1958  0.1681
10745SOL    HW133134   0.404   5.843   2.259  0.6258 -0.4607  0.1444
10745SOL    HW233135   0.418   5.799   2.415 -1.8092  0.9514  0.8041
10746SOL     OW33136   1.255   2.886   2.667 -0.4583 -0.4046  0.2896
10746SOL    HW133137   1.316   2.817   2.628 -2.6428 -2.5646  0.4801
10746SOL    HW233138   1.240   2.958   2.599 -0.0769 -1.3787 -0.8751
10747SOL     OW33139   6.417   6.171   5.609  0.1668  0.3668 -0.2756
10747SOL    HW133140   6.352   6.241   5.642  0.1193  0.1624  0.0653
10747SOL    HW233141   6.370   6.110   5.546  0.5374  1.4374 -1.6447
10748SOL     OW33142   5.704   0.826   3.105 -0.0170 -0.1815  0.1477
10748SOL    HW133143   5.636   0.816   3.032 -0.6385  0.5969  0.5996
10748SOL    HW233144   5.785   0.873   3.070 -0.3698  0.3100 -0.0224
10749SOL     OW33145   6.598   2.831   2.337  0.7369 -0.0571 -0.2884
10749SOL    HW133146   6.567   2.757   2.278  1.0275  0.7242 -1.4528
10749SOL    HW233147   6.694   2.817   2.359  2.0958  2.0391 -3.9838
10750SOL     OW33148   1.509   6.501   2.900  0.1722  0.2031  0.0173
10750SOL    HW133149   1.493   6.593   2.863  0.7631 -0.4590 -2.0251
10750SOL    HW233150   1.545   6.442   2.827 -0.0518 -1.6176  1.3256
10751SOL     OW33151   5.216   1.247   2.826 -0.1688  0.4429 -0.0345
10751SOL    HW133152   5.223   1.161   2.876  1.9594 -0.1265 -1.1877
10751SOL    HW233153   5.164   1.314   2.880 -2.8167 -1.8197  0.4567
10752SOL     OW33154   6.704   1.059   5.196  0.4694  0.0483 -0.3218
10752SOL    HW133155   6.691   1.130   5.265 -0.2502 -0.4858  0.1033
10752SOL    HW233156   6.725   1.102   5.108  0.8061  0.7567  0.0910
10753SOL     OW33157   2.930   1.456   2.591  0.1283 -0.2839 -0.4788
10753SOL    HW133158   2.838   1.415   2.591 -0.1529  0.2883  0.9586
10753SOL    HW233159   2.976   1.433   2.506 -2.1241  1.1117 -2.2228
10754SOL     OW33160   4.990   5.281   0.664 -0.1632  0.4484 -0.7552
10754SOL    HW133161   5.046   5.326   0.595  2.2516 -1.0179  0.1258
10754SOL    HW233162   4.996   5.182   0.652  0.6779  0.1365  1.7652
10755SOL     OW33163   6.302   5.749   0.300  0.1491 -0.1551 -0.0771
10755SOL    HW133164   6.206   5.723   0.301 -0.1470  0.1837  4.5614
10755SOL    HW233165   6.311   5.846   0.277 -0.6633 -0.0986 -0.1617
10756SOL     OW33166   1.179   6.730   3.110 -0.0734 -0.0541 -0.9010
10756SOL    HW133167   1.143   6.797   3.045 -0.9413 -0.2635 -0.6353
10756SOL    HW233168   1.149   6.753   3.202  1.9025  0.7739 -0.4028
10757SOL     OW33169   5.369   6.987   6.253 -0.1835 -0.3510  0.2976
10757SOL    HW133170   5.385   6.900   6.299  0.3032 -0.5406 -0.2318
10757SOL    HW233171   5.450   7.012   6.199 -0.8527 -0.2677 -0.6831
10758SOL     OW33172   1.863   6.333   2.488  0.1622  0.2147 -0.1515
10758SOL    HW133173   1.850   6.355   2.392 -0.8220 -1.8057 -0.5288
10758SOL    HW233174   1.878   6.418   2.540  1.3600  1.2947 -2.1358
10759SOL     OW33175   1.269   6.902   5.421  0.0579 -0.2623 -0.1491
10759SOL    HW133176   1.248   6.997   5.444  1.3160 -0.5536  2.4971
10759SOL    HW233177   1.223   6.879   5.335 -0.4165  2.6490 -0.8111
10760SOL     OW33178   4.922   3.218   6.591 -0.0252  0.4758  0.2968
10760SOL    HW133179   4.854   3.183   6.656  1.1612  2.1891  2.6483
10760SOL    HW233180   4.915   3.317   6.586  0.7605  0.4837 -1.2916
10761SOL     OW33181   0.060   0.033   4.832  0.0196  0.3243 -0.4535
10761SOL    HW133182   0.073   0.006   4.927 -0.2993 -1.0902 -0.7857
10761SOL    HW233183   0.141   0.007   4.779 -1.1559 -2.0663 -1.1919
10762SOL     OW33184   1.357   3.557   1.654  0.0497 -0.0508 -0.1079
10762SOL    HW133185   1.259   3.579   1.655 -0.2701 -1.4210  0.1122
10762SOL    HW233186   1.400   3.601   1.575 -0.8010  0.2921 -0.3950
10763SOL     OW33187   2.159   5.516   0.149 -0.4085  0.2960 -0.5564
10763SOL    HW133188   2.211   5.450   0.203 -0.1142  0.4185 -0.6892
10763SOL    HW233189   2.201   5.527   0.059 -2.3073 -1.7884 -1.8039
10764SOL     OW33190   0.607   6.898   2.390 -0.0955 -0.1866  0.1513
10764SOL    HW133191   0.588   6.818   2.333  0.0351  0.9655 -1.5725
10764SOL    HW233192   0.705   6.919   2.388  0.0884 -0.7596  1.7114
10765SOL     OW33193   2.124   6.850   1.143 -0.6436  0.1026 -0.2343
10765SOL    HW133194   2.122   6.769   1.085  1.8490  1.3945 -2.3494
10765SOL    HW233195   2.212   6.855   1.190 -0.7604  1.5337 -0.1124
10766SOL     OW33196   5.883   3.258   4.015  0.0218 -0.1057  0.5502
10766SOL    HW133197   5.953   3.258   4.086 -0.3363  0.5981  0.9181
10766SOL    HW233198   5.926   3.241   3.926  0.8505  1.4899  0.6049
10767SOL     OW33199   0.486   6.317   6.486 -0.2035 -0.1698  0.5218
10767SOL    HW133200   0.483   6.273   6.575  2.5606 -0.6154  0.4841
10767SOL    HW233201   0.511   6.414   6.497  0.3832 -0.2844  0.2293
10768SOL     OW33202   5.431   6.219   4.606 -0.3309 -0.4600  0.1436
10768SOL    HW133203   5.405   6.282   4.678  0.0885  0.0058 -0.1073
10768SOL    HW233204   5.378   6.238   4.523  0.1806 -0.0710 -0.1019
10769SOL     OW33205   3.838   3.539   3.023 -0.6434 -0.2687  0.1160
10769SOL    HW133206   3.919   3.572   3.071 -2.4396  0.9809  2.4905
10769SOL    HW233207   3.817   3.599   2.946  0.4298 -0.4001 -0.2985
10770SOL     OW33208   2.872   0.139   2.165 -0.2749  0.0021  0.0856
10770SOL    HW133209   2.826   0.055   2.196  0.1339  0.8012  3.1633
10770SOL    HW233210   2.970   0.130   2.178 -0.3064  1.3101  1.6434
10771SOL     OW33211   2.343   6.417   6.555 -0.1098  0.4996 -0.0038
10771SOL    HW133212   2.422   6.474   6.533 -0.6428  1.5089  0.6444
10771SOL    HW233213   2.371   6.321   6.556  0.8048  0.7276 -1.0977
10772SOL     OW33214   0.503   0.199   0.488 -0.4270  0.3553  0.1936
10772SOL    HW133215   0.599   0.173   0.491  0.2443  2.6638  3.1079
10772SOL    HW233216   0.486   0.256   0.408  0.4835 -0.4610 -0.5982
10773SOL     OW33217   1.562   5.682   1.254  0.0129  0.5450 -0.1687
10773SOL    HW133218   1.654   5.677   1.293 -0.3110 -2.2467  0.4552
10773SOL    HW233219   1.568   5.676   1.154  0.5281  1.2200 -0.1854
10774SOL     OW33220   5.013   0.698   4.729  0.4385 -0.3313 -0.4005
10774SOL    HW133221   5.044   0.776   4.675  0.3682 -0.0317 -0.0194
10774SOL    HW233222   5.087   0.632   4.738  1.0319  0.4248  0.5906
10775SOL     OW33223   6.305   2.062   3.242  0.1646  0.2557 -0.6905
10775SOL    HW133224   6.354   1.978   3.263 -1.0033 -1.2402 -3.4185
10775SOL    HW233225   6.217   2.062   3.290  1.2175  1.2787  1.3983
10776SOL     OW33226   3.610   6.839   5.261  0.6141  0.1247  0.2178
10776SOL    HW133227   3.594   6.897   5.180  1.5799 -2.0306 -1.6304
10776SOL    HW233228   3.525   6.830   5.312  0.2443  2.4750  0.1535
10777SOL     OW33229   6.574   0.457   5.591  0.3944 -0.5517 -0.2851
10777SOL    HW133230   6.641   0.436   5.519  0.3071  0.1023 -0.5624
10777SOL    HW233231   6.608   0.533   5.646 -0.5117  0.3629 -0.9644
10778SOL     OW33232   3.080   0.989   5.582  0.6599  0.0842  0.1958
10778SOL    HW133233   3.099   0.891   5.576 -1.4222 -0.4598  1.2755
10778SOL    HW233234   3.070   1.015   5.678 -0.4894  0.9756 -0.1387
10779SOL     OW33235   0.355   5.515   1.414  0.0515 -0.0054 -0.0745
10779SOL    HW133236   0.352   5.418   1.392 -1.2086  0.0560 -0.2707
10779SOL    HW233237   0.265   5.545   1.445  0.5038  1.0342  0.2916
10780SOL     OW33238   5.114   5.414   3.841  0.0674 -0.0711 -0.1552
10780SOL    HW133239   5.153   5.504   3.821 -0.8775  0.3191 -0.2774
10780SOL    HW233240   5.039   5.395   3.778  0.3314 -1.0063 -0.2117
10781SOL     OW33241   1.943   0.034   5.510  0.0288  0.4641  0.0865
10781SOL    HW133242   1.949   0.105   5.440  1.9675 -0.4345 -0.7253
10781SOL    HW233243   2.030  -0.015   5.516 -1.2216 -1.8412  0.6198
10782SOL     OW33244   5.594   1.046   5.122 -0.1529  0.0104  0.0778
10782SOL    HW133245   5.543   1.119   5.075 -0.3367 -0.5327 -0.5787
10782SOL    HW233246   5.657   1.087   5.188 -0.9792  0.7197  0.4455
10783SOL     OW33247   6.700   3.154   3.551  0.3628 -0.3208  0.1343
10783SOL    HW133248   6.625   3.107   3.505  0.9990 -1.8786  0.6529
10783SOL    HW233249   6.722   3.107   3.637  0.8222  1.1085  0.8377
10784SOL     OW33250   3.608   1.874   4.333  0.0458  0.5222  0.5603
10784SOL    HW133251   3.533   1.938   4.348  0.0331  0.7575 -0.4503
10784SOL    HW233252   3.614   1.852   4.236  0.9051  0.0393  0.7155
10785SOL     OW33253   1.765   2.093   4.957  0.0055 -0.0628  0.3995
10785SOL    HW133254   1.702   2.017   4.977 -0.2342  0.2430  0.8080
10785SOL    HW233255   1.788   2.092   4.859 -0.4231 -0.3378  0.3000
10786SOL     OW33256   6.510   4.028   2.543  0.5126 -0.4278  0.0889
10786SOL    HW133257   6.541   4.119   2.569 -0.3523 -0.0772 -0.0588
10786SOL    HW233258   6.588   3.966   2.535  1.0501  0.1642  0.7231
10787SOL     OW33259   2.677   4.600   0.798 -0.4849  0.2621  0.2708
10787SOL    HW133260   2.675   4.627   0.702  0.4766  4.1525  1.1531
10787SOL    HW233261   2.772   4.583   0.825 -0.3132  2.4476  1.2062
10788SOL     OW33262   6.268   2.387   4.069 -0.2784 -0.2742  0.5599
10788SOL    HW133263   6.348   2.329   4.051  0.5834  0.7089  1.1061
10788SOL    HW233264   6.257   2.452   3.994 -0.1634  0.0243  0.8001
10789SOL     OW33265   2.085   2.178   2.323 -0.5499  0.3092  0.1424
10789SOL    HW133266   2.020   2.159   2.250  1.5481 -2.3767 -1.2238
10789SOL    HW233267   2.039   2.171   2.412 -2.2817 -0.6336 -0.7733
10790SOL     OW33268   6.942   1.935   5.014 -0.1552  0.5251 -0.0491
10790SOL    HW133269   6.857   1.902   5.055 -0.0474  0.3764  0.0555
10790SOL    HW233270   7.015   1.934   5.083  0.1738 -0.3065 -0.4017
10791SOL     OW33271   2.856   1.490   3.072  0.5962 -0.4434 -0.0306
10791SOL    HW133272   2.914   1.416   3.037  2.1973  0.9801 -0.5246
10791SOL    HW233273   2.871   1.572   3.017  0.7014  0.9433  1.9845
10792SOL     OW33274   5.271   3.757   4.823  0.2912  0.4928 -0.3550
10792SOL    HW133275   5.303   3.850   4.806  3.2823 -0.4858 -0.7284
10792SOL    HW233276   5.224   3.723   4.742  0.6120  1.1468 -0.8303
10793SOL     OW33277   6.152   2.571   3.859  0.0144 -0.0073  0.3667
10793SOL    HW133278   6.117   2.664   3.870  1.1280  0.4787 -0.0654
10793SOL    HW233279   6.075   2.507   3.852 -0.7690  0.9214  0.2778
10794SOL     OW33280   2.522   3.367   1.317  0.2889 -0.1562  0.4522
10794SOL    HW133281   2.548   3.275   1.346 -1.9740 -1.2327 -0.7223
10794SOL    HW233282   2.496   3.367   1.221  1.1031  1.9398  0.1640
10795SOL     OW33283   0.148   1.554   3.847  0.5136  0.4404 -0.4457
10795SOL    HW133284   0.065   1.501   3.867  0.7073  0.7092  1.2637
10795SOL    HW233285   0.128   1.651   3.856  1.0016  0.5078 -0.0330
10796SOL     OW33286   6.728   0.918   4.770 -0.5108 -0.2727 -0.4007
10796SOL    HW133287   6.699   0.827   4.798 -1.0910 -0.1644 -0.6382
10796SOL    HW233288   6.795   0.954   4.836 -1.9030  0.0201  0.9084
10797SOL     OW33289   4.016   0.548   2.534 -0.1589  0.7391 -0.6203
10797SOL    HW133290   3.937   0.608   2.533 -0.4219  0.4082 -2.6008
10797SOL    HW233291   3.994   0.463   2.485  1.0779  0.1723 -0.2342
10798SOL     OW33292   2.066   2.787   0.788 -0.1116 -0.2870 -0.0104
10798SOL    HW133293   2.145   2.804   0.847 -0.1500  3.0870 -0.6881
10798SOL    HW233294   1.984   2.774   0.843  0.6131 -2.4443  0.6670
10799SOL     OW33295   4.861   6.700   0.687  0.2912 -0.2106  0.1061
10799SOL    HW133296   4.784   6.692   0.622  0.6097  2.2755 -0.6715
10799SOL    HW233297   4.885   6.609   0.720 -1.0459 -1.3905 -1.9081
10800SOL     OW33298   1.079   1.957   6.970 -0.1328  0.1343  0.1597
10800SOL    HW133299   1.012   1.950   6.897  1.9405 -0.7787 -1.7614
10800SOL    HW233300   1.084   2.051   7.003 -1.6266  0.3972 -0.3277
10801SOL     OW33301   5.696   1.899   1.405  0.2202 -0.3056 -0.1668
10801SOL    HW133302   5.748   1.877   1.322 -0.0711 -0.2109 -0.3776
10801SOL    HW233303   5.737   1.853   1.484  0.5957 -0.2661 -0.3373
10802SOL     OW33304   5.653   0.081   4.152  0.4312 -0.0874 -0.1190
10802SOL    HW133305   5.591   0.151   4.116 -0.7877 -0.7055  0.7116
10802SOL    HW233306   5.684   0.022   4.078  0.6264  0.6898 -0.6613
10803SOL     OW33307   4.666   0.620   1.513  0.4195 -1.0241 -0.1921
10803SOL    HW133308   4.567   0.615   1.525  0.3297 -1.2464 -0.9779
10803SOL    HW233309   4.699   0.708   1.548 -0.6935  1.0949 -3.8241
10804SOL     OW33310   4.926   3.159   5.263 -0.0883 -0.6553 -0.0923
10804SOL    HW133311   5.015   3.151   5.308  0.8102  0.1589 -1.6254
10804SOL    HW233312   4.924   3.243   5.210 -1.4188 -1.1458 -0.8539
10805SOL     OW33313   2.173   4.609   6.717 -0.0639 -0.4784 -0.6991
10805SOL    HW133314   2.238   4.622   6.643  0.6301  1.4272  0.1656
10805SOL    HW233315   2.169   4.692   6.773 -2.7807 -0.7665 -0.3334
10806SOL     OW33316   3.732   5.120   2.200  0.3876  0.2511 -0.1748
10806SOL    HW133317   3.820   5.108   2.153  0.9863  1.8784  0.4466
10806SOL    HW233318   3.748   5.130   2.298 -0.2549  2.4638 -0.2385
10807SOL     OW33319   5.149   6.519   3.442 -0.4574  0.3055  0.3303
10807SOL    HW133320   5.161   6.432   3.488 -2.4073 -0.5261 -0.5920
10807SOL    HW233321   5.054   6.550   3.454 -0.2821  1.3933 -0.8520
10808SOL     OW33322   4.906   1.217   4.440 -0.2459 -0.1872  0.3149
10808SOL    HW133323   4.914   1.226   4.341  0.3926 -1.1473  0.2718
10808SOL    HW233324   4.825   1.162   4.462  0.0942 -0.6954  0.2948
10809SOL     OW33325   1.910   0.004   0.023  0.4495  0.1728 -0.5450
10809SOL    HW133326   1.858   0.058   0.090 -0.1053  1.6798 -2.1235
10809SOL    HW233327   2.005   0.035   0.021  0.7919 -0.7239  0.3730
10810SOL     OW33328   2.704   2.228   1.881 -0.2221  0.3229 -0.3081
10810SOL    HW133329   2.787   2.244   1.935  0.1544  0.4508 -0.9173
10810SOL    HW233330   2.730   2.200   1.788 -0.8620 -0.4234 -0.2749
10811SOL     OW33331   3.022   3.679   4.270 -0.3844  0.1552  0.1811
10811SOL    HW133332   3.038   3.759   4.326 -1.6897  0.2311  0.4790
10811SOL    HW233333   2.941   3.630   4.303  0.2443 -1.1501 -0.1420
10812SOL     OW33334   4.489   0.762   3.903 -0.6308 -0.5433  0.0431
10812SOL    HW133335   4.413   0.793   3.960 -0.6109  0.9766 -0.6949
10812SOL    HW233336   4.458   0.755   3.808  0.1770  0.2364 -0.2858
10813SOL     OW33337   2.303   6.091   1.696  0.1189 -0.0317 -0.6251
10813SOL    HW133338   2.213   6.093   1.739  0.7866  0.5025  0.8017
10813SOL    HW233339   2.373   6.112   1.764  1.1186  2.4603 -2.2750
10814SOL     OW33340   2.938   3.402   3.491 -0.2156 -0.1345  0.0325
10814SOL    HW133341   2.935   3.357   3.580  2.4181 -1.3801 -0.4245
10814SOL    HW233342   3.004   3.477   3.493  0.3186 -0.5560 -1.0096
10815SOL     OW33343   0.850   3.976   2.216 -0.0552  0.4325 -0.1333
10815SOL    HW133344   0.919   3.993   2.145 -0.2218  1.2025 -0.1174
10815SOL    HW233345   0.838   3.877   2.227 -0.4319  0.2917 -1.5735
10816SOL     OW33346   3.107   6.334   4.328  0.1095  0.2101 -0.4090
10816SOL    HW133347   3.012   6.302   4.333  0.5580 -1.0035  1.5525
10816SOL    HW233348   3.168   6.261   4.359  1.7447  0.8368 -2.0095
10817SOL     OW33349   1.413   3.949   3.998  0.4511  0.0185 -0.2689
10817SOL    HW133350   1.359   3.865   3.993  0.7627 -0.2800  0.8912
10817SOL    HW233351   1.498   3.937   3.947 -0.3322  0.3213 -1.6980
10818SOL     OW33352   6.265   4.159   4.240 -0.4733  0.6149  0.0066
10818SOL    HW133353   6.223   4.080   4.195  1.9650 -0.0350 -1.2787
10818SOL    HW233354   6.243   4.157   4.338 -3.0740  0.1635 -0.5093
10819SOL     OW33355   2.744   1.731   3.915 -0.0143 -0.2127 -0.0238
10819SOL    HW133356   2.735   1.684   3.827 -1.0047  0.6219 -0.3798
10819SOL    HW233357   2.718   1.827   3.905  1.5036  0.3119  0.8114
10820SOL     OW33358   5.574   5.359   3.774 -0.1879 -0.2707  0.1944
10820SOL    HW133359   5.635   5.318   3.842 -0.2617 -0.9827 -0.1675
10820SOL    HW233360   5.479   5.338   3.797 -0.2241 -0.3234 -0.0044
10821SOL     OW33361   5.381   2.504   0.987 -0.0173 -0.0948  0.6835
10821SOL    HW133362   5.421   2.443   0.919  2.6604  1.4049  0.7967
10821SOL    HW233363   5.284   2.481   0.999  0.0339 -2.0209 -1.7614
10822SOL     OW33364   1.467   0.220   1.262 -0.4795 -0.1829  0.3175
10822SOL    HW133365   1.378   0.227   1.218 -0.7186  0.7360  0.9266
10822SOL    HW233366   1.468   0.275   1.345  0.8895  0.4521 -0.0835
10823SOL     OW33367   4.687   2.183   3.377  0.7768  0.1081  0.0576
10823SOL    HW133368   4.633   2.267   3.376  1.6003  0.6981  1.3625
10823SOL    HW233369   4.734   2.172   3.290 -0.0527  0.5128 -0.4530
10824SOL     OW33370   0.477   3.385   6.345 -0.1204 -0.0688 -0.3038
10824SOL    HW133371   0.554   3.325   6.323 -0.3902  0.0730 -1.7109
10824SOL    HW233372   0.401   3.330   6.379  0.6619 -0.1841  1.3467
10825SOL     OW33373   4.648   6.311   4.425  0.6622 -0.2661 -0.0165
10825SOL    HW133374   4.590   6.249   4.478  0.8010 -1.1114 -0.8131
10825SOL    HW233375   4.641   6.404   4.461  0.5287 -0.7670  1.2793
10826SOL     OW33376   3.218   4.315   0.825  0.9402  0.5446  0.4591
10826SOL    HW133377   3.138   4.255   0.822  1.7112 -0.5910  1.6263
10826SOL    HW233378   3.203   4.386   0.895  0.4963  1.0378 -0.1266
10827SOL     OW33379   5.055   2.456   4.476  0.1153  0.2122 -0.8254
10827SOL    HW133380   4.985   2.528   4.469  0.4035  0.5387 -0.3812
10827SOL    HW233381   5.081   2.444   4.571  0.9928  0.3996 -1.0362
10828SOL     OW33382   5.271   2.727   1.227 -0.1034 -0.2909  0.2980
10828SOL    HW133383   5.283   2.672   1.310 -1.0574  2.5403  2.4767
10828SOL    HW233384   5.321   2.814   1.237 -2.7244  1.4556 -0.6917
10829SOL     OW33385   6.797   5.613   0.420  0.5976  0.1461  0.2940
10829SOL    HW133386   6.853   5.683   0.464  0.3682  1.7723 -1.8288
10829SOL    HW233387   6.700   5.631   0.439  0.5072  0.7626 -0.7161
10830SOL     OW33388   3.755   6.560   4.665  0.4188 -0.2959 -0.2432
10830SOL    HW133389   3.737   6.465   4.689 -0.7820 -0.0294 -0.0429
10830SOL    HW233390   3.670   6.612   4.668  1.2324  1.0356  0.7566
10831SOL     OW33391   1.704   5.375   1.161 -0.1328  0.1748  0.2486
10831SOL    HW133392   1.742   5.283   1.148  0.2193  0.3260  0.2227
10831SOL    HW233393   1.695   5.393   1.259  0.7405  0.5039  0.2713
10832SOL     OW33394   6.260   3.441   6.993 -0.3120  0.5215 -0.0162
10832SOL    HW133395   6.206   3.366   7.031  0.0631 -0.4797 -1.3525
10832SOL    HW233396   6.273   3.425   6.895  1.6764  1.1853  0.1065
10833SOL     OW33397   3.901   2.096   2.564 -0.2457  0.7257 -0.4921
10833SOL    HW133398   3.802   2.090   2.554 -0.2282 -0.8700  0.1140
10833SOL    HW233399   3.927   2.079   2.659  0.5929  1.5850 -0.5460
10834SOL     OW33400   5.723   4.505   2.799 -0.2444 -0.1847 -0.7177
10834SOL    HW133401   5.669   4.523   2.717 -1.4100 -1.7493 -0.3622
10834SOL    HW233402   5.769   4.417   2.790  0.9390  0.3851 -0.3424
10835SOL     OW33403   3.438   6.065   2.782 -0.1256 -0.0218  0.2377
10835SOL    HW133404   3.466   6.151   2.739 -0.2118 -0.3636 -0.5146
10835SOL    HW233405   3.396   6.084   2.871 -0.3050  0.7228  0.0008
10836SOL     OW33406   5.389   5.060   4.049  0.7231 -0.0460  0.2754
10836SOL    HW133407   5.323   4.986   4.035 -1.3974  1.7420  0.2322
10836SOL    HW233408   5.433   5.049   4.138  0.2982 -1.2472  0.3515
10837SOL     OW33409   3.859   2.635   6.561  0.1709 -0.5839 -0.0938
10837SOL    HW133410   3.851   2.598   6.653  1.6069  0.6317  0.5654
10837SOL    HW233411   3.938   2.697   6.556  0.1327 -0.6101 -2.1409
10838SOL     OW33412   2.769   0.721   6.824  0.3857  0.1125 -0.5197
10838SOL    HW133413   2.796   0.737   6.919  1.2045 -0.1768 -0.6917
10838SOL    HW233414   2.670   0.710   6.819  0.3007  0.4492  0.2541
10839SOL     OW33415   1.003   0.797   1.759  0.3013 -0.4889  0.2695
10839SOL    HW133416   0.951   0.732   1.703  0.3427 -3.1210  3.0357
10839SOL    HW233417   1.096   0.762   1.773  0.2963  0.0912  1.9162
10840SOL     OW33418   5.559   4.207   4.263  0.8500 -0.6395  0.6036
10840SOL    HW133419   5.624   4.132   4.277  2.3662  0.6064  0.5087
10840SOL    HW233420   5.606   4.284   4.219 -0.6635  0.3672  0.6802
10841SOL     OW33421   4.829   2.869   6.389 -0.3478 -0.4790 -0.3575
10841SOL    HW133422   4.824   2.770   6.386  0.9706 -0.5435 -2.1381
10841SOL    HW233423   4.741   2.908   6.360 -1.4610 -1.0473  2.0393
10842SOL     OW33424   5.212   4.935   3.354  0.2859 -0.1282  0.7168
10842SOL    HW133425   5.191   5.022   3.400  0.2549  0.1294  0.2198
10842SOL    HW233426   5.137   4.910   3.294  0.7457  0.0413  0.0560
10843SOL     OW33427   3.864   6.230   6.270 -0.0185  0.0246  0.0878
10843SOL    HW133428   3.852   6.302   6.201  1.0177 -0.4940 -0.6564
10843SOL    HW233429   3.840   6.141   6.230 -1.1725 -0.0902  0.9637
10844SOL     OW33430   5.234   2.692   3.755 -0.3098 -0.1574 -0.3056
10844SOL    HW133431   5.137   2.689   3.776 -0.3597 -0.5895 -0.5728
10844SOL    HW233432   5.248   2.666   3.659  0.1244 -0.8467 -0.0669
10845SOL     OW33433   6.185   4.049   0.129  0.2437  1.4957  0.0473
10845SOL    HW133434   6.252   3.976   0.122 -0.9653  0.1129  1.9364
10845SOL    HW233435   6.172   4.091   0.039  2.1017  0.4551 -0.7591
10846SOL     OW33436   5.693   3.709   2.479 -0.1296  0.3975 -0.4865
10846SOL    HW133437   5.611   3.751   2.439 -0.5443  1.2909  1.1999
10846SOL    HW233438   5.771   3.770   2.466 -0.4910  1.2030  0.9521
10847SOL     OW33439   3.561   4.452   1.634  0.8896  0.1321 -0.1021
10847SOL    HW133440   3.557   4.500   1.721 -1.0023  0.0768 -0.1095
10847SOL    HW233441   3.492   4.490   1.572  1.5131 -0.5081 -1.2238
10848SOL     OW33442   2.803   5.775   5.851 -0.0998 -0.6038  0.1365
10848SOL    HW133443   2.779   5.843   5.921  2.4342  1.6086 -0.9396
10848SOL    HW233444   2.841   5.694   5.896  2.0614  1.0076  1.4557
10849SOL     OW33445   2.614   0.604   1.662  0.4177 -0.7568 -0.5984
10849SOL    HW133446   2.589   0.672   1.732 -0.3468 -1.3981 -0.2319
10849SOL    HW233447   2.616   0.648   1.572 -0.1125 -0.2538 -0.3731
10850SOL     OW33448   5.023   4.690   2.598 -0.2250  0.1774  0.2924
10850SOL    HW133449   5.051   4.608   2.648  0.9009  1.1481  1.3078
10850SOL    HW233450   5.005   4.764   2.662  0.2444  1.1675 -0.6831
10851SOL     OW33451   4.293   5.505   4.524  0.3521 -0.6472 -0.3397
10851SOL    HW133452   4.311   5.524   4.427  1.5758  0.0772  0.0148
10851SOL    HW233453   4.262   5.411   4.534 -0.3137 -0.5690 -1.4957
10852SOL     OW33454   1.123   6.159   5.873  0.3898  0.7386  0.0056
10852SOL    HW133455   1.069   6.136   5.791  0.1717 -0.3160  0.4235
10852SOL    HW233456   1.197   6.093   5.883  0.6576  1.1033  0.4462
10853SOL     OW33457   0.696   4.265   5.527 -0.6843 -0.0962 -0.1617
10853SOL    HW133458   0.795   4.283   5.526 -1.0174  2.5250  2.1264
10853SOL    HW233459   0.679   4.178   5.573  0.5460 -0.5935 -0.6079
10854SOL     OW33460   0.199   3.102   0.917  0.0245  0.3867  0.6959
10854SOL    HW133461   0.199   3.009   0.956 -1.0754  0.5414  1.1125
10854SOL    HW233462   0.104   3.134   0.909  0.3521  1.1583 -0.2263
10855SOL     OW33463   2.131   6.872   2.577  0.8389 -0.4619 -0.2831
10855SOL    HW133464   2.095   6.802   2.515 -1.8545  2.8950 -2.8805
10855SOL    HW233465   2.198   6.928   2.529 -0.4562  1.5134  0.0969
10856SOL     OW33466   4.027   1.713   2.274  0.0870 -0.0473  0.1213
10856SOL    HW133467   4.025   1.670   2.183  0.5387  0.0838  0.0472
10856SOL    HW233468   3.947   1.771   2.285 -0.2951 -0.5584  0.0484
10857SOL     OW33469   1.966   1.247   4.382 -0.1901 -0.0356  0.3249
10857SOL    HW133470   2.055   1.294   4.380 -1.3752  2.3372 -2.0153
10857SOL    HW233471   1.972   1.164   4.326  0.6244 -0.1012  0.4840
10858SOL     OW33472   6.741   3.882   2.540  0.3126  0.5276  0.5563
10858SOL    HW133473   6.765   3.818   2.614 -2.8217  1.6808  2.7882
10858SOL    HW233474   6.823   3.931   2.511  1.9705 -1.1982  2.0266
10859SOL     OW33475   4.637   2.038   0.801  0.0907  0.1346  0.2823
10859SOL    HW133476   4.720   2.092   0.789  1.5420 -2.3073 -1.4875
10859SOL    HW233477   4.643   1.983   0.884 -0.1922  0.6389  0.6427
10860SOL     OW33478   4.623   1.725   4.488  0.2925 -0.2054  0.0480
10860SOL    HW133479   4.647   1.666   4.411  0.2401  1.2410 -1.1350
10860SOL    HW233480   4.602   1.669   4.568  0.8827 -1.7403 -0.8209
10861SOL     OW33481   4.183   0.309   4.059 -0.0336  0.2579  0.3731
10861SOL    HW133482   4.090   0.303   4.097 -0.4120  1.5971 -0.2735
10861SOL    HW233483   4.194   0.397   4.013  1.6442  0.2097  0.6317
10862SOL     OW33484   1.478   0.867   3.353 -0.5735  0.3163 -1.0249
10862SOL    HW133485   1.511   0.775   3.375  4.2792  1.6401 -1.6868
10862SOL    HW233486   1.428   0.904   3.432  0.3321 -1.6631  0.5650
10863SOL     OW33487   2.933   1.804   2.557 -0.6495  0.1432 -0.1428
10863SOL    HW133488   2.985   1.751   2.624  1.6851  2.0557 -0.3434
10863SOL    HW233489   2.916   1.747   2.476  1.9123 -0.3308 -0.4218
10864SOL     OW33490   6.699   5.804   3.323 -0.5600 -0.2584 -0.1830
10864SOL    HW133491   6.779   5.839   3.275 -1.8566  1.4831 -1.1539
10864SOL    HW233492   6.654   5.878   3.372 -2.2406 -0.9551 -0.6193
10865SOL     OW33493   4.034   5.510   1.767  0.2235  0.1542  0.2489
10865SOL    HW133494   3.937   5.493   1.784 -0.0910  2.0363  0.5177
10865SOL    HW233495   4.082   5.519   1.854 -0.2597  3.7032  0.2946
10866SOL     OW33496   1.610   1.761   5.383 -0.3021  0.1992 -0.9263
10866SOL    HW133497   1.674   1.832   5.353 -0.6964  1.4144  0.9754
10866SOL    HW233498   1.654   1.672   5.373  2.0226  1.0232  0.9385
10867SOL     OW33499   3.020   0.754   0.531  0.3575  0.0996  0.0501
10867SOL    HW133500   3.004   0.669   0.580  0.1097 -0.1404 -0.4327
10867SOL    HW233501   2.982   0.830   0.583 -1.8159 -0.3712 -0.7125
10868SOL     OW33502   1.317   6.171   4.224 -0.0950  0.3816 -0.7834
10868SOL    HW133503   1.358   6.141   4.137  1.8288  1.4962 -0.3257
10868SOL    HW233504   1.366   6.252   4.257  0.9108 -1.4125  2.5801
10869NA      NA33505   1.830   2.018   3.674 -0.1099  0.0730 -0.2730
10870NA      NA33506   5.188   3.766   5.046  0.3176 -0.3569 -0.0372
10871NA      NA33507   2.355   4.153   5.712  0.3683 -0.0428  0.1666
10872NA      NA33508   3.519   0.790   3.890  0.5122  0.0706 -0.1677
10873NA      NA33509   4.832   2.185   5.720  0.5231 -0.3388  0.3703
10874NA      NA33510   2.972   0.010   6.999  0.0348  0.3282 -0.5752
10875NA      NA33511   3.383   3.762   2.573  0.3365  0.2321 -0.0238
10876NA      NA33512   4.571   4.864   1.697  0.0894 -0.0016 -0.0460
10877NA      NA33513   5.023   3.054   6.440  0.4279  0.1363 -0.4312
10878NA      NA33514   4.300   2.041   1.346 -0.3612  0.2387 -0.5520
10879NA      NA33515   5.493   4.779   5.678 -0.1666 -0.3962 -0.2549
10880NA      NA33516   0.910   5.703   3.849  0.3349 -0.4732  0.1913
10881NA      NA33517   2.849   3.478   6.080  0.2971  0.3185  0.4214
10882NA      NA33518   4.588   4.180   6.653  0.1366  0.0745  0.1007
   7.01714   7.01714   7.01714
